mobley_1352110_GMX.gro created by acpype (v: 2023.10.27) on Thu May 21 00:02:12 2026
12568
    1MOL     C1    1   2.619   2.451   2.484
    1MOL     C2    2   2.174   2.825   2.495
    1MOL     C3    3   2.664   2.167   2.922
    1MOL     C4    4   2.748   2.582   2.215
    1MOL     C5    5   2.326   2.824   2.493
    1MOL     C6    6   2.620   2.302   2.868
    1MOL     C7    7   2.380   2.688   2.446
    1MOL     C8    8   2.608   2.540   2.257
    1MOL     C9    9   2.533   2.687   2.444
    1MOL    C10   10   2.640   2.309   2.717
    1MOL     N1   11   2.586   2.557   2.400
    1MOL     O1   12   2.667   2.346   2.443
    1MOL     S1   13   2.586   2.472   2.656
    1MOL     H1   14   2.135   2.749   2.564
    1MOL     H2   15   2.138   2.923   2.529
    1MOL     H3   16   2.133   2.806   2.396
    1MOL     H4   17   2.606   2.085   2.877
    1MOL     H5   18   2.770   2.148   2.902
    1MOL     H6   19   2.649   2.163   3.031
    1MOL     H7   20   2.766   2.688   2.238
    1MOL     H8   21   2.824   2.523   2.268
    1MOL     H9   22   2.761   2.568   2.108
    1MOL    H10   23   2.362   2.903   2.426
    1MOL    H11   24   2.364   2.846   2.593
    1MOL    H12   25   2.678   2.380   2.918
    1MOL    H13   26   2.515   2.318   2.894
    1MOL    H14   27   2.343   2.609   2.512
    1MOL    H15   28   2.342   2.666   2.346
    1MOL    H16   29   2.592   2.435   2.230
    1MOL    H17   30   2.533   2.598   2.202
    1MOL    H18   31   2.573   2.714   2.542
    1MOL    H19   32   2.570   2.764   2.375
    1MOL    H20   33   2.745   2.294   2.692
    1MOL    H21   34   2.581   2.231   2.668
    2SOL     OW   35   0.230   0.628   0.113
    2SOL    HW1   36   0.137   0.626   0.150
    2SOL    HW2   37   0.231   0.589   0.021
    3SOL     OW   38   0.225   0.275   0.996
    3SOL    HW1   39   0.260   0.258   1.088
    3SOL    HW2   40   0.137   0.230   0.984
    4SOL     OW   41   0.019   0.368   0.647
    4SOL    HW1   42  -0.063   0.411   0.686
    4SOL    HW2   43  -0.009   0.295   0.584
    5SOL     OW   44   0.569   1.275   1.165
    5SOL    HW1   45   0.476   1.268   1.128
    5SOL    HW2   46   0.580   1.364   1.209
    6SOL     OW   47   1.555   1.511   0.703
    6SOL    HW1   48   1.498   1.495   0.784
    6SOL    HW2   49   1.496   1.521   0.623
    7SOL     OW   50   1.135   0.703   0.717
    7SOL    HW1   51   1.192   0.781   0.692
    7SOL    HW2   52   1.075   0.729   0.793
    8SOL     OW   53   1.755   0.607   0.231
    8SOL    HW1   54   1.743   0.594   0.132
    8SOL    HW2   55   1.725   0.526   0.280
    9SOL     OW   56   0.768   1.144   1.023
    9SOL    HW1   57   0.690   1.161   1.083
    9SOL    HW2   58   0.802   1.231   0.987
   10SOL     OW   59   0.850   0.798   1.823
   10SOL    HW1   60   0.846   0.874   1.888
   10SOL    HW2   61   0.872   0.834   1.732
   11SOL     OW   62   0.685   1.012   0.665
   11SOL    HW1   63   0.754   0.996   0.735
   11SOL    HW2   64   0.612   1.069   0.703
   12SOL     OW   65   0.686   1.161   1.803
   12SOL    HW1   66   0.746   1.240   1.817
   12SOL    HW2   67   0.600   1.192   1.762
   13SOL     OW   68   0.335   1.435   1.061
   13SOL    HW1   69   0.257   1.404   1.008
   13SOL    HW2   70   0.393   1.493   1.004
   14SOL     OW   71   1.460   1.505   1.339
   14SOL    HW1   72   1.484   1.599   1.365
   14SOL    HW2   73   1.444   1.451   1.421
   15SOL     OW   74   0.438   0.392   1.499
   15SOL    HW1   75   0.520   0.336   1.508
   15SOL    HW2   76   0.357   0.334   1.503
   16SOL     OW   77   1.603   0.447   0.737
   16SOL    HW1   78   1.529   0.493   0.687
   16SOL    HW2   79   1.654   0.515   0.790
   17SOL     OW   80   0.231   1.713   0.483
   17SOL    HW1   81   0.265   1.790   0.537
   17SOL    HW2   82   0.275   1.713   0.393
   18SOL     OW   83   1.127   1.341   1.690
   18SOL    HW1   84   1.174   1.341   1.778
   18SOL    HW2   85   1.079   1.254   1.679
   19SOL     OW   86   0.230   1.434   0.538
   19SOL    HW1   87   0.204   1.530   0.538
   19SOL    HW2   88   0.159   1.380   0.583
   20SOL     OW   89   0.240   1.091   0.886
   20SOL    HW1   90   0.254   1.007   0.938
   20SOL    HW2   91   0.185   1.155   0.941
   21SOL     OW   92   0.620   1.786   1.439
   21SOL    HW1   93   0.528   1.769   1.474
   21SOL    HW2   94   0.648   1.878   1.465
   22SOL     OW   95   0.606   0.964   0.123
   22SOL    HW1   96   0.613   1.048   0.069
   22SOL    HW2   97   0.652   0.977   0.211
   23SOL     OW   98   1.594   0.114   1.480
   23SOL    HW1   99   1.576   0.181   1.408
   23SOL    HW2  100   1.591   0.160   1.569
   24SOL     OW  101   0.122   0.643   0.563
   24SOL    HW1  102   0.077   0.555   0.580
   24SOL    HW2  103   0.121   0.697   0.647
   25SOL     OW  104   1.842   1.767   0.359
   25SOL    HW1  105   1.896   1.738   0.439
   25SOL    HW2  106   1.872   1.857   0.330
   26SOL     OW  107   0.027   1.596   0.117
   26SOL    HW1  108   0.008   1.500   0.138
   26SOL    HW2  109  -0.006   1.654   0.192
   27SOL     OW  110   1.689   0.922   0.612
   27SOL    HW1  111   1.784   0.893   0.620
   27SOL    HW2  112   1.681   0.987   0.537
   28SOL     OW  113   1.641   1.108   0.432
   28SOL    HW1  114   1.727   1.110   0.380
   28SOL    HW2  115   1.655   1.155   0.520
   29SOL     OW  116   0.113   0.737   1.597
   29SOL    HW1  117   0.201   0.724   1.642
   29SOL    HW2  118   0.100   0.834   1.575
   30SOL     OW  119   0.613   1.365   0.726
   30SOL    HW1  120   0.564   1.278   0.735
   30SOL    HW2  121   0.590   1.408   0.639
   31SOL     OW  122   1.293   1.228   1.423
   31SOL    HW1  123   1.330   1.155   1.365
   31SOL    HW2  124   1.345   1.233   1.508
   32SOL     OW  125   0.809   0.004   0.502
   32SOL    HW1  126   0.849   0.095   0.493
   32SOL    HW2  127   0.709   0.012   0.508
   33SOL     OW  128   0.197   0.976   1.264
   33SOL    HW1  129   0.286   0.931   1.250
   33SOL    HW2  130   0.124   0.911   1.245
   34SOL     OW  131   1.525   0.999   0.190
   34SOL    HW1  132   1.462   0.923   0.203
   34SOL    HW2  133   1.573   1.017   0.276
   35SOL     OW  134   1.187   1.792   1.616
   35SOL    HW1  135   1.211   1.852   1.540
   35SOL    HW2  136   1.194   1.697   1.586
   36SOL     OW  137   0.317   0.251   1.801
   36SOL    HW1  138   0.388   0.322   1.807
   36SOL    HW2  139   0.229   0.290   1.829
   37SOL     OW  140   1.466   1.417   0.953
   37SOL    HW1  141   1.407   1.423   1.033
   37SOL    HW2  142   1.451   1.329   0.907
   38SOL     OW  143   1.667   1.714   0.572
   38SOL    HW1  144   1.626   1.691   0.484
   38SOL    HW2  145   1.649   1.640   0.637
   39SOL     OW  146   0.598   0.729   0.270
   39SOL    HW1  147   0.622   0.798   0.202
   39SOL    HW2  148   0.520   0.762   0.324
   40SOL     OW  149   1.281   0.345   0.944
   40SOL    HW1  150   1.195   0.295   0.931
   40SOL    HW2  151   1.343   0.291   1.000
   41SOL     OW  152   1.576   1.662   0.307
   41SOL    HW1  153   1.665   1.708   0.310
   41SOL    HW2  154   1.555   1.638   0.212
   42SOL     OW  155   0.807   0.605   1.465
   42SOL    HW1  156   0.760   0.602   1.554
   42SOL    HW2  157   0.756   0.550   1.399
   43SOL     OW  158   1.394   0.469   1.674
   43SOL    HW1  159   1.374   0.512   1.762
   43SOL    HW2  160   1.472   0.407   1.683
   44SOL     OW  161   0.973   0.890   1.572
   44SOL    HW1  162   1.019   0.806   1.543
   44SOL    HW2  163   0.917   0.924   1.497
   45SOL     OW  164   0.991   0.410   1.242
   45SOL    HW1  165   0.914   0.444   1.296
   45SOL    HW2  166   0.957   0.359   1.163
   46SOL     OW  167   1.041   0.701   0.429
   46SOL    HW1  168   1.067   0.697   0.525
   46SOL    HW2  169   0.956   0.650   0.415
   47SOL     OW  170   0.076   0.811   0.789
   47SOL    HW1  171   0.175   0.799   0.798
   47SOL    HW2  172   0.052   0.906   0.810
   48SOL     OW  173   0.130   1.821   1.571
   48SOL    HW1  174   0.120   1.806   1.670
   48SOL    HW2  175   0.044   1.857   1.535
   49SOL     OW  176   0.865   0.348   0.195
   49SOL    HW1  177   0.924   0.411   0.146
   49SOL    HW2  178   0.884   0.254   0.166
   50SOL     OW  179   1.719   0.585   1.831
   50SOL    HW1  180   1.693   0.674   1.795
   50SOL    HW2  181   1.717   0.517   1.758
   51SOL     OW  182   1.362   1.144   0.545
   51SOL    HW1  183   1.445   1.115   0.497
   51SOL    HW2  184   1.313   1.211   0.489
   52SOL     OW  185   0.550   0.196   0.885
   52SOL    HW1  186   0.545   0.191   0.985
   52SOL    HW2  187   0.552   0.292   0.856
   53SOL     OW  188   1.008   1.456   0.477
   53SOL    HW1  189   0.962   1.528   0.425
   53SOL    HW2  190   1.004   1.476   0.575
   54SOL     OW  191   0.351   1.801   0.853
   54SOL    HW1  192   0.401   1.715   0.859
   54SOL    HW2  193   0.416   1.878   0.850
   55SOL     OW  194   1.795   1.066   0.873
   55SOL    HW1  195   1.733   1.051   0.797
   55SOL    HW2  196   1.743   1.077   0.958
   56SOL     OW  197   1.227   1.550   1.506
   56SOL    HW1  198   1.233   1.473   1.570
   56SOL    HW2  199   1.175   1.524   1.426
   57SOL     OW  200   0.321   0.943   0.242
   57SOL    HW1  201   0.403   0.982   0.200
   57SOL    HW2  202   0.294   0.861   0.193
   58SOL     OW  203   1.458   0.735   0.728
   58SOL    HW1  204   1.453   0.670   0.803
   58SOL    HW2  205   1.538   0.794   0.741
   59SOL     OW  206   0.461   1.266   1.727
   59SOL    HW1  207   0.411   1.267   1.641
   59SOL    HW2  208   0.398   1.248   1.803
   60SOL     OW  209   1.111   1.776   0.237
   60SOL    HW1  210   1.051   1.714   0.287
   60SOL    HW2  211   1.142   1.732   0.152
   61SOL     OW  212   0.202   0.285   1.498
   61SOL    HW1  213   0.122   0.345   1.485
   61SOL    HW2  214   0.192   0.236   1.584
   62SOL     OW  215   1.632   1.377   0.081
   62SOL    HW1  216   1.600   1.471   0.071
   62SOL    HW2  217   1.556   1.314   0.069
   63SOL     OW  218   0.464   1.743   0.323
   63SOL    HW1  219   0.497   1.782   0.409
   63SOL    HW2  220   0.540   1.736   0.258
   64SOL     OW  221   1.400   0.107   0.426
   64SOL    HW1  222   1.376   0.070   0.336
   64SOL    HW2  223   1.499   0.123   0.430
   65SOL     OW  224   0.249   1.785   1.241
   65SOL    HW1  225   0.306   1.720   1.291
   65SOL    HW2  226   0.233   1.752   1.148
   66SOL     OW  227   0.940   1.698   0.904
   66SOL    HW1  228   1.020   1.641   0.925
   66SOL    HW2  229   0.891   1.658   0.827
   67SOL     OW  230   0.382   0.700   0.480
   67SOL    HW1  231   0.427   0.610   0.477
   67SOL    HW2  232   0.288   0.689   0.513
   68SOL     OW  233   1.547   0.222   1.729
   68SOL    HW1  234   1.542   0.259   1.821
   68SOL    HW2  235   1.475   0.153   1.717
   69SOL     OW  236   0.614   0.122   0.117
   69SOL    HW1  237   0.712   0.100   0.124
   69SOL    HW2  238   0.583   0.105   0.024
   70SOL     OW  239   0.781   0.264   1.749
   70SOL    HW1  240   0.848   0.203   1.792
   70SOL    HW2  241   0.708   0.283   1.814
   71SOL     OW  242   0.888   1.514   1.195
   71SOL    HW1  243   0.865   1.489   1.101
   71SOL    HW2  244   0.949   1.445   1.234
   72SOL     OW  245   1.351   0.590   1.433
   72SOL    HW1  246   1.379   0.547   1.518
   72SOL    HW2  247   1.376   0.686   1.434
   73SOL     OW  248   0.803   1.402   0.924
   73SOL    HW1  249   0.893   1.416   0.882
   73SOL    HW2  250   0.732   1.404   0.853
   74SOL     OW  251   0.922   0.503   0.899
   74SOL    HW1  252   0.897   0.494   0.803
   74SOL    HW2  253   0.970   0.421   0.930
   75SOL     OW  254   0.539   0.064   0.512
   75SOL    HW1  255   0.458   0.065   0.570
   75SOL    HW2  256   0.542   0.147   0.457
   76SOL     OW  257   1.434   1.188   0.041
   76SOL    HW1  258   1.466   1.112   0.098
   76SOL    HW2  259   1.342   1.215   0.071
   77SOL     OW  260   0.297   0.035   0.171
   77SOL    HW1  261   0.346   0.119   0.150
   77SOL    HW2  262   0.359  -0.030   0.216
   78SOL     OW  263   0.935   0.236   0.480
   78SOL    HW1  264   0.887   0.277   0.402
   78SOL    HW2  265   1.034   0.234   0.461
   79SOL     OW  266   1.076   0.683   1.464
   79SOL    HW1  267   0.996   0.622   1.467
   79SOL    HW2  268   1.157   0.630   1.440
   80SOL     OW  269   1.227   1.570   0.793
   80SOL    HW1  270   1.248   1.644   0.728
   80SOL    HW2  271   1.295   1.570   0.866
   81SOL     OW  272   0.459   1.152   0.741
   81SOL    HW1  273   0.388   1.125   0.806
   81SOL    HW2  274   0.433   1.124   0.648
   82SOL     OW  275   1.271   1.797   0.591
   82SOL    HW1  276   1.315   1.861   0.527
   82SOL    HW2  277   1.221   1.849   0.661
   83SOL     OW  278   1.032   0.549   0.016
   83SOL    HW1  279   0.991   0.631  -0.023
   83SOL    HW2  280   1.096   0.575   0.089
   84SOL     OW  281   0.078   0.556   1.386
   84SOL    HW1  282   0.170   0.555   1.345
   84SOL    HW2  283   0.072   0.630   1.453
   85SOL     OW  284   0.561   0.222   1.147
   85SOL    HW1  285   0.599   0.138   1.184
   85SOL    HW2  286   0.473   0.241   1.191
   86SOL     OW  287   0.866   0.454   0.642
   86SOL    HW1  288   0.834   0.526   0.580
   86SOL    HW2  289   0.890   0.373   0.589
   87SOL     OW  290   1.017   0.039   0.753
   87SOL    HW1  291   0.945   0.044   0.684
   87SOL    HW2  292   0.993  -0.030   0.822
   88SOL     OW  293   1.429   1.173   0.867
   88SOL    HW1  294   1.374   1.089   0.860
   88SOL    HW2  295   1.455   1.202   0.775
   89SOL     OW  296   1.466   0.590   0.992
   89SOL    HW1  297   1.436   0.495   0.999
   89SOL    HW2  298   1.539   0.606   1.058
   90SOL     OW  299   1.857   0.833   0.377
   90SOL    HW1  300   1.899   0.769   0.441
   90SOL    HW2  301   1.819   0.782   0.299
   91SOL     OW  302   0.488   1.385   0.174
   91SOL    HW1  303   0.401   1.370   0.221
   91SOL    HW2  304   0.471   1.411   0.079
   92SOL     OW  305   1.664   1.280   0.657
   92SOL    HW1  306   1.763   1.288   0.671
   92SOL    HW2  307   1.619   1.364   0.688
   93SOL     OW  308   1.390   0.575   0.078
   93SOL    HW1  309   1.336   0.554   0.159
   93SOL    HW2  310   1.481   0.534   0.087
   94SOL     OW  311   0.527   0.256   0.328
   94SOL    HW1  312   0.554   0.197   0.253
   94SOL    HW2  313   0.527   0.351   0.297
   95SOL     OW  314   1.754   1.223   1.588
   95SOL    HW1  315   1.845   1.184   1.575
   95SOL    HW2  316   1.762   1.319   1.612
   96SOL     OW  317   1.064   1.347   1.340
   96SOL    HW1  318   0.984   1.324   1.395
   96SOL    HW2  319   1.147   1.321   1.389
   97SOL     OW  320   1.592   1.629   1.625
   97SOL    HW1  321   1.619   1.663   1.535
   97SOL    HW2  322   1.671   1.591   1.671
   98SOL     OW  323   1.111   1.195   1.100
   98SOL    HW1  324   1.071   1.239   1.181
   98SOL    HW2  325   1.070   1.232   1.017
   99SOL     OW  326   1.638   1.099   1.079
   99SOL    HW1  327   1.643   1.180   1.138
   99SOL    HW2  328   1.552   1.101   1.028
  100SOL     OW  329   0.915   0.089   1.402
  100SOL    HW1  330   0.940   0.069   1.307
  100SOL    HW2  331   0.987   0.145   1.444
  101SOL     OW  332   0.980   1.116   1.719
  101SOL    HW1  333   0.881   1.122   1.729
  101SOL    HW2  334   1.003   1.036   1.663
  102SOL     OW  335   0.705   1.050   0.368
  102SOL    HW1  336   0.691   1.057   0.467
  102SOL    HW2  337   0.789   0.999   0.350
  103SOL     OW  338   0.410   0.813   1.251
  103SOL    HW1  339   0.496   0.825   1.301
  103SOL    HW2  340   0.368   0.726   1.278
  104SOL     OW  341   1.274   0.386   1.262
  104SOL    HW1  342   1.295   0.460   1.326
  104SOL    HW2  343   1.185   0.403   1.219
  105SOL     OW  344   0.064   1.564   1.331
  105SOL    HW1  345   0.018   1.646   1.297
  105SOL    HW2  346   0.162   1.583   1.340
  106SOL     OW  347   0.367   1.100   0.501
  106SOL    HW1  348   0.360   1.183   0.445
  106SOL    HW2  349   0.371   1.020   0.441
  107SOL     OW  350   0.566   0.537   0.865
  107SOL    HW1  351   0.578   0.603   0.791
  107SOL    HW2  352   0.612   0.571   0.948
  108SOL     OW  353   1.252   1.348   0.388
  108SOL    HW1  354   1.302   1.425   0.428
  108SOL    HW2  355   1.157   1.350   0.420
  109SOL     OW  356   1.272   1.445   1.142
  109SOL    HW1  357   1.319   1.458   1.229
  109SOL    HW2  358   1.206   1.371   1.151
  110SOL     OW  359   1.582   0.639   0.472
  110SOL    HW1  360   1.551   0.700   0.545
  110SOL    HW2  361   1.632   0.691   0.403
  111SOL     OW  362   0.354   1.510   1.329
  111SOL    HW1  363   0.333   1.466   1.242
  111SOL    HW2  364   0.451   1.536   1.332
  112SOL     OW  365   0.402   0.751   1.598
  112SOL    HW1  366   0.470   0.806   1.551
  112SOL    HW2  367   0.442   0.663   1.625
  113SOL     OW  368   1.587   0.779   1.670
  113SOL    HW1  369   1.495   0.817   1.665
  113SOL    HW2  370   1.647   0.826   1.605
  114SOL     OW  371   1.013   0.105   1.770
  114SOL    HW1  372   1.019   0.190   1.718
  114SOL    HW2  373   1.045   0.029   1.713
  115SOL     OW  374   0.504   0.050   1.740
  115SOL    HW1  375   0.462  -0.007   1.670
  115SOL    HW2  376   0.438   0.119   1.772
  116SOL     OW  377   0.573   0.870   1.029
  116SOL    HW1  378   0.617   0.959   1.020
  116SOL    HW2  379   0.510   0.870   1.106
  117SOL     OW  380   1.360   0.862   1.045
  117SOL    HW1  381   1.285   0.862   0.979
  117SOL    HW2  382   1.397   0.770   1.054
  118SOL     OW  383   1.209   0.525   0.275
  118SOL    HW1  384   1.222   0.441   0.329
  118SOL    HW2  385   1.180   0.599   0.335
  119SOL     OW  386   0.307   0.213   1.231
  119SOL    HW1  387   0.284   0.250   1.321
  119SOL    HW2  388   0.277   0.118   1.225
  120SOL     OW  389   0.037   1.310   1.282
  120SOL    HW1  390   0.090   1.261   1.350
  120SOL    HW2  391   0.059   1.408   1.287
  121SOL     OW  392   0.732   0.634   1.064
  121SOL    HW1  393   0.791   0.608   0.988
  121SOL    HW2  394   0.704   0.730   1.053
  122SOL     OW  395   1.728   0.935   1.854
  122SOL    HW1  396   1.682   0.928   1.765
  122SOL    HW2  397   1.666   0.979   1.920
  123SOL     OW  398   0.307   0.063   0.618
  123SOL    HW1  399   0.296   0.157   0.651
  123SOL    HW2  400   0.302   0.000   0.695
  124SOL     OW  401   1.622   0.367   0.374
  124SOL    HW1  402   1.624   0.291   0.438
  124SOL    HW2  403   1.574   0.444   0.414
  125SOL     OW  404   1.023   0.766   0.966
  125SOL    HW1  405   1.038   0.787   1.062
  125SOL    HW2  406   0.993   0.671   0.957
  126SOL     OW  407   0.980   1.573   1.700
  126SOL    HW1  408   0.960   1.617   1.612
  126SOL    HW2  409   1.019   1.482   1.684
  127SOL     OW  410   1.859   1.518   1.605
  127SOL    HW1  411   1.873   1.545   1.510
  127SOL    HW2  412   1.942   1.540   1.658
  128SOL     OW  413   0.350   0.898   1.804
  128SOL    HW1  414   0.426   0.942   1.852
  128SOL    HW2  415   0.385   0.851   1.722
  129SOL     OW  416   1.540   0.274   0.125
  129SOL    HW1  417   1.479   0.199   0.148
  129SOL    HW2  418   1.562   0.326   0.208
  130SOL     OW  419   1.303   0.838   0.042
  130SOL    HW1  420   1.337   0.745   0.057
  130SOL    HW2  421   1.321   0.865  -0.053
  131SOL     OW  422   1.068   1.333   0.849
  131SOL    HW1  423   1.075   1.249   0.794
  131SOL    HW2  424   1.130   1.402   0.813
  132SOL     OW  425   0.319   0.810   0.949
  132SOL    HW1  426   0.412   0.846   0.954
  132SOL    HW2  427   0.313   0.725   1.001
  133SOL     OW  428   0.339   0.509   1.006
  133SOL    HW1  429   0.287   0.426   0.989
  133SOL    HW2  430   0.416   0.514   0.942
  134SOL     OW  431   1.138   0.380   1.678
  134SOL    HW1  432   1.093   0.443   1.742
  134SOL    HW2  433   1.231   0.411   1.661
  135SOL     OW  434   1.160   0.207   1.477
  135SOL    HW1  435   1.160   0.271   1.554
  135SOL    HW2  436   1.188   0.255   1.394
  136SOL     OW  437   0.008   1.326   0.200
  136SOL    HW1  438  -0.085   1.347   0.169
  136SOL    HW2  439   0.018   1.227   0.213
  137SOL     OW  440   0.088   1.801   0.927
  137SOL    HW1  441   0.046   1.715   0.900
  137SOL    HW2  442   0.182   1.804   0.893
  138SOL     OW  443   0.504   1.568   0.910
  138SOL    HW1  444   0.570   1.642   0.919
  138SOL    HW2  445   0.548   1.489   0.868
  139SOL     OW  446   1.002   0.796   1.238
  139SOL    HW1  447   1.043   0.764   1.324
  139SOL    HW2  448   0.906   0.769   1.235
  140SOL     OW  449   0.040   0.544   1.114
  140SOL    HW1  450   0.125   0.511   1.073
  140SOL    HW2  451   0.053   0.559   1.212
  141SOL     OW  452   0.189   0.520   1.722
  141SOL    HW1  453   0.248   0.480   1.652
  141SOL    HW2  454   0.131   0.591   1.681
  142SOL     OW  455   1.369   0.950   1.660
  142SOL    HW1  456   1.408   1.039   1.680
  142SOL    HW2  457   1.379   0.930   1.563
  143SOL     OW  458   0.815   0.572   0.325
  143SOL    HW1  459   0.822   0.483   0.279
  143SOL    HW2  460   0.721   0.606   0.317
  144SOL     OW  461   1.657   0.604   1.206
  144SOL    HW1  462   1.619   0.535   1.268
  144SOL    HW2  463   1.739   0.568   1.162
  145SOL     OW  464   0.252   1.564   1.744
  145SOL    HW1  465   0.222   1.621   1.820
  145SOL    HW2  466   0.245   1.467   1.770
  146SOL     OW  467   0.671   0.464   1.269
  146SOL    HW1  468   0.637   0.375   1.239
  146SOL    HW2  469   0.697   0.518   1.189
  147SOL     OW  470   0.930   1.678   1.465
  147SOL    HW1  471   0.906   1.660   1.370
  147SOL    HW2  472   0.960   1.772   1.475
  148SOL     OW  473   0.473   0.500   0.191
  148SOL    HW1  474   0.534   0.580   0.195
  148SOL    HW2  475   0.378   0.531   0.198
  149SOL     OW  476   0.159   1.137   1.466
  149SOL    HW1  477   0.181   1.076   1.542
  149SOL    HW2  478   0.169   1.088   1.380
  150SOL     OW  479   1.347   1.059   1.234
  150SOL    HW1  480   1.371   0.996   1.160
  150SOL    HW2  481   1.257   1.099   1.216
  151SOL     OW  482   1.302   0.855   0.309
  151SOL    HW1  483   1.216   0.824   0.351
  151SOL    HW2  484   1.298   0.841   0.210
  152SOL     OW  485   1.759   1.747   1.154
  152SOL    HW1  486   1.820   1.777   1.081
  152SOL    HW2  487   1.721   1.658   1.132
  153SOL     OW  488   1.252   1.731   1.128
  153SOL    HW1  489   1.336   1.736   1.074
  153SOL    HW2  490   1.229   1.635   1.146
  154SOL     OW  491   0.083   1.258   1.022
  154SOL    HW1  492   0.078   1.257   1.122
  154SOL    HW2  493   0.000   1.217   0.984
  155SOL     OW  494   0.688   1.662   1.716
  155SOL    HW1  495   0.632   1.743   1.725
  155SOL    HW2  496   0.740   1.666   1.630
  156SOL     OW  497   0.903   0.086   0.133
  156SOL    HW1  498   0.954   0.087   0.047
  156SOL    HW2  499   0.959   0.044   0.204
  157SOL     OW  500   1.726   0.135   0.523
  157SOL    HW1  501   1.799   0.118   0.456
  157SOL    HW2  502   1.695   0.048   0.561
  158SOL     OW  503   1.388   1.573   0.477
  158SOL    HW1  504   1.455   1.585   0.403
  158SOL    HW2  505   1.348   1.662   0.500
  159SOL     OW  506   0.130   1.794   1.851
  159SOL    HW1  507   0.089   1.720   1.904
  159SOL    HW2  508   0.194   1.845   1.909
  160SOL     OW  509   1.280   0.927   0.672
  160SOL    HW1  510   1.340   0.846   0.674
  160SOL    HW2  511   1.320   0.996   0.612
  161SOL     OW  512   0.830   1.273   1.422
  161SOL    HW1  513   0.825   1.306   1.517
  161SOL    HW2  514   0.744   1.292   1.376
  162SOL     OW  515   0.672   1.616   0.154
  162SOL    HW1  516   0.681   1.626   0.055
  162SOL    HW2  517   0.632   1.527   0.175
  163SOL     OW  518   1.650   1.720   1.394
  163SOL    HW1  519   1.703   1.730   1.310
  163SOL    HW2  520   1.623   1.810   1.428
  164SOL     OW  521   1.841   0.175   0.963
  164SOL    HW1  522   1.880   0.090   0.927
  164SOL    HW2  523   1.743   0.177   0.944
  165SOL     OW  524   0.263   0.326   0.720
  165SOL    HW1  525   0.184   0.377   0.686
  165SOL    HW2  526   0.254   0.311   0.818
  166SOL     OW  527   1.194   1.612   0.031
  166SOL    HW1  528   1.200   1.519   0.068
  166SOL    HW2  529   1.135   1.612  -0.049
  167SOL     OW  530   0.822   1.002   1.372
  167SOL    HW1  531   0.862   1.001   1.280
  167SOL    HW2  532   0.832   1.094   1.412
  168SOL     OW  533   0.916   0.910   0.291
  168SOL    HW1  534   0.979   0.948   0.223
  168SOL    HW2  535   0.956   0.827   0.330
  169SOL     OW  536   1.504   1.607   0.044
  169SOL    HW1  537   1.412   1.644   0.051
  169SOL    HW2  538   1.542   1.627  -0.046
  170SOL     OW  539   0.372   1.288   1.490
  170SOL    HW1  540   0.359   1.381   1.456
  170SOL    HW2  541   0.288   1.236   1.477
  171SOL     OW  542   1.614   1.292   1.289
  171SOL    HW1  543   1.674   1.295   1.369
  171SOL    HW2  544   1.539   1.356   1.302
  172SOL     OW  545   1.039   1.098   0.696
  172SOL    HW1  546   0.969   1.051   0.750
  172SOL    HW2  547   1.098   1.030   0.653
  173SOL     OW  548   1.014   0.236   0.971
  173SOL    HW1  549   1.006   0.200   0.878
  173SOL    HW2  550   1.012   0.160   1.036
  174SOL     OW  551   0.590   1.487   0.491
  174SOL    HW1  552   0.632   1.429   0.421
  174SOL    HW2  553   0.546   1.566   0.447
  175SOL     OW  554   1.709   0.385   1.381
  175SOL    HW1  555   1.782   0.454   1.385
  175SOL    HW2  556   1.737   0.310   1.322
  176SOL     OW  557   0.255   1.348   0.290
  176SOL    HW1  558   0.159   1.349   0.263
  176SOL    HW2  559   0.267   1.401   0.374
  177SOL     OW  560   0.105   1.013   1.726
  177SOL    HW1  561   0.028   0.980   1.780
  177SOL    HW2  562   0.190   0.983   1.768
  178SOL     OW  563   0.672   0.203   1.489
  178SOL    HW1  564   0.762   0.187   1.449
  178SOL    HW2  565   0.680   0.208   1.588
  179SOL     OW  566   0.075   0.345   0.033
  179SOL    HW1  567  -0.017   0.317   0.004
  179SOL    HW2  568   0.106   0.422  -0.023
  180SOL     OW  569   1.440   0.856   1.398
  180SOL    HW1  570   1.383   0.908   1.335
  180SOL    HW2  571   1.536   0.868   1.374
  181SOL     OW  572   0.072   0.166   0.318
  181SOL    HW1  573   0.055   0.249   0.264
  181SOL    HW2  574   0.162   0.129   0.296
  182SOL     OW  575   1.183   1.335   0.119
  182SOL    HW1  576   1.084   1.324   0.121
  182SOL    HW2  577   1.217   1.350   0.212
  183SOL     OW  578   0.613   0.842   1.431
  183SOL    HW1  579   0.669   0.923   1.414
  183SOL    HW2  580   0.672   0.762   1.434
  184SOL     OW  581   1.493   1.767   0.959
  184SOL    HW1  582   1.526   1.831   0.890
  184SOL    HW2  583   1.559   1.761   1.034
  185SOL     OW  584   0.716   0.565   1.708
  185SOL    HW1  585   0.735   0.630   1.782
  185SOL    HW2  586   0.776   0.485   1.717
  186SOL     OW  587   1.450   1.220   1.633
  186SOL    HW1  588   1.441   1.210   1.732
  186SOL    HW2  589   1.546   1.213   1.607
  187SOL     OW  590   0.390   1.741   1.560
  187SOL    HW1  591   0.299   1.782   1.558
  187SOL    HW2  592   0.383   1.647   1.592
  188SOL     OW  593   1.674   0.883   1.254
  188SOL    HW1  594   1.647   0.794   1.217
  188SOL    HW2  595   1.675   0.951   1.181
  189SOL     OW  596   1.225   0.325   0.449
  189SOL    HW1  597   1.290   0.251   0.438
  189SOL    HW2  598   1.245   0.375   0.533
  190SOL     OW  599   0.594   0.745   0.652
  190SOL    HW1  600   0.644   0.830   0.633
  190SOL    HW2  601   0.506   0.747   0.604
  191SOL     OW  602   1.777   0.342   1.642
  191SOL    HW1  603   1.760   0.373   1.548
  191SOL    HW2  604   1.693   0.305   1.680
  192SOL     OW  605   1.730   0.934   1.517
  192SOL    HW1  606   1.768   1.025   1.532
  192SOL    HW2  607   1.722   0.917   1.418
  193SOL     OW  608   0.859   1.374   0.016
  193SOL    HW1  609   0.813   1.389   0.104
  193SOL    HW2  610   0.903   1.459  -0.014
  194SOL     OW  611   0.661   1.790   0.953
  194SOL    HW1  612   0.615   1.878   0.940
  194SOL    HW2  613   0.760   1.802   0.946
  195SOL     OW  614   0.859   0.956   0.861
  195SOL    HW1  615   0.913   0.887   0.909
  195SOL    HW2  616   0.827   1.025   0.927
  196SOL     OW  617   1.083   0.984   0.087
  196SOL    HW1  618   1.060   1.037   0.005
  196SOL    HW2  619   1.164   0.928   0.068
  197SOL     OW  620   1.861   1.569   0.851
  197SOL    HW1  621   1.790   1.557   0.781
  197SOL    HW2  622   1.862   1.490   0.911
  198SOL     OW  623   0.221   1.314   1.844
  198SOL    HW1  624   0.156   1.241   1.823
  198SOL    HW2  625   0.225   1.328   1.942
  199SOL     OW  626   0.079   1.240   0.653
  199SOL    HW1  627   0.078   1.193   0.741
  199SOL    HW2  628   0.161   1.212   0.602
  200SOL     OW  629   0.672   1.391   1.624
  200SOL    HW1  630   0.594   1.341   1.662
  200SOL    HW2  631   0.669   1.486   1.655
  201SOL     OW  632   1.824   0.192   1.227
  201SOL    HW1  633   1.820   0.102   1.271
  201SOL    HW2  634   1.827   0.181   1.128
  202SOL     OW  635   0.428   0.424   0.520
  202SOL    HW1  636   0.458   0.352   0.458
  202SOL    HW2  637   0.389   0.384   0.603
  203SOL     OW  638   1.705   1.487   1.104
  203SOL    HW1  639   1.612   1.462   1.077
  203SOL    HW2  640   1.731   1.437   1.186
  204SOL     OW  641   0.317   0.547   1.280
  204SOL    HW1  642   0.355   0.488   1.352
  204SOL    HW2  643   0.357   0.521   1.192
  205SOL     OW  644   0.812   1.586   0.687
  205SOL    HW1  645   0.844   1.596   0.593
  205SOL    HW2  646   0.733   1.524   0.689
  206SOL     OW  647   1.424   0.214   1.112
  206SOL    HW1  648   1.476   0.149   1.167
  206SOL    HW2  649   1.375   0.277   1.173
  207SOL     OW  650   1.001   0.034   1.154
  207SOL    HW1  651   0.938  -0.038   1.123
  207SOL    HW2  652   1.094  -0.002   1.154
  208SOL     OW  653   0.770   1.330   0.301
  208SOL    HW1  654   0.724   1.243   0.318
  208SOL    HW2  655   0.861   1.327   0.342
  209SOL     OW  656   0.618   1.567   1.284
  209SOL    HW1  657   0.613   1.649   1.341
  209SOL    HW2  658   0.707   1.564   1.239
  210SOL     OW  659   1.352   0.052   0.168
  210SOL    HW1  660   1.387   0.011   0.084
  210SOL    HW2  661   1.262   0.014   0.188
  211SOL     OW  662   1.300   0.453   0.691
  211SOL    HW1  663   1.241   0.533   0.695
  211SOL    HW2  664   1.315   0.418   0.784
  212SOL     OW  665   1.593   0.221   0.882
  212SOL    HW1  666   1.509   0.220   0.936
  212SOL    HW2  667   1.595   0.304   0.826
  213SOL     OW  668   0.039   1.077   0.300
  213SOL    HW1  669   0.138   1.066   0.291
  213SOL    HW2  670  -0.001   0.991   0.332
  214SOL     OW  671   0.875   1.646   0.337
  214SOL    HW1  672   0.798   1.611   0.283
  214SOL    HW2  673   0.843   1.717   0.399
  215SOL     OW  674   0.230   0.628   1.975
  215SOL    HW1  675   0.137   0.626   2.012
  215SOL    HW2  676   0.231   0.589   1.883
  216SOL     OW  677   0.225   0.275   2.858
  216SOL    HW1  678   0.260   0.258   2.950
  216SOL    HW2  679   0.137   0.230   2.846
  217SOL     OW  680   0.019   0.368   2.509
  217SOL    HW1  681  -0.063   0.411   2.548
  217SOL    HW2  682  -0.009   0.295   2.446
  218SOL     OW  683   0.569   1.275   3.027
  218SOL    HW1  684   0.476   1.268   2.990
  218SOL    HW2  685   0.580   1.364   3.071
  219SOL     OW  686   1.555   1.511   2.565
  219SOL    HW1  687   1.498   1.495   2.646
  219SOL    HW2  688   1.496   1.521   2.485
  220SOL     OW  689   1.135   0.703   2.579
  220SOL    HW1  690   1.192   0.781   2.554
  220SOL    HW2  691   1.075   0.729   2.655
  221SOL     OW  692   1.755   0.607   2.093
  221SOL    HW1  693   1.743   0.594   1.994
  221SOL    HW2  694   1.725   0.526   2.142
  222SOL     OW  695   0.768   1.144   2.885
  222SOL    HW1  696   0.690   1.161   2.945
  222SOL    HW2  697   0.802   1.231   2.849
  223SOL     OW  698   0.850   0.798   3.685
  223SOL    HW1  699   0.846   0.874   3.750
  223SOL    HW2  700   0.872   0.834   3.594
  224SOL     OW  701   0.685   1.012   2.527
  224SOL    HW1  702   0.754   0.996   2.597
  224SOL    HW2  703   0.612   1.069   2.565
  225SOL     OW  704   0.686   1.161   3.665
  225SOL    HW1  705   0.746   1.240   3.679
  225SOL    HW2  706   0.600   1.192   3.624
  226SOL     OW  707   0.335   1.435   2.923
  226SOL    HW1  708   0.257   1.404   2.870
  226SOL    HW2  709   0.393   1.493   2.866
  227SOL     OW  710   1.460   1.505   3.201
  227SOL    HW1  711   1.484   1.599   3.227
  227SOL    HW2  712   1.444   1.451   3.283
  228SOL     OW  713   0.438   0.392   3.361
  228SOL    HW1  714   0.520   0.336   3.370
  228SOL    HW2  715   0.357   0.334   3.365
  229SOL     OW  716   1.603   0.447   2.599
  229SOL    HW1  717   1.529   0.493   2.549
  229SOL    HW2  718   1.654   0.515   2.652
  230SOL     OW  719   0.231   1.713   2.345
  230SOL    HW1  720   0.265   1.790   2.399
  230SOL    HW2  721   0.275   1.713   2.255
  231SOL     OW  722   1.127   1.341   3.552
  231SOL    HW1  723   1.174   1.341   3.640
  231SOL    HW2  724   1.079   1.254   3.541
  232SOL     OW  725   0.230   1.434   2.400
  232SOL    HW1  726   0.204   1.530   2.400
  232SOL    HW2  727   0.159   1.380   2.445
  233SOL     OW  728   0.240   1.091   2.748
  233SOL    HW1  729   0.254   1.007   2.800
  233SOL    HW2  730   0.185   1.155   2.803
  234SOL     OW  731   0.620   1.786   3.301
  234SOL    HW1  732   0.528   1.769   3.336
  234SOL    HW2  733   0.648   1.878   3.327
  235SOL     OW  734   0.606   0.964   1.985
  235SOL    HW1  735   0.613   1.048   1.931
  235SOL    HW2  736   0.652   0.977   2.073
  236SOL     OW  737   1.594   0.114   3.342
  236SOL    HW1  738   1.576   0.181   3.270
  236SOL    HW2  739   1.591   0.160   3.431
  237SOL     OW  740   0.122   0.643   2.425
  237SOL    HW1  741   0.077   0.555   2.442
  237SOL    HW2  742   0.121   0.697   2.509
  238SOL     OW  743   1.842   1.767   2.221
  238SOL    HW1  744   1.896   1.738   2.301
  238SOL    HW2  745   1.872   1.857   2.192
  239SOL     OW  746   0.027   1.596   1.979
  239SOL    HW1  747   0.008   1.500   2.000
  239SOL    HW2  748  -0.006   1.654   2.054
  240SOL     OW  749   1.689   0.922   2.474
  240SOL    HW1  750   1.784   0.893   2.482
  240SOL    HW2  751   1.681   0.987   2.399
  241SOL     OW  752   1.641   1.108   2.294
  241SOL    HW1  753   1.727   1.110   2.242
  241SOL    HW2  754   1.655   1.155   2.382
  242SOL     OW  755   0.113   0.737   3.459
  242SOL    HW1  756   0.201   0.724   3.504
  242SOL    HW2  757   0.100   0.834   3.437
  243SOL     OW  758   0.613   1.365   2.588
  243SOL    HW1  759   0.564   1.278   2.597
  243SOL    HW2  760   0.590   1.408   2.501
  244SOL     OW  761   1.293   1.228   3.285
  244SOL    HW1  762   1.330   1.155   3.227
  244SOL    HW2  763   1.345   1.233   3.370
  245SOL     OW  764   0.809   0.004   2.364
  245SOL    HW1  765   0.849   0.095   2.355
  245SOL    HW2  766   0.709   0.012   2.370
  246SOL     OW  767   0.197   0.976   3.126
  246SOL    HW1  768   0.286   0.931   3.112
  246SOL    HW2  769   0.124   0.911   3.107
  247SOL     OW  770   1.525   0.999   2.052
  247SOL    HW1  771   1.462   0.923   2.065
  247SOL    HW2  772   1.573   1.017   2.138
  248SOL     OW  773   1.187   1.792   3.478
  248SOL    HW1  774   1.211   1.852   3.402
  248SOL    HW2  775   1.194   1.697   3.448
  249SOL     OW  776   0.317   0.251   3.663
  249SOL    HW1  777   0.388   0.322   3.669
  249SOL    HW2  778   0.229   0.290   3.691
  250SOL     OW  779   1.466   1.417   2.815
  250SOL    HW1  780   1.407   1.423   2.895
  250SOL    HW2  781   1.451   1.329   2.769
  251SOL     OW  782   1.667   1.714   2.434
  251SOL    HW1  783   1.626   1.691   2.346
  251SOL    HW2  784   1.649   1.640   2.499
  252SOL     OW  785   0.598   0.729   2.132
  252SOL    HW1  786   0.622   0.798   2.064
  252SOL    HW2  787   0.520   0.762   2.186
  253SOL     OW  788   1.281   0.345   2.806
  253SOL    HW1  789   1.195   0.295   2.793
  253SOL    HW2  790   1.343   0.291   2.862
  254SOL     OW  791   1.576   1.662   2.169
  254SOL    HW1  792   1.665   1.708   2.172
  254SOL    HW2  793   1.555   1.638   2.074
  255SOL     OW  794   0.807   0.605   3.327
  255SOL    HW1  795   0.760   0.602   3.416
  255SOL    HW2  796   0.756   0.550   3.261
  256SOL     OW  797   1.394   0.469   3.536
  256SOL    HW1  798   1.374   0.512   3.624
  256SOL    HW2  799   1.472   0.407   3.545
  257SOL     OW  800   0.973   0.890   3.434
  257SOL    HW1  801   1.019   0.806   3.405
  257SOL    HW2  802   0.917   0.924   3.359
  258SOL     OW  803   0.991   0.410   3.104
  258SOL    HW1  804   0.914   0.444   3.158
  258SOL    HW2  805   0.957   0.359   3.025
  259SOL     OW  806   1.041   0.701   2.291
  259SOL    HW1  807   1.067   0.697   2.387
  259SOL    HW2  808   0.956   0.650   2.277
  260SOL     OW  809   0.076   0.811   2.651
  260SOL    HW1  810   0.175   0.799   2.660
  260SOL    HW2  811   0.052   0.906   2.672
  261SOL     OW  812   0.130   1.821   3.433
  261SOL    HW1  813   0.120   1.806   3.532
  261SOL    HW2  814   0.044   1.857   3.397
  262SOL     OW  815   0.865   0.348   2.057
  262SOL    HW1  816   0.924   0.411   2.008
  262SOL    HW2  817   0.884   0.254   2.028
  263SOL     OW  818   1.719   0.585   3.693
  263SOL    HW1  819   1.693   0.674   3.657
  263SOL    HW2  820   1.717   0.517   3.620
  264SOL     OW  821   1.362   1.144   2.407
  264SOL    HW1  822   1.445   1.115   2.359
  264SOL    HW2  823   1.313   1.211   2.351
  265SOL     OW  824   0.550   0.196   2.747
  265SOL    HW1  825   0.545   0.191   2.847
  265SOL    HW2  826   0.552   0.292   2.718
  266SOL     OW  827   1.008   1.456   2.339
  266SOL    HW1  828   0.962   1.528   2.287
  266SOL    HW2  829   1.004   1.476   2.437
  267SOL     OW  830   0.351   1.801   2.715
  267SOL    HW1  831   0.401   1.715   2.721
  267SOL    HW2  832   0.416   1.878   2.712
  268SOL     OW  833   1.795   1.066   2.735
  268SOL    HW1  834   1.733   1.051   2.659
  268SOL    HW2  835   1.743   1.077   2.820
  269SOL     OW  836   1.227   1.550   3.368
  269SOL    HW1  837   1.233   1.473   3.432
  269SOL    HW2  838   1.175   1.524   3.288
  270SOL     OW  839   0.321   0.943   2.104
  270SOL    HW1  840   0.403   0.982   2.062
  270SOL    HW2  841   0.294   0.861   2.055
  271SOL     OW  842   1.458   0.735   2.590
  271SOL    HW1  843   1.453   0.670   2.665
  271SOL    HW2  844   1.538   0.794   2.603
  272SOL     OW  845   0.461   1.266   3.589
  272SOL    HW1  846   0.411   1.267   3.503
  272SOL    HW2  847   0.398   1.248   3.665
  273SOL     OW  848   1.111   1.776   2.099
  273SOL    HW1  849   1.051   1.714   2.149
  273SOL    HW2  850   1.142   1.732   2.014
  274SOL     OW  851   0.202   0.285   3.360
  274SOL    HW1  852   0.122   0.345   3.347
  274SOL    HW2  853   0.192   0.236   3.446
  275SOL     OW  854   1.632   1.377   1.943
  275SOL    HW1  855   1.600   1.471   1.933
  275SOL    HW2  856   1.556   1.314   1.931
  276SOL     OW  857   0.464   1.743   2.185
  276SOL    HW1  858   0.497   1.782   2.271
  276SOL    HW2  859   0.540   1.736   2.120
  277SOL     OW  860   1.400   0.107   2.288
  277SOL    HW1  861   1.376   0.070   2.198
  277SOL    HW2  862   1.499   0.123   2.292
  278SOL     OW  863   0.249   1.785   3.103
  278SOL    HW1  864   0.306   1.720   3.153
  278SOL    HW2  865   0.233   1.752   3.010
  279SOL     OW  866   0.940   1.698   2.766
  279SOL    HW1  867   1.020   1.641   2.787
  279SOL    HW2  868   0.891   1.658   2.689
  280SOL     OW  869   0.382   0.700   2.342
  280SOL    HW1  870   0.427   0.610   2.339
  280SOL    HW2  871   0.288   0.689   2.375
  281SOL     OW  872   1.547   0.222   3.591
  281SOL    HW1  873   1.542   0.259   3.683
  281SOL    HW2  874   1.475   0.153   3.579
  282SOL     OW  875   0.614   0.122   1.979
  282SOL    HW1  876   0.712   0.100   1.986
  282SOL    HW2  877   0.583   0.105   1.886
  283SOL     OW  878   0.781   0.264   3.611
  283SOL    HW1  879   0.848   0.203   3.654
  283SOL    HW2  880   0.708   0.283   3.676
  284SOL     OW  881   0.888   1.514   3.057
  284SOL    HW1  882   0.865   1.489   2.963
  284SOL    HW2  883   0.949   1.445   3.096
  285SOL     OW  884   1.351   0.590   3.295
  285SOL    HW1  885   1.379   0.547   3.380
  285SOL    HW2  886   1.376   0.686   3.296
  286SOL     OW  887   0.803   1.402   2.786
  286SOL    HW1  888   0.893   1.416   2.744
  286SOL    HW2  889   0.732   1.404   2.715
  287SOL     OW  890   0.922   0.503   2.761
  287SOL    HW1  891   0.897   0.494   2.665
  287SOL    HW2  892   0.970   0.421   2.792
  288SOL     OW  893   0.539   0.064   2.374
  288SOL    HW1  894   0.458   0.065   2.432
  288SOL    HW2  895   0.542   0.147   2.319
  289SOL     OW  896   1.434   1.188   1.903
  289SOL    HW1  897   1.466   1.112   1.960
  289SOL    HW2  898   1.342   1.215   1.933
  290SOL     OW  899   0.297   0.035   2.033
  290SOL    HW1  900   0.346   0.119   2.012
  290SOL    HW2  901   0.359  -0.030   2.078
  291SOL     OW  902   0.935   0.236   2.342
  291SOL    HW1  903   0.887   0.277   2.264
  291SOL    HW2  904   1.034   0.234   2.323
  292SOL     OW  905   1.076   0.683   3.326
  292SOL    HW1  906   0.996   0.622   3.329
  292SOL    HW2  907   1.157   0.630   3.302
  293SOL     OW  908   1.227   1.570   2.655
  293SOL    HW1  909   1.248   1.644   2.590
  293SOL    HW2  910   1.295   1.570   2.728
  294SOL     OW  911   0.459   1.152   2.603
  294SOL    HW1  912   0.388   1.125   2.668
  294SOL    HW2  913   0.433   1.124   2.510
  295SOL     OW  914   1.271   1.797   2.453
  295SOL    HW1  915   1.315   1.861   2.389
  295SOL    HW2  916   1.221   1.849   2.523
  296SOL     OW  917   1.032   0.549   1.878
  296SOL    HW1  918   0.991   0.631   1.839
  296SOL    HW2  919   1.096   0.575   1.951
  297SOL     OW  920   0.078   0.556   3.248
  297SOL    HW1  921   0.170   0.555   3.207
  297SOL    HW2  922   0.072   0.630   3.315
  298SOL     OW  923   0.561   0.222   3.009
  298SOL    HW1  924   0.599   0.138   3.046
  298SOL    HW2  925   0.473   0.241   3.053
  299SOL     OW  926   0.866   0.454   2.504
  299SOL    HW1  927   0.834   0.526   2.442
  299SOL    HW2  928   0.890   0.373   2.451
  300SOL     OW  929   1.017   0.039   2.615
  300SOL    HW1  930   0.945   0.044   2.546
  300SOL    HW2  931   0.993  -0.030   2.684
  301SOL     OW  932   1.429   1.173   2.729
  301SOL    HW1  933   1.374   1.089   2.722
  301SOL    HW2  934   1.455   1.202   2.637
  302SOL     OW  935   1.466   0.590   2.854
  302SOL    HW1  936   1.436   0.495   2.861
  302SOL    HW2  937   1.539   0.606   2.920
  303SOL     OW  938   1.857   0.833   2.239
  303SOL    HW1  939   1.899   0.769   2.303
  303SOL    HW2  940   1.819   0.782   2.161
  304SOL     OW  941   0.488   1.385   2.036
  304SOL    HW1  942   0.401   1.370   2.083
  304SOL    HW2  943   0.471   1.411   1.941
  305SOL     OW  944   1.664   1.280   2.519
  305SOL    HW1  945   1.763   1.288   2.533
  305SOL    HW2  946   1.619   1.364   2.550
  306SOL     OW  947   1.390   0.575   1.940
  306SOL    HW1  948   1.336   0.554   2.021
  306SOL    HW2  949   1.481   0.534   1.949
  307SOL     OW  950   0.527   0.256   2.190
  307SOL    HW1  951   0.554   0.197   2.115
  307SOL    HW2  952   0.527   0.351   2.159
  308SOL     OW  953   1.754   1.223   3.450
  308SOL    HW1  954   1.845   1.184   3.437
  308SOL    HW2  955   1.762   1.319   3.474
  309SOL     OW  956   1.064   1.347   3.202
  309SOL    HW1  957   0.984   1.324   3.257
  309SOL    HW2  958   1.147   1.321   3.251
  310SOL     OW  959   1.592   1.629   3.487
  310SOL    HW1  960   1.619   1.663   3.397
  310SOL    HW2  961   1.671   1.591   3.533
  311SOL     OW  962   1.111   1.195   2.962
  311SOL    HW1  963   1.071   1.239   3.043
  311SOL    HW2  964   1.070   1.232   2.879
  312SOL     OW  965   1.638   1.099   2.941
  312SOL    HW1  966   1.643   1.180   3.000
  312SOL    HW2  967   1.552   1.101   2.890
  313SOL     OW  968   0.915   0.089   3.264
  313SOL    HW1  969   0.940   0.069   3.169
  313SOL    HW2  970   0.987   0.145   3.306
  314SOL     OW  971   0.980   1.116   3.581
  314SOL    HW1  972   0.881   1.122   3.591
  314SOL    HW2  973   1.003   1.036   3.525
  315SOL     OW  974   0.705   1.050   2.230
  315SOL    HW1  975   0.691   1.057   2.329
  315SOL    HW2  976   0.789   0.999   2.212
  316SOL     OW  977   0.410   0.813   3.113
  316SOL    HW1  978   0.496   0.825   3.163
  316SOL    HW2  979   0.368   0.726   3.140
  317SOL     OW  980   1.274   0.386   3.124
  317SOL    HW1  981   1.295   0.460   3.188
  317SOL    HW2  982   1.185   0.403   3.081
  318SOL     OW  983   0.064   1.564   3.193
  318SOL    HW1  984   0.018   1.646   3.159
  318SOL    HW2  985   0.162   1.583   3.202
  319SOL     OW  986   0.367   1.100   2.363
  319SOL    HW1  987   0.360   1.183   2.307
  319SOL    HW2  988   0.371   1.020   2.303
  320SOL     OW  989   0.566   0.537   2.727
  320SOL    HW1  990   0.578   0.603   2.653
  320SOL    HW2  991   0.612   0.571   2.810
  321SOL     OW  992   1.252   1.348   2.250
  321SOL    HW1  993   1.302   1.425   2.290
  321SOL    HW2  994   1.157   1.350   2.282
  322SOL     OW  995   1.272   1.445   3.004
  322SOL    HW1  996   1.319   1.458   3.091
  322SOL    HW2  997   1.206   1.371   3.013
  323SOL     OW  998   1.582   0.639   2.334
  323SOL    HW1  999   1.551   0.700   2.407
  323SOL    HW2 1000   1.632   0.691   2.265
  324SOL     OW 1001   0.354   1.510   3.191
  324SOL    HW1 1002   0.333   1.466   3.104
  324SOL    HW2 1003   0.451   1.536   3.194
  325SOL     OW 1004   0.402   0.751   3.460
  325SOL    HW1 1005   0.470   0.806   3.413
  325SOL    HW2 1006   0.442   0.663   3.487
  326SOL     OW 1007   1.587   0.779   3.532
  326SOL    HW1 1008   1.495   0.817   3.527
  326SOL    HW2 1009   1.647   0.826   3.467
  327SOL     OW 1010   1.013   0.105   3.632
  327SOL    HW1 1011   1.019   0.190   3.580
  327SOL    HW2 1012   1.045   0.029   3.575
  328SOL     OW 1013   0.504   0.050   3.602
  328SOL    HW1 1014   0.462  -0.007   3.532
  328SOL    HW2 1015   0.438   0.119   3.634
  329SOL     OW 1016   0.573   0.870   2.891
  329SOL    HW1 1017   0.617   0.959   2.882
  329SOL    HW2 1018   0.510   0.870   2.968
  330SOL     OW 1019   1.360   0.862   2.907
  330SOL    HW1 1020   1.285   0.862   2.841
  330SOL    HW2 1021   1.397   0.770   2.916
  331SOL     OW 1022   1.209   0.525   2.137
  331SOL    HW1 1023   1.222   0.441   2.191
  331SOL    HW2 1024   1.180   0.599   2.197
  332SOL     OW 1025   0.307   0.213   3.093
  332SOL    HW1 1026   0.284   0.250   3.183
  332SOL    HW2 1027   0.277   0.118   3.087
  333SOL     OW 1028   0.037   1.310   3.144
  333SOL    HW1 1029   0.090   1.261   3.212
  333SOL    HW2 1030   0.059   1.408   3.149
  334SOL     OW 1031   0.732   0.634   2.926
  334SOL    HW1 1032   0.791   0.608   2.850
  334SOL    HW2 1033   0.704   0.730   2.915
  335SOL     OW 1034   1.728   0.935   3.716
  335SOL    HW1 1035   1.682   0.928   3.627
  335SOL    HW2 1036   1.666   0.979   3.782
  336SOL     OW 1037   0.307   0.063   2.480
  336SOL    HW1 1038   0.296   0.157   2.513
  336SOL    HW2 1039   0.302   0.000   2.557
  337SOL     OW 1040   1.622   0.367   2.236
  337SOL    HW1 1041   1.624   0.291   2.300
  337SOL    HW2 1042   1.574   0.444   2.276
  338SOL     OW 1043   1.023   0.766   2.828
  338SOL    HW1 1044   1.038   0.787   2.924
  338SOL    HW2 1045   0.993   0.671   2.819
  339SOL     OW 1046   0.980   1.573   3.562
  339SOL    HW1 1047   0.960   1.617   3.474
  339SOL    HW2 1048   1.019   1.482   3.546
  340SOL     OW 1049   1.859   1.518   3.467
  340SOL    HW1 1050   1.873   1.545   3.372
  340SOL    HW2 1051   1.942   1.540   3.520
  341SOL     OW 1052   0.350   0.898   3.666
  341SOL    HW1 1053   0.426   0.942   3.714
  341SOL    HW2 1054   0.385   0.851   3.584
  342SOL     OW 1055   1.540   0.274   1.987
  342SOL    HW1 1056   1.479   0.199   2.010
  342SOL    HW2 1057   1.562   0.326   2.070
  343SOL     OW 1058   1.303   0.838   1.904
  343SOL    HW1 1059   1.337   0.745   1.919
  343SOL    HW2 1060   1.321   0.865   1.809
  344SOL     OW 1061   1.068   1.333   2.711
  344SOL    HW1 1062   1.075   1.249   2.656
  344SOL    HW2 1063   1.130   1.402   2.675
  345SOL     OW 1064   0.319   0.810   2.811
  345SOL    HW1 1065   0.412   0.846   2.816
  345SOL    HW2 1066   0.313   0.725   2.863
  346SOL     OW 1067   0.339   0.509   2.868
  346SOL    HW1 1068   0.287   0.426   2.851
  346SOL    HW2 1069   0.416   0.514   2.804
  347SOL     OW 1070   1.138   0.380   3.540
  347SOL    HW1 1071   1.093   0.443   3.604
  347SOL    HW2 1072   1.231   0.411   3.523
  348SOL     OW 1073   1.160   0.207   3.339
  348SOL    HW1 1074   1.160   0.271   3.416
  348SOL    HW2 1075   1.188   0.255   3.256
  349SOL     OW 1076   0.008   1.326   2.062
  349SOL    HW1 1077  -0.085   1.347   2.031
  349SOL    HW2 1078   0.018   1.227   2.075
  350SOL     OW 1079   0.088   1.801   2.789
  350SOL    HW1 1080   0.046   1.715   2.762
  350SOL    HW2 1081   0.182   1.804   2.755
  351SOL     OW 1082   0.504   1.568   2.772
  351SOL    HW1 1083   0.570   1.642   2.781
  351SOL    HW2 1084   0.548   1.489   2.730
  352SOL     OW 1085   1.002   0.796   3.100
  352SOL    HW1 1086   1.043   0.764   3.186
  352SOL    HW2 1087   0.906   0.769   3.097
  353SOL     OW 1088   0.040   0.544   2.976
  353SOL    HW1 1089   0.125   0.511   2.935
  353SOL    HW2 1090   0.053   0.559   3.074
  354SOL     OW 1091   0.189   0.520   3.584
  354SOL    HW1 1092   0.248   0.480   3.514
  354SOL    HW2 1093   0.131   0.591   3.543
  355SOL     OW 1094   1.369   0.950   3.522
  355SOL    HW1 1095   1.408   1.039   3.542
  355SOL    HW2 1096   1.379   0.930   3.425
  356SOL     OW 1097   0.815   0.572   2.187
  356SOL    HW1 1098   0.822   0.483   2.141
  356SOL    HW2 1099   0.721   0.606   2.179
  357SOL     OW 1100   1.657   0.604   3.068
  357SOL    HW1 1101   1.619   0.535   3.130
  357SOL    HW2 1102   1.739   0.568   3.024
  358SOL     OW 1103   0.252   1.564   3.606
  358SOL    HW1 1104   0.222   1.621   3.682
  358SOL    HW2 1105   0.245   1.467   3.632
  359SOL     OW 1106   0.671   0.464   3.131
  359SOL    HW1 1107   0.637   0.375   3.101
  359SOL    HW2 1108   0.697   0.518   3.051
  360SOL     OW 1109   0.930   1.678   3.327
  360SOL    HW1 1110   0.906   1.660   3.232
  360SOL    HW2 1111   0.960   1.772   3.337
  361SOL     OW 1112   0.473   0.500   2.053
  361SOL    HW1 1113   0.534   0.580   2.057
  361SOL    HW2 1114   0.378   0.531   2.060
  362SOL     OW 1115   0.159   1.137   3.328
  362SOL    HW1 1116   0.181   1.076   3.404
  362SOL    HW2 1117   0.169   1.088   3.242
  363SOL     OW 1118   1.347   1.059   3.096
  363SOL    HW1 1119   1.371   0.996   3.022
  363SOL    HW2 1120   1.257   1.099   3.078
  364SOL     OW 1121   1.302   0.855   2.171
  364SOL    HW1 1122   1.216   0.824   2.213
  364SOL    HW2 1123   1.298   0.841   2.072
  365SOL     OW 1124   1.759   1.747   3.016
  365SOL    HW1 1125   1.820   1.777   2.943
  365SOL    HW2 1126   1.721   1.658   2.994
  366SOL     OW 1127   1.252   1.731   2.990
  366SOL    HW1 1128   1.336   1.736   2.936
  366SOL    HW2 1129   1.229   1.635   3.008
  367SOL     OW 1130   0.083   1.258   2.884
  367SOL    HW1 1131   0.078   1.257   2.984
  367SOL    HW2 1132   0.000   1.217   2.846
  368SOL     OW 1133   0.688   1.662   3.578
  368SOL    HW1 1134   0.632   1.743   3.587
  368SOL    HW2 1135   0.740   1.666   3.492
  369SOL     OW 1136   1.726   0.135   2.385
  369SOL    HW1 1137   1.799   0.118   2.318
  369SOL    HW2 1138   1.695   0.048   2.423
  370SOL     OW 1139   1.388   1.573   2.339
  370SOL    HW1 1140   1.455   1.585   2.265
  370SOL    HW2 1141   1.348   1.662   2.362
  371SOL     OW 1142   0.130   1.794   3.713
  371SOL    HW1 1143   0.089   1.720   3.766
  371SOL    HW2 1144   0.194   1.845   3.771
  372SOL     OW 1145   1.280   0.927   2.534
  372SOL    HW1 1146   1.340   0.846   2.536
  372SOL    HW2 1147   1.320   0.996   2.474
  373SOL     OW 1148   0.830   1.273   3.284
  373SOL    HW1 1149   0.825   1.306   3.379
  373SOL    HW2 1150   0.744   1.292   3.238
  374SOL     OW 1151   0.672   1.616   2.016
  374SOL    HW1 1152   0.681   1.626   1.917
  374SOL    HW2 1153   0.632   1.527   2.037
  375SOL     OW 1154   1.650   1.720   3.256
  375SOL    HW1 1155   1.703   1.730   3.172
  375SOL    HW2 1156   1.623   1.810   3.290
  376SOL     OW 1157   1.841   0.175   2.825
  376SOL    HW1 1158   1.880   0.090   2.789
  376SOL    HW2 1159   1.743   0.177   2.806
  377SOL     OW 1160   0.263   0.326   2.582
  377SOL    HW1 1161   0.184   0.377   2.548
  377SOL    HW2 1162   0.254   0.311   2.680
  378SOL     OW 1163   1.194   1.612   1.893
  378SOL    HW1 1164   1.200   1.519   1.930
  378SOL    HW2 1165   1.135   1.612   1.813
  379SOL     OW 1166   0.822   1.002   3.234
  379SOL    HW1 1167   0.862   1.001   3.142
  379SOL    HW2 1168   0.832   1.094   3.274
  380SOL     OW 1169   0.916   0.910   2.153
  380SOL    HW1 1170   0.979   0.948   2.085
  380SOL    HW2 1171   0.956   0.827   2.192
  381SOL     OW 1172   1.504   1.607   1.906
  381SOL    HW1 1173   1.412   1.644   1.913
  381SOL    HW2 1174   1.542   1.627   1.816
  382SOL     OW 1175   0.372   1.288   3.352
  382SOL    HW1 1176   0.359   1.381   3.318
  382SOL    HW2 1177   0.288   1.236   3.339
  383SOL     OW 1178   1.614   1.292   3.151
  383SOL    HW1 1179   1.674   1.295   3.231
  383SOL    HW2 1180   1.539   1.356   3.164
  384SOL     OW 1181   1.039   1.098   2.558
  384SOL    HW1 1182   0.969   1.051   2.612
  384SOL    HW2 1183   1.098   1.030   2.515
  385SOL     OW 1184   1.014   0.236   2.833
  385SOL    HW1 1185   1.006   0.200   2.740
  385SOL    HW2 1186   1.012   0.160   2.898
  386SOL     OW 1187   0.590   1.487   2.353
  386SOL    HW1 1188   0.632   1.429   2.283
  386SOL    HW2 1189   0.546   1.566   2.309
  387SOL     OW 1190   1.709   0.385   3.243
  387SOL    HW1 1191   1.782   0.454   3.247
  387SOL    HW2 1192   1.737   0.310   3.184
  388SOL     OW 1193   0.255   1.348   2.152
  388SOL    HW1 1194   0.159   1.349   2.125
  388SOL    HW2 1195   0.267   1.401   2.236
  389SOL     OW 1196   0.105   1.013   3.588
  389SOL    HW1 1197   0.028   0.980   3.642
  389SOL    HW2 1198   0.190   0.983   3.630
  390SOL     OW 1199   0.672   0.203   3.351
  390SOL    HW1 1200   0.762   0.187   3.311
  390SOL    HW2 1201   0.680   0.208   3.450
  391SOL     OW 1202   0.075   0.345   1.895
  391SOL    HW1 1203  -0.017   0.317   1.866
  391SOL    HW2 1204   0.106   0.422   1.839
  392SOL     OW 1205   1.440   0.856   3.260
  392SOL    HW1 1206   1.383   0.908   3.197
  392SOL    HW2 1207   1.536   0.868   3.236
  393SOL     OW 1208   0.072   0.166   2.180
  393SOL    HW1 1209   0.055   0.249   2.126
  393SOL    HW2 1210   0.162   0.129   2.158
  394SOL     OW 1211   1.183   1.335   1.981
  394SOL    HW1 1212   1.084   1.324   1.983
  394SOL    HW2 1213   1.217   1.350   2.074
  395SOL     OW 1214   0.613   0.842   3.293
  395SOL    HW1 1215   0.669   0.923   3.276
  395SOL    HW2 1216   0.672   0.762   3.296
  396SOL     OW 1217   1.493   1.767   2.821
  396SOL    HW1 1218   1.526   1.831   2.752
  396SOL    HW2 1219   1.559   1.761   2.896
  397SOL     OW 1220   0.716   0.565   3.570
  397SOL    HW1 1221   0.735   0.630   3.644
  397SOL    HW2 1222   0.776   0.485   3.579
  398SOL     OW 1223   1.450   1.220   3.495
  398SOL    HW1 1224   1.441   1.210   3.594
  398SOL    HW2 1225   1.546   1.213   3.469
  399SOL     OW 1226   0.390   1.741   3.422
  399SOL    HW1 1227   0.299   1.782   3.420
  399SOL    HW2 1228   0.383   1.647   3.454
  400SOL     OW 1229   1.674   0.883   3.116
  400SOL    HW1 1230   1.647   0.794   3.079
  400SOL    HW2 1231   1.675   0.951   3.043
  401SOL     OW 1232   1.225   0.325   2.311
  401SOL    HW1 1233   1.290   0.251   2.300
  401SOL    HW2 1234   1.245   0.375   2.395
  402SOL     OW 1235   0.594   0.745   2.514
  402SOL    HW1 1236   0.644   0.830   2.495
  402SOL    HW2 1237   0.506   0.747   2.466
  403SOL     OW 1238   1.777   0.342   3.504
  403SOL    HW1 1239   1.760   0.373   3.410
  403SOL    HW2 1240   1.693   0.305   3.542
  404SOL     OW 1241   1.730   0.934   3.379
  404SOL    HW1 1242   1.768   1.025   3.394
  404SOL    HW2 1243   1.722   0.917   3.280
  405SOL     OW 1244   0.859   1.374   1.878
  405SOL    HW1 1245   0.813   1.389   1.966
  405SOL    HW2 1246   0.903   1.459   1.848
  406SOL     OW 1247   0.661   1.790   2.815
  406SOL    HW1 1248   0.615   1.878   2.802
  406SOL    HW2 1249   0.760   1.802   2.808
  407SOL     OW 1250   0.859   0.956   2.723
  407SOL    HW1 1251   0.913   0.887   2.771
  407SOL    HW2 1252   0.827   1.025   2.789
  408SOL     OW 1253   1.083   0.984   1.949
  408SOL    HW1 1254   1.060   1.037   1.867
  408SOL    HW2 1255   1.164   0.928   1.930
  409SOL     OW 1256   1.861   1.569   2.713
  409SOL    HW1 1257   1.790   1.557   2.643
  409SOL    HW2 1258   1.862   1.490   2.773
  410SOL     OW 1259   0.221   1.314   3.706
  410SOL    HW1 1260   0.156   1.241   3.685
  410SOL    HW2 1261   0.225   1.328   3.804
  411SOL     OW 1262   0.079   1.240   2.515
  411SOL    HW1 1263   0.078   1.193   2.603
  411SOL    HW2 1264   0.161   1.212   2.464
  412SOL     OW 1265   0.672   1.391   3.486
  412SOL    HW1 1266   0.594   1.341   3.524
  412SOL    HW2 1267   0.669   1.486   3.517
  413SOL     OW 1268   1.824   0.192   3.089
  413SOL    HW1 1269   1.820   0.102   3.133
  413SOL    HW2 1270   1.827   0.181   2.990
  414SOL     OW 1271   0.428   0.424   2.382
  414SOL    HW1 1272   0.458   0.352   2.320
  414SOL    HW2 1273   0.389   0.384   2.465
  415SOL     OW 1274   1.705   1.487   2.966
  415SOL    HW1 1275   1.612   1.462   2.939
  415SOL    HW2 1276   1.731   1.437   3.048
  416SOL     OW 1277   0.317   0.547   3.142
  416SOL    HW1 1278   0.355   0.488   3.214
  416SOL    HW2 1279   0.357   0.521   3.054
  417SOL     OW 1280   0.812   1.586   2.549
  417SOL    HW1 1281   0.844   1.596   2.455
  417SOL    HW2 1282   0.733   1.524   2.551
  418SOL     OW 1283   1.424   0.214   2.974
  418SOL    HW1 1284   1.476   0.149   3.029
  418SOL    HW2 1285   1.375   0.277   3.035
  419SOL     OW 1286   1.001   0.034   3.016
  419SOL    HW1 1287   0.938  -0.038   2.985
  419SOL    HW2 1288   1.094  -0.002   3.016
  420SOL     OW 1289   0.770   1.330   2.163
  420SOL    HW1 1290   0.724   1.243   2.180
  420SOL    HW2 1291   0.861   1.327   2.204
  421SOL     OW 1292   0.618   1.567   3.146
  421SOL    HW1 1293   0.613   1.649   3.203
  421SOL    HW2 1294   0.707   1.564   3.101
  422SOL     OW 1295   1.352   0.052   2.030
  422SOL    HW1 1296   1.387   0.011   1.946
  422SOL    HW2 1297   1.262   0.014   2.050
  423SOL     OW 1298   1.300   0.453   2.553
  423SOL    HW1 1299   1.241   0.533   2.557
  423SOL    HW2 1300   1.315   0.418   2.646
  424SOL     OW 1301   1.593   0.221   2.744
  424SOL    HW1 1302   1.509   0.220   2.798
  424SOL    HW2 1303   1.595   0.304   2.688
  425SOL     OW 1304   0.039   1.077   2.162
  425SOL    HW1 1305   0.138   1.066   2.153
  425SOL    HW2 1306  -0.001   0.991   2.194
  426SOL     OW 1307   0.875   1.646   2.199
  426SOL    HW1 1308   0.798   1.611   2.145
  426SOL    HW2 1309   0.843   1.717   2.261
  427SOL     OW 1310   0.230   0.628   3.837
  427SOL    HW1 1311   0.137   0.626   3.874
  427SOL    HW2 1312   0.231   0.589   3.745
  428SOL     OW 1313   0.225   0.275   4.720
  428SOL    HW1 1314   0.260   0.258   4.812
  428SOL    HW2 1315   0.137   0.230   4.708
  429SOL     OW 1316   0.019   0.368   4.371
  429SOL    HW1 1317  -0.063   0.411   4.410
  429SOL    HW2 1318  -0.009   0.295   4.308
  430SOL     OW 1319   0.569   1.275   4.889
  430SOL    HW1 1320   0.476   1.268   4.852
  430SOL    HW2 1321   0.580   1.364   4.933
  431SOL     OW 1322   1.555   1.511   4.427
  431SOL    HW1 1323   1.498   1.495   4.508
  431SOL    HW2 1324   1.496   1.521   4.347
  432SOL     OW 1325   1.135   0.703   4.441
  432SOL    HW1 1326   1.192   0.781   4.416
  432SOL    HW2 1327   1.075   0.729   4.517
  433SOL     OW 1328   1.755   0.607   3.955
  433SOL    HW1 1329   1.743   0.594   3.856
  433SOL    HW2 1330   1.725   0.526   4.004
  434SOL     OW 1331   0.768   1.144   4.747
  434SOL    HW1 1332   0.690   1.161   4.807
  434SOL    HW2 1333   0.802   1.231   4.711
  435SOL     OW 1334   0.685   1.012   4.389
  435SOL    HW1 1335   0.754   0.996   4.459
  435SOL    HW2 1336   0.612   1.069   4.427
  436SOL     OW 1337   0.335   1.435   4.785
  436SOL    HW1 1338   0.257   1.404   4.732
  436SOL    HW2 1339   0.393   1.493   4.728
  437SOL     OW 1340   1.603   0.447   4.461
  437SOL    HW1 1341   1.529   0.493   4.411
  437SOL    HW2 1342   1.654   0.515   4.514
  438SOL     OW 1343   0.231   1.713   4.207
  438SOL    HW1 1344   0.265   1.790   4.261
  438SOL    HW2 1345   0.275   1.713   4.117
  439SOL     OW 1346   0.230   1.434   4.262
  439SOL    HW1 1347   0.204   1.530   4.262
  439SOL    HW2 1348   0.159   1.380   4.307
  440SOL     OW 1349   0.240   1.091   4.610
  440SOL    HW1 1350   0.254   1.007   4.662
  440SOL    HW2 1351   0.185   1.155   4.665
  441SOL     OW 1352   0.606   0.964   3.847
  441SOL    HW1 1353   0.613   1.048   3.793
  441SOL    HW2 1354   0.652   0.977   3.935
  442SOL     OW 1355   0.122   0.643   4.287
  442SOL    HW1 1356   0.077   0.555   4.304
  442SOL    HW2 1357   0.121   0.697   4.371
  443SOL     OW 1358   1.842   1.767   4.083
  443SOL    HW1 1359   1.896   1.738   4.163
  443SOL    HW2 1360   1.872   1.857   4.054
  444SOL     OW 1361   0.027   1.596   3.841
  444SOL    HW1 1362   0.008   1.500   3.862
  444SOL    HW2 1363  -0.006   1.654   3.916
  445SOL     OW 1364   1.689   0.922   4.336
  445SOL    HW1 1365   1.784   0.893   4.344
  445SOL    HW2 1366   1.681   0.987   4.261
  446SOL     OW 1367   1.641   1.108   4.156
  446SOL    HW1 1368   1.727   1.110   4.104
  446SOL    HW2 1369   1.655   1.155   4.244
  447SOL     OW 1370   0.613   1.365   4.450
  447SOL    HW1 1371   0.564   1.278   4.459
  447SOL    HW2 1372   0.590   1.408   4.363
  448SOL     OW 1373   0.809   0.004   4.226
  448SOL    HW1 1374   0.849   0.095   4.217
  448SOL    HW2 1375   0.709   0.012   4.232
  449SOL     OW 1376   0.197   0.976   4.988
  449SOL    HW1 1377   0.286   0.931   4.974
  449SOL    HW2 1378   0.124   0.911   4.969
  450SOL     OW 1379   1.525   0.999   3.914
  450SOL    HW1 1380   1.462   0.923   3.927
  450SOL    HW2 1381   1.573   1.017   4.000
  451SOL     OW 1382   1.466   1.417   4.677
  451SOL    HW1 1383   1.407   1.423   4.757
  451SOL    HW2 1384   1.451   1.329   4.631
  452SOL     OW 1385   1.667   1.714   4.296
  452SOL    HW1 1386   1.626   1.691   4.208
  452SOL    HW2 1387   1.649   1.640   4.361
  453SOL     OW 1388   0.598   0.729   3.994
  453SOL    HW1 1389   0.622   0.798   3.926
  453SOL    HW2 1390   0.520   0.762   4.048
  454SOL     OW 1391   1.281   0.345   4.668
  454SOL    HW1 1392   1.195   0.295   4.655
  454SOL    HW2 1393   1.343   0.291   4.724
  455SOL     OW 1394   1.576   1.662   4.031
  455SOL    HW1 1395   1.665   1.708   4.034
  455SOL    HW2 1396   1.555   1.638   3.936
  456SOL     OW 1397   0.991   0.410   4.966
  456SOL    HW1 1398   0.914   0.444   5.020
  456SOL    HW2 1399   0.957   0.359   4.887
  457SOL     OW 1400   1.041   0.701   4.153
  457SOL    HW1 1401   1.067   0.697   4.249
  457SOL    HW2 1402   0.956   0.650   4.139
  458SOL     OW 1403   0.076   0.811   4.513
  458SOL    HW1 1404   0.175   0.799   4.522
  458SOL    HW2 1405   0.052   0.906   4.534
  459SOL     OW 1406   0.130   1.821   5.295
  459SOL    HW1 1407   0.120   1.806   5.394
  459SOL    HW2 1408   0.044   1.857   5.259
  460SOL     OW 1409   0.865   0.348   3.919
  460SOL    HW1 1410   0.924   0.411   3.870
  460SOL    HW2 1411   0.884   0.254   3.890
  461SOL     OW 1412   1.362   1.144   4.269
  461SOL    HW1 1413   1.445   1.115   4.221
  461SOL    HW2 1414   1.313   1.211   4.213
  462SOL     OW 1415   0.550   0.196   4.609
  462SOL    HW1 1416   0.545   0.191   4.709
  462SOL    HW2 1417   0.552   0.292   4.580
  463SOL     OW 1418   1.008   1.456   4.201
  463SOL    HW1 1419   0.962   1.528   4.149
  463SOL    HW2 1420   1.004   1.476   4.299
  464SOL     OW 1421   0.351   1.801   4.577
  464SOL    HW1 1422   0.401   1.715   4.583
  464SOL    HW2 1423   0.416   1.878   4.574
  465SOL     OW 1424   1.795   1.066   4.597
  465SOL    HW1 1425   1.733   1.051   4.521
  465SOL    HW2 1426   1.743   1.077   4.682
  466SOL     OW 1427   0.321   0.943   3.966
  466SOL    HW1 1428   0.403   0.982   3.924
  466SOL    HW2 1429   0.294   0.861   3.917
  467SOL     OW 1430   1.458   0.735   4.452
  467SOL    HW1 1431   1.453   0.670   4.527
  467SOL    HW2 1432   1.538   0.794   4.465
  468SOL     OW 1433   1.111   1.776   3.961
  468SOL    HW1 1434   1.051   1.714   4.011
  468SOL    HW2 1435   1.142   1.732   3.876
  469SOL     OW 1436   1.632   1.377   3.805
  469SOL    HW1 1437   1.600   1.471   3.795
  469SOL    HW2 1438   1.556   1.314   3.793
  470SOL     OW 1439   0.464   1.743   4.047
  470SOL    HW1 1440   0.497   1.782   4.133
  470SOL    HW2 1441   0.540   1.736   3.982
  471SOL     OW 1442   1.400   0.107   4.150
  471SOL    HW1 1443   1.376   0.070   4.060
  471SOL    HW2 1444   1.499   0.123   4.154
  472SOL     OW 1445   0.249   1.785   4.965
  472SOL    HW1 1446   0.306   1.720   5.015
  472SOL    HW2 1447   0.233   1.752   4.872
  473SOL     OW 1448   0.940   1.698   4.628
  473SOL    HW1 1449   1.020   1.641   4.649
  473SOL    HW2 1450   0.891   1.658   4.551
  474SOL     OW 1451   0.382   0.700   4.204
  474SOL    HW1 1452   0.427   0.610   4.201
  474SOL    HW2 1453   0.288   0.689   4.237
  475SOL     OW 1454   0.614   0.122   3.841
  475SOL    HW1 1455   0.712   0.100   3.848
  475SOL    HW2 1456   0.583   0.105   3.748
  476SOL     OW 1457   0.803   1.402   4.648
  476SOL    HW1 1458   0.893   1.416   4.606
  476SOL    HW2 1459   0.732   1.404   4.577
  477SOL     OW 1460   0.922   0.503   4.623
  477SOL    HW1 1461   0.897   0.494   4.527
  477SOL    HW2 1462   0.970   0.421   4.654
  478SOL     OW 1463   0.539   0.064   4.236
  478SOL    HW1 1464   0.458   0.065   4.294
  478SOL    HW2 1465   0.542   0.147   4.181
  479SOL     OW 1466   1.434   1.188   3.765
  479SOL    HW1 1467   1.466   1.112   3.822
  479SOL    HW2 1468   1.342   1.215   3.795
  480SOL     OW 1469   0.297   0.035   3.895
  480SOL    HW1 1470   0.346   0.119   3.874
  480SOL    HW2 1471   0.359  -0.030   3.940
  481SOL     OW 1472   0.935   0.236   4.204
  481SOL    HW1 1473   0.887   0.277   4.126
  481SOL    HW2 1474   1.034   0.234   4.185
  482SOL     OW 1475   1.227   1.570   4.517
  482SOL    HW1 1476   1.248   1.644   4.452
  482SOL    HW2 1477   1.295   1.570   4.590
  483SOL     OW 1478   0.459   1.152   4.465
  483SOL    HW1 1479   0.388   1.125   4.530
  483SOL    HW2 1480   0.433   1.124   4.372
  484SOL     OW 1481   1.271   1.797   4.315
  484SOL    HW1 1482   1.315   1.861   4.251
  484SOL    HW2 1483   1.221   1.849   4.385
  485SOL     OW 1484   1.032   0.549   3.740
  485SOL    HW1 1485   0.991   0.631   3.701
  485SOL    HW2 1486   1.096   0.575   3.813
  486SOL     OW 1487   0.561   0.222   4.871
  486SOL    HW1 1488   0.599   0.138   4.908
  486SOL    HW2 1489   0.473   0.241   4.915
  487SOL     OW 1490   0.866   0.454   4.366
  487SOL    HW1 1491   0.834   0.526   4.304
  487SOL    HW2 1492   0.890   0.373   4.313
  488SOL     OW 1493   1.017   0.039   4.477
  488SOL    HW1 1494   0.945   0.044   4.408
  488SOL    HW2 1495   0.993  -0.030   4.546
  489SOL     OW 1496   1.429   1.173   4.591
  489SOL    HW1 1497   1.374   1.089   4.584
  489SOL    HW2 1498   1.455   1.202   4.499
  490SOL     OW 1499   1.466   0.590   4.716
  490SOL    HW1 1500   1.436   0.495   4.723
  490SOL    HW2 1501   1.539   0.606   4.782
  491SOL     OW 1502   1.857   0.833   4.101
  491SOL    HW1 1503   1.899   0.769   4.165
  491SOL    HW2 1504   1.819   0.782   4.023
  492SOL     OW 1505   0.488   1.385   3.898
  492SOL    HW1 1506   0.401   1.370   3.945
  492SOL    HW2 1507   0.471   1.411   3.803
  493SOL     OW 1508   1.664   1.280   4.381
  493SOL    HW1 1509   1.763   1.288   4.395
  493SOL    HW2 1510   1.619   1.364   4.412
  494SOL     OW 1511   1.390   0.575   3.802
  494SOL    HW1 1512   1.336   0.554   3.883
  494SOL    HW2 1513   1.481   0.534   3.811
  495SOL     OW 1514   0.527   0.256   4.052
  495SOL    HW1 1515   0.554   0.197   3.977
  495SOL    HW2 1516   0.527   0.351   4.021
  496SOL     OW 1517   1.111   1.195   4.824
  496SOL    HW1 1518   1.071   1.239   4.905
  496SOL    HW2 1519   1.070   1.232   4.741
  497SOL     OW 1520   1.638   1.099   4.803
  497SOL    HW1 1521   1.643   1.180   4.862
  497SOL    HW2 1522   1.552   1.101   4.752
  498SOL     OW 1523   0.705   1.050   4.092
  498SOL    HW1 1524   0.691   1.057   4.191
  498SOL    HW2 1525   0.789   0.999   4.074
  499SOL     OW 1526   0.410   0.813   4.975
  499SOL    HW1 1527   0.496   0.825   5.025
  499SOL    HW2 1528   0.368   0.726   5.002
  500SOL     OW 1529   1.274   0.386   4.986
  500SOL    HW1 1530   1.295   0.460   5.050
  500SOL    HW2 1531   1.185   0.403   4.943
  501SOL     OW 1532   0.367   1.100   4.225
  501SOL    HW1 1533   0.360   1.183   4.169
  501SOL    HW2 1534   0.371   1.020   4.165
  502SOL     OW 1535   0.566   0.537   4.589
  502SOL    HW1 1536   0.578   0.603   4.515
  502SOL    HW2 1537   0.612   0.571   4.672
  503SOL     OW 1538   1.252   1.348   4.112
  503SOL    HW1 1539   1.302   1.425   4.152
  503SOL    HW2 1540   1.157   1.350   4.144
  504SOL     OW 1541   1.272   1.445   4.866
  504SOL    HW1 1542   1.319   1.458   4.953
  504SOL    HW2 1543   1.206   1.371   4.875
  505SOL     OW 1544   1.582   0.639   4.196
  505SOL    HW1 1545   1.551   0.700   4.269
  505SOL    HW2 1546   1.632   0.691   4.127
  506SOL     OW 1547   0.354   1.510   5.053
  506SOL    HW1 1548   0.333   1.466   4.966
  506SOL    HW2 1549   0.451   1.536   5.056
  507SOL     OW 1550   0.573   0.870   4.753
  507SOL    HW1 1551   0.617   0.959   4.744
  507SOL    HW2 1552   0.510   0.870   4.830
  508SOL     OW 1553   1.360   0.862   4.769
  508SOL    HW1 1554   1.285   0.862   4.703
  508SOL    HW2 1555   1.397   0.770   4.778
  509SOL     OW 1556   1.209   0.525   3.999
  509SOL    HW1 1557   1.222   0.441   4.053
  509SOL    HW2 1558   1.180   0.599   4.059
  510SOL     OW 1559   0.307   0.213   4.955
  510SOL    HW1 1560   0.284   0.250   5.045
  510SOL    HW2 1561   0.277   0.118   4.949
  511SOL     OW 1562   0.037   1.310   5.006
  511SOL    HW1 1563   0.090   1.261   5.074
  511SOL    HW2 1564   0.059   1.408   5.011
  512SOL     OW 1565   0.732   0.634   4.788
  512SOL    HW1 1566   0.791   0.608   4.712
  512SOL    HW2 1567   0.704   0.730   4.777
  513SOL     OW 1568   0.307   0.063   4.342
  513SOL    HW1 1569   0.296   0.157   4.375
  513SOL    HW2 1570   0.302   0.000   4.419
  514SOL     OW 1571   1.622   0.367   4.098
  514SOL    HW1 1572   1.624   0.291   4.162
  514SOL    HW2 1573   1.574   0.444   4.138
  515SOL     OW 1574   1.023   0.766   4.690
  515SOL    HW1 1575   1.038   0.787   4.786
  515SOL    HW2 1576   0.993   0.671   4.681
  516SOL     OW 1577   1.540   0.274   3.849
  516SOL    HW1 1578   1.479   0.199   3.872
  516SOL    HW2 1579   1.562   0.326   3.932
  517SOL     OW 1580   1.303   0.838   3.766
  517SOL    HW1 1581   1.337   0.745   3.781
  517SOL    HW2 1582   1.321   0.865   3.671
  518SOL     OW 1583   1.068   1.333   4.573
  518SOL    HW1 1584   1.075   1.249   4.518
  518SOL    HW2 1585   1.130   1.402   4.537
  519SOL     OW 1586   0.319   0.810   4.673
  519SOL    HW1 1587   0.412   0.846   4.678
  519SOL    HW2 1588   0.313   0.725   4.725
  520SOL     OW 1589   0.339   0.509   4.730
  520SOL    HW1 1590   0.287   0.426   4.713
  520SOL    HW2 1591   0.416   0.514   4.666
  521SOL     OW 1592   1.160   0.207   5.201
  521SOL    HW1 1593   1.160   0.271   5.278
  521SOL    HW2 1594   1.188   0.255   5.118
  522SOL     OW 1595   0.008   1.326   3.924
  522SOL    HW1 1596  -0.085   1.347   3.893
  522SOL    HW2 1597   0.018   1.227   3.937
  523SOL     OW 1598   0.088   1.801   4.651
  523SOL    HW1 1599   0.046   1.715   4.624
  523SOL    HW2 1600   0.182   1.804   4.617
  524SOL     OW 1601   0.504   1.568   4.634
  524SOL    HW1 1602   0.570   1.642   4.643
  524SOL    HW2 1603   0.548   1.489   4.592
  525SOL     OW 1604   1.002   0.796   4.962
  525SOL    HW1 1605   1.043   0.764   5.048
  525SOL    HW2 1606   0.906   0.769   4.959
  526SOL     OW 1607   0.040   0.544   4.838
  526SOL    HW1 1608   0.125   0.511   4.797
  526SOL    HW2 1609   0.053   0.559   4.936
  527SOL     OW 1610   0.815   0.572   4.049
  527SOL    HW1 1611   0.822   0.483   4.003
  527SOL    HW2 1612   0.721   0.606   4.041
  528SOL     OW 1613   1.657   0.604   4.930
  528SOL    HW1 1614   1.619   0.535   4.992
  528SOL    HW2 1615   1.739   0.568   4.886
  529SOL     OW 1616   0.671   0.464   4.993
  529SOL    HW1 1617   0.637   0.375   4.963
  529SOL    HW2 1618   0.697   0.518   4.913
  530SOL     OW 1619   0.930   1.678   5.189
  530SOL    HW1 1620   0.906   1.660   5.094
  530SOL    HW2 1621   0.960   1.772   5.199
  531SOL     OW 1622   0.473   0.500   3.915
  531SOL    HW1 1623   0.534   0.580   3.919
  531SOL    HW2 1624   0.378   0.531   3.922
  532SOL     OW 1625   1.347   1.059   4.958
  532SOL    HW1 1626   1.371   0.996   4.884
  532SOL    HW2 1627   1.257   1.099   4.940
  533SOL     OW 1628   1.302   0.855   4.033
  533SOL    HW1 1629   1.216   0.824   4.075
  533SOL    HW2 1630   1.298   0.841   3.934
  534SOL     OW 1631   1.759   1.747   4.878
  534SOL    HW1 1632   1.820   1.777   4.805
  534SOL    HW2 1633   1.721   1.658   4.856
  535SOL     OW 1634   1.252   1.731   4.852
  535SOL    HW1 1635   1.336   1.736   4.798
  535SOL    HW2 1636   1.229   1.635   4.870
  536SOL     OW 1637   0.083   1.258   4.746
  536SOL    HW1 1638   0.078   1.257   4.846
  536SOL    HW2 1639   0.000   1.217   4.708
  537SOL     OW 1640   1.726   0.135   4.247
  537SOL    HW1 1641   1.799   0.118   4.180
  537SOL    HW2 1642   1.695   0.048   4.285
  538SOL     OW 1643   1.388   1.573   4.201
  538SOL    HW1 1644   1.455   1.585   4.127
  538SOL    HW2 1645   1.348   1.662   4.224
  539SOL     OW 1646   1.280   0.927   4.396
  539SOL    HW1 1647   1.340   0.846   4.398
  539SOL    HW2 1648   1.320   0.996   4.336
  540SOL     OW 1649   0.672   1.616   3.878
  540SOL    HW1 1650   0.681   1.626   3.779
  540SOL    HW2 1651   0.632   1.527   3.899
  541SOL     OW 1652   1.650   1.720   5.118
  541SOL    HW1 1653   1.703   1.730   5.034
  541SOL    HW2 1654   1.623   1.810   5.152
  542SOL     OW 1655   1.841   0.175   4.687
  542SOL    HW1 1656   1.880   0.090   4.651
  542SOL    HW2 1657   1.743   0.177   4.668
  543SOL     OW 1658   0.263   0.326   4.444
  543SOL    HW1 1659   0.184   0.377   4.410
  543SOL    HW2 1660   0.254   0.311   4.542
  544SOL     OW 1661   1.194   1.612   3.755
  544SOL    HW1 1662   1.200   1.519   3.792
  544SOL    HW2 1663   1.135   1.612   3.675
  545SOL     OW 1664   0.822   1.002   5.096
  545SOL    HW1 1665   0.862   1.001   5.004
  545SOL    HW2 1666   0.832   1.094   5.136
  546SOL     OW 1667   0.916   0.910   4.015
  546SOL    HW1 1668   0.979   0.948   3.947
  546SOL    HW2 1669   0.956   0.827   4.054
  547SOL     OW 1670   1.504   1.607   3.768
  547SOL    HW1 1671   1.412   1.644   3.775
  547SOL    HW2 1672   1.542   1.627   3.678
  548SOL     OW 1673   1.039   1.098   4.420
  548SOL    HW1 1674   0.969   1.051   4.474
  548SOL    HW2 1675   1.098   1.030   4.377
  549SOL     OW 1676   1.014   0.236   4.695
  549SOL    HW1 1677   1.006   0.200   4.602
  549SOL    HW2 1678   1.012   0.160   4.760
  550SOL     OW 1679   0.590   1.487   4.215
  550SOL    HW1 1680   0.632   1.429   4.145
  550SOL    HW2 1681   0.546   1.566   4.171
  551SOL     OW 1682   1.709   0.385   5.105
  551SOL    HW1 1683   1.782   0.454   5.109
  551SOL    HW2 1684   1.737   0.310   5.046
  552SOL     OW 1685   0.255   1.348   4.014
  552SOL    HW1 1686   0.159   1.349   3.987
  552SOL    HW2 1687   0.267   1.401   4.098
  553SOL     OW 1688   0.075   0.345   3.757
  553SOL    HW1 1689  -0.017   0.317   3.728
  553SOL    HW2 1690   0.106   0.422   3.701
  554SOL     OW 1691   0.072   0.166   4.042
  554SOL    HW1 1692   0.055   0.249   3.988
  554SOL    HW2 1693   0.162   0.129   4.020
  555SOL     OW 1694   1.183   1.335   3.843
  555SOL    HW1 1695   1.084   1.324   3.845
  555SOL    HW2 1696   1.217   1.350   3.936
  556SOL     OW 1697   1.493   1.767   4.683
  556SOL    HW1 1698   1.526   1.831   4.614
  556SOL    HW2 1699   1.559   1.761   4.758
  557SOL     OW 1700   1.674   0.883   4.978
  557SOL    HW1 1701   1.647   0.794   4.941
  557SOL    HW2 1702   1.675   0.951   4.905
  558SOL     OW 1703   1.225   0.325   4.173
  558SOL    HW1 1704   1.290   0.251   4.162
  558SOL    HW2 1705   1.245   0.375   4.257
  559SOL     OW 1706   0.594   0.745   4.376
  559SOL    HW1 1707   0.644   0.830   4.357
  559SOL    HW2 1708   0.506   0.747   4.328
  560SOL     OW 1709   1.730   0.934   5.241
  560SOL    HW1 1710   1.768   1.025   5.256
  560SOL    HW2 1711   1.722   0.917   5.142
  561SOL     OW 1712   0.859   1.374   3.740
  561SOL    HW1 1713   0.813   1.389   3.828
  561SOL    HW2 1714   0.903   1.459   3.710
  562SOL     OW 1715   0.661   1.790   4.677
  562SOL    HW1 1716   0.615   1.878   4.664
  562SOL    HW2 1717   0.760   1.802   4.670
  563SOL     OW 1718   0.859   0.956   4.585
  563SOL    HW1 1719   0.913   0.887   4.633
  563SOL    HW2 1720   0.827   1.025   4.651
  564SOL     OW 1721   1.083   0.984   3.811
  564SOL    HW1 1722   1.060   1.037   3.729
  564SOL    HW2 1723   1.164   0.928   3.792
  565SOL     OW 1724   1.861   1.569   4.575
  565SOL    HW1 1725   1.790   1.557   4.505
  565SOL    HW2 1726   1.862   1.490   4.635
  566SOL     OW 1727   0.079   1.240   4.377
  566SOL    HW1 1728   0.078   1.193   4.465
  566SOL    HW2 1729   0.161   1.212   4.326
  567SOL     OW 1730   1.824   0.192   4.951
  567SOL    HW1 1731   1.820   0.102   4.995
  567SOL    HW2 1732   1.827   0.181   4.852
  568SOL     OW 1733   0.428   0.424   4.244
  568SOL    HW1 1734   0.458   0.352   4.182
  568SOL    HW2 1735   0.389   0.384   4.327
  569SOL     OW 1736   1.705   1.487   4.828
  569SOL    HW1 1737   1.612   1.462   4.801
  569SOL    HW2 1738   1.731   1.437   4.910
  570SOL     OW 1739   0.812   1.586   4.411
  570SOL    HW1 1740   0.844   1.596   4.317
  570SOL    HW2 1741   0.733   1.524   4.413
  571SOL     OW 1742   1.424   0.214   4.836
  571SOL    HW1 1743   1.476   0.149   4.891
  571SOL    HW2 1744   1.375   0.277   4.897
  572SOL     OW 1745   1.001   0.034   4.878
  572SOL    HW1 1746   0.938  -0.038   4.847
  572SOL    HW2 1747   1.094  -0.002   4.878
  573SOL     OW 1748   0.770   1.330   4.025
  573SOL    HW1 1749   0.724   1.243   4.042
  573SOL    HW2 1750   0.861   1.327   4.066
  574SOL     OW 1751   1.352   0.052   3.892
  574SOL    HW1 1752   1.387   0.011   3.808
  574SOL    HW2 1753   1.262   0.014   3.912
  575SOL     OW 1754   1.300   0.453   4.415
  575SOL    HW1 1755   1.241   0.533   4.419
  575SOL    HW2 1756   1.315   0.418   4.508
  576SOL     OW 1757   1.593   0.221   4.606
  576SOL    HW1 1758   1.509   0.220   4.660
  576SOL    HW2 1759   1.595   0.304   4.550
  577SOL     OW 1760   0.039   1.077   4.024
  577SOL    HW1 1761   0.138   1.066   4.015
  577SOL    HW2 1762  -0.001   0.991   4.056
  578SOL     OW 1763   0.875   1.646   4.061
  578SOL    HW1 1764   0.798   1.611   4.007
  578SOL    HW2 1765   0.843   1.717   4.123
  579SOL     OW 1766   0.230   2.490   0.113
  579SOL    HW1 1767   0.137   2.488   0.150
  579SOL    HW2 1768   0.231   2.451   0.021
  580SOL     OW 1769   0.225   2.137   0.996
  580SOL    HW1 1770   0.260   2.120   1.088
  580SOL    HW2 1771   0.137   2.092   0.984
  581SOL     OW 1772   0.019   2.230   0.647
  581SOL    HW1 1773  -0.063   2.273   0.686
  581SOL    HW2 1774  -0.009   2.157   0.584
  582SOL     OW 1775   0.569   3.137   1.165
  582SOL    HW1 1776   0.476   3.130   1.128
  582SOL    HW2 1777   0.580   3.226   1.209
  583SOL     OW 1778   1.555   3.373   0.703
  583SOL    HW1 1779   1.498   3.357   0.784
  583SOL    HW2 1780   1.496   3.383   0.623
  584SOL     OW 1781   1.135   2.565   0.717
  584SOL    HW1 1782   1.192   2.643   0.692
  584SOL    HW2 1783   1.075   2.591   0.793
  585SOL     OW 1784   1.755   2.469   0.231
  585SOL    HW1 1785   1.743   2.456   0.132
  585SOL    HW2 1786   1.725   2.388   0.280
  586SOL     OW 1787   0.768   3.006   1.023
  586SOL    HW1 1788   0.690   3.023   1.083
  586SOL    HW2 1789   0.802   3.093   0.987
  587SOL     OW 1790   0.850   2.660   1.823
  587SOL    HW1 1791   0.846   2.736   1.888
  587SOL    HW2 1792   0.872   2.696   1.732
  588SOL     OW 1793   0.685   2.874   0.665
  588SOL    HW1 1794   0.754   2.858   0.735
  588SOL    HW2 1795   0.612   2.931   0.703
  589SOL     OW 1796   0.686   3.023   1.803
  589SOL    HW1 1797   0.746   3.102   1.817
  589SOL    HW2 1798   0.600   3.054   1.762
  590SOL     OW 1799   0.335   3.297   1.061
  590SOL    HW1 1800   0.257   3.266   1.008
  590SOL    HW2 1801   0.393   3.355   1.004
  591SOL     OW 1802   1.460   3.367   1.339
  591SOL    HW1 1803   1.484   3.461   1.365
  591SOL    HW2 1804   1.444   3.313   1.421
  592SOL     OW 1805   0.438   2.254   1.499
  592SOL    HW1 1806   0.520   2.198   1.508
  592SOL    HW2 1807   0.357   2.196   1.503
  593SOL     OW 1808   1.603   2.309   0.737
  593SOL    HW1 1809   1.529   2.355   0.687
  593SOL    HW2 1810   1.654   2.377   0.790
  594SOL     OW 1811   0.231   3.575   0.483
  594SOL    HW1 1812   0.265   3.652   0.537
  594SOL    HW2 1813   0.275   3.575   0.393
  595SOL     OW 1814   1.127   3.203   1.690
  595SOL    HW1 1815   1.174   3.203   1.778
  595SOL    HW2 1816   1.079   3.116   1.679
  596SOL     OW 1817   0.230   3.296   0.538
  596SOL    HW1 1818   0.204   3.392   0.538
  596SOL    HW2 1819   0.159   3.242   0.583
  597SOL     OW 1820   0.240   2.953   0.886
  597SOL    HW1 1821   0.254   2.869   0.938
  597SOL    HW2 1822   0.185   3.017   0.941
  598SOL     OW 1823   0.620   3.648   1.439
  598SOL    HW1 1824   0.528   3.631   1.474
  598SOL    HW2 1825   0.648   3.740   1.465
  599SOL     OW 1826   0.606   2.826   0.123
  599SOL    HW1 1827   0.613   2.910   0.069
  599SOL    HW2 1828   0.652   2.839   0.211
  600SOL     OW 1829   1.594   1.976   1.480
  600SOL    HW1 1830   1.576   2.043   1.408
  600SOL    HW2 1831   1.591   2.022   1.569
  601SOL     OW 1832   0.122   2.505   0.563
  601SOL    HW1 1833   0.077   2.417   0.580
  601SOL    HW2 1834   0.121   2.559   0.647
  602SOL     OW 1835   1.842   3.629   0.359
  602SOL    HW1 1836   1.896   3.600   0.439
  602SOL    HW2 1837   1.872   3.719   0.330
  603SOL     OW 1838   0.027   3.458   0.117
  603SOL    HW1 1839   0.008   3.362   0.138
  603SOL    HW2 1840  -0.006   3.516   0.192
  604SOL     OW 1841   1.689   2.784   0.612
  604SOL    HW1 1842   1.784   2.755   0.620
  604SOL    HW2 1843   1.681   2.849   0.537
  605SOL     OW 1844   1.641   2.970   0.432
  605SOL    HW1 1845   1.727   2.972   0.380
  605SOL    HW2 1846   1.655   3.017   0.520
  606SOL     OW 1847   0.113   2.599   1.597
  606SOL    HW1 1848   0.201   2.586   1.642
  606SOL    HW2 1849   0.100   2.696   1.575
  607SOL     OW 1850   0.613   3.227   0.726
  607SOL    HW1 1851   0.564   3.140   0.735
  607SOL    HW2 1852   0.590   3.270   0.639
  608SOL     OW 1853   1.293   3.090   1.423
  608SOL    HW1 1854   1.330   3.017   1.365
  608SOL    HW2 1855   1.345   3.095   1.508
  609SOL     OW 1856   0.809   1.866   0.502
  609SOL    HW1 1857   0.849   1.957   0.493
  609SOL    HW2 1858   0.709   1.874   0.508
  610SOL     OW 1859   0.197   2.838   1.264
  610SOL    HW1 1860   0.286   2.793   1.250
  610SOL    HW2 1861   0.124   2.773   1.245
  611SOL     OW 1862   1.525   2.861   0.190
  611SOL    HW1 1863   1.462   2.785   0.203
  611SOL    HW2 1864   1.573   2.879   0.276
  612SOL     OW 1865   1.187   3.654   1.616
  612SOL    HW1 1866   1.211   3.714   1.540
  612SOL    HW2 1867   1.194   3.559   1.586
  613SOL     OW 1868   0.317   2.113   1.801
  613SOL    HW1 1869   0.388   2.184   1.807
  613SOL    HW2 1870   0.229   2.152   1.829
  614SOL     OW 1871   1.466   3.279   0.953
  614SOL    HW1 1872   1.407   3.285   1.033
  614SOL    HW2 1873   1.451   3.191   0.907
  615SOL     OW 1874   1.667   3.576   0.572
  615SOL    HW1 1875   1.626   3.553   0.484
  615SOL    HW2 1876   1.649   3.502   0.637
  616SOL     OW 1877   0.598   2.591   0.270
  616SOL    HW1 1878   0.622   2.660   0.202
  616SOL    HW2 1879   0.520   2.624   0.324
  617SOL     OW 1880   1.281   2.207   0.944
  617SOL    HW1 1881   1.195   2.157   0.931
  617SOL    HW2 1882   1.343   2.153   1.000
  618SOL     OW 1883   1.576   3.524   0.307
  618SOL    HW1 1884   1.665   3.570   0.310
  618SOL    HW2 1885   1.555   3.500   0.212
  619SOL     OW 1886   0.807   2.467   1.465
  619SOL    HW1 1887   0.760   2.464   1.554
  619SOL    HW2 1888   0.756   2.412   1.399
  620SOL     OW 1889   1.394   2.331   1.674
  620SOL    HW1 1890   1.374   2.374   1.762
  620SOL    HW2 1891   1.472   2.269   1.683
  621SOL     OW 1892   0.973   2.752   1.572
  621SOL    HW1 1893   1.019   2.668   1.543
  621SOL    HW2 1894   0.917   2.786   1.497
  622SOL     OW 1895   0.991   2.272   1.242
  622SOL    HW1 1896   0.914   2.306   1.296
  622SOL    HW2 1897   0.957   2.221   1.163
  623SOL     OW 1898   1.041   2.563   0.429
  623SOL    HW1 1899   1.067   2.559   0.525
  623SOL    HW2 1900   0.956   2.512   0.415
  624SOL     OW 1901   0.076   2.673   0.789
  624SOL    HW1 1902   0.175   2.661   0.798
  624SOL    HW2 1903   0.052   2.768   0.810
  625SOL     OW 1904   0.130   3.683   1.571
  625SOL    HW1 1905   0.120   3.668   1.670
  625SOL    HW2 1906   0.044   3.719   1.535
  626SOL     OW 1907   0.865   2.210   0.195
  626SOL    HW1 1908   0.924   2.273   0.146
  626SOL    HW2 1909   0.884   2.116   0.166
  627SOL     OW 1910   1.719   2.447   1.831
  627SOL    HW1 1911   1.693   2.536   1.795
  627SOL    HW2 1912   1.717   2.379   1.758
  628SOL     OW 1913   1.362   3.006   0.545
  628SOL    HW1 1914   1.445   2.977   0.497
  628SOL    HW2 1915   1.313   3.073   0.489
  629SOL     OW 1916   0.550   2.058   0.885
  629SOL    HW1 1917   0.545   2.053   0.985
  629SOL    HW2 1918   0.552   2.154   0.856
  630SOL     OW 1919   1.008   3.318   0.477
  630SOL    HW1 1920   0.962   3.390   0.425
  630SOL    HW2 1921   1.004   3.338   0.575
  631SOL     OW 1922   0.351   3.663   0.853
  631SOL    HW1 1923   0.401   3.577   0.859
  631SOL    HW2 1924   0.416   3.740   0.850
  632SOL     OW 1925   1.795   2.928   0.873
  632SOL    HW1 1926   1.733   2.913   0.797
  632SOL    HW2 1927   1.743   2.939   0.958
  633SOL     OW 1928   1.227   3.412   1.506
  633SOL    HW1 1929   1.233   3.335   1.570
  633SOL    HW2 1930   1.175   3.386   1.426
  634SOL     OW 1931   0.321   2.805   0.242
  634SOL    HW1 1932   0.403   2.844   0.200
  634SOL    HW2 1933   0.294   2.723   0.193
  635SOL     OW 1934   1.458   2.597   0.728
  635SOL    HW1 1935   1.453   2.532   0.803
  635SOL    HW2 1936   1.538   2.656   0.741
  636SOL     OW 1937   0.461   3.128   1.727
  636SOL    HW1 1938   0.411   3.129   1.641
  636SOL    HW2 1939   0.398   3.110   1.803
  637SOL     OW 1940   1.111   3.638   0.237
  637SOL    HW1 1941   1.051   3.576   0.287
  637SOL    HW2 1942   1.142   3.594   0.152
  638SOL     OW 1943   0.202   2.147   1.498
  638SOL    HW1 1944   0.122   2.207   1.485
  638SOL    HW2 1945   0.192   2.098   1.584
  639SOL     OW 1946   1.632   3.239   0.081
  639SOL    HW1 1947   1.600   3.333   0.071
  639SOL    HW2 1948   1.556   3.176   0.069
  640SOL     OW 1949   0.464   3.605   0.323
  640SOL    HW1 1950   0.497   3.644   0.409
  640SOL    HW2 1951   0.540   3.598   0.258
  641SOL     OW 1952   1.400   1.969   0.426
  641SOL    HW1 1953   1.376   1.932   0.336
  641SOL    HW2 1954   1.499   1.985   0.430
  642SOL     OW 1955   0.249   3.647   1.241
  642SOL    HW1 1956   0.306   3.582   1.291
  642SOL    HW2 1957   0.233   3.614   1.148
  643SOL     OW 1958   0.940   3.560   0.904
  643SOL    HW1 1959   1.020   3.503   0.925
  643SOL    HW2 1960   0.891   3.520   0.827
  644SOL     OW 1961   0.382   2.562   0.480
  644SOL    HW1 1962   0.427   2.472   0.477
  644SOL    HW2 1963   0.288   2.551   0.513
  645SOL     OW 1964   1.547   2.084   1.729
  645SOL    HW1 1965   1.542   2.121   1.821
  645SOL    HW2 1966   1.475   2.015   1.717
  646SOL     OW 1967   0.614   1.984   0.117
  646SOL    HW1 1968   0.712   1.962   0.124
  646SOL    HW2 1969   0.583   1.967   0.024
  647SOL     OW 1970   0.781   2.126   1.749
  647SOL    HW1 1971   0.848   2.065   1.792
  647SOL    HW2 1972   0.708   2.145   1.814
  648SOL     OW 1973   0.888   3.376   1.195
  648SOL    HW1 1974   0.865   3.351   1.101
  648SOL    HW2 1975   0.949   3.307   1.234
  649SOL     OW 1976   1.351   2.452   1.433
  649SOL    HW1 1977   1.379   2.409   1.518
  649SOL    HW2 1978   1.376   2.548   1.434
  650SOL     OW 1979   0.803   3.264   0.924
  650SOL    HW1 1980   0.893   3.278   0.882
  650SOL    HW2 1981   0.732   3.266   0.853
  651SOL     OW 1982   0.922   2.365   0.899
  651SOL    HW1 1983   0.897   2.356   0.803
  651SOL    HW2 1984   0.970   2.283   0.930
  652SOL     OW 1985   0.539   1.926   0.512
  652SOL    HW1 1986   0.458   1.927   0.570
  652SOL    HW2 1987   0.542   2.009   0.457
  653SOL     OW 1988   1.434   3.050   0.041
  653SOL    HW1 1989   1.466   2.974   0.098
  653SOL    HW2 1990   1.342   3.077   0.071
  654SOL     OW 1991   0.297   1.897   0.171
  654SOL    HW1 1992   0.346   1.981   0.150
  654SOL    HW2 1993   0.359   1.832   0.216
  655SOL     OW 1994   0.935   2.098   0.480
  655SOL    HW1 1995   0.887   2.139   0.402
  655SOL    HW2 1996   1.034   2.096   0.461
  656SOL     OW 1997   1.076   2.545   1.464
  656SOL    HW1 1998   0.996   2.484   1.467
  656SOL    HW2 1999   1.157   2.492   1.440
  657SOL     OW 2000   1.227   3.432   0.793
  657SOL    HW1 2001   1.248   3.506   0.728
  657SOL    HW2 2002   1.295   3.432   0.866
  658SOL     OW 2003   0.459   3.014   0.741
  658SOL    HW1 2004   0.388   2.987   0.806
  658SOL    HW2 2005   0.433   2.986   0.648
  659SOL     OW 2006   1.271   3.659   0.591
  659SOL    HW1 2007   1.315   3.723   0.527
  659SOL    HW2 2008   1.221   3.711   0.661
  660SOL     OW 2009   1.032   2.411   0.016
  660SOL    HW1 2010   0.991   2.493  -0.023
  660SOL    HW2 2011   1.096   2.437   0.089
  661SOL     OW 2012   0.078   2.418   1.386
  661SOL    HW1 2013   0.170   2.417   1.345
  661SOL    HW2 2014   0.072   2.492   1.453
  662SOL     OW 2015   0.561   2.084   1.147
  662SOL    HW1 2016   0.599   2.000   1.184
  662SOL    HW2 2017   0.473   2.103   1.191
  663SOL     OW 2018   0.866   2.316   0.642
  663SOL    HW1 2019   0.834   2.388   0.580
  663SOL    HW2 2020   0.890   2.235   0.589
  664SOL     OW 2021   1.017   1.901   0.753
  664SOL    HW1 2022   0.945   1.906   0.684
  664SOL    HW2 2023   0.993   1.832   0.822
  665SOL     OW 2024   1.429   3.035   0.867
  665SOL    HW1 2025   1.374   2.951   0.860
  665SOL    HW2 2026   1.455   3.064   0.775
  666SOL     OW 2027   1.466   2.452   0.992
  666SOL    HW1 2028   1.436   2.357   0.999
  666SOL    HW2 2029   1.539   2.468   1.058
  667SOL     OW 2030   1.857   2.695   0.377
  667SOL    HW1 2031   1.899   2.631   0.441
  667SOL    HW2 2032   1.819   2.644   0.299
  668SOL     OW 2033   0.488   3.247   0.174
  668SOL    HW1 2034   0.401   3.232   0.221
  668SOL    HW2 2035   0.471   3.273   0.079
  669SOL     OW 2036   1.664   3.142   0.657
  669SOL    HW1 2037   1.763   3.150   0.671
  669SOL    HW2 2038   1.619   3.226   0.688
  670SOL     OW 2039   1.390   2.437   0.078
  670SOL    HW1 2040   1.336   2.416   0.159
  670SOL    HW2 2041   1.481   2.396   0.087
  671SOL     OW 2042   0.527   2.118   0.328
  671SOL    HW1 2043   0.554   2.059   0.253
  671SOL    HW2 2044   0.527   2.213   0.297
  672SOL     OW 2045   1.754   3.085   1.588
  672SOL    HW1 2046   1.845   3.046   1.575
  672SOL    HW2 2047   1.762   3.181   1.612
  673SOL     OW 2048   1.064   3.209   1.340
  673SOL    HW1 2049   0.984   3.186   1.395
  673SOL    HW2 2050   1.147   3.183   1.389
  674SOL     OW 2051   1.592   3.491   1.625
  674SOL    HW1 2052   1.619   3.525   1.535
  674SOL    HW2 2053   1.671   3.453   1.671
  675SOL     OW 2054   1.111   3.057   1.100
  675SOL    HW1 2055   1.071   3.101   1.181
  675SOL    HW2 2056   1.070   3.094   1.017
  676SOL     OW 2057   1.638   2.961   1.079
  676SOL    HW1 2058   1.643   3.042   1.138
  676SOL    HW2 2059   1.552   2.963   1.028
  677SOL     OW 2060   0.915   1.951   1.402
  677SOL    HW1 2061   0.940   1.931   1.307
  677SOL    HW2 2062   0.987   2.007   1.444
  678SOL     OW 2063   0.980   2.978   1.719
  678SOL    HW1 2064   0.881   2.984   1.729
  678SOL    HW2 2065   1.003   2.898   1.663
  679SOL     OW 2066   0.705   2.912   0.368
  679SOL    HW1 2067   0.691   2.919   0.467
  679SOL    HW2 2068   0.789   2.861   0.350
  680SOL     OW 2069   0.410   2.675   1.251
  680SOL    HW1 2070   0.496   2.687   1.301
  680SOL    HW2 2071   0.368   2.588   1.278
  681SOL     OW 2072   1.274   2.248   1.262
  681SOL    HW1 2073   1.295   2.322   1.326
  681SOL    HW2 2074   1.185   2.265   1.219
  682SOL     OW 2075   0.064   3.426   1.331
  682SOL    HW1 2076   0.018   3.508   1.297
  682SOL    HW2 2077   0.162   3.445   1.340
  683SOL     OW 2078   0.367   2.962   0.501
  683SOL    HW1 2079   0.360   3.045   0.445
  683SOL    HW2 2080   0.371   2.882   0.441
  684SOL     OW 2081   0.566   2.399   0.865
  684SOL    HW1 2082   0.578   2.465   0.791
  684SOL    HW2 2083   0.612   2.433   0.948
  685SOL     OW 2084   1.252   3.210   0.388
  685SOL    HW1 2085   1.302   3.287   0.428
  685SOL    HW2 2086   1.157   3.212   0.420
  686SOL     OW 2087   1.272   3.307   1.142
  686SOL    HW1 2088   1.319   3.320   1.229
  686SOL    HW2 2089   1.206   3.233   1.151
  687SOL     OW 2090   1.582   2.501   0.472
  687SOL    HW1 2091   1.551   2.562   0.545
  687SOL    HW2 2092   1.632   2.553   0.403
  688SOL     OW 2093   0.354   3.372   1.329
  688SOL    HW1 2094   0.333   3.328   1.242
  688SOL    HW2 2095   0.451   3.398   1.332
  689SOL     OW 2096   0.402   2.613   1.598
  689SOL    HW1 2097   0.470   2.668   1.551
  689SOL    HW2 2098   0.442   2.525   1.625
  690SOL     OW 2099   1.587   2.641   1.670
  690SOL    HW1 2100   1.495   2.679   1.665
  690SOL    HW2 2101   1.647   2.688   1.605
  691SOL     OW 2102   1.013   1.967   1.770
  691SOL    HW1 2103   1.019   2.052   1.718
  691SOL    HW2 2104   1.045   1.891   1.713
  692SOL     OW 2105   0.504   1.912   1.740
  692SOL    HW1 2106   0.462   1.855   1.670
  692SOL    HW2 2107   0.438   1.981   1.772
  693SOL     OW 2108   0.573   2.732   1.029
  693SOL    HW1 2109   0.617   2.821   1.020
  693SOL    HW2 2110   0.510   2.732   1.106
  694SOL     OW 2111   1.360   2.724   1.045
  694SOL    HW1 2112   1.285   2.724   0.979
  694SOL    HW2 2113   1.397   2.632   1.054
  695SOL     OW 2114   1.209   2.387   0.275
  695SOL    HW1 2115   1.222   2.303   0.329
  695SOL    HW2 2116   1.180   2.461   0.335
  696SOL     OW 2117   0.307   2.075   1.231
  696SOL    HW1 2118   0.284   2.112   1.321
  696SOL    HW2 2119   0.277   1.980   1.225
  697SOL     OW 2120   0.037   3.172   1.282
  697SOL    HW1 2121   0.090   3.123   1.350
  697SOL    HW2 2122   0.059   3.270   1.287
  698SOL     OW 2123   0.732   2.496   1.064
  698SOL    HW1 2124   0.791   2.470   0.988
  698SOL    HW2 2125   0.704   2.592   1.053
  699SOL     OW 2126   1.728   2.797   1.854
  699SOL    HW1 2127   1.682   2.790   1.765
  699SOL    HW2 2128   1.666   2.841   1.920
  700SOL     OW 2129   0.307   1.925   0.618
  700SOL    HW1 2130   0.296   2.019   0.651
  700SOL    HW2 2131   0.302   1.862   0.695
  701SOL     OW 2132   1.622   2.229   0.374
  701SOL    HW1 2133   1.624   2.153   0.438
  701SOL    HW2 2134   1.574   2.306   0.414
  702SOL     OW 2135   1.023   2.628   0.966
  702SOL    HW1 2136   1.038   2.649   1.062
  702SOL    HW2 2137   0.993   2.533   0.957
  703SOL     OW 2138   0.980   3.435   1.700
  703SOL    HW1 2139   0.960   3.479   1.612
  703SOL    HW2 2140   1.019   3.344   1.684
  704SOL     OW 2141   1.859   3.380   1.605
  704SOL    HW1 2142   1.873   3.407   1.510
  704SOL    HW2 2143   1.942   3.402   1.658
  705SOL     OW 2144   0.350   2.760   1.804
  705SOL    HW1 2145   0.426   2.804   1.852
  705SOL    HW2 2146   0.385   2.713   1.722
  706SOL     OW 2147   1.540   2.136   0.125
  706SOL    HW1 2148   1.479   2.061   0.148
  706SOL    HW2 2149   1.562   2.188   0.208
  707SOL     OW 2150   1.303   2.700   0.042
  707SOL    HW1 2151   1.337   2.607   0.057
  707SOL    HW2 2152   1.321   2.727  -0.053
  708SOL     OW 2153   1.068   3.195   0.849
  708SOL    HW1 2154   1.075   3.111   0.794
  708SOL    HW2 2155   1.130   3.264   0.813
  709SOL     OW 2156   0.319   2.672   0.949
  709SOL    HW1 2157   0.412   2.708   0.954
  709SOL    HW2 2158   0.313   2.587   1.001
  710SOL     OW 2159   0.339   2.371   1.006
  710SOL    HW1 2160   0.287   2.288   0.989
  710SOL    HW2 2161   0.416   2.376   0.942
  711SOL     OW 2162   1.138   2.242   1.678
  711SOL    HW1 2163   1.093   2.305   1.742
  711SOL    HW2 2164   1.231   2.273   1.661
  712SOL     OW 2165   1.160   2.069   1.477
  712SOL    HW1 2166   1.160   2.133   1.554
  712SOL    HW2 2167   1.188   2.117   1.394
  713SOL     OW 2168   0.008   3.188   0.200
  713SOL    HW1 2169  -0.085   3.209   0.169
  713SOL    HW2 2170   0.018   3.089   0.213
  714SOL     OW 2171   0.088   3.663   0.927
  714SOL    HW1 2172   0.046   3.577   0.900
  714SOL    HW2 2173   0.182   3.666   0.893
  715SOL     OW 2174   0.504   3.430   0.910
  715SOL    HW1 2175   0.570   3.504   0.919
  715SOL    HW2 2176   0.548   3.351   0.868
  716SOL     OW 2177   1.002   2.658   1.238
  716SOL    HW1 2178   1.043   2.626   1.324
  716SOL    HW2 2179   0.906   2.631   1.235
  717SOL     OW 2180   0.040   2.406   1.114
  717SOL    HW1 2181   0.125   2.373   1.073
  717SOL    HW2 2182   0.053   2.421   1.212
  718SOL     OW 2183   0.189   2.382   1.722
  718SOL    HW1 2184   0.248   2.342   1.652
  718SOL    HW2 2185   0.131   2.453   1.681
  719SOL     OW 2186   1.369   2.812   1.660
  719SOL    HW1 2187   1.408   2.901   1.680
  719SOL    HW2 2188   1.379   2.792   1.563
  720SOL     OW 2189   0.815   2.434   0.325
  720SOL    HW1 2190   0.822   2.345   0.279
  720SOL    HW2 2191   0.721   2.468   0.317
  721SOL     OW 2192   1.657   2.466   1.206
  721SOL    HW1 2193   1.619   2.397   1.268
  721SOL    HW2 2194   1.739   2.430   1.162
  722SOL     OW 2195   0.252   3.426   1.744
  722SOL    HW1 2196   0.222   3.483   1.820
  722SOL    HW2 2197   0.245   3.329   1.770
  723SOL     OW 2198   0.671   2.326   1.269
  723SOL    HW1 2199   0.637   2.237   1.239
  723SOL    HW2 2200   0.697   2.380   1.189
  724SOL     OW 2201   0.930   3.540   1.465
  724SOL    HW1 2202   0.906   3.522   1.370
  724SOL    HW2 2203   0.960   3.634   1.475
  725SOL     OW 2204   0.473   2.362   0.191
  725SOL    HW1 2205   0.534   2.442   0.195
  725SOL    HW2 2206   0.378   2.393   0.198
  726SOL     OW 2207   0.159   2.999   1.466
  726SOL    HW1 2208   0.181   2.938   1.542
  726SOL    HW2 2209   0.169   2.950   1.380
  727SOL     OW 2210   1.347   2.921   1.234
  727SOL    HW1 2211   1.371   2.858   1.160
  727SOL    HW2 2212   1.257   2.961   1.216
  728SOL     OW 2213   1.302   2.717   0.309
  728SOL    HW1 2214   1.216   2.686   0.351
  728SOL    HW2 2215   1.298   2.703   0.210
  729SOL     OW 2216   1.759   3.609   1.154
  729SOL    HW1 2217   1.820   3.639   1.081
  729SOL    HW2 2218   1.721   3.520   1.132
  730SOL     OW 2219   1.252   3.593   1.128
  730SOL    HW1 2220   1.336   3.598   1.074
  730SOL    HW2 2221   1.229   3.497   1.146
  731SOL     OW 2222   0.083   3.120   1.022
  731SOL    HW1 2223   0.078   3.119   1.122
  731SOL    HW2 2224   0.000   3.079   0.984
  732SOL     OW 2225   0.688   3.524   1.716
  732SOL    HW1 2226   0.632   3.605   1.725
  732SOL    HW2 2227   0.740   3.528   1.630
  733SOL     OW 2228   0.903   1.948   0.133
  733SOL    HW1 2229   0.954   1.949   0.047
  733SOL    HW2 2230   0.959   1.906   0.204
  734SOL     OW 2231   1.726   1.997   0.523
  734SOL    HW1 2232   1.799   1.980   0.456
  734SOL    HW2 2233   1.695   1.910   0.561
  735SOL     OW 2234   1.388   3.435   0.477
  735SOL    HW1 2235   1.455   3.447   0.403
  735SOL    HW2 2236   1.348   3.524   0.500
  736SOL     OW 2237   0.130   3.656   1.851
  736SOL    HW1 2238   0.089   3.582   1.904
  736SOL    HW2 2239   0.194   3.707   1.909
  737SOL     OW 2240   1.280   2.789   0.672
  737SOL    HW1 2241   1.340   2.708   0.674
  737SOL    HW2 2242   1.320   2.858   0.612
  738SOL     OW 2243   0.830   3.135   1.422
  738SOL    HW1 2244   0.825   3.168   1.517
  738SOL    HW2 2245   0.744   3.154   1.376
  739SOL     OW 2246   0.672   3.478   0.154
  739SOL    HW1 2247   0.681   3.488   0.055
  739SOL    HW2 2248   0.632   3.389   0.175
  740SOL     OW 2249   1.650   3.582   1.394
  740SOL    HW1 2250   1.703   3.592   1.310
  740SOL    HW2 2251   1.623   3.672   1.428
  741SOL     OW 2252   1.841   2.037   0.963
  741SOL    HW1 2253   1.880   1.952   0.927
  741SOL    HW2 2254   1.743   2.039   0.944
  742SOL     OW 2255   0.263   2.188   0.720
  742SOL    HW1 2256   0.184   2.239   0.686
  742SOL    HW2 2257   0.254   2.173   0.818
  743SOL     OW 2258   1.194   3.474   0.031
  743SOL    HW1 2259   1.200   3.381   0.068
  743SOL    HW2 2260   1.135   3.474  -0.049
  744SOL     OW 2261   0.822   2.864   1.372
  744SOL    HW1 2262   0.862   2.863   1.280
  744SOL    HW2 2263   0.832   2.956   1.412
  745SOL     OW 2264   0.916   2.772   0.291
  745SOL    HW1 2265   0.979   2.810   0.223
  745SOL    HW2 2266   0.956   2.689   0.330
  746SOL     OW 2267   1.504   3.469   0.044
  746SOL    HW1 2268   1.412   3.506   0.051
  746SOL    HW2 2269   1.542   3.489  -0.046
  747SOL     OW 2270   0.372   3.150   1.490
  747SOL    HW1 2271   0.359   3.243   1.456
  747SOL    HW2 2272   0.288   3.098   1.477
  748SOL     OW 2273   1.614   3.154   1.289
  748SOL    HW1 2274   1.674   3.157   1.369
  748SOL    HW2 2275   1.539   3.218   1.302
  749SOL     OW 2276   1.039   2.960   0.696
  749SOL    HW1 2277   0.969   2.913   0.750
  749SOL    HW2 2278   1.098   2.892   0.653
  750SOL     OW 2279   1.014   2.098   0.971
  750SOL    HW1 2280   1.006   2.062   0.878
  750SOL    HW2 2281   1.012   2.022   1.036
  751SOL     OW 2282   0.590   3.349   0.491
  751SOL    HW1 2283   0.632   3.291   0.421
  751SOL    HW2 2284   0.546   3.428   0.447
  752SOL     OW 2285   1.709   2.247   1.381
  752SOL    HW1 2286   1.782   2.316   1.385
  752SOL    HW2 2287   1.737   2.172   1.322
  753SOL     OW 2288   0.255   3.210   0.290
  753SOL    HW1 2289   0.159   3.211   0.263
  753SOL    HW2 2290   0.267   3.263   0.374
  754SOL     OW 2291   0.105   2.875   1.726
  754SOL    HW1 2292   0.028   2.842   1.780
  754SOL    HW2 2293   0.190   2.845   1.768
  755SOL     OW 2294   0.672   2.065   1.489
  755SOL    HW1 2295   0.762   2.049   1.449
  755SOL    HW2 2296   0.680   2.070   1.588
  756SOL     OW 2297   0.075   2.207   0.033
  756SOL    HW1 2298  -0.017   2.179   0.004
  756SOL    HW2 2299   0.106   2.284  -0.023
  757SOL     OW 2300   1.440   2.718   1.398
  757SOL    HW1 2301   1.383   2.770   1.335
  757SOL    HW2 2302   1.536   2.730   1.374
  758SOL     OW 2303   0.072   2.028   0.318
  758SOL    HW1 2304   0.055   2.111   0.264
  758SOL    HW2 2305   0.162   1.991   0.296
  759SOL     OW 2306   1.183   3.197   0.119
  759SOL    HW1 2307   1.084   3.186   0.121
  759SOL    HW2 2308   1.217   3.212   0.212
  760SOL     OW 2309   0.613   2.704   1.431
  760SOL    HW1 2310   0.669   2.785   1.414
  760SOL    HW2 2311   0.672   2.624   1.434
  761SOL     OW 2312   1.493   3.629   0.959
  761SOL    HW1 2313   1.526   3.693   0.890
  761SOL    HW2 2314   1.559   3.623   1.034
  762SOL     OW 2315   0.716   2.427   1.708
  762SOL    HW1 2316   0.735   2.492   1.782
  762SOL    HW2 2317   0.776   2.347   1.717
  763SOL     OW 2318   1.450   3.082   1.633
  763SOL    HW1 2319   1.441   3.072   1.732
  763SOL    HW2 2320   1.546   3.075   1.607
  764SOL     OW 2321   0.390   3.603   1.560
  764SOL    HW1 2322   0.299   3.644   1.558
  764SOL    HW2 2323   0.383   3.509   1.592
  765SOL     OW 2324   1.674   2.745   1.254
  765SOL    HW1 2325   1.647   2.656   1.217
  765SOL    HW2 2326   1.675   2.813   1.181
  766SOL     OW 2327   1.225   2.187   0.449
  766SOL    HW1 2328   1.290   2.113   0.438
  766SOL    HW2 2329   1.245   2.237   0.533
  767SOL     OW 2330   0.594   2.607   0.652
  767SOL    HW1 2331   0.644   2.692   0.633
  767SOL    HW2 2332   0.506   2.609   0.604
  768SOL     OW 2333   1.777   2.204   1.642
  768SOL    HW1 2334   1.760   2.235   1.548
  768SOL    HW2 2335   1.693   2.167   1.680
  769SOL     OW 2336   1.730   2.796   1.517
  769SOL    HW1 2337   1.768   2.887   1.532
  769SOL    HW2 2338   1.722   2.779   1.418
  770SOL     OW 2339   0.859   3.236   0.016
  770SOL    HW1 2340   0.813   3.251   0.104
  770SOL    HW2 2341   0.903   3.321  -0.014
  771SOL     OW 2342   0.661   3.652   0.953
  771SOL    HW1 2343   0.615   3.740   0.940
  771SOL    HW2 2344   0.760   3.664   0.946
  772SOL     OW 2345   0.859   2.818   0.861
  772SOL    HW1 2346   0.913   2.749   0.909
  772SOL    HW2 2347   0.827   2.887   0.927
  773SOL     OW 2348   1.083   2.846   0.087
  773SOL    HW1 2349   1.060   2.899   0.005
  773SOL    HW2 2350   1.164   2.790   0.068
  774SOL     OW 2351   1.861   3.431   0.851
  774SOL    HW1 2352   1.790   3.419   0.781
  774SOL    HW2 2353   1.862   3.352   0.911
  775SOL     OW 2354   0.221   3.176   1.844
  775SOL    HW1 2355   0.156   3.103   1.823
  775SOL    HW2 2356   0.225   3.190   1.942
  776SOL     OW 2357   0.079   3.102   0.653
  776SOL    HW1 2358   0.078   3.055   0.741
  776SOL    HW2 2359   0.161   3.074   0.602
  777SOL     OW 2360   0.672   3.253   1.624
  777SOL    HW1 2361   0.594   3.203   1.662
  777SOL    HW2 2362   0.669   3.348   1.655
  778SOL     OW 2363   1.824   2.054   1.227
  778SOL    HW1 2364   1.820   1.964   1.271
  778SOL    HW2 2365   1.827   2.043   1.128
  779SOL     OW 2366   0.428   2.286   0.520
  779SOL    HW1 2367   0.458   2.214   0.458
  779SOL    HW2 2368   0.389   2.246   0.603
  780SOL     OW 2369   1.705   3.349   1.104
  780SOL    HW1 2370   1.612   3.324   1.077
  780SOL    HW2 2371   1.731   3.299   1.186
  781SOL     OW 2372   0.317   2.409   1.280
  781SOL    HW1 2373   0.355   2.350   1.352
  781SOL    HW2 2374   0.357   2.383   1.192
  782SOL     OW 2375   0.812   3.448   0.687
  782SOL    HW1 2376   0.844   3.458   0.593
  782SOL    HW2 2377   0.733   3.386   0.689
  783SOL     OW 2378   1.424   2.076   1.112
  783SOL    HW1 2379   1.476   2.011   1.167
  783SOL    HW2 2380   1.375   2.139   1.173
  784SOL     OW 2381   1.001   1.896   1.154
  784SOL    HW1 2382   0.938   1.824   1.123
  784SOL    HW2 2383   1.094   1.860   1.154
  785SOL     OW 2384   0.770   3.192   0.301
  785SOL    HW1 2385   0.724   3.105   0.318
  785SOL    HW2 2386   0.861   3.189   0.342
  786SOL     OW 2387   0.618   3.429   1.284
  786SOL    HW1 2388   0.613   3.511   1.341
  786SOL    HW2 2389   0.707   3.426   1.239
  787SOL     OW 2390   1.352   1.914   0.168
  787SOL    HW1 2391   1.387   1.873   0.084
  787SOL    HW2 2392   1.262   1.876   0.188
  788SOL     OW 2393   1.300   2.315   0.691
  788SOL    HW1 2394   1.241   2.395   0.695
  788SOL    HW2 2395   1.315   2.280   0.784
  789SOL     OW 2396   1.593   2.083   0.882
  789SOL    HW1 2397   1.509   2.082   0.936
  789SOL    HW2 2398   1.595   2.166   0.826
  790SOL     OW 2399   0.039   2.939   0.300
  790SOL    HW1 2400   0.138   2.928   0.291
  790SOL    HW2 2401  -0.001   2.853   0.332
  791SOL     OW 2402   0.875   3.508   0.337
  791SOL    HW1 2403   0.798   3.473   0.283
  791SOL    HW2 2404   0.843   3.579   0.399
  792SOL     OW 2405   0.230   2.490   1.975
  792SOL    HW1 2406   0.137   2.488   2.012
  792SOL    HW2 2407   0.231   2.451   1.883
  793SOL     OW 2408   0.225   2.137   2.858
  793SOL    HW1 2409   0.260   2.120   2.950
  793SOL    HW2 2410   0.137   2.092   2.846
  794SOL     OW 2411   0.019   2.230   2.509
  794SOL    HW1 2412  -0.063   2.273   2.548
  794SOL    HW2 2413  -0.009   2.157   2.446
  795SOL     OW 2414   0.569   3.137   3.027
  795SOL    HW1 2415   0.476   3.130   2.990
  795SOL    HW2 2416   0.580   3.226   3.071
  796SOL     OW 2417   1.555   3.373   2.565
  796SOL    HW1 2418   1.498   3.357   2.646
  796SOL    HW2 2419   1.496   3.383   2.485
  797SOL     OW 2420   1.135   2.565   2.579
  797SOL    HW1 2421   1.192   2.643   2.554
  797SOL    HW2 2422   1.075   2.591   2.655
  798SOL     OW 2423   1.755   2.469   2.093
  798SOL    HW1 2424   1.743   2.456   1.994
  798SOL    HW2 2425   1.725   2.388   2.142
  799SOL     OW 2426   0.768   3.006   2.885
  799SOL    HW1 2427   0.690   3.023   2.945
  799SOL    HW2 2428   0.802   3.093   2.849
  800SOL     OW 2429   0.850   2.660   3.685
  800SOL    HW1 2430   0.846   2.736   3.750
  800SOL    HW2 2431   0.872   2.696   3.594
  801SOL     OW 2432   0.685   2.874   2.527
  801SOL    HW1 2433   0.754   2.858   2.597
  801SOL    HW2 2434   0.612   2.931   2.565
  802SOL     OW 2435   0.686   3.023   3.665
  802SOL    HW1 2436   0.746   3.102   3.679
  802SOL    HW2 2437   0.600   3.054   3.624
  803SOL     OW 2438   0.335   3.297   2.923
  803SOL    HW1 2439   0.257   3.266   2.870
  803SOL    HW2 2440   0.393   3.355   2.866
  804SOL     OW 2441   1.460   3.367   3.201
  804SOL    HW1 2442   1.484   3.461   3.227
  804SOL    HW2 2443   1.444   3.313   3.283
  805SOL     OW 2444   0.438   2.254   3.361
  805SOL    HW1 2445   0.520   2.198   3.370
  805SOL    HW2 2446   0.357   2.196   3.365
  806SOL     OW 2447   1.603   2.309   2.599
  806SOL    HW1 2448   1.529   2.355   2.549
  806SOL    HW2 2449   1.654   2.377   2.652
  807SOL     OW 2450   0.231   3.575   2.345
  807SOL    HW1 2451   0.265   3.652   2.399
  807SOL    HW2 2452   0.275   3.575   2.255
  808SOL     OW 2453   1.127   3.203   3.552
  808SOL    HW1 2454   1.174   3.203   3.640
  808SOL    HW2 2455   1.079   3.116   3.541
  809SOL     OW 2456   0.230   3.296   2.400
  809SOL    HW1 2457   0.204   3.392   2.400
  809SOL    HW2 2458   0.159   3.242   2.445
  810SOL     OW 2459   0.240   2.953   2.748
  810SOL    HW1 2460   0.254   2.869   2.800
  810SOL    HW2 2461   0.185   3.017   2.803
  811SOL     OW 2462   0.620   3.648   3.301
  811SOL    HW1 2463   0.528   3.631   3.336
  811SOL    HW2 2464   0.648   3.740   3.327
  812SOL     OW 2465   0.606   2.826   1.985
  812SOL    HW1 2466   0.613   2.910   1.931
  812SOL    HW2 2467   0.652   2.839   2.073
  813SOL     OW 2468   1.594   1.976   3.342
  813SOL    HW1 2469   1.576   2.043   3.270
  813SOL    HW2 2470   1.591   2.022   3.431
  814SOL     OW 2471   0.122   2.505   2.425
  814SOL    HW1 2472   0.077   2.417   2.442
  814SOL    HW2 2473   0.121   2.559   2.509
  815SOL     OW 2474   1.842   3.629   2.221
  815SOL    HW1 2475   1.896   3.600   2.301
  815SOL    HW2 2476   1.872   3.719   2.192
  816SOL     OW 2477   0.027   3.458   1.979
  816SOL    HW1 2478   0.008   3.362   2.000
  816SOL    HW2 2479  -0.006   3.516   2.054
  817SOL     OW 2480   1.689   2.784   2.474
  817SOL    HW1 2481   1.784   2.755   2.482
  817SOL    HW2 2482   1.681   2.849   2.399
  818SOL     OW 2483   1.641   2.970   2.294
  818SOL    HW1 2484   1.727   2.972   2.242
  818SOL    HW2 2485   1.655   3.017   2.382
  819SOL     OW 2486   0.113   2.599   3.459
  819SOL    HW1 2487   0.201   2.586   3.504
  819SOL    HW2 2488   0.100   2.696   3.437
  820SOL     OW 2489   0.613   3.227   2.588
  820SOL    HW1 2490   0.564   3.140   2.597
  820SOL    HW2 2491   0.590   3.270   2.501
  821SOL     OW 2492   1.293   3.090   3.285
  821SOL    HW1 2493   1.330   3.017   3.227
  821SOL    HW2 2494   1.345   3.095   3.370
  822SOL     OW 2495   0.809   1.866   2.364
  822SOL    HW1 2496   0.849   1.957   2.355
  822SOL    HW2 2497   0.709   1.874   2.370
  823SOL     OW 2498   0.197   2.838   3.126
  823SOL    HW1 2499   0.286   2.793   3.112
  823SOL    HW2 2500   0.124   2.773   3.107
  824SOL     OW 2501   1.525   2.861   2.052
  824SOL    HW1 2502   1.462   2.785   2.065
  824SOL    HW2 2503   1.573   2.879   2.138
  825SOL     OW 2504   1.187   3.654   3.478
  825SOL    HW1 2505   1.211   3.714   3.402
  825SOL    HW2 2506   1.194   3.559   3.448
  826SOL     OW 2507   0.317   2.113   3.663
  826SOL    HW1 2508   0.388   2.184   3.669
  826SOL    HW2 2509   0.229   2.152   3.691
  827SOL     OW 2510   1.466   3.279   2.815
  827SOL    HW1 2511   1.407   3.285   2.895
  827SOL    HW2 2512   1.451   3.191   2.769
  828SOL     OW 2513   1.667   3.576   2.434
  828SOL    HW1 2514   1.626   3.553   2.346
  828SOL    HW2 2515   1.649   3.502   2.499
  829SOL     OW 2516   0.598   2.591   2.132
  829SOL    HW1 2517   0.622   2.660   2.064
  829SOL    HW2 2518   0.520   2.624   2.186
  830SOL     OW 2519   1.281   2.207   2.806
  830SOL    HW1 2520   1.195   2.157   2.793
  830SOL    HW2 2521   1.343   2.153   2.862
  831SOL     OW 2522   1.576   3.524   2.169
  831SOL    HW1 2523   1.665   3.570   2.172
  831SOL    HW2 2524   1.555   3.500   2.074
  832SOL     OW 2525   0.807   2.467   3.327
  832SOL    HW1 2526   0.760   2.464   3.416
  832SOL    HW2 2527   0.756   2.412   3.261
  833SOL     OW 2528   1.394   2.331   3.536
  833SOL    HW1 2529   1.374   2.374   3.624
  833SOL    HW2 2530   1.472   2.269   3.545
  834SOL     OW 2531   0.973   2.752   3.434
  834SOL    HW1 2532   1.019   2.668   3.405
  834SOL    HW2 2533   0.917   2.786   3.359
  835SOL     OW 2534   0.991   2.272   3.104
  835SOL    HW1 2535   0.914   2.306   3.158
  835SOL    HW2 2536   0.957   2.221   3.025
  836SOL     OW 2537   1.041   2.563   2.291
  836SOL    HW1 2538   1.067   2.559   2.387
  836SOL    HW2 2539   0.956   2.512   2.277
  837SOL     OW 2540   0.076   2.673   2.651
  837SOL    HW1 2541   0.175   2.661   2.660
  837SOL    HW2 2542   0.052   2.768   2.672
  838SOL     OW 2543   0.130   3.683   3.433
  838SOL    HW1 2544   0.120   3.668   3.532
  838SOL    HW2 2545   0.044   3.719   3.397
  839SOL     OW 2546   0.865   2.210   2.057
  839SOL    HW1 2547   0.924   2.273   2.008
  839SOL    HW2 2548   0.884   2.116   2.028
  840SOL     OW 2549   1.719   2.447   3.693
  840SOL    HW1 2550   1.693   2.536   3.657
  840SOL    HW2 2551   1.717   2.379   3.620
  841SOL     OW 2552   1.362   3.006   2.407
  841SOL    HW1 2553   1.445   2.977   2.359
  841SOL    HW2 2554   1.313   3.073   2.351
  842SOL     OW 2555   0.550   2.058   2.747
  842SOL    HW1 2556   0.545   2.053   2.847
  842SOL    HW2 2557   0.552   2.154   2.718
  843SOL     OW 2558   1.008   3.318   2.339
  843SOL    HW1 2559   0.962   3.390   2.287
  843SOL    HW2 2560   1.004   3.338   2.437
  844SOL     OW 2561   0.351   3.663   2.715
  844SOL    HW1 2562   0.401   3.577   2.721
  844SOL    HW2 2563   0.416   3.740   2.712
  845SOL     OW 2564   1.795   2.928   2.735
  845SOL    HW1 2565   1.733   2.913   2.659
  845SOL    HW2 2566   1.743   2.939   2.820
  846SOL     OW 2567   1.227   3.412   3.368
  846SOL    HW1 2568   1.233   3.335   3.432
  846SOL    HW2 2569   1.175   3.386   3.288
  847SOL     OW 2570   0.321   2.805   2.104
  847SOL    HW1 2571   0.403   2.844   2.062
  847SOL    HW2 2572   0.294   2.723   2.055
  848SOL     OW 2573   1.458   2.597   2.590
  848SOL    HW1 2574   1.453   2.532   2.665
  848SOL    HW2 2575   1.538   2.656   2.603
  849SOL     OW 2576   0.461   3.128   3.589
  849SOL    HW1 2577   0.411   3.129   3.503
  849SOL    HW2 2578   0.398   3.110   3.665
  850SOL     OW 2579   1.111   3.638   2.099
  850SOL    HW1 2580   1.051   3.576   2.149
  850SOL    HW2 2581   1.142   3.594   2.014
  851SOL     OW 2582   0.202   2.147   3.360
  851SOL    HW1 2583   0.122   2.207   3.347
  851SOL    HW2 2584   0.192   2.098   3.446
  852SOL     OW 2585   1.632   3.239   1.943
  852SOL    HW1 2586   1.600   3.333   1.933
  852SOL    HW2 2587   1.556   3.176   1.931
  853SOL     OW 2588   0.464   3.605   2.185
  853SOL    HW1 2589   0.497   3.644   2.271
  853SOL    HW2 2590   0.540   3.598   2.120
  854SOL     OW 2591   1.400   1.969   2.288
  854SOL    HW1 2592   1.376   1.932   2.198
  854SOL    HW2 2593   1.499   1.985   2.292
  855SOL     OW 2594   0.249   3.647   3.103
  855SOL    HW1 2595   0.306   3.582   3.153
  855SOL    HW2 2596   0.233   3.614   3.010
  856SOL     OW 2597   0.940   3.560   2.766
  856SOL    HW1 2598   1.020   3.503   2.787
  856SOL    HW2 2599   0.891   3.520   2.689
  857SOL     OW 2600   0.382   2.562   2.342
  857SOL    HW1 2601   0.427   2.472   2.339
  857SOL    HW2 2602   0.288   2.551   2.375
  858SOL     OW 2603   1.547   2.084   3.591
  858SOL    HW1 2604   1.542   2.121   3.683
  858SOL    HW2 2605   1.475   2.015   3.579
  859SOL     OW 2606   0.614   1.984   1.979
  859SOL    HW1 2607   0.712   1.962   1.986
  859SOL    HW2 2608   0.583   1.967   1.886
  860SOL     OW 2609   0.781   2.126   3.611
  860SOL    HW1 2610   0.848   2.065   3.654
  860SOL    HW2 2611   0.708   2.145   3.676
  861SOL     OW 2612   0.888   3.376   3.057
  861SOL    HW1 2613   0.865   3.351   2.963
  861SOL    HW2 2614   0.949   3.307   3.096
  862SOL     OW 2615   1.351   2.452   3.295
  862SOL    HW1 2616   1.379   2.409   3.380
  862SOL    HW2 2617   1.376   2.548   3.296
  863SOL     OW 2618   0.803   3.264   2.786
  863SOL    HW1 2619   0.893   3.278   2.744
  863SOL    HW2 2620   0.732   3.266   2.715
  864SOL     OW 2621   0.922   2.365   2.761
  864SOL    HW1 2622   0.897   2.356   2.665
  864SOL    HW2 2623   0.970   2.283   2.792
  865SOL     OW 2624   0.539   1.926   2.374
  865SOL    HW1 2625   0.458   1.927   2.432
  865SOL    HW2 2626   0.542   2.009   2.319
  866SOL     OW 2627   1.434   3.050   1.903
  866SOL    HW1 2628   1.466   2.974   1.960
  866SOL    HW2 2629   1.342   3.077   1.933
  867SOL     OW 2630   0.297   1.897   2.033
  867SOL    HW1 2631   0.346   1.981   2.012
  867SOL    HW2 2632   0.359   1.832   2.078
  868SOL     OW 2633   0.935   2.098   2.342
  868SOL    HW1 2634   0.887   2.139   2.264
  868SOL    HW2 2635   1.034   2.096   2.323
  869SOL     OW 2636   1.076   2.545   3.326
  869SOL    HW1 2637   0.996   2.484   3.329
  869SOL    HW2 2638   1.157   2.492   3.302
  870SOL     OW 2639   1.227   3.432   2.655
  870SOL    HW1 2640   1.248   3.506   2.590
  870SOL    HW2 2641   1.295   3.432   2.728
  871SOL     OW 2642   0.459   3.014   2.603
  871SOL    HW1 2643   0.388   2.987   2.668
  871SOL    HW2 2644   0.433   2.986   2.510
  872SOL     OW 2645   1.271   3.659   2.453
  872SOL    HW1 2646   1.315   3.723   2.389
  872SOL    HW2 2647   1.221   3.711   2.523
  873SOL     OW 2648   1.032   2.411   1.878
  873SOL    HW1 2649   0.991   2.493   1.839
  873SOL    HW2 2650   1.096   2.437   1.951
  874SOL     OW 2651   0.078   2.418   3.248
  874SOL    HW1 2652   0.170   2.417   3.207
  874SOL    HW2 2653   0.072   2.492   3.315
  875SOL     OW 2654   0.561   2.084   3.009
  875SOL    HW1 2655   0.599   2.000   3.046
  875SOL    HW2 2656   0.473   2.103   3.053
  876SOL     OW 2657   0.866   2.316   2.504
  876SOL    HW1 2658   0.834   2.388   2.442
  876SOL    HW2 2659   0.890   2.235   2.451
  877SOL     OW 2660   1.017   1.901   2.615
  877SOL    HW1 2661   0.945   1.906   2.546
  877SOL    HW2 2662   0.993   1.832   2.684
  878SOL     OW 2663   1.429   3.035   2.729
  878SOL    HW1 2664   1.374   2.951   2.722
  878SOL    HW2 2665   1.455   3.064   2.637
  879SOL     OW 2666   1.466   2.452   2.854
  879SOL    HW1 2667   1.436   2.357   2.861
  879SOL    HW2 2668   1.539   2.468   2.920
  880SOL     OW 2669   1.857   2.695   2.239
  880SOL    HW1 2670   1.899   2.631   2.303
  880SOL    HW2 2671   1.819   2.644   2.161
  881SOL     OW 2672   0.488   3.247   2.036
  881SOL    HW1 2673   0.401   3.232   2.083
  881SOL    HW2 2674   0.471   3.273   1.941
  882SOL     OW 2675   1.664   3.142   2.519
  882SOL    HW1 2676   1.763   3.150   2.533
  882SOL    HW2 2677   1.619   3.226   2.550
  883SOL     OW 2678   1.390   2.437   1.940
  883SOL    HW1 2679   1.336   2.416   2.021
  883SOL    HW2 2680   1.481   2.396   1.949
  884SOL     OW 2681   0.527   2.118   2.190
  884SOL    HW1 2682   0.554   2.059   2.115
  884SOL    HW2 2683   0.527   2.213   2.159
  885SOL     OW 2684   1.754   3.085   3.450
  885SOL    HW1 2685   1.845   3.046   3.437
  885SOL    HW2 2686   1.762   3.181   3.474
  886SOL     OW 2687   1.064   3.209   3.202
  886SOL    HW1 2688   0.984   3.186   3.257
  886SOL    HW2 2689   1.147   3.183   3.251
  887SOL     OW 2690   1.592   3.491   3.487
  887SOL    HW1 2691   1.619   3.525   3.397
  887SOL    HW2 2692   1.671   3.453   3.533
  888SOL     OW 2693   1.111   3.057   2.962
  888SOL    HW1 2694   1.071   3.101   3.043
  888SOL    HW2 2695   1.070   3.094   2.879
  889SOL     OW 2696   1.638   2.961   2.941
  889SOL    HW1 2697   1.643   3.042   3.000
  889SOL    HW2 2698   1.552   2.963   2.890
  890SOL     OW 2699   0.915   1.951   3.264
  890SOL    HW1 2700   0.940   1.931   3.169
  890SOL    HW2 2701   0.987   2.007   3.306
  891SOL     OW 2702   0.980   2.978   3.581
  891SOL    HW1 2703   0.881   2.984   3.591
  891SOL    HW2 2704   1.003   2.898   3.525
  892SOL     OW 2705   0.705   2.912   2.230
  892SOL    HW1 2706   0.691   2.919   2.329
  892SOL    HW2 2707   0.789   2.861   2.212
  893SOL     OW 2708   0.410   2.675   3.113
  893SOL    HW1 2709   0.496   2.687   3.163
  893SOL    HW2 2710   0.368   2.588   3.140
  894SOL     OW 2711   1.274   2.248   3.124
  894SOL    HW1 2712   1.295   2.322   3.188
  894SOL    HW2 2713   1.185   2.265   3.081
  895SOL     OW 2714   0.064   3.426   3.193
  895SOL    HW1 2715   0.018   3.508   3.159
  895SOL    HW2 2716   0.162   3.445   3.202
  896SOL     OW 2717   0.367   2.962   2.363
  896SOL    HW1 2718   0.360   3.045   2.307
  896SOL    HW2 2719   0.371   2.882   2.303
  897SOL     OW 2720   0.566   2.399   2.727
  897SOL    HW1 2721   0.578   2.465   2.653
  897SOL    HW2 2722   0.612   2.433   2.810
  898SOL     OW 2723   1.252   3.210   2.250
  898SOL    HW1 2724   1.302   3.287   2.290
  898SOL    HW2 2725   1.157   3.212   2.282
  899SOL     OW 2726   1.272   3.307   3.004
  899SOL    HW1 2727   1.319   3.320   3.091
  899SOL    HW2 2728   1.206   3.233   3.013
  900SOL     OW 2729   1.582   2.501   2.334
  900SOL    HW1 2730   1.551   2.562   2.407
  900SOL    HW2 2731   1.632   2.553   2.265
  901SOL     OW 2732   0.354   3.372   3.191
  901SOL    HW1 2733   0.333   3.328   3.104
  901SOL    HW2 2734   0.451   3.398   3.194
  902SOL     OW 2735   0.402   2.613   3.460
  902SOL    HW1 2736   0.470   2.668   3.413
  902SOL    HW2 2737   0.442   2.525   3.487
  903SOL     OW 2738   1.587   2.641   3.532
  903SOL    HW1 2739   1.495   2.679   3.527
  903SOL    HW2 2740   1.647   2.688   3.467
  904SOL     OW 2741   1.013   1.967   3.632
  904SOL    HW1 2742   1.019   2.052   3.580
  904SOL    HW2 2743   1.045   1.891   3.575
  905SOL     OW 2744   0.504   1.912   3.602
  905SOL    HW1 2745   0.462   1.855   3.532
  905SOL    HW2 2746   0.438   1.981   3.634
  906SOL     OW 2747   0.573   2.732   2.891
  906SOL    HW1 2748   0.617   2.821   2.882
  906SOL    HW2 2749   0.510   2.732   2.968
  907SOL     OW 2750   1.360   2.724   2.907
  907SOL    HW1 2751   1.285   2.724   2.841
  907SOL    HW2 2752   1.397   2.632   2.916
  908SOL     OW 2753   1.209   2.387   2.137
  908SOL    HW1 2754   1.222   2.303   2.191
  908SOL    HW2 2755   1.180   2.461   2.197
  909SOL     OW 2756   0.307   2.075   3.093
  909SOL    HW1 2757   0.284   2.112   3.183
  909SOL    HW2 2758   0.277   1.980   3.087
  910SOL     OW 2759   0.037   3.172   3.144
  910SOL    HW1 2760   0.090   3.123   3.212
  910SOL    HW2 2761   0.059   3.270   3.149
  911SOL     OW 2762   0.732   2.496   2.926
  911SOL    HW1 2763   0.791   2.470   2.850
  911SOL    HW2 2764   0.704   2.592   2.915
  912SOL     OW 2765   1.728   2.797   3.716
  912SOL    HW1 2766   1.682   2.790   3.627
  912SOL    HW2 2767   1.666   2.841   3.782
  913SOL     OW 2768   0.307   1.925   2.480
  913SOL    HW1 2769   0.296   2.019   2.513
  913SOL    HW2 2770   0.302   1.862   2.557
  914SOL     OW 2771   1.622   2.229   2.236
  914SOL    HW1 2772   1.624   2.153   2.300
  914SOL    HW2 2773   1.574   2.306   2.276
  915SOL     OW 2774   1.023   2.628   2.828
  915SOL    HW1 2775   1.038   2.649   2.924
  915SOL    HW2 2776   0.993   2.533   2.819
  916SOL     OW 2777   0.980   3.435   3.562
  916SOL    HW1 2778   0.960   3.479   3.474
  916SOL    HW2 2779   1.019   3.344   3.546
  917SOL     OW 2780   1.859   3.380   3.467
  917SOL    HW1 2781   1.873   3.407   3.372
  917SOL    HW2 2782   1.942   3.402   3.520
  918SOL     OW 2783   0.350   2.760   3.666
  918SOL    HW1 2784   0.426   2.804   3.714
  918SOL    HW2 2785   0.385   2.713   3.584
  919SOL     OW 2786   1.540   2.136   1.987
  919SOL    HW1 2787   1.479   2.061   2.010
  919SOL    HW2 2788   1.562   2.188   2.070
  920SOL     OW 2789   1.303   2.700   1.904
  920SOL    HW1 2790   1.337   2.607   1.919
  920SOL    HW2 2791   1.321   2.727   1.809
  921SOL     OW 2792   1.068   3.195   2.711
  921SOL    HW1 2793   1.075   3.111   2.656
  921SOL    HW2 2794   1.130   3.264   2.675
  922SOL     OW 2795   0.319   2.672   2.811
  922SOL    HW1 2796   0.412   2.708   2.816
  922SOL    HW2 2797   0.313   2.587   2.863
  923SOL     OW 2798   0.339   2.371   2.868
  923SOL    HW1 2799   0.287   2.288   2.851
  923SOL    HW2 2800   0.416   2.376   2.804
  924SOL     OW 2801   1.138   2.242   3.540
  924SOL    HW1 2802   1.093   2.305   3.604
  924SOL    HW2 2803   1.231   2.273   3.523
  925SOL     OW 2804   1.160   2.069   3.339
  925SOL    HW1 2805   1.160   2.133   3.416
  925SOL    HW2 2806   1.188   2.117   3.256
  926SOL     OW 2807   0.008   3.188   2.062
  926SOL    HW1 2808  -0.085   3.209   2.031
  926SOL    HW2 2809   0.018   3.089   2.075
  927SOL     OW 2810   0.088   3.663   2.789
  927SOL    HW1 2811   0.046   3.577   2.762
  927SOL    HW2 2812   0.182   3.666   2.755
  928SOL     OW 2813   0.504   3.430   2.772
  928SOL    HW1 2814   0.570   3.504   2.781
  928SOL    HW2 2815   0.548   3.351   2.730
  929SOL     OW 2816   1.002   2.658   3.100
  929SOL    HW1 2817   1.043   2.626   3.186
  929SOL    HW2 2818   0.906   2.631   3.097
  930SOL     OW 2819   0.040   2.406   2.976
  930SOL    HW1 2820   0.125   2.373   2.935
  930SOL    HW2 2821   0.053   2.421   3.074
  931SOL     OW 2822   0.189   2.382   3.584
  931SOL    HW1 2823   0.248   2.342   3.514
  931SOL    HW2 2824   0.131   2.453   3.543
  932SOL     OW 2825   1.369   2.812   3.522
  932SOL    HW1 2826   1.408   2.901   3.542
  932SOL    HW2 2827   1.379   2.792   3.425
  933SOL     OW 2828   0.815   2.434   2.187
  933SOL    HW1 2829   0.822   2.345   2.141
  933SOL    HW2 2830   0.721   2.468   2.179
  934SOL     OW 2831   1.657   2.466   3.068
  934SOL    HW1 2832   1.619   2.397   3.130
  934SOL    HW2 2833   1.739   2.430   3.024
  935SOL     OW 2834   0.252   3.426   3.606
  935SOL    HW1 2835   0.222   3.483   3.682
  935SOL    HW2 2836   0.245   3.329   3.632
  936SOL     OW 2837   0.671   2.326   3.131
  936SOL    HW1 2838   0.637   2.237   3.101
  936SOL    HW2 2839   0.697   2.380   3.051
  937SOL     OW 2840   0.930   3.540   3.327
  937SOL    HW1 2841   0.906   3.522   3.232
  937SOL    HW2 2842   0.960   3.634   3.337
  938SOL     OW 2843   0.473   2.362   2.053
  938SOL    HW1 2844   0.534   2.442   2.057
  938SOL    HW2 2845   0.378   2.393   2.060
  939SOL     OW 2846   0.159   2.999   3.328
  939SOL    HW1 2847   0.181   2.938   3.404
  939SOL    HW2 2848   0.169   2.950   3.242
  940SOL     OW 2849   1.347   2.921   3.096
  940SOL    HW1 2850   1.371   2.858   3.022
  940SOL    HW2 2851   1.257   2.961   3.078
  941SOL     OW 2852   1.302   2.717   2.171
  941SOL    HW1 2853   1.216   2.686   2.213
  941SOL    HW2 2854   1.298   2.703   2.072
  942SOL     OW 2855   1.759   3.609   3.016
  942SOL    HW1 2856   1.820   3.639   2.943
  942SOL    HW2 2857   1.721   3.520   2.994
  943SOL     OW 2858   1.252   3.593   2.990
  943SOL    HW1 2859   1.336   3.598   2.936
  943SOL    HW2 2860   1.229   3.497   3.008
  944SOL     OW 2861   0.083   3.120   2.884
  944SOL    HW1 2862   0.078   3.119   2.984
  944SOL    HW2 2863   0.000   3.079   2.846
  945SOL     OW 2864   0.688   3.524   3.578
  945SOL    HW1 2865   0.632   3.605   3.587
  945SOL    HW2 2866   0.740   3.528   3.492
  946SOL     OW 2867   1.726   1.997   2.385
  946SOL    HW1 2868   1.799   1.980   2.318
  946SOL    HW2 2869   1.695   1.910   2.423
  947SOL     OW 2870   1.388   3.435   2.339
  947SOL    HW1 2871   1.455   3.447   2.265
  947SOL    HW2 2872   1.348   3.524   2.362
  948SOL     OW 2873   0.130   3.656   3.713
  948SOL    HW1 2874   0.089   3.582   3.766
  948SOL    HW2 2875   0.194   3.707   3.771
  949SOL     OW 2876   1.280   2.789   2.534
  949SOL    HW1 2877   1.340   2.708   2.536
  949SOL    HW2 2878   1.320   2.858   2.474
  950SOL     OW 2879   0.830   3.135   3.284
  950SOL    HW1 2880   0.825   3.168   3.379
  950SOL    HW2 2881   0.744   3.154   3.238
  951SOL     OW 2882   0.672   3.478   2.016
  951SOL    HW1 2883   0.681   3.488   1.917
  951SOL    HW2 2884   0.632   3.389   2.037
  952SOL     OW 2885   1.650   3.582   3.256
  952SOL    HW1 2886   1.703   3.592   3.172
  952SOL    HW2 2887   1.623   3.672   3.290
  953SOL     OW 2888   1.841   2.037   2.825
  953SOL    HW1 2889   1.880   1.952   2.789
  953SOL    HW2 2890   1.743   2.039   2.806
  954SOL     OW 2891   0.263   2.188   2.582
  954SOL    HW1 2892   0.184   2.239   2.548
  954SOL    HW2 2893   0.254   2.173   2.680
  955SOL     OW 2894   1.194   3.474   1.893
  955SOL    HW1 2895   1.200   3.381   1.930
  955SOL    HW2 2896   1.135   3.474   1.813
  956SOL     OW 2897   0.822   2.864   3.234
  956SOL    HW1 2898   0.862   2.863   3.142
  956SOL    HW2 2899   0.832   2.956   3.274
  957SOL     OW 2900   0.916   2.772   2.153
  957SOL    HW1 2901   0.979   2.810   2.085
  957SOL    HW2 2902   0.956   2.689   2.192
  958SOL     OW 2903   1.504   3.469   1.906
  958SOL    HW1 2904   1.412   3.506   1.913
  958SOL    HW2 2905   1.542   3.489   1.816
  959SOL     OW 2906   0.372   3.150   3.352
  959SOL    HW1 2907   0.359   3.243   3.318
  959SOL    HW2 2908   0.288   3.098   3.339
  960SOL     OW 2909   1.614   3.154   3.151
  960SOL    HW1 2910   1.674   3.157   3.231
  960SOL    HW2 2911   1.539   3.218   3.164
  961SOL     OW 2912   1.039   2.960   2.558
  961SOL    HW1 2913   0.969   2.913   2.612
  961SOL    HW2 2914   1.098   2.892   2.515
  962SOL     OW 2915   1.014   2.098   2.833
  962SOL    HW1 2916   1.006   2.062   2.740
  962SOL    HW2 2917   1.012   2.022   2.898
  963SOL     OW 2918   0.590   3.349   2.353
  963SOL    HW1 2919   0.632   3.291   2.283
  963SOL    HW2 2920   0.546   3.428   2.309
  964SOL     OW 2921   1.709   2.247   3.243
  964SOL    HW1 2922   1.782   2.316   3.247
  964SOL    HW2 2923   1.737   2.172   3.184
  965SOL     OW 2924   0.255   3.210   2.152
  965SOL    HW1 2925   0.159   3.211   2.125
  965SOL    HW2 2926   0.267   3.263   2.236
  966SOL     OW 2927   0.105   2.875   3.588
  966SOL    HW1 2928   0.028   2.842   3.642
  966SOL    HW2 2929   0.190   2.845   3.630
  967SOL     OW 2930   0.672   2.065   3.351
  967SOL    HW1 2931   0.762   2.049   3.311
  967SOL    HW2 2932   0.680   2.070   3.450
  968SOL     OW 2933   0.075   2.207   1.895
  968SOL    HW1 2934  -0.017   2.179   1.866
  968SOL    HW2 2935   0.106   2.284   1.839
  969SOL     OW 2936   1.440   2.718   3.260
  969SOL    HW1 2937   1.383   2.770   3.197
  969SOL    HW2 2938   1.536   2.730   3.236
  970SOL     OW 2939   0.072   2.028   2.180
  970SOL    HW1 2940   0.055   2.111   2.126
  970SOL    HW2 2941   0.162   1.991   2.158
  971SOL     OW 2942   1.183   3.197   1.981
  971SOL    HW1 2943   1.084   3.186   1.983
  971SOL    HW2 2944   1.217   3.212   2.074
  972SOL     OW 2945   0.613   2.704   3.293
  972SOL    HW1 2946   0.669   2.785   3.276
  972SOL    HW2 2947   0.672   2.624   3.296
  973SOL     OW 2948   1.493   3.629   2.821
  973SOL    HW1 2949   1.526   3.693   2.752
  973SOL    HW2 2950   1.559   3.623   2.896
  974SOL     OW 2951   0.716   2.427   3.570
  974SOL    HW1 2952   0.735   2.492   3.644
  974SOL    HW2 2953   0.776   2.347   3.579
  975SOL     OW 2954   1.450   3.082   3.495
  975SOL    HW1 2955   1.441   3.072   3.594
  975SOL    HW2 2956   1.546   3.075   3.469
  976SOL     OW 2957   0.390   3.603   3.422
  976SOL    HW1 2958   0.299   3.644   3.420
  976SOL    HW2 2959   0.383   3.509   3.454
  977SOL     OW 2960   1.674   2.745   3.116
  977SOL    HW1 2961   1.647   2.656   3.079
  977SOL    HW2 2962   1.675   2.813   3.043
  978SOL     OW 2963   1.225   2.187   2.311
  978SOL    HW1 2964   1.290   2.113   2.300
  978SOL    HW2 2965   1.245   2.237   2.395
  979SOL     OW 2966   0.594   2.607   2.514
  979SOL    HW1 2967   0.644   2.692   2.495
  979SOL    HW2 2968   0.506   2.609   2.466
  980SOL     OW 2969   1.777   2.204   3.504
  980SOL    HW1 2970   1.760   2.235   3.410
  980SOL    HW2 2971   1.693   2.167   3.542
  981SOL     OW 2972   1.730   2.796   3.379
  981SOL    HW1 2973   1.768   2.887   3.394
  981SOL    HW2 2974   1.722   2.779   3.280
  982SOL     OW 2975   0.859   3.236   1.878
  982SOL    HW1 2976   0.813   3.251   1.966
  982SOL    HW2 2977   0.903   3.321   1.848
  983SOL     OW 2978   0.661   3.652   2.815
  983SOL    HW1 2979   0.615   3.740   2.802
  983SOL    HW2 2980   0.760   3.664   2.808
  984SOL     OW 2981   0.859   2.818   2.723
  984SOL    HW1 2982   0.913   2.749   2.771
  984SOL    HW2 2983   0.827   2.887   2.789
  985SOL     OW 2984   1.083   2.846   1.949
  985SOL    HW1 2985   1.060   2.899   1.867
  985SOL    HW2 2986   1.164   2.790   1.930
  986SOL     OW 2987   1.861   3.431   2.713
  986SOL    HW1 2988   1.790   3.419   2.643
  986SOL    HW2 2989   1.862   3.352   2.773
  987SOL     OW 2990   0.221   3.176   3.706
  987SOL    HW1 2991   0.156   3.103   3.685
  987SOL    HW2 2992   0.225   3.190   3.804
  988SOL     OW 2993   0.079   3.102   2.515
  988SOL    HW1 2994   0.078   3.055   2.603
  988SOL    HW2 2995   0.161   3.074   2.464
  989SOL     OW 2996   0.672   3.253   3.486
  989SOL    HW1 2997   0.594   3.203   3.524
  989SOL    HW2 2998   0.669   3.348   3.517
  990SOL     OW 2999   1.824   2.054   3.089
  990SOL    HW1 3000   1.820   1.964   3.133
  990SOL    HW2 3001   1.827   2.043   2.990
  991SOL     OW 3002   0.428   2.286   2.382
  991SOL    HW1 3003   0.458   2.214   2.320
  991SOL    HW2 3004   0.389   2.246   2.465
  992SOL     OW 3005   1.705   3.349   2.966
  992SOL    HW1 3006   1.612   3.324   2.939
  992SOL    HW2 3007   1.731   3.299   3.048
  993SOL     OW 3008   0.317   2.409   3.142
  993SOL    HW1 3009   0.355   2.350   3.214
  993SOL    HW2 3010   0.357   2.383   3.054
  994SOL     OW 3011   0.812   3.448   2.549
  994SOL    HW1 3012   0.844   3.458   2.455
  994SOL    HW2 3013   0.733   3.386   2.551
  995SOL     OW 3014   1.424   2.076   2.974
  995SOL    HW1 3015   1.476   2.011   3.029
  995SOL    HW2 3016   1.375   2.139   3.035
  996SOL     OW 3017   1.001   1.896   3.016
  996SOL    HW1 3018   0.938   1.824   2.985
  996SOL    HW2 3019   1.094   1.860   3.016
  997SOL     OW 3020   0.770   3.192   2.163
  997SOL    HW1 3021   0.724   3.105   2.180
  997SOL    HW2 3022   0.861   3.189   2.204
  998SOL     OW 3023   0.618   3.429   3.146
  998SOL    HW1 3024   0.613   3.511   3.203
  998SOL    HW2 3025   0.707   3.426   3.101
  999SOL     OW 3026   1.352   1.914   2.030
  999SOL    HW1 3027   1.387   1.873   1.946
  999SOL    HW2 3028   1.262   1.876   2.050
 1000SOL     OW 3029   1.300   2.315   2.553
 1000SOL    HW1 3030   1.241   2.395   2.557
 1000SOL    HW2 3031   1.315   2.280   2.646
 1001SOL     OW 3032   1.593   2.083   2.744
 1001SOL    HW1 3033   1.509   2.082   2.798
 1001SOL    HW2 3034   1.595   2.166   2.688
 1002SOL     OW 3035   0.039   2.939   2.162
 1002SOL    HW1 3036   0.138   2.928   2.153
 1002SOL    HW2 3037  -0.001   2.853   2.194
 1003SOL     OW 3038   0.875   3.508   2.199
 1003SOL    HW1 3039   0.798   3.473   2.145
 1003SOL    HW2 3040   0.843   3.579   2.261
 1004SOL     OW 3041   0.230   2.490   3.837
 1004SOL    HW1 3042   0.137   2.488   3.874
 1004SOL    HW2 3043   0.231   2.451   3.745
 1005SOL     OW 3044   0.225   2.137   4.720
 1005SOL    HW1 3045   0.260   2.120   4.812
 1005SOL    HW2 3046   0.137   2.092   4.708
 1006SOL     OW 3047   0.019   2.230   4.371
 1006SOL    HW1 3048  -0.063   2.273   4.410
 1006SOL    HW2 3049  -0.009   2.157   4.308
 1007SOL     OW 3050   0.569   3.137   4.889
 1007SOL    HW1 3051   0.476   3.130   4.852
 1007SOL    HW2 3052   0.580   3.226   4.933
 1008SOL     OW 3053   1.555   3.373   4.427
 1008SOL    HW1 3054   1.498   3.357   4.508
 1008SOL    HW2 3055   1.496   3.383   4.347
 1009SOL     OW 3056   1.135   2.565   4.441
 1009SOL    HW1 3057   1.192   2.643   4.416
 1009SOL    HW2 3058   1.075   2.591   4.517
 1010SOL     OW 3059   1.755   2.469   3.955
 1010SOL    HW1 3060   1.743   2.456   3.856
 1010SOL    HW2 3061   1.725   2.388   4.004
 1011SOL     OW 3062   0.768   3.006   4.747
 1011SOL    HW1 3063   0.690   3.023   4.807
 1011SOL    HW2 3064   0.802   3.093   4.711
 1012SOL     OW 3065   0.685   2.874   4.389
 1012SOL    HW1 3066   0.754   2.858   4.459
 1012SOL    HW2 3067   0.612   2.931   4.427
 1013SOL     OW 3068   0.335   3.297   4.785
 1013SOL    HW1 3069   0.257   3.266   4.732
 1013SOL    HW2 3070   0.393   3.355   4.728
 1014SOL     OW 3071   1.603   2.309   4.461
 1014SOL    HW1 3072   1.529   2.355   4.411
 1014SOL    HW2 3073   1.654   2.377   4.514
 1015SOL     OW 3074   0.231   3.575   4.207
 1015SOL    HW1 3075   0.265   3.652   4.261
 1015SOL    HW2 3076   0.275   3.575   4.117
 1016SOL     OW 3077   0.230   3.296   4.262
 1016SOL    HW1 3078   0.204   3.392   4.262
 1016SOL    HW2 3079   0.159   3.242   4.307
 1017SOL     OW 3080   0.240   2.953   4.610
 1017SOL    HW1 3081   0.254   2.869   4.662
 1017SOL    HW2 3082   0.185   3.017   4.665
 1018SOL     OW 3083   0.606   2.826   3.847
 1018SOL    HW1 3084   0.613   2.910   3.793
 1018SOL    HW2 3085   0.652   2.839   3.935
 1019SOL     OW 3086   0.122   2.505   4.287
 1019SOL    HW1 3087   0.077   2.417   4.304
 1019SOL    HW2 3088   0.121   2.559   4.371
 1020SOL     OW 3089   1.842   3.629   4.083
 1020SOL    HW1 3090   1.896   3.600   4.163
 1020SOL    HW2 3091   1.872   3.719   4.054
 1021SOL     OW 3092   0.027   3.458   3.841
 1021SOL    HW1 3093   0.008   3.362   3.862
 1021SOL    HW2 3094  -0.006   3.516   3.916
 1022SOL     OW 3095   1.689   2.784   4.336
 1022SOL    HW1 3096   1.784   2.755   4.344
 1022SOL    HW2 3097   1.681   2.849   4.261
 1023SOL     OW 3098   1.641   2.970   4.156
 1023SOL    HW1 3099   1.727   2.972   4.104
 1023SOL    HW2 3100   1.655   3.017   4.244
 1024SOL     OW 3101   0.613   3.227   4.450
 1024SOL    HW1 3102   0.564   3.140   4.459
 1024SOL    HW2 3103   0.590   3.270   4.363
 1025SOL     OW 3104   0.809   1.866   4.226
 1025SOL    HW1 3105   0.849   1.957   4.217
 1025SOL    HW2 3106   0.709   1.874   4.232
 1026SOL     OW 3107   0.197   2.838   4.988
 1026SOL    HW1 3108   0.286   2.793   4.974
 1026SOL    HW2 3109   0.124   2.773   4.969
 1027SOL     OW 3110   1.525   2.861   3.914
 1027SOL    HW1 3111   1.462   2.785   3.927
 1027SOL    HW2 3112   1.573   2.879   4.000
 1028SOL     OW 3113   1.466   3.279   4.677
 1028SOL    HW1 3114   1.407   3.285   4.757
 1028SOL    HW2 3115   1.451   3.191   4.631
 1029SOL     OW 3116   1.667   3.576   4.296
 1029SOL    HW1 3117   1.626   3.553   4.208
 1029SOL    HW2 3118   1.649   3.502   4.361
 1030SOL     OW 3119   0.598   2.591   3.994
 1030SOL    HW1 3120   0.622   2.660   3.926
 1030SOL    HW2 3121   0.520   2.624   4.048
 1031SOL     OW 3122   1.281   2.207   4.668
 1031SOL    HW1 3123   1.195   2.157   4.655
 1031SOL    HW2 3124   1.343   2.153   4.724
 1032SOL     OW 3125   1.576   3.524   4.031
 1032SOL    HW1 3126   1.665   3.570   4.034
 1032SOL    HW2 3127   1.555   3.500   3.936
 1033SOL     OW 3128   0.991   2.272   4.966
 1033SOL    HW1 3129   0.914   2.306   5.020
 1033SOL    HW2 3130   0.957   2.221   4.887
 1034SOL     OW 3131   1.041   2.563   4.153
 1034SOL    HW1 3132   1.067   2.559   4.249
 1034SOL    HW2 3133   0.956   2.512   4.139
 1035SOL     OW 3134   0.076   2.673   4.513
 1035SOL    HW1 3135   0.175   2.661   4.522
 1035SOL    HW2 3136   0.052   2.768   4.534
 1036SOL     OW 3137   0.130   3.683   5.295
 1036SOL    HW1 3138   0.120   3.668   5.394
 1036SOL    HW2 3139   0.044   3.719   5.259
 1037SOL     OW 3140   0.865   2.210   3.919
 1037SOL    HW1 3141   0.924   2.273   3.870
 1037SOL    HW2 3142   0.884   2.116   3.890
 1038SOL     OW 3143   1.362   3.006   4.269
 1038SOL    HW1 3144   1.445   2.977   4.221
 1038SOL    HW2 3145   1.313   3.073   4.213
 1039SOL     OW 3146   0.550   2.058   4.609
 1039SOL    HW1 3147   0.545   2.053   4.709
 1039SOL    HW2 3148   0.552   2.154   4.580
 1040SOL     OW 3149   1.008   3.318   4.201
 1040SOL    HW1 3150   0.962   3.390   4.149
 1040SOL    HW2 3151   1.004   3.338   4.299
 1041SOL     OW 3152   0.351   3.663   4.577
 1041SOL    HW1 3153   0.401   3.577   4.583
 1041SOL    HW2 3154   0.416   3.740   4.574
 1042SOL     OW 3155   1.795   2.928   4.597
 1042SOL    HW1 3156   1.733   2.913   4.521
 1042SOL    HW2 3157   1.743   2.939   4.682
 1043SOL     OW 3158   0.321   2.805   3.966
 1043SOL    HW1 3159   0.403   2.844   3.924
 1043SOL    HW2 3160   0.294   2.723   3.917
 1044SOL     OW 3161   1.458   2.597   4.452
 1044SOL    HW1 3162   1.453   2.532   4.527
 1044SOL    HW2 3163   1.538   2.656   4.465
 1045SOL     OW 3164   1.111   3.638   3.961
 1045SOL    HW1 3165   1.051   3.576   4.011
 1045SOL    HW2 3166   1.142   3.594   3.876
 1046SOL     OW 3167   1.632   3.239   3.805
 1046SOL    HW1 3168   1.600   3.333   3.795
 1046SOL    HW2 3169   1.556   3.176   3.793
 1047SOL     OW 3170   0.464   3.605   4.047
 1047SOL    HW1 3171   0.497   3.644   4.133
 1047SOL    HW2 3172   0.540   3.598   3.982
 1048SOL     OW 3173   1.400   1.969   4.150
 1048SOL    HW1 3174   1.376   1.932   4.060
 1048SOL    HW2 3175   1.499   1.985   4.154
 1049SOL     OW 3176   0.249   3.647   4.965
 1049SOL    HW1 3177   0.306   3.582   5.015
 1049SOL    HW2 3178   0.233   3.614   4.872
 1050SOL     OW 3179   0.940   3.560   4.628
 1050SOL    HW1 3180   1.020   3.503   4.649
 1050SOL    HW2 3181   0.891   3.520   4.551
 1051SOL     OW 3182   0.382   2.562   4.204
 1051SOL    HW1 3183   0.427   2.472   4.201
 1051SOL    HW2 3184   0.288   2.551   4.237
 1052SOL     OW 3185   0.614   1.984   3.841
 1052SOL    HW1 3186   0.712   1.962   3.848
 1052SOL    HW2 3187   0.583   1.967   3.748
 1053SOL     OW 3188   0.803   3.264   4.648
 1053SOL    HW1 3189   0.893   3.278   4.606
 1053SOL    HW2 3190   0.732   3.266   4.577
 1054SOL     OW 3191   0.922   2.365   4.623
 1054SOL    HW1 3192   0.897   2.356   4.527
 1054SOL    HW2 3193   0.970   2.283   4.654
 1055SOL     OW 3194   0.539   1.926   4.236
 1055SOL    HW1 3195   0.458   1.927   4.294
 1055SOL    HW2 3196   0.542   2.009   4.181
 1056SOL     OW 3197   1.434   3.050   3.765
 1056SOL    HW1 3198   1.466   2.974   3.822
 1056SOL    HW2 3199   1.342   3.077   3.795
 1057SOL     OW 3200   0.297   1.897   3.895
 1057SOL    HW1 3201   0.346   1.981   3.874
 1057SOL    HW2 3202   0.359   1.832   3.940
 1058SOL     OW 3203   0.935   2.098   4.204
 1058SOL    HW1 3204   0.887   2.139   4.126
 1058SOL    HW2 3205   1.034   2.096   4.185
 1059SOL     OW 3206   1.227   3.432   4.517
 1059SOL    HW1 3207   1.248   3.506   4.452
 1059SOL    HW2 3208   1.295   3.432   4.590
 1060SOL     OW 3209   0.459   3.014   4.465
 1060SOL    HW1 3210   0.388   2.987   4.530
 1060SOL    HW2 3211   0.433   2.986   4.372
 1061SOL     OW 3212   1.271   3.659   4.315
 1061SOL    HW1 3213   1.315   3.723   4.251
 1061SOL    HW2 3214   1.221   3.711   4.385
 1062SOL     OW 3215   1.032   2.411   3.740
 1062SOL    HW1 3216   0.991   2.493   3.701
 1062SOL    HW2 3217   1.096   2.437   3.813
 1063SOL     OW 3218   0.561   2.084   4.871
 1063SOL    HW1 3219   0.599   2.000   4.908
 1063SOL    HW2 3220   0.473   2.103   4.915
 1064SOL     OW 3221   0.866   2.316   4.366
 1064SOL    HW1 3222   0.834   2.388   4.304
 1064SOL    HW2 3223   0.890   2.235   4.313
 1065SOL     OW 3224   1.017   1.901   4.477
 1065SOL    HW1 3225   0.945   1.906   4.408
 1065SOL    HW2 3226   0.993   1.832   4.546
 1066SOL     OW 3227   1.429   3.035   4.591
 1066SOL    HW1 3228   1.374   2.951   4.584
 1066SOL    HW2 3229   1.455   3.064   4.499
 1067SOL     OW 3230   1.466   2.452   4.716
 1067SOL    HW1 3231   1.436   2.357   4.723
 1067SOL    HW2 3232   1.539   2.468   4.782
 1068SOL     OW 3233   1.857   2.695   4.101
 1068SOL    HW1 3234   1.899   2.631   4.165
 1068SOL    HW2 3235   1.819   2.644   4.023
 1069SOL     OW 3236   0.488   3.247   3.898
 1069SOL    HW1 3237   0.401   3.232   3.945
 1069SOL    HW2 3238   0.471   3.273   3.803
 1070SOL     OW 3239   1.664   3.142   4.381
 1070SOL    HW1 3240   1.763   3.150   4.395
 1070SOL    HW2 3241   1.619   3.226   4.412
 1071SOL     OW 3242   1.390   2.437   3.802
 1071SOL    HW1 3243   1.336   2.416   3.883
 1071SOL    HW2 3244   1.481   2.396   3.811
 1072SOL     OW 3245   0.527   2.118   4.052
 1072SOL    HW1 3246   0.554   2.059   3.977
 1072SOL    HW2 3247   0.527   2.213   4.021
 1073SOL     OW 3248   1.111   3.057   4.824
 1073SOL    HW1 3249   1.071   3.101   4.905
 1073SOL    HW2 3250   1.070   3.094   4.741
 1074SOL     OW 3251   1.638   2.961   4.803
 1074SOL    HW1 3252   1.643   3.042   4.862
 1074SOL    HW2 3253   1.552   2.963   4.752
 1075SOL     OW 3254   0.705   2.912   4.092
 1075SOL    HW1 3255   0.691   2.919   4.191
 1075SOL    HW2 3256   0.789   2.861   4.074
 1076SOL     OW 3257   0.410   2.675   4.975
 1076SOL    HW1 3258   0.496   2.687   5.025
 1076SOL    HW2 3259   0.368   2.588   5.002
 1077SOL     OW 3260   1.274   2.248   4.986
 1077SOL    HW1 3261   1.295   2.322   5.050
 1077SOL    HW2 3262   1.185   2.265   4.943
 1078SOL     OW 3263   0.367   2.962   4.225
 1078SOL    HW1 3264   0.360   3.045   4.169
 1078SOL    HW2 3265   0.371   2.882   4.165
 1079SOL     OW 3266   0.566   2.399   4.589
 1079SOL    HW1 3267   0.578   2.465   4.515
 1079SOL    HW2 3268   0.612   2.433   4.672
 1080SOL     OW 3269   1.252   3.210   4.112
 1080SOL    HW1 3270   1.302   3.287   4.152
 1080SOL    HW2 3271   1.157   3.212   4.144
 1081SOL     OW 3272   1.272   3.307   4.866
 1081SOL    HW1 3273   1.319   3.320   4.953
 1081SOL    HW2 3274   1.206   3.233   4.875
 1082SOL     OW 3275   1.582   2.501   4.196
 1082SOL    HW1 3276   1.551   2.562   4.269
 1082SOL    HW2 3277   1.632   2.553   4.127
 1083SOL     OW 3278   0.354   3.372   5.053
 1083SOL    HW1 3279   0.333   3.328   4.966
 1083SOL    HW2 3280   0.451   3.398   5.056
 1084SOL     OW 3281   0.573   2.732   4.753
 1084SOL    HW1 3282   0.617   2.821   4.744
 1084SOL    HW2 3283   0.510   2.732   4.830
 1085SOL     OW 3284   1.360   2.724   4.769
 1085SOL    HW1 3285   1.285   2.724   4.703
 1085SOL    HW2 3286   1.397   2.632   4.778
 1086SOL     OW 3287   1.209   2.387   3.999
 1086SOL    HW1 3288   1.222   2.303   4.053
 1086SOL    HW2 3289   1.180   2.461   4.059
 1087SOL     OW 3290   0.307   2.075   4.955
 1087SOL    HW1 3291   0.284   2.112   5.045
 1087SOL    HW2 3292   0.277   1.980   4.949
 1088SOL     OW 3293   0.037   3.172   5.006
 1088SOL    HW1 3294   0.090   3.123   5.074
 1088SOL    HW2 3295   0.059   3.270   5.011
 1089SOL     OW 3296   0.732   2.496   4.788
 1089SOL    HW1 3297   0.791   2.470   4.712
 1089SOL    HW2 3298   0.704   2.592   4.777
 1090SOL     OW 3299   0.307   1.925   4.342
 1090SOL    HW1 3300   0.296   2.019   4.375
 1090SOL    HW2 3301   0.302   1.862   4.419
 1091SOL     OW 3302   1.622   2.229   4.098
 1091SOL    HW1 3303   1.624   2.153   4.162
 1091SOL    HW2 3304   1.574   2.306   4.138
 1092SOL     OW 3305   1.023   2.628   4.690
 1092SOL    HW1 3306   1.038   2.649   4.786
 1092SOL    HW2 3307   0.993   2.533   4.681
 1093SOL     OW 3308   1.540   2.136   3.849
 1093SOL    HW1 3309   1.479   2.061   3.872
 1093SOL    HW2 3310   1.562   2.188   3.932
 1094SOL     OW 3311   1.303   2.700   3.766
 1094SOL    HW1 3312   1.337   2.607   3.781
 1094SOL    HW2 3313   1.321   2.727   3.671
 1095SOL     OW 3314   1.068   3.195   4.573
 1095SOL    HW1 3315   1.075   3.111   4.518
 1095SOL    HW2 3316   1.130   3.264   4.537
 1096SOL     OW 3317   0.319   2.672   4.673
 1096SOL    HW1 3318   0.412   2.708   4.678
 1096SOL    HW2 3319   0.313   2.587   4.725
 1097SOL     OW 3320   0.339   2.371   4.730
 1097SOL    HW1 3321   0.287   2.288   4.713
 1097SOL    HW2 3322   0.416   2.376   4.666
 1098SOL     OW 3323   1.160   2.069   5.201
 1098SOL    HW1 3324   1.160   2.133   5.278
 1098SOL    HW2 3325   1.188   2.117   5.118
 1099SOL     OW 3326   0.008   3.188   3.924
 1099SOL    HW1 3327  -0.085   3.209   3.893
 1099SOL    HW2 3328   0.018   3.089   3.937
 1100SOL     OW 3329   0.088   3.663   4.651
 1100SOL    HW1 3330   0.046   3.577   4.624
 1100SOL    HW2 3331   0.182   3.666   4.617
 1101SOL     OW 3332   0.504   3.430   4.634
 1101SOL    HW1 3333   0.570   3.504   4.643
 1101SOL    HW2 3334   0.548   3.351   4.592
 1102SOL     OW 3335   1.002   2.658   4.962
 1102SOL    HW1 3336   1.043   2.626   5.048
 1102SOL    HW2 3337   0.906   2.631   4.959
 1103SOL     OW 3338   0.040   2.406   4.838
 1103SOL    HW1 3339   0.125   2.373   4.797
 1103SOL    HW2 3340   0.053   2.421   4.936
 1104SOL     OW 3341   0.815   2.434   4.049
 1104SOL    HW1 3342   0.822   2.345   4.003
 1104SOL    HW2 3343   0.721   2.468   4.041
 1105SOL     OW 3344   1.657   2.466   4.930
 1105SOL    HW1 3345   1.619   2.397   4.992
 1105SOL    HW2 3346   1.739   2.430   4.886
 1106SOL     OW 3347   0.671   2.326   4.993
 1106SOL    HW1 3348   0.637   2.237   4.963
 1106SOL    HW2 3349   0.697   2.380   4.913
 1107SOL     OW 3350   0.930   3.540   5.189
 1107SOL    HW1 3351   0.906   3.522   5.094
 1107SOL    HW2 3352   0.960   3.634   5.199
 1108SOL     OW 3353   0.473   2.362   3.915
 1108SOL    HW1 3354   0.534   2.442   3.919
 1108SOL    HW2 3355   0.378   2.393   3.922
 1109SOL     OW 3356   1.347   2.921   4.958
 1109SOL    HW1 3357   1.371   2.858   4.884
 1109SOL    HW2 3358   1.257   2.961   4.940
 1110SOL     OW 3359   1.302   2.717   4.033
 1110SOL    HW1 3360   1.216   2.686   4.075
 1110SOL    HW2 3361   1.298   2.703   3.934
 1111SOL     OW 3362   1.759   3.609   4.878
 1111SOL    HW1 3363   1.820   3.639   4.805
 1111SOL    HW2 3364   1.721   3.520   4.856
 1112SOL     OW 3365   1.252   3.593   4.852
 1112SOL    HW1 3366   1.336   3.598   4.798
 1112SOL    HW2 3367   1.229   3.497   4.870
 1113SOL     OW 3368   0.083   3.120   4.746
 1113SOL    HW1 3369   0.078   3.119   4.846
 1113SOL    HW2 3370   0.000   3.079   4.708
 1114SOL     OW 3371   1.726   1.997   4.247
 1114SOL    HW1 3372   1.799   1.980   4.180
 1114SOL    HW2 3373   1.695   1.910   4.285
 1115SOL     OW 3374   1.388   3.435   4.201
 1115SOL    HW1 3375   1.455   3.447   4.127
 1115SOL    HW2 3376   1.348   3.524   4.224
 1116SOL     OW 3377   1.280   2.789   4.396
 1116SOL    HW1 3378   1.340   2.708   4.398
 1116SOL    HW2 3379   1.320   2.858   4.336
 1117SOL     OW 3380   0.672   3.478   3.878
 1117SOL    HW1 3381   0.681   3.488   3.779
 1117SOL    HW2 3382   0.632   3.389   3.899
 1118SOL     OW 3383   1.650   3.582   5.118
 1118SOL    HW1 3384   1.703   3.592   5.034
 1118SOL    HW2 3385   1.623   3.672   5.152
 1119SOL     OW 3386   1.841   2.037   4.687
 1119SOL    HW1 3387   1.880   1.952   4.651
 1119SOL    HW2 3388   1.743   2.039   4.668
 1120SOL     OW 3389   0.263   2.188   4.444
 1120SOL    HW1 3390   0.184   2.239   4.410
 1120SOL    HW2 3391   0.254   2.173   4.542
 1121SOL     OW 3392   1.194   3.474   3.755
 1121SOL    HW1 3393   1.200   3.381   3.792
 1121SOL    HW2 3394   1.135   3.474   3.675
 1122SOL     OW 3395   0.822   2.864   5.096
 1122SOL    HW1 3396   0.862   2.863   5.004
 1122SOL    HW2 3397   0.832   2.956   5.136
 1123SOL     OW 3398   0.916   2.772   4.015
 1123SOL    HW1 3399   0.979   2.810   3.947
 1123SOL    HW2 3400   0.956   2.689   4.054
 1124SOL     OW 3401   1.504   3.469   3.768
 1124SOL    HW1 3402   1.412   3.506   3.775
 1124SOL    HW2 3403   1.542   3.489   3.678
 1125SOL     OW 3404   1.039   2.960   4.420
 1125SOL    HW1 3405   0.969   2.913   4.474
 1125SOL    HW2 3406   1.098   2.892   4.377
 1126SOL     OW 3407   1.014   2.098   4.695
 1126SOL    HW1 3408   1.006   2.062   4.602
 1126SOL    HW2 3409   1.012   2.022   4.760
 1127SOL     OW 3410   0.590   3.349   4.215
 1127SOL    HW1 3411   0.632   3.291   4.145
 1127SOL    HW2 3412   0.546   3.428   4.171
 1128SOL     OW 3413   1.709   2.247   5.105
 1128SOL    HW1 3414   1.782   2.316   5.109
 1128SOL    HW2 3415   1.737   2.172   5.046
 1129SOL     OW 3416   0.255   3.210   4.014
 1129SOL    HW1 3417   0.159   3.211   3.987
 1129SOL    HW2 3418   0.267   3.263   4.098
 1130SOL     OW 3419   0.075   2.207   3.757
 1130SOL    HW1 3420  -0.017   2.179   3.728
 1130SOL    HW2 3421   0.106   2.284   3.701
 1131SOL     OW 3422   0.072   2.028   4.042
 1131SOL    HW1 3423   0.055   2.111   3.988
 1131SOL    HW2 3424   0.162   1.991   4.020
 1132SOL     OW 3425   1.183   3.197   3.843
 1132SOL    HW1 3426   1.084   3.186   3.845
 1132SOL    HW2 3427   1.217   3.212   3.936
 1133SOL     OW 3428   1.493   3.629   4.683
 1133SOL    HW1 3429   1.526   3.693   4.614
 1133SOL    HW2 3430   1.559   3.623   4.758
 1134SOL     OW 3431   1.674   2.745   4.978
 1134SOL    HW1 3432   1.647   2.656   4.941
 1134SOL    HW2 3433   1.675   2.813   4.905
 1135SOL     OW 3434   1.225   2.187   4.173
 1135SOL    HW1 3435   1.290   2.113   4.162
 1135SOL    HW2 3436   1.245   2.237   4.257
 1136SOL     OW 3437   0.594   2.607   4.376
 1136SOL    HW1 3438   0.644   2.692   4.357
 1136SOL    HW2 3439   0.506   2.609   4.328
 1137SOL     OW 3440   1.730   2.796   5.241
 1137SOL    HW1 3441   1.768   2.887   5.256
 1137SOL    HW2 3442   1.722   2.779   5.142
 1138SOL     OW 3443   0.859   3.236   3.740
 1138SOL    HW1 3444   0.813   3.251   3.828
 1138SOL    HW2 3445   0.903   3.321   3.710
 1139SOL     OW 3446   0.661   3.652   4.677
 1139SOL    HW1 3447   0.615   3.740   4.664
 1139SOL    HW2 3448   0.760   3.664   4.670
 1140SOL     OW 3449   0.859   2.818   4.585
 1140SOL    HW1 3450   0.913   2.749   4.633
 1140SOL    HW2 3451   0.827   2.887   4.651
 1141SOL     OW 3452   1.083   2.846   3.811
 1141SOL    HW1 3453   1.060   2.899   3.729
 1141SOL    HW2 3454   1.164   2.790   3.792
 1142SOL     OW 3455   1.861   3.431   4.575
 1142SOL    HW1 3456   1.790   3.419   4.505
 1142SOL    HW2 3457   1.862   3.352   4.635
 1143SOL     OW 3458   0.079   3.102   4.377
 1143SOL    HW1 3459   0.078   3.055   4.465
 1143SOL    HW2 3460   0.161   3.074   4.326
 1144SOL     OW 3461   1.824   2.054   4.951
 1144SOL    HW1 3462   1.820   1.964   4.995
 1144SOL    HW2 3463   1.827   2.043   4.852
 1145SOL     OW 3464   0.428   2.286   4.244
 1145SOL    HW1 3465   0.458   2.214   4.182
 1145SOL    HW2 3466   0.389   2.246   4.327
 1146SOL     OW 3467   1.705   3.349   4.828
 1146SOL    HW1 3468   1.612   3.324   4.801
 1146SOL    HW2 3469   1.731   3.299   4.910
 1147SOL     OW 3470   0.812   3.448   4.411
 1147SOL    HW1 3471   0.844   3.458   4.317
 1147SOL    HW2 3472   0.733   3.386   4.413
 1148SOL     OW 3473   1.424   2.076   4.836
 1148SOL    HW1 3474   1.476   2.011   4.891
 1148SOL    HW2 3475   1.375   2.139   4.897
 1149SOL     OW 3476   1.001   1.896   4.878
 1149SOL    HW1 3477   0.938   1.824   4.847
 1149SOL    HW2 3478   1.094   1.860   4.878
 1150SOL     OW 3479   0.770   3.192   4.025
 1150SOL    HW1 3480   0.724   3.105   4.042
 1150SOL    HW2 3481   0.861   3.189   4.066
 1151SOL     OW 3482   1.352   1.914   3.892
 1151SOL    HW1 3483   1.387   1.873   3.808
 1151SOL    HW2 3484   1.262   1.876   3.912
 1152SOL     OW 3485   1.300   2.315   4.415
 1152SOL    HW1 3486   1.241   2.395   4.419
 1152SOL    HW2 3487   1.315   2.280   4.508
 1153SOL     OW 3488   1.593   2.083   4.606
 1153SOL    HW1 3489   1.509   2.082   4.660
 1153SOL    HW2 3490   1.595   2.166   4.550
 1154SOL     OW 3491   0.039   2.939   4.024
 1154SOL    HW1 3492   0.138   2.928   4.015
 1154SOL    HW2 3493  -0.001   2.853   4.056
 1155SOL     OW 3494   0.875   3.508   4.061
 1155SOL    HW1 3495   0.798   3.473   4.007
 1155SOL    HW2 3496   0.843   3.579   4.123
 1156SOL     OW 3497   0.230   4.352   0.113
 1156SOL    HW1 3498   0.137   4.350   0.150
 1156SOL    HW2 3499   0.231   4.313   0.021
 1157SOL     OW 3500   0.225   3.999   0.996
 1157SOL    HW1 3501   0.260   3.982   1.088
 1157SOL    HW2 3502   0.137   3.954   0.984
 1158SOL     OW 3503   0.019   4.092   0.647
 1158SOL    HW1 3504  -0.063   4.135   0.686
 1158SOL    HW2 3505  -0.009   4.019   0.584
 1159SOL     OW 3506   1.135   4.427   0.717
 1159SOL    HW1 3507   1.192   4.505   0.692
 1159SOL    HW2 3508   1.075   4.453   0.793
 1160SOL     OW 3509   1.755   4.331   0.231
 1160SOL    HW1 3510   1.743   4.318   0.132
 1160SOL    HW2 3511   1.725   4.250   0.280
 1161SOL     OW 3512   0.768   4.868   1.023
 1161SOL    HW1 3513   0.690   4.885   1.083
 1161SOL    HW2 3514   0.802   4.955   0.987
 1162SOL     OW 3515   0.850   4.522   1.823
 1162SOL    HW1 3516   0.846   4.598   1.888
 1162SOL    HW2 3517   0.872   4.558   1.732
 1163SOL     OW 3518   0.685   4.736   0.665
 1163SOL    HW1 3519   0.754   4.720   0.735
 1163SOL    HW2 3520   0.612   4.793   0.703
 1164SOL     OW 3521   0.686   4.885   1.803
 1164SOL    HW1 3522   0.746   4.964   1.817
 1164SOL    HW2 3523   0.600   4.916   1.762
 1165SOL     OW 3524   0.335   5.159   1.061
 1165SOL    HW1 3525   0.257   5.128   1.008
 1165SOL    HW2 3526   0.393   5.217   1.004
 1166SOL     OW 3527   0.438   4.116   1.499
 1166SOL    HW1 3528   0.520   4.060   1.508
 1166SOL    HW2 3529   0.357   4.058   1.503
 1167SOL     OW 3530   1.603   4.171   0.737
 1167SOL    HW1 3531   1.529   4.217   0.687
 1167SOL    HW2 3532   1.654   4.239   0.790
 1168SOL     OW 3533   0.240   4.815   0.886
 1168SOL    HW1 3534   0.254   4.731   0.938
 1168SOL    HW2 3535   0.185   4.879   0.941
 1169SOL     OW 3536   0.606   4.688   0.123
 1169SOL    HW1 3537   0.613   4.772   0.069
 1169SOL    HW2 3538   0.652   4.701   0.211
 1170SOL     OW 3539   1.594   3.838   1.480
 1170SOL    HW1 3540   1.576   3.905   1.408
 1170SOL    HW2 3541   1.591   3.884   1.569
 1171SOL     OW 3542   0.122   4.367   0.563
 1171SOL    HW1 3543   0.077   4.279   0.580
 1171SOL    HW2 3544   0.121   4.421   0.647
 1172SOL     OW 3545   1.689   4.646   0.612
 1172SOL    HW1 3546   1.784   4.617   0.620
 1172SOL    HW2 3547   1.681   4.711   0.537
 1173SOL     OW 3548   1.641   4.832   0.432
 1173SOL    HW1 3549   1.727   4.834   0.380
 1173SOL    HW2 3550   1.655   4.879   0.520
 1174SOL     OW 3551   0.113   4.461   1.597
 1174SOL    HW1 3552   0.201   4.448   1.642
 1174SOL    HW2 3553   0.100   4.558   1.575
 1175SOL     OW 3554   1.293   4.952   1.423
 1175SOL    HW1 3555   1.330   4.879   1.365
 1175SOL    HW2 3556   1.345   4.957   1.508
 1176SOL     OW 3557   0.809   3.728   0.502
 1176SOL    HW1 3558   0.849   3.819   0.493
 1176SOL    HW2 3559   0.709   3.736   0.508
 1177SOL     OW 3560   0.197   4.700   1.264
 1177SOL    HW1 3561   0.286   4.655   1.250
 1177SOL    HW2 3562   0.124   4.635   1.245
 1178SOL     OW 3563   1.525   4.723   0.190
 1178SOL    HW1 3564   1.462   4.647   0.203
 1178SOL    HW2 3565   1.573   4.741   0.276
 1179SOL     OW 3566   0.317   3.975   1.801
 1179SOL    HW1 3567   0.388   4.046   1.807
 1179SOL    HW2 3568   0.229   4.014   1.829
 1180SOL     OW 3569   0.598   4.453   0.270
 1180SOL    HW1 3570   0.622   4.522   0.202
 1180SOL    HW2 3571   0.520   4.486   0.324
 1181SOL     OW 3572   1.281   4.069   0.944
 1181SOL    HW1 3573   1.195   4.019   0.931
 1181SOL    HW2 3574   1.343   4.015   1.000
 1182SOL     OW 3575   0.807   4.329   1.465
 1182SOL    HW1 3576   0.760   4.326   1.554
 1182SOL    HW2 3577   0.756   4.274   1.399
 1183SOL     OW 3578   1.394   4.193   1.674
 1183SOL    HW1 3579   1.374   4.236   1.762
 1183SOL    HW2 3580   1.472   4.131   1.683
 1184SOL     OW 3581   0.973   4.614   1.572
 1184SOL    HW1 3582   1.019   4.530   1.543
 1184SOL    HW2 3583   0.917   4.648   1.497
 1185SOL     OW 3584   0.991   4.134   1.242
 1185SOL    HW1 3585   0.914   4.168   1.296
 1185SOL    HW2 3586   0.957   4.083   1.163
 1186SOL     OW 3587   1.041   4.425   0.429
 1186SOL    HW1 3588   1.067   4.421   0.525
 1186SOL    HW2 3589   0.956   4.374   0.415
 1187SOL     OW 3590   0.076   4.535   0.789
 1187SOL    HW1 3591   0.175   4.523   0.798
 1187SOL    HW2 3592   0.052   4.630   0.810
 1188SOL     OW 3593   0.865   4.072   0.195
 1188SOL    HW1 3594   0.924   4.135   0.146
 1188SOL    HW2 3595   0.884   3.978   0.166
 1189SOL     OW 3596   1.719   4.309   1.831
 1189SOL    HW1 3597   1.693   4.398   1.795
 1189SOL    HW2 3598   1.717   4.241   1.758
 1190SOL     OW 3599   1.362   4.868   0.545
 1190SOL    HW1 3600   1.445   4.839   0.497
 1190SOL    HW2 3601   1.313   4.935   0.489
 1191SOL     OW 3602   0.550   3.920   0.885
 1191SOL    HW1 3603   0.545   3.915   0.985
 1191SOL    HW2 3604   0.552   4.016   0.856
 1192SOL     OW 3605   1.795   4.790   0.873
 1192SOL    HW1 3606   1.733   4.775   0.797
 1192SOL    HW2 3607   1.743   4.801   0.958
 1193SOL     OW 3608   0.321   4.667   0.242
 1193SOL    HW1 3609   0.403   4.706   0.200
 1193SOL    HW2 3610   0.294   4.585   0.193
 1194SOL     OW 3611   1.458   4.459   0.728
 1194SOL    HW1 3612   1.453   4.394   0.803
 1194SOL    HW2 3613   1.538   4.518   0.741
 1195SOL     OW 3614   0.202   4.009   1.498
 1195SOL    HW1 3615   0.122   4.069   1.485
 1195SOL    HW2 3616   0.192   3.960   1.584
 1196SOL     OW 3617   1.632   5.101   0.081
 1196SOL    HW1 3618   1.600   5.195   0.071
 1196SOL    HW2 3619   1.556   5.038   0.069
 1197SOL     OW 3620   1.400   3.831   0.426
 1197SOL    HW1 3621   1.376   3.794   0.336
 1197SOL    HW2 3622   1.499   3.847   0.430
 1198SOL     OW 3623   0.382   4.424   0.480
 1198SOL    HW1 3624   0.427   4.334   0.477
 1198SOL    HW2 3625   0.288   4.413   0.513
 1199SOL     OW 3626   1.547   3.946   1.729
 1199SOL    HW1 3627   1.542   3.983   1.821
 1199SOL    HW2 3628   1.475   3.877   1.717
 1200SOL     OW 3629   0.614   3.846   0.117
 1200SOL    HW1 3630   0.712   3.824   0.124
 1200SOL    HW2 3631   0.583   3.829   0.024
 1201SOL     OW 3632   0.781   3.988   1.749
 1201SOL    HW1 3633   0.848   3.927   1.792
 1201SOL    HW2 3634   0.708   4.007   1.814
 1202SOL     OW 3635   1.351   4.314   1.433
 1202SOL    HW1 3636   1.379   4.271   1.518
 1202SOL    HW2 3637   1.376   4.410   1.434
 1203SOL     OW 3638   0.803   5.126   0.924
 1203SOL    HW1 3639   0.893   5.140   0.882
 1203SOL    HW2 3640   0.732   5.128   0.853
 1204SOL     OW 3641   0.922   4.227   0.899
 1204SOL    HW1 3642   0.897   4.218   0.803
 1204SOL    HW2 3643   0.970   4.145   0.930
 1205SOL     OW 3644   0.539   3.788   0.512
 1205SOL    HW1 3645   0.458   3.789   0.570
 1205SOL    HW2 3646   0.542   3.871   0.457
 1206SOL     OW 3647   1.434   4.912   0.041
 1206SOL    HW1 3648   1.466   4.836   0.098
 1206SOL    HW2 3649   1.342   4.939   0.071
 1207SOL     OW 3650   0.297   3.759   0.171
 1207SOL    HW1 3651   0.346   3.843   0.150
 1207SOL    HW2 3652   0.359   3.694   0.216
 1208SOL     OW 3653   0.935   3.960   0.480
 1208SOL    HW1 3654   0.887   4.001   0.402
 1208SOL    HW2 3655   1.034   3.958   0.461
 1209SOL     OW 3656   1.076   4.407   1.464
 1209SOL    HW1 3657   0.996   4.346   1.467
 1209SOL    HW2 3658   1.157   4.354   1.440
 1210SOL     OW 3659   0.459   4.876   0.741
 1210SOL    HW1 3660   0.388   4.849   0.806
 1210SOL    HW2 3661   0.433   4.848   0.648
 1211SOL     OW 3662   1.032   4.273   0.016
 1211SOL    HW1 3663   0.991   4.355  -0.023
 1211SOL    HW2 3664   1.096   4.299   0.089
 1212SOL     OW 3665   0.078   4.280   1.386
 1212SOL    HW1 3666   0.170   4.279   1.345
 1212SOL    HW2 3667   0.072   4.354   1.453
 1213SOL     OW 3668   0.561   3.946   1.147
 1213SOL    HW1 3669   0.599   3.862   1.184
 1213SOL    HW2 3670   0.473   3.965   1.191
 1214SOL     OW 3671   0.866   4.178   0.642
 1214SOL    HW1 3672   0.834   4.250   0.580
 1214SOL    HW2 3673   0.890   4.097   0.589
 1215SOL     OW 3674   1.017   3.763   0.753
 1215SOL    HW1 3675   0.945   3.768   0.684
 1215SOL    HW2 3676   0.993   3.694   0.822
 1216SOL     OW 3677   1.429   4.897   0.867
 1216SOL    HW1 3678   1.374   4.813   0.860
 1216SOL    HW2 3679   1.455   4.926   0.775
 1217SOL     OW 3680   1.466   4.314   0.992
 1217SOL    HW1 3681   1.436   4.219   0.999
 1217SOL    HW2 3682   1.539   4.330   1.058
 1218SOL     OW 3683   1.857   4.557   0.377
 1218SOL    HW1 3684   1.899   4.493   0.441
 1218SOL    HW2 3685   1.819   4.506   0.299
 1219SOL     OW 3686   1.390   4.299   0.078
 1219SOL    HW1 3687   1.336   4.278   0.159
 1219SOL    HW2 3688   1.481   4.258   0.087
 1220SOL     OW 3689   0.527   3.980   0.328
 1220SOL    HW1 3690   0.554   3.921   0.253
 1220SOL    HW2 3691   0.527   4.075   0.297
 1221SOL     OW 3692   1.754   4.947   1.588
 1221SOL    HW1 3693   1.845   4.908   1.575
 1221SOL    HW2 3694   1.762   5.043   1.612
 1222SOL     OW 3695   1.638   4.823   1.079
 1222SOL    HW1 3696   1.643   4.904   1.138
 1222SOL    HW2 3697   1.552   4.825   1.028
 1223SOL     OW 3698   0.915   3.813   1.402
 1223SOL    HW1 3699   0.940   3.793   1.307
 1223SOL    HW2 3700   0.987   3.869   1.444
 1224SOL     OW 3701   0.980   4.840   1.719
 1224SOL    HW1 3702   0.881   4.846   1.729
 1224SOL    HW2 3703   1.003   4.760   1.663
 1225SOL     OW 3704   0.705   4.774   0.368
 1225SOL    HW1 3705   0.691   4.781   0.467
 1225SOL    HW2 3706   0.789   4.723   0.350
 1226SOL     OW 3707   0.410   4.537   1.251
 1226SOL    HW1 3708   0.496   4.549   1.301
 1226SOL    HW2 3709   0.368   4.450   1.278
 1227SOL     OW 3710   1.274   4.110   1.262
 1227SOL    HW1 3711   1.295   4.184   1.326
 1227SOL    HW2 3712   1.185   4.127   1.219
 1228SOL     OW 3713   0.367   4.824   0.501
 1228SOL    HW1 3714   0.360   4.907   0.445
 1228SOL    HW2 3715   0.371   4.744   0.441
 1229SOL     OW 3716   0.566   4.261   0.865
 1229SOL    HW1 3717   0.578   4.327   0.791
 1229SOL    HW2 3718   0.612   4.295   0.948
 1230SOL     OW 3719   1.582   4.363   0.472
 1230SOL    HW1 3720   1.551   4.424   0.545
 1230SOL    HW2 3721   1.632   4.415   0.403
 1231SOL     OW 3722   0.402   4.475   1.598
 1231SOL    HW1 3723   0.470   4.530   1.551
 1231SOL    HW2 3724   0.442   4.387   1.625
 1232SOL     OW 3725   1.587   4.503   1.670
 1232SOL    HW1 3726   1.495   4.541   1.665
 1232SOL    HW2 3727   1.647   4.550   1.605
 1233SOL     OW 3728   1.013   3.829   1.770
 1233SOL    HW1 3729   1.019   3.914   1.718
 1233SOL    HW2 3730   1.045   3.753   1.713
 1234SOL     OW 3731   0.504   3.774   1.740
 1234SOL    HW1 3732   0.462   3.717   1.670
 1234SOL    HW2 3733   0.438   3.843   1.772
 1235SOL     OW 3734   0.573   4.594   1.029
 1235SOL    HW1 3735   0.617   4.683   1.020
 1235SOL    HW2 3736   0.510   4.594   1.106
 1236SOL     OW 3737   1.360   4.586   1.045
 1236SOL    HW1 3738   1.285   4.586   0.979
 1236SOL    HW2 3739   1.397   4.494   1.054
 1237SOL     OW 3740   1.209   4.249   0.275
 1237SOL    HW1 3741   1.222   4.165   0.329
 1237SOL    HW2 3742   1.180   4.323   0.335
 1238SOL     OW 3743   0.307   3.937   1.231
 1238SOL    HW1 3744   0.284   3.974   1.321
 1238SOL    HW2 3745   0.277   3.842   1.225
 1239SOL     OW 3746   0.037   5.034   1.282
 1239SOL    HW1 3747   0.090   4.985   1.350
 1239SOL    HW2 3748   0.059   5.132   1.287
 1240SOL     OW 3749   0.732   4.358   1.064
 1240SOL    HW1 3750   0.791   4.332   0.988
 1240SOL    HW2 3751   0.704   4.454   1.053
 1241SOL     OW 3752   1.728   4.659   1.854
 1241SOL    HW1 3753   1.682   4.652   1.765
 1241SOL    HW2 3754   1.666   4.703   1.920
 1242SOL     OW 3755   0.307   3.787   0.618
 1242SOL    HW1 3756   0.296   3.881   0.651
 1242SOL    HW2 3757   0.302   3.724   0.695
 1243SOL     OW 3758   1.622   4.091   0.374
 1243SOL    HW1 3759   1.624   4.015   0.438
 1243SOL    HW2 3760   1.574   4.168   0.414
 1244SOL     OW 3761   1.023   4.490   0.966
 1244SOL    HW1 3762   1.038   4.511   1.062
 1244SOL    HW2 3763   0.993   4.395   0.957
 1245SOL     OW 3764   1.859   5.242   1.605
 1245SOL    HW1 3765   1.873   5.269   1.510
 1245SOL    HW2 3766   1.942   5.264   1.658
 1246SOL     OW 3767   0.350   4.622   1.804
 1246SOL    HW1 3768   0.426   4.666   1.852
 1246SOL    HW2 3769   0.385   4.575   1.722
 1247SOL     OW 3770   1.540   3.998   0.125
 1247SOL    HW1 3771   1.479   3.923   0.148
 1247SOL    HW2 3772   1.562   4.050   0.208
 1248SOL     OW 3773   1.303   4.562   0.042
 1248SOL    HW1 3774   1.337   4.469   0.057
 1248SOL    HW2 3775   1.321   4.589  -0.053
 1249SOL     OW 3776   0.319   4.534   0.949
 1249SOL    HW1 3777   0.412   4.570   0.954
 1249SOL    HW2 3778   0.313   4.449   1.001
 1250SOL     OW 3779   0.339   4.233   1.006
 1250SOL    HW1 3780   0.287   4.150   0.989
 1250SOL    HW2 3781   0.416   4.238   0.942
 1251SOL     OW 3782   1.138   4.104   1.678
 1251SOL    HW1 3783   1.093   4.167   1.742
 1251SOL    HW2 3784   1.231   4.135   1.661
 1252SOL     OW 3785   1.160   3.931   1.477
 1252SOL    HW1 3786   1.160   3.995   1.554
 1252SOL    HW2 3787   1.188   3.979   1.394
 1253SOL     OW 3788   0.008   5.050   0.200
 1253SOL    HW1 3789  -0.085   5.071   0.169
 1253SOL    HW2 3790   0.018   4.951   0.213
 1254SOL     OW 3791   1.002   4.520   1.238
 1254SOL    HW1 3792   1.043   4.488   1.324
 1254SOL    HW2 3793   0.906   4.493   1.235
 1255SOL     OW 3794   0.040   4.268   1.114
 1255SOL    HW1 3795   0.125   4.235   1.073
 1255SOL    HW2 3796   0.053   4.283   1.212
 1256SOL     OW 3797   0.189   4.244   1.722
 1256SOL    HW1 3798   0.248   4.204   1.652
 1256SOL    HW2 3799   0.131   4.315   1.681
 1257SOL     OW 3800   1.369   4.674   1.660
 1257SOL    HW1 3801   1.408   4.763   1.680
 1257SOL    HW2 3802   1.379   4.654   1.563
 1258SOL     OW 3803   0.815   4.296   0.325
 1258SOL    HW1 3804   0.822   4.207   0.279
 1258SOL    HW2 3805   0.721   4.330   0.317
 1259SOL     OW 3806   1.657   4.328   1.206
 1259SOL    HW1 3807   1.619   4.259   1.268
 1259SOL    HW2 3808   1.739   4.292   1.162
 1260SOL     OW 3809   0.671   4.188   1.269
 1260SOL    HW1 3810   0.637   4.099   1.239
 1260SOL    HW2 3811   0.697   4.242   1.189
 1261SOL     OW 3812   0.473   4.224   0.191
 1261SOL    HW1 3813   0.534   4.304   0.195
 1261SOL    HW2 3814   0.378   4.255   0.198
 1262SOL     OW 3815   0.159   4.861   1.466
 1262SOL    HW1 3816   0.181   4.800   1.542
 1262SOL    HW2 3817   0.169   4.812   1.380
 1263SOL     OW 3818   1.347   4.783   1.234
 1263SOL    HW1 3819   1.371   4.720   1.160
 1263SOL    HW2 3820   1.257   4.823   1.216
 1264SOL     OW 3821   1.302   4.579   0.309
 1264SOL    HW1 3822   1.216   4.548   0.351
 1264SOL    HW2 3823   1.298   4.565   0.210
 1265SOL     OW 3824   0.083   4.982   1.022
 1265SOL    HW1 3825   0.078   4.981   1.122
 1265SOL    HW2 3826   0.000   4.941   0.984
 1266SOL     OW 3827   0.903   3.810   0.133
 1266SOL    HW1 3828   0.954   3.811   0.047
 1266SOL    HW2 3829   0.959   3.768   0.204
 1267SOL     OW 3830   1.726   3.859   0.523
 1267SOL    HW1 3831   1.799   3.842   0.456
 1267SOL    HW2 3832   1.695   3.772   0.561
 1268SOL     OW 3833   1.280   4.651   0.672
 1268SOL    HW1 3834   1.340   4.570   0.674
 1268SOL    HW2 3835   1.320   4.720   0.612
 1269SOL     OW 3836   0.830   4.997   1.422
 1269SOL    HW1 3837   0.825   5.030   1.517
 1269SOL    HW2 3838   0.744   5.016   1.376
 1270SOL     OW 3839   1.841   3.899   0.963
 1270SOL    HW1 3840   1.880   3.814   0.927
 1270SOL    HW2 3841   1.743   3.901   0.944
 1271SOL     OW 3842   0.263   4.050   0.720
 1271SOL    HW1 3843   0.184   4.101   0.686
 1271SOL    HW2 3844   0.254   4.035   0.818
 1272SOL     OW 3845   0.822   4.726   1.372
 1272SOL    HW1 3846   0.862   4.725   1.280
 1272SOL    HW2 3847   0.832   4.818   1.412
 1273SOL     OW 3848   0.916   4.634   0.291
 1273SOL    HW1 3849   0.979   4.672   0.223
 1273SOL    HW2 3850   0.956   4.551   0.330
 1274SOL     OW 3851   0.372   5.012   1.490
 1274SOL    HW1 3852   0.359   5.105   1.456
 1274SOL    HW2 3853   0.288   4.960   1.477
 1275SOL     OW 3854   1.614   5.016   1.289
 1275SOL    HW1 3855   1.674   5.019   1.369
 1275SOL    HW2 3856   1.539   5.080   1.302
 1276SOL     OW 3857   1.039   4.822   0.696
 1276SOL    HW1 3858   0.969   4.775   0.750
 1276SOL    HW2 3859   1.098   4.754   0.653
 1277SOL     OW 3860   1.014   3.960   0.971
 1277SOL    HW1 3861   1.006   3.924   0.878
 1277SOL    HW2 3862   1.012   3.884   1.036
 1278SOL     OW 3863   1.709   4.109   1.381
 1278SOL    HW1 3864   1.782   4.178   1.385
 1278SOL    HW2 3865   1.737   4.034   1.322
 1279SOL     OW 3866   0.105   4.737   1.726
 1279SOL    HW1 3867   0.028   4.704   1.780
 1279SOL    HW2 3868   0.190   4.707   1.768
 1280SOL     OW 3869   0.672   3.927   1.489
 1280SOL    HW1 3870   0.762   3.911   1.449
 1280SOL    HW2 3871   0.680   3.932   1.588
 1281SOL     OW 3872   0.075   4.069   0.033
 1281SOL    HW1 3873  -0.017   4.041   0.004
 1281SOL    HW2 3874   0.106   4.146  -0.023
 1282SOL     OW 3875   1.440   4.580   1.398
 1282SOL    HW1 3876   1.383   4.632   1.335
 1282SOL    HW2 3877   1.536   4.592   1.374
 1283SOL     OW 3878   0.072   3.890   0.318
 1283SOL    HW1 3879   0.055   3.973   0.264
 1283SOL    HW2 3880   0.162   3.853   0.296
 1284SOL     OW 3881   0.613   4.566   1.431
 1284SOL    HW1 3882   0.669   4.647   1.414
 1284SOL    HW2 3883   0.672   4.486   1.434
 1285SOL     OW 3884   0.716   4.289   1.708
 1285SOL    HW1 3885   0.735   4.354   1.782
 1285SOL    HW2 3886   0.776   4.209   1.717
 1286SOL     OW 3887   1.450   4.944   1.633
 1286SOL    HW1 3888   1.441   4.934   1.732
 1286SOL    HW2 3889   1.546   4.937   1.607
 1287SOL     OW 3890   1.674   4.607   1.254
 1287SOL    HW1 3891   1.647   4.518   1.217
 1287SOL    HW2 3892   1.675   4.675   1.181
 1288SOL     OW 3893   1.225   4.049   0.449
 1288SOL    HW1 3894   1.290   3.975   0.438
 1288SOL    HW2 3895   1.245   4.099   0.533
 1289SOL     OW 3896   0.594   4.469   0.652
 1289SOL    HW1 3897   0.644   4.554   0.633
 1289SOL    HW2 3898   0.506   4.471   0.604
 1290SOL     OW 3899   1.777   4.066   1.642
 1290SOL    HW1 3900   1.760   4.097   1.548
 1290SOL    HW2 3901   1.693   4.029   1.680
 1291SOL     OW 3902   1.730   4.658   1.517
 1291SOL    HW1 3903   1.768   4.749   1.532
 1291SOL    HW2 3904   1.722   4.641   1.418
 1292SOL     OW 3905   0.859   4.680   0.861
 1292SOL    HW1 3906   0.913   4.611   0.909
 1292SOL    HW2 3907   0.827   4.749   0.927
 1293SOL     OW 3908   1.083   4.708   0.087
 1293SOL    HW1 3909   1.060   4.761   0.005
 1293SOL    HW2 3910   1.164   4.652   0.068
 1294SOL     OW 3911   0.079   4.964   0.653
 1294SOL    HW1 3912   0.078   4.917   0.741
 1294SOL    HW2 3913   0.161   4.936   0.602
 1295SOL     OW 3914   1.824   3.916   1.227
 1295SOL    HW1 3915   1.820   3.826   1.271
 1295SOL    HW2 3916   1.827   3.905   1.128
 1296SOL     OW 3917   0.428   4.148   0.520
 1296SOL    HW1 3918   0.458   4.076   0.458
 1296SOL    HW2 3919   0.389   4.108   0.603
 1297SOL     OW 3920   0.317   4.271   1.280
 1297SOL    HW1 3921   0.355   4.212   1.352
 1297SOL    HW2 3922   0.357   4.245   1.192
 1298SOL     OW 3923   1.424   3.938   1.112
 1298SOL    HW1 3924   1.476   3.873   1.167
 1298SOL    HW2 3925   1.375   4.001   1.173
 1299SOL     OW 3926   1.001   3.758   1.154
 1299SOL    HW1 3927   0.938   3.686   1.123
 1299SOL    HW2 3928   1.094   3.722   1.154
 1300SOL     OW 3929   0.770   5.054   0.301
 1300SOL    HW1 3930   0.724   4.967   0.318
 1300SOL    HW2 3931   0.861   5.051   0.342
 1301SOL     OW 3932   1.352   3.776   0.168
 1301SOL    HW1 3933   1.387   3.735   0.084
 1301SOL    HW2 3934   1.262   3.738   0.188
 1302SOL     OW 3935   1.300   4.177   0.691
 1302SOL    HW1 3936   1.241   4.257   0.695
 1302SOL    HW2 3937   1.315   4.142   0.784
 1303SOL     OW 3938   1.593   3.945   0.882
 1303SOL    HW1 3939   1.509   3.944   0.936
 1303SOL    HW2 3940   1.595   4.028   0.826
 1304SOL     OW 3941   0.039   4.801   0.300
 1304SOL    HW1 3942   0.138   4.790   0.291
 1304SOL    HW2 3943  -0.001   4.715   0.332
 1305SOL     OW 3944   0.230   4.352   1.975
 1305SOL    HW1 3945   0.137   4.350   2.012
 1305SOL    HW2 3946   0.231   4.313   1.883
 1306SOL     OW 3947   0.225   3.999   2.858
 1306SOL    HW1 3948   0.260   3.982   2.950
 1306SOL    HW2 3949   0.137   3.954   2.846
 1307SOL     OW 3950   0.019   4.092   2.509
 1307SOL    HW1 3951  -0.063   4.135   2.548
 1307SOL    HW2 3952  -0.009   4.019   2.446
 1308SOL     OW 3953   1.135   4.427   2.579
 1308SOL    HW1 3954   1.192   4.505   2.554
 1308SOL    HW2 3955   1.075   4.453   2.655
 1309SOL     OW 3956   1.755   4.331   2.093
 1309SOL    HW1 3957   1.743   4.318   1.994
 1309SOL    HW2 3958   1.725   4.250   2.142
 1310SOL     OW 3959   0.768   4.868   2.885
 1310SOL    HW1 3960   0.690   4.885   2.945
 1310SOL    HW2 3961   0.802   4.955   2.849
 1311SOL     OW 3962   0.850   4.522   3.685
 1311SOL    HW1 3963   0.846   4.598   3.750
 1311SOL    HW2 3964   0.872   4.558   3.594
 1312SOL     OW 3965   0.685   4.736   2.527
 1312SOL    HW1 3966   0.754   4.720   2.597
 1312SOL    HW2 3967   0.612   4.793   2.565
 1313SOL     OW 3968   0.686   4.885   3.665
 1313SOL    HW1 3969   0.746   4.964   3.679
 1313SOL    HW2 3970   0.600   4.916   3.624
 1314SOL     OW 3971   0.335   5.159   2.923
 1314SOL    HW1 3972   0.257   5.128   2.870
 1314SOL    HW2 3973   0.393   5.217   2.866
 1315SOL     OW 3974   0.438   4.116   3.361
 1315SOL    HW1 3975   0.520   4.060   3.370
 1315SOL    HW2 3976   0.357   4.058   3.365
 1316SOL     OW 3977   1.603   4.171   2.599
 1316SOL    HW1 3978   1.529   4.217   2.549
 1316SOL    HW2 3979   1.654   4.239   2.652
 1317SOL     OW 3980   0.240   4.815   2.748
 1317SOL    HW1 3981   0.254   4.731   2.800
 1317SOL    HW2 3982   0.185   4.879   2.803
 1318SOL     OW 3983   0.606   4.688   1.985
 1318SOL    HW1 3984   0.613   4.772   1.931
 1318SOL    HW2 3985   0.652   4.701   2.073
 1319SOL     OW 3986   1.594   3.838   3.342
 1319SOL    HW1 3987   1.576   3.905   3.270
 1319SOL    HW2 3988   1.591   3.884   3.431
 1320SOL     OW 3989   0.122   4.367   2.425
 1320SOL    HW1 3990   0.077   4.279   2.442
 1320SOL    HW2 3991   0.121   4.421   2.509
 1321SOL     OW 3992   1.689   4.646   2.474
 1321SOL    HW1 3993   1.784   4.617   2.482
 1321SOL    HW2 3994   1.681   4.711   2.399
 1322SOL     OW 3995   1.641   4.832   2.294
 1322SOL    HW1 3996   1.727   4.834   2.242
 1322SOL    HW2 3997   1.655   4.879   2.382
 1323SOL     OW 3998   0.113   4.461   3.459
 1323SOL    HW1 3999   0.201   4.448   3.504
 1323SOL    HW2 4000   0.100   4.558   3.437
 1324SOL     OW 4001   1.293   4.952   3.285
 1324SOL    HW1 4002   1.330   4.879   3.227
 1324SOL    HW2 4003   1.345   4.957   3.370
 1325SOL     OW 4004   0.809   3.728   2.364
 1325SOL    HW1 4005   0.849   3.819   2.355
 1325SOL    HW2 4006   0.709   3.736   2.370
 1326SOL     OW 4007   0.197   4.700   3.126
 1326SOL    HW1 4008   0.286   4.655   3.112
 1326SOL    HW2 4009   0.124   4.635   3.107
 1327SOL     OW 4010   1.525   4.723   2.052
 1327SOL    HW1 4011   1.462   4.647   2.065
 1327SOL    HW2 4012   1.573   4.741   2.138
 1328SOL     OW 4013   0.317   3.975   3.663
 1328SOL    HW1 4014   0.388   4.046   3.669
 1328SOL    HW2 4015   0.229   4.014   3.691
 1329SOL     OW 4016   0.598   4.453   2.132
 1329SOL    HW1 4017   0.622   4.522   2.064
 1329SOL    HW2 4018   0.520   4.486   2.186
 1330SOL     OW 4019   1.281   4.069   2.806
 1330SOL    HW1 4020   1.195   4.019   2.793
 1330SOL    HW2 4021   1.343   4.015   2.862
 1331SOL     OW 4022   0.807   4.329   3.327
 1331SOL    HW1 4023   0.760   4.326   3.416
 1331SOL    HW2 4024   0.756   4.274   3.261
 1332SOL     OW 4025   1.394   4.193   3.536
 1332SOL    HW1 4026   1.374   4.236   3.624
 1332SOL    HW2 4027   1.472   4.131   3.545
 1333SOL     OW 4028   0.973   4.614   3.434
 1333SOL    HW1 4029   1.019   4.530   3.405
 1333SOL    HW2 4030   0.917   4.648   3.359
 1334SOL     OW 4031   0.991   4.134   3.104
 1334SOL    HW1 4032   0.914   4.168   3.158
 1334SOL    HW2 4033   0.957   4.083   3.025
 1335SOL     OW 4034   1.041   4.425   2.291
 1335SOL    HW1 4035   1.067   4.421   2.387
 1335SOL    HW2 4036   0.956   4.374   2.277
 1336SOL     OW 4037   0.076   4.535   2.651
 1336SOL    HW1 4038   0.175   4.523   2.660
 1336SOL    HW2 4039   0.052   4.630   2.672
 1337SOL     OW 4040   0.865   4.072   2.057
 1337SOL    HW1 4041   0.924   4.135   2.008
 1337SOL    HW2 4042   0.884   3.978   2.028
 1338SOL     OW 4043   1.719   4.309   3.693
 1338SOL    HW1 4044   1.693   4.398   3.657
 1338SOL    HW2 4045   1.717   4.241   3.620
 1339SOL     OW 4046   1.362   4.868   2.407
 1339SOL    HW1 4047   1.445   4.839   2.359
 1339SOL    HW2 4048   1.313   4.935   2.351
 1340SOL     OW 4049   0.550   3.920   2.747
 1340SOL    HW1 4050   0.545   3.915   2.847
 1340SOL    HW2 4051   0.552   4.016   2.718
 1341SOL     OW 4052   1.795   4.790   2.735
 1341SOL    HW1 4053   1.733   4.775   2.659
 1341SOL    HW2 4054   1.743   4.801   2.820
 1342SOL     OW 4055   0.321   4.667   2.104
 1342SOL    HW1 4056   0.403   4.706   2.062
 1342SOL    HW2 4057   0.294   4.585   2.055
 1343SOL     OW 4058   1.458   4.459   2.590
 1343SOL    HW1 4059   1.453   4.394   2.665
 1343SOL    HW2 4060   1.538   4.518   2.603
 1344SOL     OW 4061   0.202   4.009   3.360
 1344SOL    HW1 4062   0.122   4.069   3.347
 1344SOL    HW2 4063   0.192   3.960   3.446
 1345SOL     OW 4064   1.632   5.101   1.943
 1345SOL    HW1 4065   1.600   5.195   1.933
 1345SOL    HW2 4066   1.556   5.038   1.931
 1346SOL     OW 4067   1.400   3.831   2.288
 1346SOL    HW1 4068   1.376   3.794   2.198
 1346SOL    HW2 4069   1.499   3.847   2.292
 1347SOL     OW 4070   0.382   4.424   2.342
 1347SOL    HW1 4071   0.427   4.334   2.339
 1347SOL    HW2 4072   0.288   4.413   2.375
 1348SOL     OW 4073   1.547   3.946   3.591
 1348SOL    HW1 4074   1.542   3.983   3.683
 1348SOL    HW2 4075   1.475   3.877   3.579
 1349SOL     OW 4076   0.614   3.846   1.979
 1349SOL    HW1 4077   0.712   3.824   1.986
 1349SOL    HW2 4078   0.583   3.829   1.886
 1350SOL     OW 4079   0.781   3.988   3.611
 1350SOL    HW1 4080   0.848   3.927   3.654
 1350SOL    HW2 4081   0.708   4.007   3.676
 1351SOL     OW 4082   1.351   4.314   3.295
 1351SOL    HW1 4083   1.379   4.271   3.380
 1351SOL    HW2 4084   1.376   4.410   3.296
 1352SOL     OW 4085   0.803   5.126   2.786
 1352SOL    HW1 4086   0.893   5.140   2.744
 1352SOL    HW2 4087   0.732   5.128   2.715
 1353SOL     OW 4088   0.922   4.227   2.761
 1353SOL    HW1 4089   0.897   4.218   2.665
 1353SOL    HW2 4090   0.970   4.145   2.792
 1354SOL     OW 4091   0.539   3.788   2.374
 1354SOL    HW1 4092   0.458   3.789   2.432
 1354SOL    HW2 4093   0.542   3.871   2.319
 1355SOL     OW 4094   1.434   4.912   1.903
 1355SOL    HW1 4095   1.466   4.836   1.960
 1355SOL    HW2 4096   1.342   4.939   1.933
 1356SOL     OW 4097   0.297   3.759   2.033
 1356SOL    HW1 4098   0.346   3.843   2.012
 1356SOL    HW2 4099   0.359   3.694   2.078
 1357SOL     OW 4100   0.935   3.960   2.342
 1357SOL    HW1 4101   0.887   4.001   2.264
 1357SOL    HW2 4102   1.034   3.958   2.323
 1358SOL     OW 4103   1.076   4.407   3.326
 1358SOL    HW1 4104   0.996   4.346   3.329
 1358SOL    HW2 4105   1.157   4.354   3.302
 1359SOL     OW 4106   0.459   4.876   2.603
 1359SOL    HW1 4107   0.388   4.849   2.668
 1359SOL    HW2 4108   0.433   4.848   2.510
 1360SOL     OW 4109   1.032   4.273   1.878
 1360SOL    HW1 4110   0.991   4.355   1.839
 1360SOL    HW2 4111   1.096   4.299   1.951
 1361SOL     OW 4112   0.078   4.280   3.248
 1361SOL    HW1 4113   0.170   4.279   3.207
 1361SOL    HW2 4114   0.072   4.354   3.315
 1362SOL     OW 4115   0.561   3.946   3.009
 1362SOL    HW1 4116   0.599   3.862   3.046
 1362SOL    HW2 4117   0.473   3.965   3.053
 1363SOL     OW 4118   0.866   4.178   2.504
 1363SOL    HW1 4119   0.834   4.250   2.442
 1363SOL    HW2 4120   0.890   4.097   2.451
 1364SOL     OW 4121   1.017   3.763   2.615
 1364SOL    HW1 4122   0.945   3.768   2.546
 1364SOL    HW2 4123   0.993   3.694   2.684
 1365SOL     OW 4124   1.429   4.897   2.729
 1365SOL    HW1 4125   1.374   4.813   2.722
 1365SOL    HW2 4126   1.455   4.926   2.637
 1366SOL     OW 4127   1.466   4.314   2.854
 1366SOL    HW1 4128   1.436   4.219   2.861
 1366SOL    HW2 4129   1.539   4.330   2.920
 1367SOL     OW 4130   1.857   4.557   2.239
 1367SOL    HW1 4131   1.899   4.493   2.303
 1367SOL    HW2 4132   1.819   4.506   2.161
 1368SOL     OW 4133   1.390   4.299   1.940
 1368SOL    HW1 4134   1.336   4.278   2.021
 1368SOL    HW2 4135   1.481   4.258   1.949
 1369SOL     OW 4136   0.527   3.980   2.190
 1369SOL    HW1 4137   0.554   3.921   2.115
 1369SOL    HW2 4138   0.527   4.075   2.159
 1370SOL     OW 4139   1.754   4.947   3.450
 1370SOL    HW1 4140   1.845   4.908   3.437
 1370SOL    HW2 4141   1.762   5.043   3.474
 1371SOL     OW 4142   1.638   4.823   2.941
 1371SOL    HW1 4143   1.643   4.904   3.000
 1371SOL    HW2 4144   1.552   4.825   2.890
 1372SOL     OW 4145   0.915   3.813   3.264
 1372SOL    HW1 4146   0.940   3.793   3.169
 1372SOL    HW2 4147   0.987   3.869   3.306
 1373SOL     OW 4148   0.980   4.840   3.581
 1373SOL    HW1 4149   0.881   4.846   3.591
 1373SOL    HW2 4150   1.003   4.760   3.525
 1374SOL     OW 4151   0.705   4.774   2.230
 1374SOL    HW1 4152   0.691   4.781   2.329
 1374SOL    HW2 4153   0.789   4.723   2.212
 1375SOL     OW 4154   0.410   4.537   3.113
 1375SOL    HW1 4155   0.496   4.549   3.163
 1375SOL    HW2 4156   0.368   4.450   3.140
 1376SOL     OW 4157   1.274   4.110   3.124
 1376SOL    HW1 4158   1.295   4.184   3.188
 1376SOL    HW2 4159   1.185   4.127   3.081
 1377SOL     OW 4160   0.367   4.824   2.363
 1377SOL    HW1 4161   0.360   4.907   2.307
 1377SOL    HW2 4162   0.371   4.744   2.303
 1378SOL     OW 4163   0.566   4.261   2.727
 1378SOL    HW1 4164   0.578   4.327   2.653
 1378SOL    HW2 4165   0.612   4.295   2.810
 1379SOL     OW 4166   1.582   4.363   2.334
 1379SOL    HW1 4167   1.551   4.424   2.407
 1379SOL    HW2 4168   1.632   4.415   2.265
 1380SOL     OW 4169   0.402   4.475   3.460
 1380SOL    HW1 4170   0.470   4.530   3.413
 1380SOL    HW2 4171   0.442   4.387   3.487
 1381SOL     OW 4172   1.587   4.503   3.532
 1381SOL    HW1 4173   1.495   4.541   3.527
 1381SOL    HW2 4174   1.647   4.550   3.467
 1382SOL     OW 4175   1.013   3.829   3.632
 1382SOL    HW1 4176   1.019   3.914   3.580
 1382SOL    HW2 4177   1.045   3.753   3.575
 1383SOL     OW 4178   0.504   3.774   3.602
 1383SOL    HW1 4179   0.462   3.717   3.532
 1383SOL    HW2 4180   0.438   3.843   3.634
 1384SOL     OW 4181   0.573   4.594   2.891
 1384SOL    HW1 4182   0.617   4.683   2.882
 1384SOL    HW2 4183   0.510   4.594   2.968
 1385SOL     OW 4184   1.360   4.586   2.907
 1385SOL    HW1 4185   1.285   4.586   2.841
 1385SOL    HW2 4186   1.397   4.494   2.916
 1386SOL     OW 4187   1.209   4.249   2.137
 1386SOL    HW1 4188   1.222   4.165   2.191
 1386SOL    HW2 4189   1.180   4.323   2.197
 1387SOL     OW 4190   0.307   3.937   3.093
 1387SOL    HW1 4191   0.284   3.974   3.183
 1387SOL    HW2 4192   0.277   3.842   3.087
 1388SOL     OW 4193   0.037   5.034   3.144
 1388SOL    HW1 4194   0.090   4.985   3.212
 1388SOL    HW2 4195   0.059   5.132   3.149
 1389SOL     OW 4196   0.732   4.358   2.926
 1389SOL    HW1 4197   0.791   4.332   2.850
 1389SOL    HW2 4198   0.704   4.454   2.915
 1390SOL     OW 4199   1.728   4.659   3.716
 1390SOL    HW1 4200   1.682   4.652   3.627
 1390SOL    HW2 4201   1.666   4.703   3.782
 1391SOL     OW 4202   0.307   3.787   2.480
 1391SOL    HW1 4203   0.296   3.881   2.513
 1391SOL    HW2 4204   0.302   3.724   2.557
 1392SOL     OW 4205   1.622   4.091   2.236
 1392SOL    HW1 4206   1.624   4.015   2.300
 1392SOL    HW2 4207   1.574   4.168   2.276
 1393SOL     OW 4208   1.023   4.490   2.828
 1393SOL    HW1 4209   1.038   4.511   2.924
 1393SOL    HW2 4210   0.993   4.395   2.819
 1394SOL     OW 4211   1.859   5.242   3.467
 1394SOL    HW1 4212   1.873   5.269   3.372
 1394SOL    HW2 4213   1.942   5.264   3.520
 1395SOL     OW 4214   0.350   4.622   3.666
 1395SOL    HW1 4215   0.426   4.666   3.714
 1395SOL    HW2 4216   0.385   4.575   3.584
 1396SOL     OW 4217   1.540   3.998   1.987
 1396SOL    HW1 4218   1.479   3.923   2.010
 1396SOL    HW2 4219   1.562   4.050   2.070
 1397SOL     OW 4220   1.303   4.562   1.904
 1397SOL    HW1 4221   1.337   4.469   1.919
 1397SOL    HW2 4222   1.321   4.589   1.809
 1398SOL     OW 4223   0.319   4.534   2.811
 1398SOL    HW1 4224   0.412   4.570   2.816
 1398SOL    HW2 4225   0.313   4.449   2.863
 1399SOL     OW 4226   0.339   4.233   2.868
 1399SOL    HW1 4227   0.287   4.150   2.851
 1399SOL    HW2 4228   0.416   4.238   2.804
 1400SOL     OW 4229   1.138   4.104   3.540
 1400SOL    HW1 4230   1.093   4.167   3.604
 1400SOL    HW2 4231   1.231   4.135   3.523
 1401SOL     OW 4232   1.160   3.931   3.339
 1401SOL    HW1 4233   1.160   3.995   3.416
 1401SOL    HW2 4234   1.188   3.979   3.256
 1402SOL     OW 4235   0.008   5.050   2.062
 1402SOL    HW1 4236  -0.085   5.071   2.031
 1402SOL    HW2 4237   0.018   4.951   2.075
 1403SOL     OW 4238   1.002   4.520   3.100
 1403SOL    HW1 4239   1.043   4.488   3.186
 1403SOL    HW2 4240   0.906   4.493   3.097
 1404SOL     OW 4241   0.040   4.268   2.976
 1404SOL    HW1 4242   0.125   4.235   2.935
 1404SOL    HW2 4243   0.053   4.283   3.074
 1405SOL     OW 4244   0.189   4.244   3.584
 1405SOL    HW1 4245   0.248   4.204   3.514
 1405SOL    HW2 4246   0.131   4.315   3.543
 1406SOL     OW 4247   1.369   4.674   3.522
 1406SOL    HW1 4248   1.408   4.763   3.542
 1406SOL    HW2 4249   1.379   4.654   3.425
 1407SOL     OW 4250   0.815   4.296   2.187
 1407SOL    HW1 4251   0.822   4.207   2.141
 1407SOL    HW2 4252   0.721   4.330   2.179
 1408SOL     OW 4253   1.657   4.328   3.068
 1408SOL    HW1 4254   1.619   4.259   3.130
 1408SOL    HW2 4255   1.739   4.292   3.024
 1409SOL     OW 4256   0.671   4.188   3.131
 1409SOL    HW1 4257   0.637   4.099   3.101
 1409SOL    HW2 4258   0.697   4.242   3.051
 1410SOL     OW 4259   0.473   4.224   2.053
 1410SOL    HW1 4260   0.534   4.304   2.057
 1410SOL    HW2 4261   0.378   4.255   2.060
 1411SOL     OW 4262   0.159   4.861   3.328
 1411SOL    HW1 4263   0.181   4.800   3.404
 1411SOL    HW2 4264   0.169   4.812   3.242
 1412SOL     OW 4265   1.347   4.783   3.096
 1412SOL    HW1 4266   1.371   4.720   3.022
 1412SOL    HW2 4267   1.257   4.823   3.078
 1413SOL     OW 4268   1.302   4.579   2.171
 1413SOL    HW1 4269   1.216   4.548   2.213
 1413SOL    HW2 4270   1.298   4.565   2.072
 1414SOL     OW 4271   0.083   4.982   2.884
 1414SOL    HW1 4272   0.078   4.981   2.984
 1414SOL    HW2 4273   0.000   4.941   2.846
 1415SOL     OW 4274   1.726   3.859   2.385
 1415SOL    HW1 4275   1.799   3.842   2.318
 1415SOL    HW2 4276   1.695   3.772   2.423
 1416SOL     OW 4277   1.280   4.651   2.534
 1416SOL    HW1 4278   1.340   4.570   2.536
 1416SOL    HW2 4279   1.320   4.720   2.474
 1417SOL     OW 4280   0.830   4.997   3.284
 1417SOL    HW1 4281   0.825   5.030   3.379
 1417SOL    HW2 4282   0.744   5.016   3.238
 1418SOL     OW 4283   1.841   3.899   2.825
 1418SOL    HW1 4284   1.880   3.814   2.789
 1418SOL    HW2 4285   1.743   3.901   2.806
 1419SOL     OW 4286   0.263   4.050   2.582
 1419SOL    HW1 4287   0.184   4.101   2.548
 1419SOL    HW2 4288   0.254   4.035   2.680
 1420SOL     OW 4289   1.194   5.336   1.893
 1420SOL    HW1 4290   1.200   5.243   1.930
 1420SOL    HW2 4291   1.135   5.336   1.813
 1421SOL     OW 4292   0.822   4.726   3.234
 1421SOL    HW1 4293   0.862   4.725   3.142
 1421SOL    HW2 4294   0.832   4.818   3.274
 1422SOL     OW 4295   0.916   4.634   2.153
 1422SOL    HW1 4296   0.979   4.672   2.085
 1422SOL    HW2 4297   0.956   4.551   2.192
 1423SOL     OW 4298   0.372   5.012   3.352
 1423SOL    HW1 4299   0.359   5.105   3.318
 1423SOL    HW2 4300   0.288   4.960   3.339
 1424SOL     OW 4301   1.614   5.016   3.151
 1424SOL    HW1 4302   1.674   5.019   3.231
 1424SOL    HW2 4303   1.539   5.080   3.164
 1425SOL     OW 4304   1.039   4.822   2.558
 1425SOL    HW1 4305   0.969   4.775   2.612
 1425SOL    HW2 4306   1.098   4.754   2.515
 1426SOL     OW 4307   1.014   3.960   2.833
 1426SOL    HW1 4308   1.006   3.924   2.740
 1426SOL    HW2 4309   1.012   3.884   2.898
 1427SOL     OW 4310   1.709   4.109   3.243
 1427SOL    HW1 4311   1.782   4.178   3.247
 1427SOL    HW2 4312   1.737   4.034   3.184
 1428SOL     OW 4313   0.105   4.737   3.588
 1428SOL    HW1 4314   0.028   4.704   3.642
 1428SOL    HW2 4315   0.190   4.707   3.630
 1429SOL     OW 4316   0.672   3.927   3.351
 1429SOL    HW1 4317   0.762   3.911   3.311
 1429SOL    HW2 4318   0.680   3.932   3.450
 1430SOL     OW 4319   0.075   4.069   1.895
 1430SOL    HW1 4320  -0.017   4.041   1.866
 1430SOL    HW2 4321   0.106   4.146   1.839
 1431SOL     OW 4322   1.440   4.580   3.260
 1431SOL    HW1 4323   1.383   4.632   3.197
 1431SOL    HW2 4324   1.536   4.592   3.236
 1432SOL     OW 4325   0.072   3.890   2.180
 1432SOL    HW1 4326   0.055   3.973   2.126
 1432SOL    HW2 4327   0.162   3.853   2.158
 1433SOL     OW 4328   0.613   4.566   3.293
 1433SOL    HW1 4329   0.669   4.647   3.276
 1433SOL    HW2 4330   0.672   4.486   3.296
 1434SOL     OW 4331   0.716   4.289   3.570
 1434SOL    HW1 4332   0.735   4.354   3.644
 1434SOL    HW2 4333   0.776   4.209   3.579
 1435SOL     OW 4334   1.450   4.944   3.495
 1435SOL    HW1 4335   1.441   4.934   3.594
 1435SOL    HW2 4336   1.546   4.937   3.469
 1436SOL     OW 4337   1.674   4.607   3.116
 1436SOL    HW1 4338   1.647   4.518   3.079
 1436SOL    HW2 4339   1.675   4.675   3.043
 1437SOL     OW 4340   1.225   4.049   2.311
 1437SOL    HW1 4341   1.290   3.975   2.300
 1437SOL    HW2 4342   1.245   4.099   2.395
 1438SOL     OW 4343   0.594   4.469   2.514
 1438SOL    HW1 4344   0.644   4.554   2.495
 1438SOL    HW2 4345   0.506   4.471   2.466
 1439SOL     OW 4346   1.777   4.066   3.504
 1439SOL    HW1 4347   1.760   4.097   3.410
 1439SOL    HW2 4348   1.693   4.029   3.542
 1440SOL     OW 4349   1.730   4.658   3.379
 1440SOL    HW1 4350   1.768   4.749   3.394
 1440SOL    HW2 4351   1.722   4.641   3.280
 1441SOL     OW 4352   0.859   4.680   2.723
 1441SOL    HW1 4353   0.913   4.611   2.771
 1441SOL    HW2 4354   0.827   4.749   2.789
 1442SOL     OW 4355   1.083   4.708   1.949
 1442SOL    HW1 4356   1.060   4.761   1.867
 1442SOL    HW2 4357   1.164   4.652   1.930
 1443SOL     OW 4358   0.079   4.964   2.515
 1443SOL    HW1 4359   0.078   4.917   2.603
 1443SOL    HW2 4360   0.161   4.936   2.464
 1444SOL     OW 4361   1.824   3.916   3.089
 1444SOL    HW1 4362   1.820   3.826   3.133
 1444SOL    HW2 4363   1.827   3.905   2.990
 1445SOL     OW 4364   0.428   4.148   2.382
 1445SOL    HW1 4365   0.458   4.076   2.320
 1445SOL    HW2 4366   0.389   4.108   2.465
 1446SOL     OW 4367   0.317   4.271   3.142
 1446SOL    HW1 4368   0.355   4.212   3.214
 1446SOL    HW2 4369   0.357   4.245   3.054
 1447SOL     OW 4370   1.424   3.938   2.974
 1447SOL    HW1 4371   1.476   3.873   3.029
 1447SOL    HW2 4372   1.375   4.001   3.035
 1448SOL     OW 4373   1.001   3.758   3.016
 1448SOL    HW1 4374   0.938   3.686   2.985
 1448SOL    HW2 4375   1.094   3.722   3.016
 1449SOL     OW 4376   0.770   5.054   2.163
 1449SOL    HW1 4377   0.724   4.967   2.180
 1449SOL    HW2 4378   0.861   5.051   2.204
 1450SOL     OW 4379   1.352   3.776   2.030
 1450SOL    HW1 4380   1.387   3.735   1.946
 1450SOL    HW2 4381   1.262   3.738   2.050
 1451SOL     OW 4382   1.300   4.177   2.553
 1451SOL    HW1 4383   1.241   4.257   2.557
 1451SOL    HW2 4384   1.315   4.142   2.646
 1452SOL     OW 4385   1.593   3.945   2.744
 1452SOL    HW1 4386   1.509   3.944   2.798
 1452SOL    HW2 4387   1.595   4.028   2.688
 1453SOL     OW 4388   0.039   4.801   2.162
 1453SOL    HW1 4389   0.138   4.790   2.153
 1453SOL    HW2 4390  -0.001   4.715   2.194
 1454SOL     OW 4391   0.230   4.352   3.837
 1454SOL    HW1 4392   0.137   4.350   3.874
 1454SOL    HW2 4393   0.231   4.313   3.745
 1455SOL     OW 4394   0.225   3.999   4.720
 1455SOL    HW1 4395   0.260   3.982   4.812
 1455SOL    HW2 4396   0.137   3.954   4.708
 1456SOL     OW 4397   0.019   4.092   4.371
 1456SOL    HW1 4398  -0.063   4.135   4.410
 1456SOL    HW2 4399  -0.009   4.019   4.308
 1457SOL     OW 4400   1.135   4.427   4.441
 1457SOL    HW1 4401   1.192   4.505   4.416
 1457SOL    HW2 4402   1.075   4.453   4.517
 1458SOL     OW 4403   1.755   4.331   3.955
 1458SOL    HW1 4404   1.743   4.318   3.856
 1458SOL    HW2 4405   1.725   4.250   4.004
 1459SOL     OW 4406   0.768   4.868   4.747
 1459SOL    HW1 4407   0.690   4.885   4.807
 1459SOL    HW2 4408   0.802   4.955   4.711
 1460SOL     OW 4409   0.685   4.736   4.389
 1460SOL    HW1 4410   0.754   4.720   4.459
 1460SOL    HW2 4411   0.612   4.793   4.427
 1461SOL     OW 4412   0.335   5.159   4.785
 1461SOL    HW1 4413   0.257   5.128   4.732
 1461SOL    HW2 4414   0.393   5.217   4.728
 1462SOL     OW 4415   1.603   4.171   4.461
 1462SOL    HW1 4416   1.529   4.217   4.411
 1462SOL    HW2 4417   1.654   4.239   4.514
 1463SOL     OW 4418   0.240   4.815   4.610
 1463SOL    HW1 4419   0.254   4.731   4.662
 1463SOL    HW2 4420   0.185   4.879   4.665
 1464SOL     OW 4421   0.606   4.688   3.847
 1464SOL    HW1 4422   0.613   4.772   3.793
 1464SOL    HW2 4423   0.652   4.701   3.935
 1465SOL     OW 4424   0.122   4.367   4.287
 1465SOL    HW1 4425   0.077   4.279   4.304
 1465SOL    HW2 4426   0.121   4.421   4.371
 1466SOL     OW 4427   1.689   4.646   4.336
 1466SOL    HW1 4428   1.784   4.617   4.344
 1466SOL    HW2 4429   1.681   4.711   4.261
 1467SOL     OW 4430   1.641   4.832   4.156
 1467SOL    HW1 4431   1.727   4.834   4.104
 1467SOL    HW2 4432   1.655   4.879   4.244
 1468SOL     OW 4433   0.809   3.728   4.226
 1468SOL    HW1 4434   0.849   3.819   4.217
 1468SOL    HW2 4435   0.709   3.736   4.232
 1469SOL     OW 4436   0.197   4.700   4.988
 1469SOL    HW1 4437   0.286   4.655   4.974
 1469SOL    HW2 4438   0.124   4.635   4.969
 1470SOL     OW 4439   1.525   4.723   3.914
 1470SOL    HW1 4440   1.462   4.647   3.927
 1470SOL    HW2 4441   1.573   4.741   4.000
 1471SOL     OW 4442   0.598   4.453   3.994
 1471SOL    HW1 4443   0.622   4.522   3.926
 1471SOL    HW2 4444   0.520   4.486   4.048
 1472SOL     OW 4445   1.281   4.069   4.668
 1472SOL    HW1 4446   1.195   4.019   4.655
 1472SOL    HW2 4447   1.343   4.015   4.724
 1473SOL     OW 4448   0.991   4.134   4.966
 1473SOL    HW1 4449   0.914   4.168   5.020
 1473SOL    HW2 4450   0.957   4.083   4.887
 1474SOL     OW 4451   1.041   4.425   4.153
 1474SOL    HW1 4452   1.067   4.421   4.249
 1474SOL    HW2 4453   0.956   4.374   4.139
 1475SOL     OW 4454   0.076   4.535   4.513
 1475SOL    HW1 4455   0.175   4.523   4.522
 1475SOL    HW2 4456   0.052   4.630   4.534
 1476SOL     OW 4457   0.865   4.072   3.919
 1476SOL    HW1 4458   0.924   4.135   3.870
 1476SOL    HW2 4459   0.884   3.978   3.890
 1477SOL     OW 4460   1.362   4.868   4.269
 1477SOL    HW1 4461   1.445   4.839   4.221
 1477SOL    HW2 4462   1.313   4.935   4.213
 1478SOL     OW 4463   0.550   3.920   4.609
 1478SOL    HW1 4464   0.545   3.915   4.709
 1478SOL    HW2 4465   0.552   4.016   4.580
 1479SOL     OW 4466   1.795   4.790   4.597
 1479SOL    HW1 4467   1.733   4.775   4.521
 1479SOL    HW2 4468   1.743   4.801   4.682
 1480SOL     OW 4469   0.321   4.667   3.966
 1480SOL    HW1 4470   0.403   4.706   3.924
 1480SOL    HW2 4471   0.294   4.585   3.917
 1481SOL     OW 4472   1.458   4.459   4.452
 1481SOL    HW1 4473   1.453   4.394   4.527
 1481SOL    HW2 4474   1.538   4.518   4.465
 1482SOL     OW 4475   1.632   5.101   3.805
 1482SOL    HW1 4476   1.600   5.195   3.795
 1482SOL    HW2 4477   1.556   5.038   3.793
 1483SOL     OW 4478   1.400   3.831   4.150
 1483SOL    HW1 4479   1.376   3.794   4.060
 1483SOL    HW2 4480   1.499   3.847   4.154
 1484SOL     OW 4481   0.382   4.424   4.204
 1484SOL    HW1 4482   0.427   4.334   4.201
 1484SOL    HW2 4483   0.288   4.413   4.237
 1485SOL     OW 4484   0.614   3.846   3.841
 1485SOL    HW1 4485   0.712   3.824   3.848
 1485SOL    HW2 4486   0.583   3.829   3.748
 1486SOL     OW 4487   0.803   5.126   4.648
 1486SOL    HW1 4488   0.893   5.140   4.606
 1486SOL    HW2 4489   0.732   5.128   4.577
 1487SOL     OW 4490   0.922   4.227   4.623
 1487SOL    HW1 4491   0.897   4.218   4.527
 1487SOL    HW2 4492   0.970   4.145   4.654
 1488SOL     OW 4493   0.539   3.788   4.236
 1488SOL    HW1 4494   0.458   3.789   4.294
 1488SOL    HW2 4495   0.542   3.871   4.181
 1489SOL     OW 4496   1.434   4.912   3.765
 1489SOL    HW1 4497   1.466   4.836   3.822
 1489SOL    HW2 4498   1.342   4.939   3.795
 1490SOL     OW 4499   0.297   3.759   3.895
 1490SOL    HW1 4500   0.346   3.843   3.874
 1490SOL    HW2 4501   0.359   3.694   3.940
 1491SOL     OW 4502   0.935   3.960   4.204
 1491SOL    HW1 4503   0.887   4.001   4.126
 1491SOL    HW2 4504   1.034   3.958   4.185
 1492SOL     OW 4505   0.459   4.876   4.465
 1492SOL    HW1 4506   0.388   4.849   4.530
 1492SOL    HW2 4507   0.433   4.848   4.372
 1493SOL     OW 4508   1.032   4.273   3.740
 1493SOL    HW1 4509   0.991   4.355   3.701
 1493SOL    HW2 4510   1.096   4.299   3.813
 1494SOL     OW 4511   0.561   3.946   4.871
 1494SOL    HW1 4512   0.599   3.862   4.908
 1494SOL    HW2 4513   0.473   3.965   4.915
 1495SOL     OW 4514   0.866   4.178   4.366
 1495SOL    HW1 4515   0.834   4.250   4.304
 1495SOL    HW2 4516   0.890   4.097   4.313
 1496SOL     OW 4517   1.017   3.763   4.477
 1496SOL    HW1 4518   0.945   3.768   4.408
 1496SOL    HW2 4519   0.993   3.694   4.546
 1497SOL     OW 4520   1.429   4.897   4.591
 1497SOL    HW1 4521   1.374   4.813   4.584
 1497SOL    HW2 4522   1.455   4.926   4.499
 1498SOL     OW 4523   1.466   4.314   4.716
 1498SOL    HW1 4524   1.436   4.219   4.723
 1498SOL    HW2 4525   1.539   4.330   4.782
 1499SOL     OW 4526   1.857   4.557   4.101
 1499SOL    HW1 4527   1.899   4.493   4.165
 1499SOL    HW2 4528   1.819   4.506   4.023
 1500SOL     OW 4529   1.390   4.299   3.802
 1500SOL    HW1 4530   1.336   4.278   3.883
 1500SOL    HW2 4531   1.481   4.258   3.811
 1501SOL     OW 4532   0.527   3.980   4.052
 1501SOL    HW1 4533   0.554   3.921   3.977
 1501SOL    HW2 4534   0.527   4.075   4.021
 1502SOL     OW 4535   1.638   4.823   4.803
 1502SOL    HW1 4536   1.643   4.904   4.862
 1502SOL    HW2 4537   1.552   4.825   4.752
 1503SOL     OW 4538   0.705   4.774   4.092
 1503SOL    HW1 4539   0.691   4.781   4.191
 1503SOL    HW2 4540   0.789   4.723   4.074
 1504SOL     OW 4541   0.410   4.537   4.975
 1504SOL    HW1 4542   0.496   4.549   5.025
 1504SOL    HW2 4543   0.368   4.450   5.002
 1505SOL     OW 4544   1.274   4.110   4.986
 1505SOL    HW1 4545   1.295   4.184   5.050
 1505SOL    HW2 4546   1.185   4.127   4.943
 1506SOL     OW 4547   0.367   4.824   4.225
 1506SOL    HW1 4548   0.360   4.907   4.169
 1506SOL    HW2 4549   0.371   4.744   4.165
 1507SOL     OW 4550   0.566   4.261   4.589
 1507SOL    HW1 4551   0.578   4.327   4.515
 1507SOL    HW2 4552   0.612   4.295   4.672
 1508SOL     OW 4553   1.582   4.363   4.196
 1508SOL    HW1 4554   1.551   4.424   4.269
 1508SOL    HW2 4555   1.632   4.415   4.127
 1509SOL     OW 4556   0.573   4.594   4.753
 1509SOL    HW1 4557   0.617   4.683   4.744
 1509SOL    HW2 4558   0.510   4.594   4.830
 1510SOL     OW 4559   1.360   4.586   4.769
 1510SOL    HW1 4560   1.285   4.586   4.703
 1510SOL    HW2 4561   1.397   4.494   4.778
 1511SOL     OW 4562   1.209   4.249   3.999
 1511SOL    HW1 4563   1.222   4.165   4.053
 1511SOL    HW2 4564   1.180   4.323   4.059
 1512SOL     OW 4565   0.307   3.937   4.955
 1512SOL    HW1 4566   0.284   3.974   5.045
 1512SOL    HW2 4567   0.277   3.842   4.949
 1513SOL     OW 4568   0.037   5.034   5.006
 1513SOL    HW1 4569   0.090   4.985   5.074
 1513SOL    HW2 4570   0.059   5.132   5.011
 1514SOL     OW 4571   0.732   4.358   4.788
 1514SOL    HW1 4572   0.791   4.332   4.712
 1514SOL    HW2 4573   0.704   4.454   4.777
 1515SOL     OW 4574   0.307   3.787   4.342
 1515SOL    HW1 4575   0.296   3.881   4.375
 1515SOL    HW2 4576   0.302   3.724   4.419
 1516SOL     OW 4577   1.622   4.091   4.098
 1516SOL    HW1 4578   1.624   4.015   4.162
 1516SOL    HW2 4579   1.574   4.168   4.138
 1517SOL     OW 4580   1.023   4.490   4.690
 1517SOL    HW1 4581   1.038   4.511   4.786
 1517SOL    HW2 4582   0.993   4.395   4.681
 1518SOL     OW 4583   1.540   3.998   3.849
 1518SOL    HW1 4584   1.479   3.923   3.872
 1518SOL    HW2 4585   1.562   4.050   3.932
 1519SOL     OW 4586   1.303   4.562   3.766
 1519SOL    HW1 4587   1.337   4.469   3.781
 1519SOL    HW2 4588   1.321   4.589   3.671
 1520SOL     OW 4589   0.319   4.534   4.673
 1520SOL    HW1 4590   0.412   4.570   4.678
 1520SOL    HW2 4591   0.313   4.449   4.725
 1521SOL     OW 4592   0.339   4.233   4.730
 1521SOL    HW1 4593   0.287   4.150   4.713
 1521SOL    HW2 4594   0.416   4.238   4.666
 1522SOL     OW 4595   1.160   3.931   5.201
 1522SOL    HW1 4596   1.160   3.995   5.278
 1522SOL    HW2 4597   1.188   3.979   5.118
 1523SOL     OW 4598   0.008   5.050   3.924
 1523SOL    HW1 4599  -0.085   5.071   3.893
 1523SOL    HW2 4600   0.018   4.951   3.937
 1524SOL     OW 4601   1.002   4.520   4.962
 1524SOL    HW1 4602   1.043   4.488   5.048
 1524SOL    HW2 4603   0.906   4.493   4.959
 1525SOL     OW 4604   0.040   4.268   4.838
 1525SOL    HW1 4605   0.125   4.235   4.797
 1525SOL    HW2 4606   0.053   4.283   4.936
 1526SOL     OW 4607   0.815   4.296   4.049
 1526SOL    HW1 4608   0.822   4.207   4.003
 1526SOL    HW2 4609   0.721   4.330   4.041
 1527SOL     OW 4610   1.657   4.328   4.930
 1527SOL    HW1 4611   1.619   4.259   4.992
 1527SOL    HW2 4612   1.739   4.292   4.886
 1528SOL     OW 4613   0.671   4.188   4.993
 1528SOL    HW1 4614   0.637   4.099   4.963
 1528SOL    HW2 4615   0.697   4.242   4.913
 1529SOL     OW 4616   0.473   4.224   3.915
 1529SOL    HW1 4617   0.534   4.304   3.919
 1529SOL    HW2 4618   0.378   4.255   3.922
 1530SOL     OW 4619   1.347   4.783   4.958
 1530SOL    HW1 4620   1.371   4.720   4.884
 1530SOL    HW2 4621   1.257   4.823   4.940
 1531SOL     OW 4622   1.302   4.579   4.033
 1531SOL    HW1 4623   1.216   4.548   4.075
 1531SOL    HW2 4624   1.298   4.565   3.934
 1532SOL     OW 4625   0.083   4.982   4.746
 1532SOL    HW1 4626   0.078   4.981   4.846
 1532SOL    HW2 4627   0.000   4.941   4.708
 1533SOL     OW 4628   1.726   3.859   4.247
 1533SOL    HW1 4629   1.799   3.842   4.180
 1533SOL    HW2 4630   1.695   3.772   4.285
 1534SOL     OW 4631   1.280   4.651   4.396
 1534SOL    HW1 4632   1.340   4.570   4.398
 1534SOL    HW2 4633   1.320   4.720   4.336
 1535SOL     OW 4634   1.841   3.899   4.687
 1535SOL    HW1 4635   1.880   3.814   4.651
 1535SOL    HW2 4636   1.743   3.901   4.668
 1536SOL     OW 4637   0.263   4.050   4.444
 1536SOL    HW1 4638   0.184   4.101   4.410
 1536SOL    HW2 4639   0.254   4.035   4.542
 1537SOL     OW 4640   1.194   5.336   3.755
 1537SOL    HW1 4641   1.200   5.243   3.792
 1537SOL    HW2 4642   1.135   5.336   3.675
 1538SOL     OW 4643   0.822   4.726   5.096
 1538SOL    HW1 4644   0.862   4.725   5.004
 1538SOL    HW2 4645   0.832   4.818   5.136
 1539SOL     OW 4646   0.916   4.634   4.015
 1539SOL    HW1 4647   0.979   4.672   3.947
 1539SOL    HW2 4648   0.956   4.551   4.054
 1540SOL     OW 4649   1.039   4.822   4.420
 1540SOL    HW1 4650   0.969   4.775   4.474
 1540SOL    HW2 4651   1.098   4.754   4.377
 1541SOL     OW 4652   1.014   3.960   4.695
 1541SOL    HW1 4653   1.006   3.924   4.602
 1541SOL    HW2 4654   1.012   3.884   4.760
 1542SOL     OW 4655   1.709   4.109   5.105
 1542SOL    HW1 4656   1.782   4.178   5.109
 1542SOL    HW2 4657   1.737   4.034   5.046
 1543SOL     OW 4658   0.075   4.069   3.757
 1543SOL    HW1 4659  -0.017   4.041   3.728
 1543SOL    HW2 4660   0.106   4.146   3.701
 1544SOL     OW 4661   0.072   3.890   4.042
 1544SOL    HW1 4662   0.055   3.973   3.988
 1544SOL    HW2 4663   0.162   3.853   4.020
 1545SOL     OW 4664   1.674   4.607   4.978
 1545SOL    HW1 4665   1.647   4.518   4.941
 1545SOL    HW2 4666   1.675   4.675   4.905
 1546SOL     OW 4667   1.225   4.049   4.173
 1546SOL    HW1 4668   1.290   3.975   4.162
 1546SOL    HW2 4669   1.245   4.099   4.257
 1547SOL     OW 4670   0.594   4.469   4.376
 1547SOL    HW1 4671   0.644   4.554   4.357
 1547SOL    HW2 4672   0.506   4.471   4.328
 1548SOL     OW 4673   1.730   4.658   5.241
 1548SOL    HW1 4674   1.768   4.749   5.256
 1548SOL    HW2 4675   1.722   4.641   5.142
 1549SOL     OW 4676   0.859   4.680   4.585
 1549SOL    HW1 4677   0.913   4.611   4.633
 1549SOL    HW2 4678   0.827   4.749   4.651
 1550SOL     OW 4679   1.083   4.708   3.811
 1550SOL    HW1 4680   1.060   4.761   3.729
 1550SOL    HW2 4681   1.164   4.652   3.792
 1551SOL     OW 4682   0.079   4.964   4.377
 1551SOL    HW1 4683   0.078   4.917   4.465
 1551SOL    HW2 4684   0.161   4.936   4.326
 1552SOL     OW 4685   1.824   3.916   4.951
 1552SOL    HW1 4686   1.820   3.826   4.995
 1552SOL    HW2 4687   1.827   3.905   4.852
 1553SOL     OW 4688   0.428   4.148   4.244
 1553SOL    HW1 4689   0.458   4.076   4.182
 1553SOL    HW2 4690   0.389   4.108   4.327
 1554SOL     OW 4691   1.424   3.938   4.836
 1554SOL    HW1 4692   1.476   3.873   4.891
 1554SOL    HW2 4693   1.375   4.001   4.897
 1555SOL     OW 4694   1.001   3.758   4.878
 1555SOL    HW1 4695   0.938   3.686   4.847
 1555SOL    HW2 4696   1.094   3.722   4.878
 1556SOL     OW 4697   0.770   5.054   4.025
 1556SOL    HW1 4698   0.724   4.967   4.042
 1556SOL    HW2 4699   0.861   5.051   4.066
 1557SOL     OW 4700   1.352   3.776   3.892
 1557SOL    HW1 4701   1.387   3.735   3.808
 1557SOL    HW2 4702   1.262   3.738   3.912
 1558SOL     OW 4703   1.300   4.177   4.415
 1558SOL    HW1 4704   1.241   4.257   4.419
 1558SOL    HW2 4705   1.315   4.142   4.508
 1559SOL     OW 4706   1.593   3.945   4.606
 1559SOL    HW1 4707   1.509   3.944   4.660
 1559SOL    HW2 4708   1.595   4.028   4.550
 1560SOL     OW 4709   0.039   4.801   4.024
 1560SOL    HW1 4710   0.138   4.790   4.015
 1560SOL    HW2 4711  -0.001   4.715   4.056
 1561SOL     OW 4712   2.092   0.628   0.113
 1561SOL    HW1 4713   1.999   0.626   0.150
 1561SOL    HW2 4714   2.093   0.589   0.021
 1562SOL     OW 4715   2.087   0.275   0.996
 1562SOL    HW1 4716   2.122   0.258   1.088
 1562SOL    HW2 4717   1.999   0.230   0.984
 1563SOL     OW 4718   1.881   0.368   0.647
 1563SOL    HW1 4719   1.799   0.411   0.686
 1563SOL    HW2 4720   1.853   0.295   0.584
 1564SOL     OW 4721   2.431   1.275   1.165
 1564SOL    HW1 4722   2.338   1.268   1.128
 1564SOL    HW2 4723   2.442   1.364   1.209
 1565SOL     OW 4724   3.417   1.511   0.703
 1565SOL    HW1 4725   3.360   1.495   0.784
 1565SOL    HW2 4726   3.358   1.521   0.623
 1566SOL     OW 4727   2.997   0.703   0.717
 1566SOL    HW1 4728   3.054   0.781   0.692
 1566SOL    HW2 4729   2.937   0.729   0.793
 1567SOL     OW 4730   3.617   0.607   0.231
 1567SOL    HW1 4731   3.605   0.594   0.132
 1567SOL    HW2 4732   3.587   0.526   0.280
 1568SOL     OW 4733   2.630   1.144   1.023
 1568SOL    HW1 4734   2.552   1.161   1.083
 1568SOL    HW2 4735   2.664   1.231   0.987
 1569SOL     OW 4736   2.712   0.798   1.823
 1569SOL    HW1 4737   2.708   0.874   1.888
 1569SOL    HW2 4738   2.734   0.834   1.732
 1570SOL     OW 4739   2.547   1.012   0.665
 1570SOL    HW1 4740   2.616   0.996   0.735
 1570SOL    HW2 4741   2.474   1.069   0.703
 1571SOL     OW 4742   2.548   1.161   1.803
 1571SOL    HW1 4743   2.608   1.240   1.817
 1571SOL    HW2 4744   2.462   1.192   1.762
 1572SOL     OW 4745   2.197   1.435   1.061
 1572SOL    HW1 4746   2.119   1.404   1.008
 1572SOL    HW2 4747   2.255   1.493   1.004
 1573SOL     OW 4748   3.322   1.505   1.339
 1573SOL    HW1 4749   3.346   1.599   1.365
 1573SOL    HW2 4750   3.306   1.451   1.421
 1574SOL     OW 4751   2.300   0.392   1.499
 1574SOL    HW1 4752   2.382   0.336   1.508
 1574SOL    HW2 4753   2.219   0.334   1.503
 1575SOL     OW 4754   3.465   0.447   0.737
 1575SOL    HW1 4755   3.391   0.493   0.687
 1575SOL    HW2 4756   3.516   0.515   0.790
 1576SOL     OW 4757   2.093   1.713   0.483
 1576SOL    HW1 4758   2.127   1.790   0.537
 1576SOL    HW2 4759   2.137   1.713   0.393
 1577SOL     OW 4760   2.989   1.341   1.690
 1577SOL    HW1 4761   3.036   1.341   1.778
 1577SOL    HW2 4762   2.941   1.254   1.679
 1578SOL     OW 4763   2.092   1.434   0.538
 1578SOL    HW1 4764   2.066   1.530   0.538
 1578SOL    HW2 4765   2.021   1.380   0.583
 1579SOL     OW 4766   2.102   1.091   0.886
 1579SOL    HW1 4767   2.116   1.007   0.938
 1579SOL    HW2 4768   2.047   1.155   0.941
 1580SOL     OW 4769   2.482   1.786   1.439
 1580SOL    HW1 4770   2.390   1.769   1.474
 1580SOL    HW2 4771   2.510   1.878   1.465
 1581SOL     OW 4772   2.468   0.964   0.123
 1581SOL    HW1 4773   2.475   1.048   0.069
 1581SOL    HW2 4774   2.514   0.977   0.211
 1582SOL     OW 4775   3.456   0.114   1.480
 1582SOL    HW1 4776   3.438   0.181   1.408
 1582SOL    HW2 4777   3.453   0.160   1.569
 1583SOL     OW 4778   1.984   0.643   0.563
 1583SOL    HW1 4779   1.939   0.555   0.580
 1583SOL    HW2 4780   1.983   0.697   0.647
 1584SOL     OW 4781   3.704   1.767   0.359
 1584SOL    HW1 4782   3.758   1.738   0.439
 1584SOL    HW2 4783   3.734   1.857   0.330
 1585SOL     OW 4784   1.889   1.596   0.117
 1585SOL    HW1 4785   1.870   1.500   0.138
 1585SOL    HW2 4786   1.856   1.654   0.192
 1586SOL     OW 4787   3.551   0.922   0.612
 1586SOL    HW1 4788   3.646   0.893   0.620
 1586SOL    HW2 4789   3.543   0.987   0.537
 1587SOL     OW 4790   3.503   1.108   0.432
 1587SOL    HW1 4791   3.589   1.110   0.380
 1587SOL    HW2 4792   3.517   1.155   0.520
 1588SOL     OW 4793   1.975   0.737   1.597
 1588SOL    HW1 4794   2.063   0.724   1.642
 1588SOL    HW2 4795   1.962   0.834   1.575
 1589SOL     OW 4796   2.475   1.365   0.726
 1589SOL    HW1 4797   2.426   1.278   0.735
 1589SOL    HW2 4798   2.452   1.408   0.639
 1590SOL     OW 4799   3.155   1.228   1.423
 1590SOL    HW1 4800   3.192   1.155   1.365
 1590SOL    HW2 4801   3.207   1.233   1.508
 1591SOL     OW 4802   2.671   0.004   0.502
 1591SOL    HW1 4803   2.711   0.095   0.493
 1591SOL    HW2 4804   2.571   0.012   0.508
 1592SOL     OW 4805   2.059   0.976   1.264
 1592SOL    HW1 4806   2.148   0.931   1.250
 1592SOL    HW2 4807   1.986   0.911   1.245
 1593SOL     OW 4808   3.387   0.999   0.190
 1593SOL    HW1 4809   3.324   0.923   0.203
 1593SOL    HW2 4810   3.435   1.017   0.276
 1594SOL     OW 4811   3.049   1.792   1.616
 1594SOL    HW1 4812   3.073   1.852   1.540
 1594SOL    HW2 4813   3.056   1.697   1.586
 1595SOL     OW 4814   2.179   0.251   1.801
 1595SOL    HW1 4815   2.250   0.322   1.807
 1595SOL    HW2 4816   2.091   0.290   1.829
 1596SOL     OW 4817   3.328   1.417   0.953
 1596SOL    HW1 4818   3.269   1.423   1.033
 1596SOL    HW2 4819   3.313   1.329   0.907
 1597SOL     OW 4820   3.529   1.714   0.572
 1597SOL    HW1 4821   3.488   1.691   0.484
 1597SOL    HW2 4822   3.511   1.640   0.637
 1598SOL     OW 4823   2.460   0.729   0.270
 1598SOL    HW1 4824   2.484   0.798   0.202
 1598SOL    HW2 4825   2.382   0.762   0.324
 1599SOL     OW 4826   3.143   0.345   0.944
 1599SOL    HW1 4827   3.057   0.295   0.931
 1599SOL    HW2 4828   3.205   0.291   1.000
 1600SOL     OW 4829   3.438   1.662   0.307
 1600SOL    HW1 4830   3.527   1.708   0.310
 1600SOL    HW2 4831   3.417   1.638   0.212
 1601SOL     OW 4832   2.669   0.605   1.465
 1601SOL    HW1 4833   2.622   0.602   1.554
 1601SOL    HW2 4834   2.618   0.550   1.399
 1602SOL     OW 4835   3.256   0.469   1.674
 1602SOL    HW1 4836   3.236   0.512   1.762
 1602SOL    HW2 4837   3.334   0.407   1.683
 1603SOL     OW 4838   2.835   0.890   1.572
 1603SOL    HW1 4839   2.881   0.806   1.543
 1603SOL    HW2 4840   2.779   0.924   1.497
 1604SOL     OW 4841   2.853   0.410   1.242
 1604SOL    HW1 4842   2.776   0.444   1.296
 1604SOL    HW2 4843   2.819   0.359   1.163
 1605SOL     OW 4844   2.903   0.701   0.429
 1605SOL    HW1 4845   2.929   0.697   0.525
 1605SOL    HW2 4846   2.818   0.650   0.415
 1606SOL     OW 4847   1.938   0.811   0.789
 1606SOL    HW1 4848   2.037   0.799   0.798
 1606SOL    HW2 4849   1.914   0.906   0.810
 1607SOL     OW 4850   1.992   1.821   1.571
 1607SOL    HW1 4851   1.982   1.806   1.670
 1607SOL    HW2 4852   1.906   1.857   1.535
 1608SOL     OW 4853   2.727   0.348   0.195
 1608SOL    HW1 4854   2.786   0.411   0.146
 1608SOL    HW2 4855   2.746   0.254   0.166
 1609SOL     OW 4856   3.581   0.585   1.831
 1609SOL    HW1 4857   3.555   0.674   1.795
 1609SOL    HW2 4858   3.579   0.517   1.758
 1610SOL     OW 4859   3.224   1.144   0.545
 1610SOL    HW1 4860   3.307   1.115   0.497
 1610SOL    HW2 4861   3.175   1.211   0.489
 1611SOL     OW 4862   2.412   0.196   0.885
 1611SOL    HW1 4863   2.407   0.191   0.985
 1611SOL    HW2 4864   2.414   0.292   0.856
 1612SOL     OW 4865   2.870   1.456   0.477
 1612SOL    HW1 4866   2.824   1.528   0.425
 1612SOL    HW2 4867   2.866   1.476   0.575
 1613SOL     OW 4868   2.213   1.801   0.853
 1613SOL    HW1 4869   2.263   1.715   0.859
 1613SOL    HW2 4870   2.278   1.878   0.850
 1614SOL     OW 4871   3.657   1.066   0.873
 1614SOL    HW1 4872   3.595   1.051   0.797
 1614SOL    HW2 4873   3.605   1.077   0.958
 1615SOL     OW 4874   3.089   1.550   1.506
 1615SOL    HW1 4875   3.095   1.473   1.570
 1615SOL    HW2 4876   3.037   1.524   1.426
 1616SOL     OW 4877   2.183   0.943   0.242
 1616SOL    HW1 4878   2.265   0.982   0.200
 1616SOL    HW2 4879   2.156   0.861   0.193
 1617SOL     OW 4880   3.320   0.735   0.728
 1617SOL    HW1 4881   3.315   0.670   0.803
 1617SOL    HW2 4882   3.400   0.794   0.741
 1618SOL     OW 4883   2.323   1.266   1.727
 1618SOL    HW1 4884   2.273   1.267   1.641
 1618SOL    HW2 4885   2.260   1.248   1.803
 1619SOL     OW 4886   2.973   1.776   0.237
 1619SOL    HW1 4887   2.913   1.714   0.287
 1619SOL    HW2 4888   3.004   1.732   0.152
 1620SOL     OW 4889   2.064   0.285   1.498
 1620SOL    HW1 4890   1.984   0.345   1.485
 1620SOL    HW2 4891   2.054   0.236   1.584
 1621SOL     OW 4892   3.494   1.377   0.081
 1621SOL    HW1 4893   3.462   1.471   0.071
 1621SOL    HW2 4894   3.418   1.314   0.069
 1622SOL     OW 4895   2.326   1.743   0.323
 1622SOL    HW1 4896   2.359   1.782   0.409
 1622SOL    HW2 4897   2.402   1.736   0.258
 1623SOL     OW 4898   3.262   0.107   0.426
 1623SOL    HW1 4899   3.238   0.070   0.336
 1623SOL    HW2 4900   3.361   0.123   0.430
 1624SOL     OW 4901   2.111   1.785   1.241
 1624SOL    HW1 4902   2.168   1.720   1.291
 1624SOL    HW2 4903   2.095   1.752   1.148
 1625SOL     OW 4904   2.802   1.698   0.904
 1625SOL    HW1 4905   2.882   1.641   0.925
 1625SOL    HW2 4906   2.753   1.658   0.827
 1626SOL     OW 4907   2.244   0.700   0.480
 1626SOL    HW1 4908   2.289   0.610   0.477
 1626SOL    HW2 4909   2.150   0.689   0.513
 1627SOL     OW 4910   3.409   0.222   1.729
 1627SOL    HW1 4911   3.404   0.259   1.821
 1627SOL    HW2 4912   3.337   0.153   1.717
 1628SOL     OW 4913   2.476   0.122   0.117
 1628SOL    HW1 4914   2.574   0.100   0.124
 1628SOL    HW2 4915   2.445   0.105   0.024
 1629SOL     OW 4916   2.643   0.264   1.749
 1629SOL    HW1 4917   2.710   0.203   1.792
 1629SOL    HW2 4918   2.570   0.283   1.814
 1630SOL     OW 4919   2.750   1.514   1.195
 1630SOL    HW1 4920   2.727   1.489   1.101
 1630SOL    HW2 4921   2.811   1.445   1.234
 1631SOL     OW 4922   3.213   0.590   1.433
 1631SOL    HW1 4923   3.241   0.547   1.518
 1631SOL    HW2 4924   3.238   0.686   1.434
 1632SOL     OW 4925   2.665   1.402   0.924
 1632SOL    HW1 4926   2.755   1.416   0.882
 1632SOL    HW2 4927   2.594   1.404   0.853
 1633SOL     OW 4928   2.784   0.503   0.899
 1633SOL    HW1 4929   2.759   0.494   0.803
 1633SOL    HW2 4930   2.832   0.421   0.930
 1634SOL     OW 4931   2.401   0.064   0.512
 1634SOL    HW1 4932   2.320   0.065   0.570
 1634SOL    HW2 4933   2.404   0.147   0.457
 1635SOL     OW 4934   3.296   1.188   0.041
 1635SOL    HW1 4935   3.328   1.112   0.098
 1635SOL    HW2 4936   3.204   1.215   0.071
 1636SOL     OW 4937   2.159   0.035   0.171
 1636SOL    HW1 4938   2.208   0.119   0.150
 1636SOL    HW2 4939   2.221  -0.030   0.216
 1637SOL     OW 4940   2.797   0.236   0.480
 1637SOL    HW1 4941   2.749   0.277   0.402
 1637SOL    HW2 4942   2.896   0.234   0.461
 1638SOL     OW 4943   2.938   0.683   1.464
 1638SOL    HW1 4944   2.858   0.622   1.467
 1638SOL    HW2 4945   3.019   0.630   1.440
 1639SOL     OW 4946   3.089   1.570   0.793
 1639SOL    HW1 4947   3.110   1.644   0.728
 1639SOL    HW2 4948   3.157   1.570   0.866
 1640SOL     OW 4949   2.321   1.152   0.741
 1640SOL    HW1 4950   2.250   1.125   0.806
 1640SOL    HW2 4951   2.295   1.124   0.648
 1641SOL     OW 4952   3.133   1.797   0.591
 1641SOL    HW1 4953   3.177   1.861   0.527
 1641SOL    HW2 4954   3.083   1.849   0.661
 1642SOL     OW 4955   2.894   0.549   0.016
 1642SOL    HW1 4956   2.853   0.631  -0.023
 1642SOL    HW2 4957   2.958   0.575   0.089
 1643SOL     OW 4958   1.940   0.556   1.386
 1643SOL    HW1 4959   2.032   0.555   1.345
 1643SOL    HW2 4960   1.934   0.630   1.453
 1644SOL     OW 4961   2.423   0.222   1.147
 1644SOL    HW1 4962   2.461   0.138   1.184
 1644SOL    HW2 4963   2.335   0.241   1.191
 1645SOL     OW 4964   2.728   0.454   0.642
 1645SOL    HW1 4965   2.696   0.526   0.580
 1645SOL    HW2 4966   2.752   0.373   0.589
 1646SOL     OW 4967   2.879   0.039   0.753
 1646SOL    HW1 4968   2.807   0.044   0.684
 1646SOL    HW2 4969   2.855  -0.030   0.822
 1647SOL     OW 4970   3.291   1.173   0.867
 1647SOL    HW1 4971   3.236   1.089   0.860
 1647SOL    HW2 4972   3.317   1.202   0.775
 1648SOL     OW 4973   3.328   0.590   0.992
 1648SOL    HW1 4974   3.298   0.495   0.999
 1648SOL    HW2 4975   3.401   0.606   1.058
 1649SOL     OW 4976   3.719   0.833   0.377
 1649SOL    HW1 4977   3.761   0.769   0.441
 1649SOL    HW2 4978   3.681   0.782   0.299
 1650SOL     OW 4979   2.350   1.385   0.174
 1650SOL    HW1 4980   2.263   1.370   0.221
 1650SOL    HW2 4981   2.333   1.411   0.079
 1651SOL     OW 4982   3.526   1.280   0.657
 1651SOL    HW1 4983   3.625   1.288   0.671
 1651SOL    HW2 4984   3.481   1.364   0.688
 1652SOL     OW 4985   3.252   0.575   0.078
 1652SOL    HW1 4986   3.198   0.554   0.159
 1652SOL    HW2 4987   3.343   0.534   0.087
 1653SOL     OW 4988   2.389   0.256   0.328
 1653SOL    HW1 4989   2.416   0.197   0.253
 1653SOL    HW2 4990   2.389   0.351   0.297
 1654SOL     OW 4991   3.616   1.223   1.588
 1654SOL    HW1 4992   3.707   1.184   1.575
 1654SOL    HW2 4993   3.624   1.319   1.612
 1655SOL     OW 4994   2.926   1.347   1.340
 1655SOL    HW1 4995   2.846   1.324   1.395
 1655SOL    HW2 4996   3.009   1.321   1.389
 1656SOL     OW 4997   3.454   1.629   1.625
 1656SOL    HW1 4998   3.481   1.663   1.535
 1656SOL    HW2 4999   3.533   1.591   1.671
 1657SOL     OW 5000   2.973   1.195   1.100
 1657SOL    HW1 5001   2.933   1.239   1.181
 1657SOL    HW2 5002   2.932   1.232   1.017
 1658SOL     OW 5003   3.500   1.099   1.079
 1658SOL    HW1 5004   3.505   1.180   1.138
 1658SOL    HW2 5005   3.414   1.101   1.028
 1659SOL     OW 5006   2.777   0.089   1.402
 1659SOL    HW1 5007   2.802   0.069   1.307
 1659SOL    HW2 5008   2.849   0.145   1.444
 1660SOL     OW 5009   2.842   1.116   1.719
 1660SOL    HW1 5010   2.743   1.122   1.729
 1660SOL    HW2 5011   2.865   1.036   1.663
 1661SOL     OW 5012   2.567   1.050   0.368
 1661SOL    HW1 5013   2.553   1.057   0.467
 1661SOL    HW2 5014   2.651   0.999   0.350
 1662SOL     OW 5015   2.272   0.813   1.251
 1662SOL    HW1 5016   2.358   0.825   1.301
 1662SOL    HW2 5017   2.230   0.726   1.278
 1663SOL     OW 5018   3.136   0.386   1.262
 1663SOL    HW1 5019   3.157   0.460   1.326
 1663SOL    HW2 5020   3.047   0.403   1.219
 1664SOL     OW 5021   1.926   1.564   1.331
 1664SOL    HW1 5022   1.880   1.646   1.297
 1664SOL    HW2 5023   2.024   1.583   1.340
 1665SOL     OW 5024   2.229   1.100   0.501
 1665SOL    HW1 5025   2.222   1.183   0.445
 1665SOL    HW2 5026   2.233   1.020   0.441
 1666SOL     OW 5027   2.428   0.537   0.865
 1666SOL    HW1 5028   2.440   0.603   0.791
 1666SOL    HW2 5029   2.474   0.571   0.948
 1667SOL     OW 5030   3.114   1.348   0.388
 1667SOL    HW1 5031   3.164   1.425   0.428
 1667SOL    HW2 5032   3.019   1.350   0.420
 1668SOL     OW 5033   3.134   1.445   1.142
 1668SOL    HW1 5034   3.181   1.458   1.229
 1668SOL    HW2 5035   3.068   1.371   1.151
 1669SOL     OW 5036   3.444   0.639   0.472
 1669SOL    HW1 5037   3.413   0.700   0.545
 1669SOL    HW2 5038   3.494   0.691   0.403
 1670SOL     OW 5039   2.216   1.510   1.329
 1670SOL    HW1 5040   2.195   1.466   1.242
 1670SOL    HW2 5041   2.313   1.536   1.332
 1671SOL     OW 5042   2.264   0.751   1.598
 1671SOL    HW1 5043   2.332   0.806   1.551
 1671SOL    HW2 5044   2.304   0.663   1.625
 1672SOL     OW 5045   3.449   0.779   1.670
 1672SOL    HW1 5046   3.357   0.817   1.665
 1672SOL    HW2 5047   3.509   0.826   1.605
 1673SOL     OW 5048   2.875   0.105   1.770
 1673SOL    HW1 5049   2.881   0.190   1.718
 1673SOL    HW2 5050   2.907   0.029   1.713
 1674SOL     OW 5051   2.366   0.050   1.740
 1674SOL    HW1 5052   2.324  -0.007   1.670
 1674SOL    HW2 5053   2.300   0.119   1.772
 1675SOL     OW 5054   2.435   0.870   1.029
 1675SOL    HW1 5055   2.479   0.959   1.020
 1675SOL    HW2 5056   2.372   0.870   1.106
 1676SOL     OW 5057   3.222   0.862   1.045
 1676SOL    HW1 5058   3.147   0.862   0.979
 1676SOL    HW2 5059   3.259   0.770   1.054
 1677SOL     OW 5060   3.071   0.525   0.275
 1677SOL    HW1 5061   3.084   0.441   0.329
 1677SOL    HW2 5062   3.042   0.599   0.335
 1678SOL     OW 5063   2.169   0.213   1.231
 1678SOL    HW1 5064   2.146   0.250   1.321
 1678SOL    HW2 5065   2.139   0.118   1.225
 1679SOL     OW 5066   1.899   1.310   1.282
 1679SOL    HW1 5067   1.952   1.261   1.350
 1679SOL    HW2 5068   1.921   1.408   1.287
 1680SOL     OW 5069   2.594   0.634   1.064
 1680SOL    HW1 5070   2.653   0.608   0.988
 1680SOL    HW2 5071   2.566   0.730   1.053
 1681SOL     OW 5072   3.590   0.935   1.854
 1681SOL    HW1 5073   3.544   0.928   1.765
 1681SOL    HW2 5074   3.528   0.979   1.920
 1682SOL     OW 5075   2.169   0.063   0.618
 1682SOL    HW1 5076   2.158   0.157   0.651
 1682SOL    HW2 5077   2.164   0.000   0.695
 1683SOL     OW 5078   3.484   0.367   0.374
 1683SOL    HW1 5079   3.486   0.291   0.438
 1683SOL    HW2 5080   3.436   0.444   0.414
 1684SOL     OW 5081   2.885   0.766   0.966
 1684SOL    HW1 5082   2.900   0.787   1.062
 1684SOL    HW2 5083   2.855   0.671   0.957
 1685SOL     OW 5084   2.842   1.573   1.700
 1685SOL    HW1 5085   2.822   1.617   1.612
 1685SOL    HW2 5086   2.881   1.482   1.684
 1686SOL     OW 5087   3.721   1.518   1.605
 1686SOL    HW1 5088   3.735   1.545   1.510
 1686SOL    HW2 5089   3.804   1.540   1.658
 1687SOL     OW 5090   2.212   0.898   1.804
 1687SOL    HW1 5091   2.288   0.942   1.852
 1687SOL    HW2 5092   2.247   0.851   1.722
 1688SOL     OW 5093   3.402   0.274   0.125
 1688SOL    HW1 5094   3.341   0.199   0.148
 1688SOL    HW2 5095   3.424   0.326   0.208
 1689SOL     OW 5096   3.165   0.838   0.042
 1689SOL    HW1 5097   3.199   0.745   0.057
 1689SOL    HW2 5098   3.183   0.865  -0.053
 1690SOL     OW 5099   2.930   1.333   0.849
 1690SOL    HW1 5100   2.937   1.249   0.794
 1690SOL    HW2 5101   2.992   1.402   0.813
 1691SOL     OW 5102   2.181   0.810   0.949
 1691SOL    HW1 5103   2.274   0.846   0.954
 1691SOL    HW2 5104   2.175   0.725   1.001
 1692SOL     OW 5105   2.201   0.509   1.006
 1692SOL    HW1 5106   2.149   0.426   0.989
 1692SOL    HW2 5107   2.278   0.514   0.942
 1693SOL     OW 5108   3.000   0.380   1.678
 1693SOL    HW1 5109   2.955   0.443   1.742
 1693SOL    HW2 5110   3.093   0.411   1.661
 1694SOL     OW 5111   3.022   0.207   1.477
 1694SOL    HW1 5112   3.022   0.271   1.554
 1694SOL    HW2 5113   3.050   0.255   1.394
 1695SOL     OW 5114   1.950   1.801   0.927
 1695SOL    HW1 5115   1.908   1.715   0.900
 1695SOL    HW2 5116   2.044   1.804   0.893
 1696SOL     OW 5117   2.366   1.568   0.910
 1696SOL    HW1 5118   2.432   1.642   0.919
 1696SOL    HW2 5119   2.410   1.489   0.868
 1697SOL     OW 5120   2.864   0.796   1.238
 1697SOL    HW1 5121   2.905   0.764   1.324
 1697SOL    HW2 5122   2.768   0.769   1.235
 1698SOL     OW 5123   1.902   0.544   1.114
 1698SOL    HW1 5124   1.987   0.511   1.073
 1698SOL    HW2 5125   1.915   0.559   1.212
 1699SOL     OW 5126   2.051   0.520   1.722
 1699SOL    HW1 5127   2.110   0.480   1.652
 1699SOL    HW2 5128   1.993   0.591   1.681
 1700SOL     OW 5129   3.231   0.950   1.660
 1700SOL    HW1 5130   3.270   1.039   1.680
 1700SOL    HW2 5131   3.241   0.930   1.563
 1701SOL     OW 5132   2.677   0.572   0.325
 1701SOL    HW1 5133   2.684   0.483   0.279
 1701SOL    HW2 5134   2.583   0.606   0.317
 1702SOL     OW 5135   3.519   0.604   1.206
 1702SOL    HW1 5136   3.481   0.535   1.268
 1702SOL    HW2 5137   3.601   0.568   1.162
 1703SOL     OW 5138   2.114   1.564   1.744
 1703SOL    HW1 5139   2.084   1.621   1.820
 1703SOL    HW2 5140   2.107   1.467   1.770
 1704SOL     OW 5141   2.533   0.464   1.269
 1704SOL    HW1 5142   2.499   0.375   1.239
 1704SOL    HW2 5143   2.559   0.518   1.189
 1705SOL     OW 5144   2.792   1.678   1.465
 1705SOL    HW1 5145   2.768   1.660   1.370
 1705SOL    HW2 5146   2.822   1.772   1.475
 1706SOL     OW 5147   2.335   0.500   0.191
 1706SOL    HW1 5148   2.396   0.580   0.195
 1706SOL    HW2 5149   2.240   0.531   0.198
 1707SOL     OW 5150   2.021   1.137   1.466
 1707SOL    HW1 5151   2.043   1.076   1.542
 1707SOL    HW2 5152   2.031   1.088   1.380
 1708SOL     OW 5153   3.209   1.059   1.234
 1708SOL    HW1 5154   3.233   0.996   1.160
 1708SOL    HW2 5155   3.119   1.099   1.216
 1709SOL     OW 5156   3.164   0.855   0.309
 1709SOL    HW1 5157   3.078   0.824   0.351
 1709SOL    HW2 5158   3.160   0.841   0.210
 1710SOL     OW 5159   3.621   1.747   1.154
 1710SOL    HW1 5160   3.682   1.777   1.081
 1710SOL    HW2 5161   3.583   1.658   1.132
 1711SOL     OW 5162   3.114   1.731   1.128
 1711SOL    HW1 5163   3.198   1.736   1.074
 1711SOL    HW2 5164   3.091   1.635   1.146
 1712SOL     OW 5165   1.945   1.258   1.022
 1712SOL    HW1 5166   1.940   1.257   1.122
 1712SOL    HW2 5167   1.862   1.217   0.984
 1713SOL     OW 5168   2.550   1.662   1.716
 1713SOL    HW1 5169   2.494   1.743   1.725
 1713SOL    HW2 5170   2.602   1.666   1.630
 1714SOL     OW 5171   2.765   0.086   0.133
 1714SOL    HW1 5172   2.816   0.087   0.047
 1714SOL    HW2 5173   2.821   0.044   0.204
 1715SOL     OW 5174   3.588   0.135   0.523
 1715SOL    HW1 5175   3.661   0.118   0.456
 1715SOL    HW2 5176   3.557   0.048   0.561
 1716SOL     OW 5177   3.250   1.573   0.477
 1716SOL    HW1 5178   3.317   1.585   0.403
 1716SOL    HW2 5179   3.210   1.662   0.500
 1717SOL     OW 5180   1.992   1.794   1.851
 1717SOL    HW1 5181   1.951   1.720   1.904
 1717SOL    HW2 5182   2.056   1.845   1.909
 1718SOL     OW 5183   3.142   0.927   0.672
 1718SOL    HW1 5184   3.202   0.846   0.674
 1718SOL    HW2 5185   3.182   0.996   0.612
 1719SOL     OW 5186   2.692   1.273   1.422
 1719SOL    HW1 5187   2.687   1.306   1.517
 1719SOL    HW2 5188   2.606   1.292   1.376
 1720SOL     OW 5189   2.534   1.616   0.154
 1720SOL    HW1 5190   2.543   1.626   0.055
 1720SOL    HW2 5191   2.494   1.527   0.175
 1721SOL     OW 5192   3.512   1.720   1.394
 1721SOL    HW1 5193   3.565   1.730   1.310
 1721SOL    HW2 5194   3.485   1.810   1.428
 1722SOL     OW 5195   3.703   0.175   0.963
 1722SOL    HW1 5196   3.742   0.090   0.927
 1722SOL    HW2 5197   3.605   0.177   0.944
 1723SOL     OW 5198   2.125   0.326   0.720
 1723SOL    HW1 5199   2.046   0.377   0.686
 1723SOL    HW2 5200   2.116   0.311   0.818
 1724SOL     OW 5201   3.056   1.612   0.031
 1724SOL    HW1 5202   3.062   1.519   0.068
 1724SOL    HW2 5203   2.997   1.612  -0.049
 1725SOL     OW 5204   2.684   1.002   1.372
 1725SOL    HW1 5205   2.724   1.001   1.280
 1725SOL    HW2 5206   2.694   1.094   1.412
 1726SOL     OW 5207   2.778   0.910   0.291
 1726SOL    HW1 5208   2.841   0.948   0.223
 1726SOL    HW2 5209   2.818   0.827   0.330
 1727SOL     OW 5210   3.366   1.607   0.044
 1727SOL    HW1 5211   3.274   1.644   0.051
 1727SOL    HW2 5212   3.404   1.627  -0.046
 1728SOL     OW 5213   2.234   1.288   1.490
 1728SOL    HW1 5214   2.221   1.381   1.456
 1728SOL    HW2 5215   2.150   1.236   1.477
 1729SOL     OW 5216   3.476   1.292   1.289
 1729SOL    HW1 5217   3.536   1.295   1.369
 1729SOL    HW2 5218   3.401   1.356   1.302
 1730SOL     OW 5219   2.901   1.098   0.696
 1730SOL    HW1 5220   2.831   1.051   0.750
 1730SOL    HW2 5221   2.960   1.030   0.653
 1731SOL     OW 5222   2.876   0.236   0.971
 1731SOL    HW1 5223   2.868   0.200   0.878
 1731SOL    HW2 5224   2.874   0.160   1.036
 1732SOL     OW 5225   2.452   1.487   0.491
 1732SOL    HW1 5226   2.494   1.429   0.421
 1732SOL    HW2 5227   2.408   1.566   0.447
 1733SOL     OW 5228   3.571   0.385   1.381
 1733SOL    HW1 5229   3.644   0.454   1.385
 1733SOL    HW2 5230   3.599   0.310   1.322
 1734SOL     OW 5231   2.117   1.348   0.290
 1734SOL    HW1 5232   2.021   1.349   0.263
 1734SOL    HW2 5233   2.129   1.401   0.374
 1735SOL     OW 5234   1.967   1.013   1.726
 1735SOL    HW1 5235   1.890   0.980   1.780
 1735SOL    HW2 5236   2.052   0.983   1.768
 1736SOL     OW 5237   2.534   0.203   1.489
 1736SOL    HW1 5238   2.624   0.187   1.449
 1736SOL    HW2 5239   2.542   0.208   1.588
 1737SOL     OW 5240   3.302   0.856   1.398
 1737SOL    HW1 5241   3.245   0.908   1.335
 1737SOL    HW2 5242   3.398   0.868   1.374
 1738SOL     OW 5243   1.934   0.166   0.318
 1738SOL    HW1 5244   1.917   0.249   0.264
 1738SOL    HW2 5245   2.024   0.129   0.296
 1739SOL     OW 5246   3.045   1.335   0.119
 1739SOL    HW1 5247   2.946   1.324   0.121
 1739SOL    HW2 5248   3.079   1.350   0.212
 1740SOL     OW 5249   2.475   0.842   1.431
 1740SOL    HW1 5250   2.531   0.923   1.414
 1740SOL    HW2 5251   2.534   0.762   1.434
 1741SOL     OW 5252   3.355   1.767   0.959
 1741SOL    HW1 5253   3.388   1.831   0.890
 1741SOL    HW2 5254   3.421   1.761   1.034
 1742SOL     OW 5255   2.578   0.565   1.708
 1742SOL    HW1 5256   2.597   0.630   1.782
 1742SOL    HW2 5257   2.638   0.485   1.717
 1743SOL     OW 5258   3.312   1.220   1.633
 1743SOL    HW1 5259   3.303   1.210   1.732
 1743SOL    HW2 5260   3.408   1.213   1.607
 1744SOL     OW 5261   2.252   1.741   1.560
 1744SOL    HW1 5262   2.161   1.782   1.558
 1744SOL    HW2 5263   2.245   1.647   1.592
 1745SOL     OW 5264   3.536   0.883   1.254
 1745SOL    HW1 5265   3.509   0.794   1.217
 1745SOL    HW2 5266   3.537   0.951   1.181
 1746SOL     OW 5267   3.087   0.325   0.449
 1746SOL    HW1 5268   3.152   0.251   0.438
 1746SOL    HW2 5269   3.107   0.375   0.533
 1747SOL     OW 5270   2.456   0.745   0.652
 1747SOL    HW1 5271   2.506   0.830   0.633
 1747SOL    HW2 5272   2.368   0.747   0.604
 1748SOL     OW 5273   3.639   0.342   1.642
 1748SOL    HW1 5274   3.622   0.373   1.548
 1748SOL    HW2 5275   3.555   0.305   1.680
 1749SOL     OW 5276   3.592   0.934   1.517
 1749SOL    HW1 5277   3.630   1.025   1.532
 1749SOL    HW2 5278   3.584   0.917   1.418
 1750SOL     OW 5279   2.721   1.374   0.016
 1750SOL    HW1 5280   2.675   1.389   0.104
 1750SOL    HW2 5281   2.765   1.459  -0.014
 1751SOL     OW 5282   2.523   1.790   0.953
 1751SOL    HW1 5283   2.477   1.878   0.940
 1751SOL    HW2 5284   2.622   1.802   0.946
 1752SOL     OW 5285   2.721   0.956   0.861
 1752SOL    HW1 5286   2.775   0.887   0.909
 1752SOL    HW2 5287   2.689   1.025   0.927
 1753SOL     OW 5288   2.945   0.984   0.087
 1753SOL    HW1 5289   2.922   1.037   0.005
 1753SOL    HW2 5290   3.026   0.928   0.068
 1754SOL     OW 5291   3.723   1.569   0.851
 1754SOL    HW1 5292   3.652   1.557   0.781
 1754SOL    HW2 5293   3.724   1.490   0.911
 1755SOL     OW 5294   2.083   1.314   1.844
 1755SOL    HW1 5295   2.018   1.241   1.823
 1755SOL    HW2 5296   2.087   1.328   1.942
 1756SOL     OW 5297   1.941   1.240   0.653
 1756SOL    HW1 5298   1.940   1.193   0.741
 1756SOL    HW2 5299   2.023   1.212   0.602
 1757SOL     OW 5300   2.534   1.391   1.624
 1757SOL    HW1 5301   2.456   1.341   1.662
 1757SOL    HW2 5302   2.531   1.486   1.655
 1758SOL     OW 5303   3.686   0.192   1.227
 1758SOL    HW1 5304   3.682   0.102   1.271
 1758SOL    HW2 5305   3.689   0.181   1.128
 1759SOL     OW 5306   2.290   0.424   0.520
 1759SOL    HW1 5307   2.320   0.352   0.458
 1759SOL    HW2 5308   2.251   0.384   0.603
 1760SOL     OW 5309   3.567   1.487   1.104
 1760SOL    HW1 5310   3.474   1.462   1.077
 1760SOL    HW2 5311   3.593   1.437   1.186
 1761SOL     OW 5312   2.179   0.547   1.280
 1761SOL    HW1 5313   2.217   0.488   1.352
 1761SOL    HW2 5314   2.219   0.521   1.192
 1762SOL     OW 5315   2.674   1.586   0.687
 1762SOL    HW1 5316   2.706   1.596   0.593
 1762SOL    HW2 5317   2.595   1.524   0.689
 1763SOL     OW 5318   3.286   0.214   1.112
 1763SOL    HW1 5319   3.338   0.149   1.167
 1763SOL    HW2 5320   3.237   0.277   1.173
 1764SOL     OW 5321   2.863   0.034   1.154
 1764SOL    HW1 5322   2.800  -0.038   1.123
 1764SOL    HW2 5323   2.956  -0.002   1.154
 1765SOL     OW 5324   2.632   1.330   0.301
 1765SOL    HW1 5325   2.586   1.243   0.318
 1765SOL    HW2 5326   2.723   1.327   0.342
 1766SOL     OW 5327   2.480   1.567   1.284
 1766SOL    HW1 5328   2.475   1.649   1.341
 1766SOL    HW2 5329   2.569   1.564   1.239
 1767SOL     OW 5330   3.214   0.052   0.168
 1767SOL    HW1 5331   3.249   0.011   0.084
 1767SOL    HW2 5332   3.124   0.014   0.188
 1768SOL     OW 5333   3.162   0.453   0.691
 1768SOL    HW1 5334   3.103   0.533   0.695
 1768SOL    HW2 5335   3.177   0.418   0.784
 1769SOL     OW 5336   3.455   0.221   0.882
 1769SOL    HW1 5337   3.371   0.220   0.936
 1769SOL    HW2 5338   3.457   0.304   0.826
 1770SOL     OW 5339   1.901   1.077   0.300
 1770SOL    HW1 5340   2.000   1.066   0.291
 1770SOL    HW2 5341   1.861   0.991   0.332
 1771SOL     OW 5342   2.737   1.646   0.337
 1771SOL    HW1 5343   2.660   1.611   0.283
 1771SOL    HW2 5344   2.705   1.717   0.399
 1772SOL     OW 5345   2.092   0.628   1.975
 1772SOL    HW1 5346   1.999   0.626   2.012
 1772SOL    HW2 5347   2.093   0.589   1.883
 1773SOL     OW 5348   2.087   0.275   2.858
 1773SOL    HW1 5349   2.122   0.258   2.950
 1773SOL    HW2 5350   1.999   0.230   2.846
 1774SOL     OW 5351   1.881   0.368   2.509
 1774SOL    HW1 5352   1.799   0.411   2.548
 1774SOL    HW2 5353   1.853   0.295   2.446
 1775SOL     OW 5354   2.431   1.275   3.027
 1775SOL    HW1 5355   2.338   1.268   2.990
 1775SOL    HW2 5356   2.442   1.364   3.071
 1776SOL     OW 5357   3.417   1.511   2.565
 1776SOL    HW1 5358   3.360   1.495   2.646
 1776SOL    HW2 5359   3.358   1.521   2.485
 1777SOL     OW 5360   2.997   0.703   2.579
 1777SOL    HW1 5361   3.054   0.781   2.554
 1777SOL    HW2 5362   2.937   0.729   2.655
 1778SOL     OW 5363   3.617   0.607   2.093
 1778SOL    HW1 5364   3.605   0.594   1.994
 1778SOL    HW2 5365   3.587   0.526   2.142
 1779SOL     OW 5366   2.630   1.144   2.885
 1779SOL    HW1 5367   2.552   1.161   2.945
 1779SOL    HW2 5368   2.664   1.231   2.849
 1780SOL     OW 5369   2.712   0.798   3.685
 1780SOL    HW1 5370   2.708   0.874   3.750
 1780SOL    HW2 5371   2.734   0.834   3.594
 1781SOL     OW 5372   2.547   1.012   2.527
 1781SOL    HW1 5373   2.616   0.996   2.597
 1781SOL    HW2 5374   2.474   1.069   2.565
 1782SOL     OW 5375   2.548   1.161   3.665
 1782SOL    HW1 5376   2.608   1.240   3.679
 1782SOL    HW2 5377   2.462   1.192   3.624
 1783SOL     OW 5378   2.197   1.435   2.923
 1783SOL    HW1 5379   2.119   1.404   2.870
 1783SOL    HW2 5380   2.255   1.493   2.866
 1784SOL     OW 5381   3.322   1.505   3.201
 1784SOL    HW1 5382   3.346   1.599   3.227
 1784SOL    HW2 5383   3.306   1.451   3.283
 1785SOL     OW 5384   2.300   0.392   3.361
 1785SOL    HW1 5385   2.382   0.336   3.370
 1785SOL    HW2 5386   2.219   0.334   3.365
 1786SOL     OW 5387   3.465   0.447   2.599
 1786SOL    HW1 5388   3.391   0.493   2.549
 1786SOL    HW2 5389   3.516   0.515   2.652
 1787SOL     OW 5390   2.093   1.713   2.345
 1787SOL    HW1 5391   2.127   1.790   2.399
 1787SOL    HW2 5392   2.137   1.713   2.255
 1788SOL     OW 5393   2.989   1.341   3.552
 1788SOL    HW1 5394   3.036   1.341   3.640
 1788SOL    HW2 5395   2.941   1.254   3.541
 1789SOL     OW 5396   2.092   1.434   2.400
 1789SOL    HW1 5397   2.066   1.530   2.400
 1789SOL    HW2 5398   2.021   1.380   2.445
 1790SOL     OW 5399   2.102   1.091   2.748
 1790SOL    HW1 5400   2.116   1.007   2.800
 1790SOL    HW2 5401   2.047   1.155   2.803
 1791SOL     OW 5402   2.482   1.786   3.301
 1791SOL    HW1 5403   2.390   1.769   3.336
 1791SOL    HW2 5404   2.510   1.878   3.327
 1792SOL     OW 5405   2.468   0.964   1.985
 1792SOL    HW1 5406   2.475   1.048   1.931
 1792SOL    HW2 5407   2.514   0.977   2.073
 1793SOL     OW 5408   3.456   0.114   3.342
 1793SOL    HW1 5409   3.438   0.181   3.270
 1793SOL    HW2 5410   3.453   0.160   3.431
 1794SOL     OW 5411   1.984   0.643   2.425
 1794SOL    HW1 5412   1.939   0.555   2.442
 1794SOL    HW2 5413   1.983   0.697   2.509
 1795SOL     OW 5414   3.704   1.767   2.221
 1795SOL    HW1 5415   3.758   1.738   2.301
 1795SOL    HW2 5416   3.734   1.857   2.192
 1796SOL     OW 5417   1.889   1.596   1.979
 1796SOL    HW1 5418   1.870   1.500   2.000
 1796SOL    HW2 5419   1.856   1.654   2.054
 1797SOL     OW 5420   3.551   0.922   2.474
 1797SOL    HW1 5421   3.646   0.893   2.482
 1797SOL    HW2 5422   3.543   0.987   2.399
 1798SOL     OW 5423   3.503   1.108   2.294
 1798SOL    HW1 5424   3.589   1.110   2.242
 1798SOL    HW2 5425   3.517   1.155   2.382
 1799SOL     OW 5426   1.975   0.737   3.459
 1799SOL    HW1 5427   2.063   0.724   3.504
 1799SOL    HW2 5428   1.962   0.834   3.437
 1800SOL     OW 5429   2.475   1.365   2.588
 1800SOL    HW1 5430   2.426   1.278   2.597
 1800SOL    HW2 5431   2.452   1.408   2.501
 1801SOL     OW 5432   3.155   1.228   3.285
 1801SOL    HW1 5433   3.192   1.155   3.227
 1801SOL    HW2 5434   3.207   1.233   3.370
 1802SOL     OW 5435   2.671   0.004   2.364
 1802SOL    HW1 5436   2.711   0.095   2.355
 1802SOL    HW2 5437   2.571   0.012   2.370
 1803SOL     OW 5438   2.059   0.976   3.126
 1803SOL    HW1 5439   2.148   0.931   3.112
 1803SOL    HW2 5440   1.986   0.911   3.107
 1804SOL     OW 5441   3.387   0.999   2.052
 1804SOL    HW1 5442   3.324   0.923   2.065
 1804SOL    HW2 5443   3.435   1.017   2.138
 1805SOL     OW 5444   3.049   1.792   3.478
 1805SOL    HW1 5445   3.073   1.852   3.402
 1805SOL    HW2 5446   3.056   1.697   3.448
 1806SOL     OW 5447   2.179   0.251   3.663
 1806SOL    HW1 5448   2.250   0.322   3.669
 1806SOL    HW2 5449   2.091   0.290   3.691
 1807SOL     OW 5450   3.328   1.417   2.815
 1807SOL    HW1 5451   3.269   1.423   2.895
 1807SOL    HW2 5452   3.313   1.329   2.769
 1808SOL     OW 5453   3.529   1.714   2.434
 1808SOL    HW1 5454   3.488   1.691   2.346
 1808SOL    HW2 5455   3.511   1.640   2.499
 1809SOL     OW 5456   2.460   0.729   2.132
 1809SOL    HW1 5457   2.484   0.798   2.064
 1809SOL    HW2 5458   2.382   0.762   2.186
 1810SOL     OW 5459   3.143   0.345   2.806
 1810SOL    HW1 5460   3.057   0.295   2.793
 1810SOL    HW2 5461   3.205   0.291   2.862
 1811SOL     OW 5462   3.438   1.662   2.169
 1811SOL    HW1 5463   3.527   1.708   2.172
 1811SOL    HW2 5464   3.417   1.638   2.074
 1812SOL     OW 5465   2.669   0.605   3.327
 1812SOL    HW1 5466   2.622   0.602   3.416
 1812SOL    HW2 5467   2.618   0.550   3.261
 1813SOL     OW 5468   3.256   0.469   3.536
 1813SOL    HW1 5469   3.236   0.512   3.624
 1813SOL    HW2 5470   3.334   0.407   3.545
 1814SOL     OW 5471   2.835   0.890   3.434
 1814SOL    HW1 5472   2.881   0.806   3.405
 1814SOL    HW2 5473   2.779   0.924   3.359
 1815SOL     OW 5474   2.853   0.410   3.104
 1815SOL    HW1 5475   2.776   0.444   3.158
 1815SOL    HW2 5476   2.819   0.359   3.025
 1816SOL     OW 5477   2.903   0.701   2.291
 1816SOL    HW1 5478   2.929   0.697   2.387
 1816SOL    HW2 5479   2.818   0.650   2.277
 1817SOL     OW 5480   1.938   0.811   2.651
 1817SOL    HW1 5481   2.037   0.799   2.660
 1817SOL    HW2 5482   1.914   0.906   2.672
 1818SOL     OW 5483   1.992   1.821   3.433
 1818SOL    HW1 5484   1.982   1.806   3.532
 1818SOL    HW2 5485   1.906   1.857   3.397
 1819SOL     OW 5486   2.727   0.348   2.057
 1819SOL    HW1 5487   2.786   0.411   2.008
 1819SOL    HW2 5488   2.746   0.254   2.028
 1820SOL     OW 5489   3.581   0.585   3.693
 1820SOL    HW1 5490   3.555   0.674   3.657
 1820SOL    HW2 5491   3.579   0.517   3.620
 1821SOL     OW 5492   3.224   1.144   2.407
 1821SOL    HW1 5493   3.307   1.115   2.359
 1821SOL    HW2 5494   3.175   1.211   2.351
 1822SOL     OW 5495   2.412   0.196   2.747
 1822SOL    HW1 5496   2.407   0.191   2.847
 1822SOL    HW2 5497   2.414   0.292   2.718
 1823SOL     OW 5498   2.870   1.456   2.339
 1823SOL    HW1 5499   2.824   1.528   2.287
 1823SOL    HW2 5500   2.866   1.476   2.437
 1824SOL     OW 5501   2.213   1.801   2.715
 1824SOL    HW1 5502   2.263   1.715   2.721
 1824SOL    HW2 5503   2.278   1.878   2.712
 1825SOL     OW 5504   3.657   1.066   2.735
 1825SOL    HW1 5505   3.595   1.051   2.659
 1825SOL    HW2 5506   3.605   1.077   2.820
 1826SOL     OW 5507   3.089   1.550   3.368
 1826SOL    HW1 5508   3.095   1.473   3.432
 1826SOL    HW2 5509   3.037   1.524   3.288
 1827SOL     OW 5510   2.183   0.943   2.104
 1827SOL    HW1 5511   2.265   0.982   2.062
 1827SOL    HW2 5512   2.156   0.861   2.055
 1828SOL     OW 5513   3.320   0.735   2.590
 1828SOL    HW1 5514   3.315   0.670   2.665
 1828SOL    HW2 5515   3.400   0.794   2.603
 1829SOL     OW 5516   2.323   1.266   3.589
 1829SOL    HW1 5517   2.273   1.267   3.503
 1829SOL    HW2 5518   2.260   1.248   3.665
 1830SOL     OW 5519   2.973   1.776   2.099
 1830SOL    HW1 5520   2.913   1.714   2.149
 1830SOL    HW2 5521   3.004   1.732   2.014
 1831SOL     OW 5522   2.064   0.285   3.360
 1831SOL    HW1 5523   1.984   0.345   3.347
 1831SOL    HW2 5524   2.054   0.236   3.446
 1832SOL     OW 5525   3.494   1.377   1.943
 1832SOL    HW1 5526   3.462   1.471   1.933
 1832SOL    HW2 5527   3.418   1.314   1.931
 1833SOL     OW 5528   2.326   1.743   2.185
 1833SOL    HW1 5529   2.359   1.782   2.271
 1833SOL    HW2 5530   2.402   1.736   2.120
 1834SOL     OW 5531   3.262   0.107   2.288
 1834SOL    HW1 5532   3.238   0.070   2.198
 1834SOL    HW2 5533   3.361   0.123   2.292
 1835SOL     OW 5534   2.111   1.785   3.103
 1835SOL    HW1 5535   2.168   1.720   3.153
 1835SOL    HW2 5536   2.095   1.752   3.010
 1836SOL     OW 5537   2.802   1.698   2.766
 1836SOL    HW1 5538   2.882   1.641   2.787
 1836SOL    HW2 5539   2.753   1.658   2.689
 1837SOL     OW 5540   2.244   0.700   2.342
 1837SOL    HW1 5541   2.289   0.610   2.339
 1837SOL    HW2 5542   2.150   0.689   2.375
 1838SOL     OW 5543   3.409   0.222   3.591
 1838SOL    HW1 5544   3.404   0.259   3.683
 1838SOL    HW2 5545   3.337   0.153   3.579
 1839SOL     OW 5546   2.476   0.122   1.979
 1839SOL    HW1 5547   2.574   0.100   1.986
 1839SOL    HW2 5548   2.445   0.105   1.886
 1840SOL     OW 5549   2.643   0.264   3.611
 1840SOL    HW1 5550   2.710   0.203   3.654
 1840SOL    HW2 5551   2.570   0.283   3.676
 1841SOL     OW 5552   2.750   1.514   3.057
 1841SOL    HW1 5553   2.727   1.489   2.963
 1841SOL    HW2 5554   2.811   1.445   3.096
 1842SOL     OW 5555   3.213   0.590   3.295
 1842SOL    HW1 5556   3.241   0.547   3.380
 1842SOL    HW2 5557   3.238   0.686   3.296
 1843SOL     OW 5558   2.665   1.402   2.786
 1843SOL    HW1 5559   2.755   1.416   2.744
 1843SOL    HW2 5560   2.594   1.404   2.715
 1844SOL     OW 5561   2.784   0.503   2.761
 1844SOL    HW1 5562   2.759   0.494   2.665
 1844SOL    HW2 5563   2.832   0.421   2.792
 1845SOL     OW 5564   2.401   0.064   2.374
 1845SOL    HW1 5565   2.320   0.065   2.432
 1845SOL    HW2 5566   2.404   0.147   2.319
 1846SOL     OW 5567   3.296   1.188   1.903
 1846SOL    HW1 5568   3.328   1.112   1.960
 1846SOL    HW2 5569   3.204   1.215   1.933
 1847SOL     OW 5570   2.159   0.035   2.033
 1847SOL    HW1 5571   2.208   0.119   2.012
 1847SOL    HW2 5572   2.221  -0.030   2.078
 1848SOL     OW 5573   2.797   0.236   2.342
 1848SOL    HW1 5574   2.749   0.277   2.264
 1848SOL    HW2 5575   2.896   0.234   2.323
 1849SOL     OW 5576   2.938   0.683   3.326
 1849SOL    HW1 5577   2.858   0.622   3.329
 1849SOL    HW2 5578   3.019   0.630   3.302
 1850SOL     OW 5579   3.089   1.570   2.655
 1850SOL    HW1 5580   3.110   1.644   2.590
 1850SOL    HW2 5581   3.157   1.570   2.728
 1851SOL     OW 5582   2.321   1.152   2.603
 1851SOL    HW1 5583   2.250   1.125   2.668
 1851SOL    HW2 5584   2.295   1.124   2.510
 1852SOL     OW 5585   3.133   1.797   2.453
 1852SOL    HW1 5586   3.177   1.861   2.389
 1852SOL    HW2 5587   3.083   1.849   2.523
 1853SOL     OW 5588   2.894   0.549   1.878
 1853SOL    HW1 5589   2.853   0.631   1.839
 1853SOL    HW2 5590   2.958   0.575   1.951
 1854SOL     OW 5591   1.940   0.556   3.248
 1854SOL    HW1 5592   2.032   0.555   3.207
 1854SOL    HW2 5593   1.934   0.630   3.315
 1855SOL     OW 5594   2.423   0.222   3.009
 1855SOL    HW1 5595   2.461   0.138   3.046
 1855SOL    HW2 5596   2.335   0.241   3.053
 1856SOL     OW 5597   2.728   0.454   2.504
 1856SOL    HW1 5598   2.696   0.526   2.442
 1856SOL    HW2 5599   2.752   0.373   2.451
 1857SOL     OW 5600   2.879   0.039   2.615
 1857SOL    HW1 5601   2.807   0.044   2.546
 1857SOL    HW2 5602   2.855  -0.030   2.684
 1858SOL     OW 5603   3.291   1.173   2.729
 1858SOL    HW1 5604   3.236   1.089   2.722
 1858SOL    HW2 5605   3.317   1.202   2.637
 1859SOL     OW 5606   3.328   0.590   2.854
 1859SOL    HW1 5607   3.298   0.495   2.861
 1859SOL    HW2 5608   3.401   0.606   2.920
 1860SOL     OW 5609   3.719   0.833   2.239
 1860SOL    HW1 5610   3.761   0.769   2.303
 1860SOL    HW2 5611   3.681   0.782   2.161
 1861SOL     OW 5612   2.350   1.385   2.036
 1861SOL    HW1 5613   2.263   1.370   2.083
 1861SOL    HW2 5614   2.333   1.411   1.941
 1862SOL     OW 5615   3.526   1.280   2.519
 1862SOL    HW1 5616   3.625   1.288   2.533
 1862SOL    HW2 5617   3.481   1.364   2.550
 1863SOL     OW 5618   3.252   0.575   1.940
 1863SOL    HW1 5619   3.198   0.554   2.021
 1863SOL    HW2 5620   3.343   0.534   1.949
 1864SOL     OW 5621   2.389   0.256   2.190
 1864SOL    HW1 5622   2.416   0.197   2.115
 1864SOL    HW2 5623   2.389   0.351   2.159
 1865SOL     OW 5624   3.616   1.223   3.450
 1865SOL    HW1 5625   3.707   1.184   3.437
 1865SOL    HW2 5626   3.624   1.319   3.474
 1866SOL     OW 5627   2.926   1.347   3.202
 1866SOL    HW1 5628   2.846   1.324   3.257
 1866SOL    HW2 5629   3.009   1.321   3.251
 1867SOL     OW 5630   3.454   1.629   3.487
 1867SOL    HW1 5631   3.481   1.663   3.397
 1867SOL    HW2 5632   3.533   1.591   3.533
 1868SOL     OW 5633   2.973   1.195   2.962
 1868SOL    HW1 5634   2.933   1.239   3.043
 1868SOL    HW2 5635   2.932   1.232   2.879
 1869SOL     OW 5636   3.500   1.099   2.941
 1869SOL    HW1 5637   3.505   1.180   3.000
 1869SOL    HW2 5638   3.414   1.101   2.890
 1870SOL     OW 5639   2.777   0.089   3.264
 1870SOL    HW1 5640   2.802   0.069   3.169
 1870SOL    HW2 5641   2.849   0.145   3.306
 1871SOL     OW 5642   2.842   1.116   3.581
 1871SOL    HW1 5643   2.743   1.122   3.591
 1871SOL    HW2 5644   2.865   1.036   3.525
 1872SOL     OW 5645   2.567   1.050   2.230
 1872SOL    HW1 5646   2.553   1.057   2.329
 1872SOL    HW2 5647   2.651   0.999   2.212
 1873SOL     OW 5648   2.272   0.813   3.113
 1873SOL    HW1 5649   2.358   0.825   3.163
 1873SOL    HW2 5650   2.230   0.726   3.140
 1874SOL     OW 5651   3.136   0.386   3.124
 1874SOL    HW1 5652   3.157   0.460   3.188
 1874SOL    HW2 5653   3.047   0.403   3.081
 1875SOL     OW 5654   1.926   1.564   3.193
 1875SOL    HW1 5655   1.880   1.646   3.159
 1875SOL    HW2 5656   2.024   1.583   3.202
 1876SOL     OW 5657   2.229   1.100   2.363
 1876SOL    HW1 5658   2.222   1.183   2.307
 1876SOL    HW2 5659   2.233   1.020   2.303
 1877SOL     OW 5660   2.428   0.537   2.727
 1877SOL    HW1 5661   2.440   0.603   2.653
 1877SOL    HW2 5662   2.474   0.571   2.810
 1878SOL     OW 5663   3.114   1.348   2.250
 1878SOL    HW1 5664   3.164   1.425   2.290
 1878SOL    HW2 5665   3.019   1.350   2.282
 1879SOL     OW 5666   3.134   1.445   3.004
 1879SOL    HW1 5667   3.181   1.458   3.091
 1879SOL    HW2 5668   3.068   1.371   3.013
 1880SOL     OW 5669   3.444   0.639   2.334
 1880SOL    HW1 5670   3.413   0.700   2.407
 1880SOL    HW2 5671   3.494   0.691   2.265
 1881SOL     OW 5672   2.216   1.510   3.191
 1881SOL    HW1 5673   2.195   1.466   3.104
 1881SOL    HW2 5674   2.313   1.536   3.194
 1882SOL     OW 5675   2.264   0.751   3.460
 1882SOL    HW1 5676   2.332   0.806   3.413
 1882SOL    HW2 5677   2.304   0.663   3.487
 1883SOL     OW 5678   3.449   0.779   3.532
 1883SOL    HW1 5679   3.357   0.817   3.527
 1883SOL    HW2 5680   3.509   0.826   3.467
 1884SOL     OW 5681   2.875   0.105   3.632
 1884SOL    HW1 5682   2.881   0.190   3.580
 1884SOL    HW2 5683   2.907   0.029   3.575
 1885SOL     OW 5684   2.366   0.050   3.602
 1885SOL    HW1 5685   2.324  -0.007   3.532
 1885SOL    HW2 5686   2.300   0.119   3.634
 1886SOL     OW 5687   2.435   0.870   2.891
 1886SOL    HW1 5688   2.479   0.959   2.882
 1886SOL    HW2 5689   2.372   0.870   2.968
 1887SOL     OW 5690   3.222   0.862   2.907
 1887SOL    HW1 5691   3.147   0.862   2.841
 1887SOL    HW2 5692   3.259   0.770   2.916
 1888SOL     OW 5693   3.071   0.525   2.137
 1888SOL    HW1 5694   3.084   0.441   2.191
 1888SOL    HW2 5695   3.042   0.599   2.197
 1889SOL     OW 5696   2.169   0.213   3.093
 1889SOL    HW1 5697   2.146   0.250   3.183
 1889SOL    HW2 5698   2.139   0.118   3.087
 1890SOL     OW 5699   1.899   1.310   3.144
 1890SOL    HW1 5700   1.952   1.261   3.212
 1890SOL    HW2 5701   1.921   1.408   3.149
 1891SOL     OW 5702   2.594   0.634   2.926
 1891SOL    HW1 5703   2.653   0.608   2.850
 1891SOL    HW2 5704   2.566   0.730   2.915
 1892SOL     OW 5705   3.590   0.935   3.716
 1892SOL    HW1 5706   3.544   0.928   3.627
 1892SOL    HW2 5707   3.528   0.979   3.782
 1893SOL     OW 5708   2.169   0.063   2.480
 1893SOL    HW1 5709   2.158   0.157   2.513
 1893SOL    HW2 5710   2.164   0.000   2.557
 1894SOL     OW 5711   3.484   0.367   2.236
 1894SOL    HW1 5712   3.486   0.291   2.300
 1894SOL    HW2 5713   3.436   0.444   2.276
 1895SOL     OW 5714   2.885   0.766   2.828
 1895SOL    HW1 5715   2.900   0.787   2.924
 1895SOL    HW2 5716   2.855   0.671   2.819
 1896SOL     OW 5717   2.842   1.573   3.562
 1896SOL    HW1 5718   2.822   1.617   3.474
 1896SOL    HW2 5719   2.881   1.482   3.546
 1897SOL     OW 5720   3.721   1.518   3.467
 1897SOL    HW1 5721   3.735   1.545   3.372
 1897SOL    HW2 5722   3.804   1.540   3.520
 1898SOL     OW 5723   2.212   0.898   3.666
 1898SOL    HW1 5724   2.288   0.942   3.714
 1898SOL    HW2 5725   2.247   0.851   3.584
 1899SOL     OW 5726   3.402   0.274   1.987
 1899SOL    HW1 5727   3.341   0.199   2.010
 1899SOL    HW2 5728   3.424   0.326   2.070
 1900SOL     OW 5729   3.165   0.838   1.904
 1900SOL    HW1 5730   3.199   0.745   1.919
 1900SOL    HW2 5731   3.183   0.865   1.809
 1901SOL     OW 5732   2.930   1.333   2.711
 1901SOL    HW1 5733   2.937   1.249   2.656
 1901SOL    HW2 5734   2.992   1.402   2.675
 1902SOL     OW 5735   2.181   0.810   2.811
 1902SOL    HW1 5736   2.274   0.846   2.816
 1902SOL    HW2 5737   2.175   0.725   2.863
 1903SOL     OW 5738   2.201   0.509   2.868
 1903SOL    HW1 5739   2.149   0.426   2.851
 1903SOL    HW2 5740   2.278   0.514   2.804
 1904SOL     OW 5741   3.000   0.380   3.540
 1904SOL    HW1 5742   2.955   0.443   3.604
 1904SOL    HW2 5743   3.093   0.411   3.523
 1905SOL     OW 5744   3.022   0.207   3.339
 1905SOL    HW1 5745   3.022   0.271   3.416
 1905SOL    HW2 5746   3.050   0.255   3.256
 1906SOL     OW 5747   1.870   1.326   2.062
 1906SOL    HW1 5748   1.777   1.347   2.031
 1906SOL    HW2 5749   1.880   1.227   2.075
 1907SOL     OW 5750   1.950   1.801   2.789
 1907SOL    HW1 5751   1.908   1.715   2.762
 1907SOL    HW2 5752   2.044   1.804   2.755
 1908SOL     OW 5753   2.366   1.568   2.772
 1908SOL    HW1 5754   2.432   1.642   2.781
 1908SOL    HW2 5755   2.410   1.489   2.730
 1909SOL     OW 5756   2.864   0.796   3.100
 1909SOL    HW1 5757   2.905   0.764   3.186
 1909SOL    HW2 5758   2.768   0.769   3.097
 1910SOL     OW 5759   1.902   0.544   2.976
 1910SOL    HW1 5760   1.987   0.511   2.935
 1910SOL    HW2 5761   1.915   0.559   3.074
 1911SOL     OW 5762   2.051   0.520   3.584
 1911SOL    HW1 5763   2.110   0.480   3.514
 1911SOL    HW2 5764   1.993   0.591   3.543
 1912SOL     OW 5765   3.231   0.950   3.522
 1912SOL    HW1 5766   3.270   1.039   3.542
 1912SOL    HW2 5767   3.241   0.930   3.425
 1913SOL     OW 5768   2.677   0.572   2.187
 1913SOL    HW1 5769   2.684   0.483   2.141
 1913SOL    HW2 5770   2.583   0.606   2.179
 1914SOL     OW 5771   3.519   0.604   3.068
 1914SOL    HW1 5772   3.481   0.535   3.130
 1914SOL    HW2 5773   3.601   0.568   3.024
 1915SOL     OW 5774   2.114   1.564   3.606
 1915SOL    HW1 5775   2.084   1.621   3.682
 1915SOL    HW2 5776   2.107   1.467   3.632
 1916SOL     OW 5777   2.533   0.464   3.131
 1916SOL    HW1 5778   2.499   0.375   3.101
 1916SOL    HW2 5779   2.559   0.518   3.051
 1917SOL     OW 5780   2.792   1.678   3.327
 1917SOL    HW1 5781   2.768   1.660   3.232
 1917SOL    HW2 5782   2.822   1.772   3.337
 1918SOL     OW 5783   2.335   0.500   2.053
 1918SOL    HW1 5784   2.396   0.580   2.057
 1918SOL    HW2 5785   2.240   0.531   2.060
 1919SOL     OW 5786   2.021   1.137   3.328
 1919SOL    HW1 5787   2.043   1.076   3.404
 1919SOL    HW2 5788   2.031   1.088   3.242
 1920SOL     OW 5789   3.209   1.059   3.096
 1920SOL    HW1 5790   3.233   0.996   3.022
 1920SOL    HW2 5791   3.119   1.099   3.078
 1921SOL     OW 5792   3.164   0.855   2.171
 1921SOL    HW1 5793   3.078   0.824   2.213
 1921SOL    HW2 5794   3.160   0.841   2.072
 1922SOL     OW 5795   3.621   1.747   3.016
 1922SOL    HW1 5796   3.682   1.777   2.943
 1922SOL    HW2 5797   3.583   1.658   2.994
 1923SOL     OW 5798   3.114   1.731   2.990
 1923SOL    HW1 5799   3.198   1.736   2.936
 1923SOL    HW2 5800   3.091   1.635   3.008
 1924SOL     OW 5801   1.945   1.258   2.884
 1924SOL    HW1 5802   1.940   1.257   2.984
 1924SOL    HW2 5803   1.862   1.217   2.846
 1925SOL     OW 5804   2.550   1.662   3.578
 1925SOL    HW1 5805   2.494   1.743   3.587
 1925SOL    HW2 5806   2.602   1.666   3.492
 1926SOL     OW 5807   3.588   0.135   2.385
 1926SOL    HW1 5808   3.661   0.118   2.318
 1926SOL    HW2 5809   3.557   0.048   2.423
 1927SOL     OW 5810   3.250   1.573   2.339
 1927SOL    HW1 5811   3.317   1.585   2.265
 1927SOL    HW2 5812   3.210   1.662   2.362
 1928SOL     OW 5813   1.992   1.794   3.713
 1928SOL    HW1 5814   1.951   1.720   3.766
 1928SOL    HW2 5815   2.056   1.845   3.771
 1929SOL     OW 5816   3.142   0.927   2.534
 1929SOL    HW1 5817   3.202   0.846   2.536
 1929SOL    HW2 5818   3.182   0.996   2.474
 1930SOL     OW 5819   2.692   1.273   3.284
 1930SOL    HW1 5820   2.687   1.306   3.379
 1930SOL    HW2 5821   2.606   1.292   3.238
 1931SOL     OW 5822   2.534   1.616   2.016
 1931SOL    HW1 5823   2.543   1.626   1.917
 1931SOL    HW2 5824   2.494   1.527   2.037
 1932SOL     OW 5825   3.512   1.720   3.256
 1932SOL    HW1 5826   3.565   1.730   3.172
 1932SOL    HW2 5827   3.485   1.810   3.290
 1933SOL     OW 5828   3.703   0.175   2.825
 1933SOL    HW1 5829   3.742   0.090   2.789
 1933SOL    HW2 5830   3.605   0.177   2.806
 1934SOL     OW 5831   2.125   0.326   2.582
 1934SOL    HW1 5832   2.046   0.377   2.548
 1934SOL    HW2 5833   2.116   0.311   2.680
 1935SOL     OW 5834   3.056   1.612   1.893
 1935SOL    HW1 5835   3.062   1.519   1.930
 1935SOL    HW2 5836   2.997   1.612   1.813
 1936SOL     OW 5837   2.684   1.002   3.234
 1936SOL    HW1 5838   2.724   1.001   3.142
 1936SOL    HW2 5839   2.694   1.094   3.274
 1937SOL     OW 5840   2.778   0.910   2.153
 1937SOL    HW1 5841   2.841   0.948   2.085
 1937SOL    HW2 5842   2.818   0.827   2.192
 1938SOL     OW 5843   3.366   1.607   1.906
 1938SOL    HW1 5844   3.274   1.644   1.913
 1938SOL    HW2 5845   3.404   1.627   1.816
 1939SOL     OW 5846   2.234   1.288   3.352
 1939SOL    HW1 5847   2.221   1.381   3.318
 1939SOL    HW2 5848   2.150   1.236   3.339
 1940SOL     OW 5849   3.476   1.292   3.151
 1940SOL    HW1 5850   3.536   1.295   3.231
 1940SOL    HW2 5851   3.401   1.356   3.164
 1941SOL     OW 5852   2.901   1.098   2.558
 1941SOL    HW1 5853   2.831   1.051   2.612
 1941SOL    HW2 5854   2.960   1.030   2.515
 1942SOL     OW 5855   2.876   0.236   2.833
 1942SOL    HW1 5856   2.868   0.200   2.740
 1942SOL    HW2 5857   2.874   0.160   2.898
 1943SOL     OW 5858   2.452   1.487   2.353
 1943SOL    HW1 5859   2.494   1.429   2.283
 1943SOL    HW2 5860   2.408   1.566   2.309
 1944SOL     OW 5861   3.571   0.385   3.243
 1944SOL    HW1 5862   3.644   0.454   3.247
 1944SOL    HW2 5863   3.599   0.310   3.184
 1945SOL     OW 5864   2.117   1.348   2.152
 1945SOL    HW1 5865   2.021   1.349   2.125
 1945SOL    HW2 5866   2.129   1.401   2.236
 1946SOL     OW 5867   1.967   1.013   3.588
 1946SOL    HW1 5868   1.890   0.980   3.642
 1946SOL    HW2 5869   2.052   0.983   3.630
 1947SOL     OW 5870   2.534   0.203   3.351
 1947SOL    HW1 5871   2.624   0.187   3.311
 1947SOL    HW2 5872   2.542   0.208   3.450
 1948SOL     OW 5873   1.937   0.345   1.895
 1948SOL    HW1 5874   1.845   0.317   1.866
 1948SOL    HW2 5875   1.968   0.422   1.839
 1949SOL     OW 5876   3.302   0.856   3.260
 1949SOL    HW1 5877   3.245   0.908   3.197
 1949SOL    HW2 5878   3.398   0.868   3.236
 1950SOL     OW 5879   1.934   0.166   2.180
 1950SOL    HW1 5880   1.917   0.249   2.126
 1950SOL    HW2 5881   2.024   0.129   2.158
 1951SOL     OW 5882   3.045   1.335   1.981
 1951SOL    HW1 5883   2.946   1.324   1.983
 1951SOL    HW2 5884   3.079   1.350   2.074
 1952SOL     OW 5885   2.475   0.842   3.293
 1952SOL    HW1 5886   2.531   0.923   3.276
 1952SOL    HW2 5887   2.534   0.762   3.296
 1953SOL     OW 5888   3.355   1.767   2.821
 1953SOL    HW1 5889   3.388   1.831   2.752
 1953SOL    HW2 5890   3.421   1.761   2.896
 1954SOL     OW 5891   2.578   0.565   3.570
 1954SOL    HW1 5892   2.597   0.630   3.644
 1954SOL    HW2 5893   2.638   0.485   3.579
 1955SOL     OW 5894   3.312   1.220   3.495
 1955SOL    HW1 5895   3.303   1.210   3.594
 1955SOL    HW2 5896   3.408   1.213   3.469
 1956SOL     OW 5897   2.252   1.741   3.422
 1956SOL    HW1 5898   2.161   1.782   3.420
 1956SOL    HW2 5899   2.245   1.647   3.454
 1957SOL     OW 5900   3.536   0.883   3.116
 1957SOL    HW1 5901   3.509   0.794   3.079
 1957SOL    HW2 5902   3.537   0.951   3.043
 1958SOL     OW 5903   3.087   0.325   2.311
 1958SOL    HW1 5904   3.152   0.251   2.300
 1958SOL    HW2 5905   3.107   0.375   2.395
 1959SOL     OW 5906   2.456   0.745   2.514
 1959SOL    HW1 5907   2.506   0.830   2.495
 1959SOL    HW2 5908   2.368   0.747   2.466
 1960SOL     OW 5909   3.639   0.342   3.504
 1960SOL    HW1 5910   3.622   0.373   3.410
 1960SOL    HW2 5911   3.555   0.305   3.542
 1961SOL     OW 5912   3.592   0.934   3.379
 1961SOL    HW1 5913   3.630   1.025   3.394
 1961SOL    HW2 5914   3.584   0.917   3.280
 1962SOL     OW 5915   2.721   1.374   1.878
 1962SOL    HW1 5916   2.675   1.389   1.966
 1962SOL    HW2 5917   2.765   1.459   1.848
 1963SOL     OW 5918   2.523   1.790   2.815
 1963SOL    HW1 5919   2.477   1.878   2.802
 1963SOL    HW2 5920   2.622   1.802   2.808
 1964SOL     OW 5921   2.721   0.956   2.723
 1964SOL    HW1 5922   2.775   0.887   2.771
 1964SOL    HW2 5923   2.689   1.025   2.789
 1965SOL     OW 5924   2.945   0.984   1.949
 1965SOL    HW1 5925   2.922   1.037   1.867
 1965SOL    HW2 5926   3.026   0.928   1.930
 1966SOL     OW 5927   3.723   1.569   2.713
 1966SOL    HW1 5928   3.652   1.557   2.643
 1966SOL    HW2 5929   3.724   1.490   2.773
 1967SOL     OW 5930   2.083   1.314   3.706
 1967SOL    HW1 5931   2.018   1.241   3.685
 1967SOL    HW2 5932   2.087   1.328   3.804
 1968SOL     OW 5933   1.941   1.240   2.515
 1968SOL    HW1 5934   1.940   1.193   2.603
 1968SOL    HW2 5935   2.023   1.212   2.464
 1969SOL     OW 5936   2.534   1.391   3.486
 1969SOL    HW1 5937   2.456   1.341   3.524
 1969SOL    HW2 5938   2.531   1.486   3.517
 1970SOL     OW 5939   3.686   0.192   3.089
 1970SOL    HW1 5940   3.682   0.102   3.133
 1970SOL    HW2 5941   3.689   0.181   2.990
 1971SOL     OW 5942   2.290   0.424   2.382
 1971SOL    HW1 5943   2.320   0.352   2.320
 1971SOL    HW2 5944   2.251   0.384   2.465
 1972SOL     OW 5945   3.567   1.487   2.966
 1972SOL    HW1 5946   3.474   1.462   2.939
 1972SOL    HW2 5947   3.593   1.437   3.048
 1973SOL     OW 5948   2.179   0.547   3.142
 1973SOL    HW1 5949   2.217   0.488   3.214
 1973SOL    HW2 5950   2.219   0.521   3.054
 1974SOL     OW 5951   2.674   1.586   2.549
 1974SOL    HW1 5952   2.706   1.596   2.455
 1974SOL    HW2 5953   2.595   1.524   2.551
 1975SOL     OW 5954   3.286   0.214   2.974
 1975SOL    HW1 5955   3.338   0.149   3.029
 1975SOL    HW2 5956   3.237   0.277   3.035
 1976SOL     OW 5957   2.863   0.034   3.016
 1976SOL    HW1 5958   2.800  -0.038   2.985
 1976SOL    HW2 5959   2.956  -0.002   3.016
 1977SOL     OW 5960   2.632   1.330   2.163
 1977SOL    HW1 5961   2.586   1.243   2.180
 1977SOL    HW2 5962   2.723   1.327   2.204
 1978SOL     OW 5963   2.480   1.567   3.146
 1978SOL    HW1 5964   2.475   1.649   3.203
 1978SOL    HW2 5965   2.569   1.564   3.101
 1979SOL     OW 5966   3.214   0.052   2.030
 1979SOL    HW1 5967   3.249   0.011   1.946
 1979SOL    HW2 5968   3.124   0.014   2.050
 1980SOL     OW 5969   3.162   0.453   2.553
 1980SOL    HW1 5970   3.103   0.533   2.557
 1980SOL    HW2 5971   3.177   0.418   2.646
 1981SOL     OW 5972   3.455   0.221   2.744
 1981SOL    HW1 5973   3.371   0.220   2.798
 1981SOL    HW2 5974   3.457   0.304   2.688
 1982SOL     OW 5975   1.901   1.077   2.162
 1982SOL    HW1 5976   2.000   1.066   2.153
 1982SOL    HW2 5977   1.861   0.991   2.194
 1983SOL     OW 5978   2.737   1.646   2.199
 1983SOL    HW1 5979   2.660   1.611   2.145
 1983SOL    HW2 5980   2.705   1.717   2.261
 1984SOL     OW 5981   2.092   0.628   3.837
 1984SOL    HW1 5982   1.999   0.626   3.874
 1984SOL    HW2 5983   2.093   0.589   3.745
 1985SOL     OW 5984   2.087   0.275   4.720
 1985SOL    HW1 5985   2.122   0.258   4.812
 1985SOL    HW2 5986   1.999   0.230   4.708
 1986SOL     OW 5987   1.881   0.368   4.371
 1986SOL    HW1 5988   1.799   0.411   4.410
 1986SOL    HW2 5989   1.853   0.295   4.308
 1987SOL     OW 5990   2.431   1.275   4.889
 1987SOL    HW1 5991   2.338   1.268   4.852
 1987SOL    HW2 5992   2.442   1.364   4.933
 1988SOL     OW 5993   3.417   1.511   4.427
 1988SOL    HW1 5994   3.360   1.495   4.508
 1988SOL    HW2 5995   3.358   1.521   4.347
 1989SOL     OW 5996   2.997   0.703   4.441
 1989SOL    HW1 5997   3.054   0.781   4.416
 1989SOL    HW2 5998   2.937   0.729   4.517
 1990SOL     OW 5999   3.617   0.607   3.955
 1990SOL    HW1 6000   3.605   0.594   3.856
 1990SOL    HW2 6001   3.587   0.526   4.004
 1991SOL     OW 6002   2.630   1.144   4.747
 1991SOL    HW1 6003   2.552   1.161   4.807
 1991SOL    HW2 6004   2.664   1.231   4.711
 1992SOL     OW 6005   2.547   1.012   4.389
 1992SOL    HW1 6006   2.616   0.996   4.459
 1992SOL    HW2 6007   2.474   1.069   4.427
 1993SOL     OW 6008   2.197   1.435   4.785
 1993SOL    HW1 6009   2.119   1.404   4.732
 1993SOL    HW2 6010   2.255   1.493   4.728
 1994SOL     OW 6011   3.465   0.447   4.461
 1994SOL    HW1 6012   3.391   0.493   4.411
 1994SOL    HW2 6013   3.516   0.515   4.514
 1995SOL     OW 6014   2.093   1.713   4.207
 1995SOL    HW1 6015   2.127   1.790   4.261
 1995SOL    HW2 6016   2.137   1.713   4.117
 1996SOL     OW 6017   2.092   1.434   4.262
 1996SOL    HW1 6018   2.066   1.530   4.262
 1996SOL    HW2 6019   2.021   1.380   4.307
 1997SOL     OW 6020   2.102   1.091   4.610
 1997SOL    HW1 6021   2.116   1.007   4.662
 1997SOL    HW2 6022   2.047   1.155   4.665
 1998SOL     OW 6023   2.468   0.964   3.847
 1998SOL    HW1 6024   2.475   1.048   3.793
 1998SOL    HW2 6025   2.514   0.977   3.935
 1999SOL     OW 6026   1.984   0.643   4.287
 1999SOL    HW1 6027   1.939   0.555   4.304
 1999SOL    HW2 6028   1.983   0.697   4.371
 2000SOL     OW 6029   3.704   1.767   4.083
 2000SOL    HW1 6030   3.758   1.738   4.163
 2000SOL    HW2 6031   3.734   1.857   4.054
 2001SOL     OW 6032   1.889   1.596   3.841
 2001SOL    HW1 6033   1.870   1.500   3.862
 2001SOL    HW2 6034   1.856   1.654   3.916
 2002SOL     OW 6035   3.551   0.922   4.336
 2002SOL    HW1 6036   3.646   0.893   4.344
 2002SOL    HW2 6037   3.543   0.987   4.261
 2003SOL     OW 6038   3.503   1.108   4.156
 2003SOL    HW1 6039   3.589   1.110   4.104
 2003SOL    HW2 6040   3.517   1.155   4.244
 2004SOL     OW 6041   2.475   1.365   4.450
 2004SOL    HW1 6042   2.426   1.278   4.459
 2004SOL    HW2 6043   2.452   1.408   4.363
 2005SOL     OW 6044   2.671   0.004   4.226
 2005SOL    HW1 6045   2.711   0.095   4.217
 2005SOL    HW2 6046   2.571   0.012   4.232
 2006SOL     OW 6047   2.059   0.976   4.988
 2006SOL    HW1 6048   2.148   0.931   4.974
 2006SOL    HW2 6049   1.986   0.911   4.969
 2007SOL     OW 6050   3.387   0.999   3.914
 2007SOL    HW1 6051   3.324   0.923   3.927
 2007SOL    HW2 6052   3.435   1.017   4.000
 2008SOL     OW 6053   3.328   1.417   4.677
 2008SOL    HW1 6054   3.269   1.423   4.757
 2008SOL    HW2 6055   3.313   1.329   4.631
 2009SOL     OW 6056   3.529   1.714   4.296
 2009SOL    HW1 6057   3.488   1.691   4.208
 2009SOL    HW2 6058   3.511   1.640   4.361
 2010SOL     OW 6059   2.460   0.729   3.994
 2010SOL    HW1 6060   2.484   0.798   3.926
 2010SOL    HW2 6061   2.382   0.762   4.048
 2011SOL     OW 6062   3.143   0.345   4.668
 2011SOL    HW1 6063   3.057   0.295   4.655
 2011SOL    HW2 6064   3.205   0.291   4.724
 2012SOL     OW 6065   3.438   1.662   4.031
 2012SOL    HW1 6066   3.527   1.708   4.034
 2012SOL    HW2 6067   3.417   1.638   3.936
 2013SOL     OW 6068   2.853   0.410   4.966
 2013SOL    HW1 6069   2.776   0.444   5.020
 2013SOL    HW2 6070   2.819   0.359   4.887
 2014SOL     OW 6071   2.903   0.701   4.153
 2014SOL    HW1 6072   2.929   0.697   4.249
 2014SOL    HW2 6073   2.818   0.650   4.139
 2015SOL     OW 6074   1.938   0.811   4.513
 2015SOL    HW1 6075   2.037   0.799   4.522
 2015SOL    HW2 6076   1.914   0.906   4.534
 2016SOL     OW 6077   2.727   0.348   3.919
 2016SOL    HW1 6078   2.786   0.411   3.870
 2016SOL    HW2 6079   2.746   0.254   3.890
 2017SOL     OW 6080   3.224   1.144   4.269
 2017SOL    HW1 6081   3.307   1.115   4.221
 2017SOL    HW2 6082   3.175   1.211   4.213
 2018SOL     OW 6083   2.412   0.196   4.609
 2018SOL    HW1 6084   2.407   0.191   4.709
 2018SOL    HW2 6085   2.414   0.292   4.580
 2019SOL     OW 6086   2.870   1.456   4.201
 2019SOL    HW1 6087   2.824   1.528   4.149
 2019SOL    HW2 6088   2.866   1.476   4.299
 2020SOL     OW 6089   2.213   1.801   4.577
 2020SOL    HW1 6090   2.263   1.715   4.583
 2020SOL    HW2 6091   2.278   1.878   4.574
 2021SOL     OW 6092   3.657   1.066   4.597
 2021SOL    HW1 6093   3.595   1.051   4.521
 2021SOL    HW2 6094   3.605   1.077   4.682
 2022SOL     OW 6095   2.183   0.943   3.966
 2022SOL    HW1 6096   2.265   0.982   3.924
 2022SOL    HW2 6097   2.156   0.861   3.917
 2023SOL     OW 6098   3.320   0.735   4.452
 2023SOL    HW1 6099   3.315   0.670   4.527
 2023SOL    HW2 6100   3.400   0.794   4.465
 2024SOL     OW 6101   2.973   1.776   3.961
 2024SOL    HW1 6102   2.913   1.714   4.011
 2024SOL    HW2 6103   3.004   1.732   3.876
 2025SOL     OW 6104   3.494   1.377   3.805
 2025SOL    HW1 6105   3.462   1.471   3.795
 2025SOL    HW2 6106   3.418   1.314   3.793
 2026SOL     OW 6107   2.326   1.743   4.047
 2026SOL    HW1 6108   2.359   1.782   4.133
 2026SOL    HW2 6109   2.402   1.736   3.982
 2027SOL     OW 6110   3.262   0.107   4.150
 2027SOL    HW1 6111   3.238   0.070   4.060
 2027SOL    HW2 6112   3.361   0.123   4.154
 2028SOL     OW 6113   2.111   1.785   4.965
 2028SOL    HW1 6114   2.168   1.720   5.015
 2028SOL    HW2 6115   2.095   1.752   4.872
 2029SOL     OW 6116   2.802   1.698   4.628
 2029SOL    HW1 6117   2.882   1.641   4.649
 2029SOL    HW2 6118   2.753   1.658   4.551
 2030SOL     OW 6119   2.244   0.700   4.204
 2030SOL    HW1 6120   2.289   0.610   4.201
 2030SOL    HW2 6121   2.150   0.689   4.237
 2031SOL     OW 6122   2.476   0.122   3.841
 2031SOL    HW1 6123   2.574   0.100   3.848
 2031SOL    HW2 6124   2.445   0.105   3.748
 2032SOL     OW 6125   2.665   1.402   4.648
 2032SOL    HW1 6126   2.755   1.416   4.606
 2032SOL    HW2 6127   2.594   1.404   4.577
 2033SOL     OW 6128   2.784   0.503   4.623
 2033SOL    HW1 6129   2.759   0.494   4.527
 2033SOL    HW2 6130   2.832   0.421   4.654
 2034SOL     OW 6131   2.401   0.064   4.236
 2034SOL    HW1 6132   2.320   0.065   4.294
 2034SOL    HW2 6133   2.404   0.147   4.181
 2035SOL     OW 6134   3.296   1.188   3.765
 2035SOL    HW1 6135   3.328   1.112   3.822
 2035SOL    HW2 6136   3.204   1.215   3.795
 2036SOL     OW 6137   2.159   0.035   3.895
 2036SOL    HW1 6138   2.208   0.119   3.874
 2036SOL    HW2 6139   2.221  -0.030   3.940
 2037SOL     OW 6140   2.797   0.236   4.204
 2037SOL    HW1 6141   2.749   0.277   4.126
 2037SOL    HW2 6142   2.896   0.234   4.185
 2038SOL     OW 6143   3.089   1.570   4.517
 2038SOL    HW1 6144   3.110   1.644   4.452
 2038SOL    HW2 6145   3.157   1.570   4.590
 2039SOL     OW 6146   2.321   1.152   4.465
 2039SOL    HW1 6147   2.250   1.125   4.530
 2039SOL    HW2 6148   2.295   1.124   4.372
 2040SOL     OW 6149   3.133   1.797   4.315
 2040SOL    HW1 6150   3.177   1.861   4.251
 2040SOL    HW2 6151   3.083   1.849   4.385
 2041SOL     OW 6152   2.894   0.549   3.740
 2041SOL    HW1 6153   2.853   0.631   3.701
 2041SOL    HW2 6154   2.958   0.575   3.813
 2042SOL     OW 6155   2.423   0.222   4.871
 2042SOL    HW1 6156   2.461   0.138   4.908
 2042SOL    HW2 6157   2.335   0.241   4.915
 2043SOL     OW 6158   2.728   0.454   4.366
 2043SOL    HW1 6159   2.696   0.526   4.304
 2043SOL    HW2 6160   2.752   0.373   4.313
 2044SOL     OW 6161   2.879   0.039   4.477
 2044SOL    HW1 6162   2.807   0.044   4.408
 2044SOL    HW2 6163   2.855  -0.030   4.546
 2045SOL     OW 6164   3.291   1.173   4.591
 2045SOL    HW1 6165   3.236   1.089   4.584
 2045SOL    HW2 6166   3.317   1.202   4.499
 2046SOL     OW 6167   3.328   0.590   4.716
 2046SOL    HW1 6168   3.298   0.495   4.723
 2046SOL    HW2 6169   3.401   0.606   4.782
 2047SOL     OW 6170   3.719   0.833   4.101
 2047SOL    HW1 6171   3.761   0.769   4.165
 2047SOL    HW2 6172   3.681   0.782   4.023
 2048SOL     OW 6173   2.350   1.385   3.898
 2048SOL    HW1 6174   2.263   1.370   3.945
 2048SOL    HW2 6175   2.333   1.411   3.803
 2049SOL     OW 6176   3.526   1.280   4.381
 2049SOL    HW1 6177   3.625   1.288   4.395
 2049SOL    HW2 6178   3.481   1.364   4.412
 2050SOL     OW 6179   3.252   0.575   3.802
 2050SOL    HW1 6180   3.198   0.554   3.883
 2050SOL    HW2 6181   3.343   0.534   3.811
 2051SOL     OW 6182   2.389   0.256   4.052
 2051SOL    HW1 6183   2.416   0.197   3.977
 2051SOL    HW2 6184   2.389   0.351   4.021
 2052SOL     OW 6185   2.973   1.195   4.824
 2052SOL    HW1 6186   2.933   1.239   4.905
 2052SOL    HW2 6187   2.932   1.232   4.741
 2053SOL     OW 6188   3.500   1.099   4.803
 2053SOL    HW1 6189   3.505   1.180   4.862
 2053SOL    HW2 6190   3.414   1.101   4.752
 2054SOL     OW 6191   2.567   1.050   4.092
 2054SOL    HW1 6192   2.553   1.057   4.191
 2054SOL    HW2 6193   2.651   0.999   4.074
 2055SOL     OW 6194   2.272   0.813   4.975
 2055SOL    HW1 6195   2.358   0.825   5.025
 2055SOL    HW2 6196   2.230   0.726   5.002
 2056SOL     OW 6197   3.136   0.386   4.986
 2056SOL    HW1 6198   3.157   0.460   5.050
 2056SOL    HW2 6199   3.047   0.403   4.943
 2057SOL     OW 6200   2.229   1.100   4.225
 2057SOL    HW1 6201   2.222   1.183   4.169
 2057SOL    HW2 6202   2.233   1.020   4.165
 2058SOL     OW 6203   2.428   0.537   4.589
 2058SOL    HW1 6204   2.440   0.603   4.515
 2058SOL    HW2 6205   2.474   0.571   4.672
 2059SOL     OW 6206   3.114   1.348   4.112
 2059SOL    HW1 6207   3.164   1.425   4.152
 2059SOL    HW2 6208   3.019   1.350   4.144
 2060SOL     OW 6209   3.134   1.445   4.866
 2060SOL    HW1 6210   3.181   1.458   4.953
 2060SOL    HW2 6211   3.068   1.371   4.875
 2061SOL     OW 6212   3.444   0.639   4.196
 2061SOL    HW1 6213   3.413   0.700   4.269
 2061SOL    HW2 6214   3.494   0.691   4.127
 2062SOL     OW 6215   2.216   1.510   5.053
 2062SOL    HW1 6216   2.195   1.466   4.966
 2062SOL    HW2 6217   2.313   1.536   5.056
 2063SOL     OW 6218   2.435   0.870   4.753
 2063SOL    HW1 6219   2.479   0.959   4.744
 2063SOL    HW2 6220   2.372   0.870   4.830
 2064SOL     OW 6221   3.222   0.862   4.769
 2064SOL    HW1 6222   3.147   0.862   4.703
 2064SOL    HW2 6223   3.259   0.770   4.778
 2065SOL     OW 6224   3.071   0.525   3.999
 2065SOL    HW1 6225   3.084   0.441   4.053
 2065SOL    HW2 6226   3.042   0.599   4.059
 2066SOL     OW 6227   2.169   0.213   4.955
 2066SOL    HW1 6228   2.146   0.250   5.045
 2066SOL    HW2 6229   2.139   0.118   4.949
 2067SOL     OW 6230   1.899   1.310   5.006
 2067SOL    HW1 6231   1.952   1.261   5.074
 2067SOL    HW2 6232   1.921   1.408   5.011
 2068SOL     OW 6233   2.594   0.634   4.788
 2068SOL    HW1 6234   2.653   0.608   4.712
 2068SOL    HW2 6235   2.566   0.730   4.777
 2069SOL     OW 6236   2.169   0.063   4.342
 2069SOL    HW1 6237   2.158   0.157   4.375
 2069SOL    HW2 6238   2.164   0.000   4.419
 2070SOL     OW 6239   3.484   0.367   4.098
 2070SOL    HW1 6240   3.486   0.291   4.162
 2070SOL    HW2 6241   3.436   0.444   4.138
 2071SOL     OW 6242   2.885   0.766   4.690
 2071SOL    HW1 6243   2.900   0.787   4.786
 2071SOL    HW2 6244   2.855   0.671   4.681
 2072SOL     OW 6245   3.402   0.274   3.849
 2072SOL    HW1 6246   3.341   0.199   3.872
 2072SOL    HW2 6247   3.424   0.326   3.932
 2073SOL     OW 6248   3.165   0.838   3.766
 2073SOL    HW1 6249   3.199   0.745   3.781
 2073SOL    HW2 6250   3.183   0.865   3.671
 2074SOL     OW 6251   2.930   1.333   4.573
 2074SOL    HW1 6252   2.937   1.249   4.518
 2074SOL    HW2 6253   2.992   1.402   4.537
 2075SOL     OW 6254   2.181   0.810   4.673
 2075SOL    HW1 6255   2.274   0.846   4.678
 2075SOL    HW2 6256   2.175   0.725   4.725
 2076SOL     OW 6257   2.201   0.509   4.730
 2076SOL    HW1 6258   2.149   0.426   4.713
 2076SOL    HW2 6259   2.278   0.514   4.666
 2077SOL     OW 6260   3.022   0.207   5.201
 2077SOL    HW1 6261   3.022   0.271   5.278
 2077SOL    HW2 6262   3.050   0.255   5.118
 2078SOL     OW 6263   1.870   1.326   3.924
 2078SOL    HW1 6264   1.777   1.347   3.893
 2078SOL    HW2 6265   1.880   1.227   3.937
 2079SOL     OW 6266   1.950   1.801   4.651
 2079SOL    HW1 6267   1.908   1.715   4.624
 2079SOL    HW2 6268   2.044   1.804   4.617
 2080SOL     OW 6269   2.366   1.568   4.634
 2080SOL    HW1 6270   2.432   1.642   4.643
 2080SOL    HW2 6271   2.410   1.489   4.592
 2081SOL     OW 6272   2.864   0.796   4.962
 2081SOL    HW1 6273   2.905   0.764   5.048
 2081SOL    HW2 6274   2.768   0.769   4.959
 2082SOL     OW 6275   1.902   0.544   4.838
 2082SOL    HW1 6276   1.987   0.511   4.797
 2082SOL    HW2 6277   1.915   0.559   4.936
 2083SOL     OW 6278   2.677   0.572   4.049
 2083SOL    HW1 6279   2.684   0.483   4.003
 2083SOL    HW2 6280   2.583   0.606   4.041
 2084SOL     OW 6281   3.519   0.604   4.930
 2084SOL    HW1 6282   3.481   0.535   4.992
 2084SOL    HW2 6283   3.601   0.568   4.886
 2085SOL     OW 6284   2.533   0.464   4.993
 2085SOL    HW1 6285   2.499   0.375   4.963
 2085SOL    HW2 6286   2.559   0.518   4.913
 2086SOL     OW 6287   2.792   1.678   5.189
 2086SOL    HW1 6288   2.768   1.660   5.094
 2086SOL    HW2 6289   2.822   1.772   5.199
 2087SOL     OW 6290   2.335   0.500   3.915
 2087SOL    HW1 6291   2.396   0.580   3.919
 2087SOL    HW2 6292   2.240   0.531   3.922
 2088SOL     OW 6293   3.209   1.059   4.958
 2088SOL    HW1 6294   3.233   0.996   4.884
 2088SOL    HW2 6295   3.119   1.099   4.940
 2089SOL     OW 6296   3.164   0.855   4.033
 2089SOL    HW1 6297   3.078   0.824   4.075
 2089SOL    HW2 6298   3.160   0.841   3.934
 2090SOL     OW 6299   3.621   1.747   4.878
 2090SOL    HW1 6300   3.682   1.777   4.805
 2090SOL    HW2 6301   3.583   1.658   4.856
 2091SOL     OW 6302   3.114   1.731   4.852
 2091SOL    HW1 6303   3.198   1.736   4.798
 2091SOL    HW2 6304   3.091   1.635   4.870
 2092SOL     OW 6305   1.945   1.258   4.746
 2092SOL    HW1 6306   1.940   1.257   4.846
 2092SOL    HW2 6307   1.862   1.217   4.708
 2093SOL     OW 6308   3.588   0.135   4.247
 2093SOL    HW1 6309   3.661   0.118   4.180
 2093SOL    HW2 6310   3.557   0.048   4.285
 2094SOL     OW 6311   3.250   1.573   4.201
 2094SOL    HW1 6312   3.317   1.585   4.127
 2094SOL    HW2 6313   3.210   1.662   4.224
 2095SOL     OW 6314   3.142   0.927   4.396
 2095SOL    HW1 6315   3.202   0.846   4.398
 2095SOL    HW2 6316   3.182   0.996   4.336
 2096SOL     OW 6317   2.534   1.616   3.878
 2096SOL    HW1 6318   2.543   1.626   3.779
 2096SOL    HW2 6319   2.494   1.527   3.899
 2097SOL     OW 6320   3.512   1.720   5.118
 2097SOL    HW1 6321   3.565   1.730   5.034
 2097SOL    HW2 6322   3.485   1.810   5.152
 2098SOL     OW 6323   3.703   0.175   4.687
 2098SOL    HW1 6324   3.742   0.090   4.651
 2098SOL    HW2 6325   3.605   0.177   4.668
 2099SOL     OW 6326   2.125   0.326   4.444
 2099SOL    HW1 6327   2.046   0.377   4.410
 2099SOL    HW2 6328   2.116   0.311   4.542
 2100SOL     OW 6329   3.056   1.612   3.755
 2100SOL    HW1 6330   3.062   1.519   3.792
 2100SOL    HW2 6331   2.997   1.612   3.675
 2101SOL     OW 6332   2.684   1.002   5.096
 2101SOL    HW1 6333   2.724   1.001   5.004
 2101SOL    HW2 6334   2.694   1.094   5.136
 2102SOL     OW 6335   2.778   0.910   4.015
 2102SOL    HW1 6336   2.841   0.948   3.947
 2102SOL    HW2 6337   2.818   0.827   4.054
 2103SOL     OW 6338   3.366   1.607   3.768
 2103SOL    HW1 6339   3.274   1.644   3.775
 2103SOL    HW2 6340   3.404   1.627   3.678
 2104SOL     OW 6341   2.901   1.098   4.420
 2104SOL    HW1 6342   2.831   1.051   4.474
 2104SOL    HW2 6343   2.960   1.030   4.377
 2105SOL     OW 6344   2.876   0.236   4.695
 2105SOL    HW1 6345   2.868   0.200   4.602
 2105SOL    HW2 6346   2.874   0.160   4.760
 2106SOL     OW 6347   2.452   1.487   4.215
 2106SOL    HW1 6348   2.494   1.429   4.145
 2106SOL    HW2 6349   2.408   1.566   4.171
 2107SOL     OW 6350   3.571   0.385   5.105
 2107SOL    HW1 6351   3.644   0.454   5.109
 2107SOL    HW2 6352   3.599   0.310   5.046
 2108SOL     OW 6353   2.117   1.348   4.014
 2108SOL    HW1 6354   2.021   1.349   3.987
 2108SOL    HW2 6355   2.129   1.401   4.098
 2109SOL     OW 6356   1.937   0.345   3.757
 2109SOL    HW1 6357   1.845   0.317   3.728
 2109SOL    HW2 6358   1.968   0.422   3.701
 2110SOL     OW 6359   1.934   0.166   4.042
 2110SOL    HW1 6360   1.917   0.249   3.988
 2110SOL    HW2 6361   2.024   0.129   4.020
 2111SOL     OW 6362   3.045   1.335   3.843
 2111SOL    HW1 6363   2.946   1.324   3.845
 2111SOL    HW2 6364   3.079   1.350   3.936
 2112SOL     OW 6365   3.355   1.767   4.683
 2112SOL    HW1 6366   3.388   1.831   4.614
 2112SOL    HW2 6367   3.421   1.761   4.758
 2113SOL     OW 6368   3.536   0.883   4.978
 2113SOL    HW1 6369   3.509   0.794   4.941
 2113SOL    HW2 6370   3.537   0.951   4.905
 2114SOL     OW 6371   3.087   0.325   4.173
 2114SOL    HW1 6372   3.152   0.251   4.162
 2114SOL    HW2 6373   3.107   0.375   4.257
 2115SOL     OW 6374   2.456   0.745   4.376
 2115SOL    HW1 6375   2.506   0.830   4.357
 2115SOL    HW2 6376   2.368   0.747   4.328
 2116SOL     OW 6377   3.592   0.934   5.241
 2116SOL    HW1 6378   3.630   1.025   5.256
 2116SOL    HW2 6379   3.584   0.917   5.142
 2117SOL     OW 6380   2.721   1.374   3.740
 2117SOL    HW1 6381   2.675   1.389   3.828
 2117SOL    HW2 6382   2.765   1.459   3.710
 2118SOL     OW 6383   2.523   1.790   4.677
 2118SOL    HW1 6384   2.477   1.878   4.664
 2118SOL    HW2 6385   2.622   1.802   4.670
 2119SOL     OW 6386   2.721   0.956   4.585
 2119SOL    HW1 6387   2.775   0.887   4.633
 2119SOL    HW2 6388   2.689   1.025   4.651
 2120SOL     OW 6389   2.945   0.984   3.811
 2120SOL    HW1 6390   2.922   1.037   3.729
 2120SOL    HW2 6391   3.026   0.928   3.792
 2121SOL     OW 6392   3.723   1.569   4.575
 2121SOL    HW1 6393   3.652   1.557   4.505
 2121SOL    HW2 6394   3.724   1.490   4.635
 2122SOL     OW 6395   1.941   1.240   4.377
 2122SOL    HW1 6396   1.940   1.193   4.465
 2122SOL    HW2 6397   2.023   1.212   4.326
 2123SOL     OW 6398   3.686   0.192   4.951
 2123SOL    HW1 6399   3.682   0.102   4.995
 2123SOL    HW2 6400   3.689   0.181   4.852
 2124SOL     OW 6401   2.290   0.424   4.244
 2124SOL    HW1 6402   2.320   0.352   4.182
 2124SOL    HW2 6403   2.251   0.384   4.327
 2125SOL     OW 6404   3.567   1.487   4.828
 2125SOL    HW1 6405   3.474   1.462   4.801
 2125SOL    HW2 6406   3.593   1.437   4.910
 2126SOL     OW 6407   2.674   1.586   4.411
 2126SOL    HW1 6408   2.706   1.596   4.317
 2126SOL    HW2 6409   2.595   1.524   4.413
 2127SOL     OW 6410   3.286   0.214   4.836
 2127SOL    HW1 6411   3.338   0.149   4.891
 2127SOL    HW2 6412   3.237   0.277   4.897
 2128SOL     OW 6413   2.863   0.034   4.878
 2128SOL    HW1 6414   2.800  -0.038   4.847
 2128SOL    HW2 6415   2.956  -0.002   4.878
 2129SOL     OW 6416   2.632   1.330   4.025
 2129SOL    HW1 6417   2.586   1.243   4.042
 2129SOL    HW2 6418   2.723   1.327   4.066
 2130SOL     OW 6419   3.214   0.052   3.892
 2130SOL    HW1 6420   3.249   0.011   3.808
 2130SOL    HW2 6421   3.124   0.014   3.912
 2131SOL     OW 6422   3.162   0.453   4.415
 2131SOL    HW1 6423   3.103   0.533   4.419
 2131SOL    HW2 6424   3.177   0.418   4.508
 2132SOL     OW 6425   3.455   0.221   4.606
 2132SOL    HW1 6426   3.371   0.220   4.660
 2132SOL    HW2 6427   3.457   0.304   4.550
 2133SOL     OW 6428   1.901   1.077   4.024
 2133SOL    HW1 6429   2.000   1.066   4.015
 2133SOL    HW2 6430   1.861   0.991   4.056
 2134SOL     OW 6431   2.737   1.646   4.061
 2134SOL    HW1 6432   2.660   1.611   4.007
 2134SOL    HW2 6433   2.705   1.717   4.123
 2135SOL     OW 6434   2.092   2.490   0.113
 2135SOL    HW1 6435   1.999   2.488   0.150
 2135SOL    HW2 6436   2.093   2.451   0.021
 2136SOL     OW 6437   2.087   2.137   0.996
 2136SOL    HW1 6438   2.122   2.120   1.088
 2136SOL    HW2 6439   1.999   2.092   0.984
 2137SOL     OW 6440   1.881   2.230   0.647
 2137SOL    HW1 6441   1.799   2.273   0.686
 2137SOL    HW2 6442   1.853   2.157   0.584
 2138SOL     OW 6443   2.431   3.137   1.165
 2138SOL    HW1 6444   2.338   3.130   1.128
 2138SOL    HW2 6445   2.442   3.226   1.209
 2139SOL     OW 6446   3.417   3.373   0.703
 2139SOL    HW1 6447   3.360   3.357   0.784
 2139SOL    HW2 6448   3.358   3.383   0.623
 2140SOL     OW 6449   2.997   2.565   0.717
 2140SOL    HW1 6450   3.054   2.643   0.692
 2140SOL    HW2 6451   2.937   2.591   0.793
 2141SOL     OW 6452   3.617   2.469   0.231
 2141SOL    HW1 6453   3.605   2.456   0.132
 2141SOL    HW2 6454   3.587   2.388   0.280
 2142SOL     OW 6455   2.630   3.006   1.023
 2142SOL    HW1 6456   2.552   3.023   1.083
 2142SOL    HW2 6457   2.664   3.093   0.987
 2143SOL     OW 6458   2.712   2.660   1.823
 2143SOL    HW1 6459   2.708   2.736   1.888
 2143SOL    HW2 6460   2.734   2.696   1.732
 2144SOL     OW 6461   2.547   2.874   0.665
 2144SOL    HW1 6462   2.616   2.858   0.735
 2144SOL    HW2 6463   2.474   2.931   0.703
 2145SOL     OW 6464   2.548   3.023   1.803
 2145SOL    HW1 6465   2.608   3.102   1.817
 2145SOL    HW2 6466   2.462   3.054   1.762
 2146SOL     OW 6467   2.197   3.297   1.061
 2146SOL    HW1 6468   2.119   3.266   1.008
 2146SOL    HW2 6469   2.255   3.355   1.004
 2147SOL     OW 6470   3.322   3.367   1.339
 2147SOL    HW1 6471   3.346   3.461   1.365
 2147SOL    HW2 6472   3.306   3.313   1.421
 2148SOL     OW 6473   2.300   2.254   1.499
 2148SOL    HW1 6474   2.382   2.198   1.508
 2148SOL    HW2 6475   2.219   2.196   1.503
 2149SOL     OW 6476   3.465   2.309   0.737
 2149SOL    HW1 6477   3.391   2.355   0.687
 2149SOL    HW2 6478   3.516   2.377   0.790
 2150SOL     OW 6479   2.093   3.575   0.483
 2150SOL    HW1 6480   2.127   3.652   0.537
 2150SOL    HW2 6481   2.137   3.575   0.393
 2151SOL     OW 6482   2.989   3.203   1.690
 2151SOL    HW1 6483   3.036   3.203   1.778
 2151SOL    HW2 6484   2.941   3.116   1.679
 2152SOL     OW 6485   2.092   3.296   0.538
 2152SOL    HW1 6486   2.066   3.392   0.538
 2152SOL    HW2 6487   2.021   3.242   0.583
 2153SOL     OW 6488   2.102   2.953   0.886
 2153SOL    HW1 6489   2.116   2.869   0.938
 2153SOL    HW2 6490   2.047   3.017   0.941
 2154SOL     OW 6491   2.482   3.648   1.439
 2154SOL    HW1 6492   2.390   3.631   1.474
 2154SOL    HW2 6493   2.510   3.740   1.465
 2155SOL     OW 6494   2.468   2.826   0.123
 2155SOL    HW1 6495   2.475   2.910   0.069
 2155SOL    HW2 6496   2.514   2.839   0.211
 2156SOL     OW 6497   3.456   1.976   1.480
 2156SOL    HW1 6498   3.438   2.043   1.408
 2156SOL    HW2 6499   3.453   2.022   1.569
 2157SOL     OW 6500   1.984   2.505   0.563
 2157SOL    HW1 6501   1.939   2.417   0.580
 2157SOL    HW2 6502   1.983   2.559   0.647
 2158SOL     OW 6503   3.704   3.629   0.359
 2158SOL    HW1 6504   3.758   3.600   0.439
 2158SOL    HW2 6505   3.734   3.719   0.330
 2159SOL     OW 6506   1.889   3.458   0.117
 2159SOL    HW1 6507   1.870   3.362   0.138
 2159SOL    HW2 6508   1.856   3.516   0.192
 2160SOL     OW 6509   3.551   2.784   0.612
 2160SOL    HW1 6510   3.646   2.755   0.620
 2160SOL    HW2 6511   3.543   2.849   0.537
 2161SOL     OW 6512   3.503   2.970   0.432
 2161SOL    HW1 6513   3.589   2.972   0.380
 2161SOL    HW2 6514   3.517   3.017   0.520
 2162SOL     OW 6515   1.975   2.599   1.597
 2162SOL    HW1 6516   2.063   2.586   1.642
 2162SOL    HW2 6517   1.962   2.696   1.575
 2163SOL     OW 6518   2.475   3.227   0.726
 2163SOL    HW1 6519   2.426   3.140   0.735
 2163SOL    HW2 6520   2.452   3.270   0.639
 2164SOL     OW 6521   3.155   3.090   1.423
 2164SOL    HW1 6522   3.192   3.017   1.365
 2164SOL    HW2 6523   3.207   3.095   1.508
 2165SOL     OW 6524   2.671   1.866   0.502
 2165SOL    HW1 6525   2.711   1.957   0.493
 2165SOL    HW2 6526   2.571   1.874   0.508
 2166SOL     OW 6527   2.059   2.838   1.264
 2166SOL    HW1 6528   2.148   2.793   1.250
 2166SOL    HW2 6529   1.986   2.773   1.245
 2167SOL     OW 6530   3.387   2.861   0.190
 2167SOL    HW1 6531   3.324   2.785   0.203
 2167SOL    HW2 6532   3.435   2.879   0.276
 2168SOL     OW 6533   3.049   3.654   1.616
 2168SOL    HW1 6534   3.073   3.714   1.540
 2168SOL    HW2 6535   3.056   3.559   1.586
 2169SOL     OW 6536   2.179   2.113   1.801
 2169SOL    HW1 6537   2.250   2.184   1.807
 2169SOL    HW2 6538   2.091   2.152   1.829
 2170SOL     OW 6539   3.328   3.279   0.953
 2170SOL    HW1 6540   3.269   3.285   1.033
 2170SOL    HW2 6541   3.313   3.191   0.907
 2171SOL     OW 6542   3.529   3.576   0.572
 2171SOL    HW1 6543   3.488   3.553   0.484
 2171SOL    HW2 6544   3.511   3.502   0.637
 2172SOL     OW 6545   2.460   2.591   0.270
 2172SOL    HW1 6546   2.484   2.660   0.202
 2172SOL    HW2 6547   2.382   2.624   0.324
 2173SOL     OW 6548   3.143   2.207   0.944
 2173SOL    HW1 6549   3.057   2.157   0.931
 2173SOL    HW2 6550   3.205   2.153   1.000
 2174SOL     OW 6551   3.438   3.524   0.307
 2174SOL    HW1 6552   3.527   3.570   0.310
 2174SOL    HW2 6553   3.417   3.500   0.212
 2175SOL     OW 6554   2.669   2.467   1.465
 2175SOL    HW1 6555   2.622   2.464   1.554
 2175SOL    HW2 6556   2.618   2.412   1.399
 2176SOL     OW 6557   3.256   2.331   1.674
 2176SOL    HW1 6558   3.236   2.374   1.762
 2176SOL    HW2 6559   3.334   2.269   1.683
 2177SOL     OW 6560   2.835   2.752   1.572
 2177SOL    HW1 6561   2.881   2.668   1.543
 2177SOL    HW2 6562   2.779   2.786   1.497
 2178SOL     OW 6563   2.853   2.272   1.242
 2178SOL    HW1 6564   2.776   2.306   1.296
 2178SOL    HW2 6565   2.819   2.221   1.163
 2179SOL     OW 6566   2.903   2.563   0.429
 2179SOL    HW1 6567   2.929   2.559   0.525
 2179SOL    HW2 6568   2.818   2.512   0.415
 2180SOL     OW 6569   1.938   2.673   0.789
 2180SOL    HW1 6570   2.037   2.661   0.798
 2180SOL    HW2 6571   1.914   2.768   0.810
 2181SOL     OW 6572   1.992   3.683   1.571
 2181SOL    HW1 6573   1.982   3.668   1.670
 2181SOL    HW2 6574   1.906   3.719   1.535
 2182SOL     OW 6575   2.727   2.210   0.195
 2182SOL    HW1 6576   2.786   2.273   0.146
 2182SOL    HW2 6577   2.746   2.116   0.166
 2183SOL     OW 6578   3.581   2.447   1.831
 2183SOL    HW1 6579   3.555   2.536   1.795
 2183SOL    HW2 6580   3.579   2.379   1.758
 2184SOL     OW 6581   3.224   3.006   0.545
 2184SOL    HW1 6582   3.307   2.977   0.497
 2184SOL    HW2 6583   3.175   3.073   0.489
 2185SOL     OW 6584   2.412   2.058   0.885
 2185SOL    HW1 6585   2.407   2.053   0.985
 2185SOL    HW2 6586   2.414   2.154   0.856
 2186SOL     OW 6587   2.870   3.318   0.477
 2186SOL    HW1 6588   2.824   3.390   0.425
 2186SOL    HW2 6589   2.866   3.338   0.575
 2187SOL     OW 6590   2.213   3.663   0.853
 2187SOL    HW1 6591   2.263   3.577   0.859
 2187SOL    HW2 6592   2.278   3.740   0.850
 2188SOL     OW 6593   3.657   2.928   0.873
 2188SOL    HW1 6594   3.595   2.913   0.797
 2188SOL    HW2 6595   3.605   2.939   0.958
 2189SOL     OW 6596   3.089   3.412   1.506
 2189SOL    HW1 6597   3.095   3.335   1.570
 2189SOL    HW2 6598   3.037   3.386   1.426
 2190SOL     OW 6599   2.183   2.805   0.242
 2190SOL    HW1 6600   2.265   2.844   0.200
 2190SOL    HW2 6601   2.156   2.723   0.193
 2191SOL     OW 6602   3.320   2.597   0.728
 2191SOL    HW1 6603   3.315   2.532   0.803
 2191SOL    HW2 6604   3.400   2.656   0.741
 2192SOL     OW 6605   2.323   3.128   1.727
 2192SOL    HW1 6606   2.273   3.129   1.641
 2192SOL    HW2 6607   2.260   3.110   1.803
 2193SOL     OW 6608   2.973   3.638   0.237
 2193SOL    HW1 6609   2.913   3.576   0.287
 2193SOL    HW2 6610   3.004   3.594   0.152
 2194SOL     OW 6611   2.064   2.147   1.498
 2194SOL    HW1 6612   1.984   2.207   1.485
 2194SOL    HW2 6613   2.054   2.098   1.584
 2195SOL     OW 6614   3.494   3.239   0.081
 2195SOL    HW1 6615   3.462   3.333   0.071
 2195SOL    HW2 6616   3.418   3.176   0.069
 2196SOL     OW 6617   2.326   3.605   0.323
 2196SOL    HW1 6618   2.359   3.644   0.409
 2196SOL    HW2 6619   2.402   3.598   0.258
 2197SOL     OW 6620   3.262   1.969   0.426
 2197SOL    HW1 6621   3.238   1.932   0.336
 2197SOL    HW2 6622   3.361   1.985   0.430
 2198SOL     OW 6623   2.111   3.647   1.241
 2198SOL    HW1 6624   2.168   3.582   1.291
 2198SOL    HW2 6625   2.095   3.614   1.148
 2199SOL     OW 6626   2.802   3.560   0.904
 2199SOL    HW1 6627   2.882   3.503   0.925
 2199SOL    HW2 6628   2.753   3.520   0.827
 2200SOL     OW 6629   2.244   2.562   0.480
 2200SOL    HW1 6630   2.289   2.472   0.477
 2200SOL    HW2 6631   2.150   2.551   0.513
 2201SOL     OW 6632   3.409   2.084   1.729
 2201SOL    HW1 6633   3.404   2.121   1.821
 2201SOL    HW2 6634   3.337   2.015   1.717
 2202SOL     OW 6635   2.476   1.984   0.117
 2202SOL    HW1 6636   2.574   1.962   0.124
 2202SOL    HW2 6637   2.445   1.967   0.024
 2203SOL     OW 6638   2.643   2.126   1.749
 2203SOL    HW1 6639   2.710   2.065   1.792
 2203SOL    HW2 6640   2.570   2.145   1.814
 2204SOL     OW 6641   2.750   3.376   1.195
 2204SOL    HW1 6642   2.727   3.351   1.101
 2204SOL    HW2 6643   2.811   3.307   1.234
 2205SOL     OW 6644   3.213   2.452   1.433
 2205SOL    HW1 6645   3.241   2.409   1.518
 2205SOL    HW2 6646   3.238   2.548   1.434
 2206SOL     OW 6647   2.665   3.264   0.924
 2206SOL    HW1 6648   2.755   3.278   0.882
 2206SOL    HW2 6649   2.594   3.266   0.853
 2207SOL     OW 6650   2.784   2.365   0.899
 2207SOL    HW1 6651   2.759   2.356   0.803
 2207SOL    HW2 6652   2.832   2.283   0.930
 2208SOL     OW 6653   2.401   1.926   0.512
 2208SOL    HW1 6654   2.320   1.927   0.570
 2208SOL    HW2 6655   2.404   2.009   0.457
 2209SOL     OW 6656   3.296   3.050   0.041
 2209SOL    HW1 6657   3.328   2.974   0.098
 2209SOL    HW2 6658   3.204   3.077   0.071
 2210SOL     OW 6659   2.159   1.897   0.171
 2210SOL    HW1 6660   2.208   1.981   0.150
 2210SOL    HW2 6661   2.221   1.832   0.216
 2211SOL     OW 6662   2.797   2.098   0.480
 2211SOL    HW1 6663   2.749   2.139   0.402
 2211SOL    HW2 6664   2.896   2.096   0.461
 2212SOL     OW 6665   2.938   2.545   1.464
 2212SOL    HW1 6666   2.858   2.484   1.467
 2212SOL    HW2 6667   3.019   2.492   1.440
 2213SOL     OW 6668   3.089   3.432   0.793
 2213SOL    HW1 6669   3.110   3.506   0.728
 2213SOL    HW2 6670   3.157   3.432   0.866
 2214SOL     OW 6671   2.321   3.014   0.741
 2214SOL    HW1 6672   2.250   2.987   0.806
 2214SOL    HW2 6673   2.295   2.986   0.648
 2215SOL     OW 6674   3.133   3.659   0.591
 2215SOL    HW1 6675   3.177   3.723   0.527
 2215SOL    HW2 6676   3.083   3.711   0.661
 2216SOL     OW 6677   2.894   2.411   0.016
 2216SOL    HW1 6678   2.853   2.493  -0.023
 2216SOL    HW2 6679   2.958   2.437   0.089
 2217SOL     OW 6680   1.940   2.418   1.386
 2217SOL    HW1 6681   2.032   2.417   1.345
 2217SOL    HW2 6682   1.934   2.492   1.453
 2218SOL     OW 6683   2.423   2.084   1.147
 2218SOL    HW1 6684   2.461   2.000   1.184
 2218SOL    HW2 6685   2.335   2.103   1.191
 2219SOL     OW 6686   2.728   2.316   0.642
 2219SOL    HW1 6687   2.696   2.388   0.580
 2219SOL    HW2 6688   2.752   2.235   0.589
 2220SOL     OW 6689   2.879   1.901   0.753
 2220SOL    HW1 6690   2.807   1.906   0.684
 2220SOL    HW2 6691   2.855   1.832   0.822
 2221SOL     OW 6692   3.291   3.035   0.867
 2221SOL    HW1 6693   3.236   2.951   0.860
 2221SOL    HW2 6694   3.317   3.064   0.775
 2222SOL     OW 6695   3.328   2.452   0.992
 2222SOL    HW1 6696   3.298   2.357   0.999
 2222SOL    HW2 6697   3.401   2.468   1.058
 2223SOL     OW 6698   3.719   2.695   0.377
 2223SOL    HW1 6699   3.761   2.631   0.441
 2223SOL    HW2 6700   3.681   2.644   0.299
 2224SOL     OW 6701   2.350   3.247   0.174
 2224SOL    HW1 6702   2.263   3.232   0.221
 2224SOL    HW2 6703   2.333   3.273   0.079
 2225SOL     OW 6704   3.526   3.142   0.657
 2225SOL    HW1 6705   3.625   3.150   0.671
 2225SOL    HW2 6706   3.481   3.226   0.688
 2226SOL     OW 6707   3.252   2.437   0.078
 2226SOL    HW1 6708   3.198   2.416   0.159
 2226SOL    HW2 6709   3.343   2.396   0.087
 2227SOL     OW 6710   2.389   2.118   0.328
 2227SOL    HW1 6711   2.416   2.059   0.253
 2227SOL    HW2 6712   2.389   2.213   0.297
 2228SOL     OW 6713   3.616   3.085   1.588
 2228SOL    HW1 6714   3.707   3.046   1.575
 2228SOL    HW2 6715   3.624   3.181   1.612
 2229SOL     OW 6716   2.926   3.209   1.340
 2229SOL    HW1 6717   2.846   3.186   1.395
 2229SOL    HW2 6718   3.009   3.183   1.389
 2230SOL     OW 6719   3.454   3.491   1.625
 2230SOL    HW1 6720   3.481   3.525   1.535
 2230SOL    HW2 6721   3.533   3.453   1.671
 2231SOL     OW 6722   2.973   3.057   1.100
 2231SOL    HW1 6723   2.933   3.101   1.181
 2231SOL    HW2 6724   2.932   3.094   1.017
 2232SOL     OW 6725   3.500   2.961   1.079
 2232SOL    HW1 6726   3.505   3.042   1.138
 2232SOL    HW2 6727   3.414   2.963   1.028
 2233SOL     OW 6728   2.777   1.951   1.402
 2233SOL    HW1 6729   2.802   1.931   1.307
 2233SOL    HW2 6730   2.849   2.007   1.444
 2234SOL     OW 6731   2.842   2.978   1.719
 2234SOL    HW1 6732   2.743   2.984   1.729
 2234SOL    HW2 6733   2.865   2.898   1.663
 2235SOL     OW 6734   2.567   2.912   0.368
 2235SOL    HW1 6735   2.553   2.919   0.467
 2235SOL    HW2 6736   2.651   2.861   0.350
 2236SOL     OW 6737   2.272   2.675   1.251
 2236SOL    HW1 6738   2.358   2.687   1.301
 2236SOL    HW2 6739   2.230   2.588   1.278
 2237SOL     OW 6740   3.136   2.248   1.262
 2237SOL    HW1 6741   3.157   2.322   1.326
 2237SOL    HW2 6742   3.047   2.265   1.219
 2238SOL     OW 6743   1.926   3.426   1.331
 2238SOL    HW1 6744   1.880   3.508   1.297
 2238SOL    HW2 6745   2.024   3.445   1.340
 2239SOL     OW 6746   2.229   2.962   0.501
 2239SOL    HW1 6747   2.222   3.045   0.445
 2239SOL    HW2 6748   2.233   2.882   0.441
 2240SOL     OW 6749   2.428   2.399   0.865
 2240SOL    HW1 6750   2.440   2.465   0.791
 2240SOL    HW2 6751   2.474   2.433   0.948
 2241SOL     OW 6752   3.114   3.210   0.388
 2241SOL    HW1 6753   3.164   3.287   0.428
 2241SOL    HW2 6754   3.019   3.212   0.420
 2242SOL     OW 6755   3.134   3.307   1.142
 2242SOL    HW1 6756   3.181   3.320   1.229
 2242SOL    HW2 6757   3.068   3.233   1.151
 2243SOL     OW 6758   3.444   2.501   0.472
 2243SOL    HW1 6759   3.413   2.562   0.545
 2243SOL    HW2 6760   3.494   2.553   0.403
 2244SOL     OW 6761   2.216   3.372   1.329
 2244SOL    HW1 6762   2.195   3.328   1.242
 2244SOL    HW2 6763   2.313   3.398   1.332
 2245SOL     OW 6764   2.264   2.613   1.598
 2245SOL    HW1 6765   2.332   2.668   1.551
 2245SOL    HW2 6766   2.304   2.525   1.625
 2246SOL     OW 6767   3.449   2.641   1.670
 2246SOL    HW1 6768   3.357   2.679   1.665
 2246SOL    HW2 6769   3.509   2.688   1.605
 2247SOL     OW 6770   2.875   1.967   1.770
 2247SOL    HW1 6771   2.881   2.052   1.718
 2247SOL    HW2 6772   2.907   1.891   1.713
 2248SOL     OW 6773   2.366   1.912   1.740
 2248SOL    HW1 6774   2.324   1.855   1.670
 2248SOL    HW2 6775   2.300   1.981   1.772
 2249SOL     OW 6776   2.435   2.732   1.029
 2249SOL    HW1 6777   2.479   2.821   1.020
 2249SOL    HW2 6778   2.372   2.732   1.106
 2250SOL     OW 6779   3.222   2.724   1.045
 2250SOL    HW1 6780   3.147   2.724   0.979
 2250SOL    HW2 6781   3.259   2.632   1.054
 2251SOL     OW 6782   3.071   2.387   0.275
 2251SOL    HW1 6783   3.084   2.303   0.329
 2251SOL    HW2 6784   3.042   2.461   0.335
 2252SOL     OW 6785   2.169   2.075   1.231
 2252SOL    HW1 6786   2.146   2.112   1.321
 2252SOL    HW2 6787   2.139   1.980   1.225
 2253SOL     OW 6788   1.899   3.172   1.282
 2253SOL    HW1 6789   1.952   3.123   1.350
 2253SOL    HW2 6790   1.921   3.270   1.287
 2254SOL     OW 6791   2.594   2.496   1.064
 2254SOL    HW1 6792   2.653   2.470   0.988
 2254SOL    HW2 6793   2.566   2.592   1.053
 2255SOL     OW 6794   3.590   2.797   1.854
 2255SOL    HW1 6795   3.544   2.790   1.765
 2255SOL    HW2 6796   3.528   2.841   1.920
 2256SOL     OW 6797   2.169   1.925   0.618
 2256SOL    HW1 6798   2.158   2.019   0.651
 2256SOL    HW2 6799   2.164   1.862   0.695
 2257SOL     OW 6800   3.484   2.229   0.374
 2257SOL    HW1 6801   3.486   2.153   0.438
 2257SOL    HW2 6802   3.436   2.306   0.414
 2258SOL     OW 6803   2.885   2.628   0.966
 2258SOL    HW1 6804   2.900   2.649   1.062
 2258SOL    HW2 6805   2.855   2.533   0.957
 2259SOL     OW 6806   2.842   3.435   1.700
 2259SOL    HW1 6807   2.822   3.479   1.612
 2259SOL    HW2 6808   2.881   3.344   1.684
 2260SOL     OW 6809   3.721   3.380   1.605
 2260SOL    HW1 6810   3.735   3.407   1.510
 2260SOL    HW2 6811   3.804   3.402   1.658
 2261SOL     OW 6812   2.212   2.760   1.804
 2261SOL    HW1 6813   2.288   2.804   1.852
 2261SOL    HW2 6814   2.247   2.713   1.722
 2262SOL     OW 6815   3.402   2.136   0.125
 2262SOL    HW1 6816   3.341   2.061   0.148
 2262SOL    HW2 6817   3.424   2.188   0.208
 2263SOL     OW 6818   3.165   2.700   0.042
 2263SOL    HW1 6819   3.199   2.607   0.057
 2263SOL    HW2 6820   3.183   2.727  -0.053
 2264SOL     OW 6821   2.930   3.195   0.849
 2264SOL    HW1 6822   2.937   3.111   0.794
 2264SOL    HW2 6823   2.992   3.264   0.813
 2265SOL     OW 6824   2.181   2.672   0.949
 2265SOL    HW1 6825   2.274   2.708   0.954
 2265SOL    HW2 6826   2.175   2.587   1.001
 2266SOL     OW 6827   2.201   2.371   1.006
 2266SOL    HW1 6828   2.149   2.288   0.989
 2266SOL    HW2 6829   2.278   2.376   0.942
 2267SOL     OW 6830   3.000   2.242   1.678
 2267SOL    HW1 6831   2.955   2.305   1.742
 2267SOL    HW2 6832   3.093   2.273   1.661
 2268SOL     OW 6833   3.022   2.069   1.477
 2268SOL    HW1 6834   3.022   2.133   1.554
 2268SOL    HW2 6835   3.050   2.117   1.394
 2269SOL     OW 6836   1.950   3.663   0.927
 2269SOL    HW1 6837   1.908   3.577   0.900
 2269SOL    HW2 6838   2.044   3.666   0.893
 2270SOL     OW 6839   2.366   3.430   0.910
 2270SOL    HW1 6840   2.432   3.504   0.919
 2270SOL    HW2 6841   2.410   3.351   0.868
 2271SOL     OW 6842   2.864   2.658   1.238
 2271SOL    HW1 6843   2.905   2.626   1.324
 2271SOL    HW2 6844   2.768   2.631   1.235
 2272SOL     OW 6845   1.902   2.406   1.114
 2272SOL    HW1 6846   1.987   2.373   1.073
 2272SOL    HW2 6847   1.915   2.421   1.212
 2273SOL     OW 6848   2.051   2.382   1.722
 2273SOL    HW1 6849   2.110   2.342   1.652
 2273SOL    HW2 6850   1.993   2.453   1.681
 2274SOL     OW 6851   3.231   2.812   1.660
 2274SOL    HW1 6852   3.270   2.901   1.680
 2274SOL    HW2 6853   3.241   2.792   1.563
 2275SOL     OW 6854   2.677   2.434   0.325
 2275SOL    HW1 6855   2.684   2.345   0.279
 2275SOL    HW2 6856   2.583   2.468   0.317
 2276SOL     OW 6857   3.519   2.466   1.206
 2276SOL    HW1 6858   3.481   2.397   1.268
 2276SOL    HW2 6859   3.601   2.430   1.162
 2277SOL     OW 6860   2.114   3.426   1.744
 2277SOL    HW1 6861   2.084   3.483   1.820
 2277SOL    HW2 6862   2.107   3.329   1.770
 2278SOL     OW 6863   2.533   2.326   1.269
 2278SOL    HW1 6864   2.499   2.237   1.239
 2278SOL    HW2 6865   2.559   2.380   1.189
 2279SOL     OW 6866   2.792   3.540   1.465
 2279SOL    HW1 6867   2.768   3.522   1.370
 2279SOL    HW2 6868   2.822   3.634   1.475
 2280SOL     OW 6869   2.335   2.362   0.191
 2280SOL    HW1 6870   2.396   2.442   0.195
 2280SOL    HW2 6871   2.240   2.393   0.198
 2281SOL     OW 6872   2.021   2.999   1.466
 2281SOL    HW1 6873   2.043   2.938   1.542
 2281SOL    HW2 6874   2.031   2.950   1.380
 2282SOL     OW 6875   3.209   2.921   1.234
 2282SOL    HW1 6876   3.233   2.858   1.160
 2282SOL    HW2 6877   3.119   2.961   1.216
 2283SOL     OW 6878   3.164   2.717   0.309
 2283SOL    HW1 6879   3.078   2.686   0.351
 2283SOL    HW2 6880   3.160   2.703   0.210
 2284SOL     OW 6881   3.621   3.609   1.154
 2284SOL    HW1 6882   3.682   3.639   1.081
 2284SOL    HW2 6883   3.583   3.520   1.132
 2285SOL     OW 6884   3.114   3.593   1.128
 2285SOL    HW1 6885   3.198   3.598   1.074
 2285SOL    HW2 6886   3.091   3.497   1.146
 2286SOL     OW 6887   1.945   3.120   1.022
 2286SOL    HW1 6888   1.940   3.119   1.122
 2286SOL    HW2 6889   1.862   3.079   0.984
 2287SOL     OW 6890   2.550   3.524   1.716
 2287SOL    HW1 6891   2.494   3.605   1.725
 2287SOL    HW2 6892   2.602   3.528   1.630
 2288SOL     OW 6893   2.765   1.948   0.133
 2288SOL    HW1 6894   2.816   1.949   0.047
 2288SOL    HW2 6895   2.821   1.906   0.204
 2289SOL     OW 6896   3.588   1.997   0.523
 2289SOL    HW1 6897   3.661   1.980   0.456
 2289SOL    HW2 6898   3.557   1.910   0.561
 2290SOL     OW 6899   3.250   3.435   0.477
 2290SOL    HW1 6900   3.317   3.447   0.403
 2290SOL    HW2 6901   3.210   3.524   0.500
 2291SOL     OW 6902   1.992   3.656   1.851
 2291SOL    HW1 6903   1.951   3.582   1.904
 2291SOL    HW2 6904   2.056   3.707   1.909
 2292SOL     OW 6905   3.142   2.789   0.672
 2292SOL    HW1 6906   3.202   2.708   0.674
 2292SOL    HW2 6907   3.182   2.858   0.612
 2293SOL     OW 6908   2.692   3.135   1.422
 2293SOL    HW1 6909   2.687   3.168   1.517
 2293SOL    HW2 6910   2.606   3.154   1.376
 2294SOL     OW 6911   2.534   3.478   0.154
 2294SOL    HW1 6912   2.543   3.488   0.055
 2294SOL    HW2 6913   2.494   3.389   0.175
 2295SOL     OW 6914   3.512   3.582   1.394
 2295SOL    HW1 6915   3.565   3.592   1.310
 2295SOL    HW2 6916   3.485   3.672   1.428
 2296SOL     OW 6917   3.703   2.037   0.963
 2296SOL    HW1 6918   3.742   1.952   0.927
 2296SOL    HW2 6919   3.605   2.039   0.944
 2297SOL     OW 6920   2.125   2.188   0.720
 2297SOL    HW1 6921   2.046   2.239   0.686
 2297SOL    HW2 6922   2.116   2.173   0.818
 2298SOL     OW 6923   3.056   3.474   0.031
 2298SOL    HW1 6924   3.062   3.381   0.068
 2298SOL    HW2 6925   2.997   3.474  -0.049
 2299SOL     OW 6926   2.684   2.864   1.372
 2299SOL    HW1 6927   2.724   2.863   1.280
 2299SOL    HW2 6928   2.694   2.956   1.412
 2300SOL     OW 6929   2.778   2.772   0.291
 2300SOL    HW1 6930   2.841   2.810   0.223
 2300SOL    HW2 6931   2.818   2.689   0.330
 2301SOL     OW 6932   3.366   3.469   0.044
 2301SOL    HW1 6933   3.274   3.506   0.051
 2301SOL    HW2 6934   3.404   3.489  -0.046
 2302SOL     OW 6935   2.234   3.150   1.490
 2302SOL    HW1 6936   2.221   3.243   1.456
 2302SOL    HW2 6937   2.150   3.098   1.477
 2303SOL     OW 6938   3.476   3.154   1.289
 2303SOL    HW1 6939   3.536   3.157   1.369
 2303SOL    HW2 6940   3.401   3.218   1.302
 2304SOL     OW 6941   2.901   2.960   0.696
 2304SOL    HW1 6942   2.831   2.913   0.750
 2304SOL    HW2 6943   2.960   2.892   0.653
 2305SOL     OW 6944   2.876   2.098   0.971
 2305SOL    HW1 6945   2.868   2.062   0.878
 2305SOL    HW2 6946   2.874   2.022   1.036
 2306SOL     OW 6947   2.452   3.349   0.491
 2306SOL    HW1 6948   2.494   3.291   0.421
 2306SOL    HW2 6949   2.408   3.428   0.447
 2307SOL     OW 6950   3.571   2.247   1.381
 2307SOL    HW1 6951   3.644   2.316   1.385
 2307SOL    HW2 6952   3.599   2.172   1.322
 2308SOL     OW 6953   2.117   3.210   0.290
 2308SOL    HW1 6954   2.021   3.211   0.263
 2308SOL    HW2 6955   2.129   3.263   0.374
 2309SOL     OW 6956   1.967   2.875   1.726
 2309SOL    HW1 6957   1.890   2.842   1.780
 2309SOL    HW2 6958   2.052   2.845   1.768
 2310SOL     OW 6959   2.534   2.065   1.489
 2310SOL    HW1 6960   2.624   2.049   1.449
 2310SOL    HW2 6961   2.542   2.070   1.588
 2311SOL     OW 6962   3.302   2.718   1.398
 2311SOL    HW1 6963   3.245   2.770   1.335
 2311SOL    HW2 6964   3.398   2.730   1.374
 2312SOL     OW 6965   1.934   2.028   0.318
 2312SOL    HW1 6966   1.917   2.111   0.264
 2312SOL    HW2 6967   2.024   1.991   0.296
 2313SOL     OW 6968   3.045   3.197   0.119
 2313SOL    HW1 6969   2.946   3.186   0.121
 2313SOL    HW2 6970   3.079   3.212   0.212
 2314SOL     OW 6971   2.475   2.704   1.431
 2314SOL    HW1 6972   2.531   2.785   1.414
 2314SOL    HW2 6973   2.534   2.624   1.434
 2315SOL     OW 6974   3.355   3.629   0.959
 2315SOL    HW1 6975   3.388   3.693   0.890
 2315SOL    HW2 6976   3.421   3.623   1.034
 2316SOL     OW 6977   2.578   2.427   1.708
 2316SOL    HW1 6978   2.597   2.492   1.782
 2316SOL    HW2 6979   2.638   2.347   1.717
 2317SOL     OW 6980   3.312   3.082   1.633
 2317SOL    HW1 6981   3.303   3.072   1.732
 2317SOL    HW2 6982   3.408   3.075   1.607
 2318SOL     OW 6983   2.252   3.603   1.560
 2318SOL    HW1 6984   2.161   3.644   1.558
 2318SOL    HW2 6985   2.245   3.509   1.592
 2319SOL     OW 6986   3.536   2.745   1.254
 2319SOL    HW1 6987   3.509   2.656   1.217
 2319SOL    HW2 6988   3.537   2.813   1.181
 2320SOL     OW 6989   3.087   2.187   0.449
 2320SOL    HW1 6990   3.152   2.113   0.438
 2320SOL    HW2 6991   3.107   2.237   0.533
 2321SOL     OW 6992   2.456   2.607   0.652
 2321SOL    HW1 6993   2.506   2.692   0.633
 2321SOL    HW2 6994   2.368   2.609   0.604
 2322SOL     OW 6995   3.639   2.204   1.642
 2322SOL    HW1 6996   3.622   2.235   1.548
 2322SOL    HW2 6997   3.555   2.167   1.680
 2323SOL     OW 6998   3.592   2.796   1.517
 2323SOL    HW1 6999   3.630   2.887   1.532
 2323SOL    HW2 7000   3.584   2.779   1.418
 2324SOL     OW 7001   2.721   3.236   0.016
 2324SOL    HW1 7002   2.675   3.251   0.104
 2324SOL    HW2 7003   2.765   3.321  -0.014
 2325SOL     OW 7004   2.523   3.652   0.953
 2325SOL    HW1 7005   2.477   3.740   0.940
 2325SOL    HW2 7006   2.622   3.664   0.946
 2326SOL     OW 7007   2.721   2.818   0.861
 2326SOL    HW1 7008   2.775   2.749   0.909
 2326SOL    HW2 7009   2.689   2.887   0.927
 2327SOL     OW 7010   2.945   2.846   0.087
 2327SOL    HW1 7011   2.922   2.899   0.005
 2327SOL    HW2 7012   3.026   2.790   0.068
 2328SOL     OW 7013   3.723   3.431   0.851
 2328SOL    HW1 7014   3.652   3.419   0.781
 2328SOL    HW2 7015   3.724   3.352   0.911
 2329SOL     OW 7016   2.083   3.176   1.844
 2329SOL    HW1 7017   2.018   3.103   1.823
 2329SOL    HW2 7018   2.087   3.190   1.942
 2330SOL     OW 7019   1.941   3.102   0.653
 2330SOL    HW1 7020   1.940   3.055   0.741
 2330SOL    HW2 7021   2.023   3.074   0.602
 2331SOL     OW 7022   2.534   3.253   1.624
 2331SOL    HW1 7023   2.456   3.203   1.662
 2331SOL    HW2 7024   2.531   3.348   1.655
 2332SOL     OW 7025   3.686   2.054   1.227
 2332SOL    HW1 7026   3.682   1.964   1.271
 2332SOL    HW2 7027   3.689   2.043   1.128
 2333SOL     OW 7028   2.290   2.286   0.520
 2333SOL    HW1 7029   2.320   2.214   0.458
 2333SOL    HW2 7030   2.251   2.246   0.603
 2334SOL     OW 7031   3.567   3.349   1.104
 2334SOL    HW1 7032   3.474   3.324   1.077
 2334SOL    HW2 7033   3.593   3.299   1.186
 2335SOL     OW 7034   2.179   2.409   1.280
 2335SOL    HW1 7035   2.217   2.350   1.352
 2335SOL    HW2 7036   2.219   2.383   1.192
 2336SOL     OW 7037   2.674   3.448   0.687
 2336SOL    HW1 7038   2.706   3.458   0.593
 2336SOL    HW2 7039   2.595   3.386   0.689
 2337SOL     OW 7040   3.286   2.076   1.112
 2337SOL    HW1 7041   3.338   2.011   1.167
 2337SOL    HW2 7042   3.237   2.139   1.173
 2338SOL     OW 7043   2.863   1.896   1.154
 2338SOL    HW1 7044   2.800   1.824   1.123
 2338SOL    HW2 7045   2.956   1.860   1.154
 2339SOL     OW 7046   2.632   3.192   0.301
 2339SOL    HW1 7047   2.586   3.105   0.318
 2339SOL    HW2 7048   2.723   3.189   0.342
 2340SOL     OW 7049   2.480   3.429   1.284
 2340SOL    HW1 7050   2.475   3.511   1.341
 2340SOL    HW2 7051   2.569   3.426   1.239
 2341SOL     OW 7052   3.214   1.914   0.168
 2341SOL    HW1 7053   3.249   1.873   0.084
 2341SOL    HW2 7054   3.124   1.876   0.188
 2342SOL     OW 7055   3.162   2.315   0.691
 2342SOL    HW1 7056   3.103   2.395   0.695
 2342SOL    HW2 7057   3.177   2.280   0.784
 2343SOL     OW 7058   3.455   2.083   0.882
 2343SOL    HW1 7059   3.371   2.082   0.936
 2343SOL    HW2 7060   3.457   2.166   0.826
 2344SOL     OW 7061   1.901   2.939   0.300
 2344SOL    HW1 7062   2.000   2.928   0.291
 2344SOL    HW2 7063   1.861   2.853   0.332
 2345SOL     OW 7064   2.737   3.508   0.337
 2345SOL    HW1 7065   2.660   3.473   0.283
 2345SOL    HW2 7066   2.705   3.579   0.399
 2346SOL     OW 7067   2.092   2.490   1.975
 2346SOL    HW1 7068   1.999   2.488   2.012
 2346SOL    HW2 7069   2.093   2.451   1.883
 2347SOL     OW 7070   2.087   2.137   2.858
 2347SOL    HW1 7071   2.122   2.120   2.950
 2347SOL    HW2 7072   1.999   2.092   2.846
 2348SOL     OW 7073   1.881   2.230   2.509
 2348SOL    HW1 7074   1.799   2.273   2.548
 2348SOL    HW2 7075   1.853   2.157   2.446
 2349SOL     OW 7076   2.431   3.137   3.027
 2349SOL    HW1 7077   2.338   3.130   2.990
 2349SOL    HW2 7078   2.442   3.226   3.071
 2350SOL     OW 7079   3.417   3.373   2.565
 2350SOL    HW1 7080   3.360   3.357   2.646
 2350SOL    HW2 7081   3.358   3.383   2.485
 2351SOL     OW 7082   2.997   2.565   2.579
 2351SOL    HW1 7083   3.054   2.643   2.554
 2351SOL    HW2 7084   2.937   2.591   2.655
 2352SOL     OW 7085   3.617   2.469   2.093
 2352SOL    HW1 7086   3.605   2.456   1.994
 2352SOL    HW2 7087   3.587   2.388   2.142
 2353SOL     OW 7088   2.630   3.006   2.885
 2353SOL    HW1 7089   2.552   3.023   2.945
 2353SOL    HW2 7090   2.664   3.093   2.849
 2354SOL     OW 7091   2.712   2.660   3.685
 2354SOL    HW1 7092   2.708   2.736   3.750
 2354SOL    HW2 7093   2.734   2.696   3.594
 2355SOL     OW 7094   2.547   2.874   2.527
 2355SOL    HW1 7095   2.616   2.858   2.597
 2355SOL    HW2 7096   2.474   2.931   2.565
 2356SOL     OW 7097   2.548   3.023   3.665
 2356SOL    HW1 7098   2.608   3.102   3.679
 2356SOL    HW2 7099   2.462   3.054   3.624
 2357SOL     OW 7100   2.197   3.297   2.923
 2357SOL    HW1 7101   2.119   3.266   2.870
 2357SOL    HW2 7102   2.255   3.355   2.866
 2358SOL     OW 7103   3.322   3.367   3.201
 2358SOL    HW1 7104   3.346   3.461   3.227
 2358SOL    HW2 7105   3.306   3.313   3.283
 2359SOL     OW 7106   2.300   2.254   3.361
 2359SOL    HW1 7107   2.382   2.198   3.370
 2359SOL    HW2 7108   2.219   2.196   3.365
 2360SOL     OW 7109   3.465   2.309   2.599
 2360SOL    HW1 7110   3.391   2.355   2.549
 2360SOL    HW2 7111   3.516   2.377   2.652
 2361SOL     OW 7112   2.093   3.575   2.345
 2361SOL    HW1 7113   2.127   3.652   2.399
 2361SOL    HW2 7114   2.137   3.575   2.255
 2362SOL     OW 7115   2.989   3.203   3.552
 2362SOL    HW1 7116   3.036   3.203   3.640
 2362SOL    HW2 7117   2.941   3.116   3.541
 2363SOL     OW 7118   2.092   3.296   2.400
 2363SOL    HW1 7119   2.066   3.392   2.400
 2363SOL    HW2 7120   2.021   3.242   2.445
 2364SOL     OW 7121   2.102   2.953   2.748
 2364SOL    HW1 7122   2.116   2.869   2.800
 2364SOL    HW2 7123   2.047   3.017   2.803
 2365SOL     OW 7124   2.482   3.648   3.301
 2365SOL    HW1 7125   2.390   3.631   3.336
 2365SOL    HW2 7126   2.510   3.740   3.327
 2366SOL     OW 7127   2.468   2.826   1.985
 2366SOL    HW1 7128   2.475   2.910   1.931
 2366SOL    HW2 7129   2.514   2.839   2.073
 2367SOL     OW 7130   3.456   1.976   3.342
 2367SOL    HW1 7131   3.438   2.043   3.270
 2367SOL    HW2 7132   3.453   2.022   3.431
 2368SOL     OW 7133   1.984   2.505   2.425
 2368SOL    HW1 7134   1.939   2.417   2.442
 2368SOL    HW2 7135   1.983   2.559   2.509
 2369SOL     OW 7136   3.704   3.629   2.221
 2369SOL    HW1 7137   3.758   3.600   2.301
 2369SOL    HW2 7138   3.734   3.719   2.192
 2370SOL     OW 7139   1.889   3.458   1.979
 2370SOL    HW1 7140   1.870   3.362   2.000
 2370SOL    HW2 7141   1.856   3.516   2.054
 2371SOL     OW 7142   3.551   2.784   2.474
 2371SOL    HW1 7143   3.646   2.755   2.482
 2371SOL    HW2 7144   3.543   2.849   2.399
 2372SOL     OW 7145   3.503   2.970   2.294
 2372SOL    HW1 7146   3.589   2.972   2.242
 2372SOL    HW2 7147   3.517   3.017   2.382
 2373SOL     OW 7148   1.975   2.599   3.459
 2373SOL    HW1 7149   2.063   2.586   3.504
 2373SOL    HW2 7150   1.962   2.696   3.437
 2374SOL     OW 7151   2.475   3.227   2.588
 2374SOL    HW1 7152   2.426   3.140   2.597
 2374SOL    HW2 7153   2.452   3.270   2.501
 2375SOL     OW 7154   3.155   3.090   3.285
 2375SOL    HW1 7155   3.192   3.017   3.227
 2375SOL    HW2 7156   3.207   3.095   3.370
 2376SOL     OW 7157   2.671   1.866   2.364
 2376SOL    HW1 7158   2.711   1.957   2.355
 2376SOL    HW2 7159   2.571   1.874   2.370
 2377SOL     OW 7160   2.059   2.838   3.126
 2377SOL    HW1 7161   2.148   2.793   3.112
 2377SOL    HW2 7162   1.986   2.773   3.107
 2378SOL     OW 7163   3.387   2.861   2.052
 2378SOL    HW1 7164   3.324   2.785   2.065
 2378SOL    HW2 7165   3.435   2.879   2.138
 2379SOL     OW 7166   3.049   3.654   3.478
 2379SOL    HW1 7167   3.073   3.714   3.402
 2379SOL    HW2 7168   3.056   3.559   3.448
 2380SOL     OW 7169   2.179   2.113   3.663
 2380SOL    HW1 7170   2.250   2.184   3.669
 2380SOL    HW2 7171   2.091   2.152   3.691
 2381SOL     OW 7172   3.328   3.279   2.815
 2381SOL    HW1 7173   3.269   3.285   2.895
 2381SOL    HW2 7174   3.313   3.191   2.769
 2382SOL     OW 7175   3.529   3.576   2.434
 2382SOL    HW1 7176   3.488   3.553   2.346
 2382SOL    HW2 7177   3.511   3.502   2.499
 2383SOL     OW 7178   3.143   2.207   2.806
 2383SOL    HW1 7179   3.057   2.157   2.793
 2383SOL    HW2 7180   3.205   2.153   2.862
 2384SOL     OW 7181   3.438   3.524   2.169
 2384SOL    HW1 7182   3.527   3.570   2.172
 2384SOL    HW2 7183   3.417   3.500   2.074
 2385SOL     OW 7184   2.669   2.467   3.327
 2385SOL    HW1 7185   2.622   2.464   3.416
 2385SOL    HW2 7186   2.618   2.412   3.261
 2386SOL     OW 7187   3.256   2.331   3.536
 2386SOL    HW1 7188   3.236   2.374   3.624
 2386SOL    HW2 7189   3.334   2.269   3.545
 2387SOL     OW 7190   2.835   2.752   3.434
 2387SOL    HW1 7191   2.881   2.668   3.405
 2387SOL    HW2 7192   2.779   2.786   3.359
 2388SOL     OW 7193   2.853   2.272   3.104
 2388SOL    HW1 7194   2.776   2.306   3.158
 2388SOL    HW2 7195   2.819   2.221   3.025
 2389SOL     OW 7196   1.938   2.673   2.651
 2389SOL    HW1 7197   2.037   2.661   2.660
 2389SOL    HW2 7198   1.914   2.768   2.672
 2390SOL     OW 7199   1.992   3.683   3.433
 2390SOL    HW1 7200   1.982   3.668   3.532
 2390SOL    HW2 7201   1.906   3.719   3.397
 2391SOL     OW 7202   2.727   2.210   2.057
 2391SOL    HW1 7203   2.786   2.273   2.008
 2391SOL    HW2 7204   2.746   2.116   2.028
 2392SOL     OW 7205   3.581   2.447   3.693
 2392SOL    HW1 7206   3.555   2.536   3.657
 2392SOL    HW2 7207   3.579   2.379   3.620
 2393SOL     OW 7208   3.224   3.006   2.407
 2393SOL    HW1 7209   3.307   2.977   2.359
 2393SOL    HW2 7210   3.175   3.073   2.351
 2394SOL     OW 7211   2.412   2.058   2.747
 2394SOL    HW1 7212   2.407   2.053   2.847
 2394SOL    HW2 7213   2.414   2.154   2.718
 2395SOL     OW 7214   2.870   3.318   2.339
 2395SOL    HW1 7215   2.824   3.390   2.287
 2395SOL    HW2 7216   2.866   3.338   2.437
 2396SOL     OW 7217   2.213   3.663   2.715
 2396SOL    HW1 7218   2.263   3.577   2.721
 2396SOL    HW2 7219   2.278   3.740   2.712
 2397SOL     OW 7220   3.657   2.928   2.735
 2397SOL    HW1 7221   3.595   2.913   2.659
 2397SOL    HW2 7222   3.605   2.939   2.820
 2398SOL     OW 7223   3.089   3.412   3.368
 2398SOL    HW1 7224   3.095   3.335   3.432
 2398SOL    HW2 7225   3.037   3.386   3.288
 2399SOL     OW 7226   2.183   2.805   2.104
 2399SOL    HW1 7227   2.265   2.844   2.062
 2399SOL    HW2 7228   2.156   2.723   2.055
 2400SOL     OW 7229   3.320   2.597   2.590
 2400SOL    HW1 7230   3.315   2.532   2.665
 2400SOL    HW2 7231   3.400   2.656   2.603
 2401SOL     OW 7232   2.323   3.128   3.589
 2401SOL    HW1 7233   2.273   3.129   3.503
 2401SOL    HW2 7234   2.260   3.110   3.665
 2402SOL     OW 7235   2.973   3.638   2.099
 2402SOL    HW1 7236   2.913   3.576   2.149
 2402SOL    HW2 7237   3.004   3.594   2.014
 2403SOL     OW 7238   2.064   2.147   3.360
 2403SOL    HW1 7239   1.984   2.207   3.347
 2403SOL    HW2 7240   2.054   2.098   3.446
 2404SOL     OW 7241   3.494   3.239   1.943
 2404SOL    HW1 7242   3.462   3.333   1.933
 2404SOL    HW2 7243   3.418   3.176   1.931
 2405SOL     OW 7244   2.326   3.605   2.185
 2405SOL    HW1 7245   2.359   3.644   2.271
 2405SOL    HW2 7246   2.402   3.598   2.120
 2406SOL     OW 7247   3.262   1.969   2.288
 2406SOL    HW1 7248   3.238   1.932   2.198
 2406SOL    HW2 7249   3.361   1.985   2.292
 2407SOL     OW 7250   2.111   3.647   3.103
 2407SOL    HW1 7251   2.168   3.582   3.153
 2407SOL    HW2 7252   2.095   3.614   3.010
 2408SOL     OW 7253   2.802   3.560   2.766
 2408SOL    HW1 7254   2.882   3.503   2.787
 2408SOL    HW2 7255   2.753   3.520   2.689
 2409SOL     OW 7256   3.409   2.084   3.591
 2409SOL    HW1 7257   3.404   2.121   3.683
 2409SOL    HW2 7258   3.337   2.015   3.579
 2410SOL     OW 7259   2.476   1.984   1.979
 2410SOL    HW1 7260   2.574   1.962   1.986
 2410SOL    HW2 7261   2.445   1.967   1.886
 2411SOL     OW 7262   2.643   2.126   3.611
 2411SOL    HW1 7263   2.710   2.065   3.654
 2411SOL    HW2 7264   2.570   2.145   3.676
 2412SOL     OW 7265   2.750   3.376   3.057
 2412SOL    HW1 7266   2.727   3.351   2.963
 2412SOL    HW2 7267   2.811   3.307   3.096
 2413SOL     OW 7268   3.213   2.452   3.295
 2413SOL    HW1 7269   3.241   2.409   3.380
 2413SOL    HW2 7270   3.238   2.548   3.296
 2414SOL     OW 7271   2.665   3.264   2.786
 2414SOL    HW1 7272   2.755   3.278   2.744
 2414SOL    HW2 7273   2.594   3.266   2.715
 2415SOL     OW 7274   2.401   1.926   2.374
 2415SOL    HW1 7275   2.320   1.927   2.432
 2415SOL    HW2 7276   2.404   2.009   2.319
 2416SOL     OW 7277   3.296   3.050   1.903
 2416SOL    HW1 7278   3.328   2.974   1.960
 2416SOL    HW2 7279   3.204   3.077   1.933
 2417SOL     OW 7280   2.159   1.897   2.033
 2417SOL    HW1 7281   2.208   1.981   2.012
 2417SOL    HW2 7282   2.221   1.832   2.078
 2418SOL     OW 7283   2.797   2.098   2.342
 2418SOL    HW1 7284   2.749   2.139   2.264
 2418SOL    HW2 7285   2.896   2.096   2.323
 2419SOL     OW 7286   2.938   2.545   3.326
 2419SOL    HW1 7287   2.858   2.484   3.329
 2419SOL    HW2 7288   3.019   2.492   3.302
 2420SOL     OW 7289   3.089   3.432   2.655
 2420SOL    HW1 7290   3.110   3.506   2.590
 2420SOL    HW2 7291   3.157   3.432   2.728
 2421SOL     OW 7292   3.133   3.659   2.453
 2421SOL    HW1 7293   3.177   3.723   2.389
 2421SOL    HW2 7294   3.083   3.711   2.523
 2422SOL     OW 7295   2.894   2.411   1.878
 2422SOL    HW1 7296   2.853   2.493   1.839
 2422SOL    HW2 7297   2.958   2.437   1.951
 2423SOL     OW 7298   1.940   2.418   3.248
 2423SOL    HW1 7299   2.032   2.417   3.207
 2423SOL    HW2 7300   1.934   2.492   3.315
 2424SOL     OW 7301   2.423   2.084   3.009
 2424SOL    HW1 7302   2.461   2.000   3.046
 2424SOL    HW2 7303   2.335   2.103   3.053
 2425SOL     OW 7304   2.879   1.901   2.615
 2425SOL    HW1 7305   2.807   1.906   2.546
 2425SOL    HW2 7306   2.855   1.832   2.684
 2426SOL     OW 7307   3.291   3.035   2.729
 2426SOL    HW1 7308   3.236   2.951   2.722
 2426SOL    HW2 7309   3.317   3.064   2.637
 2427SOL     OW 7310   3.328   2.452   2.854
 2427SOL    HW1 7311   3.298   2.357   2.861
 2427SOL    HW2 7312   3.401   2.468   2.920
 2428SOL     OW 7313   3.719   2.695   2.239
 2428SOL    HW1 7314   3.761   2.631   2.303
 2428SOL    HW2 7315   3.681   2.644   2.161
 2429SOL     OW 7316   2.350   3.247   2.036
 2429SOL    HW1 7317   2.263   3.232   2.083
 2429SOL    HW2 7318   2.333   3.273   1.941
 2430SOL     OW 7319   3.526   3.142   2.519
 2430SOL    HW1 7320   3.625   3.150   2.533
 2430SOL    HW2 7321   3.481   3.226   2.550
 2431SOL     OW 7322   3.252   2.437   1.940
 2431SOL    HW1 7323   3.198   2.416   2.021
 2431SOL    HW2 7324   3.343   2.396   1.949
 2432SOL     OW 7325   2.389   2.118   2.190
 2432SOL    HW1 7326   2.416   2.059   2.115
 2432SOL    HW2 7327   2.389   2.213   2.159
 2433SOL     OW 7328   3.616   3.085   3.450
 2433SOL    HW1 7329   3.707   3.046   3.437
 2433SOL    HW2 7330   3.624   3.181   3.474
 2434SOL     OW 7331   2.926   3.209   3.202
 2434SOL    HW1 7332   2.846   3.186   3.257
 2434SOL    HW2 7333   3.009   3.183   3.251
 2435SOL     OW 7334   3.454   3.491   3.487
 2435SOL    HW1 7335   3.481   3.525   3.397
 2435SOL    HW2 7336   3.533   3.453   3.533
 2436SOL     OW 7337   2.973   3.057   2.962
 2436SOL    HW1 7338   2.933   3.101   3.043
 2436SOL    HW2 7339   2.932   3.094   2.879
 2437SOL     OW 7340   3.500   2.961   2.941
 2437SOL    HW1 7341   3.505   3.042   3.000
 2437SOL    HW2 7342   3.414   2.963   2.890
 2438SOL     OW 7343   2.777   1.951   3.264
 2438SOL    HW1 7344   2.802   1.931   3.169
 2438SOL    HW2 7345   2.849   2.007   3.306
 2439SOL     OW 7346   2.842   2.978   3.581
 2439SOL    HW1 7347   2.743   2.984   3.591
 2439SOL    HW2 7348   2.865   2.898   3.525
 2440SOL     OW 7349   2.567   2.912   2.230
 2440SOL    HW1 7350   2.553   2.919   2.329
 2440SOL    HW2 7351   2.651   2.861   2.212
 2441SOL     OW 7352   2.272   2.675   3.113
 2441SOL    HW1 7353   2.358   2.687   3.163
 2441SOL    HW2 7354   2.230   2.588   3.140
 2442SOL     OW 7355   3.136   2.248   3.124
 2442SOL    HW1 7356   3.157   2.322   3.188
 2442SOL    HW2 7357   3.047   2.265   3.081
 2443SOL     OW 7358   1.926   3.426   3.193
 2443SOL    HW1 7359   1.880   3.508   3.159
 2443SOL    HW2 7360   2.024   3.445   3.202
 2444SOL     OW 7361   2.229   2.962   2.363
 2444SOL    HW1 7362   2.222   3.045   2.307
 2444SOL    HW2 7363   2.233   2.882   2.303
 2445SOL     OW 7364   3.114   3.210   2.250
 2445SOL    HW1 7365   3.164   3.287   2.290
 2445SOL    HW2 7366   3.019   3.212   2.282
 2446SOL     OW 7367   3.134   3.307   3.004
 2446SOL    HW1 7368   3.181   3.320   3.091
 2446SOL    HW2 7369   3.068   3.233   3.013
 2447SOL     OW 7370   3.444   2.501   2.334
 2447SOL    HW1 7371   3.413   2.562   2.407
 2447SOL    HW2 7372   3.494   2.553   2.265
 2448SOL     OW 7373   2.216   3.372   3.191
 2448SOL    HW1 7374   2.195   3.328   3.104
 2448SOL    HW2 7375   2.313   3.398   3.194
 2449SOL     OW 7376   2.264   2.613   3.460
 2449SOL    HW1 7377   2.332   2.668   3.413
 2449SOL    HW2 7378   2.304   2.525   3.487
 2450SOL     OW 7379   3.449   2.641   3.532
 2450SOL    HW1 7380   3.357   2.679   3.527
 2450SOL    HW2 7381   3.509   2.688   3.467
 2451SOL     OW 7382   2.875   1.967   3.632
 2451SOL    HW1 7383   2.881   2.052   3.580
 2451SOL    HW2 7384   2.907   1.891   3.575
 2452SOL     OW 7385   2.366   1.912   3.602
 2452SOL    HW1 7386   2.324   1.855   3.532
 2452SOL    HW2 7387   2.300   1.981   3.634
 2453SOL     OW 7388   2.435   2.732   2.891
 2453SOL    HW1 7389   2.479   2.821   2.882
 2453SOL    HW2 7390   2.372   2.732   2.968
 2454SOL     OW 7391   3.222   2.724   2.907
 2454SOL    HW1 7392   3.147   2.724   2.841
 2454SOL    HW2 7393   3.259   2.632   2.916
 2455SOL     OW 7394   3.071   2.387   2.137
 2455SOL    HW1 7395   3.084   2.303   2.191
 2455SOL    HW2 7396   3.042   2.461   2.197
 2456SOL     OW 7397   2.169   2.075   3.093
 2456SOL    HW1 7398   2.146   2.112   3.183
 2456SOL    HW2 7399   2.139   1.980   3.087
 2457SOL     OW 7400   1.899   3.172   3.144
 2457SOL    HW1 7401   1.952   3.123   3.212
 2457SOL    HW2 7402   1.921   3.270   3.149
 2458SOL     OW 7403   3.590   2.797   3.716
 2458SOL    HW1 7404   3.544   2.790   3.627
 2458SOL    HW2 7405   3.528   2.841   3.782
 2459SOL     OW 7406   2.169   1.925   2.480
 2459SOL    HW1 7407   2.158   2.019   2.513
 2459SOL    HW2 7408   2.164   1.862   2.557
 2460SOL     OW 7409   3.484   2.229   2.236
 2460SOL    HW1 7410   3.486   2.153   2.300
 2460SOL    HW2 7411   3.436   2.306   2.276
 2461SOL     OW 7412   2.885   2.628   2.828
 2461SOL    HW1 7413   2.900   2.649   2.924
 2461SOL    HW2 7414   2.855   2.533   2.819
 2462SOL     OW 7415   2.842   3.435   3.562
 2462SOL    HW1 7416   2.822   3.479   3.474
 2462SOL    HW2 7417   2.881   3.344   3.546
 2463SOL     OW 7418   3.721   3.380   3.467
 2463SOL    HW1 7419   3.735   3.407   3.372
 2463SOL    HW2 7420   3.804   3.402   3.520
 2464SOL     OW 7421   2.212   2.760   3.666
 2464SOL    HW1 7422   2.288   2.804   3.714
 2464SOL    HW2 7423   2.247   2.713   3.584
 2465SOL     OW 7424   3.402   2.136   1.987
 2465SOL    HW1 7425   3.341   2.061   2.010
 2465SOL    HW2 7426   3.424   2.188   2.070
 2466SOL     OW 7427   3.165   2.700   1.904
 2466SOL    HW1 7428   3.199   2.607   1.919
 2466SOL    HW2 7429   3.183   2.727   1.809
 2467SOL     OW 7430   2.930   3.195   2.711
 2467SOL    HW1 7431   2.937   3.111   2.656
 2467SOL    HW2 7432   2.992   3.264   2.675
 2468SOL     OW 7433   2.181   2.672   2.811
 2468SOL    HW1 7434   2.274   2.708   2.816
 2468SOL    HW2 7435   2.175   2.587   2.863
 2469SOL     OW 7436   2.201   2.371   2.868
 2469SOL    HW1 7437   2.149   2.288   2.851
 2469SOL    HW2 7438   2.278   2.376   2.804
 2470SOL     OW 7439   3.000   2.242   3.540
 2470SOL    HW1 7440   2.955   2.305   3.604
 2470SOL    HW2 7441   3.093   2.273   3.523
 2471SOL     OW 7442   3.022   2.069   3.339
 2471SOL    HW1 7443   3.022   2.133   3.416
 2471SOL    HW2 7444   3.050   2.117   3.256
 2472SOL     OW 7445   1.870   3.188   2.062
 2472SOL    HW1 7446   1.777   3.209   2.031
 2472SOL    HW2 7447   1.880   3.089   2.075
 2473SOL     OW 7448   1.950   3.663   2.789
 2473SOL    HW1 7449   1.908   3.577   2.762
 2473SOL    HW2 7450   2.044   3.666   2.755
 2474SOL     OW 7451   2.366   3.430   2.772
 2474SOL    HW1 7452   2.432   3.504   2.781
 2474SOL    HW2 7453   2.410   3.351   2.730
 2475SOL     OW 7454   2.864   2.658   3.100
 2475SOL    HW1 7455   2.905   2.626   3.186
 2475SOL    HW2 7456   2.768   2.631   3.097
 2476SOL     OW 7457   1.902   2.406   2.976
 2476SOL    HW1 7458   1.987   2.373   2.935
 2476SOL    HW2 7459   1.915   2.421   3.074
 2477SOL     OW 7460   2.051   2.382   3.584
 2477SOL    HW1 7461   2.110   2.342   3.514
 2477SOL    HW2 7462   1.993   2.453   3.543
 2478SOL     OW 7463   3.231   2.812   3.522
 2478SOL    HW1 7464   3.270   2.901   3.542
 2478SOL    HW2 7465   3.241   2.792   3.425
 2479SOL     OW 7466   3.519   2.466   3.068
 2479SOL    HW1 7467   3.481   2.397   3.130
 2479SOL    HW2 7468   3.601   2.430   3.024
 2480SOL     OW 7469   2.114   3.426   3.606
 2480SOL    HW1 7470   2.084   3.483   3.682
 2480SOL    HW2 7471   2.107   3.329   3.632
 2481SOL     OW 7472   2.533   2.326   3.131
 2481SOL    HW1 7473   2.499   2.237   3.101
 2481SOL    HW2 7474   2.559   2.380   3.051
 2482SOL     OW 7475   2.792   3.540   3.327
 2482SOL    HW1 7476   2.768   3.522   3.232
 2482SOL    HW2 7477   2.822   3.634   3.337
 2483SOL     OW 7478   2.335   2.362   2.053
 2483SOL    HW1 7479   2.396   2.442   2.057
 2483SOL    HW2 7480   2.240   2.393   2.060
 2484SOL     OW 7481   2.021   2.999   3.328
 2484SOL    HW1 7482   2.043   2.938   3.404
 2484SOL    HW2 7483   2.031   2.950   3.242
 2485SOL     OW 7484   3.209   2.921   3.096
 2485SOL    HW1 7485   3.233   2.858   3.022
 2485SOL    HW2 7486   3.119   2.961   3.078
 2486SOL     OW 7487   3.164   2.717   2.171
 2486SOL    HW1 7488   3.078   2.686   2.213
 2486SOL    HW2 7489   3.160   2.703   2.072
 2487SOL     OW 7490   3.621   3.609   3.016
 2487SOL    HW1 7491   3.682   3.639   2.943
 2487SOL    HW2 7492   3.583   3.520   2.994
 2488SOL     OW 7493   3.114   3.593   2.990
 2488SOL    HW1 7494   3.198   3.598   2.936
 2488SOL    HW2 7495   3.091   3.497   3.008
 2489SOL     OW 7496   1.945   3.120   2.884
 2489SOL    HW1 7497   1.940   3.119   2.984
 2489SOL    HW2 7498   1.862   3.079   2.846
 2490SOL     OW 7499   2.550   3.524   3.578
 2490SOL    HW1 7500   2.494   3.605   3.587
 2490SOL    HW2 7501   2.602   3.528   3.492
 2491SOL     OW 7502   3.588   1.997   2.385
 2491SOL    HW1 7503   3.661   1.980   2.318
 2491SOL    HW2 7504   3.557   1.910   2.423
 2492SOL     OW 7505   3.250   3.435   2.339
 2492SOL    HW1 7506   3.317   3.447   2.265
 2492SOL    HW2 7507   3.210   3.524   2.362
 2493SOL     OW 7508   1.992   3.656   3.713
 2493SOL    HW1 7509   1.951   3.582   3.766
 2493SOL    HW2 7510   2.056   3.707   3.771
 2494SOL     OW 7511   3.142   2.789   2.534
 2494SOL    HW1 7512   3.202   2.708   2.536
 2494SOL    HW2 7513   3.182   2.858   2.474
 2495SOL     OW 7514   2.692   3.135   3.284
 2495SOL    HW1 7515   2.687   3.168   3.379
 2495SOL    HW2 7516   2.606   3.154   3.238
 2496SOL     OW 7517   2.534   3.478   2.016
 2496SOL    HW1 7518   2.543   3.488   1.917
 2496SOL    HW2 7519   2.494   3.389   2.037
 2497SOL     OW 7520   3.512   3.582   3.256
 2497SOL    HW1 7521   3.565   3.592   3.172
 2497SOL    HW2 7522   3.485   3.672   3.290
 2498SOL     OW 7523   3.703   2.037   2.825
 2498SOL    HW1 7524   3.742   1.952   2.789
 2498SOL    HW2 7525   3.605   2.039   2.806
 2499SOL     OW 7526   2.125   2.188   2.582
 2499SOL    HW1 7527   2.046   2.239   2.548
 2499SOL    HW2 7528   2.116   2.173   2.680
 2500SOL     OW 7529   3.056   3.474   1.893
 2500SOL    HW1 7530   3.062   3.381   1.930
 2500SOL    HW2 7531   2.997   3.474   1.813
 2501SOL     OW 7532   2.684   2.864   3.234
 2501SOL    HW1 7533   2.724   2.863   3.142
 2501SOL    HW2 7534   2.694   2.956   3.274
 2502SOL     OW 7535   3.366   3.469   1.906
 2502SOL    HW1 7536   3.274   3.506   1.913
 2502SOL    HW2 7537   3.404   3.489   1.816
 2503SOL     OW 7538   2.234   3.150   3.352
 2503SOL    HW1 7539   2.221   3.243   3.318
 2503SOL    HW2 7540   2.150   3.098   3.339
 2504SOL     OW 7541   3.476   3.154   3.151
 2504SOL    HW1 7542   3.536   3.157   3.231
 2504SOL    HW2 7543   3.401   3.218   3.164
 2505SOL     OW 7544   2.901   2.960   2.558
 2505SOL    HW1 7545   2.831   2.913   2.612
 2505SOL    HW2 7546   2.960   2.892   2.515
 2506SOL     OW 7547   2.452   3.349   2.353
 2506SOL    HW1 7548   2.494   3.291   2.283
 2506SOL    HW2 7549   2.408   3.428   2.309
 2507SOL     OW 7550   3.571   2.247   3.243
 2507SOL    HW1 7551   3.644   2.316   3.247
 2507SOL    HW2 7552   3.599   2.172   3.184
 2508SOL     OW 7553   2.117   3.210   2.152
 2508SOL    HW1 7554   2.021   3.211   2.125
 2508SOL    HW2 7555   2.129   3.263   2.236
 2509SOL     OW 7556   1.967   2.875   3.588
 2509SOL    HW1 7557   1.890   2.842   3.642
 2509SOL    HW2 7558   2.052   2.845   3.630
 2510SOL     OW 7559   2.534   2.065   3.351
 2510SOL    HW1 7560   2.624   2.049   3.311
 2510SOL    HW2 7561   2.542   2.070   3.450
 2511SOL     OW 7562   1.937   2.207   1.895
 2511SOL    HW1 7563   1.845   2.179   1.866
 2511SOL    HW2 7564   1.968   2.284   1.839
 2512SOL     OW 7565   3.302   2.718   3.260
 2512SOL    HW1 7566   3.245   2.770   3.197
 2512SOL    HW2 7567   3.398   2.730   3.236
 2513SOL     OW 7568   1.934   2.028   2.180
 2513SOL    HW1 7569   1.917   2.111   2.126
 2513SOL    HW2 7570   2.024   1.991   2.158
 2514SOL     OW 7571   3.045   3.197   1.981
 2514SOL    HW1 7572   2.946   3.186   1.983
 2514SOL    HW2 7573   3.079   3.212   2.074
 2515SOL     OW 7574   2.475   2.704   3.293
 2515SOL    HW1 7575   2.531   2.785   3.276
 2515SOL    HW2 7576   2.534   2.624   3.296
 2516SOL     OW 7577   3.355   3.629   2.821
 2516SOL    HW1 7578   3.388   3.693   2.752
 2516SOL    HW2 7579   3.421   3.623   2.896
 2517SOL     OW 7580   2.578   2.427   3.570
 2517SOL    HW1 7581   2.597   2.492   3.644
 2517SOL    HW2 7582   2.638   2.347   3.579
 2518SOL     OW 7583   3.312   3.082   3.495
 2518SOL    HW1 7584   3.303   3.072   3.594
 2518SOL    HW2 7585   3.408   3.075   3.469
 2519SOL     OW 7586   2.252   3.603   3.422
 2519SOL    HW1 7587   2.161   3.644   3.420
 2519SOL    HW2 7588   2.245   3.509   3.454
 2520SOL     OW 7589   3.536   2.745   3.116
 2520SOL    HW1 7590   3.509   2.656   3.079
 2520SOL    HW2 7591   3.537   2.813   3.043
 2521SOL     OW 7592   3.087   2.187   2.311
 2521SOL    HW1 7593   3.152   2.113   2.300
 2521SOL    HW2 7594   3.107   2.237   2.395
 2522SOL     OW 7595   3.639   2.204   3.504
 2522SOL    HW1 7596   3.622   2.235   3.410
 2522SOL    HW2 7597   3.555   2.167   3.542
 2523SOL     OW 7598   3.592   2.796   3.379
 2523SOL    HW1 7599   3.630   2.887   3.394
 2523SOL    HW2 7600   3.584   2.779   3.280
 2524SOL     OW 7601   2.721   3.236   1.878
 2524SOL    HW1 7602   2.675   3.251   1.966
 2524SOL    HW2 7603   2.765   3.321   1.848
 2525SOL     OW 7604   2.523   3.652   2.815
 2525SOL    HW1 7605   2.477   3.740   2.802
 2525SOL    HW2 7606   2.622   3.664   2.808
 2526SOL     OW 7607   2.721   2.818   2.723
 2526SOL    HW1 7608   2.775   2.749   2.771
 2526SOL    HW2 7609   2.689   2.887   2.789
 2527SOL     OW 7610   2.945   2.846   1.949
 2527SOL    HW1 7611   2.922   2.899   1.867
 2527SOL    HW2 7612   3.026   2.790   1.930
 2528SOL     OW 7613   3.723   3.431   2.713
 2528SOL    HW1 7614   3.652   3.419   2.643
 2528SOL    HW2 7615   3.724   3.352   2.773
 2529SOL     OW 7616   2.083   3.176   3.706
 2529SOL    HW1 7617   2.018   3.103   3.685
 2529SOL    HW2 7618   2.087   3.190   3.804
 2530SOL     OW 7619   1.941   3.102   2.515
 2530SOL    HW1 7620   1.940   3.055   2.603
 2530SOL    HW2 7621   2.023   3.074   2.464
 2531SOL     OW 7622   2.534   3.253   3.486
 2531SOL    HW1 7623   2.456   3.203   3.524
 2531SOL    HW2 7624   2.531   3.348   3.517
 2532SOL     OW 7625   3.686   2.054   3.089
 2532SOL    HW1 7626   3.682   1.964   3.133
 2532SOL    HW2 7627   3.689   2.043   2.990
 2533SOL     OW 7628   2.290   2.286   2.382
 2533SOL    HW1 7629   2.320   2.214   2.320
 2533SOL    HW2 7630   2.251   2.246   2.465
 2534SOL     OW 7631   3.567   3.349   2.966
 2534SOL    HW1 7632   3.474   3.324   2.939
 2534SOL    HW2 7633   3.593   3.299   3.048
 2535SOL     OW 7634   2.179   2.409   3.142
 2535SOL    HW1 7635   2.217   2.350   3.214
 2535SOL    HW2 7636   2.219   2.383   3.054
 2536SOL     OW 7637   2.674   3.448   2.549
 2536SOL    HW1 7638   2.706   3.458   2.455
 2536SOL    HW2 7639   2.595   3.386   2.551
 2537SOL     OW 7640   3.286   2.076   2.974
 2537SOL    HW1 7641   3.338   2.011   3.029
 2537SOL    HW2 7642   3.237   2.139   3.035
 2538SOL     OW 7643   2.863   1.896   3.016
 2538SOL    HW1 7644   2.800   1.824   2.985
 2538SOL    HW2 7645   2.956   1.860   3.016
 2539SOL     OW 7646   2.632   3.192   2.163
 2539SOL    HW1 7647   2.586   3.105   2.180
 2539SOL    HW2 7648   2.723   3.189   2.204
 2540SOL     OW 7649   2.480   3.429   3.146
 2540SOL    HW1 7650   2.475   3.511   3.203
 2540SOL    HW2 7651   2.569   3.426   3.101
 2541SOL     OW 7652   3.214   1.914   2.030
 2541SOL    HW1 7653   3.249   1.873   1.946
 2541SOL    HW2 7654   3.124   1.876   2.050
 2542SOL     OW 7655   3.162   2.315   2.553
 2542SOL    HW1 7656   3.103   2.395   2.557
 2542SOL    HW2 7657   3.177   2.280   2.646
 2543SOL     OW 7658   3.455   2.083   2.744
 2543SOL    HW1 7659   3.371   2.082   2.798
 2543SOL    HW2 7660   3.457   2.166   2.688
 2544SOL     OW 7661   1.901   2.939   2.162
 2544SOL    HW1 7662   2.000   2.928   2.153
 2544SOL    HW2 7663   1.861   2.853   2.194
 2545SOL     OW 7664   2.737   3.508   2.199
 2545SOL    HW1 7665   2.660   3.473   2.145
 2545SOL    HW2 7666   2.705   3.579   2.261
 2546SOL     OW 7667   2.092   2.490   3.837
 2546SOL    HW1 7668   1.999   2.488   3.874
 2546SOL    HW2 7669   2.093   2.451   3.745
 2547SOL     OW 7670   2.087   2.137   4.720
 2547SOL    HW1 7671   2.122   2.120   4.812
 2547SOL    HW2 7672   1.999   2.092   4.708
 2548SOL     OW 7673   1.881   2.230   4.371
 2548SOL    HW1 7674   1.799   2.273   4.410
 2548SOL    HW2 7675   1.853   2.157   4.308
 2549SOL     OW 7676   2.431   3.137   4.889
 2549SOL    HW1 7677   2.338   3.130   4.852
 2549SOL    HW2 7678   2.442   3.226   4.933
 2550SOL     OW 7679   3.417   3.373   4.427
 2550SOL    HW1 7680   3.360   3.357   4.508
 2550SOL    HW2 7681   3.358   3.383   4.347
 2551SOL     OW 7682   2.997   2.565   4.441
 2551SOL    HW1 7683   3.054   2.643   4.416
 2551SOL    HW2 7684   2.937   2.591   4.517
 2552SOL     OW 7685   3.617   2.469   3.955
 2552SOL    HW1 7686   3.605   2.456   3.856
 2552SOL    HW2 7687   3.587   2.388   4.004
 2553SOL     OW 7688   2.630   3.006   4.747
 2553SOL    HW1 7689   2.552   3.023   4.807
 2553SOL    HW2 7690   2.664   3.093   4.711
 2554SOL     OW 7691   2.547   2.874   4.389
 2554SOL    HW1 7692   2.616   2.858   4.459
 2554SOL    HW2 7693   2.474   2.931   4.427
 2555SOL     OW 7694   2.197   3.297   4.785
 2555SOL    HW1 7695   2.119   3.266   4.732
 2555SOL    HW2 7696   2.255   3.355   4.728
 2556SOL     OW 7697   3.465   2.309   4.461
 2556SOL    HW1 7698   3.391   2.355   4.411
 2556SOL    HW2 7699   3.516   2.377   4.514
 2557SOL     OW 7700   2.093   3.575   4.207
 2557SOL    HW1 7701   2.127   3.652   4.261
 2557SOL    HW2 7702   2.137   3.575   4.117
 2558SOL     OW 7703   2.092   3.296   4.262
 2558SOL    HW1 7704   2.066   3.392   4.262
 2558SOL    HW2 7705   2.021   3.242   4.307
 2559SOL     OW 7706   2.102   2.953   4.610
 2559SOL    HW1 7707   2.116   2.869   4.662
 2559SOL    HW2 7708   2.047   3.017   4.665
 2560SOL     OW 7709   2.468   2.826   3.847
 2560SOL    HW1 7710   2.475   2.910   3.793
 2560SOL    HW2 7711   2.514   2.839   3.935
 2561SOL     OW 7712   1.984   2.505   4.287
 2561SOL    HW1 7713   1.939   2.417   4.304
 2561SOL    HW2 7714   1.983   2.559   4.371
 2562SOL     OW 7715   3.704   3.629   4.083
 2562SOL    HW1 7716   3.758   3.600   4.163
 2562SOL    HW2 7717   3.734   3.719   4.054
 2563SOL     OW 7718   1.889   3.458   3.841
 2563SOL    HW1 7719   1.870   3.362   3.862
 2563SOL    HW2 7720   1.856   3.516   3.916
 2564SOL     OW 7721   3.551   2.784   4.336
 2564SOL    HW1 7722   3.646   2.755   4.344
 2564SOL    HW2 7723   3.543   2.849   4.261
 2565SOL     OW 7724   3.503   2.970   4.156
 2565SOL    HW1 7725   3.589   2.972   4.104
 2565SOL    HW2 7726   3.517   3.017   4.244
 2566SOL     OW 7727   2.475   3.227   4.450
 2566SOL    HW1 7728   2.426   3.140   4.459
 2566SOL    HW2 7729   2.452   3.270   4.363
 2567SOL     OW 7730   2.671   1.866   4.226
 2567SOL    HW1 7731   2.711   1.957   4.217
 2567SOL    HW2 7732   2.571   1.874   4.232
 2568SOL     OW 7733   2.059   2.838   4.988
 2568SOL    HW1 7734   2.148   2.793   4.974
 2568SOL    HW2 7735   1.986   2.773   4.969
 2569SOL     OW 7736   3.387   2.861   3.914
 2569SOL    HW1 7737   3.324   2.785   3.927
 2569SOL    HW2 7738   3.435   2.879   4.000
 2570SOL     OW 7739   3.328   3.279   4.677
 2570SOL    HW1 7740   3.269   3.285   4.757
 2570SOL    HW2 7741   3.313   3.191   4.631
 2571SOL     OW 7742   3.529   3.576   4.296
 2571SOL    HW1 7743   3.488   3.553   4.208
 2571SOL    HW2 7744   3.511   3.502   4.361
 2572SOL     OW 7745   2.460   2.591   3.994
 2572SOL    HW1 7746   2.484   2.660   3.926
 2572SOL    HW2 7747   2.382   2.624   4.048
 2573SOL     OW 7748   3.143   2.207   4.668
 2573SOL    HW1 7749   3.057   2.157   4.655
 2573SOL    HW2 7750   3.205   2.153   4.724
 2574SOL     OW 7751   3.438   3.524   4.031
 2574SOL    HW1 7752   3.527   3.570   4.034
 2574SOL    HW2 7753   3.417   3.500   3.936
 2575SOL     OW 7754   2.853   2.272   4.966
 2575SOL    HW1 7755   2.776   2.306   5.020
 2575SOL    HW2 7756   2.819   2.221   4.887
 2576SOL     OW 7757   2.903   2.563   4.153
 2576SOL    HW1 7758   2.929   2.559   4.249
 2576SOL    HW2 7759   2.818   2.512   4.139
 2577SOL     OW 7760   1.938   2.673   4.513
 2577SOL    HW1 7761   2.037   2.661   4.522
 2577SOL    HW2 7762   1.914   2.768   4.534
 2578SOL     OW 7763   2.727   2.210   3.919
 2578SOL    HW1 7764   2.786   2.273   3.870
 2578SOL    HW2 7765   2.746   2.116   3.890
 2579SOL     OW 7766   3.224   3.006   4.269
 2579SOL    HW1 7767   3.307   2.977   4.221
 2579SOL    HW2 7768   3.175   3.073   4.213
 2580SOL     OW 7769   2.412   2.058   4.609
 2580SOL    HW1 7770   2.407   2.053   4.709
 2580SOL    HW2 7771   2.414   2.154   4.580
 2581SOL     OW 7772   2.870   3.318   4.201
 2581SOL    HW1 7773   2.824   3.390   4.149
 2581SOL    HW2 7774   2.866   3.338   4.299
 2582SOL     OW 7775   2.213   3.663   4.577
 2582SOL    HW1 7776   2.263   3.577   4.583
 2582SOL    HW2 7777   2.278   3.740   4.574
 2583SOL     OW 7778   3.657   2.928   4.597
 2583SOL    HW1 7779   3.595   2.913   4.521
 2583SOL    HW2 7780   3.605   2.939   4.682
 2584SOL     OW 7781   2.183   2.805   3.966
 2584SOL    HW1 7782   2.265   2.844   3.924
 2584SOL    HW2 7783   2.156   2.723   3.917
 2585SOL     OW 7784   3.320   2.597   4.452
 2585SOL    HW1 7785   3.315   2.532   4.527
 2585SOL    HW2 7786   3.400   2.656   4.465
 2586SOL     OW 7787   2.973   3.638   3.961
 2586SOL    HW1 7788   2.913   3.576   4.011
 2586SOL    HW2 7789   3.004   3.594   3.876
 2587SOL     OW 7790   3.494   3.239   3.805
 2587SOL    HW1 7791   3.462   3.333   3.795
 2587SOL    HW2 7792   3.418   3.176   3.793
 2588SOL     OW 7793   2.326   3.605   4.047
 2588SOL    HW1 7794   2.359   3.644   4.133
 2588SOL    HW2 7795   2.402   3.598   3.982
 2589SOL     OW 7796   3.262   1.969   4.150
 2589SOL    HW1 7797   3.238   1.932   4.060
 2589SOL    HW2 7798   3.361   1.985   4.154
 2590SOL     OW 7799   2.111   3.647   4.965
 2590SOL    HW1 7800   2.168   3.582   5.015
 2590SOL    HW2 7801   2.095   3.614   4.872
 2591SOL     OW 7802   2.802   3.560   4.628
 2591SOL    HW1 7803   2.882   3.503   4.649
 2591SOL    HW2 7804   2.753   3.520   4.551
 2592SOL     OW 7805   2.244   2.562   4.204
 2592SOL    HW1 7806   2.289   2.472   4.201
 2592SOL    HW2 7807   2.150   2.551   4.237
 2593SOL     OW 7808   2.476   1.984   3.841
 2593SOL    HW1 7809   2.574   1.962   3.848
 2593SOL    HW2 7810   2.445   1.967   3.748
 2594SOL     OW 7811   2.665   3.264   4.648
 2594SOL    HW1 7812   2.755   3.278   4.606
 2594SOL    HW2 7813   2.594   3.266   4.577
 2595SOL     OW 7814   2.784   2.365   4.623
 2595SOL    HW1 7815   2.759   2.356   4.527
 2595SOL    HW2 7816   2.832   2.283   4.654
 2596SOL     OW 7817   2.401   1.926   4.236
 2596SOL    HW1 7818   2.320   1.927   4.294
 2596SOL    HW2 7819   2.404   2.009   4.181
 2597SOL     OW 7820   3.296   3.050   3.765
 2597SOL    HW1 7821   3.328   2.974   3.822
 2597SOL    HW2 7822   3.204   3.077   3.795
 2598SOL     OW 7823   2.159   1.897   3.895
 2598SOL    HW1 7824   2.208   1.981   3.874
 2598SOL    HW2 7825   2.221   1.832   3.940
 2599SOL     OW 7826   2.797   2.098   4.204
 2599SOL    HW1 7827   2.749   2.139   4.126
 2599SOL    HW2 7828   2.896   2.096   4.185
 2600SOL     OW 7829   3.089   3.432   4.517
 2600SOL    HW1 7830   3.110   3.506   4.452
 2600SOL    HW2 7831   3.157   3.432   4.590
 2601SOL     OW 7832   2.321   3.014   4.465
 2601SOL    HW1 7833   2.250   2.987   4.530
 2601SOL    HW2 7834   2.295   2.986   4.372
 2602SOL     OW 7835   3.133   3.659   4.315
 2602SOL    HW1 7836   3.177   3.723   4.251
 2602SOL    HW2 7837   3.083   3.711   4.385
 2603SOL     OW 7838   2.894   2.411   3.740
 2603SOL    HW1 7839   2.853   2.493   3.701
 2603SOL    HW2 7840   2.958   2.437   3.813
 2604SOL     OW 7841   2.423   2.084   4.871
 2604SOL    HW1 7842   2.461   2.000   4.908
 2604SOL    HW2 7843   2.335   2.103   4.915
 2605SOL     OW 7844   2.728   2.316   4.366
 2605SOL    HW1 7845   2.696   2.388   4.304
 2605SOL    HW2 7846   2.752   2.235   4.313
 2606SOL     OW 7847   2.879   1.901   4.477
 2606SOL    HW1 7848   2.807   1.906   4.408
 2606SOL    HW2 7849   2.855   1.832   4.546
 2607SOL     OW 7850   3.291   3.035   4.591
 2607SOL    HW1 7851   3.236   2.951   4.584
 2607SOL    HW2 7852   3.317   3.064   4.499
 2608SOL     OW 7853   3.328   2.452   4.716
 2608SOL    HW1 7854   3.298   2.357   4.723
 2608SOL    HW2 7855   3.401   2.468   4.782
 2609SOL     OW 7856   3.719   2.695   4.101
 2609SOL    HW1 7857   3.761   2.631   4.165
 2609SOL    HW2 7858   3.681   2.644   4.023
 2610SOL     OW 7859   2.350   3.247   3.898
 2610SOL    HW1 7860   2.263   3.232   3.945
 2610SOL    HW2 7861   2.333   3.273   3.803
 2611SOL     OW 7862   3.526   3.142   4.381
 2611SOL    HW1 7863   3.625   3.150   4.395
 2611SOL    HW2 7864   3.481   3.226   4.412
 2612SOL     OW 7865   3.252   2.437   3.802
 2612SOL    HW1 7866   3.198   2.416   3.883
 2612SOL    HW2 7867   3.343   2.396   3.811
 2613SOL     OW 7868   2.389   2.118   4.052
 2613SOL    HW1 7869   2.416   2.059   3.977
 2613SOL    HW2 7870   2.389   2.213   4.021
 2614SOL     OW 7871   2.973   3.057   4.824
 2614SOL    HW1 7872   2.933   3.101   4.905
 2614SOL    HW2 7873   2.932   3.094   4.741
 2615SOL     OW 7874   3.500   2.961   4.803
 2615SOL    HW1 7875   3.505   3.042   4.862
 2615SOL    HW2 7876   3.414   2.963   4.752
 2616SOL     OW 7877   2.567   2.912   4.092
 2616SOL    HW1 7878   2.553   2.919   4.191
 2616SOL    HW2 7879   2.651   2.861   4.074
 2617SOL     OW 7880   2.272   2.675   4.975
 2617SOL    HW1 7881   2.358   2.687   5.025
 2617SOL    HW2 7882   2.230   2.588   5.002
 2618SOL     OW 7883   3.136   2.248   4.986
 2618SOL    HW1 7884   3.157   2.322   5.050
 2618SOL    HW2 7885   3.047   2.265   4.943
 2619SOL     OW 7886   2.229   2.962   4.225
 2619SOL    HW1 7887   2.222   3.045   4.169
 2619SOL    HW2 7888   2.233   2.882   4.165
 2620SOL     OW 7889   2.428   2.399   4.589
 2620SOL    HW1 7890   2.440   2.465   4.515
 2620SOL    HW2 7891   2.474   2.433   4.672
 2621SOL     OW 7892   3.114   3.210   4.112
 2621SOL    HW1 7893   3.164   3.287   4.152
 2621SOL    HW2 7894   3.019   3.212   4.144
 2622SOL     OW 7895   3.134   3.307   4.866
 2622SOL    HW1 7896   3.181   3.320   4.953
 2622SOL    HW2 7897   3.068   3.233   4.875
 2623SOL     OW 7898   3.444   2.501   4.196
 2623SOL    HW1 7899   3.413   2.562   4.269
 2623SOL    HW2 7900   3.494   2.553   4.127
 2624SOL     OW 7901   2.216   3.372   5.053
 2624SOL    HW1 7902   2.195   3.328   4.966
 2624SOL    HW2 7903   2.313   3.398   5.056
 2625SOL     OW 7904   2.435   2.732   4.753
 2625SOL    HW1 7905   2.479   2.821   4.744
 2625SOL    HW2 7906   2.372   2.732   4.830
 2626SOL     OW 7907   3.222   2.724   4.769
 2626SOL    HW1 7908   3.147   2.724   4.703
 2626SOL    HW2 7909   3.259   2.632   4.778
 2627SOL     OW 7910   3.071   2.387   3.999
 2627SOL    HW1 7911   3.084   2.303   4.053
 2627SOL    HW2 7912   3.042   2.461   4.059
 2628SOL     OW 7913   2.169   2.075   4.955
 2628SOL    HW1 7914   2.146   2.112   5.045
 2628SOL    HW2 7915   2.139   1.980   4.949
 2629SOL     OW 7916   1.899   3.172   5.006
 2629SOL    HW1 7917   1.952   3.123   5.074
 2629SOL    HW2 7918   1.921   3.270   5.011
 2630SOL     OW 7919   2.594   2.496   4.788
 2630SOL    HW1 7920   2.653   2.470   4.712
 2630SOL    HW2 7921   2.566   2.592   4.777
 2631SOL     OW 7922   2.169   1.925   4.342
 2631SOL    HW1 7923   2.158   2.019   4.375
 2631SOL    HW2 7924   2.164   1.862   4.419
 2632SOL     OW 7925   3.484   2.229   4.098
 2632SOL    HW1 7926   3.486   2.153   4.162
 2632SOL    HW2 7927   3.436   2.306   4.138
 2633SOL     OW 7928   2.885   2.628   4.690
 2633SOL    HW1 7929   2.900   2.649   4.786
 2633SOL    HW2 7930   2.855   2.533   4.681
 2634SOL     OW 7931   3.402   2.136   3.849
 2634SOL    HW1 7932   3.341   2.061   3.872
 2634SOL    HW2 7933   3.424   2.188   3.932
 2635SOL     OW 7934   3.165   2.700   3.766
 2635SOL    HW1 7935   3.199   2.607   3.781
 2635SOL    HW2 7936   3.183   2.727   3.671
 2636SOL     OW 7937   2.930   3.195   4.573
 2636SOL    HW1 7938   2.937   3.111   4.518
 2636SOL    HW2 7939   2.992   3.264   4.537
 2637SOL     OW 7940   2.181   2.672   4.673
 2637SOL    HW1 7941   2.274   2.708   4.678
 2637SOL    HW2 7942   2.175   2.587   4.725
 2638SOL     OW 7943   2.201   2.371   4.730
 2638SOL    HW1 7944   2.149   2.288   4.713
 2638SOL    HW2 7945   2.278   2.376   4.666
 2639SOL     OW 7946   3.022   2.069   5.201
 2639SOL    HW1 7947   3.022   2.133   5.278
 2639SOL    HW2 7948   3.050   2.117   5.118
 2640SOL     OW 7949   1.870   3.188   3.924
 2640SOL    HW1 7950   1.777   3.209   3.893
 2640SOL    HW2 7951   1.880   3.089   3.937
 2641SOL     OW 7952   1.950   3.663   4.651
 2641SOL    HW1 7953   1.908   3.577   4.624
 2641SOL    HW2 7954   2.044   3.666   4.617
 2642SOL     OW 7955   2.366   3.430   4.634
 2642SOL    HW1 7956   2.432   3.504   4.643
 2642SOL    HW2 7957   2.410   3.351   4.592
 2643SOL     OW 7958   2.864   2.658   4.962
 2643SOL    HW1 7959   2.905   2.626   5.048
 2643SOL    HW2 7960   2.768   2.631   4.959
 2644SOL     OW 7961   1.902   2.406   4.838
 2644SOL    HW1 7962   1.987   2.373   4.797
 2644SOL    HW2 7963   1.915   2.421   4.936
 2645SOL     OW 7964   2.677   2.434   4.049
 2645SOL    HW1 7965   2.684   2.345   4.003
 2645SOL    HW2 7966   2.583   2.468   4.041
 2646SOL     OW 7967   3.519   2.466   4.930
 2646SOL    HW1 7968   3.481   2.397   4.992
 2646SOL    HW2 7969   3.601   2.430   4.886
 2647SOL     OW 7970   2.533   2.326   4.993
 2647SOL    HW1 7971   2.499   2.237   4.963
 2647SOL    HW2 7972   2.559   2.380   4.913
 2648SOL     OW 7973   2.792   3.540   5.189
 2648SOL    HW1 7974   2.768   3.522   5.094
 2648SOL    HW2 7975   2.822   3.634   5.199
 2649SOL     OW 7976   2.335   2.362   3.915
 2649SOL    HW1 7977   2.396   2.442   3.919
 2649SOL    HW2 7978   2.240   2.393   3.922
 2650SOL     OW 7979   3.209   2.921   4.958
 2650SOL    HW1 7980   3.233   2.858   4.884
 2650SOL    HW2 7981   3.119   2.961   4.940
 2651SOL     OW 7982   3.164   2.717   4.033
 2651SOL    HW1 7983   3.078   2.686   4.075
 2651SOL    HW2 7984   3.160   2.703   3.934
 2652SOL     OW 7985   3.621   3.609   4.878
 2652SOL    HW1 7986   3.682   3.639   4.805
 2652SOL    HW2 7987   3.583   3.520   4.856
 2653SOL     OW 7988   3.114   3.593   4.852
 2653SOL    HW1 7989   3.198   3.598   4.798
 2653SOL    HW2 7990   3.091   3.497   4.870
 2654SOL     OW 7991   1.945   3.120   4.746
 2654SOL    HW1 7992   1.940   3.119   4.846
 2654SOL    HW2 7993   1.862   3.079   4.708
 2655SOL     OW 7994   3.588   1.997   4.247
 2655SOL    HW1 7995   3.661   1.980   4.180
 2655SOL    HW2 7996   3.557   1.910   4.285
 2656SOL     OW 7997   3.250   3.435   4.201
 2656SOL    HW1 7998   3.317   3.447   4.127
 2656SOL    HW2 7999   3.210   3.524   4.224
 2657SOL     OW 8000   3.142   2.789   4.396
 2657SOL    HW1 8001   3.202   2.708   4.398
 2657SOL    HW2 8002   3.182   2.858   4.336
 2658SOL     OW 8003   2.534   3.478   3.878
 2658SOL    HW1 8004   2.543   3.488   3.779
 2658SOL    HW2 8005   2.494   3.389   3.899
 2659SOL     OW 8006   3.512   3.582   5.118
 2659SOL    HW1 8007   3.565   3.592   5.034
 2659SOL    HW2 8008   3.485   3.672   5.152
 2660SOL     OW 8009   3.703   2.037   4.687
 2660SOL    HW1 8010   3.742   1.952   4.651
 2660SOL    HW2 8011   3.605   2.039   4.668
 2661SOL     OW 8012   2.125   2.188   4.444
 2661SOL    HW1 8013   2.046   2.239   4.410
 2661SOL    HW2 8014   2.116   2.173   4.542
 2662SOL     OW 8015   3.056   3.474   3.755
 2662SOL    HW1 8016   3.062   3.381   3.792
 2662SOL    HW2 8017   2.997   3.474   3.675
 2663SOL     OW 8018   2.684   2.864   5.096
 2663SOL    HW1 8019   2.724   2.863   5.004
 2663SOL    HW2 8020   2.694   2.956   5.136
 2664SOL     OW 8021   2.778   2.772   4.015
 2664SOL    HW1 8022   2.841   2.810   3.947
 2664SOL    HW2 8023   2.818   2.689   4.054
 2665SOL     OW 8024   3.366   3.469   3.768
 2665SOL    HW1 8025   3.274   3.506   3.775
 2665SOL    HW2 8026   3.404   3.489   3.678
 2666SOL     OW 8027   2.901   2.960   4.420
 2666SOL    HW1 8028   2.831   2.913   4.474
 2666SOL    HW2 8029   2.960   2.892   4.377
 2667SOL     OW 8030   2.876   2.098   4.695
 2667SOL    HW1 8031   2.868   2.062   4.602
 2667SOL    HW2 8032   2.874   2.022   4.760
 2668SOL     OW 8033   2.452   3.349   4.215
 2668SOL    HW1 8034   2.494   3.291   4.145
 2668SOL    HW2 8035   2.408   3.428   4.171
 2669SOL     OW 8036   3.571   2.247   5.105
 2669SOL    HW1 8037   3.644   2.316   5.109
 2669SOL    HW2 8038   3.599   2.172   5.046
 2670SOL     OW 8039   2.117   3.210   4.014
 2670SOL    HW1 8040   2.021   3.211   3.987
 2670SOL    HW2 8041   2.129   3.263   4.098
 2671SOL     OW 8042   1.937   2.207   3.757
 2671SOL    HW1 8043   1.845   2.179   3.728
 2671SOL    HW2 8044   1.968   2.284   3.701
 2672SOL     OW 8045   1.934   2.028   4.042
 2672SOL    HW1 8046   1.917   2.111   3.988
 2672SOL    HW2 8047   2.024   1.991   4.020
 2673SOL     OW 8048   3.045   3.197   3.843
 2673SOL    HW1 8049   2.946   3.186   3.845
 2673SOL    HW2 8050   3.079   3.212   3.936
 2674SOL     OW 8051   3.355   3.629   4.683
 2674SOL    HW1 8052   3.388   3.693   4.614
 2674SOL    HW2 8053   3.421   3.623   4.758
 2675SOL     OW 8054   3.536   2.745   4.978
 2675SOL    HW1 8055   3.509   2.656   4.941
 2675SOL    HW2 8056   3.537   2.813   4.905
 2676SOL     OW 8057   3.087   2.187   4.173
 2676SOL    HW1 8058   3.152   2.113   4.162
 2676SOL    HW2 8059   3.107   2.237   4.257
 2677SOL     OW 8060   2.456   2.607   4.376
 2677SOL    HW1 8061   2.506   2.692   4.357
 2677SOL    HW2 8062   2.368   2.609   4.328
 2678SOL     OW 8063   3.592   2.796   5.241
 2678SOL    HW1 8064   3.630   2.887   5.256
 2678SOL    HW2 8065   3.584   2.779   5.142
 2679SOL     OW 8066   2.721   3.236   3.740
 2679SOL    HW1 8067   2.675   3.251   3.828
 2679SOL    HW2 8068   2.765   3.321   3.710
 2680SOL     OW 8069   2.523   3.652   4.677
 2680SOL    HW1 8070   2.477   3.740   4.664
 2680SOL    HW2 8071   2.622   3.664   4.670
 2681SOL     OW 8072   2.721   2.818   4.585
 2681SOL    HW1 8073   2.775   2.749   4.633
 2681SOL    HW2 8074   2.689   2.887   4.651
 2682SOL     OW 8075   2.945   2.846   3.811
 2682SOL    HW1 8076   2.922   2.899   3.729
 2682SOL    HW2 8077   3.026   2.790   3.792
 2683SOL     OW 8078   3.723   3.431   4.575
 2683SOL    HW1 8079   3.652   3.419   4.505
 2683SOL    HW2 8080   3.724   3.352   4.635
 2684SOL     OW 8081   1.941   3.102   4.377
 2684SOL    HW1 8082   1.940   3.055   4.465
 2684SOL    HW2 8083   2.023   3.074   4.326
 2685SOL     OW 8084   3.686   2.054   4.951
 2685SOL    HW1 8085   3.682   1.964   4.995
 2685SOL    HW2 8086   3.689   2.043   4.852
 2686SOL     OW 8087   2.290   2.286   4.244
 2686SOL    HW1 8088   2.320   2.214   4.182
 2686SOL    HW2 8089   2.251   2.246   4.327
 2687SOL     OW 8090   3.567   3.349   4.828
 2687SOL    HW1 8091   3.474   3.324   4.801
 2687SOL    HW2 8092   3.593   3.299   4.910
 2688SOL     OW 8093   2.674   3.448   4.411
 2688SOL    HW1 8094   2.706   3.458   4.317
 2688SOL    HW2 8095   2.595   3.386   4.413
 2689SOL     OW 8096   3.286   2.076   4.836
 2689SOL    HW1 8097   3.338   2.011   4.891
 2689SOL    HW2 8098   3.237   2.139   4.897
 2690SOL     OW 8099   2.863   1.896   4.878
 2690SOL    HW1 8100   2.800   1.824   4.847
 2690SOL    HW2 8101   2.956   1.860   4.878
 2691SOL     OW 8102   2.632   3.192   4.025
 2691SOL    HW1 8103   2.586   3.105   4.042
 2691SOL    HW2 8104   2.723   3.189   4.066
 2692SOL     OW 8105   3.214   1.914   3.892
 2692SOL    HW1 8106   3.249   1.873   3.808
 2692SOL    HW2 8107   3.124   1.876   3.912
 2693SOL     OW 8108   3.162   2.315   4.415
 2693SOL    HW1 8109   3.103   2.395   4.419
 2693SOL    HW2 8110   3.177   2.280   4.508
 2694SOL     OW 8111   3.455   2.083   4.606
 2694SOL    HW1 8112   3.371   2.082   4.660
 2694SOL    HW2 8113   3.457   2.166   4.550
 2695SOL     OW 8114   1.901   2.939   4.024
 2695SOL    HW1 8115   2.000   2.928   4.015
 2695SOL    HW2 8116   1.861   2.853   4.056
 2696SOL     OW 8117   2.737   3.508   4.061
 2696SOL    HW1 8118   2.660   3.473   4.007
 2696SOL    HW2 8119   2.705   3.579   4.123
 2697SOL     OW 8120   2.092   4.352   0.113
 2697SOL    HW1 8121   1.999   4.350   0.150
 2697SOL    HW2 8122   2.093   4.313   0.021
 2698SOL     OW 8123   2.087   3.999   0.996
 2698SOL    HW1 8124   2.122   3.982   1.088
 2698SOL    HW2 8125   1.999   3.954   0.984
 2699SOL     OW 8126   1.881   4.092   0.647
 2699SOL    HW1 8127   1.799   4.135   0.686
 2699SOL    HW2 8128   1.853   4.019   0.584
 2700SOL     OW 8129   2.997   4.427   0.717
 2700SOL    HW1 8130   3.054   4.505   0.692
 2700SOL    HW2 8131   2.937   4.453   0.793
 2701SOL     OW 8132   3.617   4.331   0.231
 2701SOL    HW1 8133   3.605   4.318   0.132
 2701SOL    HW2 8134   3.587   4.250   0.280
 2702SOL     OW 8135   2.630   4.868   1.023
 2702SOL    HW1 8136   2.552   4.885   1.083
 2702SOL    HW2 8137   2.664   4.955   0.987
 2703SOL     OW 8138   2.712   4.522   1.823
 2703SOL    HW1 8139   2.708   4.598   1.888
 2703SOL    HW2 8140   2.734   4.558   1.732
 2704SOL     OW 8141   2.547   4.736   0.665
 2704SOL    HW1 8142   2.616   4.720   0.735
 2704SOL    HW2 8143   2.474   4.793   0.703
 2705SOL     OW 8144   2.548   4.885   1.803
 2705SOL    HW1 8145   2.608   4.964   1.817
 2705SOL    HW2 8146   2.462   4.916   1.762
 2706SOL     OW 8147   2.197   5.159   1.061
 2706SOL    HW1 8148   2.119   5.128   1.008
 2706SOL    HW2 8149   2.255   5.217   1.004
 2707SOL     OW 8150   2.300   4.116   1.499
 2707SOL    HW1 8151   2.382   4.060   1.508
 2707SOL    HW2 8152   2.219   4.058   1.503
 2708SOL     OW 8153   3.465   4.171   0.737
 2708SOL    HW1 8154   3.391   4.217   0.687
 2708SOL    HW2 8155   3.516   4.239   0.790
 2709SOL     OW 8156   2.102   4.815   0.886
 2709SOL    HW1 8157   2.116   4.731   0.938
 2709SOL    HW2 8158   2.047   4.879   0.941
 2710SOL     OW 8159   2.468   4.688   0.123
 2710SOL    HW1 8160   2.475   4.772   0.069
 2710SOL    HW2 8161   2.514   4.701   0.211
 2711SOL     OW 8162   3.456   3.838   1.480
 2711SOL    HW1 8163   3.438   3.905   1.408
 2711SOL    HW2 8164   3.453   3.884   1.569
 2712SOL     OW 8165   1.984   4.367   0.563
 2712SOL    HW1 8166   1.939   4.279   0.580
 2712SOL    HW2 8167   1.983   4.421   0.647
 2713SOL     OW 8168   3.551   4.646   0.612
 2713SOL    HW1 8169   3.646   4.617   0.620
 2713SOL    HW2 8170   3.543   4.711   0.537
 2714SOL     OW 8171   3.503   4.832   0.432
 2714SOL    HW1 8172   3.589   4.834   0.380
 2714SOL    HW2 8173   3.517   4.879   0.520
 2715SOL     OW 8174   1.975   4.461   1.597
 2715SOL    HW1 8175   2.063   4.448   1.642
 2715SOL    HW2 8176   1.962   4.558   1.575
 2716SOL     OW 8177   3.155   4.952   1.423
 2716SOL    HW1 8178   3.192   4.879   1.365
 2716SOL    HW2 8179   3.207   4.957   1.508
 2717SOL     OW 8180   2.671   3.728   0.502
 2717SOL    HW1 8181   2.711   3.819   0.493
 2717SOL    HW2 8182   2.571   3.736   0.508
 2718SOL     OW 8183   2.059   4.700   1.264
 2718SOL    HW1 8184   2.148   4.655   1.250
 2718SOL    HW2 8185   1.986   4.635   1.245
 2719SOL     OW 8186   3.387   4.723   0.190
 2719SOL    HW1 8187   3.324   4.647   0.203
 2719SOL    HW2 8188   3.435   4.741   0.276
 2720SOL     OW 8189   2.179   3.975   1.801
 2720SOL    HW1 8190   2.250   4.046   1.807
 2720SOL    HW2 8191   2.091   4.014   1.829
 2721SOL     OW 8192   2.460   4.453   0.270
 2721SOL    HW1 8193   2.484   4.522   0.202
 2721SOL    HW2 8194   2.382   4.486   0.324
 2722SOL     OW 8195   3.143   4.069   0.944
 2722SOL    HW1 8196   3.057   4.019   0.931
 2722SOL    HW2 8197   3.205   4.015   1.000
 2723SOL     OW 8198   2.669   4.329   1.465
 2723SOL    HW1 8199   2.622   4.326   1.554
 2723SOL    HW2 8200   2.618   4.274   1.399
 2724SOL     OW 8201   3.256   4.193   1.674
 2724SOL    HW1 8202   3.236   4.236   1.762
 2724SOL    HW2 8203   3.334   4.131   1.683
 2725SOL     OW 8204   2.835   4.614   1.572
 2725SOL    HW1 8205   2.881   4.530   1.543
 2725SOL    HW2 8206   2.779   4.648   1.497
 2726SOL     OW 8207   2.853   4.134   1.242
 2726SOL    HW1 8208   2.776   4.168   1.296
 2726SOL    HW2 8209   2.819   4.083   1.163
 2727SOL     OW 8210   2.903   4.425   0.429
 2727SOL    HW1 8211   2.929   4.421   0.525
 2727SOL    HW2 8212   2.818   4.374   0.415
 2728SOL     OW 8213   1.938   4.535   0.789
 2728SOL    HW1 8214   2.037   4.523   0.798
 2728SOL    HW2 8215   1.914   4.630   0.810
 2729SOL     OW 8216   2.727   4.072   0.195
 2729SOL    HW1 8217   2.786   4.135   0.146
 2729SOL    HW2 8218   2.746   3.978   0.166
 2730SOL     OW 8219   3.581   4.309   1.831
 2730SOL    HW1 8220   3.555   4.398   1.795
 2730SOL    HW2 8221   3.579   4.241   1.758
 2731SOL     OW 8222   3.224   4.868   0.545
 2731SOL    HW1 8223   3.307   4.839   0.497
 2731SOL    HW2 8224   3.175   4.935   0.489
 2732SOL     OW 8225   2.412   3.920   0.885
 2732SOL    HW1 8226   2.407   3.915   0.985
 2732SOL    HW2 8227   2.414   4.016   0.856
 2733SOL     OW 8228   3.657   4.790   0.873
 2733SOL    HW1 8229   3.595   4.775   0.797
 2733SOL    HW2 8230   3.605   4.801   0.958
 2734SOL     OW 8231   2.183   4.667   0.242
 2734SOL    HW1 8232   2.265   4.706   0.200
 2734SOL    HW2 8233   2.156   4.585   0.193
 2735SOL     OW 8234   3.320   4.459   0.728
 2735SOL    HW1 8235   3.315   4.394   0.803
 2735SOL    HW2 8236   3.400   4.518   0.741
 2736SOL     OW 8237   2.064   4.009   1.498
 2736SOL    HW1 8238   1.984   4.069   1.485
 2736SOL    HW2 8239   2.054   3.960   1.584
 2737SOL     OW 8240   3.494   5.101   0.081
 2737SOL    HW1 8241   3.462   5.195   0.071
 2737SOL    HW2 8242   3.418   5.038   0.069
 2738SOL     OW 8243   3.262   3.831   0.426
 2738SOL    HW1 8244   3.238   3.794   0.336
 2738SOL    HW2 8245   3.361   3.847   0.430
 2739SOL     OW 8246   2.244   4.424   0.480
 2739SOL    HW1 8247   2.289   4.334   0.477
 2739SOL    HW2 8248   2.150   4.413   0.513
 2740SOL     OW 8249   3.409   3.946   1.729
 2740SOL    HW1 8250   3.404   3.983   1.821
 2740SOL    HW2 8251   3.337   3.877   1.717
 2741SOL     OW 8252   2.476   3.846   0.117
 2741SOL    HW1 8253   2.574   3.824   0.124
 2741SOL    HW2 8254   2.445   3.829   0.024
 2742SOL     OW 8255   2.643   3.988   1.749
 2742SOL    HW1 8256   2.710   3.927   1.792
 2742SOL    HW2 8257   2.570   4.007   1.814
 2743SOL     OW 8258   3.213   4.314   1.433
 2743SOL    HW1 8259   3.241   4.271   1.518
 2743SOL    HW2 8260   3.238   4.410   1.434
 2744SOL     OW 8261   2.665   5.126   0.924
 2744SOL    HW1 8262   2.755   5.140   0.882
 2744SOL    HW2 8263   2.594   5.128   0.853
 2745SOL     OW 8264   2.784   4.227   0.899
 2745SOL    HW1 8265   2.759   4.218   0.803
 2745SOL    HW2 8266   2.832   4.145   0.930
 2746SOL     OW 8267   2.401   3.788   0.512
 2746SOL    HW1 8268   2.320   3.789   0.570
 2746SOL    HW2 8269   2.404   3.871   0.457
 2747SOL     OW 8270   3.296   4.912   0.041
 2747SOL    HW1 8271   3.328   4.836   0.098
 2747SOL    HW2 8272   3.204   4.939   0.071
 2748SOL     OW 8273   2.159   3.759   0.171
 2748SOL    HW1 8274   2.208   3.843   0.150
 2748SOL    HW2 8275   2.221   3.694   0.216
 2749SOL     OW 8276   2.797   3.960   0.480
 2749SOL    HW1 8277   2.749   4.001   0.402
 2749SOL    HW2 8278   2.896   3.958   0.461
 2750SOL     OW 8279   2.938   4.407   1.464
 2750SOL    HW1 8280   2.858   4.346   1.467
 2750SOL    HW2 8281   3.019   4.354   1.440
 2751SOL     OW 8282   2.321   4.876   0.741
 2751SOL    HW1 8283   2.250   4.849   0.806
 2751SOL    HW2 8284   2.295   4.848   0.648
 2752SOL     OW 8285   2.894   4.273   0.016
 2752SOL    HW1 8286   2.853   4.355  -0.023
 2752SOL    HW2 8287   2.958   4.299   0.089
 2753SOL     OW 8288   1.940   4.280   1.386
 2753SOL    HW1 8289   2.032   4.279   1.345
 2753SOL    HW2 8290   1.934   4.354   1.453
 2754SOL     OW 8291   2.423   3.946   1.147
 2754SOL    HW1 8292   2.461   3.862   1.184
 2754SOL    HW2 8293   2.335   3.965   1.191
 2755SOL     OW 8294   2.728   4.178   0.642
 2755SOL    HW1 8295   2.696   4.250   0.580
 2755SOL    HW2 8296   2.752   4.097   0.589
 2756SOL     OW 8297   2.879   3.763   0.753
 2756SOL    HW1 8298   2.807   3.768   0.684
 2756SOL    HW2 8299   2.855   3.694   0.822
 2757SOL     OW 8300   3.291   4.897   0.867
 2757SOL    HW1 8301   3.236   4.813   0.860
 2757SOL    HW2 8302   3.317   4.926   0.775
 2758SOL     OW 8303   3.328   4.314   0.992
 2758SOL    HW1 8304   3.298   4.219   0.999
 2758SOL    HW2 8305   3.401   4.330   1.058
 2759SOL     OW 8306   3.719   4.557   0.377
 2759SOL    HW1 8307   3.761   4.493   0.441
 2759SOL    HW2 8308   3.681   4.506   0.299
 2760SOL     OW 8309   3.252   4.299   0.078
 2760SOL    HW1 8310   3.198   4.278   0.159
 2760SOL    HW2 8311   3.343   4.258   0.087
 2761SOL     OW 8312   2.389   3.980   0.328
 2761SOL    HW1 8313   2.416   3.921   0.253
 2761SOL    HW2 8314   2.389   4.075   0.297
 2762SOL     OW 8315   3.616   4.947   1.588
 2762SOL    HW1 8316   3.707   4.908   1.575
 2762SOL    HW2 8317   3.624   5.043   1.612
 2763SOL     OW 8318   3.500   4.823   1.079
 2763SOL    HW1 8319   3.505   4.904   1.138
 2763SOL    HW2 8320   3.414   4.825   1.028
 2764SOL     OW 8321   2.777   3.813   1.402
 2764SOL    HW1 8322   2.802   3.793   1.307
 2764SOL    HW2 8323   2.849   3.869   1.444
 2765SOL     OW 8324   2.842   4.840   1.719
 2765SOL    HW1 8325   2.743   4.846   1.729
 2765SOL    HW2 8326   2.865   4.760   1.663
 2766SOL     OW 8327   2.567   4.774   0.368
 2766SOL    HW1 8328   2.553   4.781   0.467
 2766SOL    HW2 8329   2.651   4.723   0.350
 2767SOL     OW 8330   2.272   4.537   1.251
 2767SOL    HW1 8331   2.358   4.549   1.301
 2767SOL    HW2 8332   2.230   4.450   1.278
 2768SOL     OW 8333   3.136   4.110   1.262
 2768SOL    HW1 8334   3.157   4.184   1.326
 2768SOL    HW2 8335   3.047   4.127   1.219
 2769SOL     OW 8336   2.229   4.824   0.501
 2769SOL    HW1 8337   2.222   4.907   0.445
 2769SOL    HW2 8338   2.233   4.744   0.441
 2770SOL     OW 8339   2.428   4.261   0.865
 2770SOL    HW1 8340   2.440   4.327   0.791
 2770SOL    HW2 8341   2.474   4.295   0.948
 2771SOL     OW 8342   3.444   4.363   0.472
 2771SOL    HW1 8343   3.413   4.424   0.545
 2771SOL    HW2 8344   3.494   4.415   0.403
 2772SOL     OW 8345   2.264   4.475   1.598
 2772SOL    HW1 8346   2.332   4.530   1.551
 2772SOL    HW2 8347   2.304   4.387   1.625
 2773SOL     OW 8348   3.449   4.503   1.670
 2773SOL    HW1 8349   3.357   4.541   1.665
 2773SOL    HW2 8350   3.509   4.550   1.605
 2774SOL     OW 8351   2.875   3.829   1.770
 2774SOL    HW1 8352   2.881   3.914   1.718
 2774SOL    HW2 8353   2.907   3.753   1.713
 2775SOL     OW 8354   2.366   3.774   1.740
 2775SOL    HW1 8355   2.324   3.717   1.670
 2775SOL    HW2 8356   2.300   3.843   1.772
 2776SOL     OW 8357   2.435   4.594   1.029
 2776SOL    HW1 8358   2.479   4.683   1.020
 2776SOL    HW2 8359   2.372   4.594   1.106
 2777SOL     OW 8360   3.222   4.586   1.045
 2777SOL    HW1 8361   3.147   4.586   0.979
 2777SOL    HW2 8362   3.259   4.494   1.054
 2778SOL     OW 8363   3.071   4.249   0.275
 2778SOL    HW1 8364   3.084   4.165   0.329
 2778SOL    HW2 8365   3.042   4.323   0.335
 2779SOL     OW 8366   2.169   3.937   1.231
 2779SOL    HW1 8367   2.146   3.974   1.321
 2779SOL    HW2 8368   2.139   3.842   1.225
 2780SOL     OW 8369   2.594   4.358   1.064
 2780SOL    HW1 8370   2.653   4.332   0.988
 2780SOL    HW2 8371   2.566   4.454   1.053
 2781SOL     OW 8372   3.590   4.659   1.854
 2781SOL    HW1 8373   3.544   4.652   1.765
 2781SOL    HW2 8374   3.528   4.703   1.920
 2782SOL     OW 8375   2.169   3.787   0.618
 2782SOL    HW1 8376   2.158   3.881   0.651
 2782SOL    HW2 8377   2.164   3.724   0.695
 2783SOL     OW 8378   3.484   4.091   0.374
 2783SOL    HW1 8379   3.486   4.015   0.438
 2783SOL    HW2 8380   3.436   4.168   0.414
 2784SOL     OW 8381   2.885   4.490   0.966
 2784SOL    HW1 8382   2.900   4.511   1.062
 2784SOL    HW2 8383   2.855   4.395   0.957
 2785SOL     OW 8384   3.721   5.242   1.605
 2785SOL    HW1 8385   3.735   5.269   1.510
 2785SOL    HW2 8386   3.804   5.264   1.658
 2786SOL     OW 8387   2.212   4.622   1.804
 2786SOL    HW1 8388   2.288   4.666   1.852
 2786SOL    HW2 8389   2.247   4.575   1.722
 2787SOL     OW 8390   3.402   3.998   0.125
 2787SOL    HW1 8391   3.341   3.923   0.148
 2787SOL    HW2 8392   3.424   4.050   0.208
 2788SOL     OW 8393   3.165   4.562   0.042
 2788SOL    HW1 8394   3.199   4.469   0.057
 2788SOL    HW2 8395   3.183   4.589  -0.053
 2789SOL     OW 8396   2.181   4.534   0.949
 2789SOL    HW1 8397   2.274   4.570   0.954
 2789SOL    HW2 8398   2.175   4.449   1.001
 2790SOL     OW 8399   2.201   4.233   1.006
 2790SOL    HW1 8400   2.149   4.150   0.989
 2790SOL    HW2 8401   2.278   4.238   0.942
 2791SOL     OW 8402   3.000   4.104   1.678
 2791SOL    HW1 8403   2.955   4.167   1.742
 2791SOL    HW2 8404   3.093   4.135   1.661
 2792SOL     OW 8405   3.022   3.931   1.477
 2792SOL    HW1 8406   3.022   3.995   1.554
 2792SOL    HW2 8407   3.050   3.979   1.394
 2793SOL     OW 8408   2.864   4.520   1.238
 2793SOL    HW1 8409   2.905   4.488   1.324
 2793SOL    HW2 8410   2.768   4.493   1.235
 2794SOL     OW 8411   1.902   4.268   1.114
 2794SOL    HW1 8412   1.987   4.235   1.073
 2794SOL    HW2 8413   1.915   4.283   1.212
 2795SOL     OW 8414   2.051   4.244   1.722
 2795SOL    HW1 8415   2.110   4.204   1.652
 2795SOL    HW2 8416   1.993   4.315   1.681
 2796SOL     OW 8417   3.231   4.674   1.660
 2796SOL    HW1 8418   3.270   4.763   1.680
 2796SOL    HW2 8419   3.241   4.654   1.563
 2797SOL     OW 8420   2.677   4.296   0.325
 2797SOL    HW1 8421   2.684   4.207   0.279
 2797SOL    HW2 8422   2.583   4.330   0.317
 2798SOL     OW 8423   3.519   4.328   1.206
 2798SOL    HW1 8424   3.481   4.259   1.268
 2798SOL    HW2 8425   3.601   4.292   1.162
 2799SOL     OW 8426   2.533   4.188   1.269
 2799SOL    HW1 8427   2.499   4.099   1.239
 2799SOL    HW2 8428   2.559   4.242   1.189
 2800SOL     OW 8429   2.335   4.224   0.191
 2800SOL    HW1 8430   2.396   4.304   0.195
 2800SOL    HW2 8431   2.240   4.255   0.198
 2801SOL     OW 8432   2.021   4.861   1.466
 2801SOL    HW1 8433   2.043   4.800   1.542
 2801SOL    HW2 8434   2.031   4.812   1.380
 2802SOL     OW 8435   3.209   4.783   1.234
 2802SOL    HW1 8436   3.233   4.720   1.160
 2802SOL    HW2 8437   3.119   4.823   1.216
 2803SOL     OW 8438   3.164   4.579   0.309
 2803SOL    HW1 8439   3.078   4.548   0.351
 2803SOL    HW2 8440   3.160   4.565   0.210
 2804SOL     OW 8441   1.945   4.982   1.022
 2804SOL    HW1 8442   1.940   4.981   1.122
 2804SOL    HW2 8443   1.862   4.941   0.984
 2805SOL     OW 8444   2.765   3.810   0.133
 2805SOL    HW1 8445   2.816   3.811   0.047
 2805SOL    HW2 8446   2.821   3.768   0.204
 2806SOL     OW 8447   3.588   3.859   0.523
 2806SOL    HW1 8448   3.661   3.842   0.456
 2806SOL    HW2 8449   3.557   3.772   0.561
 2807SOL     OW 8450   3.142   4.651   0.672
 2807SOL    HW1 8451   3.202   4.570   0.674
 2807SOL    HW2 8452   3.182   4.720   0.612
 2808SOL     OW 8453   2.692   4.997   1.422
 2808SOL    HW1 8454   2.687   5.030   1.517
 2808SOL    HW2 8455   2.606   5.016   1.376
 2809SOL     OW 8456   3.703   3.899   0.963
 2809SOL    HW1 8457   3.742   3.814   0.927
 2809SOL    HW2 8458   3.605   3.901   0.944
 2810SOL     OW 8459   2.125   4.050   0.720
 2810SOL    HW1 8460   2.046   4.101   0.686
 2810SOL    HW2 8461   2.116   4.035   0.818
 2811SOL     OW 8462   2.684   4.726   1.372
 2811SOL    HW1 8463   2.724   4.725   1.280
 2811SOL    HW2 8464   2.694   4.818   1.412
 2812SOL     OW 8465   2.778   4.634   0.291
 2812SOL    HW1 8466   2.841   4.672   0.223
 2812SOL    HW2 8467   2.818   4.551   0.330
 2813SOL     OW 8468   2.234   5.012   1.490
 2813SOL    HW1 8469   2.221   5.105   1.456
 2813SOL    HW2 8470   2.150   4.960   1.477
 2814SOL     OW 8471   3.476   5.016   1.289
 2814SOL    HW1 8472   3.536   5.019   1.369
 2814SOL    HW2 8473   3.401   5.080   1.302
 2815SOL     OW 8474   2.901   4.822   0.696
 2815SOL    HW1 8475   2.831   4.775   0.750
 2815SOL    HW2 8476   2.960   4.754   0.653
 2816SOL     OW 8477   2.876   3.960   0.971
 2816SOL    HW1 8478   2.868   3.924   0.878
 2816SOL    HW2 8479   2.874   3.884   1.036
 2817SOL     OW 8480   3.571   4.109   1.381
 2817SOL    HW1 8481   3.644   4.178   1.385
 2817SOL    HW2 8482   3.599   4.034   1.322
 2818SOL     OW 8483   1.967   4.737   1.726
 2818SOL    HW1 8484   1.890   4.704   1.780
 2818SOL    HW2 8485   2.052   4.707   1.768
 2819SOL     OW 8486   2.534   3.927   1.489
 2819SOL    HW1 8487   2.624   3.911   1.449
 2819SOL    HW2 8488   2.542   3.932   1.588
 2820SOL     OW 8489   3.302   4.580   1.398
 2820SOL    HW1 8490   3.245   4.632   1.335
 2820SOL    HW2 8491   3.398   4.592   1.374
 2821SOL     OW 8492   1.934   3.890   0.318
 2821SOL    HW1 8493   1.917   3.973   0.264
 2821SOL    HW2 8494   2.024   3.853   0.296
 2822SOL     OW 8495   2.475   4.566   1.431
 2822SOL    HW1 8496   2.531   4.647   1.414
 2822SOL    HW2 8497   2.534   4.486   1.434
 2823SOL     OW 8498   2.578   4.289   1.708
 2823SOL    HW1 8499   2.597   4.354   1.782
 2823SOL    HW2 8500   2.638   4.209   1.717
 2824SOL     OW 8501   3.312   4.944   1.633
 2824SOL    HW1 8502   3.303   4.934   1.732
 2824SOL    HW2 8503   3.408   4.937   1.607
 2825SOL     OW 8504   3.536   4.607   1.254
 2825SOL    HW1 8505   3.509   4.518   1.217
 2825SOL    HW2 8506   3.537   4.675   1.181
 2826SOL     OW 8507   3.087   4.049   0.449
 2826SOL    HW1 8508   3.152   3.975   0.438
 2826SOL    HW2 8509   3.107   4.099   0.533
 2827SOL     OW 8510   2.456   4.469   0.652
 2827SOL    HW1 8511   2.506   4.554   0.633
 2827SOL    HW2 8512   2.368   4.471   0.604
 2828SOL     OW 8513   3.639   4.066   1.642
 2828SOL    HW1 8514   3.622   4.097   1.548
 2828SOL    HW2 8515   3.555   4.029   1.680
 2829SOL     OW 8516   3.592   4.658   1.517
 2829SOL    HW1 8517   3.630   4.749   1.532
 2829SOL    HW2 8518   3.584   4.641   1.418
 2830SOL     OW 8519   2.721   4.680   0.861
 2830SOL    HW1 8520   2.775   4.611   0.909
 2830SOL    HW2 8521   2.689   4.749   0.927
 2831SOL     OW 8522   2.945   4.708   0.087
 2831SOL    HW1 8523   2.922   4.761   0.005
 2831SOL    HW2 8524   3.026   4.652   0.068
 2832SOL     OW 8525   1.941   4.964   0.653
 2832SOL    HW1 8526   1.940   4.917   0.741
 2832SOL    HW2 8527   2.023   4.936   0.602
 2833SOL     OW 8528   3.686   3.916   1.227
 2833SOL    HW1 8529   3.682   3.826   1.271
 2833SOL    HW2 8530   3.689   3.905   1.128
 2834SOL     OW 8531   2.290   4.148   0.520
 2834SOL    HW1 8532   2.320   4.076   0.458
 2834SOL    HW2 8533   2.251   4.108   0.603
 2835SOL     OW 8534   2.179   4.271   1.280
 2835SOL    HW1 8535   2.217   4.212   1.352
 2835SOL    HW2 8536   2.219   4.245   1.192
 2836SOL     OW 8537   3.286   3.938   1.112
 2836SOL    HW1 8538   3.338   3.873   1.167
 2836SOL    HW2 8539   3.237   4.001   1.173
 2837SOL     OW 8540   2.863   3.758   1.154
 2837SOL    HW1 8541   2.800   3.686   1.123
 2837SOL    HW2 8542   2.956   3.722   1.154
 2838SOL     OW 8543   2.632   5.054   0.301
 2838SOL    HW1 8544   2.586   4.967   0.318
 2838SOL    HW2 8545   2.723   5.051   0.342
 2839SOL     OW 8546   3.214   3.776   0.168
 2839SOL    HW1 8547   3.249   3.735   0.084
 2839SOL    HW2 8548   3.124   3.738   0.188
 2840SOL     OW 8549   3.162   4.177   0.691
 2840SOL    HW1 8550   3.103   4.257   0.695
 2840SOL    HW2 8551   3.177   4.142   0.784
 2841SOL     OW 8552   3.455   3.945   0.882
 2841SOL    HW1 8553   3.371   3.944   0.936
 2841SOL    HW2 8554   3.457   4.028   0.826
 2842SOL     OW 8555   1.901   4.801   0.300
 2842SOL    HW1 8556   2.000   4.790   0.291
 2842SOL    HW2 8557   1.861   4.715   0.332
 2843SOL     OW 8558   2.092   4.352   1.975
 2843SOL    HW1 8559   1.999   4.350   2.012
 2843SOL    HW2 8560   2.093   4.313   1.883
 2844SOL     OW 8561   2.087   3.999   2.858
 2844SOL    HW1 8562   2.122   3.982   2.950
 2844SOL    HW2 8563   1.999   3.954   2.846
 2845SOL     OW 8564   1.881   4.092   2.509
 2845SOL    HW1 8565   1.799   4.135   2.548
 2845SOL    HW2 8566   1.853   4.019   2.446
 2846SOL     OW 8567   2.997   4.427   2.579
 2846SOL    HW1 8568   3.054   4.505   2.554
 2846SOL    HW2 8569   2.937   4.453   2.655
 2847SOL     OW 8570   3.617   4.331   2.093
 2847SOL    HW1 8571   3.605   4.318   1.994
 2847SOL    HW2 8572   3.587   4.250   2.142
 2848SOL     OW 8573   2.630   4.868   2.885
 2848SOL    HW1 8574   2.552   4.885   2.945
 2848SOL    HW2 8575   2.664   4.955   2.849
 2849SOL     OW 8576   2.712   4.522   3.685
 2849SOL    HW1 8577   2.708   4.598   3.750
 2849SOL    HW2 8578   2.734   4.558   3.594
 2850SOL     OW 8579   2.547   4.736   2.527
 2850SOL    HW1 8580   2.616   4.720   2.597
 2850SOL    HW2 8581   2.474   4.793   2.565
 2851SOL     OW 8582   2.548   4.885   3.665
 2851SOL    HW1 8583   2.608   4.964   3.679
 2851SOL    HW2 8584   2.462   4.916   3.624
 2852SOL     OW 8585   2.197   5.159   2.923
 2852SOL    HW1 8586   2.119   5.128   2.870
 2852SOL    HW2 8587   2.255   5.217   2.866
 2853SOL     OW 8588   2.300   4.116   3.361
 2853SOL    HW1 8589   2.382   4.060   3.370
 2853SOL    HW2 8590   2.219   4.058   3.365
 2854SOL     OW 8591   3.465   4.171   2.599
 2854SOL    HW1 8592   3.391   4.217   2.549
 2854SOL    HW2 8593   3.516   4.239   2.652
 2855SOL     OW 8594   2.102   4.815   2.748
 2855SOL    HW1 8595   2.116   4.731   2.800
 2855SOL    HW2 8596   2.047   4.879   2.803
 2856SOL     OW 8597   2.468   4.688   1.985
 2856SOL    HW1 8598   2.475   4.772   1.931
 2856SOL    HW2 8599   2.514   4.701   2.073
 2857SOL     OW 8600   3.456   3.838   3.342
 2857SOL    HW1 8601   3.438   3.905   3.270
 2857SOL    HW2 8602   3.453   3.884   3.431
 2858SOL     OW 8603   1.984   4.367   2.425
 2858SOL    HW1 8604   1.939   4.279   2.442
 2858SOL    HW2 8605   1.983   4.421   2.509
 2859SOL     OW 8606   3.551   4.646   2.474
 2859SOL    HW1 8607   3.646   4.617   2.482
 2859SOL    HW2 8608   3.543   4.711   2.399
 2860SOL     OW 8609   3.503   4.832   2.294
 2860SOL    HW1 8610   3.589   4.834   2.242
 2860SOL    HW2 8611   3.517   4.879   2.382
 2861SOL     OW 8612   1.975   4.461   3.459
 2861SOL    HW1 8613   2.063   4.448   3.504
 2861SOL    HW2 8614   1.962   4.558   3.437
 2862SOL     OW 8615   3.155   4.952   3.285
 2862SOL    HW1 8616   3.192   4.879   3.227
 2862SOL    HW2 8617   3.207   4.957   3.370
 2863SOL     OW 8618   2.671   3.728   2.364
 2863SOL    HW1 8619   2.711   3.819   2.355
 2863SOL    HW2 8620   2.571   3.736   2.370
 2864SOL     OW 8621   2.059   4.700   3.126
 2864SOL    HW1 8622   2.148   4.655   3.112
 2864SOL    HW2 8623   1.986   4.635   3.107
 2865SOL     OW 8624   3.387   4.723   2.052
 2865SOL    HW1 8625   3.324   4.647   2.065
 2865SOL    HW2 8626   3.435   4.741   2.138
 2866SOL     OW 8627   2.179   3.975   3.663
 2866SOL    HW1 8628   2.250   4.046   3.669
 2866SOL    HW2 8629   2.091   4.014   3.691
 2867SOL     OW 8630   2.460   4.453   2.132
 2867SOL    HW1 8631   2.484   4.522   2.064
 2867SOL    HW2 8632   2.382   4.486   2.186
 2868SOL     OW 8633   3.143   4.069   2.806
 2868SOL    HW1 8634   3.057   4.019   2.793
 2868SOL    HW2 8635   3.205   4.015   2.862
 2869SOL     OW 8636   2.669   4.329   3.327
 2869SOL    HW1 8637   2.622   4.326   3.416
 2869SOL    HW2 8638   2.618   4.274   3.261
 2870SOL     OW 8639   3.256   4.193   3.536
 2870SOL    HW1 8640   3.236   4.236   3.624
 2870SOL    HW2 8641   3.334   4.131   3.545
 2871SOL     OW 8642   2.835   4.614   3.434
 2871SOL    HW1 8643   2.881   4.530   3.405
 2871SOL    HW2 8644   2.779   4.648   3.359
 2872SOL     OW 8645   2.853   4.134   3.104
 2872SOL    HW1 8646   2.776   4.168   3.158
 2872SOL    HW2 8647   2.819   4.083   3.025
 2873SOL     OW 8648   2.903   4.425   2.291
 2873SOL    HW1 8649   2.929   4.421   2.387
 2873SOL    HW2 8650   2.818   4.374   2.277
 2874SOL     OW 8651   1.938   4.535   2.651
 2874SOL    HW1 8652   2.037   4.523   2.660
 2874SOL    HW2 8653   1.914   4.630   2.672
 2875SOL     OW 8654   2.727   4.072   2.057
 2875SOL    HW1 8655   2.786   4.135   2.008
 2875SOL    HW2 8656   2.746   3.978   2.028
 2876SOL     OW 8657   3.581   4.309   3.693
 2876SOL    HW1 8658   3.555   4.398   3.657
 2876SOL    HW2 8659   3.579   4.241   3.620
 2877SOL     OW 8660   3.224   4.868   2.407
 2877SOL    HW1 8661   3.307   4.839   2.359
 2877SOL    HW2 8662   3.175   4.935   2.351
 2878SOL     OW 8663   2.412   3.920   2.747
 2878SOL    HW1 8664   2.407   3.915   2.847
 2878SOL    HW2 8665   2.414   4.016   2.718
 2879SOL     OW 8666   3.657   4.790   2.735
 2879SOL    HW1 8667   3.595   4.775   2.659
 2879SOL    HW2 8668   3.605   4.801   2.820
 2880SOL     OW 8669   2.183   4.667   2.104
 2880SOL    HW1 8670   2.265   4.706   2.062
 2880SOL    HW2 8671   2.156   4.585   2.055
 2881SOL     OW 8672   3.320   4.459   2.590
 2881SOL    HW1 8673   3.315   4.394   2.665
 2881SOL    HW2 8674   3.400   4.518   2.603
 2882SOL     OW 8675   2.064   4.009   3.360
 2882SOL    HW1 8676   1.984   4.069   3.347
 2882SOL    HW2 8677   2.054   3.960   3.446
 2883SOL     OW 8678   3.494   5.101   1.943
 2883SOL    HW1 8679   3.462   5.195   1.933
 2883SOL    HW2 8680   3.418   5.038   1.931
 2884SOL     OW 8681   3.262   3.831   2.288
 2884SOL    HW1 8682   3.238   3.794   2.198
 2884SOL    HW2 8683   3.361   3.847   2.292
 2885SOL     OW 8684   2.244   4.424   2.342
 2885SOL    HW1 8685   2.289   4.334   2.339
 2885SOL    HW2 8686   2.150   4.413   2.375
 2886SOL     OW 8687   3.409   3.946   3.591
 2886SOL    HW1 8688   3.404   3.983   3.683
 2886SOL    HW2 8689   3.337   3.877   3.579
 2887SOL     OW 8690   2.476   3.846   1.979
 2887SOL    HW1 8691   2.574   3.824   1.986
 2887SOL    HW2 8692   2.445   3.829   1.886
 2888SOL     OW 8693   2.643   3.988   3.611
 2888SOL    HW1 8694   2.710   3.927   3.654
 2888SOL    HW2 8695   2.570   4.007   3.676
 2889SOL     OW 8696   3.213   4.314   3.295
 2889SOL    HW1 8697   3.241   4.271   3.380
 2889SOL    HW2 8698   3.238   4.410   3.296
 2890SOL     OW 8699   2.665   5.126   2.786
 2890SOL    HW1 8700   2.755   5.140   2.744
 2890SOL    HW2 8701   2.594   5.128   2.715
 2891SOL     OW 8702   2.784   4.227   2.761
 2891SOL    HW1 8703   2.759   4.218   2.665
 2891SOL    HW2 8704   2.832   4.145   2.792
 2892SOL     OW 8705   2.401   3.788   2.374
 2892SOL    HW1 8706   2.320   3.789   2.432
 2892SOL    HW2 8707   2.404   3.871   2.319
 2893SOL     OW 8708   3.296   4.912   1.903
 2893SOL    HW1 8709   3.328   4.836   1.960
 2893SOL    HW2 8710   3.204   4.939   1.933
 2894SOL     OW 8711   2.159   3.759   2.033
 2894SOL    HW1 8712   2.208   3.843   2.012
 2894SOL    HW2 8713   2.221   3.694   2.078
 2895SOL     OW 8714   2.797   3.960   2.342
 2895SOL    HW1 8715   2.749   4.001   2.264
 2895SOL    HW2 8716   2.896   3.958   2.323
 2896SOL     OW 8717   2.938   4.407   3.326
 2896SOL    HW1 8718   2.858   4.346   3.329
 2896SOL    HW2 8719   3.019   4.354   3.302
 2897SOL     OW 8720   2.321   4.876   2.603
 2897SOL    HW1 8721   2.250   4.849   2.668
 2897SOL    HW2 8722   2.295   4.848   2.510
 2898SOL     OW 8723   2.894   4.273   1.878
 2898SOL    HW1 8724   2.853   4.355   1.839
 2898SOL    HW2 8725   2.958   4.299   1.951
 2899SOL     OW 8726   1.940   4.280   3.248
 2899SOL    HW1 8727   2.032   4.279   3.207
 2899SOL    HW2 8728   1.934   4.354   3.315
 2900SOL     OW 8729   2.423   3.946   3.009
 2900SOL    HW1 8730   2.461   3.862   3.046
 2900SOL    HW2 8731   2.335   3.965   3.053
 2901SOL     OW 8732   2.728   4.178   2.504
 2901SOL    HW1 8733   2.696   4.250   2.442
 2901SOL    HW2 8734   2.752   4.097   2.451
 2902SOL     OW 8735   2.879   3.763   2.615
 2902SOL    HW1 8736   2.807   3.768   2.546
 2902SOL    HW2 8737   2.855   3.694   2.684
 2903SOL     OW 8738   3.291   4.897   2.729
 2903SOL    HW1 8739   3.236   4.813   2.722
 2903SOL    HW2 8740   3.317   4.926   2.637
 2904SOL     OW 8741   3.328   4.314   2.854
 2904SOL    HW1 8742   3.298   4.219   2.861
 2904SOL    HW2 8743   3.401   4.330   2.920
 2905SOL     OW 8744   3.719   4.557   2.239
 2905SOL    HW1 8745   3.761   4.493   2.303
 2905SOL    HW2 8746   3.681   4.506   2.161
 2906SOL     OW 8747   3.252   4.299   1.940
 2906SOL    HW1 8748   3.198   4.278   2.021
 2906SOL    HW2 8749   3.343   4.258   1.949
 2907SOL     OW 8750   2.389   3.980   2.190
 2907SOL    HW1 8751   2.416   3.921   2.115
 2907SOL    HW2 8752   2.389   4.075   2.159
 2908SOL     OW 8753   3.616   4.947   3.450
 2908SOL    HW1 8754   3.707   4.908   3.437
 2908SOL    HW2 8755   3.624   5.043   3.474
 2909SOL     OW 8756   3.500   4.823   2.941
 2909SOL    HW1 8757   3.505   4.904   3.000
 2909SOL    HW2 8758   3.414   4.825   2.890
 2910SOL     OW 8759   2.777   3.813   3.264
 2910SOL    HW1 8760   2.802   3.793   3.169
 2910SOL    HW2 8761   2.849   3.869   3.306
 2911SOL     OW 8762   2.842   4.840   3.581
 2911SOL    HW1 8763   2.743   4.846   3.591
 2911SOL    HW2 8764   2.865   4.760   3.525
 2912SOL     OW 8765   2.567   4.774   2.230
 2912SOL    HW1 8766   2.553   4.781   2.329
 2912SOL    HW2 8767   2.651   4.723   2.212
 2913SOL     OW 8768   2.272   4.537   3.113
 2913SOL    HW1 8769   2.358   4.549   3.163
 2913SOL    HW2 8770   2.230   4.450   3.140
 2914SOL     OW 8771   3.136   4.110   3.124
 2914SOL    HW1 8772   3.157   4.184   3.188
 2914SOL    HW2 8773   3.047   4.127   3.081
 2915SOL     OW 8774   2.229   4.824   2.363
 2915SOL    HW1 8775   2.222   4.907   2.307
 2915SOL    HW2 8776   2.233   4.744   2.303
 2916SOL     OW 8777   2.428   4.261   2.727
 2916SOL    HW1 8778   2.440   4.327   2.653
 2916SOL    HW2 8779   2.474   4.295   2.810
 2917SOL     OW 8780   3.444   4.363   2.334
 2917SOL    HW1 8781   3.413   4.424   2.407
 2917SOL    HW2 8782   3.494   4.415   2.265
 2918SOL     OW 8783   2.264   4.475   3.460
 2918SOL    HW1 8784   2.332   4.530   3.413
 2918SOL    HW2 8785   2.304   4.387   3.487
 2919SOL     OW 8786   3.449   4.503   3.532
 2919SOL    HW1 8787   3.357   4.541   3.527
 2919SOL    HW2 8788   3.509   4.550   3.467
 2920SOL     OW 8789   2.875   3.829   3.632
 2920SOL    HW1 8790   2.881   3.914   3.580
 2920SOL    HW2 8791   2.907   3.753   3.575
 2921SOL     OW 8792   2.366   3.774   3.602
 2921SOL    HW1 8793   2.324   3.717   3.532
 2921SOL    HW2 8794   2.300   3.843   3.634
 2922SOL     OW 8795   2.435   4.594   2.891
 2922SOL    HW1 8796   2.479   4.683   2.882
 2922SOL    HW2 8797   2.372   4.594   2.968
 2923SOL     OW 8798   3.222   4.586   2.907
 2923SOL    HW1 8799   3.147   4.586   2.841
 2923SOL    HW2 8800   3.259   4.494   2.916
 2924SOL     OW 8801   3.071   4.249   2.137
 2924SOL    HW1 8802   3.084   4.165   2.191
 2924SOL    HW2 8803   3.042   4.323   2.197
 2925SOL     OW 8804   2.169   3.937   3.093
 2925SOL    HW1 8805   2.146   3.974   3.183
 2925SOL    HW2 8806   2.139   3.842   3.087
 2926SOL     OW 8807   2.594   4.358   2.926
 2926SOL    HW1 8808   2.653   4.332   2.850
 2926SOL    HW2 8809   2.566   4.454   2.915
 2927SOL     OW 8810   3.590   4.659   3.716
 2927SOL    HW1 8811   3.544   4.652   3.627
 2927SOL    HW2 8812   3.528   4.703   3.782
 2928SOL     OW 8813   2.169   3.787   2.480
 2928SOL    HW1 8814   2.158   3.881   2.513
 2928SOL    HW2 8815   2.164   3.724   2.557
 2929SOL     OW 8816   3.484   4.091   2.236
 2929SOL    HW1 8817   3.486   4.015   2.300
 2929SOL    HW2 8818   3.436   4.168   2.276
 2930SOL     OW 8819   2.885   4.490   2.828
 2930SOL    HW1 8820   2.900   4.511   2.924
 2930SOL    HW2 8821   2.855   4.395   2.819
 2931SOL     OW 8822   3.721   5.242   3.467
 2931SOL    HW1 8823   3.735   5.269   3.372
 2931SOL    HW2 8824   3.804   5.264   3.520
 2932SOL     OW 8825   2.212   4.622   3.666
 2932SOL    HW1 8826   2.288   4.666   3.714
 2932SOL    HW2 8827   2.247   4.575   3.584
 2933SOL     OW 8828   3.402   3.998   1.987
 2933SOL    HW1 8829   3.341   3.923   2.010
 2933SOL    HW2 8830   3.424   4.050   2.070
 2934SOL     OW 8831   3.165   4.562   1.904
 2934SOL    HW1 8832   3.199   4.469   1.919
 2934SOL    HW2 8833   3.183   4.589   1.809
 2935SOL     OW 8834   2.181   4.534   2.811
 2935SOL    HW1 8835   2.274   4.570   2.816
 2935SOL    HW2 8836   2.175   4.449   2.863
 2936SOL     OW 8837   2.201   4.233   2.868
 2936SOL    HW1 8838   2.149   4.150   2.851
 2936SOL    HW2 8839   2.278   4.238   2.804
 2937SOL     OW 8840   3.000   4.104   3.540
 2937SOL    HW1 8841   2.955   4.167   3.604
 2937SOL    HW2 8842   3.093   4.135   3.523
 2938SOL     OW 8843   3.022   3.931   3.339
 2938SOL    HW1 8844   3.022   3.995   3.416
 2938SOL    HW2 8845   3.050   3.979   3.256
 2939SOL     OW 8846   1.870   5.050   2.062
 2939SOL    HW1 8847   1.777   5.071   2.031
 2939SOL    HW2 8848   1.880   4.951   2.075
 2940SOL     OW 8849   2.864   4.520   3.100
 2940SOL    HW1 8850   2.905   4.488   3.186
 2940SOL    HW2 8851   2.768   4.493   3.097
 2941SOL     OW 8852   1.902   4.268   2.976
 2941SOL    HW1 8853   1.987   4.235   2.935
 2941SOL    HW2 8854   1.915   4.283   3.074
 2942SOL     OW 8855   2.051   4.244   3.584
 2942SOL    HW1 8856   2.110   4.204   3.514
 2942SOL    HW2 8857   1.993   4.315   3.543
 2943SOL     OW 8858   3.231   4.674   3.522
 2943SOL    HW1 8859   3.270   4.763   3.542
 2943SOL    HW2 8860   3.241   4.654   3.425
 2944SOL     OW 8861   2.677   4.296   2.187
 2944SOL    HW1 8862   2.684   4.207   2.141
 2944SOL    HW2 8863   2.583   4.330   2.179
 2945SOL     OW 8864   3.519   4.328   3.068
 2945SOL    HW1 8865   3.481   4.259   3.130
 2945SOL    HW2 8866   3.601   4.292   3.024
 2946SOL     OW 8867   2.533   4.188   3.131
 2946SOL    HW1 8868   2.499   4.099   3.101
 2946SOL    HW2 8869   2.559   4.242   3.051
 2947SOL     OW 8870   2.335   4.224   2.053
 2947SOL    HW1 8871   2.396   4.304   2.057
 2947SOL    HW2 8872   2.240   4.255   2.060
 2948SOL     OW 8873   2.021   4.861   3.328
 2948SOL    HW1 8874   2.043   4.800   3.404
 2948SOL    HW2 8875   2.031   4.812   3.242
 2949SOL     OW 8876   3.209   4.783   3.096
 2949SOL    HW1 8877   3.233   4.720   3.022
 2949SOL    HW2 8878   3.119   4.823   3.078
 2950SOL     OW 8879   3.164   4.579   2.171
 2950SOL    HW1 8880   3.078   4.548   2.213
 2950SOL    HW2 8881   3.160   4.565   2.072
 2951SOL     OW 8882   1.945   4.982   2.884
 2951SOL    HW1 8883   1.940   4.981   2.984
 2951SOL    HW2 8884   1.862   4.941   2.846
 2952SOL     OW 8885   3.588   3.859   2.385
 2952SOL    HW1 8886   3.661   3.842   2.318
 2952SOL    HW2 8887   3.557   3.772   2.423
 2953SOL     OW 8888   3.142   4.651   2.534
 2953SOL    HW1 8889   3.202   4.570   2.536
 2953SOL    HW2 8890   3.182   4.720   2.474
 2954SOL     OW 8891   2.692   4.997   3.284
 2954SOL    HW1 8892   2.687   5.030   3.379
 2954SOL    HW2 8893   2.606   5.016   3.238
 2955SOL     OW 8894   3.703   3.899   2.825
 2955SOL    HW1 8895   3.742   3.814   2.789
 2955SOL    HW2 8896   3.605   3.901   2.806
 2956SOL     OW 8897   2.125   4.050   2.582
 2956SOL    HW1 8898   2.046   4.101   2.548
 2956SOL    HW2 8899   2.116   4.035   2.680
 2957SOL     OW 8900   3.056   5.336   1.893
 2957SOL    HW1 8901   3.062   5.243   1.930
 2957SOL    HW2 8902   2.997   5.336   1.813
 2958SOL     OW 8903   2.684   4.726   3.234
 2958SOL    HW1 8904   2.724   4.725   3.142
 2958SOL    HW2 8905   2.694   4.818   3.274
 2959SOL     OW 8906   2.778   4.634   2.153
 2959SOL    HW1 8907   2.841   4.672   2.085
 2959SOL    HW2 8908   2.818   4.551   2.192
 2960SOL     OW 8909   2.234   5.012   3.352
 2960SOL    HW1 8910   2.221   5.105   3.318
 2960SOL    HW2 8911   2.150   4.960   3.339
 2961SOL     OW 8912   3.476   5.016   3.151
 2961SOL    HW1 8913   3.536   5.019   3.231
 2961SOL    HW2 8914   3.401   5.080   3.164
 2962SOL     OW 8915   2.901   4.822   2.558
 2962SOL    HW1 8916   2.831   4.775   2.612
 2962SOL    HW2 8917   2.960   4.754   2.515
 2963SOL     OW 8918   2.876   3.960   2.833
 2963SOL    HW1 8919   2.868   3.924   2.740
 2963SOL    HW2 8920   2.874   3.884   2.898
 2964SOL     OW 8921   3.571   4.109   3.243
 2964SOL    HW1 8922   3.644   4.178   3.247
 2964SOL    HW2 8923   3.599   4.034   3.184
 2965SOL     OW 8924   1.967   4.737   3.588
 2965SOL    HW1 8925   1.890   4.704   3.642
 2965SOL    HW2 8926   2.052   4.707   3.630
 2966SOL     OW 8927   2.534   3.927   3.351
 2966SOL    HW1 8928   2.624   3.911   3.311
 2966SOL    HW2 8929   2.542   3.932   3.450
 2967SOL     OW 8930   1.937   4.069   1.895
 2967SOL    HW1 8931   1.845   4.041   1.866
 2967SOL    HW2 8932   1.968   4.146   1.839
 2968SOL     OW 8933   3.302   4.580   3.260
 2968SOL    HW1 8934   3.245   4.632   3.197
 2968SOL    HW2 8935   3.398   4.592   3.236
 2969SOL     OW 8936   1.934   3.890   2.180
 2969SOL    HW1 8937   1.917   3.973   2.126
 2969SOL    HW2 8938   2.024   3.853   2.158
 2970SOL     OW 8939   2.475   4.566   3.293
 2970SOL    HW1 8940   2.531   4.647   3.276
 2970SOL    HW2 8941   2.534   4.486   3.296
 2971SOL     OW 8942   2.578   4.289   3.570
 2971SOL    HW1 8943   2.597   4.354   3.644
 2971SOL    HW2 8944   2.638   4.209   3.579
 2972SOL     OW 8945   3.312   4.944   3.495
 2972SOL    HW1 8946   3.303   4.934   3.594
 2972SOL    HW2 8947   3.408   4.937   3.469
 2973SOL     OW 8948   3.536   4.607   3.116
 2973SOL    HW1 8949   3.509   4.518   3.079
 2973SOL    HW2 8950   3.537   4.675   3.043
 2974SOL     OW 8951   3.087   4.049   2.311
 2974SOL    HW1 8952   3.152   3.975   2.300
 2974SOL    HW2 8953   3.107   4.099   2.395
 2975SOL     OW 8954   2.456   4.469   2.514
 2975SOL    HW1 8955   2.506   4.554   2.495
 2975SOL    HW2 8956   2.368   4.471   2.466
 2976SOL     OW 8957   3.639   4.066   3.504
 2976SOL    HW1 8958   3.622   4.097   3.410
 2976SOL    HW2 8959   3.555   4.029   3.542
 2977SOL     OW 8960   3.592   4.658   3.379
 2977SOL    HW1 8961   3.630   4.749   3.394
 2977SOL    HW2 8962   3.584   4.641   3.280
 2978SOL     OW 8963   2.721   4.680   2.723
 2978SOL    HW1 8964   2.775   4.611   2.771
 2978SOL    HW2 8965   2.689   4.749   2.789
 2979SOL     OW 8966   2.945   4.708   1.949
 2979SOL    HW1 8967   2.922   4.761   1.867
 2979SOL    HW2 8968   3.026   4.652   1.930
 2980SOL     OW 8969   1.941   4.964   2.515
 2980SOL    HW1 8970   1.940   4.917   2.603
 2980SOL    HW2 8971   2.023   4.936   2.464
 2981SOL     OW 8972   3.686   3.916   3.089
 2981SOL    HW1 8973   3.682   3.826   3.133
 2981SOL    HW2 8974   3.689   3.905   2.990
 2982SOL     OW 8975   2.290   4.148   2.382
 2982SOL    HW1 8976   2.320   4.076   2.320
 2982SOL    HW2 8977   2.251   4.108   2.465
 2983SOL     OW 8978   2.179   4.271   3.142
 2983SOL    HW1 8979   2.217   4.212   3.214
 2983SOL    HW2 8980   2.219   4.245   3.054
 2984SOL     OW 8981   3.286   3.938   2.974
 2984SOL    HW1 8982   3.338   3.873   3.029
 2984SOL    HW2 8983   3.237   4.001   3.035
 2985SOL     OW 8984   2.863   3.758   3.016
 2985SOL    HW1 8985   2.800   3.686   2.985
 2985SOL    HW2 8986   2.956   3.722   3.016
 2986SOL     OW 8987   2.632   5.054   2.163
 2986SOL    HW1 8988   2.586   4.967   2.180
 2986SOL    HW2 8989   2.723   5.051   2.204
 2987SOL     OW 8990   3.214   3.776   2.030
 2987SOL    HW1 8991   3.249   3.735   1.946
 2987SOL    HW2 8992   3.124   3.738   2.050
 2988SOL     OW 8993   3.162   4.177   2.553
 2988SOL    HW1 8994   3.103   4.257   2.557
 2988SOL    HW2 8995   3.177   4.142   2.646
 2989SOL     OW 8996   3.455   3.945   2.744
 2989SOL    HW1 8997   3.371   3.944   2.798
 2989SOL    HW2 8998   3.457   4.028   2.688
 2990SOL     OW 8999   1.901   4.801   2.162
 2990SOL    HW1 9000   2.000   4.790   2.153
 2990SOL    HW2 9001   1.861   4.715   2.194
 2991SOL     OW 9002   2.092   4.352   3.837
 2991SOL    HW1 9003   1.999   4.350   3.874
 2991SOL    HW2 9004   2.093   4.313   3.745
 2992SOL     OW 9005   2.087   3.999   4.720
 2992SOL    HW1 9006   2.122   3.982   4.812
 2992SOL    HW2 9007   1.999   3.954   4.708
 2993SOL     OW 9008   1.881   4.092   4.371
 2993SOL    HW1 9009   1.799   4.135   4.410
 2993SOL    HW2 9010   1.853   4.019   4.308
 2994SOL     OW 9011   2.997   4.427   4.441
 2994SOL    HW1 9012   3.054   4.505   4.416
 2994SOL    HW2 9013   2.937   4.453   4.517
 2995SOL     OW 9014   3.617   4.331   3.955
 2995SOL    HW1 9015   3.605   4.318   3.856
 2995SOL    HW2 9016   3.587   4.250   4.004
 2996SOL     OW 9017   2.630   4.868   4.747
 2996SOL    HW1 9018   2.552   4.885   4.807
 2996SOL    HW2 9019   2.664   4.955   4.711
 2997SOL     OW 9020   2.547   4.736   4.389
 2997SOL    HW1 9021   2.616   4.720   4.459
 2997SOL    HW2 9022   2.474   4.793   4.427
 2998SOL     OW 9023   2.197   5.159   4.785
 2998SOL    HW1 9024   2.119   5.128   4.732
 2998SOL    HW2 9025   2.255   5.217   4.728
 2999SOL     OW 9026   3.465   4.171   4.461
 2999SOL    HW1 9027   3.391   4.217   4.411
 2999SOL    HW2 9028   3.516   4.239   4.514
 3000SOL     OW 9029   2.102   4.815   4.610
 3000SOL    HW1 9030   2.116   4.731   4.662
 3000SOL    HW2 9031   2.047   4.879   4.665
 3001SOL     OW 9032   2.468   4.688   3.847
 3001SOL    HW1 9033   2.475   4.772   3.793
 3001SOL    HW2 9034   2.514   4.701   3.935
 3002SOL     OW 9035   1.984   4.367   4.287
 3002SOL    HW1 9036   1.939   4.279   4.304
 3002SOL    HW2 9037   1.983   4.421   4.371
 3003SOL     OW 9038   3.551   4.646   4.336
 3003SOL    HW1 9039   3.646   4.617   4.344
 3003SOL    HW2 9040   3.543   4.711   4.261
 3004SOL     OW 9041   3.503   4.832   4.156
 3004SOL    HW1 9042   3.589   4.834   4.104
 3004SOL    HW2 9043   3.517   4.879   4.244
 3005SOL     OW 9044   2.671   3.728   4.226
 3005SOL    HW1 9045   2.711   3.819   4.217
 3005SOL    HW2 9046   2.571   3.736   4.232
 3006SOL     OW 9047   2.059   4.700   4.988
 3006SOL    HW1 9048   2.148   4.655   4.974
 3006SOL    HW2 9049   1.986   4.635   4.969
 3007SOL     OW 9050   3.387   4.723   3.914
 3007SOL    HW1 9051   3.324   4.647   3.927
 3007SOL    HW2 9052   3.435   4.741   4.000
 3008SOL     OW 9053   2.460   4.453   3.994
 3008SOL    HW1 9054   2.484   4.522   3.926
 3008SOL    HW2 9055   2.382   4.486   4.048
 3009SOL     OW 9056   3.143   4.069   4.668
 3009SOL    HW1 9057   3.057   4.019   4.655
 3009SOL    HW2 9058   3.205   4.015   4.724
 3010SOL     OW 9059   2.853   4.134   4.966
 3010SOL    HW1 9060   2.776   4.168   5.020
 3010SOL    HW2 9061   2.819   4.083   4.887
 3011SOL     OW 9062   2.903   4.425   4.153
 3011SOL    HW1 9063   2.929   4.421   4.249
 3011SOL    HW2 9064   2.818   4.374   4.139
 3012SOL     OW 9065   1.938   4.535   4.513
 3012SOL    HW1 9066   2.037   4.523   4.522
 3012SOL    HW2 9067   1.914   4.630   4.534
 3013SOL     OW 9068   2.727   4.072   3.919
 3013SOL    HW1 9069   2.786   4.135   3.870
 3013SOL    HW2 9070   2.746   3.978   3.890
 3014SOL     OW 9071   3.224   4.868   4.269
 3014SOL    HW1 9072   3.307   4.839   4.221
 3014SOL    HW2 9073   3.175   4.935   4.213
 3015SOL     OW 9074   2.412   3.920   4.609
 3015SOL    HW1 9075   2.407   3.915   4.709
 3015SOL    HW2 9076   2.414   4.016   4.580
 3016SOL     OW 9077   3.657   4.790   4.597
 3016SOL    HW1 9078   3.595   4.775   4.521
 3016SOL    HW2 9079   3.605   4.801   4.682
 3017SOL     OW 9080   2.183   4.667   3.966
 3017SOL    HW1 9081   2.265   4.706   3.924
 3017SOL    HW2 9082   2.156   4.585   3.917
 3018SOL     OW 9083   3.320   4.459   4.452
 3018SOL    HW1 9084   3.315   4.394   4.527
 3018SOL    HW2 9085   3.400   4.518   4.465
 3019SOL     OW 9086   3.494   5.101   3.805
 3019SOL    HW1 9087   3.462   5.195   3.795
 3019SOL    HW2 9088   3.418   5.038   3.793
 3020SOL     OW 9089   3.262   3.831   4.150
 3020SOL    HW1 9090   3.238   3.794   4.060
 3020SOL    HW2 9091   3.361   3.847   4.154
 3021SOL     OW 9092   2.244   4.424   4.204
 3021SOL    HW1 9093   2.289   4.334   4.201
 3021SOL    HW2 9094   2.150   4.413   4.237
 3022SOL     OW 9095   2.476   3.846   3.841
 3022SOL    HW1 9096   2.574   3.824   3.848
 3022SOL    HW2 9097   2.445   3.829   3.748
 3023SOL     OW 9098   2.665   5.126   4.648
 3023SOL    HW1 9099   2.755   5.140   4.606
 3023SOL    HW2 9100   2.594   5.128   4.577
 3024SOL     OW 9101   2.784   4.227   4.623
 3024SOL    HW1 9102   2.759   4.218   4.527
 3024SOL    HW2 9103   2.832   4.145   4.654
 3025SOL     OW 9104   2.401   3.788   4.236
 3025SOL    HW1 9105   2.320   3.789   4.294
 3025SOL    HW2 9106   2.404   3.871   4.181
 3026SOL     OW 9107   3.296   4.912   3.765
 3026SOL    HW1 9108   3.328   4.836   3.822
 3026SOL    HW2 9109   3.204   4.939   3.795
 3027SOL     OW 9110   2.159   3.759   3.895
 3027SOL    HW1 9111   2.208   3.843   3.874
 3027SOL    HW2 9112   2.221   3.694   3.940
 3028SOL     OW 9113   2.797   3.960   4.204
 3028SOL    HW1 9114   2.749   4.001   4.126
 3028SOL    HW2 9115   2.896   3.958   4.185
 3029SOL     OW 9116   2.321   4.876   4.465
 3029SOL    HW1 9117   2.250   4.849   4.530
 3029SOL    HW2 9118   2.295   4.848   4.372
 3030SOL     OW 9119   2.894   4.273   3.740
 3030SOL    HW1 9120   2.853   4.355   3.701
 3030SOL    HW2 9121   2.958   4.299   3.813
 3031SOL     OW 9122   2.423   3.946   4.871
 3031SOL    HW1 9123   2.461   3.862   4.908
 3031SOL    HW2 9124   2.335   3.965   4.915
 3032SOL     OW 9125   2.728   4.178   4.366
 3032SOL    HW1 9126   2.696   4.250   4.304
 3032SOL    HW2 9127   2.752   4.097   4.313
 3033SOL     OW 9128   2.879   3.763   4.477
 3033SOL    HW1 9129   2.807   3.768   4.408
 3033SOL    HW2 9130   2.855   3.694   4.546
 3034SOL     OW 9131   3.291   4.897   4.591
 3034SOL    HW1 9132   3.236   4.813   4.584
 3034SOL    HW2 9133   3.317   4.926   4.499
 3035SOL     OW 9134   3.328   4.314   4.716
 3035SOL    HW1 9135   3.298   4.219   4.723
 3035SOL    HW2 9136   3.401   4.330   4.782
 3036SOL     OW 9137   3.719   4.557   4.101
 3036SOL    HW1 9138   3.761   4.493   4.165
 3036SOL    HW2 9139   3.681   4.506   4.023
 3037SOL     OW 9140   3.252   4.299   3.802
 3037SOL    HW1 9141   3.198   4.278   3.883
 3037SOL    HW2 9142   3.343   4.258   3.811
 3038SOL     OW 9143   2.389   3.980   4.052
 3038SOL    HW1 9144   2.416   3.921   3.977
 3038SOL    HW2 9145   2.389   4.075   4.021
 3039SOL     OW 9146   3.500   4.823   4.803
 3039SOL    HW1 9147   3.505   4.904   4.862
 3039SOL    HW2 9148   3.414   4.825   4.752
 3040SOL     OW 9149   2.567   4.774   4.092
 3040SOL    HW1 9150   2.553   4.781   4.191
 3040SOL    HW2 9151   2.651   4.723   4.074
 3041SOL     OW 9152   2.272   4.537   4.975
 3041SOL    HW1 9153   2.358   4.549   5.025
 3041SOL    HW2 9154   2.230   4.450   5.002
 3042SOL     OW 9155   3.136   4.110   4.986
 3042SOL    HW1 9156   3.157   4.184   5.050
 3042SOL    HW2 9157   3.047   4.127   4.943
 3043SOL     OW 9158   2.229   4.824   4.225
 3043SOL    HW1 9159   2.222   4.907   4.169
 3043SOL    HW2 9160   2.233   4.744   4.165
 3044SOL     OW 9161   2.428   4.261   4.589
 3044SOL    HW1 9162   2.440   4.327   4.515
 3044SOL    HW2 9163   2.474   4.295   4.672
 3045SOL     OW 9164   3.444   4.363   4.196
 3045SOL    HW1 9165   3.413   4.424   4.269
 3045SOL    HW2 9166   3.494   4.415   4.127
 3046SOL     OW 9167   2.435   4.594   4.753
 3046SOL    HW1 9168   2.479   4.683   4.744
 3046SOL    HW2 9169   2.372   4.594   4.830
 3047SOL     OW 9170   3.222   4.586   4.769
 3047SOL    HW1 9171   3.147   4.586   4.703
 3047SOL    HW2 9172   3.259   4.494   4.778
 3048SOL     OW 9173   3.071   4.249   3.999
 3048SOL    HW1 9174   3.084   4.165   4.053
 3048SOL    HW2 9175   3.042   4.323   4.059
 3049SOL     OW 9176   2.169   3.937   4.955
 3049SOL    HW1 9177   2.146   3.974   5.045
 3049SOL    HW2 9178   2.139   3.842   4.949
 3050SOL     OW 9179   2.594   4.358   4.788
 3050SOL    HW1 9180   2.653   4.332   4.712
 3050SOL    HW2 9181   2.566   4.454   4.777
 3051SOL     OW 9182   2.169   3.787   4.342
 3051SOL    HW1 9183   2.158   3.881   4.375
 3051SOL    HW2 9184   2.164   3.724   4.419
 3052SOL     OW 9185   3.484   4.091   4.098
 3052SOL    HW1 9186   3.486   4.015   4.162
 3052SOL    HW2 9187   3.436   4.168   4.138
 3053SOL     OW 9188   2.885   4.490   4.690
 3053SOL    HW1 9189   2.900   4.511   4.786
 3053SOL    HW2 9190   2.855   4.395   4.681
 3054SOL     OW 9191   3.402   3.998   3.849
 3054SOL    HW1 9192   3.341   3.923   3.872
 3054SOL    HW2 9193   3.424   4.050   3.932
 3055SOL     OW 9194   3.165   4.562   3.766
 3055SOL    HW1 9195   3.199   4.469   3.781
 3055SOL    HW2 9196   3.183   4.589   3.671
 3056SOL     OW 9197   2.181   4.534   4.673
 3056SOL    HW1 9198   2.274   4.570   4.678
 3056SOL    HW2 9199   2.175   4.449   4.725
 3057SOL     OW 9200   2.201   4.233   4.730
 3057SOL    HW1 9201   2.149   4.150   4.713
 3057SOL    HW2 9202   2.278   4.238   4.666
 3058SOL     OW 9203   3.022   3.931   5.201
 3058SOL    HW1 9204   3.022   3.995   5.278
 3058SOL    HW2 9205   3.050   3.979   5.118
 3059SOL     OW 9206   1.870   5.050   3.924
 3059SOL    HW1 9207   1.777   5.071   3.893
 3059SOL    HW2 9208   1.880   4.951   3.937
 3060SOL     OW 9209   2.864   4.520   4.962
 3060SOL    HW1 9210   2.905   4.488   5.048
 3060SOL    HW2 9211   2.768   4.493   4.959
 3061SOL     OW 9212   1.902   4.268   4.838
 3061SOL    HW1 9213   1.987   4.235   4.797
 3061SOL    HW2 9214   1.915   4.283   4.936
 3062SOL     OW 9215   2.677   4.296   4.049
 3062SOL    HW1 9216   2.684   4.207   4.003
 3062SOL    HW2 9217   2.583   4.330   4.041
 3063SOL     OW 9218   3.519   4.328   4.930
 3063SOL    HW1 9219   3.481   4.259   4.992
 3063SOL    HW2 9220   3.601   4.292   4.886
 3064SOL     OW 9221   2.533   4.188   4.993
 3064SOL    HW1 9222   2.499   4.099   4.963
 3064SOL    HW2 9223   2.559   4.242   4.913
 3065SOL     OW 9224   2.335   4.224   3.915
 3065SOL    HW1 9225   2.396   4.304   3.919
 3065SOL    HW2 9226   2.240   4.255   3.922
 3066SOL     OW 9227   3.209   4.783   4.958
 3066SOL    HW1 9228   3.233   4.720   4.884
 3066SOL    HW2 9229   3.119   4.823   4.940
 3067SOL     OW 9230   3.164   4.579   4.033
 3067SOL    HW1 9231   3.078   4.548   4.075
 3067SOL    HW2 9232   3.160   4.565   3.934
 3068SOL     OW 9233   1.945   4.982   4.746
 3068SOL    HW1 9234   1.940   4.981   4.846
 3068SOL    HW2 9235   1.862   4.941   4.708
 3069SOL     OW 9236   3.588   3.859   4.247
 3069SOL    HW1 9237   3.661   3.842   4.180
 3069SOL    HW2 9238   3.557   3.772   4.285
 3070SOL     OW 9239   3.142   4.651   4.396
 3070SOL    HW1 9240   3.202   4.570   4.398
 3070SOL    HW2 9241   3.182   4.720   4.336
 3071SOL     OW 9242   3.703   3.899   4.687
 3071SOL    HW1 9243   3.742   3.814   4.651
 3071SOL    HW2 9244   3.605   3.901   4.668
 3072SOL     OW 9245   2.125   4.050   4.444
 3072SOL    HW1 9246   2.046   4.101   4.410
 3072SOL    HW2 9247   2.116   4.035   4.542
 3073SOL     OW 9248   3.056   5.336   3.755
 3073SOL    HW1 9249   3.062   5.243   3.792
 3073SOL    HW2 9250   2.997   5.336   3.675
 3074SOL     OW 9251   2.684   4.726   5.096
 3074SOL    HW1 9252   2.724   4.725   5.004
 3074SOL    HW2 9253   2.694   4.818   5.136
 3075SOL     OW 9254   2.778   4.634   4.015
 3075SOL    HW1 9255   2.841   4.672   3.947
 3075SOL    HW2 9256   2.818   4.551   4.054
 3076SOL     OW 9257   2.901   4.822   4.420
 3076SOL    HW1 9258   2.831   4.775   4.474
 3076SOL    HW2 9259   2.960   4.754   4.377
 3077SOL     OW 9260   2.876   3.960   4.695
 3077SOL    HW1 9261   2.868   3.924   4.602
 3077SOL    HW2 9262   2.874   3.884   4.760
 3078SOL     OW 9263   3.571   4.109   5.105
 3078SOL    HW1 9264   3.644   4.178   5.109
 3078SOL    HW2 9265   3.599   4.034   5.046
 3079SOL     OW 9266   1.937   4.069   3.757
 3079SOL    HW1 9267   1.845   4.041   3.728
 3079SOL    HW2 9268   1.968   4.146   3.701
 3080SOL     OW 9269   1.934   3.890   4.042
 3080SOL    HW1 9270   1.917   3.973   3.988
 3080SOL    HW2 9271   2.024   3.853   4.020
 3081SOL     OW 9272   3.536   4.607   4.978
 3081SOL    HW1 9273   3.509   4.518   4.941
 3081SOL    HW2 9274   3.537   4.675   4.905
 3082SOL     OW 9275   3.087   4.049   4.173
 3082SOL    HW1 9276   3.152   3.975   4.162
 3082SOL    HW2 9277   3.107   4.099   4.257
 3083SOL     OW 9278   2.456   4.469   4.376
 3083SOL    HW1 9279   2.506   4.554   4.357
 3083SOL    HW2 9280   2.368   4.471   4.328
 3084SOL     OW 9281   3.592   4.658   5.241
 3084SOL    HW1 9282   3.630   4.749   5.256
 3084SOL    HW2 9283   3.584   4.641   5.142
 3085SOL     OW 9284   2.721   4.680   4.585
 3085SOL    HW1 9285   2.775   4.611   4.633
 3085SOL    HW2 9286   2.689   4.749   4.651
 3086SOL     OW 9287   2.945   4.708   3.811
 3086SOL    HW1 9288   2.922   4.761   3.729
 3086SOL    HW2 9289   3.026   4.652   3.792
 3087SOL     OW 9290   1.941   4.964   4.377
 3087SOL    HW1 9291   1.940   4.917   4.465
 3087SOL    HW2 9292   2.023   4.936   4.326
 3088SOL     OW 9293   3.686   3.916   4.951
 3088SOL    HW1 9294   3.682   3.826   4.995
 3088SOL    HW2 9295   3.689   3.905   4.852
 3089SOL     OW 9296   2.290   4.148   4.244
 3089SOL    HW1 9297   2.320   4.076   4.182
 3089SOL    HW2 9298   2.251   4.108   4.327
 3090SOL     OW 9299   3.286   3.938   4.836
 3090SOL    HW1 9300   3.338   3.873   4.891
 3090SOL    HW2 9301   3.237   4.001   4.897
 3091SOL     OW 9302   2.863   3.758   4.878
 3091SOL    HW1 9303   2.800   3.686   4.847
 3091SOL    HW2 9304   2.956   3.722   4.878
 3092SOL     OW 9305   2.632   5.054   4.025
 3092SOL    HW1 9306   2.586   4.967   4.042
 3092SOL    HW2 9307   2.723   5.051   4.066
 3093SOL     OW 9308   3.214   3.776   3.892
 3093SOL    HW1 9309   3.249   3.735   3.808
 3093SOL    HW2 9310   3.124   3.738   3.912
 3094SOL     OW 9311   3.162   4.177   4.415
 3094SOL    HW1 9312   3.103   4.257   4.419
 3094SOL    HW2 9313   3.177   4.142   4.508
 3095SOL     OW 9314   3.455   3.945   4.606
 3095SOL    HW1 9315   3.371   3.944   4.660
 3095SOL    HW2 9316   3.457   4.028   4.550
 3096SOL     OW 9317   1.901   4.801   4.024
 3096SOL    HW1 9318   2.000   4.790   4.015
 3096SOL    HW2 9319   1.861   4.715   4.056
 3097SOL     OW 9320   3.954   0.628   0.113
 3097SOL    HW1 9321   3.861   0.626   0.150
 3097SOL    HW2 9322   3.955   0.589   0.021
 3098SOL     OW 9323   3.949   0.275   0.996
 3098SOL    HW1 9324   3.984   0.258   1.088
 3098SOL    HW2 9325   3.861   0.230   0.984
 3099SOL     OW 9326   3.743   0.368   0.647
 3099SOL    HW1 9327   3.661   0.411   0.686
 3099SOL    HW2 9328   3.715   0.295   0.584
 3100SOL     OW 9329   4.293   1.275   1.165
 3100SOL    HW1 9330   4.200   1.268   1.128
 3100SOL    HW2 9331   4.304   1.364   1.209
 3101SOL     OW 9332   4.859   0.703   0.717
 3101SOL    HW1 9333   4.916   0.781   0.692
 3101SOL    HW2 9334   4.799   0.729   0.793
 3102SOL     OW 9335   4.492   1.144   1.023
 3102SOL    HW1 9336   4.414   1.161   1.083
 3102SOL    HW2 9337   4.526   1.231   0.987
 3103SOL     OW 9338   4.574   0.798   1.823
 3103SOL    HW1 9339   4.570   0.874   1.888
 3103SOL    HW2 9340   4.596   0.834   1.732
 3104SOL     OW 9341   4.409   1.012   0.665
 3104SOL    HW1 9342   4.478   0.996   0.735
 3104SOL    HW2 9343   4.336   1.069   0.703
 3105SOL     OW 9344   4.410   1.161   1.803
 3105SOL    HW1 9345   4.470   1.240   1.817
 3105SOL    HW2 9346   4.324   1.192   1.762
 3106SOL     OW 9347   4.059   1.435   1.061
 3106SOL    HW1 9348   3.981   1.404   1.008
 3106SOL    HW2 9349   4.117   1.493   1.004
 3107SOL     OW 9350   4.162   0.392   1.499
 3107SOL    HW1 9351   4.244   0.336   1.508
 3107SOL    HW2 9352   4.081   0.334   1.503
 3108SOL     OW 9353   3.955   1.713   0.483
 3108SOL    HW1 9354   3.989   1.790   0.537
 3108SOL    HW2 9355   3.999   1.713   0.393
 3109SOL     OW 9356   4.851   1.341   1.690
 3109SOL    HW1 9357   4.898   1.341   1.778
 3109SOL    HW2 9358   4.803   1.254   1.679
 3110SOL     OW 9359   3.954   1.434   0.538
 3110SOL    HW1 9360   3.928   1.530   0.538
 3110SOL    HW2 9361   3.883   1.380   0.583
 3111SOL     OW 9362   3.964   1.091   0.886
 3111SOL    HW1 9363   3.978   1.007   0.938
 3111SOL    HW2 9364   3.909   1.155   0.941
 3112SOL     OW 9365   4.344   1.786   1.439
 3112SOL    HW1 9366   4.252   1.769   1.474
 3112SOL    HW2 9367   4.372   1.878   1.465
 3113SOL     OW 9368   4.330   0.964   0.123
 3113SOL    HW1 9369   4.337   1.048   0.069
 3113SOL    HW2 9370   4.376   0.977   0.211
 3114SOL     OW 9371   3.846   0.643   0.563
 3114SOL    HW1 9372   3.801   0.555   0.580
 3114SOL    HW2 9373   3.845   0.697   0.647
 3115SOL     OW 9374   3.751   1.596   0.117
 3115SOL    HW1 9375   3.732   1.500   0.138
 3115SOL    HW2 9376   3.718   1.654   0.192
 3116SOL     OW 9377   3.837   0.737   1.597
 3116SOL    HW1 9378   3.925   0.724   1.642
 3116SOL    HW2 9379   3.824   0.834   1.575
 3117SOL     OW 9380   4.337   1.365   0.726
 3117SOL    HW1 9381   4.288   1.278   0.735
 3117SOL    HW2 9382   4.314   1.408   0.639
 3118SOL     OW 9383   5.017   1.228   1.423
 3118SOL    HW1 9384   5.054   1.155   1.365
 3118SOL    HW2 9385   5.069   1.233   1.508
 3119SOL     OW 9386   4.533   0.004   0.502
 3119SOL    HW1 9387   4.573   0.095   0.493
 3119SOL    HW2 9388   4.433   0.012   0.508
 3120SOL     OW 9389   3.921   0.976   1.264
 3120SOL    HW1 9390   4.010   0.931   1.250
 3120SOL    HW2 9391   3.848   0.911   1.245
 3121SOL     OW 9392   4.911   1.792   1.616
 3121SOL    HW1 9393   4.935   1.852   1.540
 3121SOL    HW2 9394   4.918   1.697   1.586
 3122SOL     OW 9395   4.041   0.251   1.801
 3122SOL    HW1 9396   4.112   0.322   1.807
 3122SOL    HW2 9397   3.953   0.290   1.829
 3123SOL     OW 9398   4.322   0.729   0.270
 3123SOL    HW1 9399   4.346   0.798   0.202
 3123SOL    HW2 9400   4.244   0.762   0.324
 3124SOL     OW 9401   5.005   0.345   0.944
 3124SOL    HW1 9402   4.919   0.295   0.931
 3124SOL    HW2 9403   5.067   0.291   1.000
 3125SOL     OW 9404   4.531   0.605   1.465
 3125SOL    HW1 9405   4.484   0.602   1.554
 3125SOL    HW2 9406   4.480   0.550   1.399
 3126SOL     OW 9407   4.697   0.890   1.572
 3126SOL    HW1 9408   4.743   0.806   1.543
 3126SOL    HW2 9409   4.641   0.924   1.497
 3127SOL     OW 9410   4.715   0.410   1.242
 3127SOL    HW1 9411   4.638   0.444   1.296
 3127SOL    HW2 9412   4.681   0.359   1.163
 3128SOL     OW 9413   4.765   0.701   0.429
 3128SOL    HW1 9414   4.791   0.697   0.525
 3128SOL    HW2 9415   4.680   0.650   0.415
 3129SOL     OW 9416   3.800   0.811   0.789
 3129SOL    HW1 9417   3.899   0.799   0.798
 3129SOL    HW2 9418   3.776   0.906   0.810
 3130SOL     OW 9419   3.854   1.821   1.571
 3130SOL    HW1 9420   3.844   1.806   1.670
 3130SOL    HW2 9421   3.768   1.857   1.535
 3131SOL     OW 9422   4.589   0.348   0.195
 3131SOL    HW1 9423   4.648   0.411   0.146
 3131SOL    HW2 9424   4.608   0.254   0.166
 3132SOL     OW 9425   4.274   0.196   0.885
 3132SOL    HW1 9426   4.269   0.191   0.985
 3132SOL    HW2 9427   4.276   0.292   0.856
 3133SOL     OW 9428   4.732   1.456   0.477
 3133SOL    HW1 9429   4.686   1.528   0.425
 3133SOL    HW2 9430   4.728   1.476   0.575
 3134SOL     OW 9431   4.075   1.801   0.853
 3134SOL    HW1 9432   4.125   1.715   0.859
 3134SOL    HW2 9433   4.140   1.878   0.850
 3135SOL     OW 9434   4.951   1.550   1.506
 3135SOL    HW1 9435   4.957   1.473   1.570
 3135SOL    HW2 9436   4.899   1.524   1.426
 3136SOL     OW 9437   4.045   0.943   0.242
 3136SOL    HW1 9438   4.127   0.982   0.200
 3136SOL    HW2 9439   4.018   0.861   0.193
 3137SOL     OW 9440   4.185   1.266   1.727
 3137SOL    HW1 9441   4.135   1.267   1.641
 3137SOL    HW2 9442   4.122   1.248   1.803
 3138SOL     OW 9443   4.835   1.776   0.237
 3138SOL    HW1 9444   4.775   1.714   0.287
 3138SOL    HW2 9445   4.866   1.732   0.152
 3139SOL     OW 9446   3.926   0.285   1.498
 3139SOL    HW1 9447   3.846   0.345   1.485
 3139SOL    HW2 9448   3.916   0.236   1.584
 3140SOL     OW 9449   4.188   1.743   0.323
 3140SOL    HW1 9450   4.221   1.782   0.409
 3140SOL    HW2 9451   4.264   1.736   0.258
 3141SOL     OW 9452   3.973   1.785   1.241
 3141SOL    HW1 9453   4.030   1.720   1.291
 3141SOL    HW2 9454   3.957   1.752   1.148
 3142SOL     OW 9455   4.664   1.698   0.904
 3142SOL    HW1 9456   4.744   1.641   0.925
 3142SOL    HW2 9457   4.615   1.658   0.827
 3143SOL     OW 9458   4.106   0.700   0.480
 3143SOL    HW1 9459   4.151   0.610   0.477
 3143SOL    HW2 9460   4.012   0.689   0.513
 3144SOL     OW 9461   4.338   0.122   0.117
 3144SOL    HW1 9462   4.436   0.100   0.124
 3144SOL    HW2 9463   4.307   0.105   0.024
 3145SOL     OW 9464   4.505   0.264   1.749
 3145SOL    HW1 9465   4.572   0.203   1.792
 3145SOL    HW2 9466   4.432   0.283   1.814
 3146SOL     OW 9467   4.612   1.514   1.195
 3146SOL    HW1 9468   4.589   1.489   1.101
 3146SOL    HW2 9469   4.673   1.445   1.234
 3147SOL     OW 9470   4.527   1.402   0.924
 3147SOL    HW1 9471   4.617   1.416   0.882
 3147SOL    HW2 9472   4.456   1.404   0.853
 3148SOL     OW 9473   4.646   0.503   0.899
 3148SOL    HW1 9474   4.621   0.494   0.803
 3148SOL    HW2 9475   4.694   0.421   0.930
 3149SOL     OW 9476   4.263   0.064   0.512
 3149SOL    HW1 9477   4.182   0.065   0.570
 3149SOL    HW2 9478   4.266   0.147   0.457
 3150SOL     OW 9479   4.021   0.035   0.171
 3150SOL    HW1 9480   4.070   0.119   0.150
 3150SOL    HW2 9481   4.083  -0.030   0.216
 3151SOL     OW 9482   4.659   0.236   0.480
 3151SOL    HW1 9483   4.611   0.277   0.402
 3151SOL    HW2 9484   4.758   0.234   0.461
 3152SOL     OW 9485   4.800   0.683   1.464
 3152SOL    HW1 9486   4.720   0.622   1.467
 3152SOL    HW2 9487   4.881   0.630   1.440
 3153SOL     OW 9488   4.951   1.570   0.793
 3153SOL    HW1 9489   4.972   1.644   0.728
 3153SOL    HW2 9490   5.019   1.570   0.866
 3154SOL     OW 9491   4.183   1.152   0.741
 3154SOL    HW1 9492   4.112   1.125   0.806
 3154SOL    HW2 9493   4.157   1.124   0.648
 3155SOL     OW 9494   4.995   1.797   0.591
 3155SOL    HW1 9495   5.039   1.861   0.527
 3155SOL    HW2 9496   4.945   1.849   0.661
 3156SOL     OW 9497   4.756   0.549   0.016
 3156SOL    HW1 9498   4.715   0.631  -0.023
 3156SOL    HW2 9499   4.820   0.575   0.089
 3157SOL     OW 9500   3.802   0.556   1.386
 3157SOL    HW1 9501   3.894   0.555   1.345
 3157SOL    HW2 9502   3.796   0.630   1.453
 3158SOL     OW 9503   4.285   0.222   1.147
 3158SOL    HW1 9504   4.323   0.138   1.184
 3158SOL    HW2 9505   4.197   0.241   1.191
 3159SOL     OW 9506   4.590   0.454   0.642
 3159SOL    HW1 9507   4.558   0.526   0.580
 3159SOL    HW2 9508   4.614   0.373   0.589
 3160SOL     OW 9509   4.741   0.039   0.753
 3160SOL    HW1 9510   4.669   0.044   0.684
 3160SOL    HW2 9511   4.717  -0.030   0.822
 3161SOL     OW 9512   4.212   1.385   0.174
 3161SOL    HW1 9513   4.125   1.370   0.221
 3161SOL    HW2 9514   4.195   1.411   0.079
 3162SOL     OW 9515   4.251   0.256   0.328
 3162SOL    HW1 9516   4.278   0.197   0.253
 3162SOL    HW2 9517   4.251   0.351   0.297
 3163SOL     OW 9518   4.788   1.347   1.340
 3163SOL    HW1 9519   4.708   1.324   1.395
 3163SOL    HW2 9520   4.871   1.321   1.389
 3164SOL     OW 9521   4.835   1.195   1.100
 3164SOL    HW1 9522   4.795   1.239   1.181
 3164SOL    HW2 9523   4.794   1.232   1.017
 3165SOL     OW 9524   4.639   0.089   1.402
 3165SOL    HW1 9525   4.664   0.069   1.307
 3165SOL    HW2 9526   4.711   0.145   1.444
 3166SOL     OW 9527   4.704   1.116   1.719
 3166SOL    HW1 9528   4.605   1.122   1.729
 3166SOL    HW2 9529   4.727   1.036   1.663
 3167SOL     OW 9530   4.429   1.050   0.368
 3167SOL    HW1 9531   4.415   1.057   0.467
 3167SOL    HW2 9532   4.513   0.999   0.350
 3168SOL     OW 9533   4.134   0.813   1.251
 3168SOL    HW1 9534   4.220   0.825   1.301
 3168SOL    HW2 9535   4.092   0.726   1.278
 3169SOL     OW 9536   4.998   0.386   1.262
 3169SOL    HW1 9537   5.019   0.460   1.326
 3169SOL    HW2 9538   4.909   0.403   1.219
 3170SOL     OW 9539   3.788   1.564   1.331
 3170SOL    HW1 9540   3.742   1.646   1.297
 3170SOL    HW2 9541   3.886   1.583   1.340
 3171SOL     OW 9542   4.091   1.100   0.501
 3171SOL    HW1 9543   4.084   1.183   0.445
 3171SOL    HW2 9544   4.095   1.020   0.441
 3172SOL     OW 9545   4.290   0.537   0.865
 3172SOL    HW1 9546   4.302   0.603   0.791
 3172SOL    HW2 9547   4.336   0.571   0.948
 3173SOL     OW 9548   4.976   1.348   0.388
 3173SOL    HW1 9549   5.026   1.425   0.428
 3173SOL    HW2 9550   4.881   1.350   0.420
 3174SOL     OW 9551   4.078   1.510   1.329
 3174SOL    HW1 9552   4.057   1.466   1.242
 3174SOL    HW2 9553   4.175   1.536   1.332
 3175SOL     OW 9554   4.126   0.751   1.598
 3175SOL    HW1 9555   4.194   0.806   1.551
 3175SOL    HW2 9556   4.166   0.663   1.625
 3176SOL     OW 9557   4.737   0.105   1.770
 3176SOL    HW1 9558   4.743   0.190   1.718
 3176SOL    HW2 9559   4.769   0.029   1.713
 3177SOL     OW 9560   4.228   0.050   1.740
 3177SOL    HW1 9561   4.186  -0.007   1.670
 3177SOL    HW2 9562   4.162   0.119   1.772
 3178SOL     OW 9563   4.297   0.870   1.029
 3178SOL    HW1 9564   4.341   0.959   1.020
 3178SOL    HW2 9565   4.234   0.870   1.106
 3179SOL     OW 9566   5.084   0.862   1.045
 3179SOL    HW1 9567   5.009   0.862   0.979
 3179SOL    HW2 9568   5.121   0.770   1.054
 3180SOL     OW 9569   4.933   0.525   0.275
 3180SOL    HW1 9570   4.946   0.441   0.329
 3180SOL    HW2 9571   4.904   0.599   0.335
 3181SOL     OW 9572   4.031   0.213   1.231
 3181SOL    HW1 9573   4.008   0.250   1.321
 3181SOL    HW2 9574   4.001   0.118   1.225
 3182SOL     OW 9575   3.761   1.310   1.282
 3182SOL    HW1 9576   3.814   1.261   1.350
 3182SOL    HW2 9577   3.783   1.408   1.287
 3183SOL     OW 9578   4.456   0.634   1.064
 3183SOL    HW1 9579   4.515   0.608   0.988
 3183SOL    HW2 9580   4.428   0.730   1.053
 3184SOL     OW 9581   4.031   0.063   0.618
 3184SOL    HW1 9582   4.020   0.157   0.651
 3184SOL    HW2 9583   4.026   0.000   0.695
 3185SOL     OW 9584   5.346   0.367   0.374
 3185SOL    HW1 9585   5.348   0.291   0.438
 3185SOL    HW2 9586   5.298   0.444   0.414
 3186SOL     OW 9587   4.747   0.766   0.966
 3186SOL    HW1 9588   4.762   0.787   1.062
 3186SOL    HW2 9589   4.717   0.671   0.957
 3187SOL     OW 9590   4.704   1.573   1.700
 3187SOL    HW1 9591   4.684   1.617   1.612
 3187SOL    HW2 9592   4.743   1.482   1.684
 3188SOL     OW 9593   4.074   0.898   1.804
 3188SOL    HW1 9594   4.150   0.942   1.852
 3188SOL    HW2 9595   4.109   0.851   1.722
 3189SOL     OW 9596   5.027   0.838   0.042
 3189SOL    HW1 9597   5.061   0.745   0.057
 3189SOL    HW2 9598   5.045   0.865  -0.053
 3190SOL     OW 9599   4.792   1.333   0.849
 3190SOL    HW1 9600   4.799   1.249   0.794
 3190SOL    HW2 9601   4.854   1.402   0.813
 3191SOL     OW 9602   4.043   0.810   0.949
 3191SOL    HW1 9603   4.136   0.846   0.954
 3191SOL    HW2 9604   4.037   0.725   1.001
 3192SOL     OW 9605   4.063   0.509   1.006
 3192SOL    HW1 9606   4.011   0.426   0.989
 3192SOL    HW2 9607   4.140   0.514   0.942
 3193SOL     OW 9608   4.862   0.380   1.678
 3193SOL    HW1 9609   4.817   0.443   1.742
 3193SOL    HW2 9610   4.955   0.411   1.661
 3194SOL     OW 9611   4.884   0.207   1.477
 3194SOL    HW1 9612   4.884   0.271   1.554
 3194SOL    HW2 9613   4.912   0.255   1.394
 3195SOL     OW 9614   3.812   1.801   0.927
 3195SOL    HW1 9615   3.770   1.715   0.900
 3195SOL    HW2 9616   3.906   1.804   0.893
 3196SOL     OW 9617   4.228   1.568   0.910
 3196SOL    HW1 9618   4.294   1.642   0.919
 3196SOL    HW2 9619   4.272   1.489   0.868
 3197SOL     OW 9620   4.726   0.796   1.238
 3197SOL    HW1 9621   4.767   0.764   1.324
 3197SOL    HW2 9622   4.630   0.769   1.235
 3198SOL     OW 9623   3.764   0.544   1.114
 3198SOL    HW1 9624   3.849   0.511   1.073
 3198SOL    HW2 9625   3.777   0.559   1.212
 3199SOL     OW 9626   3.913   0.520   1.722
 3199SOL    HW1 9627   3.972   0.480   1.652
 3199SOL    HW2 9628   3.855   0.591   1.681
 3200SOL     OW 9629   4.539   0.572   0.325
 3200SOL    HW1 9630   4.546   0.483   0.279
 3200SOL    HW2 9631   4.445   0.606   0.317
 3201SOL     OW 9632   3.976   1.564   1.744
 3201SOL    HW1 9633   3.946   1.621   1.820
 3201SOL    HW2 9634   3.969   1.467   1.770
 3202SOL     OW 9635   4.395   0.464   1.269
 3202SOL    HW1 9636   4.361   0.375   1.239
 3202SOL    HW2 9637   4.421   0.518   1.189
 3203SOL     OW 9638   4.654   1.678   1.465
 3203SOL    HW1 9639   4.630   1.660   1.370
 3203SOL    HW2 9640   4.684   1.772   1.475
 3204SOL     OW 9641   4.197   0.500   0.191
 3204SOL    HW1 9642   4.258   0.580   0.195
 3204SOL    HW2 9643   4.102   0.531   0.198
 3205SOL     OW 9644   3.883   1.137   1.466
 3205SOL    HW1 9645   3.905   1.076   1.542
 3205SOL    HW2 9646   3.893   1.088   1.380
 3206SOL     OW 9647   5.071   1.059   1.234
 3206SOL    HW1 9648   5.095   0.996   1.160
 3206SOL    HW2 9649   4.981   1.099   1.216
 3207SOL     OW 9650   4.976   1.731   1.128
 3207SOL    HW1 9651   5.060   1.736   1.074
 3207SOL    HW2 9652   4.953   1.635   1.146
 3208SOL     OW 9653   3.807   1.258   1.022
 3208SOL    HW1 9654   3.802   1.257   1.122
 3208SOL    HW2 9655   3.724   1.217   0.984
 3209SOL     OW 9656   4.412   1.662   1.716
 3209SOL    HW1 9657   4.356   1.743   1.725
 3209SOL    HW2 9658   4.464   1.666   1.630
 3210SOL     OW 9659   4.627   0.086   0.133
 3210SOL    HW1 9660   4.678   0.087   0.047
 3210SOL    HW2 9661   4.683   0.044   0.204
 3211SOL     OW 9662   5.112   1.573   0.477
 3211SOL    HW1 9663   5.179   1.585   0.403
 3211SOL    HW2 9664   5.072   1.662   0.500
 3212SOL     OW 9665   3.854   1.794   1.851
 3212SOL    HW1 9666   3.813   1.720   1.904
 3212SOL    HW2 9667   3.918   1.845   1.909
 3213SOL     OW 9668   4.554   1.273   1.422
 3213SOL    HW1 9669   4.549   1.306   1.517
 3213SOL    HW2 9670   4.468   1.292   1.376
 3214SOL     OW 9671   4.396   1.616   0.154
 3214SOL    HW1 9672   4.405   1.626   0.055
 3214SOL    HW2 9673   4.356   1.527   0.175
 3215SOL     OW 9674   3.987   0.326   0.720
 3215SOL    HW1 9675   3.908   0.377   0.686
 3215SOL    HW2 9676   3.978   0.311   0.818
 3216SOL     OW 9677   4.918   1.612   0.031
 3216SOL    HW1 9678   4.924   1.519   0.068
 3216SOL    HW2 9679   4.859   1.612  -0.049
 3217SOL     OW 9680   4.546   1.002   1.372
 3217SOL    HW1 9681   4.586   1.001   1.280
 3217SOL    HW2 9682   4.556   1.094   1.412
 3218SOL     OW 9683   4.640   0.910   0.291
 3218SOL    HW1 9684   4.703   0.948   0.223
 3218SOL    HW2 9685   4.680   0.827   0.330
 3219SOL     OW 9686   4.096   1.288   1.490
 3219SOL    HW1 9687   4.083   1.381   1.456
 3219SOL    HW2 9688   4.012   1.236   1.477
 3220SOL     OW 9689   4.763   1.098   0.696
 3220SOL    HW1 9690   4.693   1.051   0.750
 3220SOL    HW2 9691   4.822   1.030   0.653
 3221SOL     OW 9692   4.738   0.236   0.971
 3221SOL    HW1 9693   4.730   0.200   0.878
 3221SOL    HW2 9694   4.736   0.160   1.036
 3222SOL     OW 9695   4.314   1.487   0.491
 3222SOL    HW1 9696   4.356   1.429   0.421
 3222SOL    HW2 9697   4.270   1.566   0.447
 3223SOL     OW 9698   3.979   1.348   0.290
 3223SOL    HW1 9699   3.883   1.349   0.263
 3223SOL    HW2 9700   3.991   1.401   0.374
 3224SOL     OW 9701   3.829   1.013   1.726
 3224SOL    HW1 9702   3.752   0.980   1.780
 3224SOL    HW2 9703   3.914   0.983   1.768
 3225SOL     OW 9704   4.396   0.203   1.489
 3225SOL    HW1 9705   4.486   0.187   1.449
 3225SOL    HW2 9706   4.404   0.208   1.588
 3226SOL     OW 9707   3.796   0.166   0.318
 3226SOL    HW1 9708   3.779   0.249   0.264
 3226SOL    HW2 9709   3.886   0.129   0.296
 3227SOL     OW 9710   4.337   0.842   1.431
 3227SOL    HW1 9711   4.393   0.923   1.414
 3227SOL    HW2 9712   4.396   0.762   1.434
 3228SOL     OW 9713   4.440   0.565   1.708
 3228SOL    HW1 9714   4.459   0.630   1.782
 3228SOL    HW2 9715   4.500   0.485   1.717
 3229SOL     OW 9716   4.114   1.741   1.560
 3229SOL    HW1 9717   4.023   1.782   1.558
 3229SOL    HW2 9718   4.107   1.647   1.592
 3230SOL     OW 9719   4.318   0.745   0.652
 3230SOL    HW1 9720   4.368   0.830   0.633
 3230SOL    HW2 9721   4.230   0.747   0.604
 3231SOL     OW 9722   4.583   1.374   0.016
 3231SOL    HW1 9723   4.537   1.389   0.104
 3231SOL    HW2 9724   4.627   1.459  -0.014
 3232SOL     OW 9725   4.385   1.790   0.953
 3232SOL    HW1 9726   4.339   1.878   0.940
 3232SOL    HW2 9727   4.484   1.802   0.946
 3233SOL     OW 9728   4.583   0.956   0.861
 3233SOL    HW1 9729   4.637   0.887   0.909
 3233SOL    HW2 9730   4.551   1.025   0.927
 3234SOL     OW 9731   4.807   0.984   0.087
 3234SOL    HW1 9732   4.784   1.037   0.005
 3234SOL    HW2 9733   4.888   0.928   0.068
 3235SOL     OW 9734   3.945   1.314   1.844
 3235SOL    HW1 9735   3.880   1.241   1.823
 3235SOL    HW2 9736   3.949   1.328   1.942
 3236SOL     OW 9737   3.803   1.240   0.653
 3236SOL    HW1 9738   3.802   1.193   0.741
 3236SOL    HW2 9739   3.885   1.212   0.602
 3237SOL     OW 9740   4.396   1.391   1.624
 3237SOL    HW1 9741   4.318   1.341   1.662
 3237SOL    HW2 9742   4.393   1.486   1.655
 3238SOL     OW 9743   4.152   0.424   0.520
 3238SOL    HW1 9744   4.182   0.352   0.458
 3238SOL    HW2 9745   4.113   0.384   0.603
 3239SOL     OW 9746   4.041   0.547   1.280
 3239SOL    HW1 9747   4.079   0.488   1.352
 3239SOL    HW2 9748   4.081   0.521   1.192
 3240SOL     OW 9749   4.536   1.586   0.687
 3240SOL    HW1 9750   4.568   1.596   0.593
 3240SOL    HW2 9751   4.457   1.524   0.689
 3241SOL     OW 9752   4.725   0.034   1.154
 3241SOL    HW1 9753   4.662  -0.038   1.123
 3241SOL    HW2 9754   4.818  -0.002   1.154
 3242SOL     OW 9755   4.494   1.330   0.301
 3242SOL    HW1 9756   4.448   1.243   0.318
 3242SOL    HW2 9757   4.585   1.327   0.342
 3243SOL     OW 9758   4.342   1.567   1.284
 3243SOL    HW1 9759   4.337   1.649   1.341
 3243SOL    HW2 9760   4.431   1.564   1.239
 3244SOL     OW 9761   3.763   1.077   0.300
 3244SOL    HW1 9762   3.862   1.066   0.291
 3244SOL    HW2 9763   3.723   0.991   0.332
 3245SOL     OW 9764   4.599   1.646   0.337
 3245SOL    HW1 9765   4.522   1.611   0.283
 3245SOL    HW2 9766   4.567   1.717   0.399
 3246SOL     OW 9767   3.954   0.628   1.975
 3246SOL    HW1 9768   3.861   0.626   2.012
 3246SOL    HW2 9769   3.955   0.589   1.883
 3247SOL     OW 9770   3.949   0.275   2.858
 3247SOL    HW1 9771   3.984   0.258   2.950
 3247SOL    HW2 9772   3.861   0.230   2.846
 3248SOL     OW 9773   3.743   0.368   2.509
 3248SOL    HW1 9774   3.661   0.411   2.548
 3248SOL    HW2 9775   3.715   0.295   2.446
 3249SOL     OW 9776   4.293   1.275   3.027
 3249SOL    HW1 9777   4.200   1.268   2.990
 3249SOL    HW2 9778   4.304   1.364   3.071
 3250SOL     OW 9779   4.859   0.703   2.579
 3250SOL    HW1 9780   4.916   0.781   2.554
 3250SOL    HW2 9781   4.799   0.729   2.655
 3251SOL     OW 9782   4.492   1.144   2.885
 3251SOL    HW1 9783   4.414   1.161   2.945
 3251SOL    HW2 9784   4.526   1.231   2.849
 3252SOL     OW 9785   4.574   0.798   3.685
 3252SOL    HW1 9786   4.570   0.874   3.750
 3252SOL    HW2 9787   4.596   0.834   3.594
 3253SOL     OW 9788   4.409   1.012   2.527
 3253SOL    HW1 9789   4.478   0.996   2.597
 3253SOL    HW2 9790   4.336   1.069   2.565
 3254SOL     OW 9791   4.410   1.161   3.665
 3254SOL    HW1 9792   4.470   1.240   3.679
 3254SOL    HW2 9793   4.324   1.192   3.624
 3255SOL     OW 9794   4.059   1.435   2.923
 3255SOL    HW1 9795   3.981   1.404   2.870
 3255SOL    HW2 9796   4.117   1.493   2.866
 3256SOL     OW 9797   4.162   0.392   3.361
 3256SOL    HW1 9798   4.244   0.336   3.370
 3256SOL    HW2 9799   4.081   0.334   3.365
 3257SOL     OW 9800   3.955   1.713   2.345
 3257SOL    HW1 9801   3.989   1.790   2.399
 3257SOL    HW2 9802   3.999   1.713   2.255
 3258SOL     OW 9803   4.851   1.341   3.552
 3258SOL    HW1 9804   4.898   1.341   3.640
 3258SOL    HW2 9805   4.803   1.254   3.541
 3259SOL     OW 9806   3.954   1.434   2.400
 3259SOL    HW1 9807   3.928   1.530   2.400
 3259SOL    HW2 9808   3.883   1.380   2.445
 3260SOL     OW 9809   3.964   1.091   2.748
 3260SOL    HW1 9810   3.978   1.007   2.800
 3260SOL    HW2 9811   3.909   1.155   2.803
 3261SOL     OW 9812   4.344   1.786   3.301
 3261SOL    HW1 9813   4.252   1.769   3.336
 3261SOL    HW2 9814   4.372   1.878   3.327
 3262SOL     OW 9815   4.330   0.964   1.985
 3262SOL    HW1 9816   4.337   1.048   1.931
 3262SOL    HW2 9817   4.376   0.977   2.073
 3263SOL     OW 9818   3.846   0.643   2.425
 3263SOL    HW1 9819   3.801   0.555   2.442
 3263SOL    HW2 9820   3.845   0.697   2.509
 3264SOL     OW 9821   3.751   1.596   1.979
 3264SOL    HW1 9822   3.732   1.500   2.000
 3264SOL    HW2 9823   3.718   1.654   2.054
 3265SOL     OW 9824   3.837   0.737   3.459
 3265SOL    HW1 9825   3.925   0.724   3.504
 3265SOL    HW2 9826   3.824   0.834   3.437
 3266SOL     OW 9827   4.337   1.365   2.588
 3266SOL    HW1 9828   4.288   1.278   2.597
 3266SOL    HW2 9829   4.314   1.408   2.501
 3267SOL     OW 9830   5.017   1.228   3.285
 3267SOL    HW1 9831   5.054   1.155   3.227
 3267SOL    HW2 9832   5.069   1.233   3.370
 3268SOL     OW 9833   4.533   0.004   2.364
 3268SOL    HW1 9834   4.573   0.095   2.355
 3268SOL    HW2 9835   4.433   0.012   2.370
 3269SOL     OW 9836   3.921   0.976   3.126
 3269SOL    HW1 9837   4.010   0.931   3.112
 3269SOL    HW2 9838   3.848   0.911   3.107
 3270SOL     OW 9839   4.911   1.792   3.478
 3270SOL    HW1 9840   4.935   1.852   3.402
 3270SOL    HW2 9841   4.918   1.697   3.448
 3271SOL     OW 9842   4.041   0.251   3.663
 3271SOL    HW1 9843   4.112   0.322   3.669
 3271SOL    HW2 9844   3.953   0.290   3.691
 3272SOL     OW 9845   4.322   0.729   2.132
 3272SOL    HW1 9846   4.346   0.798   2.064
 3272SOL    HW2 9847   4.244   0.762   2.186
 3273SOL     OW 9848   5.005   0.345   2.806
 3273SOL    HW1 9849   4.919   0.295   2.793
 3273SOL    HW2 9850   5.067   0.291   2.862
 3274SOL     OW 9851   4.531   0.605   3.327
 3274SOL    HW1 9852   4.484   0.602   3.416
 3274SOL    HW2 9853   4.480   0.550   3.261
 3275SOL     OW 9854   4.697   0.890   3.434
 3275SOL    HW1 9855   4.743   0.806   3.405
 3275SOL    HW2 9856   4.641   0.924   3.359
 3276SOL     OW 9857   4.715   0.410   3.104
 3276SOL    HW1 9858   4.638   0.444   3.158
 3276SOL    HW2 9859   4.681   0.359   3.025
 3277SOL     OW 9860   4.765   0.701   2.291
 3277SOL    HW1 9861   4.791   0.697   2.387
 3277SOL    HW2 9862   4.680   0.650   2.277
 3278SOL     OW 9863   3.800   0.811   2.651
 3278SOL    HW1 9864   3.899   0.799   2.660
 3278SOL    HW2 9865   3.776   0.906   2.672
 3279SOL     OW 9866   3.854   1.821   3.433
 3279SOL    HW1 9867   3.844   1.806   3.532
 3279SOL    HW2 9868   3.768   1.857   3.397
 3280SOL     OW 9869   4.589   0.348   2.057
 3280SOL    HW1 9870   4.648   0.411   2.008
 3280SOL    HW2 9871   4.608   0.254   2.028
 3281SOL     OW 9872   4.274   0.196   2.747
 3281SOL    HW1 9873   4.269   0.191   2.847
 3281SOL    HW2 9874   4.276   0.292   2.718
 3282SOL     OW 9875   4.732   1.456   2.339
 3282SOL    HW1 9876   4.686   1.528   2.287
 3282SOL    HW2 9877   4.728   1.476   2.437
 3283SOL     OW 9878   4.075   1.801   2.715
 3283SOL    HW1 9879   4.125   1.715   2.721
 3283SOL    HW2 9880   4.140   1.878   2.712
 3284SOL     OW 9881   4.951   1.550   3.368
 3284SOL    HW1 9882   4.957   1.473   3.432
 3284SOL    HW2 9883   4.899   1.524   3.288
 3285SOL     OW 9884   4.045   0.943   2.104
 3285SOL    HW1 9885   4.127   0.982   2.062
 3285SOL    HW2 9886   4.018   0.861   2.055
 3286SOL     OW 9887   4.185   1.266   3.589
 3286SOL    HW1 9888   4.135   1.267   3.503
 3286SOL    HW2 9889   4.122   1.248   3.665
 3287SOL     OW 9890   4.835   1.776   2.099
 3287SOL    HW1 9891   4.775   1.714   2.149
 3287SOL    HW2 9892   4.866   1.732   2.014
 3288SOL     OW 9893   3.926   0.285   3.360
 3288SOL    HW1 9894   3.846   0.345   3.347
 3288SOL    HW2 9895   3.916   0.236   3.446
 3289SOL     OW 9896   4.188   1.743   2.185
 3289SOL    HW1 9897   4.221   1.782   2.271
 3289SOL    HW2 9898   4.264   1.736   2.120
 3290SOL     OW 9899   3.973   1.785   3.103
 3290SOL    HW1 9900   4.030   1.720   3.153
 3290SOL    HW2 9901   3.957   1.752   3.010
 3291SOL     OW 9902   4.664   1.698   2.766
 3291SOL    HW1 9903   4.744   1.641   2.787
 3291SOL    HW2 9904   4.615   1.658   2.689
 3292SOL     OW 9905   4.106   0.700   2.342
 3292SOL    HW1 9906   4.151   0.610   2.339
 3292SOL    HW2 9907   4.012   0.689   2.375
 3293SOL     OW 9908   4.338   0.122   1.979
 3293SOL    HW1 9909   4.436   0.100   1.986
 3293SOL    HW2 9910   4.307   0.105   1.886
 3294SOL     OW 9911   4.505   0.264   3.611
 3294SOL    HW1 9912   4.572   0.203   3.654
 3294SOL    HW2 9913   4.432   0.283   3.676
 3295SOL     OW 9914   4.612   1.514   3.057
 3295SOL    HW1 9915   4.589   1.489   2.963
 3295SOL    HW2 9916   4.673   1.445   3.096
 3296SOL     OW 9917   4.527   1.402   2.786
 3296SOL    HW1 9918   4.617   1.416   2.744
 3296SOL    HW2 9919   4.456   1.404   2.715
 3297SOL     OW 9920   4.646   0.503   2.761
 3297SOL    HW1 9921   4.621   0.494   2.665
 3297SOL    HW2 9922   4.694   0.421   2.792
 3298SOL     OW 9923   4.263   0.064   2.374
 3298SOL    HW1 9924   4.182   0.065   2.432
 3298SOL    HW2 9925   4.266   0.147   2.319
 3299SOL     OW 9926   4.021   0.035   2.033
 3299SOL    HW1 9927   4.070   0.119   2.012
 3299SOL    HW2 9928   4.083  -0.030   2.078
 3300SOL     OW 9929   4.659   0.236   2.342
 3300SOL    HW1 9930   4.611   0.277   2.264
 3300SOL    HW2 9931   4.758   0.234   2.323
 3301SOL     OW 9932   4.800   0.683   3.326
 3301SOL    HW1 9933   4.720   0.622   3.329
 3301SOL    HW2 9934   4.881   0.630   3.302
 3302SOL     OW 9935   4.951   1.570   2.655
 3302SOL    HW1 9936   4.972   1.644   2.590
 3302SOL    HW2 9937   5.019   1.570   2.728
 3303SOL     OW 9938   4.183   1.152   2.603
 3303SOL    HW1 9939   4.112   1.125   2.668
 3303SOL    HW2 9940   4.157   1.124   2.510
 3304SOL     OW 9941   4.995   1.797   2.453
 3304SOL    HW1 9942   5.039   1.861   2.389
 3304SOL    HW2 9943   4.945   1.849   2.523
 3305SOL     OW 9944   4.756   0.549   1.878
 3305SOL    HW1 9945   4.715   0.631   1.839
 3305SOL    HW2 9946   4.820   0.575   1.951
 3306SOL     OW 9947   3.802   0.556   3.248
 3306SOL    HW1 9948   3.894   0.555   3.207
 3306SOL    HW2 9949   3.796   0.630   3.315
 3307SOL     OW 9950   4.285   0.222   3.009
 3307SOL    HW1 9951   4.323   0.138   3.046
 3307SOL    HW2 9952   4.197   0.241   3.053
 3308SOL     OW 9953   4.590   0.454   2.504
 3308SOL    HW1 9954   4.558   0.526   2.442
 3308SOL    HW2 9955   4.614   0.373   2.451
 3309SOL     OW 9956   4.741   0.039   2.615
 3309SOL    HW1 9957   4.669   0.044   2.546
 3309SOL    HW2 9958   4.717  -0.030   2.684
 3310SOL     OW 9959   4.212   1.385   2.036
 3310SOL    HW1 9960   4.125   1.370   2.083
 3310SOL    HW2 9961   4.195   1.411   1.941
 3311SOL     OW 9962   4.251   0.256   2.190
 3311SOL    HW1 9963   4.278   0.197   2.115
 3311SOL    HW2 9964   4.251   0.351   2.159
 3312SOL     OW 9965   4.788   1.347   3.202
 3312SOL    HW1 9966   4.708   1.324   3.257
 3312SOL    HW2 9967   4.871   1.321   3.251
 3313SOL     OW 9968   4.835   1.195   2.962
 3313SOL    HW1 9969   4.795   1.239   3.043
 3313SOL    HW2 9970   4.794   1.232   2.879
 3314SOL     OW 9971   4.639   0.089   3.264
 3314SOL    HW1 9972   4.664   0.069   3.169
 3314SOL    HW2 9973   4.711   0.145   3.306
 3315SOL     OW 9974   4.704   1.116   3.581
 3315SOL    HW1 9975   4.605   1.122   3.591
 3315SOL    HW2 9976   4.727   1.036   3.525
 3316SOL     OW 9977   4.429   1.050   2.230
 3316SOL    HW1 9978   4.415   1.057   2.329
 3316SOL    HW2 9979   4.513   0.999   2.212
 3317SOL     OW 9980   4.134   0.813   3.113
 3317SOL    HW1 9981   4.220   0.825   3.163
 3317SOL    HW2 9982   4.092   0.726   3.140
 3318SOL     OW 9983   4.998   0.386   3.124
 3318SOL    HW1 9984   5.019   0.460   3.188
 3318SOL    HW2 9985   4.909   0.403   3.081
 3319SOL     OW 9986   3.788   1.564   3.193
 3319SOL    HW1 9987   3.742   1.646   3.159
 3319SOL    HW2 9988   3.886   1.583   3.202
 3320SOL     OW 9989   4.091   1.100   2.363
 3320SOL    HW1 9990   4.084   1.183   2.307
 3320SOL    HW2 9991   4.095   1.020   2.303
 3321SOL     OW 9992   4.290   0.537   2.727
 3321SOL    HW1 9993   4.302   0.603   2.653
 3321SOL    HW2 9994   4.336   0.571   2.810
 3322SOL     OW 9995   4.976   1.348   2.250
 3322SOL    HW1 9996   5.026   1.425   2.290
 3322SOL    HW2 9997   4.881   1.350   2.282
 3323SOL     OW 9998   4.078   1.510   3.191
 3323SOL    HW1 9999   4.057   1.466   3.104
 3323SOL    HW210000   4.175   1.536   3.194
 3324SOL     OW10001   4.126   0.751   3.460
 3324SOL    HW110002   4.194   0.806   3.413
 3324SOL    HW210003   4.166   0.663   3.487
 3325SOL     OW10004   4.737   0.105   3.632
 3325SOL    HW110005   4.743   0.190   3.580
 3325SOL    HW210006   4.769   0.029   3.575
 3326SOL     OW10007   4.228   0.050   3.602
 3326SOL    HW110008   4.186  -0.007   3.532
 3326SOL    HW210009   4.162   0.119   3.634
 3327SOL     OW10010   4.297   0.870   2.891
 3327SOL    HW110011   4.341   0.959   2.882
 3327SOL    HW210012   4.234   0.870   2.968
 3328SOL     OW10013   5.084   0.862   2.907
 3328SOL    HW110014   5.009   0.862   2.841
 3328SOL    HW210015   5.121   0.770   2.916
 3329SOL     OW10016   4.933   0.525   2.137
 3329SOL    HW110017   4.946   0.441   2.191
 3329SOL    HW210018   4.904   0.599   2.197
 3330SOL     OW10019   4.031   0.213   3.093
 3330SOL    HW110020   4.008   0.250   3.183
 3330SOL    HW210021   4.001   0.118   3.087
 3331SOL     OW10022   3.761   1.310   3.144
 3331SOL    HW110023   3.814   1.261   3.212
 3331SOL    HW210024   3.783   1.408   3.149
 3332SOL     OW10025   4.456   0.634   2.926
 3332SOL    HW110026   4.515   0.608   2.850
 3332SOL    HW210027   4.428   0.730   2.915
 3333SOL     OW10028   4.031   0.063   2.480
 3333SOL    HW110029   4.020   0.157   2.513
 3333SOL    HW210030   4.026   0.000   2.557
 3334SOL     OW10031   5.346   0.367   2.236
 3334SOL    HW110032   5.348   0.291   2.300
 3334SOL    HW210033   5.298   0.444   2.276
 3335SOL     OW10034   4.747   0.766   2.828
 3335SOL    HW110035   4.762   0.787   2.924
 3335SOL    HW210036   4.717   0.671   2.819
 3336SOL     OW10037   4.704   1.573   3.562
 3336SOL    HW110038   4.684   1.617   3.474
 3336SOL    HW210039   4.743   1.482   3.546
 3337SOL     OW10040   4.074   0.898   3.666
 3337SOL    HW110041   4.150   0.942   3.714
 3337SOL    HW210042   4.109   0.851   3.584
 3338SOL     OW10043   4.792   1.333   2.711
 3338SOL    HW110044   4.799   1.249   2.656
 3338SOL    HW210045   4.854   1.402   2.675
 3339SOL     OW10046   4.043   0.810   2.811
 3339SOL    HW110047   4.136   0.846   2.816
 3339SOL    HW210048   4.037   0.725   2.863
 3340SOL     OW10049   4.063   0.509   2.868
 3340SOL    HW110050   4.011   0.426   2.851
 3340SOL    HW210051   4.140   0.514   2.804
 3341SOL     OW10052   4.862   0.380   3.540
 3341SOL    HW110053   4.817   0.443   3.604
 3341SOL    HW210054   4.955   0.411   3.523
 3342SOL     OW10055   4.884   0.207   3.339
 3342SOL    HW110056   4.884   0.271   3.416
 3342SOL    HW210057   4.912   0.255   3.256
 3343SOL     OW10058   3.732   1.326   2.062
 3343SOL    HW110059   3.639   1.347   2.031
 3343SOL    HW210060   3.742   1.227   2.075
 3344SOL     OW10061   3.812   1.801   2.789
 3344SOL    HW110062   3.770   1.715   2.762
 3344SOL    HW210063   3.906   1.804   2.755
 3345SOL     OW10064   4.228   1.568   2.772
 3345SOL    HW110065   4.294   1.642   2.781
 3345SOL    HW210066   4.272   1.489   2.730
 3346SOL     OW10067   4.726   0.796   3.100
 3346SOL    HW110068   4.767   0.764   3.186
 3346SOL    HW210069   4.630   0.769   3.097
 3347SOL     OW10070   3.764   0.544   2.976
 3347SOL    HW110071   3.849   0.511   2.935
 3347SOL    HW210072   3.777   0.559   3.074
 3348SOL     OW10073   3.913   0.520   3.584
 3348SOL    HW110074   3.972   0.480   3.514
 3348SOL    HW210075   3.855   0.591   3.543
 3349SOL     OW10076   4.539   0.572   2.187
 3349SOL    HW110077   4.546   0.483   2.141
 3349SOL    HW210078   4.445   0.606   2.179
 3350SOL     OW10079   3.976   1.564   3.606
 3350SOL    HW110080   3.946   1.621   3.682
 3350SOL    HW210081   3.969   1.467   3.632
 3351SOL     OW10082   4.395   0.464   3.131
 3351SOL    HW110083   4.361   0.375   3.101
 3351SOL    HW210084   4.421   0.518   3.051
 3352SOL     OW10085   4.654   1.678   3.327
 3352SOL    HW110086   4.630   1.660   3.232
 3352SOL    HW210087   4.684   1.772   3.337
 3353SOL     OW10088   4.197   0.500   2.053
 3353SOL    HW110089   4.258   0.580   2.057
 3353SOL    HW210090   4.102   0.531   2.060
 3354SOL     OW10091   3.883   1.137   3.328
 3354SOL    HW110092   3.905   1.076   3.404
 3354SOL    HW210093   3.893   1.088   3.242
 3355SOL     OW10094   5.071   1.059   3.096
 3355SOL    HW110095   5.095   0.996   3.022
 3355SOL    HW210096   4.981   1.099   3.078
 3356SOL     OW10097   4.976   1.731   2.990
 3356SOL    HW110098   5.060   1.736   2.936
 3356SOL    HW210099   4.953   1.635   3.008
 3357SOL     OW10100   3.807   1.258   2.884
 3357SOL    HW110101   3.802   1.257   2.984
 3357SOL    HW210102   3.724   1.217   2.846
 3358SOL     OW10103   4.412   1.662   3.578
 3358SOL    HW110104   4.356   1.743   3.587
 3358SOL    HW210105   4.464   1.666   3.492
 3359SOL     OW10106   5.112   1.573   2.339
 3359SOL    HW110107   5.179   1.585   2.265
 3359SOL    HW210108   5.072   1.662   2.362
 3360SOL     OW10109   3.854   1.794   3.713
 3360SOL    HW110110   3.813   1.720   3.766
 3360SOL    HW210111   3.918   1.845   3.771
 3361SOL     OW10112   4.554   1.273   3.284
 3361SOL    HW110113   4.549   1.306   3.379
 3361SOL    HW210114   4.468   1.292   3.238
 3362SOL     OW10115   4.396   1.616   2.016
 3362SOL    HW110116   4.405   1.626   1.917
 3362SOL    HW210117   4.356   1.527   2.037
 3363SOL     OW10118   3.987   0.326   2.582
 3363SOL    HW110119   3.908   0.377   2.548
 3363SOL    HW210120   3.978   0.311   2.680
 3364SOL     OW10121   4.918   1.612   1.893
 3364SOL    HW110122   4.924   1.519   1.930
 3364SOL    HW210123   4.859   1.612   1.813
 3365SOL     OW10124   4.546   1.002   3.234
 3365SOL    HW110125   4.586   1.001   3.142
 3365SOL    HW210126   4.556   1.094   3.274
 3366SOL     OW10127   4.640   0.910   2.153
 3366SOL    HW110128   4.703   0.948   2.085
 3366SOL    HW210129   4.680   0.827   2.192
 3367SOL     OW10130   4.096   1.288   3.352
 3367SOL    HW110131   4.083   1.381   3.318
 3367SOL    HW210132   4.012   1.236   3.339
 3368SOL     OW10133   4.763   1.098   2.558
 3368SOL    HW110134   4.693   1.051   2.612
 3368SOL    HW210135   4.822   1.030   2.515
 3369SOL     OW10136   4.738   0.236   2.833
 3369SOL    HW110137   4.730   0.200   2.740
 3369SOL    HW210138   4.736   0.160   2.898
 3370SOL     OW10139   4.314   1.487   2.353
 3370SOL    HW110140   4.356   1.429   2.283
 3370SOL    HW210141   4.270   1.566   2.309
 3371SOL     OW10142   3.979   1.348   2.152
 3371SOL    HW110143   3.883   1.349   2.125
 3371SOL    HW210144   3.991   1.401   2.236
 3372SOL     OW10145   3.829   1.013   3.588
 3372SOL    HW110146   3.752   0.980   3.642
 3372SOL    HW210147   3.914   0.983   3.630
 3373SOL     OW10148   4.396   0.203   3.351
 3373SOL    HW110149   4.486   0.187   3.311
 3373SOL    HW210150   4.404   0.208   3.450
 3374SOL     OW10151   3.799   0.345   1.895
 3374SOL    HW110152   3.707   0.317   1.866
 3374SOL    HW210153   3.830   0.422   1.839
 3375SOL     OW10154   3.796   0.166   2.180
 3375SOL    HW110155   3.779   0.249   2.126
 3375SOL    HW210156   3.886   0.129   2.158
 3376SOL     OW10157   4.337   0.842   3.293
 3376SOL    HW110158   4.393   0.923   3.276
 3376SOL    HW210159   4.396   0.762   3.296
 3377SOL     OW10160   4.440   0.565   3.570
 3377SOL    HW110161   4.459   0.630   3.644
 3377SOL    HW210162   4.500   0.485   3.579
 3378SOL     OW10163   4.114   1.741   3.422
 3378SOL    HW110164   4.023   1.782   3.420
 3378SOL    HW210165   4.107   1.647   3.454
 3379SOL     OW10166   4.318   0.745   2.514
 3379SOL    HW110167   4.368   0.830   2.495
 3379SOL    HW210168   4.230   0.747   2.466
 3380SOL     OW10169   4.583   1.374   1.878
 3380SOL    HW110170   4.537   1.389   1.966
 3380SOL    HW210171   4.627   1.459   1.848
 3381SOL     OW10172   4.385   1.790   2.815
 3381SOL    HW110173   4.339   1.878   2.802
 3381SOL    HW210174   4.484   1.802   2.808
 3382SOL     OW10175   4.583   0.956   2.723
 3382SOL    HW110176   4.637   0.887   2.771
 3382SOL    HW210177   4.551   1.025   2.789
 3383SOL     OW10178   4.807   0.984   1.949
 3383SOL    HW110179   4.784   1.037   1.867
 3383SOL    HW210180   4.888   0.928   1.930
 3384SOL     OW10181   3.945   1.314   3.706
 3384SOL    HW110182   3.880   1.241   3.685
 3384SOL    HW210183   3.949   1.328   3.804
 3385SOL     OW10184   3.803   1.240   2.515
 3385SOL    HW110185   3.802   1.193   2.603
 3385SOL    HW210186   3.885   1.212   2.464
 3386SOL     OW10187   4.396   1.391   3.486
 3386SOL    HW110188   4.318   1.341   3.524
 3386SOL    HW210189   4.393   1.486   3.517
 3387SOL     OW10190   4.152   0.424   2.382
 3387SOL    HW110191   4.182   0.352   2.320
 3387SOL    HW210192   4.113   0.384   2.465
 3388SOL     OW10193   4.041   0.547   3.142
 3388SOL    HW110194   4.079   0.488   3.214
 3388SOL    HW210195   4.081   0.521   3.054
 3389SOL     OW10196   4.536   1.586   2.549
 3389SOL    HW110197   4.568   1.596   2.455
 3389SOL    HW210198   4.457   1.524   2.551
 3390SOL     OW10199   4.725   0.034   3.016
 3390SOL    HW110200   4.662  -0.038   2.985
 3390SOL    HW210201   4.818  -0.002   3.016
 3391SOL     OW10202   4.494   1.330   2.163
 3391SOL    HW110203   4.448   1.243   2.180
 3391SOL    HW210204   4.585   1.327   2.204
 3392SOL     OW10205   4.342   1.567   3.146
 3392SOL    HW110206   4.337   1.649   3.203
 3392SOL    HW210207   4.431   1.564   3.101
 3393SOL     OW10208   3.763   1.077   2.162
 3393SOL    HW110209   3.862   1.066   2.153
 3393SOL    HW210210   3.723   0.991   2.194
 3394SOL     OW10211   4.599   1.646   2.199
 3394SOL    HW110212   4.522   1.611   2.145
 3394SOL    HW210213   4.567   1.717   2.261
 3395SOL     OW10214   3.954   0.628   3.837
 3395SOL    HW110215   3.861   0.626   3.874
 3395SOL    HW210216   3.955   0.589   3.745
 3396SOL     OW10217   3.949   0.275   4.720
 3396SOL    HW110218   3.984   0.258   4.812
 3396SOL    HW210219   3.861   0.230   4.708
 3397SOL     OW10220   3.743   0.368   4.371
 3397SOL    HW110221   3.661   0.411   4.410
 3397SOL    HW210222   3.715   0.295   4.308
 3398SOL     OW10223   4.293   1.275   4.889
 3398SOL    HW110224   4.200   1.268   4.852
 3398SOL    HW210225   4.304   1.364   4.933
 3399SOL     OW10226   4.859   0.703   4.441
 3399SOL    HW110227   4.916   0.781   4.416
 3399SOL    HW210228   4.799   0.729   4.517
 3400SOL     OW10229   4.492   1.144   4.747
 3400SOL    HW110230   4.414   1.161   4.807
 3400SOL    HW210231   4.526   1.231   4.711
 3401SOL     OW10232   4.409   1.012   4.389
 3401SOL    HW110233   4.478   0.996   4.459
 3401SOL    HW210234   4.336   1.069   4.427
 3402SOL     OW10235   4.059   1.435   4.785
 3402SOL    HW110236   3.981   1.404   4.732
 3402SOL    HW210237   4.117   1.493   4.728
 3403SOL     OW10238   3.955   1.713   4.207
 3403SOL    HW110239   3.989   1.790   4.261
 3403SOL    HW210240   3.999   1.713   4.117
 3404SOL     OW10241   3.954   1.434   4.262
 3404SOL    HW110242   3.928   1.530   4.262
 3404SOL    HW210243   3.883   1.380   4.307
 3405SOL     OW10244   3.964   1.091   4.610
 3405SOL    HW110245   3.978   1.007   4.662
 3405SOL    HW210246   3.909   1.155   4.665
 3406SOL     OW10247   4.330   0.964   3.847
 3406SOL    HW110248   4.337   1.048   3.793
 3406SOL    HW210249   4.376   0.977   3.935
 3407SOL     OW10250   3.846   0.643   4.287
 3407SOL    HW110251   3.801   0.555   4.304
 3407SOL    HW210252   3.845   0.697   4.371
 3408SOL     OW10253   3.751   1.596   3.841
 3408SOL    HW110254   3.732   1.500   3.862
 3408SOL    HW210255   3.718   1.654   3.916
 3409SOL     OW10256   4.337   1.365   4.450
 3409SOL    HW110257   4.288   1.278   4.459
 3409SOL    HW210258   4.314   1.408   4.363
 3410SOL     OW10259   4.533   0.004   4.226
 3410SOL    HW110260   4.573   0.095   4.217
 3410SOL    HW210261   4.433   0.012   4.232
 3411SOL     OW10262   3.921   0.976   4.988
 3411SOL    HW110263   4.010   0.931   4.974
 3411SOL    HW210264   3.848   0.911   4.969
 3412SOL     OW10265   4.322   0.729   3.994
 3412SOL    HW110266   4.346   0.798   3.926
 3412SOL    HW210267   4.244   0.762   4.048
 3413SOL     OW10268   5.005   0.345   4.668
 3413SOL    HW110269   4.919   0.295   4.655
 3413SOL    HW210270   5.067   0.291   4.724
 3414SOL     OW10271   4.715   0.410   4.966
 3414SOL    HW110272   4.638   0.444   5.020
 3414SOL    HW210273   4.681   0.359   4.887
 3415SOL     OW10274   4.765   0.701   4.153
 3415SOL    HW110275   4.791   0.697   4.249
 3415SOL    HW210276   4.680   0.650   4.139
 3416SOL     OW10277   3.800   0.811   4.513
 3416SOL    HW110278   3.899   0.799   4.522
 3416SOL    HW210279   3.776   0.906   4.534
 3417SOL     OW10280   4.589   0.348   3.919
 3417SOL    HW110281   4.648   0.411   3.870
 3417SOL    HW210282   4.608   0.254   3.890
 3418SOL     OW10283   4.274   0.196   4.609
 3418SOL    HW110284   4.269   0.191   4.709
 3418SOL    HW210285   4.276   0.292   4.580
 3419SOL     OW10286   4.732   1.456   4.201
 3419SOL    HW110287   4.686   1.528   4.149
 3419SOL    HW210288   4.728   1.476   4.299
 3420SOL     OW10289   4.075   1.801   4.577
 3420SOL    HW110290   4.125   1.715   4.583
 3420SOL    HW210291   4.140   1.878   4.574
 3421SOL     OW10292   4.045   0.943   3.966
 3421SOL    HW110293   4.127   0.982   3.924
 3421SOL    HW210294   4.018   0.861   3.917
 3422SOL     OW10295   4.835   1.776   3.961
 3422SOL    HW110296   4.775   1.714   4.011
 3422SOL    HW210297   4.866   1.732   3.876
 3423SOL     OW10298   4.188   1.743   4.047
 3423SOL    HW110299   4.221   1.782   4.133
 3423SOL    HW210300   4.264   1.736   3.982
 3424SOL     OW10301   3.973   1.785   4.965
 3424SOL    HW110302   4.030   1.720   5.015
 3424SOL    HW210303   3.957   1.752   4.872
 3425SOL     OW10304   4.664   1.698   4.628
 3425SOL    HW110305   4.744   1.641   4.649
 3425SOL    HW210306   4.615   1.658   4.551
 3426SOL     OW10307   4.106   0.700   4.204
 3426SOL    HW110308   4.151   0.610   4.201
 3426SOL    HW210309   4.012   0.689   4.237
 3427SOL     OW10310   4.338   0.122   3.841
 3427SOL    HW110311   4.436   0.100   3.848
 3427SOL    HW210312   4.307   0.105   3.748
 3428SOL     OW10313   4.527   1.402   4.648
 3428SOL    HW110314   4.617   1.416   4.606
 3428SOL    HW210315   4.456   1.404   4.577
 3429SOL     OW10316   4.646   0.503   4.623
 3429SOL    HW110317   4.621   0.494   4.527
 3429SOL    HW210318   4.694   0.421   4.654
 3430SOL     OW10319   4.263   0.064   4.236
 3430SOL    HW110320   4.182   0.065   4.294
 3430SOL    HW210321   4.266   0.147   4.181
 3431SOL     OW10322   4.021   0.035   3.895
 3431SOL    HW110323   4.070   0.119   3.874
 3431SOL    HW210324   4.083  -0.030   3.940
 3432SOL     OW10325   4.659   0.236   4.204
 3432SOL    HW110326   4.611   0.277   4.126
 3432SOL    HW210327   4.758   0.234   4.185
 3433SOL     OW10328   4.951   1.570   4.517
 3433SOL    HW110329   4.972   1.644   4.452
 3433SOL    HW210330   5.019   1.570   4.590
 3434SOL     OW10331   4.183   1.152   4.465
 3434SOL    HW110332   4.112   1.125   4.530
 3434SOL    HW210333   4.157   1.124   4.372
 3435SOL     OW10334   4.995   1.797   4.315
 3435SOL    HW110335   5.039   1.861   4.251
 3435SOL    HW210336   4.945   1.849   4.385
 3436SOL     OW10337   4.756   0.549   3.740
 3436SOL    HW110338   4.715   0.631   3.701
 3436SOL    HW210339   4.820   0.575   3.813
 3437SOL     OW10340   4.285   0.222   4.871
 3437SOL    HW110341   4.323   0.138   4.908
 3437SOL    HW210342   4.197   0.241   4.915
 3438SOL     OW10343   4.590   0.454   4.366
 3438SOL    HW110344   4.558   0.526   4.304
 3438SOL    HW210345   4.614   0.373   4.313
 3439SOL     OW10346   4.741   0.039   4.477
 3439SOL    HW110347   4.669   0.044   4.408
 3439SOL    HW210348   4.717  -0.030   4.546
 3440SOL     OW10349   4.212   1.385   3.898
 3440SOL    HW110350   4.125   1.370   3.945
 3440SOL    HW210351   4.195   1.411   3.803
 3441SOL     OW10352   4.251   0.256   4.052
 3441SOL    HW110353   4.278   0.197   3.977
 3441SOL    HW210354   4.251   0.351   4.021
 3442SOL     OW10355   4.835   1.195   4.824
 3442SOL    HW110356   4.795   1.239   4.905
 3442SOL    HW210357   4.794   1.232   4.741
 3443SOL     OW10358   4.429   1.050   4.092
 3443SOL    HW110359   4.415   1.057   4.191
 3443SOL    HW210360   4.513   0.999   4.074
 3444SOL     OW10361   4.134   0.813   4.975
 3444SOL    HW110362   4.220   0.825   5.025
 3444SOL    HW210363   4.092   0.726   5.002
 3445SOL     OW10364   4.091   1.100   4.225
 3445SOL    HW110365   4.084   1.183   4.169
 3445SOL    HW210366   4.095   1.020   4.165
 3446SOL     OW10367   4.290   0.537   4.589
 3446SOL    HW110368   4.302   0.603   4.515
 3446SOL    HW210369   4.336   0.571   4.672
 3447SOL     OW10370   4.976   1.348   4.112
 3447SOL    HW110371   5.026   1.425   4.152
 3447SOL    HW210372   4.881   1.350   4.144
 3448SOL     OW10373   4.078   1.510   5.053
 3448SOL    HW110374   4.057   1.466   4.966
 3448SOL    HW210375   4.175   1.536   5.056
 3449SOL     OW10376   4.297   0.870   4.753
 3449SOL    HW110377   4.341   0.959   4.744
 3449SOL    HW210378   4.234   0.870   4.830
 3450SOL     OW10379   5.084   0.862   4.769
 3450SOL    HW110380   5.009   0.862   4.703
 3450SOL    HW210381   5.121   0.770   4.778
 3451SOL     OW10382   4.933   0.525   3.999
 3451SOL    HW110383   4.946   0.441   4.053
 3451SOL    HW210384   4.904   0.599   4.059
 3452SOL     OW10385   4.031   0.213   4.955
 3452SOL    HW110386   4.008   0.250   5.045
 3452SOL    HW210387   4.001   0.118   4.949
 3453SOL     OW10388   3.761   1.310   5.006
 3453SOL    HW110389   3.814   1.261   5.074
 3453SOL    HW210390   3.783   1.408   5.011
 3454SOL     OW10391   4.456   0.634   4.788
 3454SOL    HW110392   4.515   0.608   4.712
 3454SOL    HW210393   4.428   0.730   4.777
 3455SOL     OW10394   4.031   0.063   4.342
 3455SOL    HW110395   4.020   0.157   4.375
 3455SOL    HW210396   4.026   0.000   4.419
 3456SOL     OW10397   5.346   0.367   4.098
 3456SOL    HW110398   5.348   0.291   4.162
 3456SOL    HW210399   5.298   0.444   4.138
 3457SOL     OW10400   4.747   0.766   4.690
 3457SOL    HW110401   4.762   0.787   4.786
 3457SOL    HW210402   4.717   0.671   4.681
 3458SOL     OW10403   4.792   1.333   4.573
 3458SOL    HW110404   4.799   1.249   4.518
 3458SOL    HW210405   4.854   1.402   4.537
 3459SOL     OW10406   4.043   0.810   4.673
 3459SOL    HW110407   4.136   0.846   4.678
 3459SOL    HW210408   4.037   0.725   4.725
 3460SOL     OW10409   4.063   0.509   4.730
 3460SOL    HW110410   4.011   0.426   4.713
 3460SOL    HW210411   4.140   0.514   4.666
 3461SOL     OW10412   4.884   0.207   5.201
 3461SOL    HW110413   4.884   0.271   5.278
 3461SOL    HW210414   4.912   0.255   5.118
 3462SOL     OW10415   3.732   1.326   3.924
 3462SOL    HW110416   3.639   1.347   3.893
 3462SOL    HW210417   3.742   1.227   3.937
 3463SOL     OW10418   3.812   1.801   4.651
 3463SOL    HW110419   3.770   1.715   4.624
 3463SOL    HW210420   3.906   1.804   4.617
 3464SOL     OW10421   4.228   1.568   4.634
 3464SOL    HW110422   4.294   1.642   4.643
 3464SOL    HW210423   4.272   1.489   4.592
 3465SOL     OW10424   4.726   0.796   4.962
 3465SOL    HW110425   4.767   0.764   5.048
 3465SOL    HW210426   4.630   0.769   4.959
 3466SOL     OW10427   3.764   0.544   4.838
 3466SOL    HW110428   3.849   0.511   4.797
 3466SOL    HW210429   3.777   0.559   4.936
 3467SOL     OW10430   4.539   0.572   4.049
 3467SOL    HW110431   4.546   0.483   4.003
 3467SOL    HW210432   4.445   0.606   4.041
 3468SOL     OW10433   4.395   0.464   4.993
 3468SOL    HW110434   4.361   0.375   4.963
 3468SOL    HW210435   4.421   0.518   4.913
 3469SOL     OW10436   4.654   1.678   5.189
 3469SOL    HW110437   4.630   1.660   5.094
 3469SOL    HW210438   4.684   1.772   5.199
 3470SOL     OW10439   4.197   0.500   3.915
 3470SOL    HW110440   4.258   0.580   3.919
 3470SOL    HW210441   4.102   0.531   3.922
 3471SOL     OW10442   5.071   1.059   4.958
 3471SOL    HW110443   5.095   0.996   4.884
 3471SOL    HW210444   4.981   1.099   4.940
 3472SOL     OW10445   4.976   1.731   4.852
 3472SOL    HW110446   5.060   1.736   4.798
 3472SOL    HW210447   4.953   1.635   4.870
 3473SOL     OW10448   3.807   1.258   4.746
 3473SOL    HW110449   3.802   1.257   4.846
 3473SOL    HW210450   3.724   1.217   4.708
 3474SOL     OW10451   5.112   1.573   4.201
 3474SOL    HW110452   5.179   1.585   4.127
 3474SOL    HW210453   5.072   1.662   4.224
 3475SOL     OW10454   4.396   1.616   3.878
 3475SOL    HW110455   4.405   1.626   3.779
 3475SOL    HW210456   4.356   1.527   3.899
 3476SOL     OW10457   3.987   0.326   4.444
 3476SOL    HW110458   3.908   0.377   4.410
 3476SOL    HW210459   3.978   0.311   4.542
 3477SOL     OW10460   4.918   1.612   3.755
 3477SOL    HW110461   4.924   1.519   3.792
 3477SOL    HW210462   4.859   1.612   3.675
 3478SOL     OW10463   4.546   1.002   5.096
 3478SOL    HW110464   4.586   1.001   5.004
 3478SOL    HW210465   4.556   1.094   5.136
 3479SOL     OW10466   4.640   0.910   4.015
 3479SOL    HW110467   4.703   0.948   3.947
 3479SOL    HW210468   4.680   0.827   4.054
 3480SOL     OW10469   5.338   1.292   5.013
 3480SOL    HW110470   5.398   1.295   5.093
 3480SOL    HW210471   5.263   1.356   5.026
 3481SOL     OW10472   4.763   1.098   4.420
 3481SOL    HW110473   4.693   1.051   4.474
 3481SOL    HW210474   4.822   1.030   4.377
 3482SOL     OW10475   4.738   0.236   4.695
 3482SOL    HW110476   4.730   0.200   4.602
 3482SOL    HW210477   4.736   0.160   4.760
 3483SOL     OW10478   4.314   1.487   4.215
 3483SOL    HW110479   4.356   1.429   4.145
 3483SOL    HW210480   4.270   1.566   4.171
 3484SOL     OW10481   3.979   1.348   4.014
 3484SOL    HW110482   3.883   1.349   3.987
 3484SOL    HW210483   3.991   1.401   4.098
 3485SOL     OW10484   3.799   0.345   3.757
 3485SOL    HW110485   3.707   0.317   3.728
 3485SOL    HW210486   3.830   0.422   3.701
 3486SOL     OW10487   3.796   0.166   4.042
 3486SOL    HW110488   3.779   0.249   3.988
 3486SOL    HW210489   3.886   0.129   4.020
 3487SOL     OW10490   4.318   0.745   4.376
 3487SOL    HW110491   4.368   0.830   4.357
 3487SOL    HW210492   4.230   0.747   4.328
 3488SOL     OW10493   4.583   1.374   3.740
 3488SOL    HW110494   4.537   1.389   3.828
 3488SOL    HW210495   4.627   1.459   3.710
 3489SOL     OW10496   4.385   1.790   4.677
 3489SOL    HW110497   4.339   1.878   4.664
 3489SOL    HW210498   4.484   1.802   4.670
 3490SOL     OW10499   4.583   0.956   4.585
 3490SOL    HW110500   4.637   0.887   4.633
 3490SOL    HW210501   4.551   1.025   4.651
 3491SOL     OW10502   4.807   0.984   3.811
 3491SOL    HW110503   4.784   1.037   3.729
 3491SOL    HW210504   4.888   0.928   3.792
 3492SOL     OW10505   3.803   1.240   4.377
 3492SOL    HW110506   3.802   1.193   4.465
 3492SOL    HW210507   3.885   1.212   4.326
 3493SOL     OW10508   4.152   0.424   4.244
 3493SOL    HW110509   4.182   0.352   4.182
 3493SOL    HW210510   4.113   0.384   4.327
 3494SOL     OW10511   4.536   1.586   4.411
 3494SOL    HW110512   4.568   1.596   4.317
 3494SOL    HW210513   4.457   1.524   4.413
 3495SOL     OW10514   4.725   0.034   4.878
 3495SOL    HW110515   4.662  -0.038   4.847
 3495SOL    HW210516   4.818  -0.002   4.878
 3496SOL     OW10517   4.494   1.330   4.025
 3496SOL    HW110518   4.448   1.243   4.042
 3496SOL    HW210519   4.585   1.327   4.066
 3497SOL     OW10520   3.763   1.077   4.024
 3497SOL    HW110521   3.862   1.066   4.015
 3497SOL    HW210522   3.723   0.991   4.056
 3498SOL     OW10523   4.599   1.646   4.061
 3498SOL    HW110524   4.522   1.611   4.007
 3498SOL    HW210525   4.567   1.717   4.123
 3499SOL     OW10526   3.954   2.490   0.113
 3499SOL    HW110527   3.861   2.488   0.150
 3499SOL    HW210528   3.955   2.451   0.021
 3500SOL     OW10529   3.949   2.137   0.996
 3500SOL    HW110530   3.984   2.120   1.088
 3500SOL    HW210531   3.861   2.092   0.984
 3501SOL     OW10532   3.743   2.230   0.647
 3501SOL    HW110533   3.661   2.273   0.686
 3501SOL    HW210534   3.715   2.157   0.584
 3502SOL     OW10535   4.293   3.137   1.165
 3502SOL    HW110536   4.200   3.130   1.128
 3502SOL    HW210537   4.304   3.226   1.209
 3503SOL     OW10538   4.859   2.565   0.717
 3503SOL    HW110539   4.916   2.643   0.692
 3503SOL    HW210540   4.799   2.591   0.793
 3504SOL     OW10541   4.492   3.006   1.023
 3504SOL    HW110542   4.414   3.023   1.083
 3504SOL    HW210543   4.526   3.093   0.987
 3505SOL     OW10544   4.574   2.660   1.823
 3505SOL    HW110545   4.570   2.736   1.888
 3505SOL    HW210546   4.596   2.696   1.732
 3506SOL     OW10547   4.409   2.874   0.665
 3506SOL    HW110548   4.478   2.858   0.735
 3506SOL    HW210549   4.336   2.931   0.703
 3507SOL     OW10550   4.410   3.023   1.803
 3507SOL    HW110551   4.470   3.102   1.817
 3507SOL    HW210552   4.324   3.054   1.762
 3508SOL     OW10553   4.059   3.297   1.061
 3508SOL    HW110554   3.981   3.266   1.008
 3508SOL    HW210555   4.117   3.355   1.004
 3509SOL     OW10556   4.162   2.254   1.499
 3509SOL    HW110557   4.244   2.198   1.508
 3509SOL    HW210558   4.081   2.196   1.503
 3510SOL     OW10559   3.955   3.575   0.483
 3510SOL    HW110560   3.989   3.652   0.537
 3510SOL    HW210561   3.999   3.575   0.393
 3511SOL     OW10562   4.851   3.203   1.690
 3511SOL    HW110563   4.898   3.203   1.778
 3511SOL    HW210564   4.803   3.116   1.679
 3512SOL     OW10565   3.954   3.296   0.538
 3512SOL    HW110566   3.928   3.392   0.538
 3512SOL    HW210567   3.883   3.242   0.583
 3513SOL     OW10568   3.964   2.953   0.886
 3513SOL    HW110569   3.978   2.869   0.938
 3513SOL    HW210570   3.909   3.017   0.941
 3514SOL     OW10571   4.344   3.648   1.439
 3514SOL    HW110572   4.252   3.631   1.474
 3514SOL    HW210573   4.372   3.740   1.465
 3515SOL     OW10574   4.330   2.826   0.123
 3515SOL    HW110575   4.337   2.910   0.069
 3515SOL    HW210576   4.376   2.839   0.211
 3516SOL     OW10577   3.846   2.505   0.563
 3516SOL    HW110578   3.801   2.417   0.580
 3516SOL    HW210579   3.845   2.559   0.647
 3517SOL     OW10580   3.751   3.458   0.117
 3517SOL    HW110581   3.732   3.362   0.138
 3517SOL    HW210582   3.718   3.516   0.192
 3518SOL     OW10583   3.837   2.599   1.597
 3518SOL    HW110584   3.925   2.586   1.642
 3518SOL    HW210585   3.824   2.696   1.575
 3519SOL     OW10586   4.337   3.227   0.726
 3519SOL    HW110587   4.288   3.140   0.735
 3519SOL    HW210588   4.314   3.270   0.639
 3520SOL     OW10589   5.017   3.090   1.423
 3520SOL    HW110590   5.054   3.017   1.365
 3520SOL    HW210591   5.069   3.095   1.508
 3521SOL     OW10592   4.533   1.866   0.502
 3521SOL    HW110593   4.573   1.957   0.493
 3521SOL    HW210594   4.433   1.874   0.508
 3522SOL     OW10595   3.921   2.838   1.264
 3522SOL    HW110596   4.010   2.793   1.250
 3522SOL    HW210597   3.848   2.773   1.245
 3523SOL     OW10598   4.911   3.654   1.616
 3523SOL    HW110599   4.935   3.714   1.540
 3523SOL    HW210600   4.918   3.559   1.586
 3524SOL     OW10601   4.041   2.113   1.801
 3524SOL    HW110602   4.112   2.184   1.807
 3524SOL    HW210603   3.953   2.152   1.829
 3525SOL     OW10604   4.322   2.591   0.270
 3525SOL    HW110605   4.346   2.660   0.202
 3525SOL    HW210606   4.244   2.624   0.324
 3526SOL     OW10607   5.005   2.207   0.944
 3526SOL    HW110608   4.919   2.157   0.931
 3526SOL    HW210609   5.067   2.153   1.000
 3527SOL     OW10610   4.531   2.467   1.465
 3527SOL    HW110611   4.484   2.464   1.554
 3527SOL    HW210612   4.480   2.412   1.399
 3528SOL     OW10613   4.697   2.752   1.572
 3528SOL    HW110614   4.743   2.668   1.543
 3528SOL    HW210615   4.641   2.786   1.497
 3529SOL     OW10616   4.715   2.272   1.242
 3529SOL    HW110617   4.638   2.306   1.296
 3529SOL    HW210618   4.681   2.221   1.163
 3530SOL     OW10619   4.765   2.563   0.429
 3530SOL    HW110620   4.791   2.559   0.525
 3530SOL    HW210621   4.680   2.512   0.415
 3531SOL     OW10622   3.800   2.673   0.789
 3531SOL    HW110623   3.899   2.661   0.798
 3531SOL    HW210624   3.776   2.768   0.810
 3532SOL     OW10625   3.854   3.683   1.571
 3532SOL    HW110626   3.844   3.668   1.670
 3532SOL    HW210627   3.768   3.719   1.535
 3533SOL     OW10628   4.589   2.210   0.195
 3533SOL    HW110629   4.648   2.273   0.146
 3533SOL    HW210630   4.608   2.116   0.166
 3534SOL     OW10631   4.274   2.058   0.885
 3534SOL    HW110632   4.269   2.053   0.985
 3534SOL    HW210633   4.276   2.154   0.856
 3535SOL     OW10634   4.732   3.318   0.477
 3535SOL    HW110635   4.686   3.390   0.425
 3535SOL    HW210636   4.728   3.338   0.575
 3536SOL     OW10637   4.075   3.663   0.853
 3536SOL    HW110638   4.125   3.577   0.859
 3536SOL    HW210639   4.140   3.740   0.850
 3537SOL     OW10640   4.951   3.412   1.506
 3537SOL    HW110641   4.957   3.335   1.570
 3537SOL    HW210642   4.899   3.386   1.426
 3538SOL     OW10643   4.045   2.805   0.242
 3538SOL    HW110644   4.127   2.844   0.200
 3538SOL    HW210645   4.018   2.723   0.193
 3539SOL     OW10646   4.185   3.128   1.727
 3539SOL    HW110647   4.135   3.129   1.641
 3539SOL    HW210648   4.122   3.110   1.803
 3540SOL     OW10649   4.835   3.638   0.237
 3540SOL    HW110650   4.775   3.576   0.287
 3540SOL    HW210651   4.866   3.594   0.152
 3541SOL     OW10652   3.926   2.147   1.498
 3541SOL    HW110653   3.846   2.207   1.485
 3541SOL    HW210654   3.916   2.098   1.584
 3542SOL     OW10655   4.188   3.605   0.323
 3542SOL    HW110656   4.221   3.644   0.409
 3542SOL    HW210657   4.264   3.598   0.258
 3543SOL     OW10658   3.973   3.647   1.241
 3543SOL    HW110659   4.030   3.582   1.291
 3543SOL    HW210660   3.957   3.614   1.148
 3544SOL     OW10661   4.664   3.560   0.904
 3544SOL    HW110662   4.744   3.503   0.925
 3544SOL    HW210663   4.615   3.520   0.827
 3545SOL     OW10664   4.106   2.562   0.480
 3545SOL    HW110665   4.151   2.472   0.477
 3545SOL    HW210666   4.012   2.551   0.513
 3546SOL     OW10667   4.338   1.984   0.117
 3546SOL    HW110668   4.436   1.962   0.124
 3546SOL    HW210669   4.307   1.967   0.024
 3547SOL     OW10670   4.505   2.126   1.749
 3547SOL    HW110671   4.572   2.065   1.792
 3547SOL    HW210672   4.432   2.145   1.814
 3548SOL     OW10673   4.612   3.376   1.195
 3548SOL    HW110674   4.589   3.351   1.101
 3548SOL    HW210675   4.673   3.307   1.234
 3549SOL     OW10676   4.527   3.264   0.924
 3549SOL    HW110677   4.617   3.278   0.882
 3549SOL    HW210678   4.456   3.266   0.853
 3550SOL     OW10679   4.646   2.365   0.899
 3550SOL    HW110680   4.621   2.356   0.803
 3550SOL    HW210681   4.694   2.283   0.930
 3551SOL     OW10682   4.263   1.926   0.512
 3551SOL    HW110683   4.182   1.927   0.570
 3551SOL    HW210684   4.266   2.009   0.457
 3552SOL     OW10685   4.021   1.897   0.171
 3552SOL    HW110686   4.070   1.981   0.150
 3552SOL    HW210687   4.083   1.832   0.216
 3553SOL     OW10688   4.659   2.098   0.480
 3553SOL    HW110689   4.611   2.139   0.402
 3553SOL    HW210690   4.758   2.096   0.461
 3554SOL     OW10691   4.800   2.545   1.464
 3554SOL    HW110692   4.720   2.484   1.467
 3554SOL    HW210693   4.881   2.492   1.440
 3555SOL     OW10694   4.951   3.432   0.793
 3555SOL    HW110695   4.972   3.506   0.728
 3555SOL    HW210696   5.019   3.432   0.866
 3556SOL     OW10697   4.183   3.014   0.741
 3556SOL    HW110698   4.112   2.987   0.806
 3556SOL    HW210699   4.157   2.986   0.648
 3557SOL     OW10700   4.995   3.659   0.591
 3557SOL    HW110701   5.039   3.723   0.527
 3557SOL    HW210702   4.945   3.711   0.661
 3558SOL     OW10703   4.756   2.411   0.016
 3558SOL    HW110704   4.715   2.493  -0.023
 3558SOL    HW210705   4.820   2.437   0.089
 3559SOL     OW10706   3.802   2.418   1.386
 3559SOL    HW110707   3.894   2.417   1.345
 3559SOL    HW210708   3.796   2.492   1.453
 3560SOL     OW10709   4.285   2.084   1.147
 3560SOL    HW110710   4.323   2.000   1.184
 3560SOL    HW210711   4.197   2.103   1.191
 3561SOL     OW10712   4.590   2.316   0.642
 3561SOL    HW110713   4.558   2.388   0.580
 3561SOL    HW210714   4.614   2.235   0.589
 3562SOL     OW10715   4.741   1.901   0.753
 3562SOL    HW110716   4.669   1.906   0.684
 3562SOL    HW210717   4.717   1.832   0.822
 3563SOL     OW10718   4.212   3.247   0.174
 3563SOL    HW110719   4.125   3.232   0.221
 3563SOL    HW210720   4.195   3.273   0.079
 3564SOL     OW10721   4.251   2.118   0.328
 3564SOL    HW110722   4.278   2.059   0.253
 3564SOL    HW210723   4.251   2.213   0.297
 3565SOL     OW10724   4.788   3.209   1.340
 3565SOL    HW110725   4.708   3.186   1.395
 3565SOL    HW210726   4.871   3.183   1.389
 3566SOL     OW10727   4.835   3.057   1.100
 3566SOL    HW110728   4.795   3.101   1.181
 3566SOL    HW210729   4.794   3.094   1.017
 3567SOL     OW10730   4.639   1.951   1.402
 3567SOL    HW110731   4.664   1.931   1.307
 3567SOL    HW210732   4.711   2.007   1.444
 3568SOL     OW10733   4.704   2.978   1.719
 3568SOL    HW110734   4.605   2.984   1.729
 3568SOL    HW210735   4.727   2.898   1.663
 3569SOL     OW10736   4.429   2.912   0.368
 3569SOL    HW110737   4.415   2.919   0.467
 3569SOL    HW210738   4.513   2.861   0.350
 3570SOL     OW10739   4.134   2.675   1.251
 3570SOL    HW110740   4.220   2.687   1.301
 3570SOL    HW210741   4.092   2.588   1.278
 3571SOL     OW10742   4.998   2.248   1.262
 3571SOL    HW110743   5.019   2.322   1.326
 3571SOL    HW210744   4.909   2.265   1.219
 3572SOL     OW10745   3.788   3.426   1.331
 3572SOL    HW110746   3.742   3.508   1.297
 3572SOL    HW210747   3.886   3.445   1.340
 3573SOL     OW10748   4.091   2.962   0.501
 3573SOL    HW110749   4.084   3.045   0.445
 3573SOL    HW210750   4.095   2.882   0.441
 3574SOL     OW10751   4.290   2.399   0.865
 3574SOL    HW110752   4.302   2.465   0.791
 3574SOL    HW210753   4.336   2.433   0.948
 3575SOL     OW10754   4.976   3.210   0.388
 3575SOL    HW110755   5.026   3.287   0.428
 3575SOL    HW210756   4.881   3.212   0.420
 3576SOL     OW10757   4.078   3.372   1.329
 3576SOL    HW110758   4.057   3.328   1.242
 3576SOL    HW210759   4.175   3.398   1.332
 3577SOL     OW10760   4.126   2.613   1.598
 3577SOL    HW110761   4.194   2.668   1.551
 3577SOL    HW210762   4.166   2.525   1.625
 3578SOL     OW10763   4.737   1.967   1.770
 3578SOL    HW110764   4.743   2.052   1.718
 3578SOL    HW210765   4.769   1.891   1.713
 3579SOL     OW10766   4.228   1.912   1.740
 3579SOL    HW110767   4.186   1.855   1.670
 3579SOL    HW210768   4.162   1.981   1.772
 3580SOL     OW10769   4.297   2.732   1.029
 3580SOL    HW110770   4.341   2.821   1.020
 3580SOL    HW210771   4.234   2.732   1.106
 3581SOL     OW10772   5.084   2.724   1.045
 3581SOL    HW110773   5.009   2.724   0.979
 3581SOL    HW210774   5.121   2.632   1.054
 3582SOL     OW10775   4.933   2.387   0.275
 3582SOL    HW110776   4.946   2.303   0.329
 3582SOL    HW210777   4.904   2.461   0.335
 3583SOL     OW10778   4.031   2.075   1.231
 3583SOL    HW110779   4.008   2.112   1.321
 3583SOL    HW210780   4.001   1.980   1.225
 3584SOL     OW10781   3.761   3.172   1.282
 3584SOL    HW110782   3.814   3.123   1.350
 3584SOL    HW210783   3.783   3.270   1.287
 3585SOL     OW10784   4.456   2.496   1.064
 3585SOL    HW110785   4.515   2.470   0.988
 3585SOL    HW210786   4.428   2.592   1.053
 3586SOL     OW10787   4.031   1.925   0.618
 3586SOL    HW110788   4.020   2.019   0.651
 3586SOL    HW210789   4.026   1.862   0.695
 3587SOL     OW10790   5.346   2.229   0.374
 3587SOL    HW110791   5.348   2.153   0.438
 3587SOL    HW210792   5.298   2.306   0.414
 3588SOL     OW10793   4.747   2.628   0.966
 3588SOL    HW110794   4.762   2.649   1.062
 3588SOL    HW210795   4.717   2.533   0.957
 3589SOL     OW10796   4.704   3.435   1.700
 3589SOL    HW110797   4.684   3.479   1.612
 3589SOL    HW210798   4.743   3.344   1.684
 3590SOL     OW10799   4.074   2.760   1.804
 3590SOL    HW110800   4.150   2.804   1.852
 3590SOL    HW210801   4.109   2.713   1.722
 3591SOL     OW10802   5.027   2.700   0.042
 3591SOL    HW110803   5.061   2.607   0.057
 3591SOL    HW210804   5.045   2.727  -0.053
 3592SOL     OW10805   4.792   3.195   0.849
 3592SOL    HW110806   4.799   3.111   0.794
 3592SOL    HW210807   4.854   3.264   0.813
 3593SOL     OW10808   4.043   2.672   0.949
 3593SOL    HW110809   4.136   2.708   0.954
 3593SOL    HW210810   4.037   2.587   1.001
 3594SOL     OW10811   4.063   2.371   1.006
 3594SOL    HW110812   4.011   2.288   0.989
 3594SOL    HW210813   4.140   2.376   0.942
 3595SOL     OW10814   4.862   2.242   1.678
 3595SOL    HW110815   4.817   2.305   1.742
 3595SOL    HW210816   4.955   2.273   1.661
 3596SOL     OW10817   4.884   2.069   1.477
 3596SOL    HW110818   4.884   2.133   1.554
 3596SOL    HW210819   4.912   2.117   1.394
 3597SOL     OW10820   3.812   3.663   0.927
 3597SOL    HW110821   3.770   3.577   0.900
 3597SOL    HW210822   3.906   3.666   0.893
 3598SOL     OW10823   4.228   3.430   0.910
 3598SOL    HW110824   4.294   3.504   0.919
 3598SOL    HW210825   4.272   3.351   0.868
 3599SOL     OW10826   4.726   2.658   1.238
 3599SOL    HW110827   4.767   2.626   1.324
 3599SOL    HW210828   4.630   2.631   1.235
 3600SOL     OW10829   3.764   2.406   1.114
 3600SOL    HW110830   3.849   2.373   1.073
 3600SOL    HW210831   3.777   2.421   1.212
 3601SOL     OW10832   3.913   2.382   1.722
 3601SOL    HW110833   3.972   2.342   1.652
 3601SOL    HW210834   3.855   2.453   1.681
 3602SOL     OW10835   4.539   2.434   0.325
 3602SOL    HW110836   4.546   2.345   0.279
 3602SOL    HW210837   4.445   2.468   0.317
 3603SOL     OW10838   3.976   3.426   1.744
 3603SOL    HW110839   3.946   3.483   1.820
 3603SOL    HW210840   3.969   3.329   1.770
 3604SOL     OW10841   4.395   2.326   1.269
 3604SOL    HW110842   4.361   2.237   1.239
 3604SOL    HW210843   4.421   2.380   1.189
 3605SOL     OW10844   4.654   3.540   1.465
 3605SOL    HW110845   4.630   3.522   1.370
 3605SOL    HW210846   4.684   3.634   1.475
 3606SOL     OW10847   4.197   2.362   0.191
 3606SOL    HW110848   4.258   2.442   0.195
 3606SOL    HW210849   4.102   2.393   0.198
 3607SOL     OW10850   3.883   2.999   1.466
 3607SOL    HW110851   3.905   2.938   1.542
 3607SOL    HW210852   3.893   2.950   1.380
 3608SOL     OW10853   5.071   2.921   1.234
 3608SOL    HW110854   5.095   2.858   1.160
 3608SOL    HW210855   4.981   2.961   1.216
 3609SOL     OW10856   4.976   3.593   1.128
 3609SOL    HW110857   5.060   3.598   1.074
 3609SOL    HW210858   4.953   3.497   1.146
 3610SOL     OW10859   3.807   3.120   1.022
 3610SOL    HW110860   3.802   3.119   1.122
 3610SOL    HW210861   3.724   3.079   0.984
 3611SOL     OW10862   4.412   3.524   1.716
 3611SOL    HW110863   4.356   3.605   1.725
 3611SOL    HW210864   4.464   3.528   1.630
 3612SOL     OW10865   4.627   1.948   0.133
 3612SOL    HW110866   4.678   1.949   0.047
 3612SOL    HW210867   4.683   1.906   0.204
 3613SOL     OW10868   5.112   3.435   0.477
 3613SOL    HW110869   5.179   3.447   0.403
 3613SOL    HW210870   5.072   3.524   0.500
 3614SOL     OW10871   3.854   3.656   1.851
 3614SOL    HW110872   3.813   3.582   1.904
 3614SOL    HW210873   3.918   3.707   1.909
 3615SOL     OW10874   4.554   3.135   1.422
 3615SOL    HW110875   4.549   3.168   1.517
 3615SOL    HW210876   4.468   3.154   1.376
 3616SOL     OW10877   4.396   3.478   0.154
 3616SOL    HW110878   4.405   3.488   0.055
 3616SOL    HW210879   4.356   3.389   0.175
 3617SOL     OW10880   3.987   2.188   0.720
 3617SOL    HW110881   3.908   2.239   0.686
 3617SOL    HW210882   3.978   2.173   0.818
 3618SOL     OW10883   4.918   3.474   0.031
 3618SOL    HW110884   4.924   3.381   0.068
 3618SOL    HW210885   4.859   3.474  -0.049
 3619SOL     OW10886   4.546   2.864   1.372
 3619SOL    HW110887   4.586   2.863   1.280
 3619SOL    HW210888   4.556   2.956   1.412
 3620SOL     OW10889   4.640   2.772   0.291
 3620SOL    HW110890   4.703   2.810   0.223
 3620SOL    HW210891   4.680   2.689   0.330
 3621SOL     OW10892   4.096   3.150   1.490
 3621SOL    HW110893   4.083   3.243   1.456
 3621SOL    HW210894   4.012   3.098   1.477
 3622SOL     OW10895   4.763   2.960   0.696
 3622SOL    HW110896   4.693   2.913   0.750
 3622SOL    HW210897   4.822   2.892   0.653
 3623SOL     OW10898   4.738   2.098   0.971
 3623SOL    HW110899   4.730   2.062   0.878
 3623SOL    HW210900   4.736   2.022   1.036
 3624SOL     OW10901   4.314   3.349   0.491
 3624SOL    HW110902   4.356   3.291   0.421
 3624SOL    HW210903   4.270   3.428   0.447
 3625SOL     OW10904   3.979   3.210   0.290
 3625SOL    HW110905   3.883   3.211   0.263
 3625SOL    HW210906   3.991   3.263   0.374
 3626SOL     OW10907   3.829   2.875   1.726
 3626SOL    HW110908   3.752   2.842   1.780
 3626SOL    HW210909   3.914   2.845   1.768
 3627SOL     OW10910   4.396   2.065   1.489
 3627SOL    HW110911   4.486   2.049   1.449
 3627SOL    HW210912   4.404   2.070   1.588
 3628SOL     OW10913   3.796   2.028   0.318
 3628SOL    HW110914   3.779   2.111   0.264
 3628SOL    HW210915   3.886   1.991   0.296
 3629SOL     OW10916   4.337   2.704   1.431
 3629SOL    HW110917   4.393   2.785   1.414
 3629SOL    HW210918   4.396   2.624   1.434
 3630SOL     OW10919   4.440   2.427   1.708
 3630SOL    HW110920   4.459   2.492   1.782
 3630SOL    HW210921   4.500   2.347   1.717
 3631SOL     OW10922   4.114   3.603   1.560
 3631SOL    HW110923   4.023   3.644   1.558
 3631SOL    HW210924   4.107   3.509   1.592
 3632SOL     OW10925   4.318   2.607   0.652
 3632SOL    HW110926   4.368   2.692   0.633
 3632SOL    HW210927   4.230   2.609   0.604
 3633SOL     OW10928   4.583   3.236   0.016
 3633SOL    HW110929   4.537   3.251   0.104
 3633SOL    HW210930   4.627   3.321  -0.014
 3634SOL     OW10931   4.385   3.652   0.953
 3634SOL    HW110932   4.339   3.740   0.940
 3634SOL    HW210933   4.484   3.664   0.946
 3635SOL     OW10934   4.583   2.818   0.861
 3635SOL    HW110935   4.637   2.749   0.909
 3635SOL    HW210936   4.551   2.887   0.927
 3636SOL     OW10937   4.807   2.846   0.087
 3636SOL    HW110938   4.784   2.899   0.005
 3636SOL    HW210939   4.888   2.790   0.068
 3637SOL     OW10940   3.945   3.176   1.844
 3637SOL    HW110941   3.880   3.103   1.823
 3637SOL    HW210942   3.949   3.190   1.942
 3638SOL     OW10943   3.803   3.102   0.653
 3638SOL    HW110944   3.802   3.055   0.741
 3638SOL    HW210945   3.885   3.074   0.602
 3639SOL     OW10946   4.396   3.253   1.624
 3639SOL    HW110947   4.318   3.203   1.662
 3639SOL    HW210948   4.393   3.348   1.655
 3640SOL     OW10949   4.152   2.286   0.520
 3640SOL    HW110950   4.182   2.214   0.458
 3640SOL    HW210951   4.113   2.246   0.603
 3641SOL     OW10952   4.041   2.409   1.280
 3641SOL    HW110953   4.079   2.350   1.352
 3641SOL    HW210954   4.081   2.383   1.192
 3642SOL     OW10955   4.536   3.448   0.687
 3642SOL    HW110956   4.568   3.458   0.593
 3642SOL    HW210957   4.457   3.386   0.689
 3643SOL     OW10958   4.725   1.896   1.154
 3643SOL    HW110959   4.662   1.824   1.123
 3643SOL    HW210960   4.818   1.860   1.154
 3644SOL     OW10961   4.494   3.192   0.301
 3644SOL    HW110962   4.448   3.105   0.318
 3644SOL    HW210963   4.585   3.189   0.342
 3645SOL     OW10964   4.342   3.429   1.284
 3645SOL    HW110965   4.337   3.511   1.341
 3645SOL    HW210966   4.431   3.426   1.239
 3646SOL     OW10967   3.763   2.939   0.300
 3646SOL    HW110968   3.862   2.928   0.291
 3646SOL    HW210969   3.723   2.853   0.332
 3647SOL     OW10970   4.599   3.508   0.337
 3647SOL    HW110971   4.522   3.473   0.283
 3647SOL    HW210972   4.567   3.579   0.399
 3648SOL     OW10973   3.954   2.490   1.975
 3648SOL    HW110974   3.861   2.488   2.012
 3648SOL    HW210975   3.955   2.451   1.883
 3649SOL     OW10976   3.949   2.137   2.858
 3649SOL    HW110977   3.984   2.120   2.950
 3649SOL    HW210978   3.861   2.092   2.846
 3650SOL     OW10979   3.743   2.230   2.509
 3650SOL    HW110980   3.661   2.273   2.548
 3650SOL    HW210981   3.715   2.157   2.446
 3651SOL     OW10982   4.293   3.137   3.027
 3651SOL    HW110983   4.200   3.130   2.990
 3651SOL    HW210984   4.304   3.226   3.071
 3652SOL     OW10985   4.859   2.565   2.579
 3652SOL    HW110986   4.916   2.643   2.554
 3652SOL    HW210987   4.799   2.591   2.655
 3653SOL     OW10988   4.492   3.006   2.885
 3653SOL    HW110989   4.414   3.023   2.945
 3653SOL    HW210990   4.526   3.093   2.849
 3654SOL     OW10991   4.574   2.660   3.685
 3654SOL    HW110992   4.570   2.736   3.750
 3654SOL    HW210993   4.596   2.696   3.594
 3655SOL     OW10994   4.409   2.874   2.527
 3655SOL    HW110995   4.478   2.858   2.597
 3655SOL    HW210996   4.336   2.931   2.565
 3656SOL     OW10997   4.410   3.023   3.665
 3656SOL    HW110998   4.470   3.102   3.679
 3656SOL    HW210999   4.324   3.054   3.624
 3657SOL     OW11000   4.059   3.297   2.923
 3657SOL    HW111001   3.981   3.266   2.870
 3657SOL    HW211002   4.117   3.355   2.866
 3658SOL     OW11003   4.162   2.254   3.361
 3658SOL    HW111004   4.244   2.198   3.370
 3658SOL    HW211005   4.081   2.196   3.365
 3659SOL     OW11006   3.955   3.575   2.345
 3659SOL    HW111007   3.989   3.652   2.399
 3659SOL    HW211008   3.999   3.575   2.255
 3660SOL     OW11009   4.851   3.203   3.552
 3660SOL    HW111010   4.898   3.203   3.640
 3660SOL    HW211011   4.803   3.116   3.541
 3661SOL     OW11012   3.954   3.296   2.400
 3661SOL    HW111013   3.928   3.392   2.400
 3661SOL    HW211014   3.883   3.242   2.445
 3662SOL     OW11015   3.964   2.953   2.748
 3662SOL    HW111016   3.978   2.869   2.800
 3662SOL    HW211017   3.909   3.017   2.803
 3663SOL     OW11018   4.344   3.648   3.301
 3663SOL    HW111019   4.252   3.631   3.336
 3663SOL    HW211020   4.372   3.740   3.327
 3664SOL     OW11021   4.330   2.826   1.985
 3664SOL    HW111022   4.337   2.910   1.931
 3664SOL    HW211023   4.376   2.839   2.073
 3665SOL     OW11024   3.846   2.505   2.425
 3665SOL    HW111025   3.801   2.417   2.442
 3665SOL    HW211026   3.845   2.559   2.509
 3666SOL     OW11027   3.751   3.458   1.979
 3666SOL    HW111028   3.732   3.362   2.000
 3666SOL    HW211029   3.718   3.516   2.054
 3667SOL     OW11030   3.837   2.599   3.459
 3667SOL    HW111031   3.925   2.586   3.504
 3667SOL    HW211032   3.824   2.696   3.437
 3668SOL     OW11033   4.337   3.227   2.588
 3668SOL    HW111034   4.288   3.140   2.597
 3668SOL    HW211035   4.314   3.270   2.501
 3669SOL     OW11036   5.017   3.090   3.285
 3669SOL    HW111037   5.054   3.017   3.227
 3669SOL    HW211038   5.069   3.095   3.370
 3670SOL     OW11039   4.533   1.866   2.364
 3670SOL    HW111040   4.573   1.957   2.355
 3670SOL    HW211041   4.433   1.874   2.370
 3671SOL     OW11042   3.921   2.838   3.126
 3671SOL    HW111043   4.010   2.793   3.112
 3671SOL    HW211044   3.848   2.773   3.107
 3672SOL     OW11045   4.911   3.654   3.478
 3672SOL    HW111046   4.935   3.714   3.402
 3672SOL    HW211047   4.918   3.559   3.448
 3673SOL     OW11048   4.041   2.113   3.663
 3673SOL    HW111049   4.112   2.184   3.669
 3673SOL    HW211050   3.953   2.152   3.691
 3674SOL     OW11051   4.322   2.591   2.132
 3674SOL    HW111052   4.346   2.660   2.064
 3674SOL    HW211053   4.244   2.624   2.186
 3675SOL     OW11054   5.005   2.207   2.806
 3675SOL    HW111055   4.919   2.157   2.793
 3675SOL    HW211056   5.067   2.153   2.862
 3676SOL     OW11057   4.531   2.467   3.327
 3676SOL    HW111058   4.484   2.464   3.416
 3676SOL    HW211059   4.480   2.412   3.261
 3677SOL     OW11060   4.697   2.752   3.434
 3677SOL    HW111061   4.743   2.668   3.405
 3677SOL    HW211062   4.641   2.786   3.359
 3678SOL     OW11063   4.715   2.272   3.104
 3678SOL    HW111064   4.638   2.306   3.158
 3678SOL    HW211065   4.681   2.221   3.025
 3679SOL     OW11066   4.765   2.563   2.291
 3679SOL    HW111067   4.791   2.559   2.387
 3679SOL    HW211068   4.680   2.512   2.277
 3680SOL     OW11069   3.800   2.673   2.651
 3680SOL    HW111070   3.899   2.661   2.660
 3680SOL    HW211071   3.776   2.768   2.672
 3681SOL     OW11072   3.854   3.683   3.433
 3681SOL    HW111073   3.844   3.668   3.532
 3681SOL    HW211074   3.768   3.719   3.397
 3682SOL     OW11075   4.589   2.210   2.057
 3682SOL    HW111076   4.648   2.273   2.008
 3682SOL    HW211077   4.608   2.116   2.028
 3683SOL     OW11078   4.274   2.058   2.747
 3683SOL    HW111079   4.269   2.053   2.847
 3683SOL    HW211080   4.276   2.154   2.718
 3684SOL     OW11081   4.732   3.318   2.339
 3684SOL    HW111082   4.686   3.390   2.287
 3684SOL    HW211083   4.728   3.338   2.437
 3685SOL     OW11084   4.075   3.663   2.715
 3685SOL    HW111085   4.125   3.577   2.721
 3685SOL    HW211086   4.140   3.740   2.712
 3686SOL     OW11087   4.951   3.412   3.368
 3686SOL    HW111088   4.957   3.335   3.432
 3686SOL    HW211089   4.899   3.386   3.288
 3687SOL     OW11090   4.045   2.805   2.104
 3687SOL    HW111091   4.127   2.844   2.062
 3687SOL    HW211092   4.018   2.723   2.055
 3688SOL     OW11093   4.185   3.128   3.589
 3688SOL    HW111094   4.135   3.129   3.503
 3688SOL    HW211095   4.122   3.110   3.665
 3689SOL     OW11096   4.835   3.638   2.099
 3689SOL    HW111097   4.775   3.576   2.149
 3689SOL    HW211098   4.866   3.594   2.014
 3690SOL     OW11099   3.926   2.147   3.360
 3690SOL    HW111100   3.846   2.207   3.347
 3690SOL    HW211101   3.916   2.098   3.446
 3691SOL     OW11102   4.188   3.605   2.185
 3691SOL    HW111103   4.221   3.644   2.271
 3691SOL    HW211104   4.264   3.598   2.120
 3692SOL     OW11105   3.973   3.647   3.103
 3692SOL    HW111106   4.030   3.582   3.153
 3692SOL    HW211107   3.957   3.614   3.010
 3693SOL     OW11108   4.664   3.560   2.766
 3693SOL    HW111109   4.744   3.503   2.787
 3693SOL    HW211110   4.615   3.520   2.689
 3694SOL     OW11111   4.106   2.562   2.342
 3694SOL    HW111112   4.151   2.472   2.339
 3694SOL    HW211113   4.012   2.551   2.375
 3695SOL     OW11114   4.338   1.984   1.979
 3695SOL    HW111115   4.436   1.962   1.986
 3695SOL    HW211116   4.307   1.967   1.886
 3696SOL     OW11117   4.505   2.126   3.611
 3696SOL    HW111118   4.572   2.065   3.654
 3696SOL    HW211119   4.432   2.145   3.676
 3697SOL     OW11120   4.612   3.376   3.057
 3697SOL    HW111121   4.589   3.351   2.963
 3697SOL    HW211122   4.673   3.307   3.096
 3698SOL     OW11123   4.527   3.264   2.786
 3698SOL    HW111124   4.617   3.278   2.744
 3698SOL    HW211125   4.456   3.266   2.715
 3699SOL     OW11126   4.646   2.365   2.761
 3699SOL    HW111127   4.621   2.356   2.665
 3699SOL    HW211128   4.694   2.283   2.792
 3700SOL     OW11129   4.263   1.926   2.374
 3700SOL    HW111130   4.182   1.927   2.432
 3700SOL    HW211131   4.266   2.009   2.319
 3701SOL     OW11132   4.021   1.897   2.033
 3701SOL    HW111133   4.070   1.981   2.012
 3701SOL    HW211134   4.083   1.832   2.078
 3702SOL     OW11135   4.659   2.098   2.342
 3702SOL    HW111136   4.611   2.139   2.264
 3702SOL    HW211137   4.758   2.096   2.323
 3703SOL     OW11138   4.800   2.545   3.326
 3703SOL    HW111139   4.720   2.484   3.329
 3703SOL    HW211140   4.881   2.492   3.302
 3704SOL     OW11141   4.951   3.432   2.655
 3704SOL    HW111142   4.972   3.506   2.590
 3704SOL    HW211143   5.019   3.432   2.728
 3705SOL     OW11144   4.183   3.014   2.603
 3705SOL    HW111145   4.112   2.987   2.668
 3705SOL    HW211146   4.157   2.986   2.510
 3706SOL     OW11147   4.995   3.659   2.453
 3706SOL    HW111148   5.039   3.723   2.389
 3706SOL    HW211149   4.945   3.711   2.523
 3707SOL     OW11150   4.756   2.411   1.878
 3707SOL    HW111151   4.715   2.493   1.839
 3707SOL    HW211152   4.820   2.437   1.951
 3708SOL     OW11153   3.802   2.418   3.248
 3708SOL    HW111154   3.894   2.417   3.207
 3708SOL    HW211155   3.796   2.492   3.315
 3709SOL     OW11156   4.285   2.084   3.009
 3709SOL    HW111157   4.323   2.000   3.046
 3709SOL    HW211158   4.197   2.103   3.053
 3710SOL     OW11159   4.590   2.316   2.504
 3710SOL    HW111160   4.558   2.388   2.442
 3710SOL    HW211161   4.614   2.235   2.451
 3711SOL     OW11162   4.741   1.901   2.615
 3711SOL    HW111163   4.669   1.906   2.546
 3711SOL    HW211164   4.717   1.832   2.684
 3712SOL     OW11165   4.212   3.247   2.036
 3712SOL    HW111166   4.125   3.232   2.083
 3712SOL    HW211167   4.195   3.273   1.941
 3713SOL     OW11168   4.251   2.118   2.190
 3713SOL    HW111169   4.278   2.059   2.115
 3713SOL    HW211170   4.251   2.213   2.159
 3714SOL     OW11171   4.788   3.209   3.202
 3714SOL    HW111172   4.708   3.186   3.257
 3714SOL    HW211173   4.871   3.183   3.251
 3715SOL     OW11174   4.835   3.057   2.962
 3715SOL    HW111175   4.795   3.101   3.043
 3715SOL    HW211176   4.794   3.094   2.879
 3716SOL     OW11177   4.639   1.951   3.264
 3716SOL    HW111178   4.664   1.931   3.169
 3716SOL    HW211179   4.711   2.007   3.306
 3717SOL     OW11180   4.704   2.978   3.581
 3717SOL    HW111181   4.605   2.984   3.591
 3717SOL    HW211182   4.727   2.898   3.525
 3718SOL     OW11183   4.429   2.912   2.230
 3718SOL    HW111184   4.415   2.919   2.329
 3718SOL    HW211185   4.513   2.861   2.212
 3719SOL     OW11186   4.134   2.675   3.113
 3719SOL    HW111187   4.220   2.687   3.163
 3719SOL    HW211188   4.092   2.588   3.140
 3720SOL     OW11189   4.998   2.248   3.124
 3720SOL    HW111190   5.019   2.322   3.188
 3720SOL    HW211191   4.909   2.265   3.081
 3721SOL     OW11192   3.788   3.426   3.193
 3721SOL    HW111193   3.742   3.508   3.159
 3721SOL    HW211194   3.886   3.445   3.202
 3722SOL     OW11195   4.091   2.962   2.363
 3722SOL    HW111196   4.084   3.045   2.307
 3722SOL    HW211197   4.095   2.882   2.303
 3723SOL     OW11198   4.290   2.399   2.727
 3723SOL    HW111199   4.302   2.465   2.653
 3723SOL    HW211200   4.336   2.433   2.810
 3724SOL     OW11201   4.976   3.210   2.250
 3724SOL    HW111202   5.026   3.287   2.290
 3724SOL    HW211203   4.881   3.212   2.282
 3725SOL     OW11204   4.078   3.372   3.191
 3725SOL    HW111205   4.057   3.328   3.104
 3725SOL    HW211206   4.175   3.398   3.194
 3726SOL     OW11207   4.126   2.613   3.460
 3726SOL    HW111208   4.194   2.668   3.413
 3726SOL    HW211209   4.166   2.525   3.487
 3727SOL     OW11210   4.737   1.967   3.632
 3727SOL    HW111211   4.743   2.052   3.580
 3727SOL    HW211212   4.769   1.891   3.575
 3728SOL     OW11213   4.228   1.912   3.602
 3728SOL    HW111214   4.186   1.855   3.532
 3728SOL    HW211215   4.162   1.981   3.634
 3729SOL     OW11216   4.297   2.732   2.891
 3729SOL    HW111217   4.341   2.821   2.882
 3729SOL    HW211218   4.234   2.732   2.968
 3730SOL     OW11219   5.084   2.724   2.907
 3730SOL    HW111220   5.009   2.724   2.841
 3730SOL    HW211221   5.121   2.632   2.916
 3731SOL     OW11222   4.933   2.387   2.137
 3731SOL    HW111223   4.946   2.303   2.191
 3731SOL    HW211224   4.904   2.461   2.197
 3732SOL     OW11225   4.031   2.075   3.093
 3732SOL    HW111226   4.008   2.112   3.183
 3732SOL    HW211227   4.001   1.980   3.087
 3733SOL     OW11228   3.761   3.172   3.144
 3733SOL    HW111229   3.814   3.123   3.212
 3733SOL    HW211230   3.783   3.270   3.149
 3734SOL     OW11231   4.456   2.496   2.926
 3734SOL    HW111232   4.515   2.470   2.850
 3734SOL    HW211233   4.428   2.592   2.915
 3735SOL     OW11234   4.031   1.925   2.480
 3735SOL    HW111235   4.020   2.019   2.513
 3735SOL    HW211236   4.026   1.862   2.557
 3736SOL     OW11237   5.346   2.229   2.236
 3736SOL    HW111238   5.348   2.153   2.300
 3736SOL    HW211239   5.298   2.306   2.276
 3737SOL     OW11240   4.747   2.628   2.828
 3737SOL    HW111241   4.762   2.649   2.924
 3737SOL    HW211242   4.717   2.533   2.819
 3738SOL     OW11243   4.704   3.435   3.562
 3738SOL    HW111244   4.684   3.479   3.474
 3738SOL    HW211245   4.743   3.344   3.546
 3739SOL     OW11246   4.074   2.760   3.666
 3739SOL    HW111247   4.150   2.804   3.714
 3739SOL    HW211248   4.109   2.713   3.584
 3740SOL     OW11249   4.792   3.195   2.711
 3740SOL    HW111250   4.799   3.111   2.656
 3740SOL    HW211251   4.854   3.264   2.675
 3741SOL     OW11252   4.043   2.672   2.811
 3741SOL    HW111253   4.136   2.708   2.816
 3741SOL    HW211254   4.037   2.587   2.863
 3742SOL     OW11255   4.063   2.371   2.868
 3742SOL    HW111256   4.011   2.288   2.851
 3742SOL    HW211257   4.140   2.376   2.804
 3743SOL     OW11258   4.862   2.242   3.540
 3743SOL    HW111259   4.817   2.305   3.604
 3743SOL    HW211260   4.955   2.273   3.523
 3744SOL     OW11261   4.884   2.069   3.339
 3744SOL    HW111262   4.884   2.133   3.416
 3744SOL    HW211263   4.912   2.117   3.256
 3745SOL     OW11264   3.732   3.188   2.062
 3745SOL    HW111265   3.639   3.209   2.031
 3745SOL    HW211266   3.742   3.089   2.075
 3746SOL     OW11267   3.812   3.663   2.789
 3746SOL    HW111268   3.770   3.577   2.762
 3746SOL    HW211269   3.906   3.666   2.755
 3747SOL     OW11270   4.228   3.430   2.772
 3747SOL    HW111271   4.294   3.504   2.781
 3747SOL    HW211272   4.272   3.351   2.730
 3748SOL     OW11273   4.726   2.658   3.100
 3748SOL    HW111274   4.767   2.626   3.186
 3748SOL    HW211275   4.630   2.631   3.097
 3749SOL     OW11276   3.764   2.406   2.976
 3749SOL    HW111277   3.849   2.373   2.935
 3749SOL    HW211278   3.777   2.421   3.074
 3750SOL     OW11279   3.913   2.382   3.584
 3750SOL    HW111280   3.972   2.342   3.514
 3750SOL    HW211281   3.855   2.453   3.543
 3751SOL     OW11282   4.539   2.434   2.187
 3751SOL    HW111283   4.546   2.345   2.141
 3751SOL    HW211284   4.445   2.468   2.179
 3752SOL     OW11285   3.976   3.426   3.606
 3752SOL    HW111286   3.946   3.483   3.682
 3752SOL    HW211287   3.969   3.329   3.632
 3753SOL     OW11288   4.395   2.326   3.131
 3753SOL    HW111289   4.361   2.237   3.101
 3753SOL    HW211290   4.421   2.380   3.051
 3754SOL     OW11291   4.654   3.540   3.327
 3754SOL    HW111292   4.630   3.522   3.232
 3754SOL    HW211293   4.684   3.634   3.337
 3755SOL     OW11294   4.197   2.362   2.053
 3755SOL    HW111295   4.258   2.442   2.057
 3755SOL    HW211296   4.102   2.393   2.060
 3756SOL     OW11297   3.883   2.999   3.328
 3756SOL    HW111298   3.905   2.938   3.404
 3756SOL    HW211299   3.893   2.950   3.242
 3757SOL     OW11300   5.071   2.921   3.096
 3757SOL    HW111301   5.095   2.858   3.022
 3757SOL    HW211302   4.981   2.961   3.078
 3758SOL     OW11303   4.976   3.593   2.990
 3758SOL    HW111304   5.060   3.598   2.936
 3758SOL    HW211305   4.953   3.497   3.008
 3759SOL     OW11306   3.807   3.120   2.884
 3759SOL    HW111307   3.802   3.119   2.984
 3759SOL    HW211308   3.724   3.079   2.846
 3760SOL     OW11309   4.412   3.524   3.578
 3760SOL    HW111310   4.356   3.605   3.587
 3760SOL    HW211311   4.464   3.528   3.492
 3761SOL     OW11312   5.112   3.435   2.339
 3761SOL    HW111313   5.179   3.447   2.265
 3761SOL    HW211314   5.072   3.524   2.362
 3762SOL     OW11315   3.854   3.656   3.713
 3762SOL    HW111316   3.813   3.582   3.766
 3762SOL    HW211317   3.918   3.707   3.771
 3763SOL     OW11318   4.554   3.135   3.284
 3763SOL    HW111319   4.549   3.168   3.379
 3763SOL    HW211320   4.468   3.154   3.238
 3764SOL     OW11321   4.396   3.478   2.016
 3764SOL    HW111322   4.405   3.488   1.917
 3764SOL    HW211323   4.356   3.389   2.037
 3765SOL     OW11324   3.987   2.188   2.582
 3765SOL    HW111325   3.908   2.239   2.548
 3765SOL    HW211326   3.978   2.173   2.680
 3766SOL     OW11327   4.918   3.474   1.893
 3766SOL    HW111328   4.924   3.381   1.930
 3766SOL    HW211329   4.859   3.474   1.813
 3767SOL     OW11330   4.546   2.864   3.234
 3767SOL    HW111331   4.586   2.863   3.142
 3767SOL    HW211332   4.556   2.956   3.274
 3768SOL     OW11333   4.640   2.772   2.153
 3768SOL    HW111334   4.703   2.810   2.085
 3768SOL    HW211335   4.680   2.689   2.192
 3769SOL     OW11336   4.096   3.150   3.352
 3769SOL    HW111337   4.083   3.243   3.318
 3769SOL    HW211338   4.012   3.098   3.339
 3770SOL     OW11339   4.763   2.960   2.558
 3770SOL    HW111340   4.693   2.913   2.612
 3770SOL    HW211341   4.822   2.892   2.515
 3771SOL     OW11342   4.738   2.098   2.833
 3771SOL    HW111343   4.730   2.062   2.740
 3771SOL    HW211344   4.736   2.022   2.898
 3772SOL     OW11345   4.314   3.349   2.353
 3772SOL    HW111346   4.356   3.291   2.283
 3772SOL    HW211347   4.270   3.428   2.309
 3773SOL     OW11348   3.979   3.210   2.152
 3773SOL    HW111349   3.883   3.211   2.125
 3773SOL    HW211350   3.991   3.263   2.236
 3774SOL     OW11351   3.829   2.875   3.588
 3774SOL    HW111352   3.752   2.842   3.642
 3774SOL    HW211353   3.914   2.845   3.630
 3775SOL     OW11354   4.396   2.065   3.351
 3775SOL    HW111355   4.486   2.049   3.311
 3775SOL    HW211356   4.404   2.070   3.450
 3776SOL     OW11357   3.799   2.207   1.895
 3776SOL    HW111358   3.707   2.179   1.866
 3776SOL    HW211359   3.830   2.284   1.839
 3777SOL     OW11360   3.796   2.028   2.180
 3777SOL    HW111361   3.779   2.111   2.126
 3777SOL    HW211362   3.886   1.991   2.158
 3778SOL     OW11363   4.337   2.704   3.293
 3778SOL    HW111364   4.393   2.785   3.276
 3778SOL    HW211365   4.396   2.624   3.296
 3779SOL     OW11366   4.440   2.427   3.570
 3779SOL    HW111367   4.459   2.492   3.644
 3779SOL    HW211368   4.500   2.347   3.579
 3780SOL     OW11369   4.114   3.603   3.422
 3780SOL    HW111370   4.023   3.644   3.420
 3780SOL    HW211371   4.107   3.509   3.454
 3781SOL     OW11372   4.318   2.607   2.514
 3781SOL    HW111373   4.368   2.692   2.495
 3781SOL    HW211374   4.230   2.609   2.466
 3782SOL     OW11375   4.583   3.236   1.878
 3782SOL    HW111376   4.537   3.251   1.966
 3782SOL    HW211377   4.627   3.321   1.848
 3783SOL     OW11378   4.385   3.652   2.815
 3783SOL    HW111379   4.339   3.740   2.802
 3783SOL    HW211380   4.484   3.664   2.808
 3784SOL     OW11381   4.583   2.818   2.723
 3784SOL    HW111382   4.637   2.749   2.771
 3784SOL    HW211383   4.551   2.887   2.789
 3785SOL     OW11384   4.807   2.846   1.949
 3785SOL    HW111385   4.784   2.899   1.867
 3785SOL    HW211386   4.888   2.790   1.930
 3786SOL     OW11387   3.945   3.176   3.706
 3786SOL    HW111388   3.880   3.103   3.685
 3786SOL    HW211389   3.949   3.190   3.804
 3787SOL     OW11390   3.803   3.102   2.515
 3787SOL    HW111391   3.802   3.055   2.603
 3787SOL    HW211392   3.885   3.074   2.464
 3788SOL     OW11393   4.396   3.253   3.486
 3788SOL    HW111394   4.318   3.203   3.524
 3788SOL    HW211395   4.393   3.348   3.517
 3789SOL     OW11396   4.152   2.286   2.382
 3789SOL    HW111397   4.182   2.214   2.320
 3789SOL    HW211398   4.113   2.246   2.465
 3790SOL     OW11399   4.041   2.409   3.142
 3790SOL    HW111400   4.079   2.350   3.214
 3790SOL    HW211401   4.081   2.383   3.054
 3791SOL     OW11402   4.536   3.448   2.549
 3791SOL    HW111403   4.568   3.458   2.455
 3791SOL    HW211404   4.457   3.386   2.551
 3792SOL     OW11405   4.725   1.896   3.016
 3792SOL    HW111406   4.662   1.824   2.985
 3792SOL    HW211407   4.818   1.860   3.016
 3793SOL     OW11408   4.494   3.192   2.163
 3793SOL    HW111409   4.448   3.105   2.180
 3793SOL    HW211410   4.585   3.189   2.204
 3794SOL     OW11411   4.342   3.429   3.146
 3794SOL    HW111412   4.337   3.511   3.203
 3794SOL    HW211413   4.431   3.426   3.101
 3795SOL     OW11414   3.763   2.939   2.162
 3795SOL    HW111415   3.862   2.928   2.153
 3795SOL    HW211416   3.723   2.853   2.194
 3796SOL     OW11417   4.599   3.508   2.199
 3796SOL    HW111418   4.522   3.473   2.145
 3796SOL    HW211419   4.567   3.579   2.261
 3797SOL     OW11420   3.954   2.490   3.837
 3797SOL    HW111421   3.861   2.488   3.874
 3797SOL    HW211422   3.955   2.451   3.745
 3798SOL     OW11423   3.949   2.137   4.720
 3798SOL    HW111424   3.984   2.120   4.812
 3798SOL    HW211425   3.861   2.092   4.708
 3799SOL     OW11426   3.743   2.230   4.371
 3799SOL    HW111427   3.661   2.273   4.410
 3799SOL    HW211428   3.715   2.157   4.308
 3800SOL     OW11429   4.293   3.137   4.889
 3800SOL    HW111430   4.200   3.130   4.852
 3800SOL    HW211431   4.304   3.226   4.933
 3801SOL     OW11432   4.859   2.565   4.441
 3801SOL    HW111433   4.916   2.643   4.416
 3801SOL    HW211434   4.799   2.591   4.517
 3802SOL     OW11435   4.492   3.006   4.747
 3802SOL    HW111436   4.414   3.023   4.807
 3802SOL    HW211437   4.526   3.093   4.711
 3803SOL     OW11438   4.409   2.874   4.389
 3803SOL    HW111439   4.478   2.858   4.459
 3803SOL    HW211440   4.336   2.931   4.427
 3804SOL     OW11441   4.059   3.297   4.785
 3804SOL    HW111442   3.981   3.266   4.732
 3804SOL    HW211443   4.117   3.355   4.728
 3805SOL     OW11444   3.955   3.575   4.207
 3805SOL    HW111445   3.989   3.652   4.261
 3805SOL    HW211446   3.999   3.575   4.117
 3806SOL     OW11447   3.954   3.296   4.262
 3806SOL    HW111448   3.928   3.392   4.262
 3806SOL    HW211449   3.883   3.242   4.307
 3807SOL     OW11450   3.964   2.953   4.610
 3807SOL    HW111451   3.978   2.869   4.662
 3807SOL    HW211452   3.909   3.017   4.665
 3808SOL     OW11453   4.330   2.826   3.847
 3808SOL    HW111454   4.337   2.910   3.793
 3808SOL    HW211455   4.376   2.839   3.935
 3809SOL     OW11456   3.846   2.505   4.287
 3809SOL    HW111457   3.801   2.417   4.304
 3809SOL    HW211458   3.845   2.559   4.371
 3810SOL     OW11459   3.751   3.458   3.841
 3810SOL    HW111460   3.732   3.362   3.862
 3810SOL    HW211461   3.718   3.516   3.916
 3811SOL     OW11462   4.337   3.227   4.450
 3811SOL    HW111463   4.288   3.140   4.459
 3811SOL    HW211464   4.314   3.270   4.363
 3812SOL     OW11465   4.533   1.866   4.226
 3812SOL    HW111466   4.573   1.957   4.217
 3812SOL    HW211467   4.433   1.874   4.232
 3813SOL     OW11468   3.921   2.838   4.988
 3813SOL    HW111469   4.010   2.793   4.974
 3813SOL    HW211470   3.848   2.773   4.969
 3814SOL     OW11471   4.322   2.591   3.994
 3814SOL    HW111472   4.346   2.660   3.926
 3814SOL    HW211473   4.244   2.624   4.048
 3815SOL     OW11474   5.005   2.207   4.668
 3815SOL    HW111475   4.919   2.157   4.655
 3815SOL    HW211476   5.067   2.153   4.724
 3816SOL     OW11477   4.715   2.272   4.966
 3816SOL    HW111478   4.638   2.306   5.020
 3816SOL    HW211479   4.681   2.221   4.887
 3817SOL     OW11480   4.765   2.563   4.153
 3817SOL    HW111481   4.791   2.559   4.249
 3817SOL    HW211482   4.680   2.512   4.139
 3818SOL     OW11483   3.800   2.673   4.513
 3818SOL    HW111484   3.899   2.661   4.522
 3818SOL    HW211485   3.776   2.768   4.534
 3819SOL     OW11486   4.589   2.210   3.919
 3819SOL    HW111487   4.648   2.273   3.870
 3819SOL    HW211488   4.608   2.116   3.890
 3820SOL     OW11489   4.274   2.058   4.609
 3820SOL    HW111490   4.269   2.053   4.709
 3820SOL    HW211491   4.276   2.154   4.580
 3821SOL     OW11492   4.732   3.318   4.201
 3821SOL    HW111493   4.686   3.390   4.149
 3821SOL    HW211494   4.728   3.338   4.299
 3822SOL     OW11495   4.075   3.663   4.577
 3822SOL    HW111496   4.125   3.577   4.583
 3822SOL    HW211497   4.140   3.740   4.574
 3823SOL     OW11498   4.045   2.805   3.966
 3823SOL    HW111499   4.127   2.844   3.924
 3823SOL    HW211500   4.018   2.723   3.917
 3824SOL     OW11501   4.835   3.638   3.961
 3824SOL    HW111502   4.775   3.576   4.011
 3824SOL    HW211503   4.866   3.594   3.876
 3825SOL     OW11504   4.188   3.605   4.047
 3825SOL    HW111505   4.221   3.644   4.133
 3825SOL    HW211506   4.264   3.598   3.982
 3826SOL     OW11507   3.973   3.647   4.965
 3826SOL    HW111508   4.030   3.582   5.015
 3826SOL    HW211509   3.957   3.614   4.872
 3827SOL     OW11510   4.664   3.560   4.628
 3827SOL    HW111511   4.744   3.503   4.649
 3827SOL    HW211512   4.615   3.520   4.551
 3828SOL     OW11513   4.106   2.562   4.204
 3828SOL    HW111514   4.151   2.472   4.201
 3828SOL    HW211515   4.012   2.551   4.237
 3829SOL     OW11516   4.338   1.984   3.841
 3829SOL    HW111517   4.436   1.962   3.848
 3829SOL    HW211518   4.307   1.967   3.748
 3830SOL     OW11519   4.527   3.264   4.648
 3830SOL    HW111520   4.617   3.278   4.606
 3830SOL    HW211521   4.456   3.266   4.577
 3831SOL     OW11522   4.646   2.365   4.623
 3831SOL    HW111523   4.621   2.356   4.527
 3831SOL    HW211524   4.694   2.283   4.654
 3832SOL     OW11525   4.263   1.926   4.236
 3832SOL    HW111526   4.182   1.927   4.294
 3832SOL    HW211527   4.266   2.009   4.181
 3833SOL     OW11528   4.021   1.897   3.895
 3833SOL    HW111529   4.070   1.981   3.874
 3833SOL    HW211530   4.083   1.832   3.940
 3834SOL     OW11531   4.659   2.098   4.204
 3834SOL    HW111532   4.611   2.139   4.126
 3834SOL    HW211533   4.758   2.096   4.185
 3835SOL     OW11534   4.951   3.432   4.517
 3835SOL    HW111535   4.972   3.506   4.452
 3835SOL    HW211536   5.019   3.432   4.590
 3836SOL     OW11537   4.183   3.014   4.465
 3836SOL    HW111538   4.112   2.987   4.530
 3836SOL    HW211539   4.157   2.986   4.372
 3837SOL     OW11540   4.995   3.659   4.315
 3837SOL    HW111541   5.039   3.723   4.251
 3837SOL    HW211542   4.945   3.711   4.385
 3838SOL     OW11543   4.756   2.411   3.740
 3838SOL    HW111544   4.715   2.493   3.701
 3838SOL    HW211545   4.820   2.437   3.813
 3839SOL     OW11546   4.285   2.084   4.871
 3839SOL    HW111547   4.323   2.000   4.908
 3839SOL    HW211548   4.197   2.103   4.915
 3840SOL     OW11549   4.590   2.316   4.366
 3840SOL    HW111550   4.558   2.388   4.304
 3840SOL    HW211551   4.614   2.235   4.313
 3841SOL     OW11552   4.741   1.901   4.477
 3841SOL    HW111553   4.669   1.906   4.408
 3841SOL    HW211554   4.717   1.832   4.546
 3842SOL     OW11555   4.212   3.247   3.898
 3842SOL    HW111556   4.125   3.232   3.945
 3842SOL    HW211557   4.195   3.273   3.803
 3843SOL     OW11558   4.251   2.118   4.052
 3843SOL    HW111559   4.278   2.059   3.977
 3843SOL    HW211560   4.251   2.213   4.021
 3844SOL     OW11561   4.835   3.057   4.824
 3844SOL    HW111562   4.795   3.101   4.905
 3844SOL    HW211563   4.794   3.094   4.741
 3845SOL     OW11564   4.429   2.912   4.092
 3845SOL    HW111565   4.415   2.919   4.191
 3845SOL    HW211566   4.513   2.861   4.074
 3846SOL     OW11567   4.134   2.675   4.975
 3846SOL    HW111568   4.220   2.687   5.025
 3846SOL    HW211569   4.092   2.588   5.002
 3847SOL     OW11570   4.091   2.962   4.225
 3847SOL    HW111571   4.084   3.045   4.169
 3847SOL    HW211572   4.095   2.882   4.165
 3848SOL     OW11573   4.290   2.399   4.589
 3848SOL    HW111574   4.302   2.465   4.515
 3848SOL    HW211575   4.336   2.433   4.672
 3849SOL     OW11576   4.976   3.210   4.112
 3849SOL    HW111577   5.026   3.287   4.152
 3849SOL    HW211578   4.881   3.212   4.144
 3850SOL     OW11579   4.078   3.372   5.053
 3850SOL    HW111580   4.057   3.328   4.966
 3850SOL    HW211581   4.175   3.398   5.056
 3851SOL     OW11582   4.297   2.732   4.753
 3851SOL    HW111583   4.341   2.821   4.744
 3851SOL    HW211584   4.234   2.732   4.830
 3852SOL     OW11585   5.084   2.724   4.769
 3852SOL    HW111586   5.009   2.724   4.703
 3852SOL    HW211587   5.121   2.632   4.778
 3853SOL     OW11588   4.933   2.387   3.999
 3853SOL    HW111589   4.946   2.303   4.053
 3853SOL    HW211590   4.904   2.461   4.059
 3854SOL     OW11591   4.031   2.075   4.955
 3854SOL    HW111592   4.008   2.112   5.045
 3854SOL    HW211593   4.001   1.980   4.949
 3855SOL     OW11594   3.761   3.172   5.006
 3855SOL    HW111595   3.814   3.123   5.074
 3855SOL    HW211596   3.783   3.270   5.011
 3856SOL     OW11597   4.456   2.496   4.788
 3856SOL    HW111598   4.515   2.470   4.712
 3856SOL    HW211599   4.428   2.592   4.777
 3857SOL     OW11600   4.031   1.925   4.342
 3857SOL    HW111601   4.020   2.019   4.375
 3857SOL    HW211602   4.026   1.862   4.419
 3858SOL     OW11603   5.346   2.229   4.098
 3858SOL    HW111604   5.348   2.153   4.162
 3858SOL    HW211605   5.298   2.306   4.138
 3859SOL     OW11606   4.747   2.628   4.690
 3859SOL    HW111607   4.762   2.649   4.786
 3859SOL    HW211608   4.717   2.533   4.681
 3860SOL     OW11609   4.792   3.195   4.573
 3860SOL    HW111610   4.799   3.111   4.518
 3860SOL    HW211611   4.854   3.264   4.537
 3861SOL     OW11612   4.043   2.672   4.673
 3861SOL    HW111613   4.136   2.708   4.678
 3861SOL    HW211614   4.037   2.587   4.725
 3862SOL     OW11615   4.063   2.371   4.730
 3862SOL    HW111616   4.011   2.288   4.713
 3862SOL    HW211617   4.140   2.376   4.666
 3863SOL     OW11618   4.884   2.069   5.201
 3863SOL    HW111619   4.884   2.133   5.278
 3863SOL    HW211620   4.912   2.117   5.118
 3864SOL     OW11621   3.732   3.188   3.924
 3864SOL    HW111622   3.639   3.209   3.893
 3864SOL    HW211623   3.742   3.089   3.937
 3865SOL     OW11624   3.812   3.663   4.651
 3865SOL    HW111625   3.770   3.577   4.624
 3865SOL    HW211626   3.906   3.666   4.617
 3866SOL     OW11627   4.228   3.430   4.634
 3866SOL    HW111628   4.294   3.504   4.643
 3866SOL    HW211629   4.272   3.351   4.592
 3867SOL     OW11630   4.726   2.658   4.962
 3867SOL    HW111631   4.767   2.626   5.048
 3867SOL    HW211632   4.630   2.631   4.959
 3868SOL     OW11633   3.764   2.406   4.838
 3868SOL    HW111634   3.849   2.373   4.797
 3868SOL    HW211635   3.777   2.421   4.936
 3869SOL     OW11636   4.539   2.434   4.049
 3869SOL    HW111637   4.546   2.345   4.003
 3869SOL    HW211638   4.445   2.468   4.041
 3870SOL     OW11639   4.395   2.326   4.993
 3870SOL    HW111640   4.361   2.237   4.963
 3870SOL    HW211641   4.421   2.380   4.913
 3871SOL     OW11642   4.654   3.540   5.189
 3871SOL    HW111643   4.630   3.522   5.094
 3871SOL    HW211644   4.684   3.634   5.199
 3872SOL     OW11645   4.197   2.362   3.915
 3872SOL    HW111646   4.258   2.442   3.919
 3872SOL    HW211647   4.102   2.393   3.922
 3873SOL     OW11648   5.071   2.921   4.958
 3873SOL    HW111649   5.095   2.858   4.884
 3873SOL    HW211650   4.981   2.961   4.940
 3874SOL     OW11651   4.976   3.593   4.852
 3874SOL    HW111652   5.060   3.598   4.798
 3874SOL    HW211653   4.953   3.497   4.870
 3875SOL     OW11654   3.807   3.120   4.746
 3875SOL    HW111655   3.802   3.119   4.846
 3875SOL    HW211656   3.724   3.079   4.708
 3876SOL     OW11657   5.112   3.435   4.201
 3876SOL    HW111658   5.179   3.447   4.127
 3876SOL    HW211659   5.072   3.524   4.224
 3877SOL     OW11660   4.396   3.478   3.878
 3877SOL    HW111661   4.405   3.488   3.779
 3877SOL    HW211662   4.356   3.389   3.899
 3878SOL     OW11663   3.987   2.188   4.444
 3878SOL    HW111664   3.908   2.239   4.410
 3878SOL    HW211665   3.978   2.173   4.542
 3879SOL     OW11666   4.918   3.474   3.755
 3879SOL    HW111667   4.924   3.381   3.792
 3879SOL    HW211668   4.859   3.474   3.675
 3880SOL     OW11669   4.546   2.864   5.096
 3880SOL    HW111670   4.586   2.863   5.004
 3880SOL    HW211671   4.556   2.956   5.136
 3881SOL     OW11672   4.640   2.772   4.015
 3881SOL    HW111673   4.703   2.810   3.947
 3881SOL    HW211674   4.680   2.689   4.054
 3882SOL     OW11675   5.338   3.154   5.013
 3882SOL    HW111676   5.398   3.157   5.093
 3882SOL    HW211677   5.263   3.218   5.026
 3883SOL     OW11678   4.763   2.960   4.420
 3883SOL    HW111679   4.693   2.913   4.474
 3883SOL    HW211680   4.822   2.892   4.377
 3884SOL     OW11681   4.738   2.098   4.695
 3884SOL    HW111682   4.730   2.062   4.602
 3884SOL    HW211683   4.736   2.022   4.760
 3885SOL     OW11684   4.314   3.349   4.215
 3885SOL    HW111685   4.356   3.291   4.145
 3885SOL    HW211686   4.270   3.428   4.171
 3886SOL     OW11687   3.979   3.210   4.014
 3886SOL    HW111688   3.883   3.211   3.987
 3886SOL    HW211689   3.991   3.263   4.098
 3887SOL     OW11690   3.799   2.207   3.757
 3887SOL    HW111691   3.707   2.179   3.728
 3887SOL    HW211692   3.830   2.284   3.701
 3888SOL     OW11693   3.796   2.028   4.042
 3888SOL    HW111694   3.779   2.111   3.988
 3888SOL    HW211695   3.886   1.991   4.020
 3889SOL     OW11696   4.318   2.607   4.376
 3889SOL    HW111697   4.368   2.692   4.357
 3889SOL    HW211698   4.230   2.609   4.328
 3890SOL     OW11699   4.583   3.236   3.740
 3890SOL    HW111700   4.537   3.251   3.828
 3890SOL    HW211701   4.627   3.321   3.710
 3891SOL     OW11702   4.385   3.652   4.677
 3891SOL    HW111703   4.339   3.740   4.664
 3891SOL    HW211704   4.484   3.664   4.670
 3892SOL     OW11705   4.583   2.818   4.585
 3892SOL    HW111706   4.637   2.749   4.633
 3892SOL    HW211707   4.551   2.887   4.651
 3893SOL     OW11708   4.807   2.846   3.811
 3893SOL    HW111709   4.784   2.899   3.729
 3893SOL    HW211710   4.888   2.790   3.792
 3894SOL     OW11711   3.803   3.102   4.377
 3894SOL    HW111712   3.802   3.055   4.465
 3894SOL    HW211713   3.885   3.074   4.326
 3895SOL     OW11714   4.152   2.286   4.244
 3895SOL    HW111715   4.182   2.214   4.182
 3895SOL    HW211716   4.113   2.246   4.327
 3896SOL     OW11717   4.536   3.448   4.411
 3896SOL    HW111718   4.568   3.458   4.317
 3896SOL    HW211719   4.457   3.386   4.413
 3897SOL     OW11720   4.725   1.896   4.878
 3897SOL    HW111721   4.662   1.824   4.847
 3897SOL    HW211722   4.818   1.860   4.878
 3898SOL     OW11723   4.494   3.192   4.025
 3898SOL    HW111724   4.448   3.105   4.042
 3898SOL    HW211725   4.585   3.189   4.066
 3899SOL     OW11726   3.763   2.939   4.024
 3899SOL    HW111727   3.862   2.928   4.015
 3899SOL    HW211728   3.723   2.853   4.056
 3900SOL     OW11729   4.599   3.508   4.061
 3900SOL    HW111730   4.522   3.473   4.007
 3900SOL    HW211731   4.567   3.579   4.123
 3901SOL     OW11732   3.954   4.352   0.113
 3901SOL    HW111733   3.861   4.350   0.150
 3901SOL    HW211734   3.955   4.313   0.021
 3902SOL     OW11735   3.949   3.999   0.996
 3902SOL    HW111736   3.984   3.982   1.088
 3902SOL    HW211737   3.861   3.954   0.984
 3903SOL     OW11738   3.743   4.092   0.647
 3903SOL    HW111739   3.661   4.135   0.686
 3903SOL    HW211740   3.715   4.019   0.584
 3904SOL     OW11741   4.859   4.427   0.717
 3904SOL    HW111742   4.916   4.505   0.692
 3904SOL    HW211743   4.799   4.453   0.793
 3905SOL     OW11744   4.492   4.868   1.023
 3905SOL    HW111745   4.414   4.885   1.083
 3905SOL    HW211746   4.526   4.955   0.987
 3906SOL     OW11747   4.574   4.522   1.823
 3906SOL    HW111748   4.570   4.598   1.888
 3906SOL    HW211749   4.596   4.558   1.732
 3907SOL     OW11750   4.409   4.736   0.665
 3907SOL    HW111751   4.478   4.720   0.735
 3907SOL    HW211752   4.336   4.793   0.703
 3908SOL     OW11753   4.410   4.885   1.803
 3908SOL    HW111754   4.470   4.964   1.817
 3908SOL    HW211755   4.324   4.916   1.762
 3909SOL     OW11756   4.059   5.159   1.061
 3909SOL    HW111757   3.981   5.128   1.008
 3909SOL    HW211758   4.117   5.217   1.004
 3910SOL     OW11759   4.162   4.116   1.499
 3910SOL    HW111760   4.244   4.060   1.508
 3910SOL    HW211761   4.081   4.058   1.503
 3911SOL     OW11762   3.964   4.815   0.886
 3911SOL    HW111763   3.978   4.731   0.938
 3911SOL    HW211764   3.909   4.879   0.941
 3912SOL     OW11765   4.330   4.688   0.123
 3912SOL    HW111766   4.337   4.772   0.069
 3912SOL    HW211767   4.376   4.701   0.211
 3913SOL     OW11768   3.846   4.367   0.563
 3913SOL    HW111769   3.801   4.279   0.580
 3913SOL    HW211770   3.845   4.421   0.647
 3914SOL     OW11771   3.837   4.461   1.597
 3914SOL    HW111772   3.925   4.448   1.642
 3914SOL    HW211773   3.824   4.558   1.575
 3915SOL     OW11774   5.017   4.952   1.423
 3915SOL    HW111775   5.054   4.879   1.365
 3915SOL    HW211776   5.069   4.957   1.508
 3916SOL     OW11777   4.533   3.728   0.502
 3916SOL    HW111778   4.573   3.819   0.493
 3916SOL    HW211779   4.433   3.736   0.508
 3917SOL     OW11780   3.921   4.700   1.264
 3917SOL    HW111781   4.010   4.655   1.250
 3917SOL    HW211782   3.848   4.635   1.245
 3918SOL     OW11783   4.041   3.975   1.801
 3918SOL    HW111784   4.112   4.046   1.807
 3918SOL    HW211785   3.953   4.014   1.829
 3919SOL     OW11786   4.322   4.453   0.270
 3919SOL    HW111787   4.346   4.522   0.202
 3919SOL    HW211788   4.244   4.486   0.324
 3920SOL     OW11789   5.005   4.069   0.944
 3920SOL    HW111790   4.919   4.019   0.931
 3920SOL    HW211791   5.067   4.015   1.000
 3921SOL     OW11792   4.531   4.329   1.465
 3921SOL    HW111793   4.484   4.326   1.554
 3921SOL    HW211794   4.480   4.274   1.399
 3922SOL     OW11795   4.697   4.614   1.572
 3922SOL    HW111796   4.743   4.530   1.543
 3922SOL    HW211797   4.641   4.648   1.497
 3923SOL     OW11798   4.715   4.134   1.242
 3923SOL    HW111799   4.638   4.168   1.296
 3923SOL    HW211800   4.681   4.083   1.163
 3924SOL     OW11801   4.765   4.425   0.429
 3924SOL    HW111802   4.791   4.421   0.525
 3924SOL    HW211803   4.680   4.374   0.415
 3925SOL     OW11804   3.800   4.535   0.789
 3925SOL    HW111805   3.899   4.523   0.798
 3925SOL    HW211806   3.776   4.630   0.810
 3926SOL     OW11807   4.589   4.072   0.195
 3926SOL    HW111808   4.648   4.135   0.146
 3926SOL    HW211809   4.608   3.978   0.166
 3927SOL     OW11810   4.274   3.920   0.885
 3927SOL    HW111811   4.269   3.915   0.985
 3927SOL    HW211812   4.276   4.016   0.856
 3928SOL     OW11813   4.045   4.667   0.242
 3928SOL    HW111814   4.127   4.706   0.200
 3928SOL    HW211815   4.018   4.585   0.193
 3929SOL     OW11816   3.926   4.009   1.498
 3929SOL    HW111817   3.846   4.069   1.485
 3929SOL    HW211818   3.916   3.960   1.584
 3930SOL     OW11819   4.106   4.424   0.480
 3930SOL    HW111820   4.151   4.334   0.477
 3930SOL    HW211821   4.012   4.413   0.513
 3931SOL     OW11822   4.338   3.846   0.117
 3931SOL    HW111823   4.436   3.824   0.124
 3931SOL    HW211824   4.307   3.829   0.024
 3932SOL     OW11825   4.505   3.988   1.749
 3932SOL    HW111826   4.572   3.927   1.792
 3932SOL    HW211827   4.432   4.007   1.814
 3933SOL     OW11828   4.527   5.126   0.924
 3933SOL    HW111829   4.617   5.140   0.882
 3933SOL    HW211830   4.456   5.128   0.853
 3934SOL     OW11831   4.646   4.227   0.899
 3934SOL    HW111832   4.621   4.218   0.803
 3934SOL    HW211833   4.694   4.145   0.930
 3935SOL     OW11834   4.263   3.788   0.512
 3935SOL    HW111835   4.182   3.789   0.570
 3935SOL    HW211836   4.266   3.871   0.457
 3936SOL     OW11837   4.021   3.759   0.171
 3936SOL    HW111838   4.070   3.843   0.150
 3936SOL    HW211839   4.083   3.694   0.216
 3937SOL     OW11840   4.659   3.960   0.480
 3937SOL    HW111841   4.611   4.001   0.402
 3937SOL    HW211842   4.758   3.958   0.461
 3938SOL     OW11843   4.800   4.407   1.464
 3938SOL    HW111844   4.720   4.346   1.467
 3938SOL    HW211845   4.881   4.354   1.440
 3939SOL     OW11846   4.183   4.876   0.741
 3939SOL    HW111847   4.112   4.849   0.806
 3939SOL    HW211848   4.157   4.848   0.648
 3940SOL     OW11849   4.756   4.273   0.016
 3940SOL    HW111850   4.715   4.355  -0.023
 3940SOL    HW211851   4.820   4.299   0.089
 3941SOL     OW11852   3.802   4.280   1.386
 3941SOL    HW111853   3.894   4.279   1.345
 3941SOL    HW211854   3.796   4.354   1.453
 3942SOL     OW11855   4.285   3.946   1.147
 3942SOL    HW111856   4.323   3.862   1.184
 3942SOL    HW211857   4.197   3.965   1.191
 3943SOL     OW11858   4.590   4.178   0.642
 3943SOL    HW111859   4.558   4.250   0.580
 3943SOL    HW211860   4.614   4.097   0.589
 3944SOL     OW11861   4.741   3.763   0.753
 3944SOL    HW111862   4.669   3.768   0.684
 3944SOL    HW211863   4.717   3.694   0.822
 3945SOL     OW11864   4.251   3.980   0.328
 3945SOL    HW111865   4.278   3.921   0.253
 3945SOL    HW211866   4.251   4.075   0.297
 3946SOL     OW11867   4.639   3.813   1.402
 3946SOL    HW111868   4.664   3.793   1.307
 3946SOL    HW211869   4.711   3.869   1.444
 3947SOL     OW11870   4.704   4.840   1.719
 3947SOL    HW111871   4.605   4.846   1.729
 3947SOL    HW211872   4.727   4.760   1.663
 3948SOL     OW11873   4.429   4.774   0.368
 3948SOL    HW111874   4.415   4.781   0.467
 3948SOL    HW211875   4.513   4.723   0.350
 3949SOL     OW11876   4.134   4.537   1.251
 3949SOL    HW111877   4.220   4.549   1.301
 3949SOL    HW211878   4.092   4.450   1.278
 3950SOL     OW11879   4.998   4.110   1.262
 3950SOL    HW111880   5.019   4.184   1.326
 3950SOL    HW211881   4.909   4.127   1.219
 3951SOL     OW11882   4.091   4.824   0.501
 3951SOL    HW111883   4.084   4.907   0.445
 3951SOL    HW211884   4.095   4.744   0.441
 3952SOL     OW11885   4.290   4.261   0.865
 3952SOL    HW111886   4.302   4.327   0.791
 3952SOL    HW211887   4.336   4.295   0.948
 3953SOL     OW11888   4.976   5.072   0.388
 3953SOL    HW111889   5.026   5.149   0.428
 3953SOL    HW211890   4.881   5.074   0.420
 3954SOL     OW11891   4.126   4.475   1.598
 3954SOL    HW111892   4.194   4.530   1.551
 3954SOL    HW211893   4.166   4.387   1.625
 3955SOL     OW11894   4.737   3.829   1.770
 3955SOL    HW111895   4.743   3.914   1.718
 3955SOL    HW211896   4.769   3.753   1.713
 3956SOL     OW11897   4.228   3.774   1.740
 3956SOL    HW111898   4.186   3.717   1.670
 3956SOL    HW211899   4.162   3.843   1.772
 3957SOL     OW11900   4.297   4.594   1.029
 3957SOL    HW111901   4.341   4.683   1.020
 3957SOL    HW211902   4.234   4.594   1.106
 3958SOL     OW11903   5.084   4.586   1.045
 3958SOL    HW111904   5.009   4.586   0.979
 3958SOL    HW211905   5.121   4.494   1.054
 3959SOL     OW11906   4.933   4.249   0.275
 3959SOL    HW111907   4.946   4.165   0.329
 3959SOL    HW211908   4.904   4.323   0.335
 3960SOL     OW11909   4.031   3.937   1.231
 3960SOL    HW111910   4.008   3.974   1.321
 3960SOL    HW211911   4.001   3.842   1.225
 3961SOL     OW11912   4.456   4.358   1.064
 3961SOL    HW111913   4.515   4.332   0.988
 3961SOL    HW211914   4.428   4.454   1.053
 3962SOL     OW11915   4.031   3.787   0.618
 3962SOL    HW111916   4.020   3.881   0.651
 3962SOL    HW211917   4.026   3.724   0.695
 3963SOL     OW11918   5.346   4.091   0.374
 3963SOL    HW111919   5.348   4.015   0.438
 3963SOL    HW211920   5.298   4.168   0.414
 3964SOL     OW11921   4.747   4.490   0.966
 3964SOL    HW111922   4.762   4.511   1.062
 3964SOL    HW211923   4.717   4.395   0.957
 3965SOL     OW11924   4.074   4.622   1.804
 3965SOL    HW111925   4.150   4.666   1.852
 3965SOL    HW211926   4.109   4.575   1.722
 3966SOL     OW11927   5.027   4.562   0.042
 3966SOL    HW111928   5.061   4.469   0.057
 3966SOL    HW211929   5.045   4.589  -0.053
 3967SOL     OW11930   4.043   4.534   0.949
 3967SOL    HW111931   4.136   4.570   0.954
 3967SOL    HW211932   4.037   4.449   1.001
 3968SOL     OW11933   4.063   4.233   1.006
 3968SOL    HW111934   4.011   4.150   0.989
 3968SOL    HW211935   4.140   4.238   0.942
 3969SOL     OW11936   4.862   4.104   1.678
 3969SOL    HW111937   4.817   4.167   1.742
 3969SOL    HW211938   4.955   4.135   1.661
 3970SOL     OW11939   4.884   3.931   1.477
 3970SOL    HW111940   4.884   3.995   1.554
 3970SOL    HW211941   4.912   3.979   1.394
 3971SOL     OW11942   4.726   4.520   1.238
 3971SOL    HW111943   4.767   4.488   1.324
 3971SOL    HW211944   4.630   4.493   1.235
 3972SOL     OW11945   3.764   4.268   1.114
 3972SOL    HW111946   3.849   4.235   1.073
 3972SOL    HW211947   3.777   4.283   1.212
 3973SOL     OW11948   3.913   4.244   1.722
 3973SOL    HW111949   3.972   4.204   1.652
 3973SOL    HW211950   3.855   4.315   1.681
 3974SOL     OW11951   4.539   4.296   0.325
 3974SOL    HW111952   4.546   4.207   0.279
 3974SOL    HW211953   4.445   4.330   0.317
 3975SOL     OW11954   4.395   4.188   1.269
 3975SOL    HW111955   4.361   4.099   1.239
 3975SOL    HW211956   4.421   4.242   1.189
 3976SOL     OW11957   4.197   4.224   0.191
 3976SOL    HW111958   4.258   4.304   0.195
 3976SOL    HW211959   4.102   4.255   0.198
 3977SOL     OW11960   3.883   4.861   1.466
 3977SOL    HW111961   3.905   4.800   1.542
 3977SOL    HW211962   3.893   4.812   1.380
 3978SOL     OW11963   5.071   4.783   1.234
 3978SOL    HW111964   5.095   4.720   1.160
 3978SOL    HW211965   4.981   4.823   1.216
 3979SOL     OW11966   3.807   4.982   1.022
 3979SOL    HW111967   3.802   4.981   1.122
 3979SOL    HW211968   3.724   4.941   0.984
 3980SOL     OW11969   4.627   3.810   0.133
 3980SOL    HW111970   4.678   3.811   0.047
 3980SOL    HW211971   4.683   3.768   0.204
 3981SOL     OW11972   4.554   4.997   1.422
 3981SOL    HW111973   4.549   5.030   1.517
 3981SOL    HW211974   4.468   5.016   1.376
 3982SOL     OW11975   3.987   4.050   0.720
 3982SOL    HW111976   3.908   4.101   0.686
 3982SOL    HW211977   3.978   4.035   0.818
 3983SOL     OW11978   4.546   4.726   1.372
 3983SOL    HW111979   4.586   4.725   1.280
 3983SOL    HW211980   4.556   4.818   1.412
 3984SOL     OW11981   4.640   4.634   0.291
 3984SOL    HW111982   4.703   4.672   0.223
 3984SOL    HW211983   4.680   4.551   0.330
 3985SOL     OW11984   4.096   5.012   1.490
 3985SOL    HW111985   4.083   5.105   1.456
 3985SOL    HW211986   4.012   4.960   1.477
 3986SOL     OW11987   4.763   4.822   0.696
 3986SOL    HW111988   4.693   4.775   0.750
 3986SOL    HW211989   4.822   4.754   0.653
 3987SOL     OW11990   4.738   3.960   0.971
 3987SOL    HW111991   4.730   3.924   0.878
 3987SOL    HW211992   4.736   3.884   1.036
 3988SOL     OW11993   3.829   4.737   1.726
 3988SOL    HW111994   3.752   4.704   1.780
 3988SOL    HW211995   3.914   4.707   1.768
 3989SOL     OW11996   4.396   3.927   1.489
 3989SOL    HW111997   4.486   3.911   1.449
 3989SOL    HW211998   4.404   3.932   1.588
 3990SOL     OW11999   3.796   3.890   0.318
 3990SOL    HW112000   3.779   3.973   0.264
 3990SOL    HW212001   3.886   3.853   0.296
 3991SOL     OW12002   4.337   4.566   1.431
 3991SOL    HW112003   4.393   4.647   1.414
 3991SOL    HW212004   4.396   4.486   1.434
 3992SOL     OW12005   4.440   4.289   1.708
 3992SOL    HW112006   4.459   4.354   1.782
 3992SOL    HW212007   4.500   4.209   1.717
 3993SOL     OW12008   5.174   4.944   1.633
 3993SOL    HW112009   5.165   4.934   1.732
 3993SOL    HW212010   5.270   4.937   1.607
 3994SOL     OW12011   4.318   4.469   0.652
 3994SOL    HW112012   4.368   4.554   0.633
 3994SOL    HW212013   4.230   4.471   0.604
 3995SOL     OW12014   4.583   4.680   0.861
 3995SOL    HW112015   4.637   4.611   0.909
 3995SOL    HW212016   4.551   4.749   0.927
 3996SOL     OW12017   4.807   4.708   0.087
 3996SOL    HW112018   4.784   4.761   0.005
 3996SOL    HW212019   4.888   4.652   0.068
 3997SOL     OW12020   3.803   4.964   0.653
 3997SOL    HW112021   3.802   4.917   0.741
 3997SOL    HW212022   3.885   4.936   0.602
 3998SOL     OW12023   4.152   4.148   0.520
 3998SOL    HW112024   4.182   4.076   0.458
 3998SOL    HW212025   4.113   4.108   0.603
 3999SOL     OW12026   4.041   4.271   1.280
 3999SOL    HW112027   4.079   4.212   1.352
 3999SOL    HW212028   4.081   4.245   1.192
 4000SOL     OW12029   4.725   3.758   1.154
 4000SOL    HW112030   4.662   3.686   1.123
 4000SOL    HW212031   4.818   3.722   1.154
 4001SOL     OW12032   4.494   5.054   0.301
 4001SOL    HW112033   4.448   4.967   0.318
 4001SOL    HW212034   4.585   5.051   0.342
 4002SOL     OW12035   3.763   4.801   0.300
 4002SOL    HW112036   3.862   4.790   0.291
 4002SOL    HW212037   3.723   4.715   0.332
 4003SOL     OW12038   3.954   4.352   1.975
 4003SOL    HW112039   3.861   4.350   2.012
 4003SOL    HW212040   3.955   4.313   1.883
 4004SOL     OW12041   3.949   3.999   2.858
 4004SOL    HW112042   3.984   3.982   2.950
 4004SOL    HW212043   3.861   3.954   2.846
 4005SOL     OW12044   3.743   4.092   2.509
 4005SOL    HW112045   3.661   4.135   2.548
 4005SOL    HW212046   3.715   4.019   2.446
 4006SOL     OW12047   4.859   4.427   2.579
 4006SOL    HW112048   4.916   4.505   2.554
 4006SOL    HW212049   4.799   4.453   2.655
 4007SOL     OW12050   4.492   4.868   2.885
 4007SOL    HW112051   4.414   4.885   2.945
 4007SOL    HW212052   4.526   4.955   2.849
 4008SOL     OW12053   4.574   4.522   3.685
 4008SOL    HW112054   4.570   4.598   3.750
 4008SOL    HW212055   4.596   4.558   3.594
 4009SOL     OW12056   4.409   4.736   2.527
 4009SOL    HW112057   4.478   4.720   2.597
 4009SOL    HW212058   4.336   4.793   2.565
 4010SOL     OW12059   4.410   4.885   3.665
 4010SOL    HW112060   4.470   4.964   3.679
 4010SOL    HW212061   4.324   4.916   3.624
 4011SOL     OW12062   4.059   5.159   2.923
 4011SOL    HW112063   3.981   5.128   2.870
 4011SOL    HW212064   4.117   5.217   2.866
 4012SOL     OW12065   4.162   4.116   3.361
 4012SOL    HW112066   4.244   4.060   3.370
 4012SOL    HW212067   4.081   4.058   3.365
 4013SOL     OW12068   3.964   4.815   2.748
 4013SOL    HW112069   3.978   4.731   2.800
 4013SOL    HW212070   3.909   4.879   2.803
 4014SOL     OW12071   4.330   4.688   1.985
 4014SOL    HW112072   4.337   4.772   1.931
 4014SOL    HW212073   4.376   4.701   2.073
 4015SOL     OW12074   3.846   4.367   2.425
 4015SOL    HW112075   3.801   4.279   2.442
 4015SOL    HW212076   3.845   4.421   2.509
 4016SOL     OW12077   3.837   4.461   3.459
 4016SOL    HW112078   3.925   4.448   3.504
 4016SOL    HW212079   3.824   4.558   3.437
 4017SOL     OW12080   5.017   4.952   3.285
 4017SOL    HW112081   5.054   4.879   3.227
 4017SOL    HW212082   5.069   4.957   3.370
 4018SOL     OW12083   4.533   3.728   2.364
 4018SOL    HW112084   4.573   3.819   2.355
 4018SOL    HW212085   4.433   3.736   2.370
 4019SOL     OW12086   3.921   4.700   3.126
 4019SOL    HW112087   4.010   4.655   3.112
 4019SOL    HW212088   3.848   4.635   3.107
 4020SOL     OW12089   4.041   3.975   3.663
 4020SOL    HW112090   4.112   4.046   3.669
 4020SOL    HW212091   3.953   4.014   3.691
 4021SOL     OW12092   4.322   4.453   2.132
 4021SOL    HW112093   4.346   4.522   2.064
 4021SOL    HW212094   4.244   4.486   2.186
 4022SOL     OW12095   5.005   4.069   2.806
 4022SOL    HW112096   4.919   4.019   2.793
 4022SOL    HW212097   5.067   4.015   2.862
 4023SOL     OW12098   4.531   4.329   3.327
 4023SOL    HW112099   4.484   4.326   3.416
 4023SOL    HW212100   4.480   4.274   3.261
 4024SOL     OW12101   4.697   4.614   3.434
 4024SOL    HW112102   4.743   4.530   3.405
 4024SOL    HW212103   4.641   4.648   3.359
 4025SOL     OW12104   4.715   4.134   3.104
 4025SOL    HW112105   4.638   4.168   3.158
 4025SOL    HW212106   4.681   4.083   3.025
 4026SOL     OW12107   4.765   4.425   2.291
 4026SOL    HW112108   4.791   4.421   2.387
 4026SOL    HW212109   4.680   4.374   2.277
 4027SOL     OW12110   3.800   4.535   2.651
 4027SOL    HW112111   3.899   4.523   2.660
 4027SOL    HW212112   3.776   4.630   2.672
 4028SOL     OW12113   4.589   4.072   2.057
 4028SOL    HW112114   4.648   4.135   2.008
 4028SOL    HW212115   4.608   3.978   2.028
 4029SOL     OW12116   4.274   3.920   2.747
 4029SOL    HW112117   4.269   3.915   2.847
 4029SOL    HW212118   4.276   4.016   2.718
 4030SOL     OW12119   4.045   4.667   2.104
 4030SOL    HW112120   4.127   4.706   2.062
 4030SOL    HW212121   4.018   4.585   2.055
 4031SOL     OW12122   3.926   4.009   3.360
 4031SOL    HW112123   3.846   4.069   3.347
 4031SOL    HW212124   3.916   3.960   3.446
 4032SOL     OW12125   4.106   4.424   2.342
 4032SOL    HW112126   4.151   4.334   2.339
 4032SOL    HW212127   4.012   4.413   2.375
 4033SOL     OW12128   4.338   3.846   1.979
 4033SOL    HW112129   4.436   3.824   1.986
 4033SOL    HW212130   4.307   3.829   1.886
 4034SOL     OW12131   4.505   3.988   3.611
 4034SOL    HW112132   4.572   3.927   3.654
 4034SOL    HW212133   4.432   4.007   3.676
 4035SOL     OW12134   4.527   5.126   2.786
 4035SOL    HW112135   4.617   5.140   2.744
 4035SOL    HW212136   4.456   5.128   2.715
 4036SOL     OW12137   4.646   4.227   2.761
 4036SOL    HW112138   4.621   4.218   2.665
 4036SOL    HW212139   4.694   4.145   2.792
 4037SOL     OW12140   4.263   3.788   2.374
 4037SOL    HW112141   4.182   3.789   2.432
 4037SOL    HW212142   4.266   3.871   2.319
 4038SOL     OW12143   5.158   4.912   1.903
 4038SOL    HW112144   5.190   4.836   1.960
 4038SOL    HW212145   5.066   4.939   1.933
 4039SOL     OW12146   4.021   3.759   2.033
 4039SOL    HW112147   4.070   3.843   2.012
 4039SOL    HW212148   4.083   3.694   2.078
 4040SOL     OW12149   4.659   3.960   2.342
 4040SOL    HW112150   4.611   4.001   2.264
 4040SOL    HW212151   4.758   3.958   2.323
 4041SOL     OW12152   4.800   4.407   3.326
 4041SOL    HW112153   4.720   4.346   3.329
 4041SOL    HW212154   4.881   4.354   3.302
 4042SOL     OW12155   4.183   4.876   2.603
 4042SOL    HW112156   4.112   4.849   2.668
 4042SOL    HW212157   4.157   4.848   2.510
 4043SOL     OW12158   4.756   4.273   1.878
 4043SOL    HW112159   4.715   4.355   1.839
 4043SOL    HW212160   4.820   4.299   1.951
 4044SOL     OW12161   3.802   4.280   3.248
 4044SOL    HW112162   3.894   4.279   3.207
 4044SOL    HW212163   3.796   4.354   3.315
 4045SOL     OW12164   4.285   3.946   3.009
 4045SOL    HW112165   4.323   3.862   3.046
 4045SOL    HW212166   4.197   3.965   3.053
 4046SOL     OW12167   4.590   4.178   2.504
 4046SOL    HW112168   4.558   4.250   2.442
 4046SOL    HW212169   4.614   4.097   2.451
 4047SOL     OW12170   4.741   3.763   2.615
 4047SOL    HW112171   4.669   3.768   2.546
 4047SOL    HW212172   4.717   3.694   2.684
 4048SOL     OW12173   4.251   3.980   2.190
 4048SOL    HW112174   4.278   3.921   2.115
 4048SOL    HW212175   4.251   4.075   2.159
 4049SOL     OW12176   4.639   3.813   3.264
 4049SOL    HW112177   4.664   3.793   3.169
 4049SOL    HW212178   4.711   3.869   3.306
 4050SOL     OW12179   4.704   4.840   3.581
 4050SOL    HW112180   4.605   4.846   3.591
 4050SOL    HW212181   4.727   4.760   3.525
 4051SOL     OW12182   4.429   4.774   2.230
 4051SOL    HW112183   4.415   4.781   2.329
 4051SOL    HW212184   4.513   4.723   2.212
 4052SOL     OW12185   4.134   4.537   3.113
 4052SOL    HW112186   4.220   4.549   3.163
 4052SOL    HW212187   4.092   4.450   3.140
 4053SOL     OW12188   4.998   4.110   3.124
 4053SOL    HW112189   5.019   4.184   3.188
 4053SOL    HW212190   4.909   4.127   3.081
 4054SOL     OW12191   4.091   4.824   2.363
 4054SOL    HW112192   4.084   4.907   2.307
 4054SOL    HW212193   4.095   4.744   2.303
 4055SOL     OW12194   4.290   4.261   2.727
 4055SOL    HW112195   4.302   4.327   2.653
 4055SOL    HW212196   4.336   4.295   2.810
 4056SOL     OW12197   4.976   5.072   2.250
 4056SOL    HW112198   5.026   5.149   2.290
 4056SOL    HW212199   4.881   5.074   2.282
 4057SOL     OW12200   4.126   4.475   3.460
 4057SOL    HW112201   4.194   4.530   3.413
 4057SOL    HW212202   4.166   4.387   3.487
 4058SOL     OW12203   4.737   3.829   3.632
 4058SOL    HW112204   4.743   3.914   3.580
 4058SOL    HW212205   4.769   3.753   3.575
 4059SOL     OW12206   4.228   3.774   3.602
 4059SOL    HW112207   4.186   3.717   3.532
 4059SOL    HW212208   4.162   3.843   3.634
 4060SOL     OW12209   4.297   4.594   2.891
 4060SOL    HW112210   4.341   4.683   2.882
 4060SOL    HW212211   4.234   4.594   2.968
 4061SOL     OW12212   5.084   4.586   2.907
 4061SOL    HW112213   5.009   4.586   2.841
 4061SOL    HW212214   5.121   4.494   2.916
 4062SOL     OW12215   4.933   4.249   2.137
 4062SOL    HW112216   4.946   4.165   2.191
 4062SOL    HW212217   4.904   4.323   2.197
 4063SOL     OW12218   4.031   3.937   3.093
 4063SOL    HW112219   4.008   3.974   3.183
 4063SOL    HW212220   4.001   3.842   3.087
 4064SOL     OW12221   4.456   4.358   2.926
 4064SOL    HW112222   4.515   4.332   2.850
 4064SOL    HW212223   4.428   4.454   2.915
 4065SOL     OW12224   4.031   3.787   2.480
 4065SOL    HW112225   4.020   3.881   2.513
 4065SOL    HW212226   4.026   3.724   2.557
 4066SOL     OW12227   5.346   4.091   2.236
 4066SOL    HW112228   5.348   4.015   2.300
 4066SOL    HW212229   5.298   4.168   2.276
 4067SOL     OW12230   4.747   4.490   2.828
 4067SOL    HW112231   4.762   4.511   2.924
 4067SOL    HW212232   4.717   4.395   2.819
 4068SOL     OW12233   4.074   4.622   3.666
 4068SOL    HW112234   4.150   4.666   3.714
 4068SOL    HW212235   4.109   4.575   3.584
 4069SOL     OW12236   4.043   4.534   2.811
 4069SOL    HW112237   4.136   4.570   2.816
 4069SOL    HW212238   4.037   4.449   2.863
 4070SOL     OW12239   4.063   4.233   2.868
 4070SOL    HW112240   4.011   4.150   2.851
 4070SOL    HW212241   4.140   4.238   2.804
 4071SOL     OW12242   4.862   4.104   3.540
 4071SOL    HW112243   4.817   4.167   3.604
 4071SOL    HW212244   4.955   4.135   3.523
 4072SOL     OW12245   4.884   3.931   3.339
 4072SOL    HW112246   4.884   3.995   3.416
 4072SOL    HW212247   4.912   3.979   3.256
 4073SOL     OW12248   3.732   5.050   2.062
 4073SOL    HW112249   3.639   5.071   2.031
 4073SOL    HW212250   3.742   4.951   2.075
 4074SOL     OW12251   4.726   4.520   3.100
 4074SOL    HW112252   4.767   4.488   3.186
 4074SOL    HW212253   4.630   4.493   3.097
 4075SOL     OW12254   3.764   4.268   2.976
 4075SOL    HW112255   3.849   4.235   2.935
 4075SOL    HW212256   3.777   4.283   3.074
 4076SOL     OW12257   3.913   4.244   3.584
 4076SOL    HW112258   3.972   4.204   3.514
 4076SOL    HW212259   3.855   4.315   3.543
 4077SOL     OW12260   4.539   4.296   2.187
 4077SOL    HW112261   4.546   4.207   2.141
 4077SOL    HW212262   4.445   4.330   2.179
 4078SOL     OW12263   4.395   4.188   3.131
 4078SOL    HW112264   4.361   4.099   3.101
 4078SOL    HW212265   4.421   4.242   3.051
 4079SOL     OW12266   4.197   4.224   2.053
 4079SOL    HW112267   4.258   4.304   2.057
 4079SOL    HW212268   4.102   4.255   2.060
 4080SOL     OW12269   3.883   4.861   3.328
 4080SOL    HW112270   3.905   4.800   3.404
 4080SOL    HW212271   3.893   4.812   3.242
 4081SOL     OW12272   5.071   4.783   3.096
 4081SOL    HW112273   5.095   4.720   3.022
 4081SOL    HW212274   4.981   4.823   3.078
 4082SOL     OW12275   3.807   4.982   2.884
 4082SOL    HW112276   3.802   4.981   2.984
 4082SOL    HW212277   3.724   4.941   2.846
 4083SOL     OW12278   4.554   4.997   3.284
 4083SOL    HW112279   4.549   5.030   3.379
 4083SOL    HW212280   4.468   5.016   3.238
 4084SOL     OW12281   3.987   4.050   2.582
 4084SOL    HW112282   3.908   4.101   2.548
 4084SOL    HW212283   3.978   4.035   2.680
 4085SOL     OW12284   4.546   4.726   3.234
 4085SOL    HW112285   4.586   4.725   3.142
 4085SOL    HW212286   4.556   4.818   3.274
 4086SOL     OW12287   4.640   4.634   2.153
 4086SOL    HW112288   4.703   4.672   2.085
 4086SOL    HW212289   4.680   4.551   2.192
 4087SOL     OW12290   4.096   5.012   3.352
 4087SOL    HW112291   4.083   5.105   3.318
 4087SOL    HW212292   4.012   4.960   3.339
 4088SOL     OW12293   4.763   4.822   2.558
 4088SOL    HW112294   4.693   4.775   2.612
 4088SOL    HW212295   4.822   4.754   2.515
 4089SOL     OW12296   4.738   3.960   2.833
 4089SOL    HW112297   4.730   3.924   2.740
 4089SOL    HW212298   4.736   3.884   2.898
 4090SOL     OW12299   3.829   4.737   3.588
 4090SOL    HW112300   3.752   4.704   3.642
 4090SOL    HW212301   3.914   4.707   3.630
 4091SOL     OW12302   4.396   3.927   3.351
 4091SOL    HW112303   4.486   3.911   3.311
 4091SOL    HW212304   4.404   3.932   3.450
 4092SOL     OW12305   3.799   4.069   1.895
 4092SOL    HW112306   3.707   4.041   1.866
 4092SOL    HW212307   3.830   4.146   1.839
 4093SOL     OW12308   3.796   3.890   2.180
 4093SOL    HW112309   3.779   3.973   2.126
 4093SOL    HW212310   3.886   3.853   2.158
 4094SOL     OW12311   4.337   4.566   3.293
 4094SOL    HW112312   4.393   4.647   3.276
 4094SOL    HW212313   4.396   4.486   3.296
 4095SOL     OW12314   4.440   4.289   3.570
 4095SOL    HW112315   4.459   4.354   3.644
 4095SOL    HW212316   4.500   4.209   3.579
 4096SOL     OW12317   5.174   4.944   3.495
 4096SOL    HW112318   5.165   4.934   3.594
 4096SOL    HW212319   5.270   4.937   3.469
 4097SOL     OW12320   4.318   4.469   2.514
 4097SOL    HW112321   4.368   4.554   2.495
 4097SOL    HW212322   4.230   4.471   2.466
 4098SOL     OW12323   4.583   4.680   2.723
 4098SOL    HW112324   4.637   4.611   2.771
 4098SOL    HW212325   4.551   4.749   2.789
 4099SOL     OW12326   4.807   4.708   1.949
 4099SOL    HW112327   4.784   4.761   1.867
 4099SOL    HW212328   4.888   4.652   1.930
 4100SOL     OW12329   3.803   4.964   2.515
 4100SOL    HW112330   3.802   4.917   2.603
 4100SOL    HW212331   3.885   4.936   2.464
 4101SOL     OW12332   4.152   4.148   2.382
 4101SOL    HW112333   4.182   4.076   2.320
 4101SOL    HW212334   4.113   4.108   2.465
 4102SOL     OW12335   4.041   4.271   3.142
 4102SOL    HW112336   4.079   4.212   3.214
 4102SOL    HW212337   4.081   4.245   3.054
 4103SOL     OW12338   4.725   3.758   3.016
 4103SOL    HW112339   4.662   3.686   2.985
 4103SOL    HW212340   4.818   3.722   3.016
 4104SOL     OW12341   4.494   5.054   2.163
 4104SOL    HW112342   4.448   4.967   2.180
 4104SOL    HW212343   4.585   5.051   2.204
 4105SOL     OW12344   3.763   4.801   2.162
 4105SOL    HW112345   3.862   4.790   2.153
 4105SOL    HW212346   3.723   4.715   2.194
 4106SOL     OW12347   3.954   4.352   3.837
 4106SOL    HW112348   3.861   4.350   3.874
 4106SOL    HW212349   3.955   4.313   3.745
 4107SOL     OW12350   3.949   3.999   4.720
 4107SOL    HW112351   3.984   3.982   4.812
 4107SOL    HW212352   3.861   3.954   4.708
 4108SOL     OW12353   3.743   4.092   4.371
 4108SOL    HW112354   3.661   4.135   4.410
 4108SOL    HW212355   3.715   4.019   4.308
 4109SOL     OW12356   4.859   4.427   4.441
 4109SOL    HW112357   4.916   4.505   4.416
 4109SOL    HW212358   4.799   4.453   4.517
 4110SOL     OW12359   4.492   4.868   4.747
 4110SOL    HW112360   4.414   4.885   4.807
 4110SOL    HW212361   4.526   4.955   4.711
 4111SOL     OW12362   4.409   4.736   4.389
 4111SOL    HW112363   4.478   4.720   4.459
 4111SOL    HW212364   4.336   4.793   4.427
 4112SOL     OW12365   4.059   5.159   4.785
 4112SOL    HW112366   3.981   5.128   4.732
 4112SOL    HW212367   4.117   5.217   4.728
 4113SOL     OW12368   3.964   4.815   4.610
 4113SOL    HW112369   3.978   4.731   4.662
 4113SOL    HW212370   3.909   4.879   4.665
 4114SOL     OW12371   4.330   4.688   3.847
 4114SOL    HW112372   4.337   4.772   3.793
 4114SOL    HW212373   4.376   4.701   3.935
 4115SOL     OW12374   3.846   4.367   4.287
 4115SOL    HW112375   3.801   4.279   4.304
 4115SOL    HW212376   3.845   4.421   4.371
 4116SOL     OW12377   4.533   3.728   4.226
 4116SOL    HW112378   4.573   3.819   4.217
 4116SOL    HW212379   4.433   3.736   4.232
 4117SOL     OW12380   3.921   4.700   4.988
 4117SOL    HW112381   4.010   4.655   4.974
 4117SOL    HW212382   3.848   4.635   4.969
 4118SOL     OW12383   4.322   4.453   3.994
 4118SOL    HW112384   4.346   4.522   3.926
 4118SOL    HW212385   4.244   4.486   4.048
 4119SOL     OW12386   5.005   4.069   4.668
 4119SOL    HW112387   4.919   4.019   4.655
 4119SOL    HW212388   5.067   4.015   4.724
 4120SOL     OW12389   4.715   4.134   4.966
 4120SOL    HW112390   4.638   4.168   5.020
 4120SOL    HW212391   4.681   4.083   4.887
 4121SOL     OW12392   4.765   4.425   4.153
 4121SOL    HW112393   4.791   4.421   4.249
 4121SOL    HW212394   4.680   4.374   4.139
 4122SOL     OW12395   3.800   4.535   4.513
 4122SOL    HW112396   3.899   4.523   4.522
 4122SOL    HW212397   3.776   4.630   4.534
 4123SOL     OW12398   4.589   4.072   3.919
 4123SOL    HW112399   4.648   4.135   3.870
 4123SOL    HW212400   4.608   3.978   3.890
 4124SOL     OW12401   4.274   3.920   4.609
 4124SOL    HW112402   4.269   3.915   4.709
 4124SOL    HW212403   4.276   4.016   4.580
 4125SOL     OW12404   4.045   4.667   3.966
 4125SOL    HW112405   4.127   4.706   3.924
 4125SOL    HW212406   4.018   4.585   3.917
 4126SOL     OW12407   4.106   4.424   4.204
 4126SOL    HW112408   4.151   4.334   4.201
 4126SOL    HW212409   4.012   4.413   4.237
 4127SOL     OW12410   4.338   3.846   3.841
 4127SOL    HW112411   4.436   3.824   3.848
 4127SOL    HW212412   4.307   3.829   3.748
 4128SOL     OW12413   4.527   5.126   4.648
 4128SOL    HW112414   4.617   5.140   4.606
 4128SOL    HW212415   4.456   5.128   4.577
 4129SOL     OW12416   4.646   4.227   4.623
 4129SOL    HW112417   4.621   4.218   4.527
 4129SOL    HW212418   4.694   4.145   4.654
 4130SOL     OW12419   4.263   3.788   4.236
 4130SOL    HW112420   4.182   3.789   4.294
 4130SOL    HW212421   4.266   3.871   4.181
 4131SOL     OW12422   5.158   4.912   3.765
 4131SOL    HW112423   5.190   4.836   3.822
 4131SOL    HW212424   5.066   4.939   3.795
 4132SOL     OW12425   4.021   3.759   3.895
 4132SOL    HW112426   4.070   3.843   3.874
 4132SOL    HW212427   4.083   3.694   3.940
 4133SOL     OW12428   4.659   3.960   4.204
 4133SOL    HW112429   4.611   4.001   4.126
 4133SOL    HW212430   4.758   3.958   4.185
 4134SOL     OW12431   4.183   4.876   4.465
 4134SOL    HW112432   4.112   4.849   4.530
 4134SOL    HW212433   4.157   4.848   4.372
 4135SOL     OW12434   4.756   4.273   3.740
 4135SOL    HW112435   4.715   4.355   3.701
 4135SOL    HW212436   4.820   4.299   3.813
 4136SOL     OW12437   4.285   3.946   4.871
 4136SOL    HW112438   4.323   3.862   4.908
 4136SOL    HW212439   4.197   3.965   4.915
 4137SOL     OW12440   4.590   4.178   4.366
 4137SOL    HW112441   4.558   4.250   4.304
 4137SOL    HW212442   4.614   4.097   4.313
 4138SOL     OW12443   4.741   3.763   4.477
 4138SOL    HW112444   4.669   3.768   4.408
 4138SOL    HW212445   4.717   3.694   4.546
 4139SOL     OW12446   4.251   3.980   4.052
 4139SOL    HW112447   4.278   3.921   3.977
 4139SOL    HW212448   4.251   4.075   4.021
 4140SOL     OW12449   4.429   4.774   4.092
 4140SOL    HW112450   4.415   4.781   4.191
 4140SOL    HW212451   4.513   4.723   4.074
 4141SOL     OW12452   4.134   4.537   4.975
 4141SOL    HW112453   4.220   4.549   5.025
 4141SOL    HW212454   4.092   4.450   5.002
 4142SOL     OW12455   4.091   4.824   4.225
 4142SOL    HW112456   4.084   4.907   4.169
 4142SOL    HW212457   4.095   4.744   4.165
 4143SOL     OW12458   4.290   4.261   4.589
 4143SOL    HW112459   4.302   4.327   4.515
 4143SOL    HW212460   4.336   4.295   4.672
 4144SOL     OW12461   4.976   5.072   4.112
 4144SOL    HW112462   5.026   5.149   4.152
 4144SOL    HW212463   4.881   5.074   4.144
 4145SOL     OW12464   4.297   4.594   4.753
 4145SOL    HW112465   4.341   4.683   4.744
 4145SOL    HW212466   4.234   4.594   4.830
 4146SOL     OW12467   5.084   4.586   4.769
 4146SOL    HW112468   5.009   4.586   4.703
 4146SOL    HW212469   5.121   4.494   4.778
 4147SOL     OW12470   4.933   4.249   3.999
 4147SOL    HW112471   4.946   4.165   4.053
 4147SOL    HW212472   4.904   4.323   4.059
 4148SOL     OW12473   4.031   3.937   4.955
 4148SOL    HW112474   4.008   3.974   5.045
 4148SOL    HW212475   4.001   3.842   4.949
 4149SOL     OW12476   4.456   4.358   4.788
 4149SOL    HW112477   4.515   4.332   4.712
 4149SOL    HW212478   4.428   4.454   4.777
 4150SOL     OW12479   4.031   3.787   4.342
 4150SOL    HW112480   4.020   3.881   4.375
 4150SOL    HW212481   4.026   3.724   4.419
 4151SOL     OW12482   5.346   4.091   4.098
 4151SOL    HW112483   5.348   4.015   4.162
 4151SOL    HW212484   5.298   4.168   4.138
 4152SOL     OW12485   4.747   4.490   4.690
 4152SOL    HW112486   4.762   4.511   4.786
 4152SOL    HW212487   4.717   4.395   4.681
 4153SOL     OW12488   4.043   4.534   4.673
 4153SOL    HW112489   4.136   4.570   4.678
 4153SOL    HW212490   4.037   4.449   4.725
 4154SOL     OW12491   4.063   4.233   4.730
 4154SOL    HW112492   4.011   4.150   4.713
 4154SOL    HW212493   4.140   4.238   4.666
 4155SOL     OW12494   4.884   3.931   5.201
 4155SOL    HW112495   4.884   3.995   5.278
 4155SOL    HW212496   4.912   3.979   5.118
 4156SOL     OW12497   3.732   5.050   3.924
 4156SOL    HW112498   3.639   5.071   3.893
 4156SOL    HW212499   3.742   4.951   3.937
 4157SOL     OW12500   4.726   4.520   4.962
 4157SOL    HW112501   4.767   4.488   5.048
 4157SOL    HW212502   4.630   4.493   4.959
 4158SOL     OW12503   3.764   4.268   4.838
 4158SOL    HW112504   3.849   4.235   4.797
 4158SOL    HW212505   3.777   4.283   4.936
 4159SOL     OW12506   4.539   4.296   4.049
 4159SOL    HW112507   4.546   4.207   4.003
 4159SOL    HW212508   4.445   4.330   4.041
 4160SOL     OW12509   4.395   4.188   4.993
 4160SOL    HW112510   4.361   4.099   4.963
 4160SOL    HW212511   4.421   4.242   4.913
 4161SOL     OW12512   4.197   4.224   3.915
 4161SOL    HW112513   4.258   4.304   3.919
 4161SOL    HW212514   4.102   4.255   3.922
 4162SOL     OW12515   5.071   4.783   4.958
 4162SOL    HW112516   5.095   4.720   4.884
 4162SOL    HW212517   4.981   4.823   4.940
 4163SOL     OW12518   3.807   4.982   4.746
 4163SOL    HW112519   3.802   4.981   4.846
 4163SOL    HW212520   3.724   4.941   4.708
 4164SOL     OW12521   3.987   4.050   4.444
 4164SOL    HW112522   3.908   4.101   4.410
 4164SOL    HW212523   3.978   4.035   4.542
 4165SOL     OW12524   4.546   4.726   5.096
 4165SOL    HW112525   4.586   4.725   5.004
 4165SOL    HW212526   4.556   4.818   5.136
 4166SOL     OW12527   4.640   4.634   4.015
 4166SOL    HW112528   4.703   4.672   3.947
 4166SOL    HW212529   4.680   4.551   4.054
 4167SOL     OW12530   5.338   5.016   5.013
 4167SOL    HW112531   5.398   5.019   5.093
 4167SOL    HW212532   5.263   5.080   5.026
 4168SOL     OW12533   4.763   4.822   4.420
 4168SOL    HW112534   4.693   4.775   4.474
 4168SOL    HW212535   4.822   4.754   4.377
 4169SOL     OW12536   4.738   3.960   4.695
 4169SOL    HW112537   4.730   3.924   4.602
 4169SOL    HW212538   4.736   3.884   4.760
 4170SOL     OW12539   3.799   4.069   3.757
 4170SOL    HW112540   3.707   4.041   3.728
 4170SOL    HW212541   3.830   4.146   3.701
 4171SOL     OW12542   3.796   3.890   4.042
 4171SOL    HW112543   3.779   3.973   3.988
 4171SOL    HW212544   3.886   3.853   4.020
 4172SOL     OW12545   4.318   4.469   4.376
 4172SOL    HW112546   4.368   4.554   4.357
 4172SOL    HW212547   4.230   4.471   4.328
 4173SOL     OW12548   4.583   4.680   4.585
 4173SOL    HW112549   4.637   4.611   4.633
 4173SOL    HW212550   4.551   4.749   4.651
 4174SOL     OW12551   4.807   4.708   3.811
 4174SOL    HW112552   4.784   4.761   3.729
 4174SOL    HW212553   4.888   4.652   3.792
 4175SOL     OW12554   3.803   4.964   4.377
 4175SOL    HW112555   3.802   4.917   4.465
 4175SOL    HW212556   3.885   4.936   4.326
 4176SOL     OW12557   4.152   4.148   4.244
 4176SOL    HW112558   4.182   4.076   4.182
 4176SOL    HW212559   4.113   4.108   4.327
 4177SOL     OW12560   4.725   3.758   4.878
 4177SOL    HW112561   4.662   3.686   4.847
 4177SOL    HW212562   4.818   3.722   4.878
 4178SOL     OW12563   4.494   5.054   4.025
 4178SOL    HW112564   4.448   4.967   4.042
 4178SOL    HW212565   4.585   5.051   4.066
 4179SOL     OW12566   3.763   4.801   4.024
 4179SOL    HW112567   3.862   4.790   4.015
 4179SOL    HW212568   3.723   4.715   4.056
   5.06732   5.06732   5.06732
