mobley_1352110_GMX.gro created by acpype (v: 2023.10.27) on Thu May 21 00:02:12 2026
   34
    1MOL     C1    1   2.619   2.451   2.484
    1MOL     C2    2   2.174   2.825   2.495
    1MOL     C3    3   2.664   2.167   2.922
    1MOL     C4    4   2.748   2.582   2.215
    1MOL     C5    5   2.326   2.824   2.493
    1MOL     C6    6   2.620   2.302   2.868
    1MOL     C7    7   2.380   2.688   2.446
    1MOL     C8    8   2.608   2.540   2.257
    1MOL     C9    9   2.533   2.687   2.444
    1MOL    C10   10   2.640   2.309   2.717
    1MOL     N1   11   2.586   2.557   2.400
    1MOL     O1   12   2.667   2.346   2.443
    1MOL     S1   13   2.586   2.472   2.656
    1MOL     H1   14   2.135   2.749   2.564
    1MOL     H2   15   2.138   2.923   2.529
    1MOL     H3   16   2.133   2.806   2.396
    1MOL     H4   17   2.606   2.085   2.877
    1MOL     H5   18   2.770   2.148   2.902
    1MOL     H6   19   2.649   2.163   3.031
    1MOL     H7   20   2.766   2.688   2.238
    1MOL     H8   21   2.824   2.523   2.268
    1MOL     H9   22   2.761   2.568   2.108
    1MOL    H10   23   2.362   2.903   2.426
    1MOL    H11   24   2.364   2.846   2.593
    1MOL    H12   25   2.678   2.380   2.918
    1MOL    H13   26   2.515   2.318   2.894
    1MOL    H14   27   2.343   2.609   2.512
    1MOL    H15   28   2.342   2.666   2.346
    1MOL    H16   29   2.592   2.435   2.230
    1MOL    H17   30   2.533   2.598   2.202
    1MOL    H18   31   2.573   2.714   2.542
    1MOL    H19   32   2.570   2.764   2.375
    1MOL    H20   33   2.745   2.294   2.692
    1MOL    H21   34   2.581   2.231   2.668
   5.06732   5.06732   5.06732
