CUP08063_AM1BCC_v1_0
    35
   4.1060000  -2.9700000   1.6070000   4.7150000  -4.2060000   1.5170000
   3.0740000  -2.9250000   2.5250000   3.3770000  -5.0890000   3.2040000
   1.3230000  -1.5740000   1.8730000   4.4710000  -1.8090000   0.7420000
   5.8220000  -4.4780000   0.5410000   3.4610000  -7.4580000   3.5320000
   1.7060000  -6.0790000   4.6020000  -0.6950000  -0.2610000   1.4550000
   0.6980000   0.2670000   3.4290000   4.3650000  -5.2470000   2.3070000
   2.7210000  -3.9320000   3.3440000   3.0440000  -6.1610000   4.0380000
   0.5470000  -0.4560000   2.1790000   1.0890000  -2.3070000   0.9150000
   2.3860000  -1.7300000   2.7460000   3.9650000  -1.8860000  -0.2250000
   4.1960000  -0.8560000   1.2040000   5.5520000  -1.7640000   0.5740000
   6.7060000  -3.8840000   0.7920000   6.1100000  -5.5340000   0.5640000
   5.5010000  -4.2430000  -0.4790000   3.1890000  -8.2480000   4.2420000
   4.5490000  -7.5160000   3.4130000   2.9790000  -7.6910000   2.5750000
   1.5180000  -6.9360000   5.2580000   0.9390000  -6.0850000   3.8190000
   1.5810000  -5.1840000   5.2230000  -1.5100000  -0.7100000   2.0300000
  -0.6610000  -0.7250000   0.4660000  -0.8770000   0.8110000   1.3340000
   0.4020000   1.3100000   3.2820000   1.7310000   0.2490000   3.7850000
   0.0530000  -0.1970000   4.1810000
