; mobley_3201701_GMX_OPLS.top created by acpype (v: 2023.10.27) on Wed May 20 23:50:27 2026

; Include forcefield parameters
#include "ffoplsaa.itp"

; Include mobley_3201701_GMX.itp topology
#include "mobley_3201701_GMX.itp"

; Ligand position restraints
#ifdef POSRES_LIG
#include "posre_mobley_3201701.itp"
#endif

[ system ]
 mobley_3201701

[ molecules ]
; Compound        nmols
 mobley_3201701   1     
