%VERSION  VERSION_STAMP = V0001.000  DATE = 05/20/26  23:50:52                  
%FLAG TITLE                                                                     
%FORMAT(20a4)                                                                   
CUP08063_AM1BCC_v1_0                                                            
%FLAG POINTERS                                                                  
%FORMAT(10I8)                                                                   
      35       9      18      17      36      24      36      37       0       0
     163       1      17      24      37      12      22      15      10       0
       0       0       0       0       0       0       0       0      35       0
       0
%FLAG ATOM_NAME                                                                 
%FORMAT(20a4)                                                                   
C1  C2  C3  C4  C5  C6  C7  C8  C9  C10 C11 N1  N2  N3  N4  O1  O2  H1  H2  H3  
H4  H5  H6  H7  H8  H9  H10 H11 H12 H13 H14 H15 H16 H17 H18 
%FLAG CHARGE                                                                    
%FORMAT(5E16.8)                                                                 
 -6.55820577E+00  8.95808268E+00  1.28576549E+01  1.63435809E+01  1.39054371E+01
 -5.06579940E-01 -2.81352312E+00  3.52783728E+00  3.52783728E+00  1.48147299E+00
  1.48147299E+00 -1.38125034E+01 -1.43956170E+01 -1.34535241E+01 -8.21461284E+00
 -9.65781900E+00 -8.91799362E+00  8.50981410E-01  8.50981410E-01  8.50981410E-01
  1.08180328E+00  1.08180328E+00  1.08180328E+00  8.44913384E-01  8.44913384E-01
  8.44913384E-01  8.44913384E-01  8.44913384E-01  8.44913384E-01  9.05648310E-01
  9.05648310E-01  9.05648310E-01  9.05648310E-01  9.05648310E-01  9.05648310E-01
%FLAG ATOMIC_NUMBER                                                             
%FORMAT(10I8)                                                                   
       6       6       6       6       6       6       6       6       6       6
       6       7       7       7       7       8       8       1       1       1
       1       1       1       1       1       1       1       1       1       1
       1       1       1       1       1
%FLAG MASS                                                                      
%FORMAT(5E16.8)                                                                 
  1.20100000E+01  1.20100000E+01  1.20100000E+01  1.20100000E+01  1.20100000E+01
  1.20100000E+01  1.20100000E+01  1.20100000E+01  1.20100000E+01  1.20100000E+01
  1.20100000E+01  1.40100000E+01  1.40100000E+01  1.40100000E+01  1.40100000E+01
  1.60000000E+01  1.60000000E+01  1.00800000E+00  1.00800000E+00  1.00800000E+00
  1.00800000E+00  1.00800000E+00  1.00800000E+00  1.00800000E+00  1.00800000E+00
  1.00800000E+00  1.00800000E+00  1.00800000E+00  1.00800000E+00  1.00800000E+00
  1.00800000E+00  1.00800000E+00  1.00800000E+00  1.00800000E+00  1.00800000E+00
%FLAG ATOM_TYPE_INDEX                                                           
%FORMAT(10I8)                                                                   
       1       1       1       1       1       2       2       2       2       2
       2       3       3       4       5       6       7       8       8       8
       8       8       8       9       9       9       9       9       9       9
       9       9       9       9       9
%FLAG NUMBER_EXCLUDED_ATOMS                                                     
%FORMAT(10I8)                                                                   
      15      14      13      13      12       7       4      10       9      10
       9       5       2       6       8       1       1       2       1       1
       2       1       1       2       1       1       2       1       1       2
       1       1       2       1       1
%FLAG NONBONDED_PARM_INDEX                                                      
%FORMAT(10I8)                                                                   
       1       2       4       7      11      16      22      29      37       2
       3       5       8      12      17      23      30      38       4       5
       6       9      13      18      24      31      39       7       8       9
      10      14      19      25      32      40      11      12      13      14
      15      20      26      33      41      16      17      18      19      20
      21      27      34      42      22      23      24      25      26      27
      28      35      43      29      30      31      32      33      34      35
      36      44      37      38      39      40      41      42      43      44
      45
%FLAG RESIDUE_LABEL                                                             
%FORMAT(20a4)                                                                   
MOL 
%FLAG RESIDUE_POINTER                                                           
%FORMAT(10I8)                                                                   
       1
%FLAG BOND_FORCE_CONSTANT                                                       
%FORMAT(5E16.8)                                                                 
  3.54250000E+02  2.43910000E+02  3.86490000E+02  3.43340000E+02  3.10840000E+02
  3.17460000E+02  5.90600000E+02  3.51310000E+02  3.45250000E+02  2.56920000E+02
  3.44220000E+02  2.54460000E+02
%FLAG BOND_EQUIL_VALUE                                                          
%FORMAT(5E16.8)                                                                 
  1.39860000E+00  1.51470000E+00  1.33920000E+00  1.36880000E+00  1.40300000E+00
  1.39670000E+00  1.21900000E+00  1.36210000E+00  1.09620000E+00  1.46130000E+00
  1.09690000E+00  1.46430000E+00
%FLAG ANGLE_FORCE_CONSTANT                                                      
%FORMAT(5E16.8)                                                                 
  6.07400000E+01  6.81700000E+01  7.90000000E+01  4.36100000E+01  6.36700000E+01
  8.31500000E+01  8.93600000E+01  7.69400000E+01  7.72400000E+01  6.67000000E+01
  7.64300000E+01  7.62100000E+01  7.27600000E+01  7.40100000E+01  8.54700000E+01
  4.79700000E+01  8.66800000E+01  8.75600000E+01  4.80900000E+01  1.01260000E+02
  3.58000000E+01  3.56400000E+01
%FLAG ANGLE_EQUIL_VALUE                                                         
%FORMAT(5E16.8)                                                                 
  2.10888224E+00  2.14570870E+00  2.07886256E+00  1.93085858E+00  2.09474507E+00
  2.04622489E+00  2.11691076E+00  2.08619295E+00  2.07397564E+00  2.03575291E+00
  2.03435665E+00  2.03767278E+00  2.22180509E+00  2.04430503E+00  2.09020721E+00
  1.91427794E+00  2.13925098E+00  1.91864127E+00  1.89822091E+00  2.15024656E+00
  1.88024401E+00  1.89455572E+00
%FLAG DIHEDRAL_FORCE_CONSTANT                                                   
%FORMAT(5E16.8)                                                                 
  0.00000000E+00  4.80000000E+00  9.80000000E-01  3.62500000E+00  2.70000000E+00
  1.73000000E+00  2.15000000E+00  8.00000000E-02  3.32000000E-01  0.00000000E+00
  9.00000000E-01  1.05000000E+00  0.00000000E+00  2.50000000E+00  1.10000000E+00
%FLAG DIHEDRAL_PERIODICITY                                                      
%FORMAT(5E16.8)                                                                 
  1.00000000E+00  2.00000000E+00  2.00000000E+00  2.00000000E+00  2.00000000E+00
  1.00000000E+00  2.00000000E+00  3.00000000E+00  2.00000000E+00  2.00000000E+00
  2.00000000E+00  2.00000000E+00  2.00000000E+00  2.00000000E+00  2.00000000E+00
%FLAG DIHEDRAL_PHASE                                                            
%FORMAT(5E16.8)                                                                 
  0.00000000E+00  3.14159400E+00  3.14159400E+00  3.14159400E+00  3.14159400E+00
  0.00000000E+00  3.14159400E+00  0.00000000E+00  0.00000000E+00  3.14159400E+00
  3.14159400E+00  3.14159400E+00  0.00000000E+00  3.14159400E+00  3.14159400E+00
%FLAG SCEE_SCALE_FACTOR                                                         
%FORMAT(5E16.8)                                                                 
  1.20000000E+00  1.20000000E+00  1.20000000E+00  1.20000000E+00  1.20000000E+00
  1.20000000E+00  1.20000000E+00  1.20000000E+00  1.20000000E+00  1.20000000E+00
  1.20000000E+00  1.20000000E+00  1.20000000E+00  1.20000000E+00  0.00000000E+00
%FLAG SCNB_SCALE_FACTOR                                                         
%FORMAT(5E16.8)                                                                 
  2.00000000E+00  2.00000000E+00  2.00000000E+00  2.00000000E+00  2.00000000E+00
  2.00000000E+00  2.00000000E+00  2.00000000E+00  2.00000000E+00  2.00000000E+00
  2.00000000E+00  2.00000000E+00  2.00000000E+00  2.00000000E+00  0.00000000E+00
%FLAG SOLTY                                                                     
%FORMAT(5E16.8)                                                                 
  0.00000000E+00  0.00000000E+00  0.00000000E+00  0.00000000E+00  0.00000000E+00
  0.00000000E+00  0.00000000E+00  0.00000000E+00  0.00000000E+00  0.00000000E+00
%FLAG LENNARD_JONES_ACOEF                                                       
%FORMAT(5E16.8)                                                                 
  6.96551276E+05  8.43969952E+05  1.02073671E+06  7.69642101E+05  9.31115275E+05
  8.49322032E+05  8.17329084E+05  9.93125065E+05  9.05243612E+05  9.54790629E+05
  7.01106848E+05  8.52084164E+05  7.76656876E+05  8.18751801E+05  7.02078680E+05
  5.17507491E+05  6.30925504E+05  5.74782316E+05  6.01376873E+05  5.15491878E+05
  3.76435470E+05  4.46121722E+05  5.42502534E+05  4.94433451E+05  5.20510209E+05
  4.46307018E+05  3.27367585E+05  2.83662575E+05  8.12662403E+04  1.00235148E+05
  9.11435380E+04  9.27277603E+04  7.93773615E+04  5.68021765E+04  5.02224902E+04
  7.94617769E+03  5.63013422E+04  6.97998263E+04  6.34160397E+04  6.37258620E+04
  5.45183252E+04  3.86646725E+04  3.44374471E+04  5.22955465E+03  3.39005767E+03
%FLAG LENNARD_JONES_BCOEF                                                       
%FORMAT(5E16.8)                                                                 
  5.24668528E+02  5.90251928E+02  6.63431737E+02  5.44830041E+02  6.12468585E+02
  5.65406768E+02  6.90283231E+02  7.77671659E+02  7.17661669E+02  9.06156687E+02
  5.97113873E+02  6.72777963E+02  6.20851625E+02  7.83721154E+02  6.77820248E+02
  4.98871431E+02  5.62969425E+02  5.19385932E+02  6.53166727E+02  5.64804067E+02
  4.69350655E+02  3.88758656E+02  4.38146883E+02  4.04310927E+02  5.10021392E+02
  4.41089616E+02  3.67361018E+02  2.87011518E+02  1.21392023E+02  1.37787728E+02
  1.27000718E+02  1.57492664E+02  1.36094315E+02  1.11953944E+02  8.83545880E+01
  2.57122925E+01  1.01040256E+02  1.14981426E+02  1.05935811E+02  1.30560951E+02
  1.12788003E+02  9.23664132E+01  7.31636661E+01  2.08590256E+01  1.67944276E+01
%FLAG BONDS_INC_HYDROGEN                                                        
%FORMAT(10I8)                                                                   
      15      51       9      15      54       9      15      57       9      18
      60       9      18      63       9      18      66       9      21      69
      11      21      72      11      21      75      11      24      78      11
      24      81      11      24      84      11      27      87      11      27
      90      11      27      93      11      30      96      11      30      99
      11      30     102      11
%FLAG BONDS_WITHOUT_HYDROGEN                                                    
%FORMAT(10I8)                                                                   
       0       3       1       0       6       1       0      15       2       3
      18       2       3      33       3       6      36       3       6      48
       4       9      33       3       9      36       3       9      39       5
      12      42       6      12      45       7      12      48       8      21
      39      10      24      39      10      27      42      12      30      42
      12
%FLAG ANGLES_INC_HYDROGEN                                                       
%FORMAT(10I8)                                                                   
       0      15      51       4       0      15      54       4       0      15
      57       4       3      18      60       4       3      18      63       4
       3      18      66       4      39      21      69      16      39      21
      72      16      39      21      75      16      39      24      78      16
      39      24      81      16      39      24      84      16      42      27
      87      19      42      27      90      19      42      27      93      19
      42      30      96      19      42      30      99      19      42      30
     102      19      51      15      54      21      51      15      57      21
      54      15      57      21      60      18      63      21      60      18
      66      21      63      18      66      21      69      21      72      22
      69      21      75      22      72      21      75      22      78      24
      81      22      78      24      84      22      81      24      84      22
      87      27      90      22      87      27      93      22      90      27
      93      22      96      30      99      22      96      30     102      22
      99      30     102      22
%FLAG ANGLES_WITHOUT_HYDROGEN                                                   
%FORMAT(10I8)                                                                   
       0       3      18       1       0       3      33       2       0       6
      36       2       0       6      48       3       3       0       6       5
       3       0      15       1       3      33       9       6       6       0
      15       1       6      36       9       6       6      48      12       7
       9      39      21       8       9      39      24       8      12      42
      27       9      12      42      30       9      18       3      33      10
      21      39      24      11      27      42      30      12      33       9
      36      13      33       9      39      14      36       6      48      15
      36       9      39      14      42      12      45      17      42      12
      48      18      45      12      48      20
%FLAG DIHEDRALS_INC_HYDROGEN                                                    
%FORMAT(10I8)                                                                   
       0       3      18      60       1       0       3      18      63       1
       0       3      18      66       1       3       0      15      51       1
       3       0      15      54       1       3       0      15      57       1
       6       0      15      51       1       6       0      15      54       1
       6       0      15      57       1       9      39      21      69       9
       9      39      21      72       9       9      39      21      75       9
       9      39      24      78       9       9      39      24      81       9
       9      39      24      84       9      12      42      27      87      10
      12      42      27      90      10      12      42      27      93      10
      12      42      30      96      10      12      42      30      99      10
      12      42      30     102      10      21      39      24      78      13
      21      39      24      81      13      21      39      24      84      13
      24      39      21      69      13      24      39      21      72      13
      24      39      21      75      13      27      42      30      96      13
      27      42      30      99      13      27      42      30     102      13
      30      42      27      87      13      30      42      27      90      13
      30      42      27      93      13      33       3      18      60      13
      33       3      18      63      13      33       3      18      66      13
%FLAG DIHEDRALS_WITHOUT_HYDROGEN                                                
%FORMAT(10I8)                                                                   
       0       3      33       9       2       0       6     -36       9       2
       0       6      48      12       3       3       0       6      36       4
       3       0       6      48       4       3      33      -9      36       2
       3      33       9      39       2       6       0       3      18       4
       6       0       3      33       4       6      36      -9      33       2
       6      36       9      39       2       6      48      12      42       5
       6      48      12      45       6       6      48     -12      45       7
       6      48     -12      45       8       9      33       3      18       2
       9      36       6      48       2      12      48       6      36      11
      15       0       3      18       4      15       0       3      33       4
      15       0       6      36       4      15       0       6      48       4
      21      39       9      33      12      21      39       9      36      12
      24      39       9      33      12      24      39       9      36      12
      27      42      12      45      14      27      42      12      48      14
      30      42      12      45      14      30      42      12      48      14
      15       0      -6      -3      15      18       0      -3     -33      15
       0      36      -6     -48      15      33      36      -9     -39      15
      42      45     -12     -48      15      21      24     -39      -9      15
      12      27     -42     -30      15
%FLAG EXCLUDED_ATOMS_LIST                                                       
%FORMAT(10I8)                                                                   
       2       3       4       5       6       7      12      13      17      18
      19      20      21      22      23       3       4       6       7      12
      13      14      17      18      19      20      21      22      23       4
       5       6       7      12      13      14      15      16      17      18
      19      20       7       8       9      12      13      14      17      24
      25      26      27      28      29      10      11      13      15      16
      17      30      31      32      33      34      35       7      12      13
      17      18      19      20      12      21      22      23       9      12
      13      14      24      25      26      27      28      29      12      13
      14      24      25      26      27      28      29      11      15      16
      17      30      31      32      33      34      35      15      16      17
      30      31      32      33      34      35      13      14      21      22
      23      14      17      24      25      26      27      28      29      16
      17      30      31      32      33      34      35      17       0      19
      20      20       0      22      23      23       0      25      26      26
       0      28      29      29       0      31      32      32       0      34
      35      35       0
%FLAG HBOND_ACOEF                                                               
%FORMAT(5E16.8)                                                                 

%FLAG HBOND_BCOEF                                                               
%FORMAT(5E16.8)                                                                 

%FLAG HBCUT                                                                     
%FORMAT(5E16.8)                                                                 

%FLAG AMBER_ATOM_TYPE                                                           
%FORMAT(20a4)                                                                   
ca  ca  ca  ca  c   c3  c3  c3  c3  c3  c3  nb  nb  nh  n   o   os  hc  hc  hc  
hc  hc  hc  h1  h1  h1  h1  h1  h1  h1  h1  h1  h1  h1  h1  
%FLAG TREE_CHAIN_CLASSIFICATION                                                 
%FORMAT(20a4)                                                                   
BLA BLA BLA BLA BLA BLA BLA BLA BLA BLA BLA BLA BLA BLA BLA BLA BLA BLA BLA BLA 
BLA BLA BLA BLA BLA BLA BLA BLA BLA BLA BLA BLA BLA BLA BLA 
%FLAG JOIN_ARRAY                                                                
%FORMAT(10I8)                                                                   
       0       0       0       0       0       0       0       0       0       0
       0       0       0       0       0       0       0       0       0       0
       0       0       0       0       0       0       0       0       0       0
       0       0       0       0       0
%FLAG IROTAT                                                                    
%FORMAT(10I8)                                                                   
       0       0       0       0       0       0       0       0       0       0
       0       0       0       0       0       0       0       0       0       0
       0       0       0       0       0       0       0       0       0       0
       0       0       0       0       0
%FLAG RADIUS_SET                                                                
%FORMAT(1a80)                                                                   
modified Bondi radii (mbondi)                                                   
%FLAG RADII                                                                     
%FORMAT(5E16.8)                                                                 
  1.70000000E+00  1.70000000E+00  1.70000000E+00  1.70000000E+00  1.70000000E+00
  1.70000000E+00  1.70000000E+00  1.70000000E+00  1.70000000E+00  1.70000000E+00
  1.70000000E+00  1.55000000E+00  1.55000000E+00  1.55000000E+00  1.55000000E+00
  1.50000000E+00  1.50000000E+00  1.30000000E+00  1.30000000E+00  1.30000000E+00
  1.30000000E+00  1.30000000E+00  1.30000000E+00  1.30000000E+00  1.30000000E+00
  1.30000000E+00  1.30000000E+00  1.30000000E+00  1.30000000E+00  1.30000000E+00
  1.30000000E+00  1.30000000E+00  1.30000000E+00  1.30000000E+00  1.30000000E+00
%FLAG SCREEN                                                                    
%FORMAT(5E16.8)                                                                 
  7.20000000E-01  7.20000000E-01  7.20000000E-01  7.20000000E-01  7.20000000E-01
  7.20000000E-01  7.20000000E-01  7.20000000E-01  7.20000000E-01  7.20000000E-01
  7.20000000E-01  7.90000000E-01  7.90000000E-01  7.90000000E-01  7.90000000E-01
  8.50000000E-01  8.50000000E-01  8.50000000E-01  8.50000000E-01  8.50000000E-01
  8.50000000E-01  8.50000000E-01  8.50000000E-01  8.50000000E-01  8.50000000E-01
  8.50000000E-01  8.50000000E-01  8.50000000E-01  8.50000000E-01  8.50000000E-01
  8.50000000E-01  8.50000000E-01  8.50000000E-01  8.50000000E-01  8.50000000E-01
%FLAG IPOL                                                                      
%FORMAT(1I8)                                                                    
       0
