; mobley_7754849_GMX_OPLS.top created by acpype (v: 2023.10.27) on Wed May 20 23:46:58 2026

; Include forcefield parameters
#include "ffoplsaa.itp"

; Include mobley_7754849_GMX.itp topology
#include "mobley_7754849_GMX.itp"

; Ligand position restraints
#ifdef POSRES_LIG
#include "posre_mobley_7754849.itp"
#endif

[ system ]
 mobley_7754849

[ molecules ]
; Compound        nmols
 mobley_7754849   1     
