%VERSION  VERSION_STAMP = V0001.000  DATE = 05/20/26  23:48:20                  
%FLAG TITLE                                                                     
%FORMAT(20a4)                                                                   
CUP08031_AM1BCC_v1_0                                                            
%FLAG POINTERS                                                                  
%FORMAT(10I8)                                                                   
      41       7      22      18      49      23      60      28       0       0
     189       1      18      23      28       9      15      11       8       0
       0       0       0       0       0       0       0       0      41       0
       0
%FLAG ATOM_NAME                                                                 
%FORMAT(20a4)                                                                   
C1  C2  C3  C4  C5  C6  C7  C8  C9  O1  O2  O3  O4  P1  P2  S1  S2  S3  S4  H1  
H2  H3  H4  H5  H6  H7  H8  H9  H10 H11 H12 H13 H14 H15 H16 H17 H18 H19 H20 H21 
H22 
%FLAG CHARGE                                                                    
%FORMAT(5E16.8)                                                                 
 -2.05638656E+00 -2.05638656E+00 -2.05638656E+00 -2.05638656E+00  2.56296649E+00
  2.56296649E+00  2.56296649E+00  2.56296649E+00  6.46527204E+00 -8.71390386E+00
 -8.71390386E+00 -8.71390386E+00 -8.71390386E+00  1.61486023E+01  1.61486023E+01
 -9.43915140E+00 -9.43915140E+00 -7.42558725E+00 -7.42558725E+00  1.05142671E+00
  1.05142671E+00  1.05142671E+00  1.05142671E+00  1.05142671E+00  1.05142671E+00
  1.05142671E+00  1.05142671E+00  1.05142671E+00  1.05142671E+00  1.05142671E+00
  1.05142671E+00  1.33387236E+00  1.33387236E+00  1.33387236E+00  1.33387236E+00
  1.33387236E+00  1.33387236E+00  1.33387236E+00  1.33387236E+00  2.25409851E+00
  2.25409851E+00
%FLAG ATOMIC_NUMBER                                                             
%FORMAT(10I8)                                                                   
       6       6       6       6       6       6       6       6       6       8
       8       8       8      15      15      16      16      16      16       1
       1       1       1       1       1       1       1       1       1       1
       1       1       1       1       1       1       1       1       1       1
       1
%FLAG MASS                                                                      
%FORMAT(5E16.8)                                                                 
  1.20100000E+01  1.20100000E+01  1.20100000E+01  1.20100000E+01  1.20100000E+01
  1.20100000E+01  1.20100000E+01  1.20100000E+01  1.20100000E+01  1.60000000E+01
  1.60000000E+01  1.60000000E+01  1.60000000E+01  3.09700000E+01  3.09700000E+01
  3.20600000E+01  3.20600000E+01  3.20600000E+01  3.20600000E+01  1.00800000E+00
  1.00800000E+00  1.00800000E+00  1.00800000E+00  1.00800000E+00  1.00800000E+00
  1.00800000E+00  1.00800000E+00  1.00800000E+00  1.00800000E+00  1.00800000E+00
  1.00800000E+00  1.00800000E+00  1.00800000E+00  1.00800000E+00  1.00800000E+00
  1.00800000E+00  1.00800000E+00  1.00800000E+00  1.00800000E+00  1.00800000E+00
  1.00800000E+00
%FLAG ATOM_TYPE_INDEX                                                           
%FORMAT(10I8)                                                                   
       1       1       1       1       1       1       1       1       1       2
       2       2       2       3       3       4       4       4       4       5
       5       5       5       5       5       5       5       5       5       5
       5       6       6       6       6       6       6       6       6       7
       7
%FLAG NUMBER_EXCLUDED_ATOMS                                                     
%FORMAT(10I8)                                                                   
       8       8       8       8      10      10      10      10      12       9
       8       9       8       9       9       1       1       3       2       4
       3       2       4       3       2       4       3       2       4       3
       2       1       1       1       1       1       1       1       1       1
       1
%FLAG NONBONDED_PARM_INDEX                                                      
%FORMAT(10I8)                                                                   
       1       2       4       7      11      16      22       2       3       5
       8      12      17      23       4       5       6       9      13      18
      24       7       8       9      10      14      19      25      11      12
      13      14      15      20      26      16      17      18      19      20
      21      27      22      23      24      25      26      27      28
%FLAG RESIDUE_LABEL                                                             
%FORMAT(20a4)                                                                   
MOL 
%FLAG RESIDUE_POINTER                                                           
%FORMAT(10I8)                                                                   
       1
%FLAG BOND_FORCE_CONSTANT                                                       
%FORMAT(5E16.8)                                                                 
  2.28890000E+02  3.45250000E+02  2.82270000E+02  3.44220000E+02  1.84740000E+02
  3.47020000E+02  3.87590000E+02  2.63920000E+02  1.78940000E+02
%FLAG BOND_EQUIL_VALUE                                                          
%FORMAT(5E16.8)                                                                 
  1.53540000E+00  1.09620000E+00  1.42730000E+00  1.09690000E+00  1.84070000E+00
  1.09500000E+00  1.61820000E+00  1.94730000E+00  2.11590000E+00
%FLAG ANGLE_FORCE_CONSTANT                                                      
%FORMAT(5E16.8)                                                                 
  7.74400000E+01  4.32800000E+01  4.32700000E+01  5.66400000E+01  6.04000000E+01
  5.62000000E+01  1.02920000E+02  8.13100000E+01  8.15000000E+01  6.91600000E+01
  6.77500000E+01  4.20300000E+01  3.58000000E+01  3.56400000E+01  3.55500000E+01
%FLAG ANGLE_EQUIL_VALUE                                                         
%FORMAT(5E16.8)                                                                 
  1.87832415E+00  1.91270715E+00  1.91427794E+00  2.08916001E+00  1.74114121E+00
  1.92579712E+00  1.77534968E+00  2.04273423E+00  1.78686885E+00  2.01515802E+00
  1.94464669E+00  1.89926811E+00  1.88024401E+00  1.89455572E+00  1.91131088E+00
%FLAG DIHEDRAL_FORCE_CONSTANT                                                   
%FORMAT(5E16.8)                                                                 
  3.95000000E+00  3.83000000E-01  3.52000000E+00  8.00000000E-01  3.92700000E+00
  3.80000000E+00  2.50000000E-01  0.00000000E+00  0.00000000E+00  3.33333333E-01
  1.55555556E-01
%FLAG DIHEDRAL_PERIODICITY                                                      
%FORMAT(5E16.8)                                                                 
  1.00000000E+00  3.00000000E+00  2.00000000E+00  2.00000000E+00  2.00000000E+00
  2.00000000E+00  1.00000000E+00  3.00000000E+00  1.00000000E+00  3.00000000E+00
  3.00000000E+00
%FLAG DIHEDRAL_PHASE                                                            
%FORMAT(5E16.8)                                                                 
  3.14159400E+00  0.00000000E+00  0.00000000E+00  0.00000000E+00  3.14159400E+00
  3.14159400E+00  0.00000000E+00  0.00000000E+00  0.00000000E+00  0.00000000E+00
  0.00000000E+00
%FLAG SCEE_SCALE_FACTOR                                                         
%FORMAT(5E16.8)                                                                 
  1.20000000E+00  1.20000000E+00  1.20000000E+00  1.20000000E+00  1.20000000E+00
  1.20000000E+00  1.20000000E+00  1.20000000E+00  1.20000000E+00  1.20000000E+00
  1.20000000E+00
%FLAG SCNB_SCALE_FACTOR                                                         
%FORMAT(5E16.8)                                                                 
  2.00000000E+00  2.00000000E+00  2.00000000E+00  2.00000000E+00  2.00000000E+00
  2.00000000E+00  2.00000000E+00  2.00000000E+00  2.00000000E+00  2.00000000E+00
  2.00000000E+00
%FLAG SOLTY                                                                     
%FORMAT(5E16.8)                                                                 
  0.00000000E+00  0.00000000E+00  0.00000000E+00  0.00000000E+00  0.00000000E+00
  0.00000000E+00  0.00000000E+00  0.00000000E+00
%FLAG LENNARD_JONES_ACOEF                                                       
%FORMAT(5E16.8)                                                                 
  1.02073671E+06  5.42502534E+05  2.83662575E+05  2.48558450E+06  1.34566835E+06
  5.92702883E+06  2.09089895E+06  1.12086734E+06  5.04212449E+06  4.26366419E+06
  1.00235148E+05  5.02224902E+04  2.60860942E+05  2.11783234E+05  7.94617769E+03
  6.97998263E+04  3.44374471E+04  1.84820254E+05  1.48672098E+05  5.22955465E+03
  3.39005767E+03  4.80619274E+04  2.33261683E+04  1.29617879E+05  1.03252037E+05
  3.39005767E+03  2.16218723E+03  1.35510742E+03
%FLAG LENNARD_JONES_BCOEF                                                       
%FORMAT(5E16.8)                                                                 
  6.63431737E+02  4.38146883E+02  2.87011518E+02  1.25053147E+03  8.33544600E+02
  2.33259779E+03  1.20800124E+03  8.01230425E+02  2.26594113E+03  2.19459223E+03
  1.37787728E+02  8.83545880E+01  2.68501076E+02  2.54804909E+02  2.57122925E+01
  1.14981426E+02  7.31636661E+01  2.26004082E+02  2.13489607E+02  2.08590256E+01
  1.67944276E+01  9.54115851E+01  6.02145835E+01  1.89266590E+02  1.77914489E+02
  1.67944276E+01  1.34124560E+01  1.06181419E+01
%FLAG BONDS_INC_HYDROGEN                                                        
%FORMAT(10I8)                                                                   
       0      57       2       0      60       2       0      63       2       3
      66       2       3      69       2       3      72       2       6      75
       2       6      78       2       6      81       2       9      84       2
       9      87       2       9      90       2      12      93       4      12
      96       4      15      99       4      15     102       4      18     105
       4      18     108       4      21     111       4      21     114       4
      24     117       6      24     120       6
%FLAG BONDS_WITHOUT_HYDROGEN                                                    
%FORMAT(10I8)                                                                   
       0      12       1       3      15       1       6      18       1       9
      21       1      12      27       3      15      30       3      18      33
       3      21      36       3      24      51       5      24      54       5
      27      39       7      30      39       7      33      42       7      36
      42       7      39      45       8      39      51       9      42      48
       8      42      54       9
%FLAG ANGLES_INC_HYDROGEN                                                       
%FORMAT(10I8)                                                                   
       0      12      93       2       0      12      96       2       3      15
      99       2       3      15     102       2       6      18     105       2
       6      18     108       2       9      21     111       2       9      21
     114       2      12       0      57       3      12       0      60       3
      12       0      63       3      15       3      66       3      15       3
      69       3      15       3      72       3      18       6      75       3
      18       6      78       3      18       6      81       3      21       9
      84       3      21       9      87       3      21       9      90       3
      27      12      93       6      27      12      96       6      30      15
      99       6      30      15     102       6      33      18     105       6
      33      18     108       6      36      21     111       6      36      21
     114       6      51      24     117      12      51      24     120      12
      54      24     117      12      54      24     120      12      57       0
      60      13      57       0      63      13      60       0      63      13
      66       3      69      13      66       3      72      13      69       3
      72      13      75       6      78      13      75       6      81      13
      78       6      81      13      84       9      87      13      84       9
      90      13      87       9      90      13      93      12      96      14
      99      15     102      14     105      18     108      14     111      21
     114      14     117      24     120      15
%FLAG ANGLES_WITHOUT_HYDROGEN                                                   
%FORMAT(10I8)                                                                   
       0      12      27       1       3      15      30       1       6      18
      33       1       9      21      36       1      12      27      39       4
      15      30      39       4      18      33      42       4      21      36
      42       4      24      51      39       5      24      54      42       5
      27      39      30       7      27      39      45       8      27      39
      51       9      30      39      45       8      30      39      51       9
      33      42      36       7      33      42      48       8      33      42
      54       9      36      42      48       8      36      42      54       9
      45      39      51      10      48      42      54      10      51      24
      54      11
%FLAG DIHEDRALS_INC_HYDROGEN                                                    
%FORMAT(10I8)                                                                   
      57       0      12      27       7      57       0     -12      27       8
      60       0      12      27       7      60       0     -12      27       8
      63       0      12      27       7      63       0     -12      27       8
      30      15       3      66       7      30      15      -3      66       8
      30      15       3      69       7      30      15      -3      69       8
      30      15       3      72       7      30      15      -3      72       8
      33      18       6      75       7      33      18      -6      75       8
      33      18       6      78       7      33      18      -6      78       8
      33      18       6      81       7      33      18      -6      81       8
      36      21       9      84       7      36      21      -9      84       8
      36      21       9      87       7      36      21      -9      87       8
      36      21       9      90       7      36      21      -9      90       8
      39      27      12      93       9      39      27      12      96       9
      39      30      15      99       9      39      30      15     102       9
      39      51      24     117      10      39      51      24     120      10
      42      33      18     105       9      42      33      18     108       9
      42      36      21     111       9      42      36      21     114       9
      42      54      24     117      10      42      54      24     120      10
      57       0      12      93      11      57       0      12      96      11
      60       0      12      93      11      60       0      12      96      11
      63       0      12      93      11      63       0      12      96      11
      66       3      15      99      11      66       3      15     102      11
      69       3      15      99      11      69       3      15     102      11
      72       3      15      99      11      72       3      15     102      11
      75       6      18     105      11      75       6      18     108      11
      78       6      18     105      11      78       6      18     108      11
      81       6      18     105      11      81       6      18     108      11
      84       9      21     111      11      84       9      21     114      11
      87       9      21     111      11      87       9      21     114      11
      90       9      21     111      11      90       9      21     114      11
%FLAG DIHEDRALS_WITHOUT_HYDROGEN                                                
%FORMAT(10I8)                                                                   
       0      12      27      39       1       0      12     -27      39       2
       3      15      30      39       1       3      15     -30      39       2
       6      18      33      42       1       6      18     -33      42       2
       9      21      36      42       1       9      21     -36      42       2
      12      27      39      30       3      12      27      39      45       4
      12      27      39      51       4      15      30      39      27       3
      15      30      39      45       4      15      30      39      51       4
      18      33      42      36       3      18      33      42      48       4
      18      33      42      54       4      21      36      42      33       3
      21      36      42      48       4      21      36      42      54       4
      24      51      39      27       5      24      51      39      30       5
      24      51      39      45       6      24      54      42      33       5
      24      54      42      36       5      24      54      42      48       6
      39      51      24      54      10      42      54      24      51      10
%FLAG EXCLUDED_ATOMS_LIST                                                       
%FORMAT(10I8)                                                                   
       5      10      14      20      21      22      32      33       6      11
      14      23      24      25      34      35       7      12      15      26
      27      28      36      37       8      13      15      29      30      31
      38      39      10      11      14      16      18      20      21      22
      32      33      10      11      14      16      18      23      24      25
      34      35      12      13      15      17      19      26      27      28
      36      37      12      13      15      17      19      29      30      31
      38      39      10      11      12      13      14      15      16      17
      18      19      40      41      11      14      16      18      20      21
      22      32      33      14      16      18      23      24      25      34
      35      13      15      17      19      26      27      28      36      37
      15      17      19      29      30      31      38      39      16      18
      19      32      33      34      35      40      41      17      18      19
      36      37      38      39      40      41      18      19      19      40
      41      40      41      21      22      32      33      22      32      33
      32      33      24      25      34      35      25      34      35      34
      35      27      28      36      37      28      36      37      36      37
      30      31      38      39      31      38      39      38      39      33
       0      35       0      37       0      39       0      41       0
%FLAG HBOND_ACOEF                                                               
%FORMAT(5E16.8)                                                                 

%FLAG HBOND_BCOEF                                                               
%FORMAT(5E16.8)                                                                 

%FLAG HBCUT                                                                     
%FORMAT(5E16.8)                                                                 

%FLAG AMBER_ATOM_TYPE                                                           
%FORMAT(20a4)                                                                   
c3  c3  c3  c3  c3  c3  c3  c3  c3  os  os  os  os  p5  p5  s   s   ss  ss  hc  
hc  hc  hc  hc  hc  hc  hc  hc  hc  hc  hc  h1  h1  h1  h1  h1  h1  h1  h1  h2  
h2  
%FLAG TREE_CHAIN_CLASSIFICATION                                                 
%FORMAT(20a4)                                                                   
BLA BLA BLA BLA BLA BLA BLA BLA BLA BLA BLA BLA BLA BLA BLA BLA BLA BLA BLA BLA 
BLA BLA BLA BLA BLA BLA BLA BLA BLA BLA BLA BLA BLA BLA BLA BLA BLA BLA BLA BLA 
BLA 
%FLAG JOIN_ARRAY                                                                
%FORMAT(10I8)                                                                   
       0       0       0       0       0       0       0       0       0       0
       0       0       0       0       0       0       0       0       0       0
       0       0       0       0       0       0       0       0       0       0
       0       0       0       0       0       0       0       0       0       0
       0
%FLAG IROTAT                                                                    
%FORMAT(10I8)                                                                   
       0       0       0       0       0       0       0       0       0       0
       0       0       0       0       0       0       0       0       0       0
       0       0       0       0       0       0       0       0       0       0
       0       0       0       0       0       0       0       0       0       0
       0
%FLAG RADIUS_SET                                                                
%FORMAT(1a80)                                                                   
modified Bondi radii (mbondi)                                                   
%FLAG RADII                                                                     
%FORMAT(5E16.8)                                                                 
  1.70000000E+00  1.70000000E+00  1.70000000E+00  1.70000000E+00  1.70000000E+00
  1.70000000E+00  1.70000000E+00  1.70000000E+00  1.70000000E+00  1.50000000E+00
  1.50000000E+00  1.50000000E+00  1.50000000E+00  1.85000000E+00  1.85000000E+00
  1.80000000E+00  1.80000000E+00  1.80000000E+00  1.80000000E+00  1.30000000E+00
  1.30000000E+00  1.30000000E+00  1.30000000E+00  1.30000000E+00  1.30000000E+00
  1.30000000E+00  1.30000000E+00  1.30000000E+00  1.30000000E+00  1.30000000E+00
  1.30000000E+00  1.30000000E+00  1.30000000E+00  1.30000000E+00  1.30000000E+00
  1.30000000E+00  1.30000000E+00  1.30000000E+00  1.30000000E+00  1.30000000E+00
  1.30000000E+00
%FLAG SCREEN                                                                    
%FORMAT(5E16.8)                                                                 
  7.20000000E-01  7.20000000E-01  7.20000000E-01  7.20000000E-01  7.20000000E-01
  7.20000000E-01  7.20000000E-01  7.20000000E-01  7.20000000E-01  8.50000000E-01
  8.50000000E-01  8.50000000E-01  8.50000000E-01  8.60000000E-01  8.60000000E-01
  9.60000000E-01  9.60000000E-01  9.60000000E-01  9.60000000E-01  8.50000000E-01
  8.50000000E-01  8.50000000E-01  8.50000000E-01  8.50000000E-01  8.50000000E-01
  8.50000000E-01  8.50000000E-01  8.50000000E-01  8.50000000E-01  8.50000000E-01
  8.50000000E-01  8.50000000E-01  8.50000000E-01  8.50000000E-01  8.50000000E-01
  8.50000000E-01  8.50000000E-01  8.50000000E-01  8.50000000E-01  8.50000000E-01
  8.50000000E-01
%FLAG IPOL                                                                      
%FORMAT(1I8)                                                                    
       0
