; mobley_7754849_GMX_OPLS.itp created by acpype (v: 2023.10.27) on Wed May 20 23:46:58 2026

; For OPLS atomtypes manual fine tuning
; AC_at:OPLS_at:OPLScode: Possible_Alternatives (see ffoplsaa.atp and ffoplsaanb.itp)
; c3:CT:opls_135: ['136', '137', '149', '157', '158', '206', '209', '210', '223B', '224B', '245', '246', '274', '283', '284', '285', '292', '292B', '293B', '296', '307', '308', '505']
; os:x:opls_x: []
; p5:x:opls_x: []
; s:x:opls_x: []
; ss:S:opls_202: []
; hc:HC:opls_140: []
; h1:HC:opls_140: []
; h2:x:opls_x: []

[ moleculetype ]
;name            nrexcl
 mobley_7754849   3

[ atoms ]
;   nr  type  resi  res  atom  cgnr     charge      mass       ; qtot   bond_type
     1 opls_135     1   MOL    C1    1    -0.112850     12.01100 ; qtot -0.113  CT  
     2 opls_135     1   MOL    C2    2    -0.112850     12.01100 ; qtot -0.226  CT  
     3 opls_135     1   MOL    C3    3    -0.112850     12.01100 ; qtot -0.339  CT  
     4 opls_135     1   MOL    C4    4    -0.112850     12.01100 ; qtot -0.451  CT  
     5 opls_135     1   MOL    C5    5     0.140650     12.01100 ; qtot -0.311  CT  
     6 opls_135     1   MOL    C6    6     0.140650     12.01100 ; qtot -0.170  CT  
     7 opls_135     1   MOL    C7    7     0.140650     12.01100 ; qtot -0.029  CT  
     8 opls_135     1   MOL    C8    8     0.140650     12.01100 ; qtot  0.111  CT  
     9 opls_135     1   MOL    C9    9     0.354800     12.01100 ; qtot  0.466  CT  
    10 opls_x     1   MOL    O1   10    -0.478200      0.00000 ; qtot -0.012  x   
    11 opls_x     1   MOL    O2   11    -0.478200      0.00000 ; qtot -0.490  x   
    12 opls_x     1   MOL    O3   12    -0.478200      0.00000 ; qtot -0.969  x   
    13 opls_x     1   MOL    O4   13    -0.478200      0.00000 ; qtot -1.447  x   
    14 opls_x     1   MOL    P1   14     0.886200      0.00000 ; qtot -0.561  x   
    15 opls_x     1   MOL    P2   15     0.886200      0.00000 ; qtot  0.326  x   
    16 opls_x     1   MOL    S1   16    -0.518000      0.00000 ; qtot -0.192  x   
    17 opls_x     1   MOL    S2   17    -0.518000      0.00000 ; qtot -0.710  x   
    18 opls_202     1   MOL    S3   18    -0.407500     32.06000 ; qtot -1.118  S   
    19 opls_202     1   MOL    S4   19    -0.407500     32.06000 ; qtot -1.525  S   
    20 opls_140     1   MOL    H1   20     0.057700      1.00800 ; qtot -1.468  HC  
    21 opls_140     1   MOL    H2   21     0.057700      1.00800 ; qtot -1.410  HC  
    22 opls_140     1   MOL    H3   22     0.057700      1.00800 ; qtot -1.352  HC  
    23 opls_140     1   MOL    H4   23     0.057700      1.00800 ; qtot -1.295  HC  
    24 opls_140     1   MOL    H5   24     0.057700      1.00800 ; qtot -1.237  HC  
    25 opls_140     1   MOL    H6   25     0.057700      1.00800 ; qtot -1.179  HC  
    26 opls_140     1   MOL    H7   26     0.057700      1.00800 ; qtot -1.122  HC  
    27 opls_140     1   MOL    H8   27     0.057700      1.00800 ; qtot -1.064  HC  
    28 opls_140     1   MOL    H9   28     0.057700      1.00800 ; qtot -1.006  HC  
    29 opls_140     1   MOL   H10   29     0.057700      1.00800 ; qtot -0.948  HC  
    30 opls_140     1   MOL   H11   30     0.057700      1.00800 ; qtot -0.891  HC  
    31 opls_140     1   MOL   H12   31     0.057700      1.00800 ; qtot -0.833  HC  
    32 opls_140     1   MOL   H13   32     0.073200      1.00800 ; qtot -0.760  HC  
    33 opls_140     1   MOL   H14   33     0.073200      1.00800 ; qtot -0.687  HC  
    34 opls_140     1   MOL   H15   34     0.073200      1.00800 ; qtot -0.613  HC  
    35 opls_140     1   MOL   H16   35     0.073200      1.00800 ; qtot -0.540  HC  
    36 opls_140     1   MOL   H17   36     0.073200      1.00800 ; qtot -0.467  HC  
    37 opls_140     1   MOL   H18   37     0.073200      1.00800 ; qtot -0.394  HC  
    38 opls_140     1   MOL   H19   38     0.073200      1.00800 ; qtot -0.321  HC  
    39 opls_140     1   MOL   H20   39     0.073200      1.00800 ; qtot -0.247  HC  
    40 opls_x     1   MOL   H21   40     0.123700      0.00000 ; qtot -0.124  x   
    41 opls_x     1   MOL   H22   41     0.123700      0.00000 ; qtot -0.000  x   

[ bonds ]
;   ai     aj funct   r             k
     1      5   1 ;    1.5354e-01    1.9154e+05 ;     C1 - C5         CT - CT    
     1     20   1 ;    1.0962e-01    2.8891e+05 ;     C1 - H1         CT - HC    
     1     21   1 ;    1.0962e-01    2.8891e+05 ;     C1 - H2         CT - HC    
     1     22   1 ;    1.0962e-01    2.8891e+05 ;     C1 - H3         CT - HC    
     2      6   1 ;    1.5354e-01    1.9154e+05 ;     C2 - C6         CT - CT    
     2     23   1 ;    1.0962e-01    2.8891e+05 ;     C2 - H4         CT - HC    
     2     24   1 ;    1.0962e-01    2.8891e+05 ;     C2 - H5         CT - HC    
     2     25   1 ;    1.0962e-01    2.8891e+05 ;     C2 - H6         CT - HC    
     3      7   1 ;    1.5354e-01    1.9154e+05 ;     C3 - C7         CT - CT    
     3     26   1 ;    1.0962e-01    2.8891e+05 ;     C3 - H7         CT - HC    
     3     27   1 ;    1.0962e-01    2.8891e+05 ;     C3 - H8         CT - HC    
     3     28   1 ;    1.0962e-01    2.8891e+05 ;     C3 - H9         CT - HC    
     4      8   1 ;    1.5354e-01    1.9154e+05 ;     C4 - C8         CT - CT    
     4     29   1 ;    1.0962e-01    2.8891e+05 ;     C4 - H10        CT - HC    
     4     30   1 ;    1.0962e-01    2.8891e+05 ;     C4 - H11        CT - HC    
     4     31   1 ;    1.0962e-01    2.8891e+05 ;     C4 - H12        CT - HC    
     5     10   1 ;    1.4273e-01    2.3620e+05 ;     C5 - O1         CT - x     
     5     32   1 ;    1.0969e-01    2.8804e+05 ;     C5 - H13        CT - HC    
     5     33   1 ;    1.0969e-01    2.8804e+05 ;     C5 - H14        CT - HC    
     6     11   1 ;    1.4273e-01    2.3620e+05 ;     C6 - O2         CT - x     
     6     34   1 ;    1.0969e-01    2.8804e+05 ;     C6 - H15        CT - HC    
     6     35   1 ;    1.0969e-01    2.8804e+05 ;     C6 - H16        CT - HC    
     7     12   1 ;    1.4273e-01    2.3620e+05 ;     C7 - O3         CT - x     
     7     36   1 ;    1.0969e-01    2.8804e+05 ;     C7 - H17        CT - HC    
     7     37   1 ;    1.0969e-01    2.8804e+05 ;     C7 - H18        CT - HC    
     8     13   1 ;    1.4273e-01    2.3620e+05 ;     C8 - O4         CT - x     
     8     38   1 ;    1.0969e-01    2.8804e+05 ;     C8 - H19        CT - HC    
     8     39   1 ;    1.0969e-01    2.8804e+05 ;     C8 - H20        CT - HC    
     9     18   1 ;    1.8407e-01    1.5459e+05 ;     C9 - S3         CT - S     
     9     19   1 ;    1.8407e-01    1.5459e+05 ;     C9 - S4         CT - S     
     9     40   1 ;    1.0950e-01    2.9039e+05 ;     C9 - H21        CT - x     
     9     41   1 ;    1.0950e-01    2.9039e+05 ;     C9 - H22        CT - x     
    10     14   1 ;    1.6182e-01    3.2434e+05 ;     O1 - P1          x - x     
    11     14   1 ;    1.6182e-01    3.2434e+05 ;     O2 - P1          x - x     
    12     15   1 ;    1.6182e-01    3.2434e+05 ;     O3 - P2          x - x     
    13     15   1 ;    1.6182e-01    3.2434e+05 ;     O4 - P2          x - x     
    14     16   1 ;    1.9473e-01    2.2085e+05 ;     P1 - S1          x - x     
    14     18   1 ;    2.1159e-01    1.4974e+05 ;     P1 - S3          x - S     
    15     17   1 ;    1.9473e-01    2.2085e+05 ;     P2 - S2          x - x     
    15     19   1 ;    2.1159e-01    1.4974e+05 ;     P2 - S4          x - S     

[ pairs ]
;   ai     aj    funct
     1     14      1 ;     C1 - P1    
     2     14      1 ;     C2 - P1    
     3     15      1 ;     C3 - P2    
     4     15      1 ;     C4 - P2    
     5     11      1 ;     C5 - O2    
     5     16      1 ;     C5 - S1    
     5     18      1 ;     C5 - S3    
     6     10      1 ;     C6 - O1    
     6     16      1 ;     C6 - S1    
     6     18      1 ;     C6 - S3    
     7     13      1 ;     C7 - O4    
     7     17      1 ;     C7 - S2    
     7     19      1 ;     C7 - S4    
     8     12      1 ;     C8 - O3    
     8     17      1 ;     C8 - S2    
     8     19      1 ;     C8 - S4    
     9     10      1 ;     C9 - O1    
     9     11      1 ;     C9 - O2    
     9     12      1 ;     C9 - O3    
     9     13      1 ;     C9 - O4    
     9     16      1 ;     C9 - S1    
     9     17      1 ;     C9 - S2    
    11     23      1 ;     O2 - H4    
    11     24      1 ;     O2 - H5    
    11     25      1 ;     O2 - H6    
    12     26      1 ;     O3 - H7    
    12     27      1 ;     O3 - H8    
    12     28      1 ;     O3 - H9    
    13     29      1 ;     O4 - H10   
    13     30      1 ;     O4 - H11   
    13     31      1 ;     O4 - H12   
    14     19      1 ;     P1 - S4    
    14     32      1 ;     P1 - H13   
    14     33      1 ;     P1 - H14   
    14     34      1 ;     P1 - H15   
    14     35      1 ;     P1 - H16   
    14     40      1 ;     P1 - H21   
    14     41      1 ;     P1 - H22   
    15     18      1 ;     P2 - S3    
    15     36      1 ;     P2 - H17   
    15     37      1 ;     P2 - H18   
    15     38      1 ;     P2 - H19   
    15     39      1 ;     P2 - H20   
    15     40      1 ;     P2 - H21   
    15     41      1 ;     P2 - H22   
    20     10      1 ;     H1 - O1    
    20     32      1 ;     H1 - H13   
    20     33      1 ;     H1 - H14   
    21     10      1 ;     H2 - O1    
    21     32      1 ;     H2 - H13   
    21     33      1 ;     H2 - H14   
    22     10      1 ;     H3 - O1    
    22     32      1 ;     H3 - H13   
    22     33      1 ;     H3 - H14   
    23     34      1 ;     H4 - H15   
    23     35      1 ;     H4 - H16   
    24     34      1 ;     H5 - H15   
    24     35      1 ;     H5 - H16   
    25     34      1 ;     H6 - H15   
    25     35      1 ;     H6 - H16   
    26     36      1 ;     H7 - H17   
    26     37      1 ;     H7 - H18   
    27     36      1 ;     H8 - H17   
    27     37      1 ;     H8 - H18   
    28     36      1 ;     H9 - H17   
    28     37      1 ;     H9 - H18   
    29     38      1 ;    H10 - H19   
    29     39      1 ;    H10 - H20   
    30     38      1 ;    H11 - H19   
    30     39      1 ;    H11 - H20   
    31     38      1 ;    H12 - H19   
    31     39      1 ;    H12 - H20   

[ angles ]
;   ai     aj     ak    funct   theta         cth
     1      5     10      1 ;    1.0762e+02    6.4802e+02 ;     C1 - C5   - O1       CT -   CT - x   
     1      5     32      1 ;    1.0959e+02    3.6217e+02 ;     C1 - C5   - H13      CT -   CT - HC  
     1      5     33      1 ;    1.0959e+02    3.6217e+02 ;     C1 - C5   - H14      CT -   CT - HC  
     2      6     11      1 ;    1.0762e+02    6.4802e+02 ;     C2 - C6   - O2       CT -   CT - x   
     2      6     34      1 ;    1.0959e+02    3.6217e+02 ;     C2 - C6   - H15      CT -   CT - HC  
     2      6     35      1 ;    1.0959e+02    3.6217e+02 ;     C2 - C6   - H16      CT -   CT - HC  
     3      7     12      1 ;    1.0762e+02    6.4802e+02 ;     C3 - C7   - O3       CT -   CT - x   
     3      7     36      1 ;    1.0959e+02    3.6217e+02 ;     C3 - C7   - H17      CT -   CT - HC  
     3      7     37      1 ;    1.0959e+02    3.6217e+02 ;     C3 - C7   - H18      CT -   CT - HC  
     4      8     13      1 ;    1.0762e+02    6.4802e+02 ;     C4 - C8   - O4       CT -   CT - x   
     4      8     38      1 ;    1.0959e+02    3.6217e+02 ;     C4 - C8   - H19      CT -   CT - HC  
     4      8     39      1 ;    1.0959e+02    3.6217e+02 ;     C4 - C8   - H20      CT -   CT - HC  
     5      1     20      1 ;    1.0968e+02    3.6208e+02 ;     C5 - C1   - H1       CT -   CT - HC  
     5      1     21      1 ;    1.0968e+02    3.6208e+02 ;     C5 - C1   - H2       CT -   CT - HC  
     5      1     22      1 ;    1.0968e+02    3.6208e+02 ;     C5 - C1   - H3       CT -   CT - HC  
     5     10     14      1 ;    1.1970e+02    4.7396e+02 ;     C5 - O1   - P1       CT -    x - x   
     6      2     23      1 ;    1.0968e+02    3.6208e+02 ;     C6 - C2   - H4       CT -   CT - HC  
     6      2     24      1 ;    1.0968e+02    3.6208e+02 ;     C6 - C2   - H5       CT -   CT - HC  
     6      2     25      1 ;    1.0968e+02    3.6208e+02 ;     C6 - C2   - H6       CT -   CT - HC  
     6     11     14      1 ;    1.1970e+02    4.7396e+02 ;     C6 - O2   - P1       CT -    x - x   
     7      3     26      1 ;    1.0968e+02    3.6208e+02 ;     C7 - C3   - H7       CT -   CT - HC  
     7      3     27      1 ;    1.0968e+02    3.6208e+02 ;     C7 - C3   - H8       CT -   CT - HC  
     7      3     28      1 ;    1.0968e+02    3.6208e+02 ;     C7 - C3   - H9       CT -   CT - HC  
     7     12     15      1 ;    1.1970e+02    4.7396e+02 ;     C7 - O3   - P2       CT -    x - x   
     8      4     29      1 ;    1.0968e+02    3.6208e+02 ;     C8 - C4   - H10      CT -   CT - HC  
     8      4     30      1 ;    1.0968e+02    3.6208e+02 ;     C8 - C4   - H11      CT -   CT - HC  
     8      4     31      1 ;    1.0968e+02    3.6208e+02 ;     C8 - C4   - H12      CT -   CT - HC  
     8     13     15      1 ;    1.1970e+02    4.7396e+02 ;     C8 - O4   - P2       CT -    x - x   
     9     18     14      1 ;    9.9760e+01    5.0543e+02 ;     C9 - S3   - P1       CT -    S - x   
     9     19     15      1 ;    9.9760e+01    5.0543e+02 ;     C9 - S4   - P2       CT -    S - x   
    10      5     32      1 ;    1.1034e+02    4.7028e+02 ;     O1 - C5   - H13       x -   CT - HC  
    10      5     33      1 ;    1.1034e+02    4.7028e+02 ;     O1 - C5   - H14       x -   CT - HC  
    10     14     11      1 ;    1.0172e+02    8.6123e+02 ;     O1 - P1   - O2        x -    x - x   
    10     14     16      1 ;    1.1704e+02    6.8040e+02 ;     O1 - P1   - S1        x -    x - x   
    10     14     18      1 ;    1.0238e+02    6.8199e+02 ;     O1 - P1   - S3        x -    x - S   
    11      6     34      1 ;    1.1034e+02    4.7028e+02 ;     O2 - C6   - H15       x -   CT - HC  
    11      6     35      1 ;    1.1034e+02    4.7028e+02 ;     O2 - C6   - H16       x -   CT - HC  
    11     14     16      1 ;    1.1704e+02    6.8040e+02 ;     O2 - P1   - S1        x -    x - x   
    11     14     18      1 ;    1.0238e+02    6.8199e+02 ;     O2 - P1   - S3        x -    x - S   
    12      7     36      1 ;    1.1034e+02    4.7028e+02 ;     O3 - C7   - H17       x -   CT - HC  
    12      7     37      1 ;    1.1034e+02    4.7028e+02 ;     O3 - C7   - H18       x -   CT - HC  
    12     15     13      1 ;    1.0172e+02    8.6123e+02 ;     O3 - P2   - O4        x -    x - x   
    12     15     17      1 ;    1.1704e+02    6.8040e+02 ;     O3 - P2   - S2        x -    x - x   
    12     15     19      1 ;    1.0238e+02    6.8199e+02 ;     O3 - P2   - S4        x -    x - S   
    13      8     38      1 ;    1.1034e+02    4.7028e+02 ;     O4 - C8   - H19       x -   CT - HC  
    13      8     39      1 ;    1.1034e+02    4.7028e+02 ;     O4 - C8   - H20       x -   CT - HC  
    13     15     17      1 ;    1.1704e+02    6.8040e+02 ;     O4 - P2   - S2        x -    x - x   
    13     15     19      1 ;    1.0238e+02    6.8199e+02 ;     O4 - P2   - S4        x -    x - S   
    16     14     18      1 ;    1.1546e+02    5.7873e+02 ;     S1 - P1   - S3        x -    x - S   
    17     15     19      1 ;    1.1546e+02    5.7873e+02 ;     S2 - P2   - S4        x -    x - S   
    18      9     19      1 ;    1.1142e+02    5.6693e+02 ;     S3 - C9   - S4        S -   CT - S   
    18      9     40      1 ;    1.0882e+02    3.5171e+02 ;     S3 - C9   - H21       S -   CT - x   
    18      9     41      1 ;    1.0882e+02    3.5171e+02 ;     S3 - C9   - H22       S -   CT - x   
    19      9     40      1 ;    1.0882e+02    3.5171e+02 ;     S4 - C9   - H21       S -   CT - x   
    19      9     41      1 ;    1.0882e+02    3.5171e+02 ;     S4 - C9   - H22       S -   CT - x   
    20      1     21      1 ;    1.0773e+02    2.9957e+02 ;     H1 - C1   - H2       HC -   CT - HC  
    20      1     22      1 ;    1.0773e+02    2.9957e+02 ;     H1 - C1   - H3       HC -   CT - HC  
    21      1     22      1 ;    1.0773e+02    2.9957e+02 ;     H2 - C1   - H3       HC -   CT - HC  
    23      2     24      1 ;    1.0773e+02    2.9957e+02 ;     H4 - C2   - H5       HC -   CT - HC  
    23      2     25      1 ;    1.0773e+02    2.9957e+02 ;     H4 - C2   - H6       HC -   CT - HC  
    24      2     25      1 ;    1.0773e+02    2.9957e+02 ;     H5 - C2   - H6       HC -   CT - HC  
    26      3     27      1 ;    1.0773e+02    2.9957e+02 ;     H7 - C3   - H8       HC -   CT - HC  
    26      3     28      1 ;    1.0773e+02    2.9957e+02 ;     H7 - C3   - H9       HC -   CT - HC  
    27      3     28      1 ;    1.0773e+02    2.9957e+02 ;     H8 - C3   - H9       HC -   CT - HC  
    29      4     30      1 ;    1.0773e+02    2.9957e+02 ;    H10 - C4   - H11      HC -   CT - HC  
    29      4     31      1 ;    1.0773e+02    2.9957e+02 ;    H10 - C4   - H12      HC -   CT - HC  
    30      4     31      1 ;    1.0773e+02    2.9957e+02 ;    H11 - C4   - H12      HC -   CT - HC  
    32      5     33      1 ;    1.0855e+02    2.9824e+02 ;    H13 - C5   - H14      HC -   CT - HC  
    34      6     35      1 ;    1.0855e+02    2.9824e+02 ;    H15 - C6   - H16      HC -   CT - HC  
    36      7     37      1 ;    1.0855e+02    2.9824e+02 ;    H17 - C7   - H18      HC -   CT - HC  
    38      8     39      1 ;    1.0855e+02    2.9824e+02 ;    H19 - C8   - H20      HC -   CT - HC  
    40      9     41      1 ;    1.0951e+02    2.9748e+02 ;    H21 - C9   - H22       x -   CT - x   

[ dihedrals ] ; propers
; for gromacs 4.5 or higher, using funct 9
;    i      j      k      l   func   phase     kd      pn
     1      5     10     14      9 ;     0.00   1.60247   3 ;     C1-    C5-    O1-    P1
     1      5     10     14      9 ;   180.00  16.52680   1 ;     C1-    C5-    O1-    P1
     2      6     11     14      9 ;     0.00   1.60247   3 ;     C2-    C6-    O2-    P1
     2      6     11     14      9 ;   180.00  16.52680   1 ;     C2-    C6-    O2-    P1
     3      7     12     15      9 ;     0.00   1.60247   3 ;     C3-    C7-    O3-    P2
     3      7     12     15      9 ;   180.00  16.52680   1 ;     C3-    C7-    O3-    P2
     4      8     13     15      9 ;     0.00   1.60247   3 ;     C4-    C8-    O4-    P2
     4      8     13     15      9 ;   180.00  16.52680   1 ;     C4-    C8-    O4-    P2
     5     10     14     11      9 ;     0.00  14.72768   2 ;     C5-    O1-    P1-    O2
     5     10     14     16      9 ;     0.00   3.34720   2 ;     C5-    O1-    P1-    S1
     5     10     14     18      9 ;     0.00   3.34720   2 ;     C5-    O1-    P1-    S3
     6     11     14     10      9 ;     0.00  14.72768   2 ;     C6-    O2-    P1-    O1
     6     11     14     16      9 ;     0.00   3.34720   2 ;     C6-    O2-    P1-    S1
     6     11     14     18      9 ;     0.00   3.34720   2 ;     C6-    O2-    P1-    S3
     7     12     15     13      9 ;     0.00  14.72768   2 ;     C7-    O3-    P2-    O4
     7     12     15     17      9 ;     0.00   3.34720   2 ;     C7-    O3-    P2-    S2
     7     12     15     19      9 ;     0.00   3.34720   2 ;     C7-    O3-    P2-    S4
     8     13     15     12      9 ;     0.00  14.72768   2 ;     C8-    O4-    P2-    O3
     8     13     15     17      9 ;     0.00   3.34720   2 ;     C8-    O4-    P2-    S2
     8     13     15     19      9 ;     0.00   3.34720   2 ;     C8-    O4-    P2-    S4
     9     18     14     10      9 ;   180.00  16.43057   2 ;     C9-    S3-    P1-    O1
     9     18     14     11      9 ;   180.00  16.43057   2 ;     C9-    S3-    P1-    O2
     9     18     14     16      9 ;   180.00  15.89920   2 ;     C9-    S3-    P1-    S1
     9     19     15     12      9 ;   180.00  16.43057   2 ;     C9-    S4-    P2-    O3
     9     19     15     13      9 ;   180.00  16.43057   2 ;     C9-    S4-    P2-    O4
     9     19     15     17      9 ;   180.00  15.89920   2 ;     C9-    S4-    P2-    S2
    11      6      2     23      9 ;     0.00   0.00000   0 ;     O2-    C6-    C2-    H4
    11      6      2     23      9 ;     0.00   1.04600   1 ;     O2-    C6-    C2-    H4
    11      6      2     24      9 ;     0.00   0.00000   0 ;     O2-    C6-    C2-    H5
    11      6      2     24      9 ;     0.00   1.04600   1 ;     O2-    C6-    C2-    H5
    11      6      2     25      9 ;     0.00   0.00000   0 ;     O2-    C6-    C2-    H6
    11      6      2     25      9 ;     0.00   1.04600   1 ;     O2-    C6-    C2-    H6
    12      7      3     26      9 ;     0.00   0.00000   0 ;     O3-    C7-    C3-    H7
    12      7      3     26      9 ;     0.00   1.04600   1 ;     O3-    C7-    C3-    H7
    12      7      3     27      9 ;     0.00   0.00000   0 ;     O3-    C7-    C3-    H8
    12      7      3     27      9 ;     0.00   1.04600   1 ;     O3-    C7-    C3-    H8
    12      7      3     28      9 ;     0.00   0.00000   0 ;     O3-    C7-    C3-    H9
    12      7      3     28      9 ;     0.00   1.04600   1 ;     O3-    C7-    C3-    H9
    13      8      4     29      9 ;     0.00   0.00000   0 ;     O4-    C8-    C4-   H10
    13      8      4     29      9 ;     0.00   1.04600   1 ;     O4-    C8-    C4-   H10
    13      8      4     30      9 ;     0.00   0.00000   0 ;     O4-    C8-    C4-   H11
    13      8      4     30      9 ;     0.00   1.04600   1 ;     O4-    C8-    C4-   H11
    13      8      4     31      9 ;     0.00   0.00000   0 ;     O4-    C8-    C4-   H12
    13      8      4     31      9 ;     0.00   1.04600   1 ;     O4-    C8-    C4-   H12
    14     10      5     32      9 ;     0.00   0.00000   0 ;     P1-    O1-    C5-   H13
    14     10      5     33      9 ;     0.00   0.00000   0 ;     P1-    O1-    C5-   H14
    14     11      6     34      9 ;     0.00   0.00000   0 ;     P1-    O2-    C6-   H15
    14     11      6     35      9 ;     0.00   0.00000   0 ;     P1-    O2-    C6-   H16
    14     18      9     19      9 ;     0.00   1.39467   3 ;     P1-    S3-    C9-    S4
    14     18      9     40      9 ;     0.00   1.39467   3 ;     P1-    S3-    C9-   H21
    14     18      9     41      9 ;     0.00   1.39467   3 ;     P1-    S3-    C9-   H22
    15     12      7     36      9 ;     0.00   0.00000   0 ;     P2-    O3-    C7-   H17
    15     12      7     37      9 ;     0.00   0.00000   0 ;     P2-    O3-    C7-   H18
    15     13      8     38      9 ;     0.00   0.00000   0 ;     P2-    O4-    C8-   H19
    15     13      8     39      9 ;     0.00   0.00000   0 ;     P2-    O4-    C8-   H20
    15     19      9     18      9 ;     0.00   1.39467   3 ;     P2-    S4-    C9-    S3
    15     19      9     40      9 ;     0.00   1.39467   3 ;     P2-    S4-    C9-   H21
    15     19      9     41      9 ;     0.00   1.39467   3 ;     P2-    S4-    C9-   H22
    20      1      5     10      9 ;     0.00   0.00000   0 ;     H1-    C1-    C5-    O1
    20      1      5     10      9 ;     0.00   1.04600   1 ;     H1-    C1-    C5-    O1
    20      1      5     32      9 ;     0.00   0.65084   3 ;     H1-    C1-    C5-   H13
    20      1      5     33      9 ;     0.00   0.65084   3 ;     H1-    C1-    C5-   H14
    21      1      5     10      9 ;     0.00   0.00000   0 ;     H2-    C1-    C5-    O1
    21      1      5     10      9 ;     0.00   1.04600   1 ;     H2-    C1-    C5-    O1
    21      1      5     32      9 ;     0.00   0.65084   3 ;     H2-    C1-    C5-   H13
    21      1      5     33      9 ;     0.00   0.65084   3 ;     H2-    C1-    C5-   H14
    22      1      5     10      9 ;     0.00   0.00000   0 ;     H3-    C1-    C5-    O1
    22      1      5     10      9 ;     0.00   1.04600   1 ;     H3-    C1-    C5-    O1
    22      1      5     32      9 ;     0.00   0.65084   3 ;     H3-    C1-    C5-   H13
    22      1      5     33      9 ;     0.00   0.65084   3 ;     H3-    C1-    C5-   H14
    23      2      6     34      9 ;     0.00   0.65084   3 ;     H4-    C2-    C6-   H15
    23      2      6     35      9 ;     0.00   0.65084   3 ;     H4-    C2-    C6-   H16
    24      2      6     34      9 ;     0.00   0.65084   3 ;     H5-    C2-    C6-   H15
    24      2      6     35      9 ;     0.00   0.65084   3 ;     H5-    C2-    C6-   H16
    25      2      6     34      9 ;     0.00   0.65084   3 ;     H6-    C2-    C6-   H15
    25      2      6     35      9 ;     0.00   0.65084   3 ;     H6-    C2-    C6-   H16
    26      3      7     36      9 ;     0.00   0.65084   3 ;     H7-    C3-    C7-   H17
    26      3      7     37      9 ;     0.00   0.65084   3 ;     H7-    C3-    C7-   H18
    27      3      7     36      9 ;     0.00   0.65084   3 ;     H8-    C3-    C7-   H17
    27      3      7     37      9 ;     0.00   0.65084   3 ;     H8-    C3-    C7-   H18
    28      3      7     36      9 ;     0.00   0.65084   3 ;     H9-    C3-    C7-   H17
    28      3      7     37      9 ;     0.00   0.65084   3 ;     H9-    C3-    C7-   H18
    29      4      8     38      9 ;     0.00   0.65084   3 ;    H10-    C4-    C8-   H19
    29      4      8     39      9 ;     0.00   0.65084   3 ;    H10-    C4-    C8-   H20
    30      4      8     38      9 ;     0.00   0.65084   3 ;    H11-    C4-    C8-   H19
    30      4      8     39      9 ;     0.00   0.65084   3 ;    H11-    C4-    C8-   H20
    31      4      8     38      9 ;     0.00   0.65084   3 ;    H12-    C4-    C8-   H19
    31      4      8     39      9 ;     0.00   0.65084   3 ;    H12-    C4-    C8-   H20
