CUP08031_AM1BCC_v1_0
    41
   1.1670000   0.3570000   1.5410000   5.3350000  -2.5700000  -3.2050000
  -1.1850000  -2.5900000  -9.0760000  -6.0990000  -0.8070000  -5.9280000
   0.8850000  -0.8640000   0.6890000   3.9840000  -3.0690000  -2.7370000
  -1.3300000  -3.0330000  -7.6350000  -5.0640000  -1.9090000  -5.8320000
  -0.1420000  -1.7590000  -3.5320000   2.0700000  -1.2070000  -0.0130000
   3.5540000  -2.2560000  -1.6570000  -2.4080000  -2.3190000  -7.0510000
  -3.8760000  -1.3640000  -5.2830000   1.9600000  -2.1010000  -1.3670000
  -2.4750000  -2.1760000  -5.4330000   1.0820000  -3.8170000  -1.0680000
  -2.5910000  -3.8940000  -4.5220000   1.2360000  -0.8080000  -2.8610000
  -0.9590000  -0.8390000  -4.8510000   1.9860000   0.1590000   2.2410000
   1.4800000   1.2000000   0.9160000   0.2800000   0.6500000   2.1090000
   5.2660000  -1.5290000  -3.5370000   6.0620000  -2.5960000  -2.3870000
   5.7120000  -3.1800000  -4.0320000  -2.1120000  -2.7710000  -9.6310000
  -0.9860000  -1.5150000  -9.1300000  -0.3680000  -3.1260000  -9.5690000
  -6.2980000  -0.3770000  -4.9410000  -5.7360000   0.0080000  -6.5630000
  -7.0370000  -1.1870000  -6.3430000   0.0710000  -0.6510000  -0.0110000
   0.5940000  -1.7040000   1.3270000   4.0660000  -4.1030000  -2.3910000
   3.2660000  -3.0280000  -3.5620000  -0.4010000  -2.8410000  -7.0900000
  -1.5480000  -4.1050000  -7.5940000  -4.8730000  -2.3280000  -6.8240000
  -5.4280000  -2.7050000  -5.1750000  -0.8630000  -1.9700000  -2.7390000
   0.2330000  -2.7050000  -3.9280000
