mobley_9015240_GMX.gro created by acpype (v: 2023.10.27) on Wed May 20 23:45:39 2026
 26
    1  MOL   C1    1   0.059  -0.102  -0.296
    1  MOL   C2    2  -0.084  -0.117  -0.346
    1  MOL   C3    3  -0.173  -0.181  -0.240
    1  MOL   C4    4  -0.319  -0.197  -0.285
    1  MOL   C5    5  -0.407  -0.269  -0.182
    1  MOL   C6    6  -0.550  -0.284  -0.233
    1  MOL   C7    7  -0.638  -0.358  -0.132
    1  MOL   C8    8  -0.779  -0.376  -0.185
    1  MOL  BR1    9  -0.888  -0.466  -0.051
    1  MOL   H1   10   0.103  -0.199  -0.272
    1  MOL   H2   11   0.122  -0.055  -0.373
    1  MOL   H3   12   0.063  -0.039  -0.206
    1  MOL   H4   13  -0.084  -0.177  -0.437
    1  MOL   H5   14  -0.122  -0.017  -0.373
    1  MOL   H6   15  -0.134  -0.281  -0.216
    1  MOL   H7   16  -0.169  -0.123  -0.148
    1  MOL   H8   17  -0.361  -0.099  -0.308
    1  MOL   H9   18  -0.319  -0.255  -0.379
    1  MOL  H10   19  -0.408  -0.212  -0.088
    1  MOL  H11   20  -0.365  -0.367  -0.160
    1  MOL  H12   21  -0.593  -0.185  -0.253
    1  MOL  H13   22  -0.550  -0.339  -0.328
    1  MOL  H14   23  -0.640  -0.302  -0.037
    1  MOL  H15   24  -0.593  -0.456  -0.109
    1  MOL  H16   25  -0.827  -0.281  -0.206
    1  MOL  H17   26  -0.781  -0.439  -0.274
   20.19800     8.96800     7.99400
