1_bromooctane
    26
   0.5950000  -1.0180000  -2.9610000  -0.8350000  -1.1670000  -3.4590000
  -1.7300000  -1.8130000  -2.4010000  -3.1850000  -1.9730000  -2.8510000
  -4.0650000  -2.6860000  -1.8210000  -5.5000000  -2.8390000  -2.3300000
  -6.3750000  -3.5800000  -1.3180000  -7.7870000  -3.7640000  -1.8470000
  -8.8810000  -4.6590000  -0.5090000   1.0290000  -1.9940000  -2.7180000
   1.2180000  -0.5510000  -3.7300000   0.6340000  -0.3910000  -2.0640000
  -0.8360000  -1.7750000  -4.3710000  -1.2160000  -0.1750000  -3.7270000
  -1.3370000  -2.8080000  -2.1590000  -1.6940000  -1.2260000  -1.4760000
  -3.6090000  -0.9890000  -3.0820000  -3.1920000  -2.5470000  -3.7860000
  -4.0780000  -2.1210000  -0.8820000  -3.6460000  -3.6750000  -1.6010000
  -5.9270000  -1.8480000  -2.5290000  -5.4960000  -3.3860000  -3.2810000
  -6.3980000  -3.0190000  -0.3740000  -5.9280000  -4.5570000  -1.0930000
  -8.2720000  -2.8070000  -2.0590000  -7.8100000  -4.3920000  -2.7410000
