; mobley_9015240_GMX_OPLS.top created by acpype (v: 2023.10.27) on Wed May 20 23:45:39 2026

; Include forcefield parameters
#include "ffoplsaa.itp"

; Include mobley_9015240_GMX.itp topology
#include "mobley_9015240_GMX.itp"

; Ligand position restraints
#ifdef POSRES_LIG
#include "posre_mobley_9015240.itp"
#endif

[ system ]
 mobley_9015240

[ molecules ]
; Compound        nmols
 mobley_9015240   1     
