; mobley_9015240_GMX_OPLS.itp created by acpype (v: 2023.10.27) on Wed May 20 23:45:39 2026

; For OPLS atomtypes manual fine tuning
; AC_at:OPLS_at:OPLScode: Possible_Alternatives (see ffoplsaa.atp and ffoplsaanb.itp)
; c3:CT:opls_135: ['136', '137', '149', '157', '158', '206', '209', '210', '223B', '224B', '245', '246', '274', '283', '284', '285', '292', '292B', '293B', '296', '307', '308', '505']
; br:x:opls_x: []
; hc:HC:opls_140: []
; h1:HC:opls_140: []

[ moleculetype ]
;name            nrexcl
 mobley_9015240   3

[ atoms ]
;   nr  type  resi  res  atom  cgnr     charge      mass       ; qtot   bond_type
     1 opls_135     1   MOL    C1    1    -0.093100     12.01100 ; qtot -0.093  CT  
     2 opls_135     1   MOL    C2    2    -0.080400     12.01100 ; qtot -0.173  CT  
     3 opls_135     1   MOL    C3    3    -0.079400     12.01100 ; qtot -0.253  CT  
     4 opls_135     1   MOL    C4    4    -0.079400     12.01100 ; qtot -0.332  CT  
     5 opls_135     1   MOL    C5    5    -0.078400     12.01100 ; qtot -0.411  CT  
     6 opls_135     1   MOL    C6    6    -0.080400     12.01100 ; qtot -0.491  CT  
     7 opls_135     1   MOL    C7    7    -0.081400     12.01100 ; qtot -0.573  CT  
     8 opls_135     1   MOL    C8    8    -0.009000     12.01100 ; qtot -0.582  CT  
     9 opls_x     1   MOL   BR1    9    -0.176400      0.00000 ; qtot -0.758  x   
    10 opls_140     1   MOL    H1   10     0.032700      1.00800 ; qtot -0.725  HC  
    11 opls_140     1   MOL    H2   11     0.032700      1.00800 ; qtot -0.692  HC  
    12 opls_140     1   MOL    H3   12     0.032700      1.00800 ; qtot -0.660  HC  
    13 opls_140     1   MOL    H4   13     0.038700      1.00800 ; qtot -0.621  HC  
    14 opls_140     1   MOL    H5   14     0.038700      1.00800 ; qtot -0.582  HC  
    15 opls_140     1   MOL    H6   15     0.040700      1.00800 ; qtot -0.542  HC  
    16 opls_140     1   MOL    H7   16     0.040700      1.00800 ; qtot -0.501  HC  
    17 opls_140     1   MOL    H8   17     0.039700      1.00800 ; qtot -0.461  HC  
    18 opls_140     1   MOL    H9   18     0.039700      1.00800 ; qtot -0.422  HC  
    19 opls_140     1   MOL   H10   19     0.041700      1.00800 ; qtot -0.380  HC  
    20 opls_140     1   MOL   H11   20     0.041700      1.00800 ; qtot -0.338  HC  
    21 opls_140     1   MOL   H12   21     0.041700      1.00800 ; qtot -0.296  HC  
    22 opls_140     1   MOL   H13   22     0.041700      1.00800 ; qtot -0.255  HC  
    23 opls_140     1   MOL   H14   23     0.055700      1.00800 ; qtot -0.199  HC  
    24 opls_140     1   MOL   H15   24     0.055700      1.00800 ; qtot -0.143  HC  
    25 opls_140     1   MOL   H16   25     0.071700      1.00800 ; qtot -0.072  HC  
    26 opls_140     1   MOL   H17   26     0.071700      1.00800 ; qtot  0.000  HC  

[ bonds ]
;   ai     aj funct   r             k
     1      2   1 ;    1.5354e-01    1.9154e+05 ;     C1 - C2         CT - CT    
     1     10   1 ;    1.0962e-01    2.8891e+05 ;     C1 - H1         CT - HC    
     1     11   1 ;    1.0962e-01    2.8891e+05 ;     C1 - H2         CT - HC    
     1     12   1 ;    1.0962e-01    2.8891e+05 ;     C1 - H3         CT - HC    
     2      3   1 ;    1.5354e-01    1.9154e+05 ;     C2 - C3         CT - CT    
     2     13   1 ;    1.0962e-01    2.8891e+05 ;     C2 - H4         CT - HC    
     2     14   1 ;    1.0962e-01    2.8891e+05 ;     C2 - H5         CT - HC    
     3      4   1 ;    1.5354e-01    1.9154e+05 ;     C3 - C4         CT - CT    
     3     15   1 ;    1.0962e-01    2.8891e+05 ;     C3 - H6         CT - HC    
     3     16   1 ;    1.0962e-01    2.8891e+05 ;     C3 - H7         CT - HC    
     4      5   1 ;    1.5354e-01    1.9154e+05 ;     C4 - C5         CT - CT    
     4     17   1 ;    1.0962e-01    2.8891e+05 ;     C4 - H8         CT - HC    
     4     18   1 ;    1.0962e-01    2.8891e+05 ;     C4 - H9         CT - HC    
     5      6   1 ;    1.5354e-01    1.9154e+05 ;     C5 - C6         CT - CT    
     5     19   1 ;    1.0962e-01    2.8891e+05 ;     C5 - H10        CT - HC    
     5     20   1 ;    1.0962e-01    2.8891e+05 ;     C5 - H11        CT - HC    
     6      7   1 ;    1.5354e-01    1.9154e+05 ;     C6 - C7         CT - CT    
     6     21   1 ;    1.0962e-01    2.8891e+05 ;     C6 - H12        CT - HC    
     6     22   1 ;    1.0962e-01    2.8891e+05 ;     C6 - H13        CT - HC    
     7      8   1 ;    1.5354e-01    1.9154e+05 ;     C7 - C8         CT - CT    
     7     23   1 ;    1.0962e-01    2.8891e+05 ;     C7 - H14        CT - HC    
     7     24   1 ;    1.0962e-01    2.8891e+05 ;     C7 - H15        CT - HC    
     8      9   1 ;    1.9805e-01    1.0319e+05 ;     C8 - BR1        CT - x     
     8     25   1 ;    1.0969e-01    2.8804e+05 ;     C8 - H16        CT - HC    
     8     26   1 ;    1.0969e-01    2.8804e+05 ;     C8 - H17        CT - HC    

[ pairs ]
;   ai     aj    funct
     1      4      1 ;     C1 - C4    
     1     15      1 ;     C1 - H6    
     1     16      1 ;     C1 - H7    
     2      5      1 ;     C2 - C5    
     2     17      1 ;     C2 - H8    
     2     18      1 ;     C2 - H9    
     3      6      1 ;     C3 - C6    
     3     19      1 ;     C3 - H10   
     3     20      1 ;     C3 - H11   
     4      7      1 ;     C4 - C7    
     4     13      1 ;     C4 - H4    
     4     14      1 ;     C4 - H5    
     4     21      1 ;     C4 - H12   
     4     22      1 ;     C4 - H13   
     5      8      1 ;     C5 - C8    
     5     15      1 ;     C5 - H6    
     5     16      1 ;     C5 - H7    
     5     23      1 ;     C5 - H14   
     5     24      1 ;     C5 - H15   
     6      9      1 ;     C6 - BR1   
     6     17      1 ;     C6 - H8    
     6     18      1 ;     C6 - H9    
     6     25      1 ;     C6 - H16   
     6     26      1 ;     C6 - H17   
     7     19      1 ;     C7 - H10   
     7     20      1 ;     C7 - H11   
     8     21      1 ;     C8 - H12   
     8     22      1 ;     C8 - H13   
     9     23      1 ;    BR1 - H14   
     9     24      1 ;    BR1 - H15   
    10      3      1 ;     H1 - C3    
    10     13      1 ;     H1 - H4    
    10     14      1 ;     H1 - H5    
    11      3      1 ;     H2 - C3    
    11     13      1 ;     H2 - H4    
    11     14      1 ;     H2 - H5    
    12      3      1 ;     H3 - C3    
    12     13      1 ;     H3 - H4    
    12     14      1 ;     H3 - H5    
    13     15      1 ;     H4 - H6    
    13     16      1 ;     H4 - H7    
    14     15      1 ;     H5 - H6    
    14     16      1 ;     H5 - H7    
    15     17      1 ;     H6 - H8    
    15     18      1 ;     H6 - H9    
    16     17      1 ;     H7 - H8    
    16     18      1 ;     H7 - H9    
    17     19      1 ;     H8 - H10   
    17     20      1 ;     H8 - H11   
    18     19      1 ;     H9 - H10   
    18     20      1 ;     H9 - H11   
    19     21      1 ;    H10 - H12   
    19     22      1 ;    H10 - H13   
    20     21      1 ;    H11 - H12   
    20     22      1 ;    H11 - H13   
    21     23      1 ;    H12 - H14   
    21     24      1 ;    H12 - H15   
    22     23      1 ;    H13 - H14   
    22     24      1 ;    H13 - H15   
    23     25      1 ;    H14 - H16   
    23     26      1 ;    H14 - H17   
    24     25      1 ;    H15 - H16   
    24     26      1 ;    H15 - H17   

[ angles ]
;   ai     aj     ak    funct   theta         cth
     1      2      3      1 ;    1.1263e+02    5.0099e+02 ;     C1 - C2   - C3       CT -   CT - CT  
     1      2     13      1 ;    1.0968e+02    3.6208e+02 ;     C1 - C2   - H4       CT -   CT - HC  
     1      2     14      1 ;    1.0968e+02    3.6208e+02 ;     C1 - C2   - H5       CT -   CT - HC  
     2      1     10      1 ;    1.0968e+02    3.6208e+02 ;     C2 - C1   - H1       CT -   CT - HC  
     2      1     11      1 ;    1.0968e+02    3.6208e+02 ;     C2 - C1   - H2       CT -   CT - HC  
     2      1     12      1 ;    1.0968e+02    3.6208e+02 ;     C2 - C1   - H3       CT -   CT - HC  
     2      3      4      1 ;    1.1263e+02    5.0099e+02 ;     C2 - C3   - C4       CT -   CT - CT  
     2      3     15      1 ;    1.0968e+02    3.6208e+02 ;     C2 - C3   - H6       CT -   CT - HC  
     2      3     16      1 ;    1.0968e+02    3.6208e+02 ;     C2 - C3   - H7       CT -   CT - HC  
     3      2     13      1 ;    1.0968e+02    3.6208e+02 ;     C3 - C2   - H4       CT -   CT - HC  
     3      2     14      1 ;    1.0968e+02    3.6208e+02 ;     C3 - C2   - H5       CT -   CT - HC  
     3      4      5      1 ;    1.1263e+02    5.0099e+02 ;     C3 - C4   - C5       CT -   CT - CT  
     3      4     17      1 ;    1.0968e+02    3.6208e+02 ;     C3 - C4   - H8       CT -   CT - HC  
     3      4     18      1 ;    1.0968e+02    3.6208e+02 ;     C3 - C4   - H9       CT -   CT - HC  
     4      3     15      1 ;    1.0968e+02    3.6208e+02 ;     C4 - C3   - H6       CT -   CT - HC  
     4      3     16      1 ;    1.0968e+02    3.6208e+02 ;     C4 - C3   - H7       CT -   CT - HC  
     4      5      6      1 ;    1.1263e+02    5.0099e+02 ;     C4 - C5   - C6       CT -   CT - CT  
     4      5     19      1 ;    1.0968e+02    3.6208e+02 ;     C4 - C5   - H10      CT -   CT - HC  
     4      5     20      1 ;    1.0968e+02    3.6208e+02 ;     C4 - C5   - H11      CT -   CT - HC  
     5      4     17      1 ;    1.0968e+02    3.6208e+02 ;     C5 - C4   - H8       CT -   CT - HC  
     5      4     18      1 ;    1.0968e+02    3.6208e+02 ;     C5 - C4   - H9       CT -   CT - HC  
     5      6      7      1 ;    1.1263e+02    5.0099e+02 ;     C5 - C6   - C7       CT -   CT - CT  
     5      6     21      1 ;    1.0968e+02    3.6208e+02 ;     C5 - C6   - H12      CT -   CT - HC  
     5      6     22      1 ;    1.0968e+02    3.6208e+02 ;     C5 - C6   - H13      CT -   CT - HC  
     6      5     19      1 ;    1.0968e+02    3.6208e+02 ;     C6 - C5   - H10      CT -   CT - HC  
     6      5     20      1 ;    1.0968e+02    3.6208e+02 ;     C6 - C5   - H11      CT -   CT - HC  
     6      7      8      1 ;    1.1263e+02    5.0099e+02 ;     C6 - C7   - C8       CT -   CT - CT  
     6      7     23      1 ;    1.0968e+02    3.6208e+02 ;     C6 - C7   - H14      CT -   CT - HC  
     6      7     24      1 ;    1.0968e+02    3.6208e+02 ;     C6 - C7   - H15      CT -   CT - HC  
     7      6     21      1 ;    1.0968e+02    3.6208e+02 ;     C7 - C6   - H12      CT -   CT - HC  
     7      6     22      1 ;    1.0968e+02    3.6208e+02 ;     C7 - C6   - H13      CT -   CT - HC  
     7      8      9      1 ;    1.1047e+02    5.1020e+02 ;     C7 - C8   - BR1      CT -   CT - x   
     7      8     25      1 ;    1.0959e+02    3.6217e+02 ;     C7 - C8   - H16      CT -   CT - HC  
     7      8     26      1 ;    1.0959e+02    3.6217e+02 ;     C7 - C8   - H17      CT -   CT - HC  
     8      7     23      1 ;    1.0968e+02    3.6208e+02 ;     C8 - C7   - H14      CT -   CT - HC  
     8      7     24      1 ;    1.0968e+02    3.6208e+02 ;     C8 - C7   - H15      CT -   CT - HC  
     9      8     25      1 ;    1.0552e+02    3.3748e+02 ;    BR1 - C8   - H16       x -   CT - HC  
     9      8     26      1 ;    1.0552e+02    3.3748e+02 ;    BR1 - C8   - H17       x -   CT - HC  
    10      1     11      1 ;    1.0773e+02    2.9957e+02 ;     H1 - C1   - H2       HC -   CT - HC  
    10      1     12      1 ;    1.0773e+02    2.9957e+02 ;     H1 - C1   - H3       HC -   CT - HC  
    11      1     12      1 ;    1.0773e+02    2.9957e+02 ;     H2 - C1   - H3       HC -   CT - HC  
    13      2     14      1 ;    1.0773e+02    2.9957e+02 ;     H4 - C2   - H5       HC -   CT - HC  
    15      3     16      1 ;    1.0773e+02    2.9957e+02 ;     H6 - C3   - H7       HC -   CT - HC  
    17      4     18      1 ;    1.0773e+02    2.9957e+02 ;     H8 - C4   - H9       HC -   CT - HC  
    19      5     20      1 ;    1.0773e+02    2.9957e+02 ;    H10 - C5   - H11      HC -   CT - HC  
    21      6     22      1 ;    1.0773e+02    2.9957e+02 ;    H12 - C6   - H13      HC -   CT - HC  
    23      7     24      1 ;    1.0773e+02    2.9957e+02 ;    H14 - C7   - H15      HC -   CT - HC  
    25      8     26      1 ;    1.0855e+02    2.9824e+02 ;    H16 - C8   - H17      HC -   CT - HC  

[ dihedrals ] ; propers
; for gromacs 4.5 or higher, using funct 9
;    i      j      k      l   func   phase     kd      pn
     1      2      3      4      9 ;     0.00   2.17568   3 ;     C1-    C2-    C3-    C4
     1      2      3     15      9 ;     0.00   0.54392   3 ;     C1-    C2-    C3-    H6
     1      2      3     16      9 ;     0.00   0.54392   3 ;     C1-    C2-    C3-    H7
     2      3      4      5      9 ;     0.00   2.17568   3 ;     C2-    C3-    C4-    C5
     2      3      4     17      9 ;     0.00   0.54392   3 ;     C2-    C3-    C4-    H8
     2      3      4     18      9 ;     0.00   0.54392   3 ;     C2-    C3-    C4-    H9
     3      4      5      6      9 ;     0.00   2.17568   3 ;     C3-    C4-    C5-    C6
     3      4      5     19      9 ;     0.00   0.54392   3 ;     C3-    C4-    C5-   H10
     3      4      5     20      9 ;     0.00   0.54392   3 ;     C3-    C4-    C5-   H11
     4      3      2     13      9 ;     0.00   0.54392   3 ;     C4-    C3-    C2-    H4
     4      3      2     14      9 ;     0.00   0.54392   3 ;     C4-    C3-    C2-    H5
     4      5      6      7      9 ;     0.00   2.17568   3 ;     C4-    C5-    C6-    C7
     4      5      6     21      9 ;     0.00   0.54392   3 ;     C4-    C5-    C6-   H12
     4      5      6     22      9 ;     0.00   0.54392   3 ;     C4-    C5-    C6-   H13
     5      4      3     15      9 ;     0.00   0.54392   3 ;     C5-    C4-    C3-    H6
     5      4      3     16      9 ;     0.00   0.54392   3 ;     C5-    C4-    C3-    H7
     5      6      7      8      9 ;     0.00   2.17568   3 ;     C5-    C6-    C7-    C8
     5      6      7     23      9 ;     0.00   0.54392   3 ;     C5-    C6-    C7-   H14
     5      6      7     24      9 ;     0.00   0.54392   3 ;     C5-    C6-    C7-   H15
     6      5      4     17      9 ;     0.00   0.54392   3 ;     C6-    C5-    C4-    H8
     6      5      4     18      9 ;     0.00   0.54392   3 ;     C6-    C5-    C4-    H9
     6      7      8      9      9 ;     0.00   0.65084   3 ;     C6-    C7-    C8-   BR1
     6      7      8     25      9 ;     0.00   0.65084   3 ;     C6-    C7-    C8-   H16
     6      7      8     26      9 ;     0.00   0.65084   3 ;     C6-    C7-    C8-   H17
     7      6      5     19      9 ;     0.00   0.54392   3 ;     C7-    C6-    C5-   H10
     7      6      5     20      9 ;     0.00   0.54392   3 ;     C7-    C6-    C5-   H11
     8      7      6     21      9 ;     0.00   0.54392   3 ;     C8-    C7-    C6-   H12
     8      7      6     22      9 ;     0.00   0.54392   3 ;     C8-    C7-    C6-   H13
     9      8      7     23      9 ;     0.00   0.79496   3 ;    BR1-    C8-    C7-   H14
     9      8      7     24      9 ;     0.00   0.79496   3 ;    BR1-    C8-    C7-   H15
    10      1      2      3      9 ;     0.00   0.54392   3 ;     H1-    C1-    C2-    C3
    10      1      2     13      9 ;     0.00   0.50208   3 ;     H1-    C1-    C2-    H4
    10      1      2     14      9 ;     0.00   0.50208   3 ;     H1-    C1-    C2-    H5
    11      1      2      3      9 ;     0.00   0.54392   3 ;     H2-    C1-    C2-    C3
    11      1      2     13      9 ;     0.00   0.50208   3 ;     H2-    C1-    C2-    H4
    11      1      2     14      9 ;     0.00   0.50208   3 ;     H2-    C1-    C2-    H5
    12      1      2      3      9 ;     0.00   0.54392   3 ;     H3-    C1-    C2-    C3
    12      1      2     13      9 ;     0.00   0.50208   3 ;     H3-    C1-    C2-    H4
    12      1      2     14      9 ;     0.00   0.50208   3 ;     H3-    C1-    C2-    H5
    13      2      3     15      9 ;     0.00   0.50208   3 ;     H4-    C2-    C3-    H6
    13      2      3     16      9 ;     0.00   0.50208   3 ;     H4-    C2-    C3-    H7
    14      2      3     15      9 ;     0.00   0.50208   3 ;     H5-    C2-    C3-    H6
    14      2      3     16      9 ;     0.00   0.50208   3 ;     H5-    C2-    C3-    H7
    15      3      4     17      9 ;     0.00   0.50208   3 ;     H6-    C3-    C4-    H8
    15      3      4     18      9 ;     0.00   0.50208   3 ;     H6-    C3-    C4-    H9
    16      3      4     17      9 ;     0.00   0.50208   3 ;     H7-    C3-    C4-    H8
    16      3      4     18      9 ;     0.00   0.50208   3 ;     H7-    C3-    C4-    H9
    17      4      5     19      9 ;     0.00   0.50208   3 ;     H8-    C4-    C5-   H10
    17      4      5     20      9 ;     0.00   0.50208   3 ;     H8-    C4-    C5-   H11
    18      4      5     19      9 ;     0.00   0.50208   3 ;     H9-    C4-    C5-   H10
    18      4      5     20      9 ;     0.00   0.50208   3 ;     H9-    C4-    C5-   H11
    19      5      6     21      9 ;     0.00   0.50208   3 ;    H10-    C5-    C6-   H12
    19      5      6     22      9 ;     0.00   0.50208   3 ;    H10-    C5-    C6-   H13
    20      5      6     21      9 ;     0.00   0.50208   3 ;    H11-    C5-    C6-   H12
    20      5      6     22      9 ;     0.00   0.50208   3 ;    H11-    C5-    C6-   H13
    21      6      7     23      9 ;     0.00   0.50208   3 ;    H12-    C6-    C7-   H14
    21      6      7     24      9 ;     0.00   0.50208   3 ;    H12-    C6-    C7-   H15
    22      6      7     23      9 ;     0.00   0.50208   3 ;    H13-    C6-    C7-   H14
    22      6      7     24      9 ;     0.00   0.50208   3 ;    H13-    C6-    C7-   H15
    23      7      8     25      9 ;     0.00   0.65084   3 ;    H14-    C7-    C8-   H16
    23      7      8     26      9 ;     0.00   0.65084   3 ;    H14-    C7-    C8-   H17
    24      7      8     25      9 ;     0.00   0.65084   3 ;    H15-    C7-    C8-   H16
    24      7      8     26      9 ;     0.00   0.65084   3 ;    H15-    C7-    C8-   H17
