mobley_2802855_GMX.gro created by acpype (v: 2023.10.27) on Wed May 20 23:59:02 2026
   14
    1MOL     C1    1   2.241   2.364   2.139
    1MOL     C2    2   2.320   2.283   2.240
    1MOL     C3    3   2.314   2.345   2.380
    1MOL     C4    4   2.389   2.260   2.481
    1MOL    BR1    5   2.384   2.346   2.655
    1MOL     H1    6   2.281   2.466   2.131
    1MOL     H2    7   2.247   2.318   2.040
    1MOL     H3    8   2.135   2.371   2.167
    1MOL     H4    9   2.424   2.275   2.207
    1MOL     H5   10   2.280   2.181   2.243
    1MOL     H6   11   2.356   2.446   2.376
    1MOL     H7   12   2.209   2.355   2.410
    1MOL     H8   13   2.495   2.250   2.454
    1MOL     H9   14   2.344   2.161   2.493
   4.63070   4.63070   4.63070
