; mobley_8426916_GMX_OPLS.itp created by acpype (v: 2023.10.27) on Wed May 20 23:51:44 2026

; For OPLS atomtypes manual fine tuning
; AC_at:OPLS_at:OPLScode: Possible_Alternatives (see ffoplsaa.atp and ffoplsaanb.itp)
; c3:CT:opls_135: ['136', '137', '149', '157', '158', '206', '209', '210', '223B', '224B', '245', '246', '274', '283', '284', '285', '292', '292B', '293B', '296', '307', '308', '505']
; n7:x:opls_x: []
; hc:HC:opls_140: []
; h1:HC:opls_140: []
; hn:H:opls_240: ['241', '290', '301', '304', '310', '504', '513']

[ moleculetype ]
;name            nrexcl
 mobley_8426916   3

[ atoms ]
;   nr  type  resi  res  atom  cgnr     charge      mass       ; qtot   bond_type
     1 opls_135     1   MOL    C1    1    -0.098100     12.01100 ; qtot -0.098  CT  
     2 opls_135     1   MOL    C2    2    -0.098100     12.01100 ; qtot -0.196  CT  
     3 opls_135     1   MOL    C3    3     0.163800     12.01100 ; qtot -0.032  CT  
     4 opls_135     1   MOL    C4    4     0.163800     12.01100 ; qtot  0.131  CT  
     5 opls_x     1   MOL    N1    5    -0.823200      0.00000 ; qtot -0.692  x   
     6 opls_140     1   MOL    H1    6     0.038700      1.00800 ; qtot -0.653  HC  
     7 opls_140     1   MOL    H2    7     0.038700      1.00800 ; qtot -0.614  HC  
     8 opls_140     1   MOL    H3    8     0.038700      1.00800 ; qtot -0.576  HC  
     9 opls_140     1   MOL    H4    9     0.038700      1.00800 ; qtot -0.537  HC  
    10 opls_140     1   MOL    H5   10     0.038700      1.00800 ; qtot -0.498  HC  
    11 opls_140     1   MOL    H6   11     0.038700      1.00800 ; qtot -0.460  HC  
    12 opls_140     1   MOL    H7   12     0.026200      1.00800 ; qtot -0.433  HC  
    13 opls_140     1   MOL    H8   13     0.026200      1.00800 ; qtot -0.407  HC  
    14 opls_140     1   MOL    H9   14     0.026200      1.00800 ; qtot -0.381  HC  
    15 opls_140     1   MOL   H10   15     0.026200      1.00800 ; qtot -0.355  HC  
    16 opls_240     1   MOL   H11   16     0.354800      1.00800 ; qtot -0.000  H   

[ bonds ]
;   ai     aj funct   r             k
     1      3   1 ;    1.5354e-01    1.9154e+05 ;     C1 - C3         CT - CT    
     1      6   1 ;    1.0962e-01    2.8891e+05 ;     C1 - H1         CT - HC    
     1      7   1 ;    1.0962e-01    2.8891e+05 ;     C1 - H2         CT - HC    
     1      8   1 ;    1.0962e-01    2.8891e+05 ;     C1 - H3         CT - HC    
     2      4   1 ;    1.5354e-01    1.9154e+05 ;     C2 - C4         CT - CT    
     2      9   1 ;    1.0962e-01    2.8891e+05 ;     C2 - H4         CT - HC    
     2     10   1 ;    1.0962e-01    2.8891e+05 ;     C2 - H5         CT - HC    
     2     11   1 ;    1.0962e-01    2.8891e+05 ;     C2 - H6         CT - HC    
     3      5   1 ;    1.4630e-01    2.1382e+05 ;     C3 - N1         CT - x     
     3     12   1 ;    1.0969e-01    2.8804e+05 ;     C3 - H7         CT - HC    
     3     13   1 ;    1.0969e-01    2.8804e+05 ;     C3 - H8         CT - HC    
     4      5   1 ;    1.4630e-01    2.1382e+05 ;     C4 - N1         CT - x     
     4     14   1 ;    1.0969e-01    2.8804e+05 ;     C4 - H9         CT - HC    
     4     15   1 ;    1.0969e-01    2.8804e+05 ;     C4 - H10        CT - HC    
     5     16   1 ;    1.0195e-01    3.8497e+05 ;     N1 - H11         x - H     

[ pairs ]
;   ai     aj    funct
     1      4      1 ;     C1 - C4    
     1     16      1 ;     C1 - H11   
     2      3      1 ;     C2 - C3    
     2     16      1 ;     C2 - H11   
     3     14      1 ;     C3 - H9    
     3     15      1 ;     C3 - H10   
     4     12      1 ;     C4 - H7    
     4     13      1 ;     C4 - H8    
     5      9      1 ;     N1 - H4    
     5     10      1 ;     N1 - H5    
     5     11      1 ;     N1 - H6    
     6      5      1 ;     H1 - N1    
     6     12      1 ;     H1 - H7    
     6     13      1 ;     H1 - H8    
     7      5      1 ;     H2 - N1    
     7     12      1 ;     H2 - H7    
     7     13      1 ;     H2 - H8    
     8      5      1 ;     H3 - N1    
     8     12      1 ;     H3 - H7    
     8     13      1 ;     H3 - H8    
     9     14      1 ;     H4 - H9    
     9     15      1 ;     H4 - H10   
    10     14      1 ;     H5 - H9    
    10     15      1 ;     H5 - H10   
    11     14      1 ;     H6 - H9    
    11     15      1 ;     H6 - H10   
    12     16      1 ;     H7 - H11   
    13     16      1 ;     H8 - H11   
    14     16      1 ;     H9 - H11   
    15     16      1 ;    H10 - H11   

[ angles ]
;   ai     aj     ak    funct   theta         cth
     1      3      5      1 ;    1.1022e+02    5.4994e+02 ;     C1 - C3   - N1       CT -   CT - x   
     1      3     12      1 ;    1.0959e+02    3.6217e+02 ;     C1 - C3   - H7       CT -   CT - HC  
     1      3     13      1 ;    1.0959e+02    3.6217e+02 ;     C1 - C3   - H8       CT -   CT - HC  
     2      4      5      1 ;    1.1022e+02    5.4994e+02 ;     C2 - C4   - N1       CT -   CT - x   
     2      4     14      1 ;    1.0959e+02    3.6217e+02 ;     C2 - C4   - H9       CT -   CT - HC  
     2      4     15      1 ;    1.0959e+02    3.6217e+02 ;     C2 - C4   - H10      CT -   CT - HC  
     3      1      6      1 ;    1.0968e+02    3.6208e+02 ;     C3 - C1   - H1       CT -   CT - HC  
     3      1      7      1 ;    1.0968e+02    3.6208e+02 ;     C3 - C1   - H2       CT -   CT - HC  
     3      1      8      1 ;    1.0968e+02    3.6208e+02 ;     C3 - C1   - H3       CT -   CT - HC  
     3      5      4      1 ;    1.1458e+02    6.4425e+02 ;     C3 - N1   - C4       CT -    x - CT  
     3      5     16      1 ;    1.0886e+02    4.7229e+02 ;     C3 - N1   - H11      CT -    x - H   
     4      2      9      1 ;    1.0968e+02    3.6208e+02 ;     C4 - C2   - H4       CT -   CT - HC  
     4      2     10      1 ;    1.0968e+02    3.6208e+02 ;     C4 - C2   - H5       CT -   CT - HC  
     4      2     11      1 ;    1.0968e+02    3.6208e+02 ;     C4 - C2   - H6       CT -   CT - HC  
     4      5     16      1 ;    1.0886e+02    4.7229e+02 ;     C4 - N1   - H11      CT -    x - H   
     5      3     12      1 ;    1.1029e+02    3.9991e+02 ;     N1 - C3   - H7        x -   CT - HC  
     5      3     13      1 ;    1.1029e+02    3.9991e+02 ;     N1 - C3   - H8        x -   CT - HC  
     5      4     14      1 ;    1.1029e+02    3.9991e+02 ;     N1 - C4   - H9        x -   CT - HC  
     5      4     15      1 ;    1.1029e+02    3.9991e+02 ;     N1 - C4   - H10       x -   CT - HC  
     6      1      7      1 ;    1.0773e+02    2.9957e+02 ;     H1 - C1   - H2       HC -   CT - HC  
     6      1      8      1 ;    1.0773e+02    2.9957e+02 ;     H1 - C1   - H3       HC -   CT - HC  
     7      1      8      1 ;    1.0773e+02    2.9957e+02 ;     H2 - C1   - H3       HC -   CT - HC  
     9      2     10      1 ;    1.0773e+02    2.9957e+02 ;     H4 - C2   - H5       HC -   CT - HC  
     9      2     11      1 ;    1.0773e+02    2.9957e+02 ;     H4 - C2   - H6       HC -   CT - HC  
    10      2     11      1 ;    1.0773e+02    2.9957e+02 ;     H5 - C2   - H6       HC -   CT - HC  
    12      3     13      1 ;    1.0855e+02    2.9824e+02 ;     H7 - C3   - H8       HC -   CT - HC  
    14      4     15      1 ;    1.0855e+02    2.9824e+02 ;     H9 - C4   - H10      HC -   CT - HC  

[ dihedrals ] ; propers
; for gromacs 4.5 or higher, using funct 9
;    i      j      k      l   func   phase     kd      pn
     1      3      5      4      9 ;     0.00   0.58576   3 ;     C1-    C3-    N1-    C4
     1      3      5     16      9 ;     0.00   0.90793   3 ;     C1-    C3-    N1-   H11
     2      4      5      3      9 ;     0.00   0.58576   3 ;     C2-    C4-    N1-    C3
     2      4      5     16      9 ;     0.00   0.90793   3 ;     C2-    C4-    N1-   H11
     3      5      4     14      9 ;     0.00   0.89956   3 ;     C3-    N1-    C4-    H9
     3      5      4     15      9 ;     0.00   0.89956   3 ;     C3-    N1-    C4-   H10
     4      5      3     12      9 ;     0.00   0.89956   3 ;     C4-    N1-    C3-    H7
     4      5      3     13      9 ;     0.00   0.89956   3 ;     C4-    N1-    C3-    H8
     5      4      2      9      9 ;     0.00   0.41840   3 ;     N1-    C4-    C2-    H4
     5      4      2     10      9 ;     0.00   0.41840   3 ;     N1-    C4-    C2-    H5
     5      4      2     11      9 ;     0.00   0.41840   3 ;     N1-    C4-    C2-    H6
     6      1      3      5      9 ;     0.00   0.41840   3 ;     H1-    C1-    C3-    N1
     6      1      3     12      9 ;     0.00   0.65084   3 ;     H1-    C1-    C3-    H7
     6      1      3     13      9 ;     0.00   0.65084   3 ;     H1-    C1-    C3-    H8
     7      1      3      5      9 ;     0.00   0.41840   3 ;     H2-    C1-    C3-    N1
     7      1      3     12      9 ;     0.00   0.65084   3 ;     H2-    C1-    C3-    H7
     7      1      3     13      9 ;     0.00   0.65084   3 ;     H2-    C1-    C3-    H8
     8      1      3      5      9 ;     0.00   0.41840   3 ;     H3-    C1-    C3-    N1
     8      1      3     12      9 ;     0.00   0.65084   3 ;     H3-    C1-    C3-    H7
     8      1      3     13      9 ;     0.00   0.65084   3 ;     H3-    C1-    C3-    H8
     9      2      4     14      9 ;     0.00   0.65084   3 ;     H4-    C2-    C4-    H9
     9      2      4     15      9 ;     0.00   0.65084   3 ;     H4-    C2-    C4-   H10
    10      2      4     14      9 ;     0.00   0.65084   3 ;     H5-    C2-    C4-    H9
    10      2      4     15      9 ;     0.00   0.65084   3 ;     H5-    C2-    C4-   H10
    11      2      4     14      9 ;     0.00   0.65084   3 ;     H6-    C2-    C4-    H9
    11      2      4     15      9 ;     0.00   0.65084   3 ;     H6-    C2-    C4-   H10
    12      3      5     16      9 ;     0.00   1.25520   3 ;     H7-    C3-    N1-   H11
    13      3      5     16      9 ;     0.00   1.25520   3 ;     H8-    C3-    N1-   H11
    14      4      5     16      9 ;     0.00   1.25520   3 ;     H9-    C4-    N1-   H11
    15      4      5     16      9 ;     0.00   1.25520   3 ;    H10-    C4-    N1-   H11
