mobley_8426916_GMX.gro created by acpype (v: 2023.10.27) on Wed May 20 23:51:44 2026
 16
    1  MOL   C1    1  -0.064   0.024   0.347
    1  MOL   C2    2   0.368  -0.004   0.114
    1  MOL   C3    3   0.008   0.039   0.213
    1  MOL   C4    4   0.219   0.024   0.100
    1  MOL   N1    5   0.151   0.012   0.228
    1  MOL   H1    6  -0.054  -0.077   0.386
    1  MOL   H2    7  -0.025   0.094   0.421
    1  MOL   H3    8  -0.171   0.045   0.334
    1  MOL   H4    9   0.415   0.066   0.183
    1  MOL   H5   10   0.385  -0.106   0.151
    1  MOL   H6   11   0.417   0.005   0.017
    1  MOL   H7   12  -0.006   0.140   0.174
    1  MOL   H8   13  -0.034  -0.031   0.141
    1  MOL   H9   14   0.174  -0.045   0.028
    1  MOL  H10   15   0.204   0.126   0.061
    1  MOL  H11   16   0.191   0.078   0.294
   11.75800     4.91400     8.07800
