%VERSION  VERSION_STAMP = V0001.000  DATE = 05/20/26  23:51:45                  
%FLAG TITLE                                                                     
%FORMAT(20a4)                                                                   
diethylamine                                                                    
%FLAG POINTERS                                                                  
%FORMAT(10I8)                                                                   
      16       5      11       4      24       3      28       2       0       0
      73       1       4       3       2       5       8       6       5       0
       0       0       0       0       0       0       0       0      16       0
       0
%FLAG ATOM_NAME                                                                 
%FORMAT(20a4)                                                                   
C1  C2  C3  C4  N1  H1  H2  H3  H4  H5  H6  H7  H8  H9  H10 H11 
%FLAG CHARGE                                                                    
%FORMAT(5E16.8)                                                                 
 -1.78760763E+00 -1.78760763E+00  2.98481274E+00  2.98481274E+00 -1.50552643E+01
  7.05203010E-01  7.05203010E-01  7.05203010E-01  7.05203010E-01  7.05203010E-01
  7.05203010E-01  4.77424260E-01  4.77424260E-01  4.77424260E-01  4.77424260E-01
  6.46527204E+00
%FLAG ATOMIC_NUMBER                                                             
%FORMAT(10I8)                                                                   
       6       6       6       6       7       1       1       1       1       1
       1       1       1       1       1       1
%FLAG MASS                                                                      
%FORMAT(5E16.8)                                                                 
  1.20100000E+01  1.20100000E+01  1.20100000E+01  1.20100000E+01  1.40100000E+01
  1.00800000E+00  1.00800000E+00  1.00800000E+00  1.00800000E+00  1.00800000E+00
  1.00800000E+00  1.00800000E+00  1.00800000E+00  1.00800000E+00  1.00800000E+00
  1.00800000E+00
%FLAG ATOM_TYPE_INDEX                                                           
%FORMAT(10I8)                                                                   
       1       1       1       1       2       3       3       3       3       3
       3       4       4       4       4       5
%FLAG NUMBER_EXCLUDED_ATOMS                                                     
%FORMAT(10I8)                                                                   
       9       9      10       9      11       4       3       2       4       3
       2       2       1       2       1       1
%FLAG NONBONDED_PARM_INDEX                                                      
%FORMAT(10I8)                                                                   
       1       2       4       7      11       2       3       5       8      12
       4       5       6       9      13       7       8       9      10      14
      11      12      13      14      15
%FLAG RESIDUE_LABEL                                                             
%FORMAT(20a4)                                                                   
MOL 
%FLAG RESIDUE_POINTER                                                           
%FORMAT(10I8)                                                                   
       1
%FLAG BOND_FORCE_CONSTANT                                                       
%FORMAT(5E16.8)                                                                 
  2.28890000E+02  3.45250000E+02  2.55520000E+02  3.44220000E+02  4.60050000E+02
%FLAG BOND_EQUIL_VALUE                                                          
%FORMAT(5E16.8)                                                                 
  1.53540000E+00  1.09620000E+00  1.46300000E+00  1.09690000E+00  1.01950000E+00
%FLAG ANGLE_FORCE_CONSTANT                                                      
%FORMAT(5E16.8)                                                                 
  6.57200000E+01  4.32800000E+01  4.32700000E+01  7.69900000E+01  5.64400000E+01
  4.77900000E+01  3.58000000E+01  3.56400000E+01
%FLAG ANGLE_EQUIL_VALUE                                                         
%FORMAT(5E16.8)                                                                 
  1.92370273E+00  1.91270715E+00  1.91427794E+00  1.99979911E+00  1.89996624E+00
  1.92492446E+00  1.88024401E+00  1.89455572E+00
%FLAG DIHEDRAL_FORCE_CONSTANT                                                   
%FORMAT(5E16.8)                                                                 
  1.40000000E-01  2.17000000E-01  2.15000000E-01  1.00000000E-01  1.55555556E-01
  3.00000000E-01
%FLAG DIHEDRAL_PERIODICITY                                                      
%FORMAT(5E16.8)                                                                 
  3.00000000E+00  3.00000000E+00  3.00000000E+00  3.00000000E+00  3.00000000E+00
  3.00000000E+00
%FLAG DIHEDRAL_PHASE                                                            
%FORMAT(5E16.8)                                                                 
  0.00000000E+00  0.00000000E+00  0.00000000E+00  0.00000000E+00  0.00000000E+00
  0.00000000E+00
%FLAG SCEE_SCALE_FACTOR                                                         
%FORMAT(5E16.8)                                                                 
  1.20000000E+00  1.20000000E+00  1.20000000E+00  1.20000000E+00  1.20000000E+00
  1.20000000E+00
%FLAG SCNB_SCALE_FACTOR                                                         
%FORMAT(5E16.8)                                                                 
  2.00000000E+00  2.00000000E+00  2.00000000E+00  2.00000000E+00  2.00000000E+00
  2.00000000E+00
%FLAG SOLTY                                                                     
%FORMAT(5E16.8)                                                                 
  0.00000000E+00  0.00000000E+00  0.00000000E+00  0.00000000E+00  0.00000000E+00
%FLAG LENNARD_JONES_ACOEF                                                       
%FORMAT(5E16.8)                                                                 
  1.02073671E+06  8.61147463E+05  7.24302894E+05  1.00235148E+05  8.67370500E+04
  7.94617769E+03  6.97998263E+04  6.08009173E+04  5.22955465E+03  3.39005767E+03
  2.23577481E+03  2.07791361E+03  9.47421632E+01  5.24570081E+01  1.34728399E-01
%FLAG LENNARD_JONES_BCOEF                                                       
%FORMAT(5E16.8)                                                                 
  6.63431737E+02  5.08324538E+02  3.88888730E+02  1.37787728E+02  1.06921681E+02
  2.57122925E+01  1.14981426E+02  8.95196800E+01  2.08590256E+01  1.67944276E+01
  1.71355763E+01  1.37803855E+01  2.33785449E+00  1.73959275E+00  7.34107347E-02
%FLAG BONDS_INC_HYDROGEN                                                        
%FORMAT(10I8)                                                                   
       0      15       2       0      18       2       0      21       2       3
      24       2       3      27       2       3      30       2       6      33
       4       6      36       4       9      39       4       9      42       4
      12      45       5
%FLAG BONDS_WITHOUT_HYDROGEN                                                    
%FORMAT(10I8)                                                                   
       0       6       1       3       9       1       6      12       3       9
      12       3
%FLAG ANGLES_INC_HYDROGEN                                                       
%FORMAT(10I8)                                                                   
       0       6      33       2       0       6      36       2       3       9
      39       2       3       9      42       2       6       0      15       3
       6       0      18       3       6       0      21       3       6      12
      45       5       9       3      24       3       9       3      27       3
       9       3      30       3       9      12      45       5      12       6
      33       6      12       6      36       6      12       9      39       6
      12       9      42       6      15       0      18       7      15       0
      21       7      18       0      21       7      24       3      27       7
      24       3      30       7      27       3      30       7      33       6
      36       8      39       9      42       8
%FLAG ANGLES_WITHOUT_HYDROGEN                                                   
%FORMAT(10I8)                                                                   
       0       6      12       1       3       9      12       1       6      12
       9       4
%FLAG DIHEDRALS_INC_HYDROGEN                                                    
%FORMAT(10I8)                                                                   
       0       6      12      45       2       3       9      12      45       2
       6      12       9      39       3       6      12       9      42       3
       9      12       6      33       3       9      12       6      36       3
      15       0       6      12       4      18       0       6      12       4
      21       0       6      12       4      12       9       3      24       4
      12       9       3      27       4      12       9       3      30       4
      15       0       6      33       5      15       0       6      36       5
      18       0       6      33       5      18       0       6      36       5
      21       0       6      33       5      21       0       6      36       5
      24       3       9      39       5      24       3       9      42       5
      27       3       9      39       5      27       3       9      42       5
      30       3       9      39       5      30       3       9      42       5
      33       6      12      45       6      36       6      12      45       6
      39       9      12      45       6      42       9      12      45       6
%FLAG DIHEDRALS_WITHOUT_HYDROGEN                                                
%FORMAT(10I8)                                                                   
       0       6      12       9       1       3       9      12       6       1
%FLAG EXCLUDED_ATOMS_LIST                                                       
%FORMAT(10I8)                                                                   
       3       4       5       6       7       8      12      13      16       3
       4       5       9      10      11      14      15      16       4       5
       6       7       8      12      13      14      15      16       5       9
      10      11      12      13      14      15      16       6       7       8
       9      10      11      12      13      14      15      16       7       8
      12      13       8      12      13      12      13      10      11      14
      15      11      14      15      14      15      13      16      16      15
      16      16       0
%FLAG HBOND_ACOEF                                                               
%FORMAT(5E16.8)                                                                 

%FLAG HBOND_BCOEF                                                               
%FORMAT(5E16.8)                                                                 

%FLAG HBCUT                                                                     
%FORMAT(5E16.8)                                                                 

%FLAG AMBER_ATOM_TYPE                                                           
%FORMAT(20a4)                                                                   
c3  c3  c3  c3  n7  hc  hc  hc  hc  hc  hc  h1  h1  h1  h1  hn  
%FLAG TREE_CHAIN_CLASSIFICATION                                                 
%FORMAT(20a4)                                                                   
BLA BLA BLA BLA BLA BLA BLA BLA BLA BLA BLA BLA BLA BLA BLA BLA 
%FLAG JOIN_ARRAY                                                                
%FORMAT(10I8)                                                                   
       0       0       0       0       0       0       0       0       0       0
       0       0       0       0       0       0
%FLAG IROTAT                                                                    
%FORMAT(10I8)                                                                   
       0       0       0       0       0       0       0       0       0       0
       0       0       0       0       0       0
%FLAG RADIUS_SET                                                                
%FORMAT(1a80)                                                                   
modified Bondi radii (mbondi)                                                   
%FLAG RADII                                                                     
%FORMAT(5E16.8)                                                                 
  1.70000000E+00  1.70000000E+00  1.70000000E+00  1.70000000E+00  1.55000000E+00
  1.30000000E+00  1.30000000E+00  1.30000000E+00  1.30000000E+00  1.30000000E+00
  1.30000000E+00  1.30000000E+00  1.30000000E+00  1.30000000E+00  1.30000000E+00
  1.30000000E+00
%FLAG SCREEN                                                                    
%FORMAT(5E16.8)                                                                 
  7.20000000E-01  7.20000000E-01  7.20000000E-01  7.20000000E-01  7.90000000E-01
  8.50000000E-01  8.50000000E-01  8.50000000E-01  8.50000000E-01  8.50000000E-01
  8.50000000E-01  8.50000000E-01  8.50000000E-01  8.50000000E-01  8.50000000E-01
  8.50000000E-01
%FLAG IPOL                                                                      
%FORMAT(1I8)                                                                    
       0
