diethylamine
    16
  -0.6400000   0.2430000   3.4650000   3.6760000  -0.0440000   1.1400000
   0.0820000   0.3850000   2.1350000   2.1910000   0.2440000   0.9990000
   1.5070000   0.1160000   2.2790000  -0.5400000  -0.7720000   3.8640000
  -0.2450000   0.9440000   4.2080000  -1.7070000   0.4520000   3.3390000
   4.1520000   0.6580000   1.8330000   3.8510000  -1.0600000   1.5080000
   4.1720000   0.0530000   0.1690000  -0.0570000   1.3970000   1.7430000
  -0.3440000  -0.3110000   1.4050000   1.7440000  -0.4510000   0.2810000
   2.0430000   1.2570000   0.6110000   1.9070000   0.7790000   2.9410000
