mobley_2792521_GMX.gro created by acpype (v: 2023.10.27) on Wed May 20 23:42:45 2026
   17
    1MOL     C1    1   2.438   2.333   2.198
    1MOL     C2    2   2.355   2.364   2.298
    1MOL     C3    3   2.397   2.231   2.099
    1MOL     C4    4   2.416   2.508   2.650
    1MOL     C5    5   2.386   2.466   2.403
    1MOL     C6    6   2.381   2.405   2.544
    1MOL     O1    7   2.468   2.199   2.005
    1MOL     H1    8   2.535   2.380   2.186
    1MOL     H2    9   2.258   2.315   2.306
    1MOL     H3   10   2.297   2.186   2.114
    1MOL     H4   11   2.517   2.547   2.635
    1MOL     H5   12   2.346   2.592   2.649
    1MOL     H6   13   2.412   2.462   2.750
    1MOL     H7   14   2.485   2.510   2.386
    1MOL     H8   15   2.313   2.548   2.396
    1MOL     H9   16   2.281   2.365   2.564
    1MOL    H10   17   2.451   2.321   2.550
   4.79204   4.79204   4.79204
