mobley_2792521_GMX.gro created by acpype (v: 2023.10.27) on Wed May 20 23:42:45 2026
10847
    1MOL     C1    1   2.438   2.333   2.198
    1MOL     C2    2   2.355   2.364   2.298
    1MOL     C3    3   2.397   2.231   2.099
    1MOL     C4    4   2.416   2.508   2.650
    1MOL     C5    5   2.386   2.466   2.403
    1MOL     C6    6   2.381   2.405   2.544
    1MOL     O1    7   2.468   2.199   2.005
    1MOL     H1    8   2.535   2.380   2.186
    1MOL     H2    9   2.258   2.315   2.306
    1MOL     H3   10   2.297   2.186   2.114
    1MOL     H4   11   2.517   2.547   2.635
    1MOL     H5   12   2.346   2.592   2.649
    1MOL     H6   13   2.412   2.462   2.750
    1MOL     H7   14   2.485   2.510   2.386
    1MOL     H8   15   2.313   2.548   2.396
    1MOL     H9   16   2.281   2.365   2.564
    1MOL    H10   17   2.451   2.321   2.550
    2SOL     OW   18   0.230   0.628   0.113
    2SOL    HW1   19   0.137   0.626   0.150
    2SOL    HW2   20   0.231   0.589   0.021
    3SOL     OW   21   0.225   0.275   0.996
    3SOL    HW1   22   0.260   0.258   1.088
    3SOL    HW2   23   0.137   0.230   0.984
    4SOL     OW   24   0.019   0.368   0.647
    4SOL    HW1   25  -0.063   0.411   0.686
    4SOL    HW2   26  -0.009   0.295   0.584
    5SOL     OW   27   0.569   1.275   1.165
    5SOL    HW1   28   0.476   1.268   1.128
    5SOL    HW2   29   0.580   1.364   1.209
    6SOL     OW   30   1.555   1.511   0.703
    6SOL    HW1   31   1.498   1.495   0.784
    6SOL    HW2   32   1.496   1.521   0.623
    7SOL     OW   33   1.135   0.703   0.717
    7SOL    HW1   34   1.192   0.781   0.692
    7SOL    HW2   35   1.075   0.729   0.793
    8SOL     OW   36   1.755   0.607   0.231
    8SOL    HW1   37   1.743   0.594   0.132
    8SOL    HW2   38   1.725   0.526   0.280
    9SOL     OW   39   0.768   1.144   1.023
    9SOL    HW1   40   0.690   1.161   1.083
    9SOL    HW2   41   0.802   1.231   0.987
   10SOL     OW   42   0.850   0.798   1.823
   10SOL    HW1   43   0.846   0.874   1.888
   10SOL    HW2   44   0.872   0.834   1.732
   11SOL     OW   45   0.685   1.012   0.665
   11SOL    HW1   46   0.754   0.996   0.735
   11SOL    HW2   47   0.612   1.069   0.703
   12SOL     OW   48   0.686   1.161   1.803
   12SOL    HW1   49   0.746   1.240   1.817
   12SOL    HW2   50   0.600   1.192   1.762
   13SOL     OW   51   0.335   1.435   1.061
   13SOL    HW1   52   0.257   1.404   1.008
   13SOL    HW2   53   0.393   1.493   1.004
   14SOL     OW   54   1.460   1.505   1.339
   14SOL    HW1   55   1.484   1.599   1.365
   14SOL    HW2   56   1.444   1.451   1.421
   15SOL     OW   57   0.438   0.392   1.499
   15SOL    HW1   58   0.520   0.336   1.508
   15SOL    HW2   59   0.357   0.334   1.503
   16SOL     OW   60   1.603   0.447   0.737
   16SOL    HW1   61   1.529   0.493   0.687
   16SOL    HW2   62   1.654   0.515   0.790
   17SOL     OW   63   0.231   1.713   0.483
   17SOL    HW1   64   0.265   1.790   0.537
   17SOL    HW2   65   0.275   1.713   0.393
   18SOL     OW   66   1.127   1.341   1.690
   18SOL    HW1   67   1.174   1.341   1.778
   18SOL    HW2   68   1.079   1.254   1.679
   19SOL     OW   69   0.230   1.434   0.538
   19SOL    HW1   70   0.204   1.530   0.538
   19SOL    HW2   71   0.159   1.380   0.583
   20SOL     OW   72   0.240   1.091   0.886
   20SOL    HW1   73   0.254   1.007   0.938
   20SOL    HW2   74   0.185   1.155   0.941
   21SOL     OW   75   0.620   1.786   1.439
   21SOL    HW1   76   0.528   1.769   1.474
   21SOL    HW2   77   0.648   1.878   1.465
   22SOL     OW   78   0.606   0.964   0.123
   22SOL    HW1   79   0.613   1.048   0.069
   22SOL    HW2   80   0.652   0.977   0.211
   23SOL     OW   81   1.594   0.114   1.480
   23SOL    HW1   82   1.576   0.181   1.408
   23SOL    HW2   83   1.591   0.160   1.569
   24SOL     OW   84   0.122   0.643   0.563
   24SOL    HW1   85   0.077   0.555   0.580
   24SOL    HW2   86   0.121   0.697   0.647
   25SOL     OW   87   1.842   1.767   0.359
   25SOL    HW1   88   1.896   1.738   0.439
   25SOL    HW2   89   1.872   1.857   0.330
   26SOL     OW   90   0.027   1.596   0.117
   26SOL    HW1   91   0.008   1.500   0.138
   26SOL    HW2   92  -0.006   1.654   0.192
   27SOL     OW   93   1.689   0.922   0.612
   27SOL    HW1   94   1.784   0.893   0.620
   27SOL    HW2   95   1.681   0.987   0.537
   28SOL     OW   96   1.641   1.108   0.432
   28SOL    HW1   97   1.727   1.110   0.380
   28SOL    HW2   98   1.655   1.155   0.520
   29SOL     OW   99   0.113   0.737   1.597
   29SOL    HW1  100   0.201   0.724   1.642
   29SOL    HW2  101   0.100   0.834   1.575
   30SOL     OW  102   0.613   1.365   0.726
   30SOL    HW1  103   0.564   1.278   0.735
   30SOL    HW2  104   0.590   1.408   0.639
   31SOL     OW  105   1.293   1.228   1.423
   31SOL    HW1  106   1.330   1.155   1.365
   31SOL    HW2  107   1.345   1.233   1.508
   32SOL     OW  108   0.809   0.004   0.502
   32SOL    HW1  109   0.849   0.095   0.493
   32SOL    HW2  110   0.709   0.012   0.508
   33SOL     OW  111   0.197   0.976   1.264
   33SOL    HW1  112   0.286   0.931   1.250
   33SOL    HW2  113   0.124   0.911   1.245
   34SOL     OW  114   1.525   0.999   0.190
   34SOL    HW1  115   1.462   0.923   0.203
   34SOL    HW2  116   1.573   1.017   0.276
   35SOL     OW  117   1.187   1.792   1.616
   35SOL    HW1  118   1.211   1.852   1.540
   35SOL    HW2  119   1.194   1.697   1.586
   36SOL     OW  120   0.317   0.251   1.801
   36SOL    HW1  121   0.388   0.322   1.807
   36SOL    HW2  122   0.229   0.290   1.829
   37SOL     OW  123   1.466   1.417   0.953
   37SOL    HW1  124   1.407   1.423   1.033
   37SOL    HW2  125   1.451   1.329   0.907
   38SOL     OW  126   1.667   1.714   0.572
   38SOL    HW1  127   1.626   1.691   0.484
   38SOL    HW2  128   1.649   1.640   0.637
   39SOL     OW  129   0.598   0.729   0.270
   39SOL    HW1  130   0.622   0.798   0.202
   39SOL    HW2  131   0.520   0.762   0.324
   40SOL     OW  132   1.281   0.345   0.944
   40SOL    HW1  133   1.195   0.295   0.931
   40SOL    HW2  134   1.343   0.291   1.000
   41SOL     OW  135   1.576   1.662   0.307
   41SOL    HW1  136   1.665   1.708   0.310
   41SOL    HW2  137   1.555   1.638   0.212
   42SOL     OW  138   0.807   0.605   1.465
   42SOL    HW1  139   0.760   0.602   1.554
   42SOL    HW2  140   0.756   0.550   1.399
   43SOL     OW  141   1.394   0.469   1.674
   43SOL    HW1  142   1.374   0.512   1.762
   43SOL    HW2  143   1.472   0.407   1.683
   44SOL     OW  144   0.973   0.890   1.572
   44SOL    HW1  145   1.019   0.806   1.543
   44SOL    HW2  146   0.917   0.924   1.497
   45SOL     OW  147   0.991   0.410   1.242
   45SOL    HW1  148   0.914   0.444   1.296
   45SOL    HW2  149   0.957   0.359   1.163
   46SOL     OW  150   1.041   0.701   0.429
   46SOL    HW1  151   1.067   0.697   0.525
   46SOL    HW2  152   0.956   0.650   0.415
   47SOL     OW  153   0.076   0.811   0.789
   47SOL    HW1  154   0.175   0.799   0.798
   47SOL    HW2  155   0.052   0.906   0.810
   48SOL     OW  156   0.130   1.821   1.571
   48SOL    HW1  157   0.120   1.806   1.670
   48SOL    HW2  158   0.044   1.857   1.535
   49SOL     OW  159   0.865   0.348   0.195
   49SOL    HW1  160   0.924   0.411   0.146
   49SOL    HW2  161   0.884   0.254   0.166
   50SOL     OW  162   1.719   0.585   1.831
   50SOL    HW1  163   1.693   0.674   1.795
   50SOL    HW2  164   1.717   0.517   1.758
   51SOL     OW  165   1.362   1.144   0.545
   51SOL    HW1  166   1.445   1.115   0.497
   51SOL    HW2  167   1.313   1.211   0.489
   52SOL     OW  168   0.550   0.196   0.885
   52SOL    HW1  169   0.545   0.191   0.985
   52SOL    HW2  170   0.552   0.292   0.856
   53SOL     OW  171   1.008   1.456   0.477
   53SOL    HW1  172   0.962   1.528   0.425
   53SOL    HW2  173   1.004   1.476   0.575
   54SOL     OW  174   0.351   1.801   0.853
   54SOL    HW1  175   0.401   1.715   0.859
   54SOL    HW2  176   0.416   1.878   0.850
   55SOL     OW  177   1.795   1.066   0.873
   55SOL    HW1  178   1.733   1.051   0.797
   55SOL    HW2  179   1.743   1.077   0.958
   56SOL     OW  180   1.227   1.550   1.506
   56SOL    HW1  181   1.233   1.473   1.570
   56SOL    HW2  182   1.175   1.524   1.426
   57SOL     OW  183   0.321   0.943   0.242
   57SOL    HW1  184   0.403   0.982   0.200
   57SOL    HW2  185   0.294   0.861   0.193
   58SOL     OW  186   1.458   0.735   0.728
   58SOL    HW1  187   1.453   0.670   0.803
   58SOL    HW2  188   1.538   0.794   0.741
   59SOL     OW  189   0.461   1.266   1.727
   59SOL    HW1  190   0.411   1.267   1.641
   59SOL    HW2  191   0.398   1.248   1.803
   60SOL     OW  192   1.111   1.776   0.237
   60SOL    HW1  193   1.051   1.714   0.287
   60SOL    HW2  194   1.142   1.732   0.152
   61SOL     OW  195   0.202   0.285   1.498
   61SOL    HW1  196   0.122   0.345   1.485
   61SOL    HW2  197   0.192   0.236   1.584
   62SOL     OW  198   1.632   1.377   0.081
   62SOL    HW1  199   1.600   1.471   0.071
   62SOL    HW2  200   1.556   1.314   0.069
   63SOL     OW  201   0.464   1.743   0.323
   63SOL    HW1  202   0.497   1.782   0.409
   63SOL    HW2  203   0.540   1.736   0.258
   64SOL     OW  204   1.400   0.107   0.426
   64SOL    HW1  205   1.376   0.070   0.336
   64SOL    HW2  206   1.499   0.123   0.430
   65SOL     OW  207   0.249   1.785   1.241
   65SOL    HW1  208   0.306   1.720   1.291
   65SOL    HW2  209   0.233   1.752   1.148
   66SOL     OW  210   0.940   1.698   0.904
   66SOL    HW1  211   1.020   1.641   0.925
   66SOL    HW2  212   0.891   1.658   0.827
   67SOL     OW  213   0.382   0.700   0.480
   67SOL    HW1  214   0.427   0.610   0.477
   67SOL    HW2  215   0.288   0.689   0.513
   68SOL     OW  216   1.547   0.222   1.729
   68SOL    HW1  217   1.542   0.259   1.821
   68SOL    HW2  218   1.475   0.153   1.717
   69SOL     OW  219   0.614   0.122   0.117
   69SOL    HW1  220   0.712   0.100   0.124
   69SOL    HW2  221   0.583   0.105   0.024
   70SOL     OW  222   0.781   0.264   1.749
   70SOL    HW1  223   0.848   0.203   1.792
   70SOL    HW2  224   0.708   0.283   1.814
   71SOL     OW  225   0.888   1.514   1.195
   71SOL    HW1  226   0.865   1.489   1.101
   71SOL    HW2  227   0.949   1.445   1.234
   72SOL     OW  228   1.351   0.590   1.433
   72SOL    HW1  229   1.379   0.547   1.518
   72SOL    HW2  230   1.376   0.686   1.434
   73SOL     OW  231   0.803   1.402   0.924
   73SOL    HW1  232   0.893   1.416   0.882
   73SOL    HW2  233   0.732   1.404   0.853
   74SOL     OW  234   0.922   0.503   0.899
   74SOL    HW1  235   0.897   0.494   0.803
   74SOL    HW2  236   0.970   0.421   0.930
   75SOL     OW  237   0.539   0.064   0.512
   75SOL    HW1  238   0.458   0.065   0.570
   75SOL    HW2  239   0.542   0.147   0.457
   76SOL     OW  240   1.434   1.188   0.041
   76SOL    HW1  241   1.466   1.112   0.098
   76SOL    HW2  242   1.342   1.215   0.071
   77SOL     OW  243   0.297   0.035   0.171
   77SOL    HW1  244   0.346   0.119   0.150
   77SOL    HW2  245   0.359  -0.030   0.216
   78SOL     OW  246   0.935   0.236   0.480
   78SOL    HW1  247   0.887   0.277   0.402
   78SOL    HW2  248   1.034   0.234   0.461
   79SOL     OW  249   1.076   0.683   1.464
   79SOL    HW1  250   0.996   0.622   1.467
   79SOL    HW2  251   1.157   0.630   1.440
   80SOL     OW  252   1.227   1.570   0.793
   80SOL    HW1  253   1.248   1.644   0.728
   80SOL    HW2  254   1.295   1.570   0.866
   81SOL     OW  255   0.459   1.152   0.741
   81SOL    HW1  256   0.388   1.125   0.806
   81SOL    HW2  257   0.433   1.124   0.648
   82SOL     OW  258   1.271   1.797   0.591
   82SOL    HW1  259   1.315   1.861   0.527
   82SOL    HW2  260   1.221   1.849   0.661
   83SOL     OW  261   1.032   0.549   0.016
   83SOL    HW1  262   0.991   0.631  -0.023
   83SOL    HW2  263   1.096   0.575   0.089
   84SOL     OW  264   0.078   0.556   1.386
   84SOL    HW1  265   0.170   0.555   1.345
   84SOL    HW2  266   0.072   0.630   1.453
   85SOL     OW  267   0.561   0.222   1.147
   85SOL    HW1  268   0.599   0.138   1.184
   85SOL    HW2  269   0.473   0.241   1.191
   86SOL     OW  270   0.866   0.454   0.642
   86SOL    HW1  271   0.834   0.526   0.580
   86SOL    HW2  272   0.890   0.373   0.589
   87SOL     OW  273   1.017   0.039   0.753
   87SOL    HW1  274   0.945   0.044   0.684
   87SOL    HW2  275   0.993  -0.030   0.822
   88SOL     OW  276   1.429   1.173   0.867
   88SOL    HW1  277   1.374   1.089   0.860
   88SOL    HW2  278   1.455   1.202   0.775
   89SOL     OW  279   1.466   0.590   0.992
   89SOL    HW1  280   1.436   0.495   0.999
   89SOL    HW2  281   1.539   0.606   1.058
   90SOL     OW  282   1.857   0.833   0.377
   90SOL    HW1  283   1.899   0.769   0.441
   90SOL    HW2  284   1.819   0.782   0.299
   91SOL     OW  285   0.488   1.385   0.174
   91SOL    HW1  286   0.401   1.370   0.221
   91SOL    HW2  287   0.471   1.411   0.079
   92SOL     OW  288   1.664   1.280   0.657
   92SOL    HW1  289   1.763   1.288   0.671
   92SOL    HW2  290   1.619   1.364   0.688
   93SOL     OW  291   1.390   0.575   0.078
   93SOL    HW1  292   1.336   0.554   0.159
   93SOL    HW2  293   1.481   0.534   0.087
   94SOL     OW  294   0.527   0.256   0.328
   94SOL    HW1  295   0.554   0.197   0.253
   94SOL    HW2  296   0.527   0.351   0.297
   95SOL     OW  297   1.754   1.223   1.588
   95SOL    HW1  298   1.845   1.184   1.575
   95SOL    HW2  299   1.762   1.319   1.612
   96SOL     OW  300   1.064   1.347   1.340
   96SOL    HW1  301   0.984   1.324   1.395
   96SOL    HW2  302   1.147   1.321   1.389
   97SOL     OW  303   1.592   1.629   1.625
   97SOL    HW1  304   1.619   1.663   1.535
   97SOL    HW2  305   1.671   1.591   1.671
   98SOL     OW  306   1.111   1.195   1.100
   98SOL    HW1  307   1.071   1.239   1.181
   98SOL    HW2  308   1.070   1.232   1.017
   99SOL     OW  309   1.638   1.099   1.079
   99SOL    HW1  310   1.643   1.180   1.138
   99SOL    HW2  311   1.552   1.101   1.028
  100SOL     OW  312   0.915   0.089   1.402
  100SOL    HW1  313   0.940   0.069   1.307
  100SOL    HW2  314   0.987   0.145   1.444
  101SOL     OW  315   0.980   1.116   1.719
  101SOL    HW1  316   0.881   1.122   1.729
  101SOL    HW2  317   1.003   1.036   1.663
  102SOL     OW  318   0.705   1.050   0.368
  102SOL    HW1  319   0.691   1.057   0.467
  102SOL    HW2  320   0.789   0.999   0.350
  103SOL     OW  321   0.410   0.813   1.251
  103SOL    HW1  322   0.496   0.825   1.301
  103SOL    HW2  323   0.368   0.726   1.278
  104SOL     OW  324   1.274   0.386   1.262
  104SOL    HW1  325   1.295   0.460   1.326
  104SOL    HW2  326   1.185   0.403   1.219
  105SOL     OW  327   0.064   1.564   1.331
  105SOL    HW1  328   0.018   1.646   1.297
  105SOL    HW2  329   0.162   1.583   1.340
  106SOL     OW  330   0.367   1.100   0.501
  106SOL    HW1  331   0.360   1.183   0.445
  106SOL    HW2  332   0.371   1.020   0.441
  107SOL     OW  333   0.566   0.537   0.865
  107SOL    HW1  334   0.578   0.603   0.791
  107SOL    HW2  335   0.612   0.571   0.948
  108SOL     OW  336   1.252   1.348   0.388
  108SOL    HW1  337   1.302   1.425   0.428
  108SOL    HW2  338   1.157   1.350   0.420
  109SOL     OW  339   1.272   1.445   1.142
  109SOL    HW1  340   1.319   1.458   1.229
  109SOL    HW2  341   1.206   1.371   1.151
  110SOL     OW  342   1.582   0.639   0.472
  110SOL    HW1  343   1.551   0.700   0.545
  110SOL    HW2  344   1.632   0.691   0.403
  111SOL     OW  345   0.354   1.510   1.329
  111SOL    HW1  346   0.333   1.466   1.242
  111SOL    HW2  347   0.451   1.536   1.332
  112SOL     OW  348   0.402   0.751   1.598
  112SOL    HW1  349   0.470   0.806   1.551
  112SOL    HW2  350   0.442   0.663   1.625
  113SOL     OW  351   1.587   0.779   1.670
  113SOL    HW1  352   1.495   0.817   1.665
  113SOL    HW2  353   1.647   0.826   1.605
  114SOL     OW  354   1.013   0.105   1.770
  114SOL    HW1  355   1.019   0.190   1.718
  114SOL    HW2  356   1.045   0.029   1.713
  115SOL     OW  357   0.504   0.050   1.740
  115SOL    HW1  358   0.462  -0.007   1.670
  115SOL    HW2  359   0.438   0.119   1.772
  116SOL     OW  360   0.573   0.870   1.029
  116SOL    HW1  361   0.617   0.959   1.020
  116SOL    HW2  362   0.510   0.870   1.106
  117SOL     OW  363   1.360   0.862   1.045
  117SOL    HW1  364   1.285   0.862   0.979
  117SOL    HW2  365   1.397   0.770   1.054
  118SOL     OW  366   1.209   0.525   0.275
  118SOL    HW1  367   1.222   0.441   0.329
  118SOL    HW2  368   1.180   0.599   0.335
  119SOL     OW  369   0.307   0.213   1.231
  119SOL    HW1  370   0.284   0.250   1.321
  119SOL    HW2  371   0.277   0.118   1.225
  120SOL     OW  372   0.037   1.310   1.282
  120SOL    HW1  373   0.090   1.261   1.350
  120SOL    HW2  374   0.059   1.408   1.287
  121SOL     OW  375   0.732   0.634   1.064
  121SOL    HW1  376   0.791   0.608   0.988
  121SOL    HW2  377   0.704   0.730   1.053
  122SOL     OW  378   1.728   0.935   1.854
  122SOL    HW1  379   1.682   0.928   1.765
  122SOL    HW2  380   1.666   0.979   1.920
  123SOL     OW  381   0.307   0.063   0.618
  123SOL    HW1  382   0.296   0.157   0.651
  123SOL    HW2  383   0.302   0.000   0.695
  124SOL     OW  384   1.622   0.367   0.374
  124SOL    HW1  385   1.624   0.291   0.438
  124SOL    HW2  386   1.574   0.444   0.414
  125SOL     OW  387   1.023   0.766   0.966
  125SOL    HW1  388   1.038   0.787   1.062
  125SOL    HW2  389   0.993   0.671   0.957
  126SOL     OW  390   0.980   1.573   1.700
  126SOL    HW1  391   0.960   1.617   1.612
  126SOL    HW2  392   1.019   1.482   1.684
  127SOL     OW  393   1.859   1.518   1.605
  127SOL    HW1  394   1.873   1.545   1.510
  127SOL    HW2  395   1.942   1.540   1.658
  128SOL     OW  396   0.350   0.898   1.804
  128SOL    HW1  397   0.426   0.942   1.852
  128SOL    HW2  398   0.385   0.851   1.722
  129SOL     OW  399   1.540   0.274   0.125
  129SOL    HW1  400   1.479   0.199   0.148
  129SOL    HW2  401   1.562   0.326   0.208
  130SOL     OW  402   1.303   0.838   0.042
  130SOL    HW1  403   1.337   0.745   0.057
  130SOL    HW2  404   1.321   0.865  -0.053
  131SOL     OW  405   1.068   1.333   0.849
  131SOL    HW1  406   1.075   1.249   0.794
  131SOL    HW2  407   1.130   1.402   0.813
  132SOL     OW  408   0.319   0.810   0.949
  132SOL    HW1  409   0.412   0.846   0.954
  132SOL    HW2  410   0.313   0.725   1.001
  133SOL     OW  411   0.339   0.509   1.006
  133SOL    HW1  412   0.287   0.426   0.989
  133SOL    HW2  413   0.416   0.514   0.942
  134SOL     OW  414   1.138   0.380   1.678
  134SOL    HW1  415   1.093   0.443   1.742
  134SOL    HW2  416   1.231   0.411   1.661
  135SOL     OW  417   1.160   0.207   1.477
  135SOL    HW1  418   1.160   0.271   1.554
  135SOL    HW2  419   1.188   0.255   1.394
  136SOL     OW  420   0.008   1.326   0.200
  136SOL    HW1  421  -0.085   1.347   0.169
  136SOL    HW2  422   0.018   1.227   0.213
  137SOL     OW  423   0.088   1.801   0.927
  137SOL    HW1  424   0.046   1.715   0.900
  137SOL    HW2  425   0.182   1.804   0.893
  138SOL     OW  426   0.504   1.568   0.910
  138SOL    HW1  427   0.570   1.642   0.919
  138SOL    HW2  428   0.548   1.489   0.868
  139SOL     OW  429   1.002   0.796   1.238
  139SOL    HW1  430   1.043   0.764   1.324
  139SOL    HW2  431   0.906   0.769   1.235
  140SOL     OW  432   0.040   0.544   1.114
  140SOL    HW1  433   0.125   0.511   1.073
  140SOL    HW2  434   0.053   0.559   1.212
  141SOL     OW  435   0.189   0.520   1.722
  141SOL    HW1  436   0.248   0.480   1.652
  141SOL    HW2  437   0.131   0.591   1.681
  142SOL     OW  438   1.369   0.950   1.660
  142SOL    HW1  439   1.408   1.039   1.680
  142SOL    HW2  440   1.379   0.930   1.563
  143SOL     OW  441   0.815   0.572   0.325
  143SOL    HW1  442   0.822   0.483   0.279
  143SOL    HW2  443   0.721   0.606   0.317
  144SOL     OW  444   1.657   0.604   1.206
  144SOL    HW1  445   1.619   0.535   1.268
  144SOL    HW2  446   1.739   0.568   1.162
  145SOL     OW  447   0.252   1.564   1.744
  145SOL    HW1  448   0.222   1.621   1.820
  145SOL    HW2  449   0.245   1.467   1.770
  146SOL     OW  450   0.671   0.464   1.269
  146SOL    HW1  451   0.637   0.375   1.239
  146SOL    HW2  452   0.697   0.518   1.189
  147SOL     OW  453   0.930   1.678   1.465
  147SOL    HW1  454   0.906   1.660   1.370
  147SOL    HW2  455   0.960   1.772   1.475
  148SOL     OW  456   0.473   0.500   0.191
  148SOL    HW1  457   0.534   0.580   0.195
  148SOL    HW2  458   0.378   0.531   0.198
  149SOL     OW  459   0.159   1.137   1.466
  149SOL    HW1  460   0.181   1.076   1.542
  149SOL    HW2  461   0.169   1.088   1.380
  150SOL     OW  462   1.347   1.059   1.234
  150SOL    HW1  463   1.371   0.996   1.160
  150SOL    HW2  464   1.257   1.099   1.216
  151SOL     OW  465   1.302   0.855   0.309
  151SOL    HW1  466   1.216   0.824   0.351
  151SOL    HW2  467   1.298   0.841   0.210
  152SOL     OW  468   1.759   1.747   1.154
  152SOL    HW1  469   1.820   1.777   1.081
  152SOL    HW2  470   1.721   1.658   1.132
  153SOL     OW  471   1.252   1.731   1.128
  153SOL    HW1  472   1.336   1.736   1.074
  153SOL    HW2  473   1.229   1.635   1.146
  154SOL     OW  474   0.083   1.258   1.022
  154SOL    HW1  475   0.078   1.257   1.122
  154SOL    HW2  476   0.000   1.217   0.984
  155SOL     OW  477   0.688   1.662   1.716
  155SOL    HW1  478   0.632   1.743   1.725
  155SOL    HW2  479   0.740   1.666   1.630
  156SOL     OW  480   0.903   0.086   0.133
  156SOL    HW1  481   0.954   0.087   0.047
  156SOL    HW2  482   0.959   0.044   0.204
  157SOL     OW  483   1.726   0.135   0.523
  157SOL    HW1  484   1.799   0.118   0.456
  157SOL    HW2  485   1.695   0.048   0.561
  158SOL     OW  486   1.388   1.573   0.477
  158SOL    HW1  487   1.455   1.585   0.403
  158SOL    HW2  488   1.348   1.662   0.500
  159SOL     OW  489   0.130   1.794   1.851
  159SOL    HW1  490   0.089   1.720   1.904
  159SOL    HW2  491   0.194   1.845   1.909
  160SOL     OW  492   1.280   0.927   0.672
  160SOL    HW1  493   1.340   0.846   0.674
  160SOL    HW2  494   1.320   0.996   0.612
  161SOL     OW  495   0.830   1.273   1.422
  161SOL    HW1  496   0.825   1.306   1.517
  161SOL    HW2  497   0.744   1.292   1.376
  162SOL     OW  498   0.672   1.616   0.154
  162SOL    HW1  499   0.681   1.626   0.055
  162SOL    HW2  500   0.632   1.527   0.175
  163SOL     OW  501   1.650   1.720   1.394
  163SOL    HW1  502   1.703   1.730   1.310
  163SOL    HW2  503   1.623   1.810   1.428
  164SOL     OW  504   1.841   0.175   0.963
  164SOL    HW1  505   1.880   0.090   0.927
  164SOL    HW2  506   1.743   0.177   0.944
  165SOL     OW  507   0.263   0.326   0.720
  165SOL    HW1  508   0.184   0.377   0.686
  165SOL    HW2  509   0.254   0.311   0.818
  166SOL     OW  510   1.194   1.612   0.031
  166SOL    HW1  511   1.200   1.519   0.068
  166SOL    HW2  512   1.135   1.612  -0.049
  167SOL     OW  513   0.822   1.002   1.372
  167SOL    HW1  514   0.862   1.001   1.280
  167SOL    HW2  515   0.832   1.094   1.412
  168SOL     OW  516   0.916   0.910   0.291
  168SOL    HW1  517   0.979   0.948   0.223
  168SOL    HW2  518   0.956   0.827   0.330
  169SOL     OW  519   1.504   1.607   0.044
  169SOL    HW1  520   1.412   1.644   0.051
  169SOL    HW2  521   1.542   1.627  -0.046
  170SOL     OW  522   0.372   1.288   1.490
  170SOL    HW1  523   0.359   1.381   1.456
  170SOL    HW2  524   0.288   1.236   1.477
  171SOL     OW  525   1.614   1.292   1.289
  171SOL    HW1  526   1.674   1.295   1.369
  171SOL    HW2  527   1.539   1.356   1.302
  172SOL     OW  528   1.039   1.098   0.696
  172SOL    HW1  529   0.969   1.051   0.750
  172SOL    HW2  530   1.098   1.030   0.653
  173SOL     OW  531   1.014   0.236   0.971
  173SOL    HW1  532   1.006   0.200   0.878
  173SOL    HW2  533   1.012   0.160   1.036
  174SOL     OW  534   0.590   1.487   0.491
  174SOL    HW1  535   0.632   1.429   0.421
  174SOL    HW2  536   0.546   1.566   0.447
  175SOL     OW  537   1.709   0.385   1.381
  175SOL    HW1  538   1.782   0.454   1.385
  175SOL    HW2  539   1.737   0.310   1.322
  176SOL     OW  540   0.255   1.348   0.290
  176SOL    HW1  541   0.159   1.349   0.263
  176SOL    HW2  542   0.267   1.401   0.374
  177SOL     OW  543   0.105   1.013   1.726
  177SOL    HW1  544   0.028   0.980   1.780
  177SOL    HW2  545   0.190   0.983   1.768
  178SOL     OW  546   0.672   0.203   1.489
  178SOL    HW1  547   0.762   0.187   1.449
  178SOL    HW2  548   0.680   0.208   1.588
  179SOL     OW  549   0.075   0.345   0.033
  179SOL    HW1  550  -0.017   0.317   0.004
  179SOL    HW2  551   0.106   0.422  -0.023
  180SOL     OW  552   1.440   0.856   1.398
  180SOL    HW1  553   1.383   0.908   1.335
  180SOL    HW2  554   1.536   0.868   1.374
  181SOL     OW  555   0.072   0.166   0.318
  181SOL    HW1  556   0.055   0.249   0.264
  181SOL    HW2  557   0.162   0.129   0.296
  182SOL     OW  558   1.183   1.335   0.119
  182SOL    HW1  559   1.084   1.324   0.121
  182SOL    HW2  560   1.217   1.350   0.212
  183SOL     OW  561   0.613   0.842   1.431
  183SOL    HW1  562   0.669   0.923   1.414
  183SOL    HW2  563   0.672   0.762   1.434
  184SOL     OW  564   1.493   1.767   0.959
  184SOL    HW1  565   1.526   1.831   0.890
  184SOL    HW2  566   1.559   1.761   1.034
  185SOL     OW  567   0.716   0.565   1.708
  185SOL    HW1  568   0.735   0.630   1.782
  185SOL    HW2  569   0.776   0.485   1.717
  186SOL     OW  570   1.450   1.220   1.633
  186SOL    HW1  571   1.441   1.210   1.732
  186SOL    HW2  572   1.546   1.213   1.607
  187SOL     OW  573   0.390   1.741   1.560
  187SOL    HW1  574   0.299   1.782   1.558
  187SOL    HW2  575   0.383   1.647   1.592
  188SOL     OW  576   1.674   0.883   1.254
  188SOL    HW1  577   1.647   0.794   1.217
  188SOL    HW2  578   1.675   0.951   1.181
  189SOL     OW  579   1.225   0.325   0.449
  189SOL    HW1  580   1.290   0.251   0.438
  189SOL    HW2  581   1.245   0.375   0.533
  190SOL     OW  582   0.594   0.745   0.652
  190SOL    HW1  583   0.644   0.830   0.633
  190SOL    HW2  584   0.506   0.747   0.604
  191SOL     OW  585   1.777   0.342   1.642
  191SOL    HW1  586   1.760   0.373   1.548
  191SOL    HW2  587   1.693   0.305   1.680
  192SOL     OW  588   1.730   0.934   1.517
  192SOL    HW1  589   1.768   1.025   1.532
  192SOL    HW2  590   1.722   0.917   1.418
  193SOL     OW  591   0.859   1.374   0.016
  193SOL    HW1  592   0.813   1.389   0.104
  193SOL    HW2  593   0.903   1.459  -0.014
  194SOL     OW  594   0.661   1.790   0.953
  194SOL    HW1  595   0.615   1.878   0.940
  194SOL    HW2  596   0.760   1.802   0.946
  195SOL     OW  597   0.859   0.956   0.861
  195SOL    HW1  598   0.913   0.887   0.909
  195SOL    HW2  599   0.827   1.025   0.927
  196SOL     OW  600   1.083   0.984   0.087
  196SOL    HW1  601   1.060   1.037   0.005
  196SOL    HW2  602   1.164   0.928   0.068
  197SOL     OW  603   1.861   1.569   0.851
  197SOL    HW1  604   1.790   1.557   0.781
  197SOL    HW2  605   1.862   1.490   0.911
  198SOL     OW  606   0.221   1.314   1.844
  198SOL    HW1  607   0.156   1.241   1.823
  198SOL    HW2  608   0.225   1.328   1.942
  199SOL     OW  609   0.079   1.240   0.653
  199SOL    HW1  610   0.078   1.193   0.741
  199SOL    HW2  611   0.161   1.212   0.602
  200SOL     OW  612   0.672   1.391   1.624
  200SOL    HW1  613   0.594   1.341   1.662
  200SOL    HW2  614   0.669   1.486   1.655
  201SOL     OW  615   1.824   0.192   1.227
  201SOL    HW1  616   1.820   0.102   1.271
  201SOL    HW2  617   1.827   0.181   1.128
  202SOL     OW  618   0.428   0.424   0.520
  202SOL    HW1  619   0.458   0.352   0.458
  202SOL    HW2  620   0.389   0.384   0.603
  203SOL     OW  621   1.705   1.487   1.104
  203SOL    HW1  622   1.612   1.462   1.077
  203SOL    HW2  623   1.731   1.437   1.186
  204SOL     OW  624   0.317   0.547   1.280
  204SOL    HW1  625   0.355   0.488   1.352
  204SOL    HW2  626   0.357   0.521   1.192
  205SOL     OW  627   0.812   1.586   0.687
  205SOL    HW1  628   0.844   1.596   0.593
  205SOL    HW2  629   0.733   1.524   0.689
  206SOL     OW  630   1.424   0.214   1.112
  206SOL    HW1  631   1.476   0.149   1.167
  206SOL    HW2  632   1.375   0.277   1.173
  207SOL     OW  633   1.001   0.034   1.154
  207SOL    HW1  634   0.938  -0.038   1.123
  207SOL    HW2  635   1.094  -0.002   1.154
  208SOL     OW  636   0.770   1.330   0.301
  208SOL    HW1  637   0.724   1.243   0.318
  208SOL    HW2  638   0.861   1.327   0.342
  209SOL     OW  639   0.618   1.567   1.284
  209SOL    HW1  640   0.613   1.649   1.341
  209SOL    HW2  641   0.707   1.564   1.239
  210SOL     OW  642   1.352   0.052   0.168
  210SOL    HW1  643   1.387   0.011   0.084
  210SOL    HW2  644   1.262   0.014   0.188
  211SOL     OW  645   1.300   0.453   0.691
  211SOL    HW1  646   1.241   0.533   0.695
  211SOL    HW2  647   1.315   0.418   0.784
  212SOL     OW  648   1.593   0.221   0.882
  212SOL    HW1  649   1.509   0.220   0.936
  212SOL    HW2  650   1.595   0.304   0.826
  213SOL     OW  651   0.039   1.077   0.300
  213SOL    HW1  652   0.138   1.066   0.291
  213SOL    HW2  653  -0.001   0.991   0.332
  214SOL     OW  654   0.875   1.646   0.337
  214SOL    HW1  655   0.798   1.611   0.283
  214SOL    HW2  656   0.843   1.717   0.399
  215SOL     OW  657   0.230   0.628   1.975
  215SOL    HW1  658   0.137   0.626   2.012
  215SOL    HW2  659   0.231   0.589   1.883
  216SOL     OW  660   0.225   0.275   2.858
  216SOL    HW1  661   0.260   0.258   2.950
  216SOL    HW2  662   0.137   0.230   2.846
  217SOL     OW  663   0.019   0.368   2.509
  217SOL    HW1  664  -0.063   0.411   2.548
  217SOL    HW2  665  -0.009   0.295   2.446
  218SOL     OW  666   0.569   1.275   3.027
  218SOL    HW1  667   0.476   1.268   2.990
  218SOL    HW2  668   0.580   1.364   3.071
  219SOL     OW  669   1.555   1.511   2.565
  219SOL    HW1  670   1.498   1.495   2.646
  219SOL    HW2  671   1.496   1.521   2.485
  220SOL     OW  672   1.135   0.703   2.579
  220SOL    HW1  673   1.192   0.781   2.554
  220SOL    HW2  674   1.075   0.729   2.655
  221SOL     OW  675   1.755   0.607   2.093
  221SOL    HW1  676   1.743   0.594   1.994
  221SOL    HW2  677   1.725   0.526   2.142
  222SOL     OW  678   0.768   1.144   2.885
  222SOL    HW1  679   0.690   1.161   2.945
  222SOL    HW2  680   0.802   1.231   2.849
  223SOL     OW  681   0.850   0.798   3.685
  223SOL    HW1  682   0.846   0.874   3.750
  223SOL    HW2  683   0.872   0.834   3.594
  224SOL     OW  684   0.685   1.012   2.527
  224SOL    HW1  685   0.754   0.996   2.597
  224SOL    HW2  686   0.612   1.069   2.565
  225SOL     OW  687   0.686   1.161   3.665
  225SOL    HW1  688   0.746   1.240   3.679
  225SOL    HW2  689   0.600   1.192   3.624
  226SOL     OW  690   0.335   1.435   2.923
  226SOL    HW1  691   0.257   1.404   2.870
  226SOL    HW2  692   0.393   1.493   2.866
  227SOL     OW  693   1.460   1.505   3.201
  227SOL    HW1  694   1.484   1.599   3.227
  227SOL    HW2  695   1.444   1.451   3.283
  228SOL     OW  696   0.438   0.392   3.361
  228SOL    HW1  697   0.520   0.336   3.370
  228SOL    HW2  698   0.357   0.334   3.365
  229SOL     OW  699   1.603   0.447   2.599
  229SOL    HW1  700   1.529   0.493   2.549
  229SOL    HW2  701   1.654   0.515   2.652
  230SOL     OW  702   0.231   1.713   2.345
  230SOL    HW1  703   0.265   1.790   2.399
  230SOL    HW2  704   0.275   1.713   2.255
  231SOL     OW  705   1.127   1.341   3.552
  231SOL    HW1  706   1.174   1.341   3.640
  231SOL    HW2  707   1.079   1.254   3.541
  232SOL     OW  708   0.230   1.434   2.400
  232SOL    HW1  709   0.204   1.530   2.400
  232SOL    HW2  710   0.159   1.380   2.445
  233SOL     OW  711   0.240   1.091   2.748
  233SOL    HW1  712   0.254   1.007   2.800
  233SOL    HW2  713   0.185   1.155   2.803
  234SOL     OW  714   0.620   1.786   3.301
  234SOL    HW1  715   0.528   1.769   3.336
  234SOL    HW2  716   0.648   1.878   3.327
  235SOL     OW  717   0.606   0.964   1.985
  235SOL    HW1  718   0.613   1.048   1.931
  235SOL    HW2  719   0.652   0.977   2.073
  236SOL     OW  720   1.594   0.114   3.342
  236SOL    HW1  721   1.576   0.181   3.270
  236SOL    HW2  722   1.591   0.160   3.431
  237SOL     OW  723   0.122   0.643   2.425
  237SOL    HW1  724   0.077   0.555   2.442
  237SOL    HW2  725   0.121   0.697   2.509
  238SOL     OW  726   1.842   1.767   2.221
  238SOL    HW1  727   1.896   1.738   2.301
  238SOL    HW2  728   1.872   1.857   2.192
  239SOL     OW  729   0.027   1.596   1.979
  239SOL    HW1  730   0.008   1.500   2.000
  239SOL    HW2  731  -0.006   1.654   2.054
  240SOL     OW  732   1.689   0.922   2.474
  240SOL    HW1  733   1.784   0.893   2.482
  240SOL    HW2  734   1.681   0.987   2.399
  241SOL     OW  735   1.641   1.108   2.294
  241SOL    HW1  736   1.727   1.110   2.242
  241SOL    HW2  737   1.655   1.155   2.382
  242SOL     OW  738   0.113   0.737   3.459
  242SOL    HW1  739   0.201   0.724   3.504
  242SOL    HW2  740   0.100   0.834   3.437
  243SOL     OW  741   0.613   1.365   2.588
  243SOL    HW1  742   0.564   1.278   2.597
  243SOL    HW2  743   0.590   1.408   2.501
  244SOL     OW  744   1.293   1.228   3.285
  244SOL    HW1  745   1.330   1.155   3.227
  244SOL    HW2  746   1.345   1.233   3.370
  245SOL     OW  747   0.809   0.004   2.364
  245SOL    HW1  748   0.849   0.095   2.355
  245SOL    HW2  749   0.709   0.012   2.370
  246SOL     OW  750   0.197   0.976   3.126
  246SOL    HW1  751   0.286   0.931   3.112
  246SOL    HW2  752   0.124   0.911   3.107
  247SOL     OW  753   1.525   0.999   2.052
  247SOL    HW1  754   1.462   0.923   2.065
  247SOL    HW2  755   1.573   1.017   2.138
  248SOL     OW  756   1.187   1.792   3.478
  248SOL    HW1  757   1.211   1.852   3.402
  248SOL    HW2  758   1.194   1.697   3.448
  249SOL     OW  759   0.317   0.251   3.663
  249SOL    HW1  760   0.388   0.322   3.669
  249SOL    HW2  761   0.229   0.290   3.691
  250SOL     OW  762   1.466   1.417   2.815
  250SOL    HW1  763   1.407   1.423   2.895
  250SOL    HW2  764   1.451   1.329   2.769
  251SOL     OW  765   1.667   1.714   2.434
  251SOL    HW1  766   1.626   1.691   2.346
  251SOL    HW2  767   1.649   1.640   2.499
  252SOL     OW  768   0.598   0.729   2.132
  252SOL    HW1  769   0.622   0.798   2.064
  252SOL    HW2  770   0.520   0.762   2.186
  253SOL     OW  771   1.281   0.345   2.806
  253SOL    HW1  772   1.195   0.295   2.793
  253SOL    HW2  773   1.343   0.291   2.862
  254SOL     OW  774   1.576   1.662   2.169
  254SOL    HW1  775   1.665   1.708   2.172
  254SOL    HW2  776   1.555   1.638   2.074
  255SOL     OW  777   0.807   0.605   3.327
  255SOL    HW1  778   0.760   0.602   3.416
  255SOL    HW2  779   0.756   0.550   3.261
  256SOL     OW  780   1.394   0.469   3.536
  256SOL    HW1  781   1.374   0.512   3.624
  256SOL    HW2  782   1.472   0.407   3.545
  257SOL     OW  783   0.973   0.890   3.434
  257SOL    HW1  784   1.019   0.806   3.405
  257SOL    HW2  785   0.917   0.924   3.359
  258SOL     OW  786   0.991   0.410   3.104
  258SOL    HW1  787   0.914   0.444   3.158
  258SOL    HW2  788   0.957   0.359   3.025
  259SOL     OW  789   1.041   0.701   2.291
  259SOL    HW1  790   1.067   0.697   2.387
  259SOL    HW2  791   0.956   0.650   2.277
  260SOL     OW  792   0.076   0.811   2.651
  260SOL    HW1  793   0.175   0.799   2.660
  260SOL    HW2  794   0.052   0.906   2.672
  261SOL     OW  795   0.130   1.821   3.433
  261SOL    HW1  796   0.120   1.806   3.532
  261SOL    HW2  797   0.044   1.857   3.397
  262SOL     OW  798   0.865   0.348   2.057
  262SOL    HW1  799   0.924   0.411   2.008
  262SOL    HW2  800   0.884   0.254   2.028
  263SOL     OW  801   1.719   0.585   3.693
  263SOL    HW1  802   1.693   0.674   3.657
  263SOL    HW2  803   1.717   0.517   3.620
  264SOL     OW  804   1.362   1.144   2.407
  264SOL    HW1  805   1.445   1.115   2.359
  264SOL    HW2  806   1.313   1.211   2.351
  265SOL     OW  807   0.550   0.196   2.747
  265SOL    HW1  808   0.545   0.191   2.847
  265SOL    HW2  809   0.552   0.292   2.718
  266SOL     OW  810   1.008   1.456   2.339
  266SOL    HW1  811   0.962   1.528   2.287
  266SOL    HW2  812   1.004   1.476   2.437
  267SOL     OW  813   0.351   1.801   2.715
  267SOL    HW1  814   0.401   1.715   2.721
  267SOL    HW2  815   0.416   1.878   2.712
  268SOL     OW  816   1.795   1.066   2.735
  268SOL    HW1  817   1.733   1.051   2.659
  268SOL    HW2  818   1.743   1.077   2.820
  269SOL     OW  819   1.227   1.550   3.368
  269SOL    HW1  820   1.233   1.473   3.432
  269SOL    HW2  821   1.175   1.524   3.288
  270SOL     OW  822   0.321   0.943   2.104
  270SOL    HW1  823   0.403   0.982   2.062
  270SOL    HW2  824   0.294   0.861   2.055
  271SOL     OW  825   1.458   0.735   2.590
  271SOL    HW1  826   1.453   0.670   2.665
  271SOL    HW2  827   1.538   0.794   2.603
  272SOL     OW  828   0.461   1.266   3.589
  272SOL    HW1  829   0.411   1.267   3.503
  272SOL    HW2  830   0.398   1.248   3.665
  273SOL     OW  831   1.111   1.776   2.099
  273SOL    HW1  832   1.051   1.714   2.149
  273SOL    HW2  833   1.142   1.732   2.014
  274SOL     OW  834   0.202   0.285   3.360
  274SOL    HW1  835   0.122   0.345   3.347
  274SOL    HW2  836   0.192   0.236   3.446
  275SOL     OW  837   1.632   1.377   1.943
  275SOL    HW1  838   1.600   1.471   1.933
  275SOL    HW2  839   1.556   1.314   1.931
  276SOL     OW  840   0.464   1.743   2.185
  276SOL    HW1  841   0.497   1.782   2.271
  276SOL    HW2  842   0.540   1.736   2.120
  277SOL     OW  843   1.400   0.107   2.288
  277SOL    HW1  844   1.376   0.070   2.198
  277SOL    HW2  845   1.499   0.123   2.292
  278SOL     OW  846   0.249   1.785   3.103
  278SOL    HW1  847   0.306   1.720   3.153
  278SOL    HW2  848   0.233   1.752   3.010
  279SOL     OW  849   0.940   1.698   2.766
  279SOL    HW1  850   1.020   1.641   2.787
  279SOL    HW2  851   0.891   1.658   2.689
  280SOL     OW  852   0.382   0.700   2.342
  280SOL    HW1  853   0.427   0.610   2.339
  280SOL    HW2  854   0.288   0.689   2.375
  281SOL     OW  855   1.547   0.222   3.591
  281SOL    HW1  856   1.542   0.259   3.683
  281SOL    HW2  857   1.475   0.153   3.579
  282SOL     OW  858   0.614   0.122   1.979
  282SOL    HW1  859   0.712   0.100   1.986
  282SOL    HW2  860   0.583   0.105   1.886
  283SOL     OW  861   0.781   0.264   3.611
  283SOL    HW1  862   0.848   0.203   3.654
  283SOL    HW2  863   0.708   0.283   3.676
  284SOL     OW  864   0.888   1.514   3.057
  284SOL    HW1  865   0.865   1.489   2.963
  284SOL    HW2  866   0.949   1.445   3.096
  285SOL     OW  867   1.351   0.590   3.295
  285SOL    HW1  868   1.379   0.547   3.380
  285SOL    HW2  869   1.376   0.686   3.296
  286SOL     OW  870   0.803   1.402   2.786
  286SOL    HW1  871   0.893   1.416   2.744
  286SOL    HW2  872   0.732   1.404   2.715
  287SOL     OW  873   0.922   0.503   2.761
  287SOL    HW1  874   0.897   0.494   2.665
  287SOL    HW2  875   0.970   0.421   2.792
  288SOL     OW  876   0.539   0.064   2.374
  288SOL    HW1  877   0.458   0.065   2.432
  288SOL    HW2  878   0.542   0.147   2.319
  289SOL     OW  879   1.434   1.188   1.903
  289SOL    HW1  880   1.466   1.112   1.960
  289SOL    HW2  881   1.342   1.215   1.933
  290SOL     OW  882   0.297   0.035   2.033
  290SOL    HW1  883   0.346   0.119   2.012
  290SOL    HW2  884   0.359  -0.030   2.078
  291SOL     OW  885   0.935   0.236   2.342
  291SOL    HW1  886   0.887   0.277   2.264
  291SOL    HW2  887   1.034   0.234   2.323
  292SOL     OW  888   1.076   0.683   3.326
  292SOL    HW1  889   0.996   0.622   3.329
  292SOL    HW2  890   1.157   0.630   3.302
  293SOL     OW  891   1.227   1.570   2.655
  293SOL    HW1  892   1.248   1.644   2.590
  293SOL    HW2  893   1.295   1.570   2.728
  294SOL     OW  894   0.459   1.152   2.603
  294SOL    HW1  895   0.388   1.125   2.668
  294SOL    HW2  896   0.433   1.124   2.510
  295SOL     OW  897   1.271   1.797   2.453
  295SOL    HW1  898   1.315   1.861   2.389
  295SOL    HW2  899   1.221   1.849   2.523
  296SOL     OW  900   1.032   0.549   1.878
  296SOL    HW1  901   0.991   0.631   1.839
  296SOL    HW2  902   1.096   0.575   1.951
  297SOL     OW  903   0.078   0.556   3.248
  297SOL    HW1  904   0.170   0.555   3.207
  297SOL    HW2  905   0.072   0.630   3.315
  298SOL     OW  906   0.561   0.222   3.009
  298SOL    HW1  907   0.599   0.138   3.046
  298SOL    HW2  908   0.473   0.241   3.053
  299SOL     OW  909   0.866   0.454   2.504
  299SOL    HW1  910   0.834   0.526   2.442
  299SOL    HW2  911   0.890   0.373   2.451
  300SOL     OW  912   1.017   0.039   2.615
  300SOL    HW1  913   0.945   0.044   2.546
  300SOL    HW2  914   0.993  -0.030   2.684
  301SOL     OW  915   1.429   1.173   2.729
  301SOL    HW1  916   1.374   1.089   2.722
  301SOL    HW2  917   1.455   1.202   2.637
  302SOL     OW  918   1.466   0.590   2.854
  302SOL    HW1  919   1.436   0.495   2.861
  302SOL    HW2  920   1.539   0.606   2.920
  303SOL     OW  921   1.857   0.833   2.239
  303SOL    HW1  922   1.899   0.769   2.303
  303SOL    HW2  923   1.819   0.782   2.161
  304SOL     OW  924   0.488   1.385   2.036
  304SOL    HW1  925   0.401   1.370   2.083
  304SOL    HW2  926   0.471   1.411   1.941
  305SOL     OW  927   1.664   1.280   2.519
  305SOL    HW1  928   1.763   1.288   2.533
  305SOL    HW2  929   1.619   1.364   2.550
  306SOL     OW  930   1.390   0.575   1.940
  306SOL    HW1  931   1.336   0.554   2.021
  306SOL    HW2  932   1.481   0.534   1.949
  307SOL     OW  933   0.527   0.256   2.190
  307SOL    HW1  934   0.554   0.197   2.115
  307SOL    HW2  935   0.527   0.351   2.159
  308SOL     OW  936   1.754   1.223   3.450
  308SOL    HW1  937   1.845   1.184   3.437
  308SOL    HW2  938   1.762   1.319   3.474
  309SOL     OW  939   1.064   1.347   3.202
  309SOL    HW1  940   0.984   1.324   3.257
  309SOL    HW2  941   1.147   1.321   3.251
  310SOL     OW  942   1.592   1.629   3.487
  310SOL    HW1  943   1.619   1.663   3.397
  310SOL    HW2  944   1.671   1.591   3.533
  311SOL     OW  945   1.111   1.195   2.962
  311SOL    HW1  946   1.071   1.239   3.043
  311SOL    HW2  947   1.070   1.232   2.879
  312SOL     OW  948   1.638   1.099   2.941
  312SOL    HW1  949   1.643   1.180   3.000
  312SOL    HW2  950   1.552   1.101   2.890
  313SOL     OW  951   0.915   0.089   3.264
  313SOL    HW1  952   0.940   0.069   3.169
  313SOL    HW2  953   0.987   0.145   3.306
  314SOL     OW  954   0.980   1.116   3.581
  314SOL    HW1  955   0.881   1.122   3.591
  314SOL    HW2  956   1.003   1.036   3.525
  315SOL     OW  957   0.705   1.050   2.230
  315SOL    HW1  958   0.691   1.057   2.329
  315SOL    HW2  959   0.789   0.999   2.212
  316SOL     OW  960   0.410   0.813   3.113
  316SOL    HW1  961   0.496   0.825   3.163
  316SOL    HW2  962   0.368   0.726   3.140
  317SOL     OW  963   1.274   0.386   3.124
  317SOL    HW1  964   1.295   0.460   3.188
  317SOL    HW2  965   1.185   0.403   3.081
  318SOL     OW  966   0.064   1.564   3.193
  318SOL    HW1  967   0.018   1.646   3.159
  318SOL    HW2  968   0.162   1.583   3.202
  319SOL     OW  969   0.367   1.100   2.363
  319SOL    HW1  970   0.360   1.183   2.307
  319SOL    HW2  971   0.371   1.020   2.303
  320SOL     OW  972   0.566   0.537   2.727
  320SOL    HW1  973   0.578   0.603   2.653
  320SOL    HW2  974   0.612   0.571   2.810
  321SOL     OW  975   1.252   1.348   2.250
  321SOL    HW1  976   1.302   1.425   2.290
  321SOL    HW2  977   1.157   1.350   2.282
  322SOL     OW  978   1.272   1.445   3.004
  322SOL    HW1  979   1.319   1.458   3.091
  322SOL    HW2  980   1.206   1.371   3.013
  323SOL     OW  981   1.582   0.639   2.334
  323SOL    HW1  982   1.551   0.700   2.407
  323SOL    HW2  983   1.632   0.691   2.265
  324SOL     OW  984   0.354   1.510   3.191
  324SOL    HW1  985   0.333   1.466   3.104
  324SOL    HW2  986   0.451   1.536   3.194
  325SOL     OW  987   0.402   0.751   3.460
  325SOL    HW1  988   0.470   0.806   3.413
  325SOL    HW2  989   0.442   0.663   3.487
  326SOL     OW  990   1.587   0.779   3.532
  326SOL    HW1  991   1.495   0.817   3.527
  326SOL    HW2  992   1.647   0.826   3.467
  327SOL     OW  993   1.013   0.105   3.632
  327SOL    HW1  994   1.019   0.190   3.580
  327SOL    HW2  995   1.045   0.029   3.575
  328SOL     OW  996   0.504   0.050   3.602
  328SOL    HW1  997   0.462  -0.007   3.532
  328SOL    HW2  998   0.438   0.119   3.634
  329SOL     OW  999   0.573   0.870   2.891
  329SOL    HW1 1000   0.617   0.959   2.882
  329SOL    HW2 1001   0.510   0.870   2.968
  330SOL     OW 1002   1.360   0.862   2.907
  330SOL    HW1 1003   1.285   0.862   2.841
  330SOL    HW2 1004   1.397   0.770   2.916
  331SOL     OW 1005   1.209   0.525   2.137
  331SOL    HW1 1006   1.222   0.441   2.191
  331SOL    HW2 1007   1.180   0.599   2.197
  332SOL     OW 1008   0.307   0.213   3.093
  332SOL    HW1 1009   0.284   0.250   3.183
  332SOL    HW2 1010   0.277   0.118   3.087
  333SOL     OW 1011   0.037   1.310   3.144
  333SOL    HW1 1012   0.090   1.261   3.212
  333SOL    HW2 1013   0.059   1.408   3.149
  334SOL     OW 1014   0.732   0.634   2.926
  334SOL    HW1 1015   0.791   0.608   2.850
  334SOL    HW2 1016   0.704   0.730   2.915
  335SOL     OW 1017   1.728   0.935   3.716
  335SOL    HW1 1018   1.682   0.928   3.627
  335SOL    HW2 1019   1.666   0.979   3.782
  336SOL     OW 1020   0.307   0.063   2.480
  336SOL    HW1 1021   0.296   0.157   2.513
  336SOL    HW2 1022   0.302   0.000   2.557
  337SOL     OW 1023   1.622   0.367   2.236
  337SOL    HW1 1024   1.624   0.291   2.300
  337SOL    HW2 1025   1.574   0.444   2.276
  338SOL     OW 1026   1.023   0.766   2.828
  338SOL    HW1 1027   1.038   0.787   2.924
  338SOL    HW2 1028   0.993   0.671   2.819
  339SOL     OW 1029   0.980   1.573   3.562
  339SOL    HW1 1030   0.960   1.617   3.474
  339SOL    HW2 1031   1.019   1.482   3.546
  340SOL     OW 1032   1.859   1.518   3.467
  340SOL    HW1 1033   1.873   1.545   3.372
  340SOL    HW2 1034   1.942   1.540   3.520
  341SOL     OW 1035   0.350   0.898   3.666
  341SOL    HW1 1036   0.426   0.942   3.714
  341SOL    HW2 1037   0.385   0.851   3.584
  342SOL     OW 1038   1.540   0.274   1.987
  342SOL    HW1 1039   1.479   0.199   2.010
  342SOL    HW2 1040   1.562   0.326   2.070
  343SOL     OW 1041   1.303   0.838   1.904
  343SOL    HW1 1042   1.337   0.745   1.919
  343SOL    HW2 1043   1.321   0.865   1.809
  344SOL     OW 1044   1.068   1.333   2.711
  344SOL    HW1 1045   1.075   1.249   2.656
  344SOL    HW2 1046   1.130   1.402   2.675
  345SOL     OW 1047   0.319   0.810   2.811
  345SOL    HW1 1048   0.412   0.846   2.816
  345SOL    HW2 1049   0.313   0.725   2.863
  346SOL     OW 1050   0.339   0.509   2.868
  346SOL    HW1 1051   0.287   0.426   2.851
  346SOL    HW2 1052   0.416   0.514   2.804
  347SOL     OW 1053   1.138   0.380   3.540
  347SOL    HW1 1054   1.093   0.443   3.604
  347SOL    HW2 1055   1.231   0.411   3.523
  348SOL     OW 1056   1.160   0.207   3.339
  348SOL    HW1 1057   1.160   0.271   3.416
  348SOL    HW2 1058   1.188   0.255   3.256
  349SOL     OW 1059   0.008   1.326   2.062
  349SOL    HW1 1060  -0.085   1.347   2.031
  349SOL    HW2 1061   0.018   1.227   2.075
  350SOL     OW 1062   0.088   1.801   2.789
  350SOL    HW1 1063   0.046   1.715   2.762
  350SOL    HW2 1064   0.182   1.804   2.755
  351SOL     OW 1065   0.504   1.568   2.772
  351SOL    HW1 1066   0.570   1.642   2.781
  351SOL    HW2 1067   0.548   1.489   2.730
  352SOL     OW 1068   1.002   0.796   3.100
  352SOL    HW1 1069   1.043   0.764   3.186
  352SOL    HW2 1070   0.906   0.769   3.097
  353SOL     OW 1071   0.040   0.544   2.976
  353SOL    HW1 1072   0.125   0.511   2.935
  353SOL    HW2 1073   0.053   0.559   3.074
  354SOL     OW 1074   0.189   0.520   3.584
  354SOL    HW1 1075   0.248   0.480   3.514
  354SOL    HW2 1076   0.131   0.591   3.543
  355SOL     OW 1077   1.369   0.950   3.522
  355SOL    HW1 1078   1.408   1.039   3.542
  355SOL    HW2 1079   1.379   0.930   3.425
  356SOL     OW 1080   0.815   0.572   2.187
  356SOL    HW1 1081   0.822   0.483   2.141
  356SOL    HW2 1082   0.721   0.606   2.179
  357SOL     OW 1083   1.657   0.604   3.068
  357SOL    HW1 1084   1.619   0.535   3.130
  357SOL    HW2 1085   1.739   0.568   3.024
  358SOL     OW 1086   0.252   1.564   3.606
  358SOL    HW1 1087   0.222   1.621   3.682
  358SOL    HW2 1088   0.245   1.467   3.632
  359SOL     OW 1089   0.671   0.464   3.131
  359SOL    HW1 1090   0.637   0.375   3.101
  359SOL    HW2 1091   0.697   0.518   3.051
  360SOL     OW 1092   0.930   1.678   3.327
  360SOL    HW1 1093   0.906   1.660   3.232
  360SOL    HW2 1094   0.960   1.772   3.337
  361SOL     OW 1095   0.473   0.500   2.053
  361SOL    HW1 1096   0.534   0.580   2.057
  361SOL    HW2 1097   0.378   0.531   2.060
  362SOL     OW 1098   0.159   1.137   3.328
  362SOL    HW1 1099   0.181   1.076   3.404
  362SOL    HW2 1100   0.169   1.088   3.242
  363SOL     OW 1101   1.347   1.059   3.096
  363SOL    HW1 1102   1.371   0.996   3.022
  363SOL    HW2 1103   1.257   1.099   3.078
  364SOL     OW 1104   1.302   0.855   2.171
  364SOL    HW1 1105   1.216   0.824   2.213
  364SOL    HW2 1106   1.298   0.841   2.072
  365SOL     OW 1107   1.759   1.747   3.016
  365SOL    HW1 1108   1.820   1.777   2.943
  365SOL    HW2 1109   1.721   1.658   2.994
  366SOL     OW 1110   1.252   1.731   2.990
  366SOL    HW1 1111   1.336   1.736   2.936
  366SOL    HW2 1112   1.229   1.635   3.008
  367SOL     OW 1113   0.083   1.258   2.884
  367SOL    HW1 1114   0.078   1.257   2.984
  367SOL    HW2 1115   0.000   1.217   2.846
  368SOL     OW 1116   0.688   1.662   3.578
  368SOL    HW1 1117   0.632   1.743   3.587
  368SOL    HW2 1118   0.740   1.666   3.492
  369SOL     OW 1119   1.726   0.135   2.385
  369SOL    HW1 1120   1.799   0.118   2.318
  369SOL    HW2 1121   1.695   0.048   2.423
  370SOL     OW 1122   1.388   1.573   2.339
  370SOL    HW1 1123   1.455   1.585   2.265
  370SOL    HW2 1124   1.348   1.662   2.362
  371SOL     OW 1125   0.130   1.794   3.713
  371SOL    HW1 1126   0.089   1.720   3.766
  371SOL    HW2 1127   0.194   1.845   3.771
  372SOL     OW 1128   1.280   0.927   2.534
  372SOL    HW1 1129   1.340   0.846   2.536
  372SOL    HW2 1130   1.320   0.996   2.474
  373SOL     OW 1131   0.830   1.273   3.284
  373SOL    HW1 1132   0.825   1.306   3.379
  373SOL    HW2 1133   0.744   1.292   3.238
  374SOL     OW 1134   0.672   1.616   2.016
  374SOL    HW1 1135   0.681   1.626   1.917
  374SOL    HW2 1136   0.632   1.527   2.037
  375SOL     OW 1137   1.650   1.720   3.256
  375SOL    HW1 1138   1.703   1.730   3.172
  375SOL    HW2 1139   1.623   1.810   3.290
  376SOL     OW 1140   1.841   0.175   2.825
  376SOL    HW1 1141   1.880   0.090   2.789
  376SOL    HW2 1142   1.743   0.177   2.806
  377SOL     OW 1143   0.263   0.326   2.582
  377SOL    HW1 1144   0.184   0.377   2.548
  377SOL    HW2 1145   0.254   0.311   2.680
  378SOL     OW 1146   1.194   1.612   1.893
  378SOL    HW1 1147   1.200   1.519   1.930
  378SOL    HW2 1148   1.135   1.612   1.813
  379SOL     OW 1149   0.822   1.002   3.234
  379SOL    HW1 1150   0.862   1.001   3.142
  379SOL    HW2 1151   0.832   1.094   3.274
  380SOL     OW 1152   0.916   0.910   2.153
  380SOL    HW1 1153   0.979   0.948   2.085
  380SOL    HW2 1154   0.956   0.827   2.192
  381SOL     OW 1155   1.504   1.607   1.906
  381SOL    HW1 1156   1.412   1.644   1.913
  381SOL    HW2 1157   1.542   1.627   1.816
  382SOL     OW 1158   0.372   1.288   3.352
  382SOL    HW1 1159   0.359   1.381   3.318
  382SOL    HW2 1160   0.288   1.236   3.339
  383SOL     OW 1161   1.614   1.292   3.151
  383SOL    HW1 1162   1.674   1.295   3.231
  383SOL    HW2 1163   1.539   1.356   3.164
  384SOL     OW 1164   1.039   1.098   2.558
  384SOL    HW1 1165   0.969   1.051   2.612
  384SOL    HW2 1166   1.098   1.030   2.515
  385SOL     OW 1167   1.014   0.236   2.833
  385SOL    HW1 1168   1.006   0.200   2.740
  385SOL    HW2 1169   1.012   0.160   2.898
  386SOL     OW 1170   0.590   1.487   2.353
  386SOL    HW1 1171   0.632   1.429   2.283
  386SOL    HW2 1172   0.546   1.566   2.309
  387SOL     OW 1173   1.709   0.385   3.243
  387SOL    HW1 1174   1.782   0.454   3.247
  387SOL    HW2 1175   1.737   0.310   3.184
  388SOL     OW 1176   0.255   1.348   2.152
  388SOL    HW1 1177   0.159   1.349   2.125
  388SOL    HW2 1178   0.267   1.401   2.236
  389SOL     OW 1179   0.105   1.013   3.588
  389SOL    HW1 1180   0.028   0.980   3.642
  389SOL    HW2 1181   0.190   0.983   3.630
  390SOL     OW 1182   0.672   0.203   3.351
  390SOL    HW1 1183   0.762   0.187   3.311
  390SOL    HW2 1184   0.680   0.208   3.450
  391SOL     OW 1185   0.075   0.345   1.895
  391SOL    HW1 1186  -0.017   0.317   1.866
  391SOL    HW2 1187   0.106   0.422   1.839
  392SOL     OW 1188   1.440   0.856   3.260
  392SOL    HW1 1189   1.383   0.908   3.197
  392SOL    HW2 1190   1.536   0.868   3.236
  393SOL     OW 1191   0.072   0.166   2.180
  393SOL    HW1 1192   0.055   0.249   2.126
  393SOL    HW2 1193   0.162   0.129   2.158
  394SOL     OW 1194   1.183   1.335   1.981
  394SOL    HW1 1195   1.084   1.324   1.983
  394SOL    HW2 1196   1.217   1.350   2.074
  395SOL     OW 1197   0.613   0.842   3.293
  395SOL    HW1 1198   0.669   0.923   3.276
  395SOL    HW2 1199   0.672   0.762   3.296
  396SOL     OW 1200   1.493   1.767   2.821
  396SOL    HW1 1201   1.526   1.831   2.752
  396SOL    HW2 1202   1.559   1.761   2.896
  397SOL     OW 1203   0.716   0.565   3.570
  397SOL    HW1 1204   0.735   0.630   3.644
  397SOL    HW2 1205   0.776   0.485   3.579
  398SOL     OW 1206   1.450   1.220   3.495
  398SOL    HW1 1207   1.441   1.210   3.594
  398SOL    HW2 1208   1.546   1.213   3.469
  399SOL     OW 1209   0.390   1.741   3.422
  399SOL    HW1 1210   0.299   1.782   3.420
  399SOL    HW2 1211   0.383   1.647   3.454
  400SOL     OW 1212   1.674   0.883   3.116
  400SOL    HW1 1213   1.647   0.794   3.079
  400SOL    HW2 1214   1.675   0.951   3.043
  401SOL     OW 1215   1.225   0.325   2.311
  401SOL    HW1 1216   1.290   0.251   2.300
  401SOL    HW2 1217   1.245   0.375   2.395
  402SOL     OW 1218   0.594   0.745   2.514
  402SOL    HW1 1219   0.644   0.830   2.495
  402SOL    HW2 1220   0.506   0.747   2.466
  403SOL     OW 1221   1.777   0.342   3.504
  403SOL    HW1 1222   1.760   0.373   3.410
  403SOL    HW2 1223   1.693   0.305   3.542
  404SOL     OW 1224   1.730   0.934   3.379
  404SOL    HW1 1225   1.768   1.025   3.394
  404SOL    HW2 1226   1.722   0.917   3.280
  405SOL     OW 1227   0.859   1.374   1.878
  405SOL    HW1 1228   0.813   1.389   1.966
  405SOL    HW2 1229   0.903   1.459   1.848
  406SOL     OW 1230   0.661   1.790   2.815
  406SOL    HW1 1231   0.615   1.878   2.802
  406SOL    HW2 1232   0.760   1.802   2.808
  407SOL     OW 1233   0.859   0.956   2.723
  407SOL    HW1 1234   0.913   0.887   2.771
  407SOL    HW2 1235   0.827   1.025   2.789
  408SOL     OW 1236   1.083   0.984   1.949
  408SOL    HW1 1237   1.060   1.037   1.867
  408SOL    HW2 1238   1.164   0.928   1.930
  409SOL     OW 1239   1.861   1.569   2.713
  409SOL    HW1 1240   1.790   1.557   2.643
  409SOL    HW2 1241   1.862   1.490   2.773
  410SOL     OW 1242   0.221   1.314   3.706
  410SOL    HW1 1243   0.156   1.241   3.685
  410SOL    HW2 1244   0.225   1.328   3.804
  411SOL     OW 1245   0.079   1.240   2.515
  411SOL    HW1 1246   0.078   1.193   2.603
  411SOL    HW2 1247   0.161   1.212   2.464
  412SOL     OW 1248   0.672   1.391   3.486
  412SOL    HW1 1249   0.594   1.341   3.524
  412SOL    HW2 1250   0.669   1.486   3.517
  413SOL     OW 1251   1.824   0.192   3.089
  413SOL    HW1 1252   1.820   0.102   3.133
  413SOL    HW2 1253   1.827   0.181   2.990
  414SOL     OW 1254   0.428   0.424   2.382
  414SOL    HW1 1255   0.458   0.352   2.320
  414SOL    HW2 1256   0.389   0.384   2.465
  415SOL     OW 1257   1.705   1.487   2.966
  415SOL    HW1 1258   1.612   1.462   2.939
  415SOL    HW2 1259   1.731   1.437   3.048
  416SOL     OW 1260   0.317   0.547   3.142
  416SOL    HW1 1261   0.355   0.488   3.214
  416SOL    HW2 1262   0.357   0.521   3.054
  417SOL     OW 1263   0.812   1.586   2.549
  417SOL    HW1 1264   0.844   1.596   2.455
  417SOL    HW2 1265   0.733   1.524   2.551
  418SOL     OW 1266   1.424   0.214   2.974
  418SOL    HW1 1267   1.476   0.149   3.029
  418SOL    HW2 1268   1.375   0.277   3.035
  419SOL     OW 1269   1.001   0.034   3.016
  419SOL    HW1 1270   0.938  -0.038   2.985
  419SOL    HW2 1271   1.094  -0.002   3.016
  420SOL     OW 1272   0.770   1.330   2.163
  420SOL    HW1 1273   0.724   1.243   2.180
  420SOL    HW2 1274   0.861   1.327   2.204
  421SOL     OW 1275   0.618   1.567   3.146
  421SOL    HW1 1276   0.613   1.649   3.203
  421SOL    HW2 1277   0.707   1.564   3.101
  422SOL     OW 1278   1.352   0.052   2.030
  422SOL    HW1 1279   1.387   0.011   1.946
  422SOL    HW2 1280   1.262   0.014   2.050
  423SOL     OW 1281   1.300   0.453   2.553
  423SOL    HW1 1282   1.241   0.533   2.557
  423SOL    HW2 1283   1.315   0.418   2.646
  424SOL     OW 1284   1.593   0.221   2.744
  424SOL    HW1 1285   1.509   0.220   2.798
  424SOL    HW2 1286   1.595   0.304   2.688
  425SOL     OW 1287   0.039   1.077   2.162
  425SOL    HW1 1288   0.138   1.066   2.153
  425SOL    HW2 1289  -0.001   0.991   2.194
  426SOL     OW 1290   0.875   1.646   2.199
  426SOL    HW1 1291   0.798   1.611   2.145
  426SOL    HW2 1292   0.843   1.717   2.261
  427SOL     OW 1293   0.230   0.628   3.837
  427SOL    HW1 1294   0.137   0.626   3.874
  427SOL    HW2 1295   0.231   0.589   3.745
  428SOL     OW 1296   0.225   0.275   4.720
  428SOL    HW1 1297   0.260   0.258   4.812
  428SOL    HW2 1298   0.137   0.230   4.708
  429SOL     OW 1299   0.019   0.368   4.371
  429SOL    HW1 1300  -0.063   0.411   4.410
  429SOL    HW2 1301  -0.009   0.295   4.308
  430SOL     OW 1302   1.555   1.511   4.427
  430SOL    HW1 1303   1.498   1.495   4.508
  430SOL    HW2 1304   1.496   1.521   4.347
  431SOL     OW 1305   1.135   0.703   4.441
  431SOL    HW1 1306   1.192   0.781   4.416
  431SOL    HW2 1307   1.075   0.729   4.517
  432SOL     OW 1308   1.755   0.607   3.955
  432SOL    HW1 1309   1.743   0.594   3.856
  432SOL    HW2 1310   1.725   0.526   4.004
  433SOL     OW 1311   0.768   1.144   4.747
  433SOL    HW1 1312   0.690   1.161   4.807
  433SOL    HW2 1313   0.802   1.231   4.711
  434SOL     OW 1314   0.685   1.012   4.389
  434SOL    HW1 1315   0.754   0.996   4.459
  434SOL    HW2 1316   0.612   1.069   4.427
  435SOL     OW 1317   0.335   1.435   4.785
  435SOL    HW1 1318   0.257   1.404   4.732
  435SOL    HW2 1319   0.393   1.493   4.728
  436SOL     OW 1320   1.603   0.447   4.461
  436SOL    HW1 1321   1.529   0.493   4.411
  436SOL    HW2 1322   1.654   0.515   4.514
  437SOL     OW 1323   0.231   1.713   4.207
  437SOL    HW1 1324   0.265   1.790   4.261
  437SOL    HW2 1325   0.275   1.713   4.117
  438SOL     OW 1326   0.230   1.434   4.262
  438SOL    HW1 1327   0.204   1.530   4.262
  438SOL    HW2 1328   0.159   1.380   4.307
  439SOL     OW 1329   0.240   1.091   4.610
  439SOL    HW1 1330   0.254   1.007   4.662
  439SOL    HW2 1331   0.185   1.155   4.665
  440SOL     OW 1332   0.606   0.964   3.847
  440SOL    HW1 1333   0.613   1.048   3.793
  440SOL    HW2 1334   0.652   0.977   3.935
  441SOL     OW 1335   0.122   0.643   4.287
  441SOL    HW1 1336   0.077   0.555   4.304
  441SOL    HW2 1337   0.121   0.697   4.371
  442SOL     OW 1338   1.842   1.767   4.083
  442SOL    HW1 1339   1.896   1.738   4.163
  442SOL    HW2 1340   1.872   1.857   4.054
  443SOL     OW 1341   0.027   1.596   3.841
  443SOL    HW1 1342   0.008   1.500   3.862
  443SOL    HW2 1343  -0.006   1.654   3.916
  444SOL     OW 1344   1.689   0.922   4.336
  444SOL    HW1 1345   1.784   0.893   4.344
  444SOL    HW2 1346   1.681   0.987   4.261
  445SOL     OW 1347   1.641   1.108   4.156
  445SOL    HW1 1348   1.727   1.110   4.104
  445SOL    HW2 1349   1.655   1.155   4.244
  446SOL     OW 1350   0.613   1.365   4.450
  446SOL    HW1 1351   0.564   1.278   4.459
  446SOL    HW2 1352   0.590   1.408   4.363
  447SOL     OW 1353   0.809   0.004   4.226
  447SOL    HW1 1354   0.849   0.095   4.217
  447SOL    HW2 1355   0.709   0.012   4.232
  448SOL     OW 1356   1.525   0.999   3.914
  448SOL    HW1 1357   1.462   0.923   3.927
  448SOL    HW2 1358   1.573   1.017   4.000
  449SOL     OW 1359   1.466   1.417   4.677
  449SOL    HW1 1360   1.407   1.423   4.757
  449SOL    HW2 1361   1.451   1.329   4.631
  450SOL     OW 1362   1.667   1.714   4.296
  450SOL    HW1 1363   1.626   1.691   4.208
  450SOL    HW2 1364   1.649   1.640   4.361
  451SOL     OW 1365   0.598   0.729   3.994
  451SOL    HW1 1366   0.622   0.798   3.926
  451SOL    HW2 1367   0.520   0.762   4.048
  452SOL     OW 1368   1.281   0.345   4.668
  452SOL    HW1 1369   1.195   0.295   4.655
  452SOL    HW2 1370   1.343   0.291   4.724
  453SOL     OW 1371   1.576   1.662   4.031
  453SOL    HW1 1372   1.665   1.708   4.034
  453SOL    HW2 1373   1.555   1.638   3.936
  454SOL     OW 1374   1.041   0.701   4.153
  454SOL    HW1 1375   1.067   0.697   4.249
  454SOL    HW2 1376   0.956   0.650   4.139
  455SOL     OW 1377   0.076   0.811   4.513
  455SOL    HW1 1378   0.175   0.799   4.522
  455SOL    HW2 1379   0.052   0.906   4.534
  456SOL     OW 1380   0.865   0.348   3.919
  456SOL    HW1 1381   0.924   0.411   3.870
  456SOL    HW2 1382   0.884   0.254   3.890
  457SOL     OW 1383   1.362   1.144   4.269
  457SOL    HW1 1384   1.445   1.115   4.221
  457SOL    HW2 1385   1.313   1.211   4.213
  458SOL     OW 1386   0.550   0.196   4.609
  458SOL    HW1 1387   0.545   0.191   4.709
  458SOL    HW2 1388   0.552   0.292   4.580
  459SOL     OW 1389   1.008   1.456   4.201
  459SOL    HW1 1390   0.962   1.528   4.149
  459SOL    HW2 1391   1.004   1.476   4.299
  460SOL     OW 1392   0.351   1.801   4.577
  460SOL    HW1 1393   0.401   1.715   4.583
  460SOL    HW2 1394   0.416   1.878   4.574
  461SOL     OW 1395   1.795   1.066   4.597
  461SOL    HW1 1396   1.733   1.051   4.521
  461SOL    HW2 1397   1.743   1.077   4.682
  462SOL     OW 1398   0.321   0.943   3.966
  462SOL    HW1 1399   0.403   0.982   3.924
  462SOL    HW2 1400   0.294   0.861   3.917
  463SOL     OW 1401   1.458   0.735   4.452
  463SOL    HW1 1402   1.453   0.670   4.527
  463SOL    HW2 1403   1.538   0.794   4.465
  464SOL     OW 1404   1.111   1.776   3.961
  464SOL    HW1 1405   1.051   1.714   4.011
  464SOL    HW2 1406   1.142   1.732   3.876
  465SOL     OW 1407   1.632   1.377   3.805
  465SOL    HW1 1408   1.600   1.471   3.795
  465SOL    HW2 1409   1.556   1.314   3.793
  466SOL     OW 1410   0.464   1.743   4.047
  466SOL    HW1 1411   0.497   1.782   4.133
  466SOL    HW2 1412   0.540   1.736   3.982
  467SOL     OW 1413   1.400   0.107   4.150
  467SOL    HW1 1414   1.376   0.070   4.060
  467SOL    HW2 1415   1.499   0.123   4.154
  468SOL     OW 1416   0.249   1.785   4.965
  468SOL    HW1 1417   0.306   1.720   5.015
  468SOL    HW2 1418   0.233   1.752   4.872
  469SOL     OW 1419   0.940   1.698   4.628
  469SOL    HW1 1420   1.020   1.641   4.649
  469SOL    HW2 1421   0.891   1.658   4.551
  470SOL     OW 1422   0.382   0.700   4.204
  470SOL    HW1 1423   0.427   0.610   4.201
  470SOL    HW2 1424   0.288   0.689   4.237
  471SOL     OW 1425   0.614   0.122   3.841
  471SOL    HW1 1426   0.712   0.100   3.848
  471SOL    HW2 1427   0.583   0.105   3.748
  472SOL     OW 1428   0.922   0.503   4.623
  472SOL    HW1 1429   0.897   0.494   4.527
  472SOL    HW2 1430   0.970   0.421   4.654
  473SOL     OW 1431   0.539   0.064   4.236
  473SOL    HW1 1432   0.458   0.065   4.294
  473SOL    HW2 1433   0.542   0.147   4.181
  474SOL     OW 1434   1.434   1.188   3.765
  474SOL    HW1 1435   1.466   1.112   3.822
  474SOL    HW2 1436   1.342   1.215   3.795
  475SOL     OW 1437   0.297   0.035   3.895
  475SOL    HW1 1438   0.346   0.119   3.874
  475SOL    HW2 1439   0.359  -0.030   3.940
  476SOL     OW 1440   0.935   0.236   4.204
  476SOL    HW1 1441   0.887   0.277   4.126
  476SOL    HW2 1442   1.034   0.234   4.185
  477SOL     OW 1443   1.227   1.570   4.517
  477SOL    HW1 1444   1.248   1.644   4.452
  477SOL    HW2 1445   1.295   1.570   4.590
  478SOL     OW 1446   0.459   1.152   4.465
  478SOL    HW1 1447   0.388   1.125   4.530
  478SOL    HW2 1448   0.433   1.124   4.372
  479SOL     OW 1449   1.271   1.797   4.315
  479SOL    HW1 1450   1.315   1.861   4.251
  479SOL    HW2 1451   1.221   1.849   4.385
  480SOL     OW 1452   1.032   0.549   3.740
  480SOL    HW1 1453   0.991   0.631   3.701
  480SOL    HW2 1454   1.096   0.575   3.813
  481SOL     OW 1455   0.866   0.454   4.366
  481SOL    HW1 1456   0.834   0.526   4.304
  481SOL    HW2 1457   0.890   0.373   4.313
  482SOL     OW 1458   1.017   0.039   4.477
  482SOL    HW1 1459   0.945   0.044   4.408
  482SOL    HW2 1460   0.993  -0.030   4.546
  483SOL     OW 1461   1.429   1.173   4.591
  483SOL    HW1 1462   1.374   1.089   4.584
  483SOL    HW2 1463   1.455   1.202   4.499
  484SOL     OW 1464   1.857   0.833   4.101
  484SOL    HW1 1465   1.899   0.769   4.165
  484SOL    HW2 1466   1.819   0.782   4.023
  485SOL     OW 1467   0.488   1.385   3.898
  485SOL    HW1 1468   0.401   1.370   3.945
  485SOL    HW2 1469   0.471   1.411   3.803
  486SOL     OW 1470   1.664   1.280   4.381
  486SOL    HW1 1471   1.763   1.288   4.395
  486SOL    HW2 1472   1.619   1.364   4.412
  487SOL     OW 1473   1.390   0.575   3.802
  487SOL    HW1 1474   1.336   0.554   3.883
  487SOL    HW2 1475   1.481   0.534   3.811
  488SOL     OW 1476   0.527   0.256   4.052
  488SOL    HW1 1477   0.554   0.197   3.977
  488SOL    HW2 1478   0.527   0.351   4.021
  489SOL     OW 1479   1.638   1.099   4.803
  489SOL    HW1 1480   1.643   1.180   4.862
  489SOL    HW2 1481   1.552   1.101   4.752
  490SOL     OW 1482   0.705   1.050   4.092
  490SOL    HW1 1483   0.691   1.057   4.191
  490SOL    HW2 1484   0.789   0.999   4.074
  491SOL     OW 1485   0.367   1.100   4.225
  491SOL    HW1 1486   0.360   1.183   4.169
  491SOL    HW2 1487   0.371   1.020   4.165
  492SOL     OW 1488   0.566   0.537   4.589
  492SOL    HW1 1489   0.578   0.603   4.515
  492SOL    HW2 1490   0.612   0.571   4.672
  493SOL     OW 1491   1.252   1.348   4.112
  493SOL    HW1 1492   1.302   1.425   4.152
  493SOL    HW2 1493   1.157   1.350   4.144
  494SOL     OW 1494   1.582   0.639   4.196
  494SOL    HW1 1495   1.551   0.700   4.269
  494SOL    HW2 1496   1.632   0.691   4.127
  495SOL     OW 1497   0.573   0.870   4.753
  495SOL    HW1 1498   0.617   0.959   4.744
  495SOL    HW2 1499   0.510   0.870   4.830
  496SOL     OW 1500   1.209   0.525   3.999
  496SOL    HW1 1501   1.222   0.441   4.053
  496SOL    HW2 1502   1.180   0.599   4.059
  497SOL     OW 1503   0.732   0.634   4.788
  497SOL    HW1 1504   0.791   0.608   4.712
  497SOL    HW2 1505   0.704   0.730   4.777
  498SOL     OW 1506   0.307   0.063   4.342
  498SOL    HW1 1507   0.296   0.157   4.375
  498SOL    HW2 1508   0.302   0.000   4.419
  499SOL     OW 1509   1.622   0.367   4.098
  499SOL    HW1 1510   1.624   0.291   4.162
  499SOL    HW2 1511   1.574   0.444   4.138
  500SOL     OW 1512   1.540   0.274   3.849
  500SOL    HW1 1513   1.479   0.199   3.872
  500SOL    HW2 1514   1.562   0.326   3.932
  501SOL     OW 1515   1.303   0.838   3.766
  501SOL    HW1 1516   1.337   0.745   3.781
  501SOL    HW2 1517   1.321   0.865   3.671
  502SOL     OW 1518   1.068   1.333   4.573
  502SOL    HW1 1519   1.075   1.249   4.518
  502SOL    HW2 1520   1.130   1.402   4.537
  503SOL     OW 1521   0.319   0.810   4.673
  503SOL    HW1 1522   0.412   0.846   4.678
  503SOL    HW2 1523   0.313   0.725   4.725
  504SOL     OW 1524   0.339   0.509   4.730
  504SOL    HW1 1525   0.287   0.426   4.713
  504SOL    HW2 1526   0.416   0.514   4.666
  505SOL     OW 1527   0.008   1.326   3.924
  505SOL    HW1 1528  -0.085   1.347   3.893
  505SOL    HW2 1529   0.018   1.227   3.937
  506SOL     OW 1530   0.088   1.801   4.651
  506SOL    HW1 1531   0.046   1.715   4.624
  506SOL    HW2 1532   0.182   1.804   4.617
  507SOL     OW 1533   0.504   1.568   4.634
  507SOL    HW1 1534   0.570   1.642   4.643
  507SOL    HW2 1535   0.548   1.489   4.592
  508SOL     OW 1536   0.815   0.572   4.049
  508SOL    HW1 1537   0.822   0.483   4.003
  508SOL    HW2 1538   0.721   0.606   4.041
  509SOL     OW 1539   0.671   0.464   4.993
  509SOL    HW1 1540   0.637   0.375   4.963
  509SOL    HW2 1541   0.697   0.518   4.913
  510SOL     OW 1542   0.473   0.500   3.915
  510SOL    HW1 1543   0.534   0.580   3.919
  510SOL    HW2 1544   0.378   0.531   3.922
  511SOL     OW 1545   1.302   0.855   4.033
  511SOL    HW1 1546   1.216   0.824   4.075
  511SOL    HW2 1547   1.298   0.841   3.934
  512SOL     OW 1548   1.759   1.747   4.878
  512SOL    HW1 1549   1.820   1.777   4.805
  512SOL    HW2 1550   1.721   1.658   4.856
  513SOL     OW 1551   0.083   1.258   4.746
  513SOL    HW1 1552   0.078   1.257   4.846
  513SOL    HW2 1553   0.000   1.217   4.708
  514SOL     OW 1554   1.726   0.135   4.247
  514SOL    HW1 1555   1.799   0.118   4.180
  514SOL    HW2 1556   1.695   0.048   4.285
  515SOL     OW 1557   1.388   1.573   4.201
  515SOL    HW1 1558   1.455   1.585   4.127
  515SOL    HW2 1559   1.348   1.662   4.224
  516SOL     OW 1560   1.280   0.927   4.396
  516SOL    HW1 1561   1.340   0.846   4.398
  516SOL    HW2 1562   1.320   0.996   4.336
  517SOL     OW 1563   0.672   1.616   3.878
  517SOL    HW1 1564   0.681   1.626   3.779
  517SOL    HW2 1565   0.632   1.527   3.899
  518SOL     OW 1566   1.841   0.175   4.687
  518SOL    HW1 1567   1.880   0.090   4.651
  518SOL    HW2 1568   1.743   0.177   4.668
  519SOL     OW 1569   0.263   0.326   4.444
  519SOL    HW1 1570   0.184   0.377   4.410
  519SOL    HW2 1571   0.254   0.311   4.542
  520SOL     OW 1572   1.194   1.612   3.755
  520SOL    HW1 1573   1.200   1.519   3.792
  520SOL    HW2 1574   1.135   1.612   3.675
  521SOL     OW 1575   0.916   0.910   4.015
  521SOL    HW1 1576   0.979   0.948   3.947
  521SOL    HW2 1577   0.956   0.827   4.054
  522SOL     OW 1578   1.504   1.607   3.768
  522SOL    HW1 1579   1.412   1.644   3.775
  522SOL    HW2 1580   1.542   1.627   3.678
  523SOL     OW 1581   1.039   1.098   4.420
  523SOL    HW1 1582   0.969   1.051   4.474
  523SOL    HW2 1583   1.098   1.030   4.377
  524SOL     OW 1584   0.590   1.487   4.215
  524SOL    HW1 1585   0.632   1.429   4.145
  524SOL    HW2 1586   0.546   1.566   4.171
  525SOL     OW 1587   0.255   1.348   4.014
  525SOL    HW1 1588   0.159   1.349   3.987
  525SOL    HW2 1589   0.267   1.401   4.098
  526SOL     OW 1590   0.075   0.345   3.757
  526SOL    HW1 1591  -0.017   0.317   3.728
  526SOL    HW2 1592   0.106   0.422   3.701
  527SOL     OW 1593   0.072   0.166   4.042
  527SOL    HW1 1594   0.055   0.249   3.988
  527SOL    HW2 1595   0.162   0.129   4.020
  528SOL     OW 1596   1.183   1.335   3.843
  528SOL    HW1 1597   1.084   1.324   3.845
  528SOL    HW2 1598   1.217   1.350   3.936
  529SOL     OW 1599   1.674   0.883   4.978
  529SOL    HW1 1600   1.647   0.794   4.941
  529SOL    HW2 1601   1.675   0.951   4.905
  530SOL     OW 1602   1.225   0.325   4.173
  530SOL    HW1 1603   1.290   0.251   4.162
  530SOL    HW2 1604   1.245   0.375   4.257
  531SOL     OW 1605   0.594   0.745   4.376
  531SOL    HW1 1606   0.644   0.830   4.357
  531SOL    HW2 1607   0.506   0.747   4.328
  532SOL     OW 1608   0.859   1.374   3.740
  532SOL    HW1 1609   0.813   1.389   3.828
  532SOL    HW2 1610   0.903   1.459   3.710
  533SOL     OW 1611   0.661   1.790   4.677
  533SOL    HW1 1612   0.615   1.878   4.664
  533SOL    HW2 1613   0.760   1.802   4.670
  534SOL     OW 1614   0.859   0.956   4.585
  534SOL    HW1 1615   0.913   0.887   4.633
  534SOL    HW2 1616   0.827   1.025   4.651
  535SOL     OW 1617   1.083   0.984   3.811
  535SOL    HW1 1618   1.060   1.037   3.729
  535SOL    HW2 1619   1.164   0.928   3.792
  536SOL     OW 1620   1.861   1.569   4.575
  536SOL    HW1 1621   1.790   1.557   4.505
  536SOL    HW2 1622   1.862   1.490   4.635
  537SOL     OW 1623   0.079   1.240   4.377
  537SOL    HW1 1624   0.078   1.193   4.465
  537SOL    HW2 1625   0.161   1.212   4.326
  538SOL     OW 1626   1.824   0.192   4.951
  538SOL    HW1 1627   1.820   0.102   4.995
  538SOL    HW2 1628   1.827   0.181   4.852
  539SOL     OW 1629   0.428   0.424   4.244
  539SOL    HW1 1630   0.458   0.352   4.182
  539SOL    HW2 1631   0.389   0.384   4.327
  540SOL     OW 1632   0.812   1.586   4.411
  540SOL    HW1 1633   0.844   1.596   4.317
  540SOL    HW2 1634   0.733   1.524   4.413
  541SOL     OW 1635   0.770   1.330   4.025
  541SOL    HW1 1636   0.724   1.243   4.042
  541SOL    HW2 1637   0.861   1.327   4.066
  542SOL     OW 1638   1.352   0.052   3.892
  542SOL    HW1 1639   1.387   0.011   3.808
  542SOL    HW2 1640   1.262   0.014   3.912
  543SOL     OW 1641   1.300   0.453   4.415
  543SOL    HW1 1642   1.241   0.533   4.419
  543SOL    HW2 1643   1.315   0.418   4.508
  544SOL     OW 1644   1.593   0.221   4.606
  544SOL    HW1 1645   1.509   0.220   4.660
  544SOL    HW2 1646   1.595   0.304   4.550
  545SOL     OW 1647   0.039   1.077   4.024
  545SOL    HW1 1648   0.138   1.066   4.015
  545SOL    HW2 1649  -0.001   0.991   4.056
  546SOL     OW 1650   0.875   1.646   4.061
  546SOL    HW1 1651   0.798   1.611   4.007
  546SOL    HW2 1652   0.843   1.717   4.123
  547SOL     OW 1653   0.230   2.490   0.113
  547SOL    HW1 1654   0.137   2.488   0.150
  547SOL    HW2 1655   0.231   2.451   0.021
  548SOL     OW 1656   0.225   2.137   0.996
  548SOL    HW1 1657   0.260   2.120   1.088
  548SOL    HW2 1658   0.137   2.092   0.984
  549SOL     OW 1659   0.019   2.230   0.647
  549SOL    HW1 1660  -0.063   2.273   0.686
  549SOL    HW2 1661  -0.009   2.157   0.584
  550SOL     OW 1662   0.569   3.137   1.165
  550SOL    HW1 1663   0.476   3.130   1.128
  550SOL    HW2 1664   0.580   3.226   1.209
  551SOL     OW 1665   1.555   3.373   0.703
  551SOL    HW1 1666   1.498   3.357   0.784
  551SOL    HW2 1667   1.496   3.383   0.623
  552SOL     OW 1668   1.135   2.565   0.717
  552SOL    HW1 1669   1.192   2.643   0.692
  552SOL    HW2 1670   1.075   2.591   0.793
  553SOL     OW 1671   1.755   2.469   0.231
  553SOL    HW1 1672   1.743   2.456   0.132
  553SOL    HW2 1673   1.725   2.388   0.280
  554SOL     OW 1674   0.768   3.006   1.023
  554SOL    HW1 1675   0.690   3.023   1.083
  554SOL    HW2 1676   0.802   3.093   0.987
  555SOL     OW 1677   0.850   2.660   1.823
  555SOL    HW1 1678   0.846   2.736   1.888
  555SOL    HW2 1679   0.872   2.696   1.732
  556SOL     OW 1680   0.685   2.874   0.665
  556SOL    HW1 1681   0.754   2.858   0.735
  556SOL    HW2 1682   0.612   2.931   0.703
  557SOL     OW 1683   0.686   3.023   1.803
  557SOL    HW1 1684   0.746   3.102   1.817
  557SOL    HW2 1685   0.600   3.054   1.762
  558SOL     OW 1686   0.335   3.297   1.061
  558SOL    HW1 1687   0.257   3.266   1.008
  558SOL    HW2 1688   0.393   3.355   1.004
  559SOL     OW 1689   1.460   3.367   1.339
  559SOL    HW1 1690   1.484   3.461   1.365
  559SOL    HW2 1691   1.444   3.313   1.421
  560SOL     OW 1692   0.438   2.254   1.499
  560SOL    HW1 1693   0.520   2.198   1.508
  560SOL    HW2 1694   0.357   2.196   1.503
  561SOL     OW 1695   1.603   2.309   0.737
  561SOL    HW1 1696   1.529   2.355   0.687
  561SOL    HW2 1697   1.654   2.377   0.790
  562SOL     OW 1698   0.231   3.575   0.483
  562SOL    HW1 1699   0.265   3.652   0.537
  562SOL    HW2 1700   0.275   3.575   0.393
  563SOL     OW 1701   1.127   3.203   1.690
  563SOL    HW1 1702   1.174   3.203   1.778
  563SOL    HW2 1703   1.079   3.116   1.679
  564SOL     OW 1704   0.230   3.296   0.538
  564SOL    HW1 1705   0.204   3.392   0.538
  564SOL    HW2 1706   0.159   3.242   0.583
  565SOL     OW 1707   0.240   2.953   0.886
  565SOL    HW1 1708   0.254   2.869   0.938
  565SOL    HW2 1709   0.185   3.017   0.941
  566SOL     OW 1710   0.620   3.648   1.439
  566SOL    HW1 1711   0.528   3.631   1.474
  566SOL    HW2 1712   0.648   3.740   1.465
  567SOL     OW 1713   0.606   2.826   0.123
  567SOL    HW1 1714   0.613   2.910   0.069
  567SOL    HW2 1715   0.652   2.839   0.211
  568SOL     OW 1716   1.594   1.976   1.480
  568SOL    HW1 1717   1.576   2.043   1.408
  568SOL    HW2 1718   1.591   2.022   1.569
  569SOL     OW 1719   0.122   2.505   0.563
  569SOL    HW1 1720   0.077   2.417   0.580
  569SOL    HW2 1721   0.121   2.559   0.647
  570SOL     OW 1722   1.842   3.629   0.359
  570SOL    HW1 1723   1.896   3.600   0.439
  570SOL    HW2 1724   1.872   3.719   0.330
  571SOL     OW 1725   0.027   3.458   0.117
  571SOL    HW1 1726   0.008   3.362   0.138
  571SOL    HW2 1727  -0.006   3.516   0.192
  572SOL     OW 1728   1.689   2.784   0.612
  572SOL    HW1 1729   1.784   2.755   0.620
  572SOL    HW2 1730   1.681   2.849   0.537
  573SOL     OW 1731   1.641   2.970   0.432
  573SOL    HW1 1732   1.727   2.972   0.380
  573SOL    HW2 1733   1.655   3.017   0.520
  574SOL     OW 1734   0.113   2.599   1.597
  574SOL    HW1 1735   0.201   2.586   1.642
  574SOL    HW2 1736   0.100   2.696   1.575
  575SOL     OW 1737   0.613   3.227   0.726
  575SOL    HW1 1738   0.564   3.140   0.735
  575SOL    HW2 1739   0.590   3.270   0.639
  576SOL     OW 1740   1.293   3.090   1.423
  576SOL    HW1 1741   1.330   3.017   1.365
  576SOL    HW2 1742   1.345   3.095   1.508
  577SOL     OW 1743   0.809   1.866   0.502
  577SOL    HW1 1744   0.849   1.957   0.493
  577SOL    HW2 1745   0.709   1.874   0.508
  578SOL     OW 1746   0.197   2.838   1.264
  578SOL    HW1 1747   0.286   2.793   1.250
  578SOL    HW2 1748   0.124   2.773   1.245
  579SOL     OW 1749   1.525   2.861   0.190
  579SOL    HW1 1750   1.462   2.785   0.203
  579SOL    HW2 1751   1.573   2.879   0.276
  580SOL     OW 1752   1.187   3.654   1.616
  580SOL    HW1 1753   1.211   3.714   1.540
  580SOL    HW2 1754   1.194   3.559   1.586
  581SOL     OW 1755   0.317   2.113   1.801
  581SOL    HW1 1756   0.388   2.184   1.807
  581SOL    HW2 1757   0.229   2.152   1.829
  582SOL     OW 1758   1.466   3.279   0.953
  582SOL    HW1 1759   1.407   3.285   1.033
  582SOL    HW2 1760   1.451   3.191   0.907
  583SOL     OW 1761   1.667   3.576   0.572
  583SOL    HW1 1762   1.626   3.553   0.484
  583SOL    HW2 1763   1.649   3.502   0.637
  584SOL     OW 1764   0.598   2.591   0.270
  584SOL    HW1 1765   0.622   2.660   0.202
  584SOL    HW2 1766   0.520   2.624   0.324
  585SOL     OW 1767   1.281   2.207   0.944
  585SOL    HW1 1768   1.195   2.157   0.931
  585SOL    HW2 1769   1.343   2.153   1.000
  586SOL     OW 1770   1.576   3.524   0.307
  586SOL    HW1 1771   1.665   3.570   0.310
  586SOL    HW2 1772   1.555   3.500   0.212
  587SOL     OW 1773   0.807   2.467   1.465
  587SOL    HW1 1774   0.760   2.464   1.554
  587SOL    HW2 1775   0.756   2.412   1.399
  588SOL     OW 1776   1.394   2.331   1.674
  588SOL    HW1 1777   1.374   2.374   1.762
  588SOL    HW2 1778   1.472   2.269   1.683
  589SOL     OW 1779   0.973   2.752   1.572
  589SOL    HW1 1780   1.019   2.668   1.543
  589SOL    HW2 1781   0.917   2.786   1.497
  590SOL     OW 1782   0.991   2.272   1.242
  590SOL    HW1 1783   0.914   2.306   1.296
  590SOL    HW2 1784   0.957   2.221   1.163
  591SOL     OW 1785   1.041   2.563   0.429
  591SOL    HW1 1786   1.067   2.559   0.525
  591SOL    HW2 1787   0.956   2.512   0.415
  592SOL     OW 1788   0.076   2.673   0.789
  592SOL    HW1 1789   0.175   2.661   0.798
  592SOL    HW2 1790   0.052   2.768   0.810
  593SOL     OW 1791   0.130   3.683   1.571
  593SOL    HW1 1792   0.120   3.668   1.670
  593SOL    HW2 1793   0.044   3.719   1.535
  594SOL     OW 1794   0.865   2.210   0.195
  594SOL    HW1 1795   0.924   2.273   0.146
  594SOL    HW2 1796   0.884   2.116   0.166
  595SOL     OW 1797   1.719   2.447   1.831
  595SOL    HW1 1798   1.693   2.536   1.795
  595SOL    HW2 1799   1.717   2.379   1.758
  596SOL     OW 1800   1.362   3.006   0.545
  596SOL    HW1 1801   1.445   2.977   0.497
  596SOL    HW2 1802   1.313   3.073   0.489
  597SOL     OW 1803   0.550   2.058   0.885
  597SOL    HW1 1804   0.545   2.053   0.985
  597SOL    HW2 1805   0.552   2.154   0.856
  598SOL     OW 1806   1.008   3.318   0.477
  598SOL    HW1 1807   0.962   3.390   0.425
  598SOL    HW2 1808   1.004   3.338   0.575
  599SOL     OW 1809   0.351   3.663   0.853
  599SOL    HW1 1810   0.401   3.577   0.859
  599SOL    HW2 1811   0.416   3.740   0.850
  600SOL     OW 1812   1.795   2.928   0.873
  600SOL    HW1 1813   1.733   2.913   0.797
  600SOL    HW2 1814   1.743   2.939   0.958
  601SOL     OW 1815   1.227   3.412   1.506
  601SOL    HW1 1816   1.233   3.335   1.570
  601SOL    HW2 1817   1.175   3.386   1.426
  602SOL     OW 1818   0.321   2.805   0.242
  602SOL    HW1 1819   0.403   2.844   0.200
  602SOL    HW2 1820   0.294   2.723   0.193
  603SOL     OW 1821   1.458   2.597   0.728
  603SOL    HW1 1822   1.453   2.532   0.803
  603SOL    HW2 1823   1.538   2.656   0.741
  604SOL     OW 1824   0.461   3.128   1.727
  604SOL    HW1 1825   0.411   3.129   1.641
  604SOL    HW2 1826   0.398   3.110   1.803
  605SOL     OW 1827   1.111   3.638   0.237
  605SOL    HW1 1828   1.051   3.576   0.287
  605SOL    HW2 1829   1.142   3.594   0.152
  606SOL     OW 1830   0.202   2.147   1.498
  606SOL    HW1 1831   0.122   2.207   1.485
  606SOL    HW2 1832   0.192   2.098   1.584
  607SOL     OW 1833   1.632   3.239   0.081
  607SOL    HW1 1834   1.600   3.333   0.071
  607SOL    HW2 1835   1.556   3.176   0.069
  608SOL     OW 1836   0.464   3.605   0.323
  608SOL    HW1 1837   0.497   3.644   0.409
  608SOL    HW2 1838   0.540   3.598   0.258
  609SOL     OW 1839   1.400   1.969   0.426
  609SOL    HW1 1840   1.376   1.932   0.336
  609SOL    HW2 1841   1.499   1.985   0.430
  610SOL     OW 1842   0.249   3.647   1.241
  610SOL    HW1 1843   0.306   3.582   1.291
  610SOL    HW2 1844   0.233   3.614   1.148
  611SOL     OW 1845   0.940   3.560   0.904
  611SOL    HW1 1846   1.020   3.503   0.925
  611SOL    HW2 1847   0.891   3.520   0.827
  612SOL     OW 1848   0.382   2.562   0.480
  612SOL    HW1 1849   0.427   2.472   0.477
  612SOL    HW2 1850   0.288   2.551   0.513
  613SOL     OW 1851   1.547   2.084   1.729
  613SOL    HW1 1852   1.542   2.121   1.821
  613SOL    HW2 1853   1.475   2.015   1.717
  614SOL     OW 1854   0.614   1.984   0.117
  614SOL    HW1 1855   0.712   1.962   0.124
  614SOL    HW2 1856   0.583   1.967   0.024
  615SOL     OW 1857   0.781   2.126   1.749
  615SOL    HW1 1858   0.848   2.065   1.792
  615SOL    HW2 1859   0.708   2.145   1.814
  616SOL     OW 1860   0.888   3.376   1.195
  616SOL    HW1 1861   0.865   3.351   1.101
  616SOL    HW2 1862   0.949   3.307   1.234
  617SOL     OW 1863   1.351   2.452   1.433
  617SOL    HW1 1864   1.379   2.409   1.518
  617SOL    HW2 1865   1.376   2.548   1.434
  618SOL     OW 1866   0.803   3.264   0.924
  618SOL    HW1 1867   0.893   3.278   0.882
  618SOL    HW2 1868   0.732   3.266   0.853
  619SOL     OW 1869   0.922   2.365   0.899
  619SOL    HW1 1870   0.897   2.356   0.803
  619SOL    HW2 1871   0.970   2.283   0.930
  620SOL     OW 1872   0.539   1.926   0.512
  620SOL    HW1 1873   0.458   1.927   0.570
  620SOL    HW2 1874   0.542   2.009   0.457
  621SOL     OW 1875   1.434   3.050   0.041
  621SOL    HW1 1876   1.466   2.974   0.098
  621SOL    HW2 1877   1.342   3.077   0.071
  622SOL     OW 1878   0.935   2.098   0.480
  622SOL    HW1 1879   0.887   2.139   0.402
  622SOL    HW2 1880   1.034   2.096   0.461
  623SOL     OW 1881   1.076   2.545   1.464
  623SOL    HW1 1882   0.996   2.484   1.467
  623SOL    HW2 1883   1.157   2.492   1.440
  624SOL     OW 1884   1.227   3.432   0.793
  624SOL    HW1 1885   1.248   3.506   0.728
  624SOL    HW2 1886   1.295   3.432   0.866
  625SOL     OW 1887   0.459   3.014   0.741
  625SOL    HW1 1888   0.388   2.987   0.806
  625SOL    HW2 1889   0.433   2.986   0.648
  626SOL     OW 1890   1.271   3.659   0.591
  626SOL    HW1 1891   1.315   3.723   0.527
  626SOL    HW2 1892   1.221   3.711   0.661
  627SOL     OW 1893   1.032   2.411   0.016
  627SOL    HW1 1894   0.991   2.493  -0.023
  627SOL    HW2 1895   1.096   2.437   0.089
  628SOL     OW 1896   0.078   2.418   1.386
  628SOL    HW1 1897   0.170   2.417   1.345
  628SOL    HW2 1898   0.072   2.492   1.453
  629SOL     OW 1899   0.561   2.084   1.147
  629SOL    HW1 1900   0.599   2.000   1.184
  629SOL    HW2 1901   0.473   2.103   1.191
  630SOL     OW 1902   0.866   2.316   0.642
  630SOL    HW1 1903   0.834   2.388   0.580
  630SOL    HW2 1904   0.890   2.235   0.589
  631SOL     OW 1905   1.017   1.901   0.753
  631SOL    HW1 1906   0.945   1.906   0.684
  631SOL    HW2 1907   0.993   1.832   0.822
  632SOL     OW 1908   1.429   3.035   0.867
  632SOL    HW1 1909   1.374   2.951   0.860
  632SOL    HW2 1910   1.455   3.064   0.775
  633SOL     OW 1911   1.466   2.452   0.992
  633SOL    HW1 1912   1.436   2.357   0.999
  633SOL    HW2 1913   1.539   2.468   1.058
  634SOL     OW 1914   1.857   2.695   0.377
  634SOL    HW1 1915   1.899   2.631   0.441
  634SOL    HW2 1916   1.819   2.644   0.299
  635SOL     OW 1917   0.488   3.247   0.174
  635SOL    HW1 1918   0.401   3.232   0.221
  635SOL    HW2 1919   0.471   3.273   0.079
  636SOL     OW 1920   1.664   3.142   0.657
  636SOL    HW1 1921   1.763   3.150   0.671
  636SOL    HW2 1922   1.619   3.226   0.688
  637SOL     OW 1923   1.390   2.437   0.078
  637SOL    HW1 1924   1.336   2.416   0.159
  637SOL    HW2 1925   1.481   2.396   0.087
  638SOL     OW 1926   0.527   2.118   0.328
  638SOL    HW1 1927   0.554   2.059   0.253
  638SOL    HW2 1928   0.527   2.213   0.297
  639SOL     OW 1929   1.754   3.085   1.588
  639SOL    HW1 1930   1.845   3.046   1.575
  639SOL    HW2 1931   1.762   3.181   1.612
  640SOL     OW 1932   1.064   3.209   1.340
  640SOL    HW1 1933   0.984   3.186   1.395
  640SOL    HW2 1934   1.147   3.183   1.389
  641SOL     OW 1935   1.592   3.491   1.625
  641SOL    HW1 1936   1.619   3.525   1.535
  641SOL    HW2 1937   1.671   3.453   1.671
  642SOL     OW 1938   1.111   3.057   1.100
  642SOL    HW1 1939   1.071   3.101   1.181
  642SOL    HW2 1940   1.070   3.094   1.017
  643SOL     OW 1941   1.638   2.961   1.079
  643SOL    HW1 1942   1.643   3.042   1.138
  643SOL    HW2 1943   1.552   2.963   1.028
  644SOL     OW 1944   0.915   1.951   1.402
  644SOL    HW1 1945   0.940   1.931   1.307
  644SOL    HW2 1946   0.987   2.007   1.444
  645SOL     OW 1947   0.980   2.978   1.719
  645SOL    HW1 1948   0.881   2.984   1.729
  645SOL    HW2 1949   1.003   2.898   1.663
  646SOL     OW 1950   0.705   2.912   0.368
  646SOL    HW1 1951   0.691   2.919   0.467
  646SOL    HW2 1952   0.789   2.861   0.350
  647SOL     OW 1953   0.410   2.675   1.251
  647SOL    HW1 1954   0.496   2.687   1.301
  647SOL    HW2 1955   0.368   2.588   1.278
  648SOL     OW 1956   1.274   2.248   1.262
  648SOL    HW1 1957   1.295   2.322   1.326
  648SOL    HW2 1958   1.185   2.265   1.219
  649SOL     OW 1959   0.064   3.426   1.331
  649SOL    HW1 1960   0.018   3.508   1.297
  649SOL    HW2 1961   0.162   3.445   1.340
  650SOL     OW 1962   0.367   2.962   0.501
  650SOL    HW1 1963   0.360   3.045   0.445
  650SOL    HW2 1964   0.371   2.882   0.441
  651SOL     OW 1965   0.566   2.399   0.865
  651SOL    HW1 1966   0.578   2.465   0.791
  651SOL    HW2 1967   0.612   2.433   0.948
  652SOL     OW 1968   1.252   3.210   0.388
  652SOL    HW1 1969   1.302   3.287   0.428
  652SOL    HW2 1970   1.157   3.212   0.420
  653SOL     OW 1971   1.272   3.307   1.142
  653SOL    HW1 1972   1.319   3.320   1.229
  653SOL    HW2 1973   1.206   3.233   1.151
  654SOL     OW 1974   1.582   2.501   0.472
  654SOL    HW1 1975   1.551   2.562   0.545
  654SOL    HW2 1976   1.632   2.553   0.403
  655SOL     OW 1977   0.354   3.372   1.329
  655SOL    HW1 1978   0.333   3.328   1.242
  655SOL    HW2 1979   0.451   3.398   1.332
  656SOL     OW 1980   0.402   2.613   1.598
  656SOL    HW1 1981   0.470   2.668   1.551
  656SOL    HW2 1982   0.442   2.525   1.625
  657SOL     OW 1983   1.587   2.641   1.670
  657SOL    HW1 1984   1.495   2.679   1.665
  657SOL    HW2 1985   1.647   2.688   1.605
  658SOL     OW 1986   1.013   1.967   1.770
  658SOL    HW1 1987   1.019   2.052   1.718
  658SOL    HW2 1988   1.045   1.891   1.713
  659SOL     OW 1989   0.504   1.912   1.740
  659SOL    HW1 1990   0.462   1.855   1.670
  659SOL    HW2 1991   0.438   1.981   1.772
  660SOL     OW 1992   0.573   2.732   1.029
  660SOL    HW1 1993   0.617   2.821   1.020
  660SOL    HW2 1994   0.510   2.732   1.106
  661SOL     OW 1995   1.360   2.724   1.045
  661SOL    HW1 1996   1.285   2.724   0.979
  661SOL    HW2 1997   1.397   2.632   1.054
  662SOL     OW 1998   1.209   2.387   0.275
  662SOL    HW1 1999   1.222   2.303   0.329
  662SOL    HW2 2000   1.180   2.461   0.335
  663SOL     OW 2001   0.307   2.075   1.231
  663SOL    HW1 2002   0.284   2.112   1.321
  663SOL    HW2 2003   0.277   1.980   1.225
  664SOL     OW 2004   0.037   3.172   1.282
  664SOL    HW1 2005   0.090   3.123   1.350
  664SOL    HW2 2006   0.059   3.270   1.287
  665SOL     OW 2007   0.732   2.496   1.064
  665SOL    HW1 2008   0.791   2.470   0.988
  665SOL    HW2 2009   0.704   2.592   1.053
  666SOL     OW 2010   1.728   2.797   1.854
  666SOL    HW1 2011   1.682   2.790   1.765
  666SOL    HW2 2012   1.666   2.841   1.920
  667SOL     OW 2013   0.307   1.925   0.618
  667SOL    HW1 2014   0.296   2.019   0.651
  667SOL    HW2 2015   0.302   1.862   0.695
  668SOL     OW 2016   1.622   2.229   0.374
  668SOL    HW1 2017   1.624   2.153   0.438
  668SOL    HW2 2018   1.574   2.306   0.414
  669SOL     OW 2019   1.023   2.628   0.966
  669SOL    HW1 2020   1.038   2.649   1.062
  669SOL    HW2 2021   0.993   2.533   0.957
  670SOL     OW 2022   0.980   3.435   1.700
  670SOL    HW1 2023   0.960   3.479   1.612
  670SOL    HW2 2024   1.019   3.344   1.684
  671SOL     OW 2025   1.859   3.380   1.605
  671SOL    HW1 2026   1.873   3.407   1.510
  671SOL    HW2 2027   1.942   3.402   1.658
  672SOL     OW 2028   0.350   2.760   1.804
  672SOL    HW1 2029   0.426   2.804   1.852
  672SOL    HW2 2030   0.385   2.713   1.722
  673SOL     OW 2031   1.540   2.136   0.125
  673SOL    HW1 2032   1.479   2.061   0.148
  673SOL    HW2 2033   1.562   2.188   0.208
  674SOL     OW 2034   1.303   2.700   0.042
  674SOL    HW1 2035   1.337   2.607   0.057
  674SOL    HW2 2036   1.321   2.727  -0.053
  675SOL     OW 2037   1.068   3.195   0.849
  675SOL    HW1 2038   1.075   3.111   0.794
  675SOL    HW2 2039   1.130   3.264   0.813
  676SOL     OW 2040   0.319   2.672   0.949
  676SOL    HW1 2041   0.412   2.708   0.954
  676SOL    HW2 2042   0.313   2.587   1.001
  677SOL     OW 2043   0.339   2.371   1.006
  677SOL    HW1 2044   0.287   2.288   0.989
  677SOL    HW2 2045   0.416   2.376   0.942
  678SOL     OW 2046   1.138   2.242   1.678
  678SOL    HW1 2047   1.093   2.305   1.742
  678SOL    HW2 2048   1.231   2.273   1.661
  679SOL     OW 2049   1.160   2.069   1.477
  679SOL    HW1 2050   1.160   2.133   1.554
  679SOL    HW2 2051   1.188   2.117   1.394
  680SOL     OW 2052   0.008   3.188   0.200
  680SOL    HW1 2053  -0.085   3.209   0.169
  680SOL    HW2 2054   0.018   3.089   0.213
  681SOL     OW 2055   0.088   3.663   0.927
  681SOL    HW1 2056   0.046   3.577   0.900
  681SOL    HW2 2057   0.182   3.666   0.893
  682SOL     OW 2058   0.504   3.430   0.910
  682SOL    HW1 2059   0.570   3.504   0.919
  682SOL    HW2 2060   0.548   3.351   0.868
  683SOL     OW 2061   1.002   2.658   1.238
  683SOL    HW1 2062   1.043   2.626   1.324
  683SOL    HW2 2063   0.906   2.631   1.235
  684SOL     OW 2064   0.040   2.406   1.114
  684SOL    HW1 2065   0.125   2.373   1.073
  684SOL    HW2 2066   0.053   2.421   1.212
  685SOL     OW 2067   0.189   2.382   1.722
  685SOL    HW1 2068   0.248   2.342   1.652
  685SOL    HW2 2069   0.131   2.453   1.681
  686SOL     OW 2070   1.369   2.812   1.660
  686SOL    HW1 2071   1.408   2.901   1.680
  686SOL    HW2 2072   1.379   2.792   1.563
  687SOL     OW 2073   0.815   2.434   0.325
  687SOL    HW1 2074   0.822   2.345   0.279
  687SOL    HW2 2075   0.721   2.468   0.317
  688SOL     OW 2076   1.657   2.466   1.206
  688SOL    HW1 2077   1.619   2.397   1.268
  688SOL    HW2 2078   1.739   2.430   1.162
  689SOL     OW 2079   0.252   3.426   1.744
  689SOL    HW1 2080   0.222   3.483   1.820
  689SOL    HW2 2081   0.245   3.329   1.770
  690SOL     OW 2082   0.671   2.326   1.269
  690SOL    HW1 2083   0.637   2.237   1.239
  690SOL    HW2 2084   0.697   2.380   1.189
  691SOL     OW 2085   0.930   3.540   1.465
  691SOL    HW1 2086   0.906   3.522   1.370
  691SOL    HW2 2087   0.960   3.634   1.475
  692SOL     OW 2088   0.473   2.362   0.191
  692SOL    HW1 2089   0.534   2.442   0.195
  692SOL    HW2 2090   0.378   2.393   0.198
  693SOL     OW 2091   0.159   2.999   1.466
  693SOL    HW1 2092   0.181   2.938   1.542
  693SOL    HW2 2093   0.169   2.950   1.380
  694SOL     OW 2094   1.347   2.921   1.234
  694SOL    HW1 2095   1.371   2.858   1.160
  694SOL    HW2 2096   1.257   2.961   1.216
  695SOL     OW 2097   1.302   2.717   0.309
  695SOL    HW1 2098   1.216   2.686   0.351
  695SOL    HW2 2099   1.298   2.703   0.210
  696SOL     OW 2100   1.759   3.609   1.154
  696SOL    HW1 2101   1.820   3.639   1.081
  696SOL    HW2 2102   1.721   3.520   1.132
  697SOL     OW 2103   1.252   3.593   1.128
  697SOL    HW1 2104   1.336   3.598   1.074
  697SOL    HW2 2105   1.229   3.497   1.146
  698SOL     OW 2106   0.083   3.120   1.022
  698SOL    HW1 2107   0.078   3.119   1.122
  698SOL    HW2 2108   0.000   3.079   0.984
  699SOL     OW 2109   0.688   3.524   1.716
  699SOL    HW1 2110   0.632   3.605   1.725
  699SOL    HW2 2111   0.740   3.528   1.630
  700SOL     OW 2112   0.903   1.948   0.133
  700SOL    HW1 2113   0.954   1.949   0.047
  700SOL    HW2 2114   0.959   1.906   0.204
  701SOL     OW 2115   1.726   1.997   0.523
  701SOL    HW1 2116   1.799   1.980   0.456
  701SOL    HW2 2117   1.695   1.910   0.561
  702SOL     OW 2118   1.388   3.435   0.477
  702SOL    HW1 2119   1.455   3.447   0.403
  702SOL    HW2 2120   1.348   3.524   0.500
  703SOL     OW 2121   0.130   3.656   1.851
  703SOL    HW1 2122   0.089   3.582   1.904
  703SOL    HW2 2123   0.194   3.707   1.909
  704SOL     OW 2124   1.280   2.789   0.672
  704SOL    HW1 2125   1.340   2.708   0.674
  704SOL    HW2 2126   1.320   2.858   0.612
  705SOL     OW 2127   0.830   3.135   1.422
  705SOL    HW1 2128   0.825   3.168   1.517
  705SOL    HW2 2129   0.744   3.154   1.376
  706SOL     OW 2130   0.672   3.478   0.154
  706SOL    HW1 2131   0.681   3.488   0.055
  706SOL    HW2 2132   0.632   3.389   0.175
  707SOL     OW 2133   1.650   3.582   1.394
  707SOL    HW1 2134   1.703   3.592   1.310
  707SOL    HW2 2135   1.623   3.672   1.428
  708SOL     OW 2136   1.841   2.037   0.963
  708SOL    HW1 2137   1.880   1.952   0.927
  708SOL    HW2 2138   1.743   2.039   0.944
  709SOL     OW 2139   0.263   2.188   0.720
  709SOL    HW1 2140   0.184   2.239   0.686
  709SOL    HW2 2141   0.254   2.173   0.818
  710SOL     OW 2142   1.194   3.474   0.031
  710SOL    HW1 2143   1.200   3.381   0.068
  710SOL    HW2 2144   1.135   3.474  -0.049
  711SOL     OW 2145   0.822   2.864   1.372
  711SOL    HW1 2146   0.862   2.863   1.280
  711SOL    HW2 2147   0.832   2.956   1.412
  712SOL     OW 2148   0.916   2.772   0.291
  712SOL    HW1 2149   0.979   2.810   0.223
  712SOL    HW2 2150   0.956   2.689   0.330
  713SOL     OW 2151   1.504   3.469   0.044
  713SOL    HW1 2152   1.412   3.506   0.051
  713SOL    HW2 2153   1.542   3.489  -0.046
  714SOL     OW 2154   0.372   3.150   1.490
  714SOL    HW1 2155   0.359   3.243   1.456
  714SOL    HW2 2156   0.288   3.098   1.477
  715SOL     OW 2157   1.614   3.154   1.289
  715SOL    HW1 2158   1.674   3.157   1.369
  715SOL    HW2 2159   1.539   3.218   1.302
  716SOL     OW 2160   1.039   2.960   0.696
  716SOL    HW1 2161   0.969   2.913   0.750
  716SOL    HW2 2162   1.098   2.892   0.653
  717SOL     OW 2163   1.014   2.098   0.971
  717SOL    HW1 2164   1.006   2.062   0.878
  717SOL    HW2 2165   1.012   2.022   1.036
  718SOL     OW 2166   0.590   3.349   0.491
  718SOL    HW1 2167   0.632   3.291   0.421
  718SOL    HW2 2168   0.546   3.428   0.447
  719SOL     OW 2169   1.709   2.247   1.381
  719SOL    HW1 2170   1.782   2.316   1.385
  719SOL    HW2 2171   1.737   2.172   1.322
  720SOL     OW 2172   0.255   3.210   0.290
  720SOL    HW1 2173   0.159   3.211   0.263
  720SOL    HW2 2174   0.267   3.263   0.374
  721SOL     OW 2175   0.105   2.875   1.726
  721SOL    HW1 2176   0.028   2.842   1.780
  721SOL    HW2 2177   0.190   2.845   1.768
  722SOL     OW 2178   0.672   2.065   1.489
  722SOL    HW1 2179   0.762   2.049   1.449
  722SOL    HW2 2180   0.680   2.070   1.588
  723SOL     OW 2181   0.075   2.207   0.033
  723SOL    HW1 2182  -0.017   2.179   0.004
  723SOL    HW2 2183   0.106   2.284  -0.023
  724SOL     OW 2184   1.440   2.718   1.398
  724SOL    HW1 2185   1.383   2.770   1.335
  724SOL    HW2 2186   1.536   2.730   1.374
  725SOL     OW 2187   0.072   2.028   0.318
  725SOL    HW1 2188   0.055   2.111   0.264
  725SOL    HW2 2189   0.162   1.991   0.296
  726SOL     OW 2190   1.183   3.197   0.119
  726SOL    HW1 2191   1.084   3.186   0.121
  726SOL    HW2 2192   1.217   3.212   0.212
  727SOL     OW 2193   0.613   2.704   1.431
  727SOL    HW1 2194   0.669   2.785   1.414
  727SOL    HW2 2195   0.672   2.624   1.434
  728SOL     OW 2196   1.493   3.629   0.959
  728SOL    HW1 2197   1.526   3.693   0.890
  728SOL    HW2 2198   1.559   3.623   1.034
  729SOL     OW 2199   0.716   2.427   1.708
  729SOL    HW1 2200   0.735   2.492   1.782
  729SOL    HW2 2201   0.776   2.347   1.717
  730SOL     OW 2202   1.450   3.082   1.633
  730SOL    HW1 2203   1.441   3.072   1.732
  730SOL    HW2 2204   1.546   3.075   1.607
  731SOL     OW 2205   0.390   3.603   1.560
  731SOL    HW1 2206   0.299   3.644   1.558
  731SOL    HW2 2207   0.383   3.509   1.592
  732SOL     OW 2208   1.674   2.745   1.254
  732SOL    HW1 2209   1.647   2.656   1.217
  732SOL    HW2 2210   1.675   2.813   1.181
  733SOL     OW 2211   1.225   2.187   0.449
  733SOL    HW1 2212   1.290   2.113   0.438
  733SOL    HW2 2213   1.245   2.237   0.533
  734SOL     OW 2214   0.594   2.607   0.652
  734SOL    HW1 2215   0.644   2.692   0.633
  734SOL    HW2 2216   0.506   2.609   0.604
  735SOL     OW 2217   1.777   2.204   1.642
  735SOL    HW1 2218   1.760   2.235   1.548
  735SOL    HW2 2219   1.693   2.167   1.680
  736SOL     OW 2220   1.730   2.796   1.517
  736SOL    HW1 2221   1.768   2.887   1.532
  736SOL    HW2 2222   1.722   2.779   1.418
  737SOL     OW 2223   0.859   3.236   0.016
  737SOL    HW1 2224   0.813   3.251   0.104
  737SOL    HW2 2225   0.903   3.321  -0.014
  738SOL     OW 2226   0.661   3.652   0.953
  738SOL    HW1 2227   0.615   3.740   0.940
  738SOL    HW2 2228   0.760   3.664   0.946
  739SOL     OW 2229   0.859   2.818   0.861
  739SOL    HW1 2230   0.913   2.749   0.909
  739SOL    HW2 2231   0.827   2.887   0.927
  740SOL     OW 2232   1.083   2.846   0.087
  740SOL    HW1 2233   1.060   2.899   0.005
  740SOL    HW2 2234   1.164   2.790   0.068
  741SOL     OW 2235   1.861   3.431   0.851
  741SOL    HW1 2236   1.790   3.419   0.781
  741SOL    HW2 2237   1.862   3.352   0.911
  742SOL     OW 2238   0.221   3.176   1.844
  742SOL    HW1 2239   0.156   3.103   1.823
  742SOL    HW2 2240   0.225   3.190   1.942
  743SOL     OW 2241   0.079   3.102   0.653
  743SOL    HW1 2242   0.078   3.055   0.741
  743SOL    HW2 2243   0.161   3.074   0.602
  744SOL     OW 2244   0.672   3.253   1.624
  744SOL    HW1 2245   0.594   3.203   1.662
  744SOL    HW2 2246   0.669   3.348   1.655
  745SOL     OW 2247   1.824   2.054   1.227
  745SOL    HW1 2248   1.820   1.964   1.271
  745SOL    HW2 2249   1.827   2.043   1.128
  746SOL     OW 2250   0.428   2.286   0.520
  746SOL    HW1 2251   0.458   2.214   0.458
  746SOL    HW2 2252   0.389   2.246   0.603
  747SOL     OW 2253   1.705   3.349   1.104
  747SOL    HW1 2254   1.612   3.324   1.077
  747SOL    HW2 2255   1.731   3.299   1.186
  748SOL     OW 2256   0.317   2.409   1.280
  748SOL    HW1 2257   0.355   2.350   1.352
  748SOL    HW2 2258   0.357   2.383   1.192
  749SOL     OW 2259   0.812   3.448   0.687
  749SOL    HW1 2260   0.844   3.458   0.593
  749SOL    HW2 2261   0.733   3.386   0.689
  750SOL     OW 2262   1.424   2.076   1.112
  750SOL    HW1 2263   1.476   2.011   1.167
  750SOL    HW2 2264   1.375   2.139   1.173
  751SOL     OW 2265   1.001   1.896   1.154
  751SOL    HW1 2266   0.938   1.824   1.123
  751SOL    HW2 2267   1.094   1.860   1.154
  752SOL     OW 2268   0.770   3.192   0.301
  752SOL    HW1 2269   0.724   3.105   0.318
  752SOL    HW2 2270   0.861   3.189   0.342
  753SOL     OW 2271   0.618   3.429   1.284
  753SOL    HW1 2272   0.613   3.511   1.341
  753SOL    HW2 2273   0.707   3.426   1.239
  754SOL     OW 2274   1.352   1.914   0.168
  754SOL    HW1 2275   1.387   1.873   0.084
  754SOL    HW2 2276   1.262   1.876   0.188
  755SOL     OW 2277   1.300   2.315   0.691
  755SOL    HW1 2278   1.241   2.395   0.695
  755SOL    HW2 2279   1.315   2.280   0.784
  756SOL     OW 2280   1.593   2.083   0.882
  756SOL    HW1 2281   1.509   2.082   0.936
  756SOL    HW2 2282   1.595   2.166   0.826
  757SOL     OW 2283   0.039   2.939   0.300
  757SOL    HW1 2284   0.138   2.928   0.291
  757SOL    HW2 2285  -0.001   2.853   0.332
  758SOL     OW 2286   0.875   3.508   0.337
  758SOL    HW1 2287   0.798   3.473   0.283
  758SOL    HW2 2288   0.843   3.579   0.399
  759SOL     OW 2289   0.230   2.490   1.975
  759SOL    HW1 2290   0.137   2.488   2.012
  759SOL    HW2 2291   0.231   2.451   1.883
  760SOL     OW 2292   0.225   2.137   2.858
  760SOL    HW1 2293   0.260   2.120   2.950
  760SOL    HW2 2294   0.137   2.092   2.846
  761SOL     OW 2295   0.019   2.230   2.509
  761SOL    HW1 2296  -0.063   2.273   2.548
  761SOL    HW2 2297  -0.009   2.157   2.446
  762SOL     OW 2298   0.569   3.137   3.027
  762SOL    HW1 2299   0.476   3.130   2.990
  762SOL    HW2 2300   0.580   3.226   3.071
  763SOL     OW 2301   1.555   3.373   2.565
  763SOL    HW1 2302   1.498   3.357   2.646
  763SOL    HW2 2303   1.496   3.383   2.485
  764SOL     OW 2304   1.135   2.565   2.579
  764SOL    HW1 2305   1.192   2.643   2.554
  764SOL    HW2 2306   1.075   2.591   2.655
  765SOL     OW 2307   1.755   2.469   2.093
  765SOL    HW1 2308   1.743   2.456   1.994
  765SOL    HW2 2309   1.725   2.388   2.142
  766SOL     OW 2310   0.768   3.006   2.885
  766SOL    HW1 2311   0.690   3.023   2.945
  766SOL    HW2 2312   0.802   3.093   2.849
  767SOL     OW 2313   0.850   2.660   3.685
  767SOL    HW1 2314   0.846   2.736   3.750
  767SOL    HW2 2315   0.872   2.696   3.594
  768SOL     OW 2316   0.685   2.874   2.527
  768SOL    HW1 2317   0.754   2.858   2.597
  768SOL    HW2 2318   0.612   2.931   2.565
  769SOL     OW 2319   0.686   3.023   3.665
  769SOL    HW1 2320   0.746   3.102   3.679
  769SOL    HW2 2321   0.600   3.054   3.624
  770SOL     OW 2322   0.335   3.297   2.923
  770SOL    HW1 2323   0.257   3.266   2.870
  770SOL    HW2 2324   0.393   3.355   2.866
  771SOL     OW 2325   1.460   3.367   3.201
  771SOL    HW1 2326   1.484   3.461   3.227
  771SOL    HW2 2327   1.444   3.313   3.283
  772SOL     OW 2328   0.438   2.254   3.361
  772SOL    HW1 2329   0.520   2.198   3.370
  772SOL    HW2 2330   0.357   2.196   3.365
  773SOL     OW 2331   1.603   2.309   2.599
  773SOL    HW1 2332   1.529   2.355   2.549
  773SOL    HW2 2333   1.654   2.377   2.652
  774SOL     OW 2334   0.231   3.575   2.345
  774SOL    HW1 2335   0.265   3.652   2.399
  774SOL    HW2 2336   0.275   3.575   2.255
  775SOL     OW 2337   1.127   3.203   3.552
  775SOL    HW1 2338   1.174   3.203   3.640
  775SOL    HW2 2339   1.079   3.116   3.541
  776SOL     OW 2340   0.230   3.296   2.400
  776SOL    HW1 2341   0.204   3.392   2.400
  776SOL    HW2 2342   0.159   3.242   2.445
  777SOL     OW 2343   0.240   2.953   2.748
  777SOL    HW1 2344   0.254   2.869   2.800
  777SOL    HW2 2345   0.185   3.017   2.803
  778SOL     OW 2346   0.620   3.648   3.301
  778SOL    HW1 2347   0.528   3.631   3.336
  778SOL    HW2 2348   0.648   3.740   3.327
  779SOL     OW 2349   0.606   2.826   1.985
  779SOL    HW1 2350   0.613   2.910   1.931
  779SOL    HW2 2351   0.652   2.839   2.073
  780SOL     OW 2352   1.594   1.976   3.342
  780SOL    HW1 2353   1.576   2.043   3.270
  780SOL    HW2 2354   1.591   2.022   3.431
  781SOL     OW 2355   0.122   2.505   2.425
  781SOL    HW1 2356   0.077   2.417   2.442
  781SOL    HW2 2357   0.121   2.559   2.509
  782SOL     OW 2358   1.842   3.629   2.221
  782SOL    HW1 2359   1.896   3.600   2.301
  782SOL    HW2 2360   1.872   3.719   2.192
  783SOL     OW 2361   0.027   3.458   1.979
  783SOL    HW1 2362   0.008   3.362   2.000
  783SOL    HW2 2363  -0.006   3.516   2.054
  784SOL     OW 2364   1.689   2.784   2.474
  784SOL    HW1 2365   1.784   2.755   2.482
  784SOL    HW2 2366   1.681   2.849   2.399
  785SOL     OW 2367   1.641   2.970   2.294
  785SOL    HW1 2368   1.727   2.972   2.242
  785SOL    HW2 2369   1.655   3.017   2.382
  786SOL     OW 2370   0.113   2.599   3.459
  786SOL    HW1 2371   0.201   2.586   3.504
  786SOL    HW2 2372   0.100   2.696   3.437
  787SOL     OW 2373   0.613   3.227   2.588
  787SOL    HW1 2374   0.564   3.140   2.597
  787SOL    HW2 2375   0.590   3.270   2.501
  788SOL     OW 2376   1.293   3.090   3.285
  788SOL    HW1 2377   1.330   3.017   3.227
  788SOL    HW2 2378   1.345   3.095   3.370
  789SOL     OW 2379   0.809   1.866   2.364
  789SOL    HW1 2380   0.849   1.957   2.355
  789SOL    HW2 2381   0.709   1.874   2.370
  790SOL     OW 2382   0.197   2.838   3.126
  790SOL    HW1 2383   0.286   2.793   3.112
  790SOL    HW2 2384   0.124   2.773   3.107
  791SOL     OW 2385   1.525   2.861   2.052
  791SOL    HW1 2386   1.462   2.785   2.065
  791SOL    HW2 2387   1.573   2.879   2.138
  792SOL     OW 2388   1.187   3.654   3.478
  792SOL    HW1 2389   1.211   3.714   3.402
  792SOL    HW2 2390   1.194   3.559   3.448
  793SOL     OW 2391   0.317   2.113   3.663
  793SOL    HW1 2392   0.388   2.184   3.669
  793SOL    HW2 2393   0.229   2.152   3.691
  794SOL     OW 2394   1.466   3.279   2.815
  794SOL    HW1 2395   1.407   3.285   2.895
  794SOL    HW2 2396   1.451   3.191   2.769
  795SOL     OW 2397   1.667   3.576   2.434
  795SOL    HW1 2398   1.626   3.553   2.346
  795SOL    HW2 2399   1.649   3.502   2.499
  796SOL     OW 2400   0.598   2.591   2.132
  796SOL    HW1 2401   0.622   2.660   2.064
  796SOL    HW2 2402   0.520   2.624   2.186
  797SOL     OW 2403   1.281   2.207   2.806
  797SOL    HW1 2404   1.195   2.157   2.793
  797SOL    HW2 2405   1.343   2.153   2.862
  798SOL     OW 2406   1.576   3.524   2.169
  798SOL    HW1 2407   1.665   3.570   2.172
  798SOL    HW2 2408   1.555   3.500   2.074
  799SOL     OW 2409   0.807   2.467   3.327
  799SOL    HW1 2410   0.760   2.464   3.416
  799SOL    HW2 2411   0.756   2.412   3.261
  800SOL     OW 2412   1.394   2.331   3.536
  800SOL    HW1 2413   1.374   2.374   3.624
  800SOL    HW2 2414   1.472   2.269   3.545
  801SOL     OW 2415   0.973   2.752   3.434
  801SOL    HW1 2416   1.019   2.668   3.405
  801SOL    HW2 2417   0.917   2.786   3.359
  802SOL     OW 2418   0.991   2.272   3.104
  802SOL    HW1 2419   0.914   2.306   3.158
  802SOL    HW2 2420   0.957   2.221   3.025
  803SOL     OW 2421   1.041   2.563   2.291
  803SOL    HW1 2422   1.067   2.559   2.387
  803SOL    HW2 2423   0.956   2.512   2.277
  804SOL     OW 2424   0.076   2.673   2.651
  804SOL    HW1 2425   0.175   2.661   2.660
  804SOL    HW2 2426   0.052   2.768   2.672
  805SOL     OW 2427   0.130   3.683   3.433
  805SOL    HW1 2428   0.120   3.668   3.532
  805SOL    HW2 2429   0.044   3.719   3.397
  806SOL     OW 2430   0.865   2.210   2.057
  806SOL    HW1 2431   0.924   2.273   2.008
  806SOL    HW2 2432   0.884   2.116   2.028
  807SOL     OW 2433   1.719   2.447   3.693
  807SOL    HW1 2434   1.693   2.536   3.657
  807SOL    HW2 2435   1.717   2.379   3.620
  808SOL     OW 2436   1.362   3.006   2.407
  808SOL    HW1 2437   1.445   2.977   2.359
  808SOL    HW2 2438   1.313   3.073   2.351
  809SOL     OW 2439   0.550   2.058   2.747
  809SOL    HW1 2440   0.545   2.053   2.847
  809SOL    HW2 2441   0.552   2.154   2.718
  810SOL     OW 2442   1.008   3.318   2.339
  810SOL    HW1 2443   0.962   3.390   2.287
  810SOL    HW2 2444   1.004   3.338   2.437
  811SOL     OW 2445   0.351   3.663   2.715
  811SOL    HW1 2446   0.401   3.577   2.721
  811SOL    HW2 2447   0.416   3.740   2.712
  812SOL     OW 2448   1.795   2.928   2.735
  812SOL    HW1 2449   1.733   2.913   2.659
  812SOL    HW2 2450   1.743   2.939   2.820
  813SOL     OW 2451   1.227   3.412   3.368
  813SOL    HW1 2452   1.233   3.335   3.432
  813SOL    HW2 2453   1.175   3.386   3.288
  814SOL     OW 2454   0.321   2.805   2.104
  814SOL    HW1 2455   0.403   2.844   2.062
  814SOL    HW2 2456   0.294   2.723   2.055
  815SOL     OW 2457   1.458   2.597   2.590
  815SOL    HW1 2458   1.453   2.532   2.665
  815SOL    HW2 2459   1.538   2.656   2.603
  816SOL     OW 2460   0.461   3.128   3.589
  816SOL    HW1 2461   0.411   3.129   3.503
  816SOL    HW2 2462   0.398   3.110   3.665
  817SOL     OW 2463   1.111   3.638   2.099
  817SOL    HW1 2464   1.051   3.576   2.149
  817SOL    HW2 2465   1.142   3.594   2.014
  818SOL     OW 2466   0.202   2.147   3.360
  818SOL    HW1 2467   0.122   2.207   3.347
  818SOL    HW2 2468   0.192   2.098   3.446
  819SOL     OW 2469   1.632   3.239   1.943
  819SOL    HW1 2470   1.600   3.333   1.933
  819SOL    HW2 2471   1.556   3.176   1.931
  820SOL     OW 2472   0.464   3.605   2.185
  820SOL    HW1 2473   0.497   3.644   2.271
  820SOL    HW2 2474   0.540   3.598   2.120
  821SOL     OW 2475   1.400   1.969   2.288
  821SOL    HW1 2476   1.376   1.932   2.198
  821SOL    HW2 2477   1.499   1.985   2.292
  822SOL     OW 2478   0.249   3.647   3.103
  822SOL    HW1 2479   0.306   3.582   3.153
  822SOL    HW2 2480   0.233   3.614   3.010
  823SOL     OW 2481   0.940   3.560   2.766
  823SOL    HW1 2482   1.020   3.503   2.787
  823SOL    HW2 2483   0.891   3.520   2.689
  824SOL     OW 2484   0.382   2.562   2.342
  824SOL    HW1 2485   0.427   2.472   2.339
  824SOL    HW2 2486   0.288   2.551   2.375
  825SOL     OW 2487   1.547   2.084   3.591
  825SOL    HW1 2488   1.542   2.121   3.683
  825SOL    HW2 2489   1.475   2.015   3.579
  826SOL     OW 2490   0.614   1.984   1.979
  826SOL    HW1 2491   0.712   1.962   1.986
  826SOL    HW2 2492   0.583   1.967   1.886
  827SOL     OW 2493   0.781   2.126   3.611
  827SOL    HW1 2494   0.848   2.065   3.654
  827SOL    HW2 2495   0.708   2.145   3.676
  828SOL     OW 2496   0.888   3.376   3.057
  828SOL    HW1 2497   0.865   3.351   2.963
  828SOL    HW2 2498   0.949   3.307   3.096
  829SOL     OW 2499   1.351   2.452   3.295
  829SOL    HW1 2500   1.379   2.409   3.380
  829SOL    HW2 2501   1.376   2.548   3.296
  830SOL     OW 2502   0.803   3.264   2.786
  830SOL    HW1 2503   0.893   3.278   2.744
  830SOL    HW2 2504   0.732   3.266   2.715
  831SOL     OW 2505   0.922   2.365   2.761
  831SOL    HW1 2506   0.897   2.356   2.665
  831SOL    HW2 2507   0.970   2.283   2.792
  832SOL     OW 2508   0.539   1.926   2.374
  832SOL    HW1 2509   0.458   1.927   2.432
  832SOL    HW2 2510   0.542   2.009   2.319
  833SOL     OW 2511   1.434   3.050   1.903
  833SOL    HW1 2512   1.466   2.974   1.960
  833SOL    HW2 2513   1.342   3.077   1.933
  834SOL     OW 2514   0.297   1.897   2.033
  834SOL    HW1 2515   0.346   1.981   2.012
  834SOL    HW2 2516   0.359   1.832   2.078
  835SOL     OW 2517   0.935   2.098   2.342
  835SOL    HW1 2518   0.887   2.139   2.264
  835SOL    HW2 2519   1.034   2.096   2.323
  836SOL     OW 2520   1.076   2.545   3.326
  836SOL    HW1 2521   0.996   2.484   3.329
  836SOL    HW2 2522   1.157   2.492   3.302
  837SOL     OW 2523   1.227   3.432   2.655
  837SOL    HW1 2524   1.248   3.506   2.590
  837SOL    HW2 2525   1.295   3.432   2.728
  838SOL     OW 2526   0.459   3.014   2.603
  838SOL    HW1 2527   0.388   2.987   2.668
  838SOL    HW2 2528   0.433   2.986   2.510
  839SOL     OW 2529   1.271   3.659   2.453
  839SOL    HW1 2530   1.315   3.723   2.389
  839SOL    HW2 2531   1.221   3.711   2.523
  840SOL     OW 2532   1.032   2.411   1.878
  840SOL    HW1 2533   0.991   2.493   1.839
  840SOL    HW2 2534   1.096   2.437   1.951
  841SOL     OW 2535   0.078   2.418   3.248
  841SOL    HW1 2536   0.170   2.417   3.207
  841SOL    HW2 2537   0.072   2.492   3.315
  842SOL     OW 2538   0.561   2.084   3.009
  842SOL    HW1 2539   0.599   2.000   3.046
  842SOL    HW2 2540   0.473   2.103   3.053
  843SOL     OW 2541   0.866   2.316   2.504
  843SOL    HW1 2542   0.834   2.388   2.442
  843SOL    HW2 2543   0.890   2.235   2.451
  844SOL     OW 2544   1.017   1.901   2.615
  844SOL    HW1 2545   0.945   1.906   2.546
  844SOL    HW2 2546   0.993   1.832   2.684
  845SOL     OW 2547   1.429   3.035   2.729
  845SOL    HW1 2548   1.374   2.951   2.722
  845SOL    HW2 2549   1.455   3.064   2.637
  846SOL     OW 2550   1.466   2.452   2.854
  846SOL    HW1 2551   1.436   2.357   2.861
  846SOL    HW2 2552   1.539   2.468   2.920
  847SOL     OW 2553   1.857   2.695   2.239
  847SOL    HW1 2554   1.899   2.631   2.303
  847SOL    HW2 2555   1.819   2.644   2.161
  848SOL     OW 2556   0.488   3.247   2.036
  848SOL    HW1 2557   0.401   3.232   2.083
  848SOL    HW2 2558   0.471   3.273   1.941
  849SOL     OW 2559   1.664   3.142   2.519
  849SOL    HW1 2560   1.763   3.150   2.533
  849SOL    HW2 2561   1.619   3.226   2.550
  850SOL     OW 2562   1.390   2.437   1.940
  850SOL    HW1 2563   1.336   2.416   2.021
  850SOL    HW2 2564   1.481   2.396   1.949
  851SOL     OW 2565   0.527   2.118   2.190
  851SOL    HW1 2566   0.554   2.059   2.115
  851SOL    HW2 2567   0.527   2.213   2.159
  852SOL     OW 2568   1.754   3.085   3.450
  852SOL    HW1 2569   1.845   3.046   3.437
  852SOL    HW2 2570   1.762   3.181   3.474
  853SOL     OW 2571   1.064   3.209   3.202
  853SOL    HW1 2572   0.984   3.186   3.257
  853SOL    HW2 2573   1.147   3.183   3.251
  854SOL     OW 2574   1.592   3.491   3.487
  854SOL    HW1 2575   1.619   3.525   3.397
  854SOL    HW2 2576   1.671   3.453   3.533
  855SOL     OW 2577   1.111   3.057   2.962
  855SOL    HW1 2578   1.071   3.101   3.043
  855SOL    HW2 2579   1.070   3.094   2.879
  856SOL     OW 2580   1.638   2.961   2.941
  856SOL    HW1 2581   1.643   3.042   3.000
  856SOL    HW2 2582   1.552   2.963   2.890
  857SOL     OW 2583   0.915   1.951   3.264
  857SOL    HW1 2584   0.940   1.931   3.169
  857SOL    HW2 2585   0.987   2.007   3.306
  858SOL     OW 2586   0.980   2.978   3.581
  858SOL    HW1 2587   0.881   2.984   3.591
  858SOL    HW2 2588   1.003   2.898   3.525
  859SOL     OW 2589   0.705   2.912   2.230
  859SOL    HW1 2590   0.691   2.919   2.329
  859SOL    HW2 2591   0.789   2.861   2.212
  860SOL     OW 2592   0.410   2.675   3.113
  860SOL    HW1 2593   0.496   2.687   3.163
  860SOL    HW2 2594   0.368   2.588   3.140
  861SOL     OW 2595   1.274   2.248   3.124
  861SOL    HW1 2596   1.295   2.322   3.188
  861SOL    HW2 2597   1.185   2.265   3.081
  862SOL     OW 2598   0.064   3.426   3.193
  862SOL    HW1 2599   0.018   3.508   3.159
  862SOL    HW2 2600   0.162   3.445   3.202
  863SOL     OW 2601   0.367   2.962   2.363
  863SOL    HW1 2602   0.360   3.045   2.307
  863SOL    HW2 2603   0.371   2.882   2.303
  864SOL     OW 2604   0.566   2.399   2.727
  864SOL    HW1 2605   0.578   2.465   2.653
  864SOL    HW2 2606   0.612   2.433   2.810
  865SOL     OW 2607   1.252   3.210   2.250
  865SOL    HW1 2608   1.302   3.287   2.290
  865SOL    HW2 2609   1.157   3.212   2.282
  866SOL     OW 2610   1.272   3.307   3.004
  866SOL    HW1 2611   1.319   3.320   3.091
  866SOL    HW2 2612   1.206   3.233   3.013
  867SOL     OW 2613   1.582   2.501   2.334
  867SOL    HW1 2614   1.551   2.562   2.407
  867SOL    HW2 2615   1.632   2.553   2.265
  868SOL     OW 2616   0.354   3.372   3.191
  868SOL    HW1 2617   0.333   3.328   3.104
  868SOL    HW2 2618   0.451   3.398   3.194
  869SOL     OW 2619   0.402   2.613   3.460
  869SOL    HW1 2620   0.470   2.668   3.413
  869SOL    HW2 2621   0.442   2.525   3.487
  870SOL     OW 2622   1.587   2.641   3.532
  870SOL    HW1 2623   1.495   2.679   3.527
  870SOL    HW2 2624   1.647   2.688   3.467
  871SOL     OW 2625   1.013   1.967   3.632
  871SOL    HW1 2626   1.019   2.052   3.580
  871SOL    HW2 2627   1.045   1.891   3.575
  872SOL     OW 2628   0.504   1.912   3.602
  872SOL    HW1 2629   0.462   1.855   3.532
  872SOL    HW2 2630   0.438   1.981   3.634
  873SOL     OW 2631   0.573   2.732   2.891
  873SOL    HW1 2632   0.617   2.821   2.882
  873SOL    HW2 2633   0.510   2.732   2.968
  874SOL     OW 2634   1.360   2.724   2.907
  874SOL    HW1 2635   1.285   2.724   2.841
  874SOL    HW2 2636   1.397   2.632   2.916
  875SOL     OW 2637   1.209   2.387   2.137
  875SOL    HW1 2638   1.222   2.303   2.191
  875SOL    HW2 2639   1.180   2.461   2.197
  876SOL     OW 2640   0.307   2.075   3.093
  876SOL    HW1 2641   0.284   2.112   3.183
  876SOL    HW2 2642   0.277   1.980   3.087
  877SOL     OW 2643   0.037   3.172   3.144
  877SOL    HW1 2644   0.090   3.123   3.212
  877SOL    HW2 2645   0.059   3.270   3.149
  878SOL     OW 2646   0.732   2.496   2.926
  878SOL    HW1 2647   0.791   2.470   2.850
  878SOL    HW2 2648   0.704   2.592   2.915
  879SOL     OW 2649   1.728   2.797   3.716
  879SOL    HW1 2650   1.682   2.790   3.627
  879SOL    HW2 2651   1.666   2.841   3.782
  880SOL     OW 2652   0.307   1.925   2.480
  880SOL    HW1 2653   0.296   2.019   2.513
  880SOL    HW2 2654   0.302   1.862   2.557
  881SOL     OW 2655   1.622   2.229   2.236
  881SOL    HW1 2656   1.624   2.153   2.300
  881SOL    HW2 2657   1.574   2.306   2.276
  882SOL     OW 2658   1.023   2.628   2.828
  882SOL    HW1 2659   1.038   2.649   2.924
  882SOL    HW2 2660   0.993   2.533   2.819
  883SOL     OW 2661   0.980   3.435   3.562
  883SOL    HW1 2662   0.960   3.479   3.474
  883SOL    HW2 2663   1.019   3.344   3.546
  884SOL     OW 2664   1.859   3.380   3.467
  884SOL    HW1 2665   1.873   3.407   3.372
  884SOL    HW2 2666   1.942   3.402   3.520
  885SOL     OW 2667   0.350   2.760   3.666
  885SOL    HW1 2668   0.426   2.804   3.714
  885SOL    HW2 2669   0.385   2.713   3.584
  886SOL     OW 2670   1.540   2.136   1.987
  886SOL    HW1 2671   1.479   2.061   2.010
  886SOL    HW2 2672   1.562   2.188   2.070
  887SOL     OW 2673   1.303   2.700   1.904
  887SOL    HW1 2674   1.337   2.607   1.919
  887SOL    HW2 2675   1.321   2.727   1.809
  888SOL     OW 2676   1.068   3.195   2.711
  888SOL    HW1 2677   1.075   3.111   2.656
  888SOL    HW2 2678   1.130   3.264   2.675
  889SOL     OW 2679   0.319   2.672   2.811
  889SOL    HW1 2680   0.412   2.708   2.816
  889SOL    HW2 2681   0.313   2.587   2.863
  890SOL     OW 2682   0.339   2.371   2.868
  890SOL    HW1 2683   0.287   2.288   2.851
  890SOL    HW2 2684   0.416   2.376   2.804
  891SOL     OW 2685   1.138   2.242   3.540
  891SOL    HW1 2686   1.093   2.305   3.604
  891SOL    HW2 2687   1.231   2.273   3.523
  892SOL     OW 2688   1.160   2.069   3.339
  892SOL    HW1 2689   1.160   2.133   3.416
  892SOL    HW2 2690   1.188   2.117   3.256
  893SOL     OW 2691   0.008   3.188   2.062
  893SOL    HW1 2692  -0.085   3.209   2.031
  893SOL    HW2 2693   0.018   3.089   2.075
  894SOL     OW 2694   0.088   3.663   2.789
  894SOL    HW1 2695   0.046   3.577   2.762
  894SOL    HW2 2696   0.182   3.666   2.755
  895SOL     OW 2697   0.504   3.430   2.772
  895SOL    HW1 2698   0.570   3.504   2.781
  895SOL    HW2 2699   0.548   3.351   2.730
  896SOL     OW 2700   1.002   2.658   3.100
  896SOL    HW1 2701   1.043   2.626   3.186
  896SOL    HW2 2702   0.906   2.631   3.097
  897SOL     OW 2703   0.040   2.406   2.976
  897SOL    HW1 2704   0.125   2.373   2.935
  897SOL    HW2 2705   0.053   2.421   3.074
  898SOL     OW 2706   0.189   2.382   3.584
  898SOL    HW1 2707   0.248   2.342   3.514
  898SOL    HW2 2708   0.131   2.453   3.543
  899SOL     OW 2709   1.369   2.812   3.522
  899SOL    HW1 2710   1.408   2.901   3.542
  899SOL    HW2 2711   1.379   2.792   3.425
  900SOL     OW 2712   0.815   2.434   2.187
  900SOL    HW1 2713   0.822   2.345   2.141
  900SOL    HW2 2714   0.721   2.468   2.179
  901SOL     OW 2715   1.657   2.466   3.068
  901SOL    HW1 2716   1.619   2.397   3.130
  901SOL    HW2 2717   1.739   2.430   3.024
  902SOL     OW 2718   0.252   3.426   3.606
  902SOL    HW1 2719   0.222   3.483   3.682
  902SOL    HW2 2720   0.245   3.329   3.632
  903SOL     OW 2721   0.671   2.326   3.131
  903SOL    HW1 2722   0.637   2.237   3.101
  903SOL    HW2 2723   0.697   2.380   3.051
  904SOL     OW 2724   0.930   3.540   3.327
  904SOL    HW1 2725   0.906   3.522   3.232
  904SOL    HW2 2726   0.960   3.634   3.337
  905SOL     OW 2727   0.473   2.362   2.053
  905SOL    HW1 2728   0.534   2.442   2.057
  905SOL    HW2 2729   0.378   2.393   2.060
  906SOL     OW 2730   0.159   2.999   3.328
  906SOL    HW1 2731   0.181   2.938   3.404
  906SOL    HW2 2732   0.169   2.950   3.242
  907SOL     OW 2733   1.347   2.921   3.096
  907SOL    HW1 2734   1.371   2.858   3.022
  907SOL    HW2 2735   1.257   2.961   3.078
  908SOL     OW 2736   1.302   2.717   2.171
  908SOL    HW1 2737   1.216   2.686   2.213
  908SOL    HW2 2738   1.298   2.703   2.072
  909SOL     OW 2739   1.759   3.609   3.016
  909SOL    HW1 2740   1.820   3.639   2.943
  909SOL    HW2 2741   1.721   3.520   2.994
  910SOL     OW 2742   1.252   3.593   2.990
  910SOL    HW1 2743   1.336   3.598   2.936
  910SOL    HW2 2744   1.229   3.497   3.008
  911SOL     OW 2745   0.083   3.120   2.884
  911SOL    HW1 2746   0.078   3.119   2.984
  911SOL    HW2 2747   0.000   3.079   2.846
  912SOL     OW 2748   0.688   3.524   3.578
  912SOL    HW1 2749   0.632   3.605   3.587
  912SOL    HW2 2750   0.740   3.528   3.492
  913SOL     OW 2751   1.726   1.997   2.385
  913SOL    HW1 2752   1.799   1.980   2.318
  913SOL    HW2 2753   1.695   1.910   2.423
  914SOL     OW 2754   1.388   3.435   2.339
  914SOL    HW1 2755   1.455   3.447   2.265
  914SOL    HW2 2756   1.348   3.524   2.362
  915SOL     OW 2757   0.130   3.656   3.713
  915SOL    HW1 2758   0.089   3.582   3.766
  915SOL    HW2 2759   0.194   3.707   3.771
  916SOL     OW 2760   1.280   2.789   2.534
  916SOL    HW1 2761   1.340   2.708   2.536
  916SOL    HW2 2762   1.320   2.858   2.474
  917SOL     OW 2763   0.830   3.135   3.284
  917SOL    HW1 2764   0.825   3.168   3.379
  917SOL    HW2 2765   0.744   3.154   3.238
  918SOL     OW 2766   0.672   3.478   2.016
  918SOL    HW1 2767   0.681   3.488   1.917
  918SOL    HW2 2768   0.632   3.389   2.037
  919SOL     OW 2769   1.650   3.582   3.256
  919SOL    HW1 2770   1.703   3.592   3.172
  919SOL    HW2 2771   1.623   3.672   3.290
  920SOL     OW 2772   1.841   2.037   2.825
  920SOL    HW1 2773   1.880   1.952   2.789
  920SOL    HW2 2774   1.743   2.039   2.806
  921SOL     OW 2775   0.263   2.188   2.582
  921SOL    HW1 2776   0.184   2.239   2.548
  921SOL    HW2 2777   0.254   2.173   2.680
  922SOL     OW 2778   1.194   3.474   1.893
  922SOL    HW1 2779   1.200   3.381   1.930
  922SOL    HW2 2780   1.135   3.474   1.813
  923SOL     OW 2781   0.822   2.864   3.234
  923SOL    HW1 2782   0.862   2.863   3.142
  923SOL    HW2 2783   0.832   2.956   3.274
  924SOL     OW 2784   0.916   2.772   2.153
  924SOL    HW1 2785   0.979   2.810   2.085
  924SOL    HW2 2786   0.956   2.689   2.192
  925SOL     OW 2787   1.504   3.469   1.906
  925SOL    HW1 2788   1.412   3.506   1.913
  925SOL    HW2 2789   1.542   3.489   1.816
  926SOL     OW 2790   0.372   3.150   3.352
  926SOL    HW1 2791   0.359   3.243   3.318
  926SOL    HW2 2792   0.288   3.098   3.339
  927SOL     OW 2793   1.614   3.154   3.151
  927SOL    HW1 2794   1.674   3.157   3.231
  927SOL    HW2 2795   1.539   3.218   3.164
  928SOL     OW 2796   1.039   2.960   2.558
  928SOL    HW1 2797   0.969   2.913   2.612
  928SOL    HW2 2798   1.098   2.892   2.515
  929SOL     OW 2799   1.014   2.098   2.833
  929SOL    HW1 2800   1.006   2.062   2.740
  929SOL    HW2 2801   1.012   2.022   2.898
  930SOL     OW 2802   0.590   3.349   2.353
  930SOL    HW1 2803   0.632   3.291   2.283
  930SOL    HW2 2804   0.546   3.428   2.309
  931SOL     OW 2805   1.709   2.247   3.243
  931SOL    HW1 2806   1.782   2.316   3.247
  931SOL    HW2 2807   1.737   2.172   3.184
  932SOL     OW 2808   0.255   3.210   2.152
  932SOL    HW1 2809   0.159   3.211   2.125
  932SOL    HW2 2810   0.267   3.263   2.236
  933SOL     OW 2811   0.105   2.875   3.588
  933SOL    HW1 2812   0.028   2.842   3.642
  933SOL    HW2 2813   0.190   2.845   3.630
  934SOL     OW 2814   0.672   2.065   3.351
  934SOL    HW1 2815   0.762   2.049   3.311
  934SOL    HW2 2816   0.680   2.070   3.450
  935SOL     OW 2817   0.075   2.207   1.895
  935SOL    HW1 2818  -0.017   2.179   1.866
  935SOL    HW2 2819   0.106   2.284   1.839
  936SOL     OW 2820   1.440   2.718   3.260
  936SOL    HW1 2821   1.383   2.770   3.197
  936SOL    HW2 2822   1.536   2.730   3.236
  937SOL     OW 2823   0.072   2.028   2.180
  937SOL    HW1 2824   0.055   2.111   2.126
  937SOL    HW2 2825   0.162   1.991   2.158
  938SOL     OW 2826   1.183   3.197   1.981
  938SOL    HW1 2827   1.084   3.186   1.983
  938SOL    HW2 2828   1.217   3.212   2.074
  939SOL     OW 2829   0.613   2.704   3.293
  939SOL    HW1 2830   0.669   2.785   3.276
  939SOL    HW2 2831   0.672   2.624   3.296
  940SOL     OW 2832   1.493   3.629   2.821
  940SOL    HW1 2833   1.526   3.693   2.752
  940SOL    HW2 2834   1.559   3.623   2.896
  941SOL     OW 2835   0.716   2.427   3.570
  941SOL    HW1 2836   0.735   2.492   3.644
  941SOL    HW2 2837   0.776   2.347   3.579
  942SOL     OW 2838   1.450   3.082   3.495
  942SOL    HW1 2839   1.441   3.072   3.594
  942SOL    HW2 2840   1.546   3.075   3.469
  943SOL     OW 2841   0.390   3.603   3.422
  943SOL    HW1 2842   0.299   3.644   3.420
  943SOL    HW2 2843   0.383   3.509   3.454
  944SOL     OW 2844   1.674   2.745   3.116
  944SOL    HW1 2845   1.647   2.656   3.079
  944SOL    HW2 2846   1.675   2.813   3.043
  945SOL     OW 2847   1.225   2.187   2.311
  945SOL    HW1 2848   1.290   2.113   2.300
  945SOL    HW2 2849   1.245   2.237   2.395
  946SOL     OW 2850   0.594   2.607   2.514
  946SOL    HW1 2851   0.644   2.692   2.495
  946SOL    HW2 2852   0.506   2.609   2.466
  947SOL     OW 2853   1.777   2.204   3.504
  947SOL    HW1 2854   1.760   2.235   3.410
  947SOL    HW2 2855   1.693   2.167   3.542
  948SOL     OW 2856   1.730   2.796   3.379
  948SOL    HW1 2857   1.768   2.887   3.394
  948SOL    HW2 2858   1.722   2.779   3.280
  949SOL     OW 2859   0.859   3.236   1.878
  949SOL    HW1 2860   0.813   3.251   1.966
  949SOL    HW2 2861   0.903   3.321   1.848
  950SOL     OW 2862   0.661   3.652   2.815
  950SOL    HW1 2863   0.615   3.740   2.802
  950SOL    HW2 2864   0.760   3.664   2.808
  951SOL     OW 2865   0.859   2.818   2.723
  951SOL    HW1 2866   0.913   2.749   2.771
  951SOL    HW2 2867   0.827   2.887   2.789
  952SOL     OW 2868   1.083   2.846   1.949
  952SOL    HW1 2869   1.060   2.899   1.867
  952SOL    HW2 2870   1.164   2.790   1.930
  953SOL     OW 2871   1.861   3.431   2.713
  953SOL    HW1 2872   1.790   3.419   2.643
  953SOL    HW2 2873   1.862   3.352   2.773
  954SOL     OW 2874   0.221   3.176   3.706
  954SOL    HW1 2875   0.156   3.103   3.685
  954SOL    HW2 2876   0.225   3.190   3.804
  955SOL     OW 2877   0.079   3.102   2.515
  955SOL    HW1 2878   0.078   3.055   2.603
  955SOL    HW2 2879   0.161   3.074   2.464
  956SOL     OW 2880   0.672   3.253   3.486
  956SOL    HW1 2881   0.594   3.203   3.524
  956SOL    HW2 2882   0.669   3.348   3.517
  957SOL     OW 2883   1.824   2.054   3.089
  957SOL    HW1 2884   1.820   1.964   3.133
  957SOL    HW2 2885   1.827   2.043   2.990
  958SOL     OW 2886   0.428   2.286   2.382
  958SOL    HW1 2887   0.458   2.214   2.320
  958SOL    HW2 2888   0.389   2.246   2.465
  959SOL     OW 2889   1.705   3.349   2.966
  959SOL    HW1 2890   1.612   3.324   2.939
  959SOL    HW2 2891   1.731   3.299   3.048
  960SOL     OW 2892   0.317   2.409   3.142
  960SOL    HW1 2893   0.355   2.350   3.214
  960SOL    HW2 2894   0.357   2.383   3.054
  961SOL     OW 2895   0.812   3.448   2.549
  961SOL    HW1 2896   0.844   3.458   2.455
  961SOL    HW2 2897   0.733   3.386   2.551
  962SOL     OW 2898   1.424   2.076   2.974
  962SOL    HW1 2899   1.476   2.011   3.029
  962SOL    HW2 2900   1.375   2.139   3.035
  963SOL     OW 2901   1.001   1.896   3.016
  963SOL    HW1 2902   0.938   1.824   2.985
  963SOL    HW2 2903   1.094   1.860   3.016
  964SOL     OW 2904   0.770   3.192   2.163
  964SOL    HW1 2905   0.724   3.105   2.180
  964SOL    HW2 2906   0.861   3.189   2.204
  965SOL     OW 2907   0.618   3.429   3.146
  965SOL    HW1 2908   0.613   3.511   3.203
  965SOL    HW2 2909   0.707   3.426   3.101
  966SOL     OW 2910   1.352   1.914   2.030
  966SOL    HW1 2911   1.387   1.873   1.946
  966SOL    HW2 2912   1.262   1.876   2.050
  967SOL     OW 2913   1.300   2.315   2.553
  967SOL    HW1 2914   1.241   2.395   2.557
  967SOL    HW2 2915   1.315   2.280   2.646
  968SOL     OW 2916   1.593   2.083   2.744
  968SOL    HW1 2917   1.509   2.082   2.798
  968SOL    HW2 2918   1.595   2.166   2.688
  969SOL     OW 2919   0.039   2.939   2.162
  969SOL    HW1 2920   0.138   2.928   2.153
  969SOL    HW2 2921  -0.001   2.853   2.194
  970SOL     OW 2922   0.875   3.508   2.199
  970SOL    HW1 2923   0.798   3.473   2.145
  970SOL    HW2 2924   0.843   3.579   2.261
  971SOL     OW 2925   0.230   2.490   3.837
  971SOL    HW1 2926   0.137   2.488   3.874
  971SOL    HW2 2927   0.231   2.451   3.745
  972SOL     OW 2928   0.225   2.137   4.720
  972SOL    HW1 2929   0.260   2.120   4.812
  972SOL    HW2 2930   0.137   2.092   4.708
  973SOL     OW 2931   0.019   2.230   4.371
  973SOL    HW1 2932  -0.063   2.273   4.410
  973SOL    HW2 2933  -0.009   2.157   4.308
  974SOL     OW 2934   1.555   3.373   4.427
  974SOL    HW1 2935   1.498   3.357   4.508
  974SOL    HW2 2936   1.496   3.383   4.347
  975SOL     OW 2937   1.135   2.565   4.441
  975SOL    HW1 2938   1.192   2.643   4.416
  975SOL    HW2 2939   1.075   2.591   4.517
  976SOL     OW 2940   1.755   2.469   3.955
  976SOL    HW1 2941   1.743   2.456   3.856
  976SOL    HW2 2942   1.725   2.388   4.004
  977SOL     OW 2943   0.768   3.006   4.747
  977SOL    HW1 2944   0.690   3.023   4.807
  977SOL    HW2 2945   0.802   3.093   4.711
  978SOL     OW 2946   0.685   2.874   4.389
  978SOL    HW1 2947   0.754   2.858   4.459
  978SOL    HW2 2948   0.612   2.931   4.427
  979SOL     OW 2949   0.335   3.297   4.785
  979SOL    HW1 2950   0.257   3.266   4.732
  979SOL    HW2 2951   0.393   3.355   4.728
  980SOL     OW 2952   1.603   2.309   4.461
  980SOL    HW1 2953   1.529   2.355   4.411
  980SOL    HW2 2954   1.654   2.377   4.514
  981SOL     OW 2955   0.231   3.575   4.207
  981SOL    HW1 2956   0.265   3.652   4.261
  981SOL    HW2 2957   0.275   3.575   4.117
  982SOL     OW 2958   0.230   3.296   4.262
  982SOL    HW1 2959   0.204   3.392   4.262
  982SOL    HW2 2960   0.159   3.242   4.307
  983SOL     OW 2961   0.240   2.953   4.610
  983SOL    HW1 2962   0.254   2.869   4.662
  983SOL    HW2 2963   0.185   3.017   4.665
  984SOL     OW 2964   0.606   2.826   3.847
  984SOL    HW1 2965   0.613   2.910   3.793
  984SOL    HW2 2966   0.652   2.839   3.935
  985SOL     OW 2967   0.122   2.505   4.287
  985SOL    HW1 2968   0.077   2.417   4.304
  985SOL    HW2 2969   0.121   2.559   4.371
  986SOL     OW 2970   1.842   3.629   4.083
  986SOL    HW1 2971   1.896   3.600   4.163
  986SOL    HW2 2972   1.872   3.719   4.054
  987SOL     OW 2973   0.027   3.458   3.841
  987SOL    HW1 2974   0.008   3.362   3.862
  987SOL    HW2 2975  -0.006   3.516   3.916
  988SOL     OW 2976   1.689   2.784   4.336
  988SOL    HW1 2977   1.784   2.755   4.344
  988SOL    HW2 2978   1.681   2.849   4.261
  989SOL     OW 2979   1.641   2.970   4.156
  989SOL    HW1 2980   1.727   2.972   4.104
  989SOL    HW2 2981   1.655   3.017   4.244
  990SOL     OW 2982   0.613   3.227   4.450
  990SOL    HW1 2983   0.564   3.140   4.459
  990SOL    HW2 2984   0.590   3.270   4.363
  991SOL     OW 2985   0.809   1.866   4.226
  991SOL    HW1 2986   0.849   1.957   4.217
  991SOL    HW2 2987   0.709   1.874   4.232
  992SOL     OW 2988   1.525   2.861   3.914
  992SOL    HW1 2989   1.462   2.785   3.927
  992SOL    HW2 2990   1.573   2.879   4.000
  993SOL     OW 2991   1.466   3.279   4.677
  993SOL    HW1 2992   1.407   3.285   4.757
  993SOL    HW2 2993   1.451   3.191   4.631
  994SOL     OW 2994   1.667   3.576   4.296
  994SOL    HW1 2995   1.626   3.553   4.208
  994SOL    HW2 2996   1.649   3.502   4.361
  995SOL     OW 2997   0.598   2.591   3.994
  995SOL    HW1 2998   0.622   2.660   3.926
  995SOL    HW2 2999   0.520   2.624   4.048
  996SOL     OW 3000   1.281   2.207   4.668
  996SOL    HW1 3001   1.195   2.157   4.655
  996SOL    HW2 3002   1.343   2.153   4.724
  997SOL     OW 3003   1.576   3.524   4.031
  997SOL    HW1 3004   1.665   3.570   4.034
  997SOL    HW2 3005   1.555   3.500   3.936
  998SOL     OW 3006   1.041   2.563   4.153
  998SOL    HW1 3007   1.067   2.559   4.249
  998SOL    HW2 3008   0.956   2.512   4.139
  999SOL     OW 3009   0.076   2.673   4.513
  999SOL    HW1 3010   0.175   2.661   4.522
  999SOL    HW2 3011   0.052   2.768   4.534
 1000SOL     OW 3012   0.865   2.210   3.919
 1000SOL    HW1 3013   0.924   2.273   3.870
 1000SOL    HW2 3014   0.884   2.116   3.890
 1001SOL     OW 3015   1.362   3.006   4.269
 1001SOL    HW1 3016   1.445   2.977   4.221
 1001SOL    HW2 3017   1.313   3.073   4.213
 1002SOL     OW 3018   0.550   2.058   4.609
 1002SOL    HW1 3019   0.545   2.053   4.709
 1002SOL    HW2 3020   0.552   2.154   4.580
 1003SOL     OW 3021   1.008   3.318   4.201
 1003SOL    HW1 3022   0.962   3.390   4.149
 1003SOL    HW2 3023   1.004   3.338   4.299
 1004SOL     OW 3024   0.351   3.663   4.577
 1004SOL    HW1 3025   0.401   3.577   4.583
 1004SOL    HW2 3026   0.416   3.740   4.574
 1005SOL     OW 3027   1.795   2.928   4.597
 1005SOL    HW1 3028   1.733   2.913   4.521
 1005SOL    HW2 3029   1.743   2.939   4.682
 1006SOL     OW 3030   0.321   2.805   3.966
 1006SOL    HW1 3031   0.403   2.844   3.924
 1006SOL    HW2 3032   0.294   2.723   3.917
 1007SOL     OW 3033   1.458   2.597   4.452
 1007SOL    HW1 3034   1.453   2.532   4.527
 1007SOL    HW2 3035   1.538   2.656   4.465
 1008SOL     OW 3036   1.111   3.638   3.961
 1008SOL    HW1 3037   1.051   3.576   4.011
 1008SOL    HW2 3038   1.142   3.594   3.876
 1009SOL     OW 3039   1.632   3.239   3.805
 1009SOL    HW1 3040   1.600   3.333   3.795
 1009SOL    HW2 3041   1.556   3.176   3.793
 1010SOL     OW 3042   0.464   3.605   4.047
 1010SOL    HW1 3043   0.497   3.644   4.133
 1010SOL    HW2 3044   0.540   3.598   3.982
 1011SOL     OW 3045   1.400   1.969   4.150
 1011SOL    HW1 3046   1.376   1.932   4.060
 1011SOL    HW2 3047   1.499   1.985   4.154
 1012SOL     OW 3048   0.249   3.647   4.965
 1012SOL    HW1 3049   0.306   3.582   5.015
 1012SOL    HW2 3050   0.233   3.614   4.872
 1013SOL     OW 3051   0.940   3.560   4.628
 1013SOL    HW1 3052   1.020   3.503   4.649
 1013SOL    HW2 3053   0.891   3.520   4.551
 1014SOL     OW 3054   0.382   2.562   4.204
 1014SOL    HW1 3055   0.427   2.472   4.201
 1014SOL    HW2 3056   0.288   2.551   4.237
 1015SOL     OW 3057   0.614   1.984   3.841
 1015SOL    HW1 3058   0.712   1.962   3.848
 1015SOL    HW2 3059   0.583   1.967   3.748
 1016SOL     OW 3060   0.922   2.365   4.623
 1016SOL    HW1 3061   0.897   2.356   4.527
 1016SOL    HW2 3062   0.970   2.283   4.654
 1017SOL     OW 3063   0.539   1.926   4.236
 1017SOL    HW1 3064   0.458   1.927   4.294
 1017SOL    HW2 3065   0.542   2.009   4.181
 1018SOL     OW 3066   1.434   3.050   3.765
 1018SOL    HW1 3067   1.466   2.974   3.822
 1018SOL    HW2 3068   1.342   3.077   3.795
 1019SOL     OW 3069   0.297   1.897   3.895
 1019SOL    HW1 3070   0.346   1.981   3.874
 1019SOL    HW2 3071   0.359   1.832   3.940
 1020SOL     OW 3072   0.935   2.098   4.204
 1020SOL    HW1 3073   0.887   2.139   4.126
 1020SOL    HW2 3074   1.034   2.096   4.185
 1021SOL     OW 3075   1.227   3.432   4.517
 1021SOL    HW1 3076   1.248   3.506   4.452
 1021SOL    HW2 3077   1.295   3.432   4.590
 1022SOL     OW 3078   0.459   3.014   4.465
 1022SOL    HW1 3079   0.388   2.987   4.530
 1022SOL    HW2 3080   0.433   2.986   4.372
 1023SOL     OW 3081   1.271   3.659   4.315
 1023SOL    HW1 3082   1.315   3.723   4.251
 1023SOL    HW2 3083   1.221   3.711   4.385
 1024SOL     OW 3084   1.032   2.411   3.740
 1024SOL    HW1 3085   0.991   2.493   3.701
 1024SOL    HW2 3086   1.096   2.437   3.813
 1025SOL     OW 3087   0.866   2.316   4.366
 1025SOL    HW1 3088   0.834   2.388   4.304
 1025SOL    HW2 3089   0.890   2.235   4.313
 1026SOL     OW 3090   1.017   1.901   4.477
 1026SOL    HW1 3091   0.945   1.906   4.408
 1026SOL    HW2 3092   0.993   1.832   4.546
 1027SOL     OW 3093   1.429   3.035   4.591
 1027SOL    HW1 3094   1.374   2.951   4.584
 1027SOL    HW2 3095   1.455   3.064   4.499
 1028SOL     OW 3096   1.857   2.695   4.101
 1028SOL    HW1 3097   1.899   2.631   4.165
 1028SOL    HW2 3098   1.819   2.644   4.023
 1029SOL     OW 3099   0.488   3.247   3.898
 1029SOL    HW1 3100   0.401   3.232   3.945
 1029SOL    HW2 3101   0.471   3.273   3.803
 1030SOL     OW 3102   1.664   3.142   4.381
 1030SOL    HW1 3103   1.763   3.150   4.395
 1030SOL    HW2 3104   1.619   3.226   4.412
 1031SOL     OW 3105   1.390   2.437   3.802
 1031SOL    HW1 3106   1.336   2.416   3.883
 1031SOL    HW2 3107   1.481   2.396   3.811
 1032SOL     OW 3108   0.527   2.118   4.052
 1032SOL    HW1 3109   0.554   2.059   3.977
 1032SOL    HW2 3110   0.527   2.213   4.021
 1033SOL     OW 3111   1.638   2.961   4.803
 1033SOL    HW1 3112   1.643   3.042   4.862
 1033SOL    HW2 3113   1.552   2.963   4.752
 1034SOL     OW 3114   0.705   2.912   4.092
 1034SOL    HW1 3115   0.691   2.919   4.191
 1034SOL    HW2 3116   0.789   2.861   4.074
 1035SOL     OW 3117   0.367   2.962   4.225
 1035SOL    HW1 3118   0.360   3.045   4.169
 1035SOL    HW2 3119   0.371   2.882   4.165
 1036SOL     OW 3120   0.566   2.399   4.589
 1036SOL    HW1 3121   0.578   2.465   4.515
 1036SOL    HW2 3122   0.612   2.433   4.672
 1037SOL     OW 3123   1.252   3.210   4.112
 1037SOL    HW1 3124   1.302   3.287   4.152
 1037SOL    HW2 3125   1.157   3.212   4.144
 1038SOL     OW 3126   1.582   2.501   4.196
 1038SOL    HW1 3127   1.551   2.562   4.269
 1038SOL    HW2 3128   1.632   2.553   4.127
 1039SOL     OW 3129   0.573   2.732   4.753
 1039SOL    HW1 3130   0.617   2.821   4.744
 1039SOL    HW2 3131   0.510   2.732   4.830
 1040SOL     OW 3132   1.209   2.387   3.999
 1040SOL    HW1 3133   1.222   2.303   4.053
 1040SOL    HW2 3134   1.180   2.461   4.059
 1041SOL     OW 3135   0.307   2.075   4.955
 1041SOL    HW1 3136   0.284   2.112   5.045
 1041SOL    HW2 3137   0.277   1.980   4.949
 1042SOL     OW 3138   0.732   2.496   4.788
 1042SOL    HW1 3139   0.791   2.470   4.712
 1042SOL    HW2 3140   0.704   2.592   4.777
 1043SOL     OW 3141   0.307   1.925   4.342
 1043SOL    HW1 3142   0.296   2.019   4.375
 1043SOL    HW2 3143   0.302   1.862   4.419
 1044SOL     OW 3144   1.622   2.229   4.098
 1044SOL    HW1 3145   1.624   2.153   4.162
 1044SOL    HW2 3146   1.574   2.306   4.138
 1045SOL     OW 3147   1.540   2.136   3.849
 1045SOL    HW1 3148   1.479   2.061   3.872
 1045SOL    HW2 3149   1.562   2.188   3.932
 1046SOL     OW 3150   1.303   2.700   3.766
 1046SOL    HW1 3151   1.337   2.607   3.781
 1046SOL    HW2 3152   1.321   2.727   3.671
 1047SOL     OW 3153   1.068   3.195   4.573
 1047SOL    HW1 3154   1.075   3.111   4.518
 1047SOL    HW2 3155   1.130   3.264   4.537
 1048SOL     OW 3156   0.319   2.672   4.673
 1048SOL    HW1 3157   0.412   2.708   4.678
 1048SOL    HW2 3158   0.313   2.587   4.725
 1049SOL     OW 3159   0.339   2.371   4.730
 1049SOL    HW1 3160   0.287   2.288   4.713
 1049SOL    HW2 3161   0.416   2.376   4.666
 1050SOL     OW 3162   0.008   3.188   3.924
 1050SOL    HW1 3163  -0.085   3.209   3.893
 1050SOL    HW2 3164   0.018   3.089   3.937
 1051SOL     OW 3165   0.088   3.663   4.651
 1051SOL    HW1 3166   0.046   3.577   4.624
 1051SOL    HW2 3167   0.182   3.666   4.617
 1052SOL     OW 3168   0.504   3.430   4.634
 1052SOL    HW1 3169   0.570   3.504   4.643
 1052SOL    HW2 3170   0.548   3.351   4.592
 1053SOL     OW 3171   0.815   2.434   4.049
 1053SOL    HW1 3172   0.822   2.345   4.003
 1053SOL    HW2 3173   0.721   2.468   4.041
 1054SOL     OW 3174   0.671   2.326   4.993
 1054SOL    HW1 3175   0.637   2.237   4.963
 1054SOL    HW2 3176   0.697   2.380   4.913
 1055SOL     OW 3177   0.473   2.362   3.915
 1055SOL    HW1 3178   0.534   2.442   3.919
 1055SOL    HW2 3179   0.378   2.393   3.922
 1056SOL     OW 3180   1.302   2.717   4.033
 1056SOL    HW1 3181   1.216   2.686   4.075
 1056SOL    HW2 3182   1.298   2.703   3.934
 1057SOL     OW 3183   1.759   3.609   4.878
 1057SOL    HW1 3184   1.820   3.639   4.805
 1057SOL    HW2 3185   1.721   3.520   4.856
 1058SOL     OW 3186   0.083   3.120   4.746
 1058SOL    HW1 3187   0.078   3.119   4.846
 1058SOL    HW2 3188   0.000   3.079   4.708
 1059SOL     OW 3189   1.726   1.997   4.247
 1059SOL    HW1 3190   1.799   1.980   4.180
 1059SOL    HW2 3191   1.695   1.910   4.285
 1060SOL     OW 3192   1.388   3.435   4.201
 1060SOL    HW1 3193   1.455   3.447   4.127
 1060SOL    HW2 3194   1.348   3.524   4.224
 1061SOL     OW 3195   1.280   2.789   4.396
 1061SOL    HW1 3196   1.340   2.708   4.398
 1061SOL    HW2 3197   1.320   2.858   4.336
 1062SOL     OW 3198   0.672   3.478   3.878
 1062SOL    HW1 3199   0.681   3.488   3.779
 1062SOL    HW2 3200   0.632   3.389   3.899
 1063SOL     OW 3201   1.841   2.037   4.687
 1063SOL    HW1 3202   1.880   1.952   4.651
 1063SOL    HW2 3203   1.743   2.039   4.668
 1064SOL     OW 3204   0.263   2.188   4.444
 1064SOL    HW1 3205   0.184   2.239   4.410
 1064SOL    HW2 3206   0.254   2.173   4.542
 1065SOL     OW 3207   1.194   3.474   3.755
 1065SOL    HW1 3208   1.200   3.381   3.792
 1065SOL    HW2 3209   1.135   3.474   3.675
 1066SOL     OW 3210   0.916   2.772   4.015
 1066SOL    HW1 3211   0.979   2.810   3.947
 1066SOL    HW2 3212   0.956   2.689   4.054
 1067SOL     OW 3213   1.504   3.469   3.768
 1067SOL    HW1 3214   1.412   3.506   3.775
 1067SOL    HW2 3215   1.542   3.489   3.678
 1068SOL     OW 3216   1.039   2.960   4.420
 1068SOL    HW1 3217   0.969   2.913   4.474
 1068SOL    HW2 3218   1.098   2.892   4.377
 1069SOL     OW 3219   0.590   3.349   4.215
 1069SOL    HW1 3220   0.632   3.291   4.145
 1069SOL    HW2 3221   0.546   3.428   4.171
 1070SOL     OW 3222   0.255   3.210   4.014
 1070SOL    HW1 3223   0.159   3.211   3.987
 1070SOL    HW2 3224   0.267   3.263   4.098
 1071SOL     OW 3225   0.075   2.207   3.757
 1071SOL    HW1 3226  -0.017   2.179   3.728
 1071SOL    HW2 3227   0.106   2.284   3.701
 1072SOL     OW 3228   0.072   2.028   4.042
 1072SOL    HW1 3229   0.055   2.111   3.988
 1072SOL    HW2 3230   0.162   1.991   4.020
 1073SOL     OW 3231   1.183   3.197   3.843
 1073SOL    HW1 3232   1.084   3.186   3.845
 1073SOL    HW2 3233   1.217   3.212   3.936
 1074SOL     OW 3234   1.674   2.745   4.978
 1074SOL    HW1 3235   1.647   2.656   4.941
 1074SOL    HW2 3236   1.675   2.813   4.905
 1075SOL     OW 3237   1.225   2.187   4.173
 1075SOL    HW1 3238   1.290   2.113   4.162
 1075SOL    HW2 3239   1.245   2.237   4.257
 1076SOL     OW 3240   0.594   2.607   4.376
 1076SOL    HW1 3241   0.644   2.692   4.357
 1076SOL    HW2 3242   0.506   2.609   4.328
 1077SOL     OW 3243   0.859   3.236   3.740
 1077SOL    HW1 3244   0.813   3.251   3.828
 1077SOL    HW2 3245   0.903   3.321   3.710
 1078SOL     OW 3246   0.661   3.652   4.677
 1078SOL    HW1 3247   0.615   3.740   4.664
 1078SOL    HW2 3248   0.760   3.664   4.670
 1079SOL     OW 3249   0.859   2.818   4.585
 1079SOL    HW1 3250   0.913   2.749   4.633
 1079SOL    HW2 3251   0.827   2.887   4.651
 1080SOL     OW 3252   1.083   2.846   3.811
 1080SOL    HW1 3253   1.060   2.899   3.729
 1080SOL    HW2 3254   1.164   2.790   3.792
 1081SOL     OW 3255   1.861   3.431   4.575
 1081SOL    HW1 3256   1.790   3.419   4.505
 1081SOL    HW2 3257   1.862   3.352   4.635
 1082SOL     OW 3258   0.079   3.102   4.377
 1082SOL    HW1 3259   0.078   3.055   4.465
 1082SOL    HW2 3260   0.161   3.074   4.326
 1083SOL     OW 3261   1.824   2.054   4.951
 1083SOL    HW1 3262   1.820   1.964   4.995
 1083SOL    HW2 3263   1.827   2.043   4.852
 1084SOL     OW 3264   0.428   2.286   4.244
 1084SOL    HW1 3265   0.458   2.214   4.182
 1084SOL    HW2 3266   0.389   2.246   4.327
 1085SOL     OW 3267   0.812   3.448   4.411
 1085SOL    HW1 3268   0.844   3.458   4.317
 1085SOL    HW2 3269   0.733   3.386   4.413
 1086SOL     OW 3270   0.770   3.192   4.025
 1086SOL    HW1 3271   0.724   3.105   4.042
 1086SOL    HW2 3272   0.861   3.189   4.066
 1087SOL     OW 3273   1.352   1.914   3.892
 1087SOL    HW1 3274   1.387   1.873   3.808
 1087SOL    HW2 3275   1.262   1.876   3.912
 1088SOL     OW 3276   1.300   2.315   4.415
 1088SOL    HW1 3277   1.241   2.395   4.419
 1088SOL    HW2 3278   1.315   2.280   4.508
 1089SOL     OW 3279   1.593   2.083   4.606
 1089SOL    HW1 3280   1.509   2.082   4.660
 1089SOL    HW2 3281   1.595   2.166   4.550
 1090SOL     OW 3282   0.039   2.939   4.024
 1090SOL    HW1 3283   0.138   2.928   4.015
 1090SOL    HW2 3284  -0.001   2.853   4.056
 1091SOL     OW 3285   0.875   3.508   4.061
 1091SOL    HW1 3286   0.798   3.473   4.007
 1091SOL    HW2 3287   0.843   3.579   4.123
 1092SOL     OW 3288   0.230   4.352   0.113
 1092SOL    HW1 3289   0.137   4.350   0.150
 1092SOL    HW2 3290   0.231   4.313   0.021
 1093SOL     OW 3291   0.225   3.999   0.996
 1093SOL    HW1 3292   0.260   3.982   1.088
 1093SOL    HW2 3293   0.137   3.954   0.984
 1094SOL     OW 3294   0.019   4.092   0.647
 1094SOL    HW1 3295  -0.063   4.135   0.686
 1094SOL    HW2 3296  -0.009   4.019   0.584
 1095SOL     OW 3297   1.135   4.427   0.717
 1095SOL    HW1 3298   1.192   4.505   0.692
 1095SOL    HW2 3299   1.075   4.453   0.793
 1096SOL     OW 3300   1.755   4.331   0.231
 1096SOL    HW1 3301   1.743   4.318   0.132
 1096SOL    HW2 3302   1.725   4.250   0.280
 1097SOL     OW 3303   0.768   4.868   1.023
 1097SOL    HW1 3304   0.690   4.885   1.083
 1097SOL    HW2 3305   0.802   4.955   0.987
 1098SOL     OW 3306   0.850   4.522   1.823
 1098SOL    HW1 3307   0.846   4.598   1.888
 1098SOL    HW2 3308   0.872   4.558   1.732
 1099SOL     OW 3309   0.685   4.736   0.665
 1099SOL    HW1 3310   0.754   4.720   0.735
 1099SOL    HW2 3311   0.612   4.793   0.703
 1100SOL     OW 3312   0.438   4.116   1.499
 1100SOL    HW1 3313   0.520   4.060   1.508
 1100SOL    HW2 3314   0.357   4.058   1.503
 1101SOL     OW 3315   1.603   4.171   0.737
 1101SOL    HW1 3316   1.529   4.217   0.687
 1101SOL    HW2 3317   1.654   4.239   0.790
 1102SOL     OW 3318   0.240   4.815   0.886
 1102SOL    HW1 3319   0.254   4.731   0.938
 1102SOL    HW2 3320   0.185   4.879   0.941
 1103SOL     OW 3321   1.594   3.838   1.480
 1103SOL    HW1 3322   1.576   3.905   1.408
 1103SOL    HW2 3323   1.591   3.884   1.569
 1104SOL     OW 3324   0.122   4.367   0.563
 1104SOL    HW1 3325   0.077   4.279   0.580
 1104SOL    HW2 3326   0.121   4.421   0.647
 1105SOL     OW 3327   0.113   4.461   1.597
 1105SOL    HW1 3328   0.201   4.448   1.642
 1105SOL    HW2 3329   0.100   4.558   1.575
 1106SOL     OW 3330   0.809   3.728   0.502
 1106SOL    HW1 3331   0.849   3.819   0.493
 1106SOL    HW2 3332   0.709   3.736   0.508
 1107SOL     OW 3333   0.197   4.700   1.264
 1107SOL    HW1 3334   0.286   4.655   1.250
 1107SOL    HW2 3335   0.124   4.635   1.245
 1108SOL     OW 3336   1.525   4.723   0.190
 1108SOL    HW1 3337   1.462   4.647   0.203
 1108SOL    HW2 3338   1.573   4.741   0.276
 1109SOL     OW 3339   0.317   3.975   1.801
 1109SOL    HW1 3340   0.388   4.046   1.807
 1109SOL    HW2 3341   0.229   4.014   1.829
 1110SOL     OW 3342   0.598   4.453   0.270
 1110SOL    HW1 3343   0.622   4.522   0.202
 1110SOL    HW2 3344   0.520   4.486   0.324
 1111SOL     OW 3345   1.281   4.069   0.944
 1111SOL    HW1 3346   1.195   4.019   0.931
 1111SOL    HW2 3347   1.343   4.015   1.000
 1112SOL     OW 3348   0.807   4.329   1.465
 1112SOL    HW1 3349   0.760   4.326   1.554
 1112SOL    HW2 3350   0.756   4.274   1.399
 1113SOL     OW 3351   1.394   4.193   1.674
 1113SOL    HW1 3352   1.374   4.236   1.762
 1113SOL    HW2 3353   1.472   4.131   1.683
 1114SOL     OW 3354   0.973   4.614   1.572
 1114SOL    HW1 3355   1.019   4.530   1.543
 1114SOL    HW2 3356   0.917   4.648   1.497
 1115SOL     OW 3357   0.991   4.134   1.242
 1115SOL    HW1 3358   0.914   4.168   1.296
 1115SOL    HW2 3359   0.957   4.083   1.163
 1116SOL     OW 3360   1.041   4.425   0.429
 1116SOL    HW1 3361   1.067   4.421   0.525
 1116SOL    HW2 3362   0.956   4.374   0.415
 1117SOL     OW 3363   0.076   4.535   0.789
 1117SOL    HW1 3364   0.175   4.523   0.798
 1117SOL    HW2 3365   0.052   4.630   0.810
 1118SOL     OW 3366   0.865   4.072   0.195
 1118SOL    HW1 3367   0.924   4.135   0.146
 1118SOL    HW2 3368   0.884   3.978   0.166
 1119SOL     OW 3369   1.719   4.309   1.831
 1119SOL    HW1 3370   1.693   4.398   1.795
 1119SOL    HW2 3371   1.717   4.241   1.758
 1120SOL     OW 3372   0.550   3.920   0.885
 1120SOL    HW1 3373   0.545   3.915   0.985
 1120SOL    HW2 3374   0.552   4.016   0.856
 1121SOL     OW 3375   1.458   4.459   0.728
 1121SOL    HW1 3376   1.453   4.394   0.803
 1121SOL    HW2 3377   1.538   4.518   0.741
 1122SOL     OW 3378   0.202   4.009   1.498
 1122SOL    HW1 3379   0.122   4.069   1.485
 1122SOL    HW2 3380   0.192   3.960   1.584
 1123SOL     OW 3381   1.400   3.831   0.426
 1123SOL    HW1 3382   1.376   3.794   0.336
 1123SOL    HW2 3383   1.499   3.847   0.430
 1124SOL     OW 3384   0.382   4.424   0.480
 1124SOL    HW1 3385   0.427   4.334   0.477
 1124SOL    HW2 3386   0.288   4.413   0.513
 1125SOL     OW 3387   1.547   3.946   1.729
 1125SOL    HW1 3388   1.542   3.983   1.821
 1125SOL    HW2 3389   1.475   3.877   1.717
 1126SOL     OW 3390   0.614   3.846   0.117
 1126SOL    HW1 3391   0.712   3.824   0.124
 1126SOL    HW2 3392   0.583   3.829   0.024
 1127SOL     OW 3393   0.781   3.988   1.749
 1127SOL    HW1 3394   0.848   3.927   1.792
 1127SOL    HW2 3395   0.708   4.007   1.814
 1128SOL     OW 3396   1.351   4.314   1.433
 1128SOL    HW1 3397   1.379   4.271   1.518
 1128SOL    HW2 3398   1.376   4.410   1.434
 1129SOL     OW 3399   0.922   4.227   0.899
 1129SOL    HW1 3400   0.897   4.218   0.803
 1129SOL    HW2 3401   0.970   4.145   0.930
 1130SOL     OW 3402   0.539   3.788   0.512
 1130SOL    HW1 3403   0.458   3.789   0.570
 1130SOL    HW2 3404   0.542   3.871   0.457
 1131SOL     OW 3405   0.935   3.960   0.480
 1131SOL    HW1 3406   0.887   4.001   0.402
 1131SOL    HW2 3407   1.034   3.958   0.461
 1132SOL     OW 3408   1.076   4.407   1.464
 1132SOL    HW1 3409   0.996   4.346   1.467
 1132SOL    HW2 3410   1.157   4.354   1.440
 1133SOL     OW 3411   1.032   4.273   0.016
 1133SOL    HW1 3412   0.991   4.355  -0.023
 1133SOL    HW2 3413   1.096   4.299   0.089
 1134SOL     OW 3414   0.078   4.280   1.386
 1134SOL    HW1 3415   0.170   4.279   1.345
 1134SOL    HW2 3416   0.072   4.354   1.453
 1135SOL     OW 3417   0.561   3.946   1.147
 1135SOL    HW1 3418   0.599   3.862   1.184
 1135SOL    HW2 3419   0.473   3.965   1.191
 1136SOL     OW 3420   0.866   4.178   0.642
 1136SOL    HW1 3421   0.834   4.250   0.580
 1136SOL    HW2 3422   0.890   4.097   0.589
 1137SOL     OW 3423   1.017   3.763   0.753
 1137SOL    HW1 3424   0.945   3.768   0.684
 1137SOL    HW2 3425   0.993   3.694   0.822
 1138SOL     OW 3426   1.429   4.897   0.867
 1138SOL    HW1 3427   1.374   4.813   0.860
 1138SOL    HW2 3428   1.455   4.926   0.775
 1139SOL     OW 3429   1.466   4.314   0.992
 1139SOL    HW1 3430   1.436   4.219   0.999
 1139SOL    HW2 3431   1.539   4.330   1.058
 1140SOL     OW 3432   1.857   4.557   0.377
 1140SOL    HW1 3433   1.899   4.493   0.441
 1140SOL    HW2 3434   1.819   4.506   0.299
 1141SOL     OW 3435   1.390   4.299   0.078
 1141SOL    HW1 3436   1.336   4.278   0.159
 1141SOL    HW2 3437   1.481   4.258   0.087
 1142SOL     OW 3438   0.527   3.980   0.328
 1142SOL    HW1 3439   0.554   3.921   0.253
 1142SOL    HW2 3440   0.527   4.075   0.297
 1143SOL     OW 3441   1.638   4.823   1.079
 1143SOL    HW1 3442   1.643   4.904   1.138
 1143SOL    HW2 3443   1.552   4.825   1.028
 1144SOL     OW 3444   0.915   3.813   1.402
 1144SOL    HW1 3445   0.940   3.793   1.307
 1144SOL    HW2 3446   0.987   3.869   1.444
 1145SOL     OW 3447   0.410   4.537   1.251
 1145SOL    HW1 3448   0.496   4.549   1.301
 1145SOL    HW2 3449   0.368   4.450   1.278
 1146SOL     OW 3450   1.274   4.110   1.262
 1146SOL    HW1 3451   1.295   4.184   1.326
 1146SOL    HW2 3452   1.185   4.127   1.219
 1147SOL     OW 3453   0.566   4.261   0.865
 1147SOL    HW1 3454   0.578   4.327   0.791
 1147SOL    HW2 3455   0.612   4.295   0.948
 1148SOL     OW 3456   1.582   4.363   0.472
 1148SOL    HW1 3457   1.551   4.424   0.545
 1148SOL    HW2 3458   1.632   4.415   0.403
 1149SOL     OW 3459   0.402   4.475   1.598
 1149SOL    HW1 3460   0.470   4.530   1.551
 1149SOL    HW2 3461   0.442   4.387   1.625
 1150SOL     OW 3462   1.587   4.503   1.670
 1150SOL    HW1 3463   1.495   4.541   1.665
 1150SOL    HW2 3464   1.647   4.550   1.605
 1151SOL     OW 3465   1.013   3.829   1.770
 1151SOL    HW1 3466   1.019   3.914   1.718
 1151SOL    HW2 3467   1.045   3.753   1.713
 1152SOL     OW 3468   0.504   3.774   1.740
 1152SOL    HW1 3469   0.462   3.717   1.670
 1152SOL    HW2 3470   0.438   3.843   1.772
 1153SOL     OW 3471   0.573   4.594   1.029
 1153SOL    HW1 3472   0.617   4.683   1.020
 1153SOL    HW2 3473   0.510   4.594   1.106
 1154SOL     OW 3474   1.360   4.586   1.045
 1154SOL    HW1 3475   1.285   4.586   0.979
 1154SOL    HW2 3476   1.397   4.494   1.054
 1155SOL     OW 3477   1.209   4.249   0.275
 1155SOL    HW1 3478   1.222   4.165   0.329
 1155SOL    HW2 3479   1.180   4.323   0.335
 1156SOL     OW 3480   0.307   3.937   1.231
 1156SOL    HW1 3481   0.284   3.974   1.321
 1156SOL    HW2 3482   0.277   3.842   1.225
 1157SOL     OW 3483   0.037   5.034   1.282
 1157SOL    HW1 3484   0.090   4.985   1.350
 1157SOL    HW2 3485   0.059   5.132   1.287
 1158SOL     OW 3486   0.732   4.358   1.064
 1158SOL    HW1 3487   0.791   4.332   0.988
 1158SOL    HW2 3488   0.704   4.454   1.053
 1159SOL     OW 3489   1.728   4.659   1.854
 1159SOL    HW1 3490   1.682   4.652   1.765
 1159SOL    HW2 3491   1.666   4.703   1.920
 1160SOL     OW 3492   0.307   3.787   0.618
 1160SOL    HW1 3493   0.296   3.881   0.651
 1160SOL    HW2 3494   0.302   3.724   0.695
 1161SOL     OW 3495   1.622   4.091   0.374
 1161SOL    HW1 3496   1.624   4.015   0.438
 1161SOL    HW2 3497   1.574   4.168   0.414
 1162SOL     OW 3498   1.023   4.490   0.966
 1162SOL    HW1 3499   1.038   4.511   1.062
 1162SOL    HW2 3500   0.993   4.395   0.957
 1163SOL     OW 3501   0.350   4.622   1.804
 1163SOL    HW1 3502   0.426   4.666   1.852
 1163SOL    HW2 3503   0.385   4.575   1.722
 1164SOL     OW 3504   1.540   3.998   0.125
 1164SOL    HW1 3505   1.479   3.923   0.148
 1164SOL    HW2 3506   1.562   4.050   0.208
 1165SOL     OW 3507   1.303   4.562   0.042
 1165SOL    HW1 3508   1.337   4.469   0.057
 1165SOL    HW2 3509   1.321   4.589  -0.053
 1166SOL     OW 3510   0.319   4.534   0.949
 1166SOL    HW1 3511   0.412   4.570   0.954
 1166SOL    HW2 3512   0.313   4.449   1.001
 1167SOL     OW 3513   0.339   4.233   1.006
 1167SOL    HW1 3514   0.287   4.150   0.989
 1167SOL    HW2 3515   0.416   4.238   0.942
 1168SOL     OW 3516   1.138   4.104   1.678
 1168SOL    HW1 3517   1.093   4.167   1.742
 1168SOL    HW2 3518   1.231   4.135   1.661
 1169SOL     OW 3519   1.160   3.931   1.477
 1169SOL    HW1 3520   1.160   3.995   1.554
 1169SOL    HW2 3521   1.188   3.979   1.394
 1170SOL     OW 3522   1.002   4.520   1.238
 1170SOL    HW1 3523   1.043   4.488   1.324
 1170SOL    HW2 3524   0.906   4.493   1.235
 1171SOL     OW 3525   0.040   4.268   1.114
 1171SOL    HW1 3526   0.125   4.235   1.073
 1171SOL    HW2 3527   0.053   4.283   1.212
 1172SOL     OW 3528   0.189   4.244   1.722
 1172SOL    HW1 3529   0.248   4.204   1.652
 1172SOL    HW2 3530   0.131   4.315   1.681
 1173SOL     OW 3531   1.369   4.674   1.660
 1173SOL    HW1 3532   1.408   4.763   1.680
 1173SOL    HW2 3533   1.379   4.654   1.563
 1174SOL     OW 3534   0.815   4.296   0.325
 1174SOL    HW1 3535   0.822   4.207   0.279
 1174SOL    HW2 3536   0.721   4.330   0.317
 1175SOL     OW 3537   1.657   4.328   1.206
 1175SOL    HW1 3538   1.619   4.259   1.268
 1175SOL    HW2 3539   1.739   4.292   1.162
 1176SOL     OW 3540   0.671   4.188   1.269
 1176SOL    HW1 3541   0.637   4.099   1.239
 1176SOL    HW2 3542   0.697   4.242   1.189
 1177SOL     OW 3543   0.473   4.224   0.191
 1177SOL    HW1 3544   0.534   4.304   0.195
 1177SOL    HW2 3545   0.378   4.255   0.198
 1178SOL     OW 3546   0.159   4.861   1.466
 1178SOL    HW1 3547   0.181   4.800   1.542
 1178SOL    HW2 3548   0.169   4.812   1.380
 1179SOL     OW 3549   1.347   4.783   1.234
 1179SOL    HW1 3550   1.371   4.720   1.160
 1179SOL    HW2 3551   1.257   4.823   1.216
 1180SOL     OW 3552   1.302   4.579   0.309
 1180SOL    HW1 3553   1.216   4.548   0.351
 1180SOL    HW2 3554   1.298   4.565   0.210
 1181SOL     OW 3555   0.903   3.810   0.133
 1181SOL    HW1 3556   0.954   3.811   0.047
 1181SOL    HW2 3557   0.959   3.768   0.204
 1182SOL     OW 3558   1.726   3.859   0.523
 1182SOL    HW1 3559   1.799   3.842   0.456
 1182SOL    HW2 3560   1.695   3.772   0.561
 1183SOL     OW 3561   1.280   4.651   0.672
 1183SOL    HW1 3562   1.340   4.570   0.674
 1183SOL    HW2 3563   1.320   4.720   0.612
 1184SOL     OW 3564   1.841   3.899   0.963
 1184SOL    HW1 3565   1.880   3.814   0.927
 1184SOL    HW2 3566   1.743   3.901   0.944
 1185SOL     OW 3567   0.263   4.050   0.720
 1185SOL    HW1 3568   0.184   4.101   0.686
 1185SOL    HW2 3569   0.254   4.035   0.818
 1186SOL     OW 3570   0.916   4.634   0.291
 1186SOL    HW1 3571   0.979   4.672   0.223
 1186SOL    HW2 3572   0.956   4.551   0.330
 1187SOL     OW 3573   1.014   3.960   0.971
 1187SOL    HW1 3574   1.006   3.924   0.878
 1187SOL    HW2 3575   1.012   3.884   1.036
 1188SOL     OW 3576   1.709   4.109   1.381
 1188SOL    HW1 3577   1.782   4.178   1.385
 1188SOL    HW2 3578   1.737   4.034   1.322
 1189SOL     OW 3579   0.105   4.737   1.726
 1189SOL    HW1 3580   0.028   4.704   1.780
 1189SOL    HW2 3581   0.190   4.707   1.768
 1190SOL     OW 3582   0.672   3.927   1.489
 1190SOL    HW1 3583   0.762   3.911   1.449
 1190SOL    HW2 3584   0.680   3.932   1.588
 1191SOL     OW 3585   0.075   4.069   0.033
 1191SOL    HW1 3586  -0.017   4.041   0.004
 1191SOL    HW2 3587   0.106   4.146  -0.023
 1192SOL     OW 3588   1.440   4.580   1.398
 1192SOL    HW1 3589   1.383   4.632   1.335
 1192SOL    HW2 3590   1.536   4.592   1.374
 1193SOL     OW 3591   0.072   3.890   0.318
 1193SOL    HW1 3592   0.055   3.973   0.264
 1193SOL    HW2 3593   0.162   3.853   0.296
 1194SOL     OW 3594   1.183   5.059   0.119
 1194SOL    HW1 3595   1.084   5.048   0.121
 1194SOL    HW2 3596   1.217   5.074   0.212
 1195SOL     OW 3597   0.613   4.566   1.431
 1195SOL    HW1 3598   0.669   4.647   1.414
 1195SOL    HW2 3599   0.672   4.486   1.434
 1196SOL     OW 3600   0.716   4.289   1.708
 1196SOL    HW1 3601   0.735   4.354   1.782
 1196SOL    HW2 3602   0.776   4.209   1.717
 1197SOL     OW 3603   1.674   4.607   1.254
 1197SOL    HW1 3604   1.647   4.518   1.217
 1197SOL    HW2 3605   1.675   4.675   1.181
 1198SOL     OW 3606   1.225   4.049   0.449
 1198SOL    HW1 3607   1.290   3.975   0.438
 1198SOL    HW2 3608   1.245   4.099   0.533
 1199SOL     OW 3609   0.594   4.469   0.652
 1199SOL    HW1 3610   0.644   4.554   0.633
 1199SOL    HW2 3611   0.506   4.471   0.604
 1200SOL     OW 3612   1.777   4.066   1.642
 1200SOL    HW1 3613   1.760   4.097   1.548
 1200SOL    HW2 3614   1.693   4.029   1.680
 1201SOL     OW 3615   1.730   4.658   1.517
 1201SOL    HW1 3616   1.768   4.749   1.532
 1201SOL    HW2 3617   1.722   4.641   1.418
 1202SOL     OW 3618   0.859   4.680   0.861
 1202SOL    HW1 3619   0.913   4.611   0.909
 1202SOL    HW2 3620   0.827   4.749   0.927
 1203SOL     OW 3621   1.083   4.708   0.087
 1203SOL    HW1 3622   1.060   4.761   0.005
 1203SOL    HW2 3623   1.164   4.652   0.068
 1204SOL     OW 3624   0.079   4.964   0.653
 1204SOL    HW1 3625   0.078   4.917   0.741
 1204SOL    HW2 3626   0.161   4.936   0.602
 1205SOL     OW 3627   1.824   3.916   1.227
 1205SOL    HW1 3628   1.820   3.826   1.271
 1205SOL    HW2 3629   1.827   3.905   1.128
 1206SOL     OW 3630   0.428   4.148   0.520
 1206SOL    HW1 3631   0.458   4.076   0.458
 1206SOL    HW2 3632   0.389   4.108   0.603
 1207SOL     OW 3633   0.317   4.271   1.280
 1207SOL    HW1 3634   0.355   4.212   1.352
 1207SOL    HW2 3635   0.357   4.245   1.192
 1208SOL     OW 3636   1.424   3.938   1.112
 1208SOL    HW1 3637   1.476   3.873   1.167
 1208SOL    HW2 3638   1.375   4.001   1.173
 1209SOL     OW 3639   1.001   3.758   1.154
 1209SOL    HW1 3640   0.938   3.686   1.123
 1209SOL    HW2 3641   1.094   3.722   1.154
 1210SOL     OW 3642   1.352   3.776   0.168
 1210SOL    HW1 3643   1.387   3.735   0.084
 1210SOL    HW2 3644   1.262   3.738   0.188
 1211SOL     OW 3645   1.300   4.177   0.691
 1211SOL    HW1 3646   1.241   4.257   0.695
 1211SOL    HW2 3647   1.315   4.142   0.784
 1212SOL     OW 3648   1.593   3.945   0.882
 1212SOL    HW1 3649   1.509   3.944   0.936
 1212SOL    HW2 3650   1.595   4.028   0.826
 1213SOL     OW 3651   0.230   4.352   1.975
 1213SOL    HW1 3652   0.137   4.350   2.012
 1213SOL    HW2 3653   0.231   4.313   1.883
 1214SOL     OW 3654   0.225   3.999   2.858
 1214SOL    HW1 3655   0.260   3.982   2.950
 1214SOL    HW2 3656   0.137   3.954   2.846
 1215SOL     OW 3657   0.019   4.092   2.509
 1215SOL    HW1 3658  -0.063   4.135   2.548
 1215SOL    HW2 3659  -0.009   4.019   2.446
 1216SOL     OW 3660   1.135   4.427   2.579
 1216SOL    HW1 3661   1.192   4.505   2.554
 1216SOL    HW2 3662   1.075   4.453   2.655
 1217SOL     OW 3663   1.755   4.331   2.093
 1217SOL    HW1 3664   1.743   4.318   1.994
 1217SOL    HW2 3665   1.725   4.250   2.142
 1218SOL     OW 3666   0.768   4.868   2.885
 1218SOL    HW1 3667   0.690   4.885   2.945
 1218SOL    HW2 3668   0.802   4.955   2.849
 1219SOL     OW 3669   0.850   4.522   3.685
 1219SOL    HW1 3670   0.846   4.598   3.750
 1219SOL    HW2 3671   0.872   4.558   3.594
 1220SOL     OW 3672   0.685   4.736   2.527
 1220SOL    HW1 3673   0.754   4.720   2.597
 1220SOL    HW2 3674   0.612   4.793   2.565
 1221SOL     OW 3675   0.438   4.116   3.361
 1221SOL    HW1 3676   0.520   4.060   3.370
 1221SOL    HW2 3677   0.357   4.058   3.365
 1222SOL     OW 3678   1.603   4.171   2.599
 1222SOL    HW1 3679   1.529   4.217   2.549
 1222SOL    HW2 3680   1.654   4.239   2.652
 1223SOL     OW 3681   0.240   4.815   2.748
 1223SOL    HW1 3682   0.254   4.731   2.800
 1223SOL    HW2 3683   0.185   4.879   2.803
 1224SOL     OW 3684   1.594   3.838   3.342
 1224SOL    HW1 3685   1.576   3.905   3.270
 1224SOL    HW2 3686   1.591   3.884   3.431
 1225SOL     OW 3687   0.122   4.367   2.425
 1225SOL    HW1 3688   0.077   4.279   2.442
 1225SOL    HW2 3689   0.121   4.421   2.509
 1226SOL     OW 3690   0.113   4.461   3.459
 1226SOL    HW1 3691   0.201   4.448   3.504
 1226SOL    HW2 3692   0.100   4.558   3.437
 1227SOL     OW 3693   0.809   3.728   2.364
 1227SOL    HW1 3694   0.849   3.819   2.355
 1227SOL    HW2 3695   0.709   3.736   2.370
 1228SOL     OW 3696   0.197   4.700   3.126
 1228SOL    HW1 3697   0.286   4.655   3.112
 1228SOL    HW2 3698   0.124   4.635   3.107
 1229SOL     OW 3699   1.525   4.723   2.052
 1229SOL    HW1 3700   1.462   4.647   2.065
 1229SOL    HW2 3701   1.573   4.741   2.138
 1230SOL     OW 3702   0.317   3.975   3.663
 1230SOL    HW1 3703   0.388   4.046   3.669
 1230SOL    HW2 3704   0.229   4.014   3.691
 1231SOL     OW 3705   0.598   4.453   2.132
 1231SOL    HW1 3706   0.622   4.522   2.064
 1231SOL    HW2 3707   0.520   4.486   2.186
 1232SOL     OW 3708   1.281   4.069   2.806
 1232SOL    HW1 3709   1.195   4.019   2.793
 1232SOL    HW2 3710   1.343   4.015   2.862
 1233SOL     OW 3711   0.807   4.329   3.327
 1233SOL    HW1 3712   0.760   4.326   3.416
 1233SOL    HW2 3713   0.756   4.274   3.261
 1234SOL     OW 3714   1.394   4.193   3.536
 1234SOL    HW1 3715   1.374   4.236   3.624
 1234SOL    HW2 3716   1.472   4.131   3.545
 1235SOL     OW 3717   0.973   4.614   3.434
 1235SOL    HW1 3718   1.019   4.530   3.405
 1235SOL    HW2 3719   0.917   4.648   3.359
 1236SOL     OW 3720   0.991   4.134   3.104
 1236SOL    HW1 3721   0.914   4.168   3.158
 1236SOL    HW2 3722   0.957   4.083   3.025
 1237SOL     OW 3723   1.041   4.425   2.291
 1237SOL    HW1 3724   1.067   4.421   2.387
 1237SOL    HW2 3725   0.956   4.374   2.277
 1238SOL     OW 3726   0.076   4.535   2.651
 1238SOL    HW1 3727   0.175   4.523   2.660
 1238SOL    HW2 3728   0.052   4.630   2.672
 1239SOL     OW 3729   0.865   4.072   2.057
 1239SOL    HW1 3730   0.924   4.135   2.008
 1239SOL    HW2 3731   0.884   3.978   2.028
 1240SOL     OW 3732   1.719   4.309   3.693
 1240SOL    HW1 3733   1.693   4.398   3.657
 1240SOL    HW2 3734   1.717   4.241   3.620
 1241SOL     OW 3735   0.550   3.920   2.747
 1241SOL    HW1 3736   0.545   3.915   2.847
 1241SOL    HW2 3737   0.552   4.016   2.718
 1242SOL     OW 3738   1.458   4.459   2.590
 1242SOL    HW1 3739   1.453   4.394   2.665
 1242SOL    HW2 3740   1.538   4.518   2.603
 1243SOL     OW 3741   0.202   4.009   3.360
 1243SOL    HW1 3742   0.122   4.069   3.347
 1243SOL    HW2 3743   0.192   3.960   3.446
 1244SOL     OW 3744   1.400   3.831   2.288
 1244SOL    HW1 3745   1.376   3.794   2.198
 1244SOL    HW2 3746   1.499   3.847   2.292
 1245SOL     OW 3747   0.382   4.424   2.342
 1245SOL    HW1 3748   0.427   4.334   2.339
 1245SOL    HW2 3749   0.288   4.413   2.375
 1246SOL     OW 3750   1.547   3.946   3.591
 1246SOL    HW1 3751   1.542   3.983   3.683
 1246SOL    HW2 3752   1.475   3.877   3.579
 1247SOL     OW 3753   0.614   3.846   1.979
 1247SOL    HW1 3754   0.712   3.824   1.986
 1247SOL    HW2 3755   0.583   3.829   1.886
 1248SOL     OW 3756   0.781   3.988   3.611
 1248SOL    HW1 3757   0.848   3.927   3.654
 1248SOL    HW2 3758   0.708   4.007   3.676
 1249SOL     OW 3759   1.351   4.314   3.295
 1249SOL    HW1 3760   1.379   4.271   3.380
 1249SOL    HW2 3761   1.376   4.410   3.296
 1250SOL     OW 3762   0.922   4.227   2.761
 1250SOL    HW1 3763   0.897   4.218   2.665
 1250SOL    HW2 3764   0.970   4.145   2.792
 1251SOL     OW 3765   0.539   3.788   2.374
 1251SOL    HW1 3766   0.458   3.789   2.432
 1251SOL    HW2 3767   0.542   3.871   2.319
 1252SOL     OW 3768   0.297   3.759   2.033
 1252SOL    HW1 3769   0.346   3.843   2.012
 1252SOL    HW2 3770   0.359   3.694   2.078
 1253SOL     OW 3771   0.935   3.960   2.342
 1253SOL    HW1 3772   0.887   4.001   2.264
 1253SOL    HW2 3773   1.034   3.958   2.323
 1254SOL     OW 3774   1.076   4.407   3.326
 1254SOL    HW1 3775   0.996   4.346   3.329
 1254SOL    HW2 3776   1.157   4.354   3.302
 1255SOL     OW 3777   1.032   4.273   1.878
 1255SOL    HW1 3778   0.991   4.355   1.839
 1255SOL    HW2 3779   1.096   4.299   1.951
 1256SOL     OW 3780   0.078   4.280   3.248
 1256SOL    HW1 3781   0.170   4.279   3.207
 1256SOL    HW2 3782   0.072   4.354   3.315
 1257SOL     OW 3783   0.561   3.946   3.009
 1257SOL    HW1 3784   0.599   3.862   3.046
 1257SOL    HW2 3785   0.473   3.965   3.053
 1258SOL     OW 3786   0.866   4.178   2.504
 1258SOL    HW1 3787   0.834   4.250   2.442
 1258SOL    HW2 3788   0.890   4.097   2.451
 1259SOL     OW 3789   1.017   3.763   2.615
 1259SOL    HW1 3790   0.945   3.768   2.546
 1259SOL    HW2 3791   0.993   3.694   2.684
 1260SOL     OW 3792   1.429   4.897   2.729
 1260SOL    HW1 3793   1.374   4.813   2.722
 1260SOL    HW2 3794   1.455   4.926   2.637
 1261SOL     OW 3795   1.466   4.314   2.854
 1261SOL    HW1 3796   1.436   4.219   2.861
 1261SOL    HW2 3797   1.539   4.330   2.920
 1262SOL     OW 3798   1.857   4.557   2.239
 1262SOL    HW1 3799   1.899   4.493   2.303
 1262SOL    HW2 3800   1.819   4.506   2.161
 1263SOL     OW 3801   1.390   4.299   1.940
 1263SOL    HW1 3802   1.336   4.278   2.021
 1263SOL    HW2 3803   1.481   4.258   1.949
 1264SOL     OW 3804   0.527   3.980   2.190
 1264SOL    HW1 3805   0.554   3.921   2.115
 1264SOL    HW2 3806   0.527   4.075   2.159
 1265SOL     OW 3807   1.638   4.823   2.941
 1265SOL    HW1 3808   1.643   4.904   3.000
 1265SOL    HW2 3809   1.552   4.825   2.890
 1266SOL     OW 3810   0.915   3.813   3.264
 1266SOL    HW1 3811   0.940   3.793   3.169
 1266SOL    HW2 3812   0.987   3.869   3.306
 1267SOL     OW 3813   0.410   4.537   3.113
 1267SOL    HW1 3814   0.496   4.549   3.163
 1267SOL    HW2 3815   0.368   4.450   3.140
 1268SOL     OW 3816   1.274   4.110   3.124
 1268SOL    HW1 3817   1.295   4.184   3.188
 1268SOL    HW2 3818   1.185   4.127   3.081
 1269SOL     OW 3819   0.566   4.261   2.727
 1269SOL    HW1 3820   0.578   4.327   2.653
 1269SOL    HW2 3821   0.612   4.295   2.810
 1270SOL     OW 3822   1.582   4.363   2.334
 1270SOL    HW1 3823   1.551   4.424   2.407
 1270SOL    HW2 3824   1.632   4.415   2.265
 1271SOL     OW 3825   0.402   4.475   3.460
 1271SOL    HW1 3826   0.470   4.530   3.413
 1271SOL    HW2 3827   0.442   4.387   3.487
 1272SOL     OW 3828   1.587   4.503   3.532
 1272SOL    HW1 3829   1.495   4.541   3.527
 1272SOL    HW2 3830   1.647   4.550   3.467
 1273SOL     OW 3831   1.013   3.829   3.632
 1273SOL    HW1 3832   1.019   3.914   3.580
 1273SOL    HW2 3833   1.045   3.753   3.575
 1274SOL     OW 3834   0.504   3.774   3.602
 1274SOL    HW1 3835   0.462   3.717   3.532
 1274SOL    HW2 3836   0.438   3.843   3.634
 1275SOL     OW 3837   0.573   4.594   2.891
 1275SOL    HW1 3838   0.617   4.683   2.882
 1275SOL    HW2 3839   0.510   4.594   2.968
 1276SOL     OW 3840   1.360   4.586   2.907
 1276SOL    HW1 3841   1.285   4.586   2.841
 1276SOL    HW2 3842   1.397   4.494   2.916
 1277SOL     OW 3843   1.209   4.249   2.137
 1277SOL    HW1 3844   1.222   4.165   2.191
 1277SOL    HW2 3845   1.180   4.323   2.197
 1278SOL     OW 3846   0.307   3.937   3.093
 1278SOL    HW1 3847   0.284   3.974   3.183
 1278SOL    HW2 3848   0.277   3.842   3.087
 1279SOL     OW 3849   0.037   5.034   3.144
 1279SOL    HW1 3850   0.090   4.985   3.212
 1279SOL    HW2 3851   0.059   5.132   3.149
 1280SOL     OW 3852   0.732   4.358   2.926
 1280SOL    HW1 3853   0.791   4.332   2.850
 1280SOL    HW2 3854   0.704   4.454   2.915
 1281SOL     OW 3855   1.728   4.659   3.716
 1281SOL    HW1 3856   1.682   4.652   3.627
 1281SOL    HW2 3857   1.666   4.703   3.782
 1282SOL     OW 3858   0.307   3.787   2.480
 1282SOL    HW1 3859   0.296   3.881   2.513
 1282SOL    HW2 3860   0.302   3.724   2.557
 1283SOL     OW 3861   1.622   4.091   2.236
 1283SOL    HW1 3862   1.624   4.015   2.300
 1283SOL    HW2 3863   1.574   4.168   2.276
 1284SOL     OW 3864   1.023   4.490   2.828
 1284SOL    HW1 3865   1.038   4.511   2.924
 1284SOL    HW2 3866   0.993   4.395   2.819
 1285SOL     OW 3867   0.350   4.622   3.666
 1285SOL    HW1 3868   0.426   4.666   3.714
 1285SOL    HW2 3869   0.385   4.575   3.584
 1286SOL     OW 3870   1.540   3.998   1.987
 1286SOL    HW1 3871   1.479   3.923   2.010
 1286SOL    HW2 3872   1.562   4.050   2.070
 1287SOL     OW 3873   1.303   4.562   1.904
 1287SOL    HW1 3874   1.337   4.469   1.919
 1287SOL    HW2 3875   1.321   4.589   1.809
 1288SOL     OW 3876   0.319   4.534   2.811
 1288SOL    HW1 3877   0.412   4.570   2.816
 1288SOL    HW2 3878   0.313   4.449   2.863
 1289SOL     OW 3879   0.339   4.233   2.868
 1289SOL    HW1 3880   0.287   4.150   2.851
 1289SOL    HW2 3881   0.416   4.238   2.804
 1290SOL     OW 3882   1.138   4.104   3.540
 1290SOL    HW1 3883   1.093   4.167   3.604
 1290SOL    HW2 3884   1.231   4.135   3.523
 1291SOL     OW 3885   1.160   3.931   3.339
 1291SOL    HW1 3886   1.160   3.995   3.416
 1291SOL    HW2 3887   1.188   3.979   3.256
 1292SOL     OW 3888   1.002   4.520   3.100
 1292SOL    HW1 3889   1.043   4.488   3.186
 1292SOL    HW2 3890   0.906   4.493   3.097
 1293SOL     OW 3891   0.040   4.268   2.976
 1293SOL    HW1 3892   0.125   4.235   2.935
 1293SOL    HW2 3893   0.053   4.283   3.074
 1294SOL     OW 3894   0.189   4.244   3.584
 1294SOL    HW1 3895   0.248   4.204   3.514
 1294SOL    HW2 3896   0.131   4.315   3.543
 1295SOL     OW 3897   1.369   4.674   3.522
 1295SOL    HW1 3898   1.408   4.763   3.542
 1295SOL    HW2 3899   1.379   4.654   3.425
 1296SOL     OW 3900   0.815   4.296   2.187
 1296SOL    HW1 3901   0.822   4.207   2.141
 1296SOL    HW2 3902   0.721   4.330   2.179
 1297SOL     OW 3903   1.657   4.328   3.068
 1297SOL    HW1 3904   1.619   4.259   3.130
 1297SOL    HW2 3905   1.739   4.292   3.024
 1298SOL     OW 3906   0.671   4.188   3.131
 1298SOL    HW1 3907   0.637   4.099   3.101
 1298SOL    HW2 3908   0.697   4.242   3.051
 1299SOL     OW 3909   0.473   4.224   2.053
 1299SOL    HW1 3910   0.534   4.304   2.057
 1299SOL    HW2 3911   0.378   4.255   2.060
 1300SOL     OW 3912   0.159   4.861   3.328
 1300SOL    HW1 3913   0.181   4.800   3.404
 1300SOL    HW2 3914   0.169   4.812   3.242
 1301SOL     OW 3915   1.347   4.783   3.096
 1301SOL    HW1 3916   1.371   4.720   3.022
 1301SOL    HW2 3917   1.257   4.823   3.078
 1302SOL     OW 3918   1.302   4.579   2.171
 1302SOL    HW1 3919   1.216   4.548   2.213
 1302SOL    HW2 3920   1.298   4.565   2.072
 1303SOL     OW 3921   1.726   3.859   2.385
 1303SOL    HW1 3922   1.799   3.842   2.318
 1303SOL    HW2 3923   1.695   3.772   2.423
 1304SOL     OW 3924   1.280   4.651   2.534
 1304SOL    HW1 3925   1.340   4.570   2.536
 1304SOL    HW2 3926   1.320   4.720   2.474
 1305SOL     OW 3927   1.841   3.899   2.825
 1305SOL    HW1 3928   1.880   3.814   2.789
 1305SOL    HW2 3929   1.743   3.901   2.806
 1306SOL     OW 3930   0.263   4.050   2.582
 1306SOL    HW1 3931   0.184   4.101   2.548
 1306SOL    HW2 3932   0.254   4.035   2.680
 1307SOL     OW 3933   0.916   4.634   2.153
 1307SOL    HW1 3934   0.979   4.672   2.085
 1307SOL    HW2 3935   0.956   4.551   2.192
 1308SOL     OW 3936   1.014   3.960   2.833
 1308SOL    HW1 3937   1.006   3.924   2.740
 1308SOL    HW2 3938   1.012   3.884   2.898
 1309SOL     OW 3939   1.709   4.109   3.243
 1309SOL    HW1 3940   1.782   4.178   3.247
 1309SOL    HW2 3941   1.737   4.034   3.184
 1310SOL     OW 3942   0.105   4.737   3.588
 1310SOL    HW1 3943   0.028   4.704   3.642
 1310SOL    HW2 3944   0.190   4.707   3.630
 1311SOL     OW 3945   0.672   3.927   3.351
 1311SOL    HW1 3946   0.762   3.911   3.311
 1311SOL    HW2 3947   0.680   3.932   3.450
 1312SOL     OW 3948   0.075   4.069   1.895
 1312SOL    HW1 3949  -0.017   4.041   1.866
 1312SOL    HW2 3950   0.106   4.146   1.839
 1313SOL     OW 3951   1.440   4.580   3.260
 1313SOL    HW1 3952   1.383   4.632   3.197
 1313SOL    HW2 3953   1.536   4.592   3.236
 1314SOL     OW 3954   0.072   3.890   2.180
 1314SOL    HW1 3955   0.055   3.973   2.126
 1314SOL    HW2 3956   0.162   3.853   2.158
 1315SOL     OW 3957   1.183   5.059   1.981
 1315SOL    HW1 3958   1.084   5.048   1.983
 1315SOL    HW2 3959   1.217   5.074   2.074
 1316SOL     OW 3960   0.613   4.566   3.293
 1316SOL    HW1 3961   0.669   4.647   3.276
 1316SOL    HW2 3962   0.672   4.486   3.296
 1317SOL     OW 3963   0.716   4.289   3.570
 1317SOL    HW1 3964   0.735   4.354   3.644
 1317SOL    HW2 3965   0.776   4.209   3.579
 1318SOL     OW 3966   1.674   4.607   3.116
 1318SOL    HW1 3967   1.647   4.518   3.079
 1318SOL    HW2 3968   1.675   4.675   3.043
 1319SOL     OW 3969   1.225   4.049   2.311
 1319SOL    HW1 3970   1.290   3.975   2.300
 1319SOL    HW2 3971   1.245   4.099   2.395
 1320SOL     OW 3972   0.594   4.469   2.514
 1320SOL    HW1 3973   0.644   4.554   2.495
 1320SOL    HW2 3974   0.506   4.471   2.466
 1321SOL     OW 3975   1.777   4.066   3.504
 1321SOL    HW1 3976   1.760   4.097   3.410
 1321SOL    HW2 3977   1.693   4.029   3.542
 1322SOL     OW 3978   1.730   4.658   3.379
 1322SOL    HW1 3979   1.768   4.749   3.394
 1322SOL    HW2 3980   1.722   4.641   3.280
 1323SOL     OW 3981   0.859   4.680   2.723
 1323SOL    HW1 3982   0.913   4.611   2.771
 1323SOL    HW2 3983   0.827   4.749   2.789
 1324SOL     OW 3984   1.083   4.708   1.949
 1324SOL    HW1 3985   1.060   4.761   1.867
 1324SOL    HW2 3986   1.164   4.652   1.930
 1325SOL     OW 3987   0.079   4.964   2.515
 1325SOL    HW1 3988   0.078   4.917   2.603
 1325SOL    HW2 3989   0.161   4.936   2.464
 1326SOL     OW 3990   1.824   3.916   3.089
 1326SOL    HW1 3991   1.820   3.826   3.133
 1326SOL    HW2 3992   1.827   3.905   2.990
 1327SOL     OW 3993   0.428   4.148   2.382
 1327SOL    HW1 3994   0.458   4.076   2.320
 1327SOL    HW2 3995   0.389   4.108   2.465
 1328SOL     OW 3996   0.317   4.271   3.142
 1328SOL    HW1 3997   0.355   4.212   3.214
 1328SOL    HW2 3998   0.357   4.245   3.054
 1329SOL     OW 3999   1.424   3.938   2.974
 1329SOL    HW1 4000   1.476   3.873   3.029
 1329SOL    HW2 4001   1.375   4.001   3.035
 1330SOL     OW 4002   1.001   3.758   3.016
 1330SOL    HW1 4003   0.938   3.686   2.985
 1330SOL    HW2 4004   1.094   3.722   3.016
 1331SOL     OW 4005   1.352   3.776   2.030
 1331SOL    HW1 4006   1.387   3.735   1.946
 1331SOL    HW2 4007   1.262   3.738   2.050
 1332SOL     OW 4008   1.300   4.177   2.553
 1332SOL    HW1 4009   1.241   4.257   2.557
 1332SOL    HW2 4010   1.315   4.142   2.646
 1333SOL     OW 4011   1.593   3.945   2.744
 1333SOL    HW1 4012   1.509   3.944   2.798
 1333SOL    HW2 4013   1.595   4.028   2.688
 1334SOL     OW 4014   0.230   4.352   3.837
 1334SOL    HW1 4015   0.137   4.350   3.874
 1334SOL    HW2 4016   0.231   4.313   3.745
 1335SOL     OW 4017   0.225   3.999   4.720
 1335SOL    HW1 4018   0.260   3.982   4.812
 1335SOL    HW2 4019   0.137   3.954   4.708
 1336SOL     OW 4020   0.019   4.092   4.371
 1336SOL    HW1 4021  -0.063   4.135   4.410
 1336SOL    HW2 4022  -0.009   4.019   4.308
 1337SOL     OW 4023   1.135   4.427   4.441
 1337SOL    HW1 4024   1.192   4.505   4.416
 1337SOL    HW2 4025   1.075   4.453   4.517
 1338SOL     OW 4026   1.755   4.331   3.955
 1338SOL    HW1 4027   1.743   4.318   3.856
 1338SOL    HW2 4028   1.725   4.250   4.004
 1339SOL     OW 4029   0.685   4.736   4.389
 1339SOL    HW1 4030   0.754   4.720   4.459
 1339SOL    HW2 4031   0.612   4.793   4.427
 1340SOL     OW 4032   1.603   4.171   4.461
 1340SOL    HW1 4033   1.529   4.217   4.411
 1340SOL    HW2 4034   1.654   4.239   4.514
 1341SOL     OW 4035   0.240   4.815   4.610
 1341SOL    HW1 4036   0.254   4.731   4.662
 1341SOL    HW2 4037   0.185   4.879   4.665
 1342SOL     OW 4038   0.122   4.367   4.287
 1342SOL    HW1 4039   0.077   4.279   4.304
 1342SOL    HW2 4040   0.121   4.421   4.371
 1343SOL     OW 4041   0.809   3.728   4.226
 1343SOL    HW1 4042   0.849   3.819   4.217
 1343SOL    HW2 4043   0.709   3.736   4.232
 1344SOL     OW 4044   1.525   4.723   3.914
 1344SOL    HW1 4045   1.462   4.647   3.927
 1344SOL    HW2 4046   1.573   4.741   4.000
 1345SOL     OW 4047   0.598   4.453   3.994
 1345SOL    HW1 4048   0.622   4.522   3.926
 1345SOL    HW2 4049   0.520   4.486   4.048
 1346SOL     OW 4050   1.281   4.069   4.668
 1346SOL    HW1 4051   1.195   4.019   4.655
 1346SOL    HW2 4052   1.343   4.015   4.724
 1347SOL     OW 4053   1.041   4.425   4.153
 1347SOL    HW1 4054   1.067   4.421   4.249
 1347SOL    HW2 4055   0.956   4.374   4.139
 1348SOL     OW 4056   0.076   4.535   4.513
 1348SOL    HW1 4057   0.175   4.523   4.522
 1348SOL    HW2 4058   0.052   4.630   4.534
 1349SOL     OW 4059   0.865   4.072   3.919
 1349SOL    HW1 4060   0.924   4.135   3.870
 1349SOL    HW2 4061   0.884   3.978   3.890
 1350SOL     OW 4062   0.550   3.920   4.609
 1350SOL    HW1 4063   0.545   3.915   4.709
 1350SOL    HW2 4064   0.552   4.016   4.580
 1351SOL     OW 4065   1.458   4.459   4.452
 1351SOL    HW1 4066   1.453   4.394   4.527
 1351SOL    HW2 4067   1.538   4.518   4.465
 1352SOL     OW 4068   1.400   3.831   4.150
 1352SOL    HW1 4069   1.376   3.794   4.060
 1352SOL    HW2 4070   1.499   3.847   4.154
 1353SOL     OW 4071   0.382   4.424   4.204
 1353SOL    HW1 4072   0.427   4.334   4.201
 1353SOL    HW2 4073   0.288   4.413   4.237
 1354SOL     OW 4074   0.614   3.846   3.841
 1354SOL    HW1 4075   0.712   3.824   3.848
 1354SOL    HW2 4076   0.583   3.829   3.748
 1355SOL     OW 4077   0.922   4.227   4.623
 1355SOL    HW1 4078   0.897   4.218   4.527
 1355SOL    HW2 4079   0.970   4.145   4.654
 1356SOL     OW 4080   0.539   3.788   4.236
 1356SOL    HW1 4081   0.458   3.789   4.294
 1356SOL    HW2 4082   0.542   3.871   4.181
 1357SOL     OW 4083   0.297   3.759   3.895
 1357SOL    HW1 4084   0.346   3.843   3.874
 1357SOL    HW2 4085   0.359   3.694   3.940
 1358SOL     OW 4086   0.935   3.960   4.204
 1358SOL    HW1 4087   0.887   4.001   4.126
 1358SOL    HW2 4088   1.034   3.958   4.185
 1359SOL     OW 4089   1.032   4.273   3.740
 1359SOL    HW1 4090   0.991   4.355   3.701
 1359SOL    HW2 4091   1.096   4.299   3.813
 1360SOL     OW 4092   0.866   4.178   4.366
 1360SOL    HW1 4093   0.834   4.250   4.304
 1360SOL    HW2 4094   0.890   4.097   4.313
 1361SOL     OW 4095   1.017   3.763   4.477
 1361SOL    HW1 4096   0.945   3.768   4.408
 1361SOL    HW2 4097   0.993   3.694   4.546
 1362SOL     OW 4098   1.429   4.897   4.591
 1362SOL    HW1 4099   1.374   4.813   4.584
 1362SOL    HW2 4100   1.455   4.926   4.499
 1363SOL     OW 4101   1.857   4.557   4.101
 1363SOL    HW1 4102   1.899   4.493   4.165
 1363SOL    HW2 4103   1.819   4.506   4.023
 1364SOL     OW 4104   1.390   4.299   3.802
 1364SOL    HW1 4105   1.336   4.278   3.883
 1364SOL    HW2 4106   1.481   4.258   3.811
 1365SOL     OW 4107   0.527   3.980   4.052
 1365SOL    HW1 4108   0.554   3.921   3.977
 1365SOL    HW2 4109   0.527   4.075   4.021
 1366SOL     OW 4110   1.638   4.823   4.803
 1366SOL    HW1 4111   1.643   4.904   4.862
 1366SOL    HW2 4112   1.552   4.825   4.752
 1367SOL     OW 4113   0.566   4.261   4.589
 1367SOL    HW1 4114   0.578   4.327   4.515
 1367SOL    HW2 4115   0.612   4.295   4.672
 1368SOL     OW 4116   1.582   4.363   4.196
 1368SOL    HW1 4117   1.551   4.424   4.269
 1368SOL    HW2 4118   1.632   4.415   4.127
 1369SOL     OW 4119   0.573   4.594   4.753
 1369SOL    HW1 4120   0.617   4.683   4.744
 1369SOL    HW2 4121   0.510   4.594   4.830
 1370SOL     OW 4122   1.209   4.249   3.999
 1370SOL    HW1 4123   1.222   4.165   4.053
 1370SOL    HW2 4124   1.180   4.323   4.059
 1371SOL     OW 4125   0.307   3.937   4.955
 1371SOL    HW1 4126   0.284   3.974   5.045
 1371SOL    HW2 4127   0.277   3.842   4.949
 1372SOL     OW 4128   0.732   4.358   4.788
 1372SOL    HW1 4129   0.791   4.332   4.712
 1372SOL    HW2 4130   0.704   4.454   4.777
 1373SOL     OW 4131   0.307   3.787   4.342
 1373SOL    HW1 4132   0.296   3.881   4.375
 1373SOL    HW2 4133   0.302   3.724   4.419
 1374SOL     OW 4134   1.622   4.091   4.098
 1374SOL    HW1 4135   1.624   4.015   4.162
 1374SOL    HW2 4136   1.574   4.168   4.138
 1375SOL     OW 4137   1.540   3.998   3.849
 1375SOL    HW1 4138   1.479   3.923   3.872
 1375SOL    HW2 4139   1.562   4.050   3.932
 1376SOL     OW 4140   1.303   4.562   3.766
 1376SOL    HW1 4141   1.337   4.469   3.781
 1376SOL    HW2 4142   1.321   4.589   3.671
 1377SOL     OW 4143   0.319   4.534   4.673
 1377SOL    HW1 4144   0.412   4.570   4.678
 1377SOL    HW2 4145   0.313   4.449   4.725
 1378SOL     OW 4146   0.339   4.233   4.730
 1378SOL    HW1 4147   0.287   4.150   4.713
 1378SOL    HW2 4148   0.416   4.238   4.666
 1379SOL     OW 4149   0.815   4.296   4.049
 1379SOL    HW1 4150   0.822   4.207   4.003
 1379SOL    HW2 4151   0.721   4.330   4.041
 1380SOL     OW 4152   0.671   4.188   4.993
 1380SOL    HW1 4153   0.637   4.099   4.963
 1380SOL    HW2 4154   0.697   4.242   4.913
 1381SOL     OW 4155   0.473   4.224   3.915
 1381SOL    HW1 4156   0.534   4.304   3.919
 1381SOL    HW2 4157   0.378   4.255   3.922
 1382SOL     OW 4158   1.302   4.579   4.033
 1382SOL    HW1 4159   1.216   4.548   4.075
 1382SOL    HW2 4160   1.298   4.565   3.934
 1383SOL     OW 4161   1.726   3.859   4.247
 1383SOL    HW1 4162   1.799   3.842   4.180
 1383SOL    HW2 4163   1.695   3.772   4.285
 1384SOL     OW 4164   1.280   4.651   4.396
 1384SOL    HW1 4165   1.340   4.570   4.398
 1384SOL    HW2 4166   1.320   4.720   4.336
 1385SOL     OW 4167   1.841   3.899   4.687
 1385SOL    HW1 4168   1.880   3.814   4.651
 1385SOL    HW2 4169   1.743   3.901   4.668
 1386SOL     OW 4170   0.263   4.050   4.444
 1386SOL    HW1 4171   0.184   4.101   4.410
 1386SOL    HW2 4172   0.254   4.035   4.542
 1387SOL     OW 4173   0.916   4.634   4.015
 1387SOL    HW1 4174   0.979   4.672   3.947
 1387SOL    HW2 4175   0.956   4.551   4.054
 1388SOL     OW 4176   0.075   4.069   3.757
 1388SOL    HW1 4177  -0.017   4.041   3.728
 1388SOL    HW2 4178   0.106   4.146   3.701
 1389SOL     OW 4179   0.072   3.890   4.042
 1389SOL    HW1 4180   0.055   3.973   3.988
 1389SOL    HW2 4181   0.162   3.853   4.020
 1390SOL     OW 4182   1.183   5.059   3.843
 1390SOL    HW1 4183   1.084   5.048   3.845
 1390SOL    HW2 4184   1.217   5.074   3.936
 1391SOL     OW 4185   1.674   4.607   4.978
 1391SOL    HW1 4186   1.647   4.518   4.941
 1391SOL    HW2 4187   1.675   4.675   4.905
 1392SOL     OW 4188   1.225   4.049   4.173
 1392SOL    HW1 4189   1.290   3.975   4.162
 1392SOL    HW2 4190   1.245   4.099   4.257
 1393SOL     OW 4191   0.594   4.469   4.376
 1393SOL    HW1 4192   0.644   4.554   4.357
 1393SOL    HW2 4193   0.506   4.471   4.328
 1394SOL     OW 4194   0.859   4.680   4.585
 1394SOL    HW1 4195   0.913   4.611   4.633
 1394SOL    HW2 4196   0.827   4.749   4.651
 1395SOL     OW 4197   1.083   4.708   3.811
 1395SOL    HW1 4198   1.060   4.761   3.729
 1395SOL    HW2 4199   1.164   4.652   3.792
 1396SOL     OW 4200   0.079   4.964   4.377
 1396SOL    HW1 4201   0.078   4.917   4.465
 1396SOL    HW2 4202   0.161   4.936   4.326
 1397SOL     OW 4203   1.824   3.916   4.951
 1397SOL    HW1 4204   1.820   3.826   4.995
 1397SOL    HW2 4205   1.827   3.905   4.852
 1398SOL     OW 4206   0.428   4.148   4.244
 1398SOL    HW1 4207   0.458   4.076   4.182
 1398SOL    HW2 4208   0.389   4.108   4.327
 1399SOL     OW 4209   1.352   3.776   3.892
 1399SOL    HW1 4210   1.387   3.735   3.808
 1399SOL    HW2 4211   1.262   3.738   3.912
 1400SOL     OW 4212   1.300   4.177   4.415
 1400SOL    HW1 4213   1.241   4.257   4.419
 1400SOL    HW2 4214   1.315   4.142   4.508
 1401SOL     OW 4215   1.593   3.945   4.606
 1401SOL    HW1 4216   1.509   3.944   4.660
 1401SOL    HW2 4217   1.595   4.028   4.550
 1402SOL     OW 4218   2.092   0.628   0.113
 1402SOL    HW1 4219   1.999   0.626   0.150
 1402SOL    HW2 4220   2.093   0.589   0.021
 1403SOL     OW 4221   2.087   0.275   0.996
 1403SOL    HW1 4222   2.122   0.258   1.088
 1403SOL    HW2 4223   1.999   0.230   0.984
 1404SOL     OW 4224   1.881   0.368   0.647
 1404SOL    HW1 4225   1.799   0.411   0.686
 1404SOL    HW2 4226   1.853   0.295   0.584
 1405SOL     OW 4227   2.431   1.275   1.165
 1405SOL    HW1 4228   2.338   1.268   1.128
 1405SOL    HW2 4229   2.442   1.364   1.209
 1406SOL     OW 4230   3.417   1.511   0.703
 1406SOL    HW1 4231   3.360   1.495   0.784
 1406SOL    HW2 4232   3.358   1.521   0.623
 1407SOL     OW 4233   2.997   0.703   0.717
 1407SOL    HW1 4234   3.054   0.781   0.692
 1407SOL    HW2 4235   2.937   0.729   0.793
 1408SOL     OW 4236   3.617   0.607   0.231
 1408SOL    HW1 4237   3.605   0.594   0.132
 1408SOL    HW2 4238   3.587   0.526   0.280
 1409SOL     OW 4239   2.630   1.144   1.023
 1409SOL    HW1 4240   2.552   1.161   1.083
 1409SOL    HW2 4241   2.664   1.231   0.987
 1410SOL     OW 4242   2.712   0.798   1.823
 1410SOL    HW1 4243   2.708   0.874   1.888
 1410SOL    HW2 4244   2.734   0.834   1.732
 1411SOL     OW 4245   2.547   1.012   0.665
 1411SOL    HW1 4246   2.616   0.996   0.735
 1411SOL    HW2 4247   2.474   1.069   0.703
 1412SOL     OW 4248   2.548   1.161   1.803
 1412SOL    HW1 4249   2.608   1.240   1.817
 1412SOL    HW2 4250   2.462   1.192   1.762
 1413SOL     OW 4251   2.197   1.435   1.061
 1413SOL    HW1 4252   2.119   1.404   1.008
 1413SOL    HW2 4253   2.255   1.493   1.004
 1414SOL     OW 4254   3.322   1.505   1.339
 1414SOL    HW1 4255   3.346   1.599   1.365
 1414SOL    HW2 4256   3.306   1.451   1.421
 1415SOL     OW 4257   2.300   0.392   1.499
 1415SOL    HW1 4258   2.382   0.336   1.508
 1415SOL    HW2 4259   2.219   0.334   1.503
 1416SOL     OW 4260   3.465   0.447   0.737
 1416SOL    HW1 4261   3.391   0.493   0.687
 1416SOL    HW2 4262   3.516   0.515   0.790
 1417SOL     OW 4263   2.093   1.713   0.483
 1417SOL    HW1 4264   2.127   1.790   0.537
 1417SOL    HW2 4265   2.137   1.713   0.393
 1418SOL     OW 4266   2.989   1.341   1.690
 1418SOL    HW1 4267   3.036   1.341   1.778
 1418SOL    HW2 4268   2.941   1.254   1.679
 1419SOL     OW 4269   2.092   1.434   0.538
 1419SOL    HW1 4270   2.066   1.530   0.538
 1419SOL    HW2 4271   2.021   1.380   0.583
 1420SOL     OW 4272   2.102   1.091   0.886
 1420SOL    HW1 4273   2.116   1.007   0.938
 1420SOL    HW2 4274   2.047   1.155   0.941
 1421SOL     OW 4275   2.482   1.786   1.439
 1421SOL    HW1 4276   2.390   1.769   1.474
 1421SOL    HW2 4277   2.510   1.878   1.465
 1422SOL     OW 4278   2.468   0.964   0.123
 1422SOL    HW1 4279   2.475   1.048   0.069
 1422SOL    HW2 4280   2.514   0.977   0.211
 1423SOL     OW 4281   3.456   0.114   1.480
 1423SOL    HW1 4282   3.438   0.181   1.408
 1423SOL    HW2 4283   3.453   0.160   1.569
 1424SOL     OW 4284   1.984   0.643   0.563
 1424SOL    HW1 4285   1.939   0.555   0.580
 1424SOL    HW2 4286   1.983   0.697   0.647
 1425SOL     OW 4287   3.704   1.767   0.359
 1425SOL    HW1 4288   3.758   1.738   0.439
 1425SOL    HW2 4289   3.734   1.857   0.330
 1426SOL     OW 4290   1.889   1.596   0.117
 1426SOL    HW1 4291   1.870   1.500   0.138
 1426SOL    HW2 4292   1.856   1.654   0.192
 1427SOL     OW 4293   3.551   0.922   0.612
 1427SOL    HW1 4294   3.646   0.893   0.620
 1427SOL    HW2 4295   3.543   0.987   0.537
 1428SOL     OW 4296   3.503   1.108   0.432
 1428SOL    HW1 4297   3.589   1.110   0.380
 1428SOL    HW2 4298   3.517   1.155   0.520
 1429SOL     OW 4299   1.975   0.737   1.597
 1429SOL    HW1 4300   2.063   0.724   1.642
 1429SOL    HW2 4301   1.962   0.834   1.575
 1430SOL     OW 4302   2.475   1.365   0.726
 1430SOL    HW1 4303   2.426   1.278   0.735
 1430SOL    HW2 4304   2.452   1.408   0.639
 1431SOL     OW 4305   3.155   1.228   1.423
 1431SOL    HW1 4306   3.192   1.155   1.365
 1431SOL    HW2 4307   3.207   1.233   1.508
 1432SOL     OW 4308   2.671   0.004   0.502
 1432SOL    HW1 4309   2.711   0.095   0.493
 1432SOL    HW2 4310   2.571   0.012   0.508
 1433SOL     OW 4311   2.059   0.976   1.264
 1433SOL    HW1 4312   2.148   0.931   1.250
 1433SOL    HW2 4313   1.986   0.911   1.245
 1434SOL     OW 4314   3.387   0.999   0.190
 1434SOL    HW1 4315   3.324   0.923   0.203
 1434SOL    HW2 4316   3.435   1.017   0.276
 1435SOL     OW 4317   3.049   1.792   1.616
 1435SOL    HW1 4318   3.073   1.852   1.540
 1435SOL    HW2 4319   3.056   1.697   1.586
 1436SOL     OW 4320   2.179   0.251   1.801
 1436SOL    HW1 4321   2.250   0.322   1.807
 1436SOL    HW2 4322   2.091   0.290   1.829
 1437SOL     OW 4323   3.328   1.417   0.953
 1437SOL    HW1 4324   3.269   1.423   1.033
 1437SOL    HW2 4325   3.313   1.329   0.907
 1438SOL     OW 4326   3.529   1.714   0.572
 1438SOL    HW1 4327   3.488   1.691   0.484
 1438SOL    HW2 4328   3.511   1.640   0.637
 1439SOL     OW 4329   2.460   0.729   0.270
 1439SOL    HW1 4330   2.484   0.798   0.202
 1439SOL    HW2 4331   2.382   0.762   0.324
 1440SOL     OW 4332   3.143   0.345   0.944
 1440SOL    HW1 4333   3.057   0.295   0.931
 1440SOL    HW2 4334   3.205   0.291   1.000
 1441SOL     OW 4335   3.438   1.662   0.307
 1441SOL    HW1 4336   3.527   1.708   0.310
 1441SOL    HW2 4337   3.417   1.638   0.212
 1442SOL     OW 4338   2.669   0.605   1.465
 1442SOL    HW1 4339   2.622   0.602   1.554
 1442SOL    HW2 4340   2.618   0.550   1.399
 1443SOL     OW 4341   3.256   0.469   1.674
 1443SOL    HW1 4342   3.236   0.512   1.762
 1443SOL    HW2 4343   3.334   0.407   1.683
 1444SOL     OW 4344   2.835   0.890   1.572
 1444SOL    HW1 4345   2.881   0.806   1.543
 1444SOL    HW2 4346   2.779   0.924   1.497
 1445SOL     OW 4347   2.853   0.410   1.242
 1445SOL    HW1 4348   2.776   0.444   1.296
 1445SOL    HW2 4349   2.819   0.359   1.163
 1446SOL     OW 4350   2.903   0.701   0.429
 1446SOL    HW1 4351   2.929   0.697   0.525
 1446SOL    HW2 4352   2.818   0.650   0.415
 1447SOL     OW 4353   1.938   0.811   0.789
 1447SOL    HW1 4354   2.037   0.799   0.798
 1447SOL    HW2 4355   1.914   0.906   0.810
 1448SOL     OW 4356   1.992   1.821   1.571
 1448SOL    HW1 4357   1.982   1.806   1.670
 1448SOL    HW2 4358   1.906   1.857   1.535
 1449SOL     OW 4359   2.727   0.348   0.195
 1449SOL    HW1 4360   2.786   0.411   0.146
 1449SOL    HW2 4361   2.746   0.254   0.166
 1450SOL     OW 4362   3.581   0.585   1.831
 1450SOL    HW1 4363   3.555   0.674   1.795
 1450SOL    HW2 4364   3.579   0.517   1.758
 1451SOL     OW 4365   3.224   1.144   0.545
 1451SOL    HW1 4366   3.307   1.115   0.497
 1451SOL    HW2 4367   3.175   1.211   0.489
 1452SOL     OW 4368   2.412   0.196   0.885
 1452SOL    HW1 4369   2.407   0.191   0.985
 1452SOL    HW2 4370   2.414   0.292   0.856
 1453SOL     OW 4371   2.870   1.456   0.477
 1453SOL    HW1 4372   2.824   1.528   0.425
 1453SOL    HW2 4373   2.866   1.476   0.575
 1454SOL     OW 4374   2.213   1.801   0.853
 1454SOL    HW1 4375   2.263   1.715   0.859
 1454SOL    HW2 4376   2.278   1.878   0.850
 1455SOL     OW 4377   3.657   1.066   0.873
 1455SOL    HW1 4378   3.595   1.051   0.797
 1455SOL    HW2 4379   3.605   1.077   0.958
 1456SOL     OW 4380   3.089   1.550   1.506
 1456SOL    HW1 4381   3.095   1.473   1.570
 1456SOL    HW2 4382   3.037   1.524   1.426
 1457SOL     OW 4383   2.183   0.943   0.242
 1457SOL    HW1 4384   2.265   0.982   0.200
 1457SOL    HW2 4385   2.156   0.861   0.193
 1458SOL     OW 4386   3.320   0.735   0.728
 1458SOL    HW1 4387   3.315   0.670   0.803
 1458SOL    HW2 4388   3.400   0.794   0.741
 1459SOL     OW 4389   2.323   1.266   1.727
 1459SOL    HW1 4390   2.273   1.267   1.641
 1459SOL    HW2 4391   2.260   1.248   1.803
 1460SOL     OW 4392   2.973   1.776   0.237
 1460SOL    HW1 4393   2.913   1.714   0.287
 1460SOL    HW2 4394   3.004   1.732   0.152
 1461SOL     OW 4395   2.064   0.285   1.498
 1461SOL    HW1 4396   1.984   0.345   1.485
 1461SOL    HW2 4397   2.054   0.236   1.584
 1462SOL     OW 4398   3.494   1.377   0.081
 1462SOL    HW1 4399   3.462   1.471   0.071
 1462SOL    HW2 4400   3.418   1.314   0.069
 1463SOL     OW 4401   2.326   1.743   0.323
 1463SOL    HW1 4402   2.359   1.782   0.409
 1463SOL    HW2 4403   2.402   1.736   0.258
 1464SOL     OW 4404   3.262   0.107   0.426
 1464SOL    HW1 4405   3.238   0.070   0.336
 1464SOL    HW2 4406   3.361   0.123   0.430
 1465SOL     OW 4407   2.111   1.785   1.241
 1465SOL    HW1 4408   2.168   1.720   1.291
 1465SOL    HW2 4409   2.095   1.752   1.148
 1466SOL     OW 4410   2.802   1.698   0.904
 1466SOL    HW1 4411   2.882   1.641   0.925
 1466SOL    HW2 4412   2.753   1.658   0.827
 1467SOL     OW 4413   2.244   0.700   0.480
 1467SOL    HW1 4414   2.289   0.610   0.477
 1467SOL    HW2 4415   2.150   0.689   0.513
 1468SOL     OW 4416   3.409   0.222   1.729
 1468SOL    HW1 4417   3.404   0.259   1.821
 1468SOL    HW2 4418   3.337   0.153   1.717
 1469SOL     OW 4419   2.476   0.122   0.117
 1469SOL    HW1 4420   2.574   0.100   0.124
 1469SOL    HW2 4421   2.445   0.105   0.024
 1470SOL     OW 4422   2.643   0.264   1.749
 1470SOL    HW1 4423   2.710   0.203   1.792
 1470SOL    HW2 4424   2.570   0.283   1.814
 1471SOL     OW 4425   2.750   1.514   1.195
 1471SOL    HW1 4426   2.727   1.489   1.101
 1471SOL    HW2 4427   2.811   1.445   1.234
 1472SOL     OW 4428   3.213   0.590   1.433
 1472SOL    HW1 4429   3.241   0.547   1.518
 1472SOL    HW2 4430   3.238   0.686   1.434
 1473SOL     OW 4431   2.665   1.402   0.924
 1473SOL    HW1 4432   2.755   1.416   0.882
 1473SOL    HW2 4433   2.594   1.404   0.853
 1474SOL     OW 4434   2.784   0.503   0.899
 1474SOL    HW1 4435   2.759   0.494   0.803
 1474SOL    HW2 4436   2.832   0.421   0.930
 1475SOL     OW 4437   2.401   0.064   0.512
 1475SOL    HW1 4438   2.320   0.065   0.570
 1475SOL    HW2 4439   2.404   0.147   0.457
 1476SOL     OW 4440   3.296   1.188   0.041
 1476SOL    HW1 4441   3.328   1.112   0.098
 1476SOL    HW2 4442   3.204   1.215   0.071
 1477SOL     OW 4443   2.159   0.035   0.171
 1477SOL    HW1 4444   2.208   0.119   0.150
 1477SOL    HW2 4445   2.221  -0.030   0.216
 1478SOL     OW 4446   2.797   0.236   0.480
 1478SOL    HW1 4447   2.749   0.277   0.402
 1478SOL    HW2 4448   2.896   0.234   0.461
 1479SOL     OW 4449   2.938   0.683   1.464
 1479SOL    HW1 4450   2.858   0.622   1.467
 1479SOL    HW2 4451   3.019   0.630   1.440
 1480SOL     OW 4452   3.089   1.570   0.793
 1480SOL    HW1 4453   3.110   1.644   0.728
 1480SOL    HW2 4454   3.157   1.570   0.866
 1481SOL     OW 4455   2.321   1.152   0.741
 1481SOL    HW1 4456   2.250   1.125   0.806
 1481SOL    HW2 4457   2.295   1.124   0.648
 1482SOL     OW 4458   3.133   1.797   0.591
 1482SOL    HW1 4459   3.177   1.861   0.527
 1482SOL    HW2 4460   3.083   1.849   0.661
 1483SOL     OW 4461   2.894   0.549   0.016
 1483SOL    HW1 4462   2.853   0.631  -0.023
 1483SOL    HW2 4463   2.958   0.575   0.089
 1484SOL     OW 4464   1.940   0.556   1.386
 1484SOL    HW1 4465   2.032   0.555   1.345
 1484SOL    HW2 4466   1.934   0.630   1.453
 1485SOL     OW 4467   2.423   0.222   1.147
 1485SOL    HW1 4468   2.461   0.138   1.184
 1485SOL    HW2 4469   2.335   0.241   1.191
 1486SOL     OW 4470   2.728   0.454   0.642
 1486SOL    HW1 4471   2.696   0.526   0.580
 1486SOL    HW2 4472   2.752   0.373   0.589
 1487SOL     OW 4473   2.879   0.039   0.753
 1487SOL    HW1 4474   2.807   0.044   0.684
 1487SOL    HW2 4475   2.855  -0.030   0.822
 1488SOL     OW 4476   3.291   1.173   0.867
 1488SOL    HW1 4477   3.236   1.089   0.860
 1488SOL    HW2 4478   3.317   1.202   0.775
 1489SOL     OW 4479   3.328   0.590   0.992
 1489SOL    HW1 4480   3.298   0.495   0.999
 1489SOL    HW2 4481   3.401   0.606   1.058
 1490SOL     OW 4482   3.719   0.833   0.377
 1490SOL    HW1 4483   3.761   0.769   0.441
 1490SOL    HW2 4484   3.681   0.782   0.299
 1491SOL     OW 4485   2.350   1.385   0.174
 1491SOL    HW1 4486   2.263   1.370   0.221
 1491SOL    HW2 4487   2.333   1.411   0.079
 1492SOL     OW 4488   3.526   1.280   0.657
 1492SOL    HW1 4489   3.625   1.288   0.671
 1492SOL    HW2 4490   3.481   1.364   0.688
 1493SOL     OW 4491   3.252   0.575   0.078
 1493SOL    HW1 4492   3.198   0.554   0.159
 1493SOL    HW2 4493   3.343   0.534   0.087
 1494SOL     OW 4494   2.389   0.256   0.328
 1494SOL    HW1 4495   2.416   0.197   0.253
 1494SOL    HW2 4496   2.389   0.351   0.297
 1495SOL     OW 4497   3.616   1.223   1.588
 1495SOL    HW1 4498   3.707   1.184   1.575
 1495SOL    HW2 4499   3.624   1.319   1.612
 1496SOL     OW 4500   2.926   1.347   1.340
 1496SOL    HW1 4501   2.846   1.324   1.395
 1496SOL    HW2 4502   3.009   1.321   1.389
 1497SOL     OW 4503   3.454   1.629   1.625
 1497SOL    HW1 4504   3.481   1.663   1.535
 1497SOL    HW2 4505   3.533   1.591   1.671
 1498SOL     OW 4506   2.973   1.195   1.100
 1498SOL    HW1 4507   2.933   1.239   1.181
 1498SOL    HW2 4508   2.932   1.232   1.017
 1499SOL     OW 4509   3.500   1.099   1.079
 1499SOL    HW1 4510   3.505   1.180   1.138
 1499SOL    HW2 4511   3.414   1.101   1.028
 1500SOL     OW 4512   2.777   0.089   1.402
 1500SOL    HW1 4513   2.802   0.069   1.307
 1500SOL    HW2 4514   2.849   0.145   1.444
 1501SOL     OW 4515   2.842   1.116   1.719
 1501SOL    HW1 4516   2.743   1.122   1.729
 1501SOL    HW2 4517   2.865   1.036   1.663
 1502SOL     OW 4518   2.567   1.050   0.368
 1502SOL    HW1 4519   2.553   1.057   0.467
 1502SOL    HW2 4520   2.651   0.999   0.350
 1503SOL     OW 4521   2.272   0.813   1.251
 1503SOL    HW1 4522   2.358   0.825   1.301
 1503SOL    HW2 4523   2.230   0.726   1.278
 1504SOL     OW 4524   3.136   0.386   1.262
 1504SOL    HW1 4525   3.157   0.460   1.326
 1504SOL    HW2 4526   3.047   0.403   1.219
 1505SOL     OW 4527   1.926   1.564   1.331
 1505SOL    HW1 4528   1.880   1.646   1.297
 1505SOL    HW2 4529   2.024   1.583   1.340
 1506SOL     OW 4530   2.229   1.100   0.501
 1506SOL    HW1 4531   2.222   1.183   0.445
 1506SOL    HW2 4532   2.233   1.020   0.441
 1507SOL     OW 4533   2.428   0.537   0.865
 1507SOL    HW1 4534   2.440   0.603   0.791
 1507SOL    HW2 4535   2.474   0.571   0.948
 1508SOL     OW 4536   3.114   1.348   0.388
 1508SOL    HW1 4537   3.164   1.425   0.428
 1508SOL    HW2 4538   3.019   1.350   0.420
 1509SOL     OW 4539   3.134   1.445   1.142
 1509SOL    HW1 4540   3.181   1.458   1.229
 1509SOL    HW2 4541   3.068   1.371   1.151
 1510SOL     OW 4542   3.444   0.639   0.472
 1510SOL    HW1 4543   3.413   0.700   0.545
 1510SOL    HW2 4544   3.494   0.691   0.403
 1511SOL     OW 4545   2.216   1.510   1.329
 1511SOL    HW1 4546   2.195   1.466   1.242
 1511SOL    HW2 4547   2.313   1.536   1.332
 1512SOL     OW 4548   2.264   0.751   1.598
 1512SOL    HW1 4549   2.332   0.806   1.551
 1512SOL    HW2 4550   2.304   0.663   1.625
 1513SOL     OW 4551   3.449   0.779   1.670
 1513SOL    HW1 4552   3.357   0.817   1.665
 1513SOL    HW2 4553   3.509   0.826   1.605
 1514SOL     OW 4554   2.875   0.105   1.770
 1514SOL    HW1 4555   2.881   0.190   1.718
 1514SOL    HW2 4556   2.907   0.029   1.713
 1515SOL     OW 4557   2.366   0.050   1.740
 1515SOL    HW1 4558   2.324  -0.007   1.670
 1515SOL    HW2 4559   2.300   0.119   1.772
 1516SOL     OW 4560   2.435   0.870   1.029
 1516SOL    HW1 4561   2.479   0.959   1.020
 1516SOL    HW2 4562   2.372   0.870   1.106
 1517SOL     OW 4563   3.222   0.862   1.045
 1517SOL    HW1 4564   3.147   0.862   0.979
 1517SOL    HW2 4565   3.259   0.770   1.054
 1518SOL     OW 4566   3.071   0.525   0.275
 1518SOL    HW1 4567   3.084   0.441   0.329
 1518SOL    HW2 4568   3.042   0.599   0.335
 1519SOL     OW 4569   2.169   0.213   1.231
 1519SOL    HW1 4570   2.146   0.250   1.321
 1519SOL    HW2 4571   2.139   0.118   1.225
 1520SOL     OW 4572   1.899   1.310   1.282
 1520SOL    HW1 4573   1.952   1.261   1.350
 1520SOL    HW2 4574   1.921   1.408   1.287
 1521SOL     OW 4575   2.594   0.634   1.064
 1521SOL    HW1 4576   2.653   0.608   0.988
 1521SOL    HW2 4577   2.566   0.730   1.053
 1522SOL     OW 4578   3.590   0.935   1.854
 1522SOL    HW1 4579   3.544   0.928   1.765
 1522SOL    HW2 4580   3.528   0.979   1.920
 1523SOL     OW 4581   2.169   0.063   0.618
 1523SOL    HW1 4582   2.158   0.157   0.651
 1523SOL    HW2 4583   2.164   0.000   0.695
 1524SOL     OW 4584   3.484   0.367   0.374
 1524SOL    HW1 4585   3.486   0.291   0.438
 1524SOL    HW2 4586   3.436   0.444   0.414
 1525SOL     OW 4587   2.885   0.766   0.966
 1525SOL    HW1 4588   2.900   0.787   1.062
 1525SOL    HW2 4589   2.855   0.671   0.957
 1526SOL     OW 4590   2.842   1.573   1.700
 1526SOL    HW1 4591   2.822   1.617   1.612
 1526SOL    HW2 4592   2.881   1.482   1.684
 1527SOL     OW 4593   3.721   1.518   1.605
 1527SOL    HW1 4594   3.735   1.545   1.510
 1527SOL    HW2 4595   3.804   1.540   1.658
 1528SOL     OW 4596   2.212   0.898   1.804
 1528SOL    HW1 4597   2.288   0.942   1.852
 1528SOL    HW2 4598   2.247   0.851   1.722
 1529SOL     OW 4599   3.402   0.274   0.125
 1529SOL    HW1 4600   3.341   0.199   0.148
 1529SOL    HW2 4601   3.424   0.326   0.208
 1530SOL     OW 4602   3.165   0.838   0.042
 1530SOL    HW1 4603   3.199   0.745   0.057
 1530SOL    HW2 4604   3.183   0.865  -0.053
 1531SOL     OW 4605   2.930   1.333   0.849
 1531SOL    HW1 4606   2.937   1.249   0.794
 1531SOL    HW2 4607   2.992   1.402   0.813
 1532SOL     OW 4608   2.181   0.810   0.949
 1532SOL    HW1 4609   2.274   0.846   0.954
 1532SOL    HW2 4610   2.175   0.725   1.001
 1533SOL     OW 4611   2.201   0.509   1.006
 1533SOL    HW1 4612   2.149   0.426   0.989
 1533SOL    HW2 4613   2.278   0.514   0.942
 1534SOL     OW 4614   3.000   0.380   1.678
 1534SOL    HW1 4615   2.955   0.443   1.742
 1534SOL    HW2 4616   3.093   0.411   1.661
 1535SOL     OW 4617   3.022   0.207   1.477
 1535SOL    HW1 4618   3.022   0.271   1.554
 1535SOL    HW2 4619   3.050   0.255   1.394
 1536SOL     OW 4620   1.870   1.326   0.200
 1536SOL    HW1 4621   1.777   1.347   0.169
 1536SOL    HW2 4622   1.880   1.227   0.213
 1537SOL     OW 4623   1.950   1.801   0.927
 1537SOL    HW1 4624   1.908   1.715   0.900
 1537SOL    HW2 4625   2.044   1.804   0.893
 1538SOL     OW 4626   2.366   1.568   0.910
 1538SOL    HW1 4627   2.432   1.642   0.919
 1538SOL    HW2 4628   2.410   1.489   0.868
 1539SOL     OW 4629   2.864   0.796   1.238
 1539SOL    HW1 4630   2.905   0.764   1.324
 1539SOL    HW2 4631   2.768   0.769   1.235
 1540SOL     OW 4632   1.902   0.544   1.114
 1540SOL    HW1 4633   1.987   0.511   1.073
 1540SOL    HW2 4634   1.915   0.559   1.212
 1541SOL     OW 4635   2.051   0.520   1.722
 1541SOL    HW1 4636   2.110   0.480   1.652
 1541SOL    HW2 4637   1.993   0.591   1.681
 1542SOL     OW 4638   3.231   0.950   1.660
 1542SOL    HW1 4639   3.270   1.039   1.680
 1542SOL    HW2 4640   3.241   0.930   1.563
 1543SOL     OW 4641   2.677   0.572   0.325
 1543SOL    HW1 4642   2.684   0.483   0.279
 1543SOL    HW2 4643   2.583   0.606   0.317
 1544SOL     OW 4644   3.519   0.604   1.206
 1544SOL    HW1 4645   3.481   0.535   1.268
 1544SOL    HW2 4646   3.601   0.568   1.162
 1545SOL     OW 4647   2.114   1.564   1.744
 1545SOL    HW1 4648   2.084   1.621   1.820
 1545SOL    HW2 4649   2.107   1.467   1.770
 1546SOL     OW 4650   2.533   0.464   1.269
 1546SOL    HW1 4651   2.499   0.375   1.239
 1546SOL    HW2 4652   2.559   0.518   1.189
 1547SOL     OW 4653   2.792   1.678   1.465
 1547SOL    HW1 4654   2.768   1.660   1.370
 1547SOL    HW2 4655   2.822   1.772   1.475
 1548SOL     OW 4656   2.335   0.500   0.191
 1548SOL    HW1 4657   2.396   0.580   0.195
 1548SOL    HW2 4658   2.240   0.531   0.198
 1549SOL     OW 4659   2.021   1.137   1.466
 1549SOL    HW1 4660   2.043   1.076   1.542
 1549SOL    HW2 4661   2.031   1.088   1.380
 1550SOL     OW 4662   3.209   1.059   1.234
 1550SOL    HW1 4663   3.233   0.996   1.160
 1550SOL    HW2 4664   3.119   1.099   1.216
 1551SOL     OW 4665   3.164   0.855   0.309
 1551SOL    HW1 4666   3.078   0.824   0.351
 1551SOL    HW2 4667   3.160   0.841   0.210
 1552SOL     OW 4668   3.621   1.747   1.154
 1552SOL    HW1 4669   3.682   1.777   1.081
 1552SOL    HW2 4670   3.583   1.658   1.132
 1553SOL     OW 4671   3.114   1.731   1.128
 1553SOL    HW1 4672   3.198   1.736   1.074
 1553SOL    HW2 4673   3.091   1.635   1.146
 1554SOL     OW 4674   1.945   1.258   1.022
 1554SOL    HW1 4675   1.940   1.257   1.122
 1554SOL    HW2 4676   1.862   1.217   0.984
 1555SOL     OW 4677   2.550   1.662   1.716
 1555SOL    HW1 4678   2.494   1.743   1.725
 1555SOL    HW2 4679   2.602   1.666   1.630
 1556SOL     OW 4680   2.765   0.086   0.133
 1556SOL    HW1 4681   2.816   0.087   0.047
 1556SOL    HW2 4682   2.821   0.044   0.204
 1557SOL     OW 4683   3.588   0.135   0.523
 1557SOL    HW1 4684   3.661   0.118   0.456
 1557SOL    HW2 4685   3.557   0.048   0.561
 1558SOL     OW 4686   3.250   1.573   0.477
 1558SOL    HW1 4687   3.317   1.585   0.403
 1558SOL    HW2 4688   3.210   1.662   0.500
 1559SOL     OW 4689   1.992   1.794   1.851
 1559SOL    HW1 4690   1.951   1.720   1.904
 1559SOL    HW2 4691   2.056   1.845   1.909
 1560SOL     OW 4692   3.142   0.927   0.672
 1560SOL    HW1 4693   3.202   0.846   0.674
 1560SOL    HW2 4694   3.182   0.996   0.612
 1561SOL     OW 4695   2.692   1.273   1.422
 1561SOL    HW1 4696   2.687   1.306   1.517
 1561SOL    HW2 4697   2.606   1.292   1.376
 1562SOL     OW 4698   2.534   1.616   0.154
 1562SOL    HW1 4699   2.543   1.626   0.055
 1562SOL    HW2 4700   2.494   1.527   0.175
 1563SOL     OW 4701   3.512   1.720   1.394
 1563SOL    HW1 4702   3.565   1.730   1.310
 1563SOL    HW2 4703   3.485   1.810   1.428
 1564SOL     OW 4704   3.703   0.175   0.963
 1564SOL    HW1 4705   3.742   0.090   0.927
 1564SOL    HW2 4706   3.605   0.177   0.944
 1565SOL     OW 4707   2.125   0.326   0.720
 1565SOL    HW1 4708   2.046   0.377   0.686
 1565SOL    HW2 4709   2.116   0.311   0.818
 1566SOL     OW 4710   3.056   1.612   0.031
 1566SOL    HW1 4711   3.062   1.519   0.068
 1566SOL    HW2 4712   2.997   1.612  -0.049
 1567SOL     OW 4713   2.684   1.002   1.372
 1567SOL    HW1 4714   2.724   1.001   1.280
 1567SOL    HW2 4715   2.694   1.094   1.412
 1568SOL     OW 4716   2.778   0.910   0.291
 1568SOL    HW1 4717   2.841   0.948   0.223
 1568SOL    HW2 4718   2.818   0.827   0.330
 1569SOL     OW 4719   3.366   1.607   0.044
 1569SOL    HW1 4720   3.274   1.644   0.051
 1569SOL    HW2 4721   3.404   1.627  -0.046
 1570SOL     OW 4722   2.234   1.288   1.490
 1570SOL    HW1 4723   2.221   1.381   1.456
 1570SOL    HW2 4724   2.150   1.236   1.477
 1571SOL     OW 4725   3.476   1.292   1.289
 1571SOL    HW1 4726   3.536   1.295   1.369
 1571SOL    HW2 4727   3.401   1.356   1.302
 1572SOL     OW 4728   2.901   1.098   0.696
 1572SOL    HW1 4729   2.831   1.051   0.750
 1572SOL    HW2 4730   2.960   1.030   0.653
 1573SOL     OW 4731   2.876   0.236   0.971
 1573SOL    HW1 4732   2.868   0.200   0.878
 1573SOL    HW2 4733   2.874   0.160   1.036
 1574SOL     OW 4734   2.452   1.487   0.491
 1574SOL    HW1 4735   2.494   1.429   0.421
 1574SOL    HW2 4736   2.408   1.566   0.447
 1575SOL     OW 4737   3.571   0.385   1.381
 1575SOL    HW1 4738   3.644   0.454   1.385
 1575SOL    HW2 4739   3.599   0.310   1.322
 1576SOL     OW 4740   2.117   1.348   0.290
 1576SOL    HW1 4741   2.021   1.349   0.263
 1576SOL    HW2 4742   2.129   1.401   0.374
 1577SOL     OW 4743   1.967   1.013   1.726
 1577SOL    HW1 4744   1.890   0.980   1.780
 1577SOL    HW2 4745   2.052   0.983   1.768
 1578SOL     OW 4746   2.534   0.203   1.489
 1578SOL    HW1 4747   2.624   0.187   1.449
 1578SOL    HW2 4748   2.542   0.208   1.588
 1579SOL     OW 4749   1.937   0.345   0.033
 1579SOL    HW1 4750   1.845   0.317   0.004
 1579SOL    HW2 4751   1.968   0.422  -0.023
 1580SOL     OW 4752   3.302   0.856   1.398
 1580SOL    HW1 4753   3.245   0.908   1.335
 1580SOL    HW2 4754   3.398   0.868   1.374
 1581SOL     OW 4755   3.045   1.335   0.119
 1581SOL    HW1 4756   2.946   1.324   0.121
 1581SOL    HW2 4757   3.079   1.350   0.212
 1582SOL     OW 4758   2.475   0.842   1.431
 1582SOL    HW1 4759   2.531   0.923   1.414
 1582SOL    HW2 4760   2.534   0.762   1.434
 1583SOL     OW 4761   3.355   1.767   0.959
 1583SOL    HW1 4762   3.388   1.831   0.890
 1583SOL    HW2 4763   3.421   1.761   1.034
 1584SOL     OW 4764   2.578   0.565   1.708
 1584SOL    HW1 4765   2.597   0.630   1.782
 1584SOL    HW2 4766   2.638   0.485   1.717
 1585SOL     OW 4767   3.312   1.220   1.633
 1585SOL    HW1 4768   3.303   1.210   1.732
 1585SOL    HW2 4769   3.408   1.213   1.607
 1586SOL     OW 4770   2.252   1.741   1.560
 1586SOL    HW1 4771   2.161   1.782   1.558
 1586SOL    HW2 4772   2.245   1.647   1.592
 1587SOL     OW 4773   3.536   0.883   1.254
 1587SOL    HW1 4774   3.509   0.794   1.217
 1587SOL    HW2 4775   3.537   0.951   1.181
 1588SOL     OW 4776   3.087   0.325   0.449
 1588SOL    HW1 4777   3.152   0.251   0.438
 1588SOL    HW2 4778   3.107   0.375   0.533
 1589SOL     OW 4779   2.456   0.745   0.652
 1589SOL    HW1 4780   2.506   0.830   0.633
 1589SOL    HW2 4781   2.368   0.747   0.604
 1590SOL     OW 4782   3.639   0.342   1.642
 1590SOL    HW1 4783   3.622   0.373   1.548
 1590SOL    HW2 4784   3.555   0.305   1.680
 1591SOL     OW 4785   3.592   0.934   1.517
 1591SOL    HW1 4786   3.630   1.025   1.532
 1591SOL    HW2 4787   3.584   0.917   1.418
 1592SOL     OW 4788   2.721   1.374   0.016
 1592SOL    HW1 4789   2.675   1.389   0.104
 1592SOL    HW2 4790   2.765   1.459  -0.014
 1593SOL     OW 4791   2.523   1.790   0.953
 1593SOL    HW1 4792   2.477   1.878   0.940
 1593SOL    HW2 4793   2.622   1.802   0.946
 1594SOL     OW 4794   2.721   0.956   0.861
 1594SOL    HW1 4795   2.775   0.887   0.909
 1594SOL    HW2 4796   2.689   1.025   0.927
 1595SOL     OW 4797   2.945   0.984   0.087
 1595SOL    HW1 4798   2.922   1.037   0.005
 1595SOL    HW2 4799   3.026   0.928   0.068
 1596SOL     OW 4800   3.723   1.569   0.851
 1596SOL    HW1 4801   3.652   1.557   0.781
 1596SOL    HW2 4802   3.724   1.490   0.911
 1597SOL     OW 4803   2.083   1.314   1.844
 1597SOL    HW1 4804   2.018   1.241   1.823
 1597SOL    HW2 4805   2.087   1.328   1.942
 1598SOL     OW 4806   1.941   1.240   0.653
 1598SOL    HW1 4807   1.940   1.193   0.741
 1598SOL    HW2 4808   2.023   1.212   0.602
 1599SOL     OW 4809   2.534   1.391   1.624
 1599SOL    HW1 4810   2.456   1.341   1.662
 1599SOL    HW2 4811   2.531   1.486   1.655
 1600SOL     OW 4812   3.686   0.192   1.227
 1600SOL    HW1 4813   3.682   0.102   1.271
 1600SOL    HW2 4814   3.689   0.181   1.128
 1601SOL     OW 4815   2.290   0.424   0.520
 1601SOL    HW1 4816   2.320   0.352   0.458
 1601SOL    HW2 4817   2.251   0.384   0.603
 1602SOL     OW 4818   3.567   1.487   1.104
 1602SOL    HW1 4819   3.474   1.462   1.077
 1602SOL    HW2 4820   3.593   1.437   1.186
 1603SOL     OW 4821   2.179   0.547   1.280
 1603SOL    HW1 4822   2.217   0.488   1.352
 1603SOL    HW2 4823   2.219   0.521   1.192
 1604SOL     OW 4824   2.674   1.586   0.687
 1604SOL    HW1 4825   2.706   1.596   0.593
 1604SOL    HW2 4826   2.595   1.524   0.689
 1605SOL     OW 4827   3.286   0.214   1.112
 1605SOL    HW1 4828   3.338   0.149   1.167
 1605SOL    HW2 4829   3.237   0.277   1.173
 1606SOL     OW 4830   2.863   0.034   1.154
 1606SOL    HW1 4831   2.800  -0.038   1.123
 1606SOL    HW2 4832   2.956  -0.002   1.154
 1607SOL     OW 4833   2.632   1.330   0.301
 1607SOL    HW1 4834   2.586   1.243   0.318
 1607SOL    HW2 4835   2.723   1.327   0.342
 1608SOL     OW 4836   2.480   1.567   1.284
 1608SOL    HW1 4837   2.475   1.649   1.341
 1608SOL    HW2 4838   2.569   1.564   1.239
 1609SOL     OW 4839   3.214   0.052   0.168
 1609SOL    HW1 4840   3.249   0.011   0.084
 1609SOL    HW2 4841   3.124   0.014   0.188
 1610SOL     OW 4842   3.162   0.453   0.691
 1610SOL    HW1 4843   3.103   0.533   0.695
 1610SOL    HW2 4844   3.177   0.418   0.784
 1611SOL     OW 4845   3.455   0.221   0.882
 1611SOL    HW1 4846   3.371   0.220   0.936
 1611SOL    HW2 4847   3.457   0.304   0.826
 1612SOL     OW 4848   1.901   1.077   0.300
 1612SOL    HW1 4849   2.000   1.066   0.291
 1612SOL    HW2 4850   1.861   0.991   0.332
 1613SOL     OW 4851   2.737   1.646   0.337
 1613SOL    HW1 4852   2.660   1.611   0.283
 1613SOL    HW2 4853   2.705   1.717   0.399
 1614SOL     OW 4854   2.092   0.628   1.975
 1614SOL    HW1 4855   1.999   0.626   2.012
 1614SOL    HW2 4856   2.093   0.589   1.883
 1615SOL     OW 4857   2.087   0.275   2.858
 1615SOL    HW1 4858   2.122   0.258   2.950
 1615SOL    HW2 4859   1.999   0.230   2.846
 1616SOL     OW 4860   1.881   0.368   2.509
 1616SOL    HW1 4861   1.799   0.411   2.548
 1616SOL    HW2 4862   1.853   0.295   2.446
 1617SOL     OW 4863   2.431   1.275   3.027
 1617SOL    HW1 4864   2.338   1.268   2.990
 1617SOL    HW2 4865   2.442   1.364   3.071
 1618SOL     OW 4866   3.417   1.511   2.565
 1618SOL    HW1 4867   3.360   1.495   2.646
 1618SOL    HW2 4868   3.358   1.521   2.485
 1619SOL     OW 4869   2.997   0.703   2.579
 1619SOL    HW1 4870   3.054   0.781   2.554
 1619SOL    HW2 4871   2.937   0.729   2.655
 1620SOL     OW 4872   3.617   0.607   2.093
 1620SOL    HW1 4873   3.605   0.594   1.994
 1620SOL    HW2 4874   3.587   0.526   2.142
 1621SOL     OW 4875   2.630   1.144   2.885
 1621SOL    HW1 4876   2.552   1.161   2.945
 1621SOL    HW2 4877   2.664   1.231   2.849
 1622SOL     OW 4878   2.712   0.798   3.685
 1622SOL    HW1 4879   2.708   0.874   3.750
 1622SOL    HW2 4880   2.734   0.834   3.594
 1623SOL     OW 4881   2.547   1.012   2.527
 1623SOL    HW1 4882   2.616   0.996   2.597
 1623SOL    HW2 4883   2.474   1.069   2.565
 1624SOL     OW 4884   2.548   1.161   3.665
 1624SOL    HW1 4885   2.608   1.240   3.679
 1624SOL    HW2 4886   2.462   1.192   3.624
 1625SOL     OW 4887   2.197   1.435   2.923
 1625SOL    HW1 4888   2.119   1.404   2.870
 1625SOL    HW2 4889   2.255   1.493   2.866
 1626SOL     OW 4890   3.322   1.505   3.201
 1626SOL    HW1 4891   3.346   1.599   3.227
 1626SOL    HW2 4892   3.306   1.451   3.283
 1627SOL     OW 4893   2.300   0.392   3.361
 1627SOL    HW1 4894   2.382   0.336   3.370
 1627SOL    HW2 4895   2.219   0.334   3.365
 1628SOL     OW 4896   3.465   0.447   2.599
 1628SOL    HW1 4897   3.391   0.493   2.549
 1628SOL    HW2 4898   3.516   0.515   2.652
 1629SOL     OW 4899   2.093   1.713   2.345
 1629SOL    HW1 4900   2.127   1.790   2.399
 1629SOL    HW2 4901   2.137   1.713   2.255
 1630SOL     OW 4902   2.989   1.341   3.552
 1630SOL    HW1 4903   3.036   1.341   3.640
 1630SOL    HW2 4904   2.941   1.254   3.541
 1631SOL     OW 4905   2.092   1.434   2.400
 1631SOL    HW1 4906   2.066   1.530   2.400
 1631SOL    HW2 4907   2.021   1.380   2.445
 1632SOL     OW 4908   2.102   1.091   2.748
 1632SOL    HW1 4909   2.116   1.007   2.800
 1632SOL    HW2 4910   2.047   1.155   2.803
 1633SOL     OW 4911   2.482   1.786   3.301
 1633SOL    HW1 4912   2.390   1.769   3.336
 1633SOL    HW2 4913   2.510   1.878   3.327
 1634SOL     OW 4914   2.468   0.964   1.985
 1634SOL    HW1 4915   2.475   1.048   1.931
 1634SOL    HW2 4916   2.514   0.977   2.073
 1635SOL     OW 4917   3.456   0.114   3.342
 1635SOL    HW1 4918   3.438   0.181   3.270
 1635SOL    HW2 4919   3.453   0.160   3.431
 1636SOL     OW 4920   1.984   0.643   2.425
 1636SOL    HW1 4921   1.939   0.555   2.442
 1636SOL    HW2 4922   1.983   0.697   2.509
 1637SOL     OW 4923   3.704   1.767   2.221
 1637SOL    HW1 4924   3.758   1.738   2.301
 1637SOL    HW2 4925   3.734   1.857   2.192
 1638SOL     OW 4926   1.889   1.596   1.979
 1638SOL    HW1 4927   1.870   1.500   2.000
 1638SOL    HW2 4928   1.856   1.654   2.054
 1639SOL     OW 4929   3.551   0.922   2.474
 1639SOL    HW1 4930   3.646   0.893   2.482
 1639SOL    HW2 4931   3.543   0.987   2.399
 1640SOL     OW 4932   3.503   1.108   2.294
 1640SOL    HW1 4933   3.589   1.110   2.242
 1640SOL    HW2 4934   3.517   1.155   2.382
 1641SOL     OW 4935   1.975   0.737   3.459
 1641SOL    HW1 4936   2.063   0.724   3.504
 1641SOL    HW2 4937   1.962   0.834   3.437
 1642SOL     OW 4938   2.475   1.365   2.588
 1642SOL    HW1 4939   2.426   1.278   2.597
 1642SOL    HW2 4940   2.452   1.408   2.501
 1643SOL     OW 4941   3.155   1.228   3.285
 1643SOL    HW1 4942   3.192   1.155   3.227
 1643SOL    HW2 4943   3.207   1.233   3.370
 1644SOL     OW 4944   2.671   0.004   2.364
 1644SOL    HW1 4945   2.711   0.095   2.355
 1644SOL    HW2 4946   2.571   0.012   2.370
 1645SOL     OW 4947   2.059   0.976   3.126
 1645SOL    HW1 4948   2.148   0.931   3.112
 1645SOL    HW2 4949   1.986   0.911   3.107
 1646SOL     OW 4950   3.387   0.999   2.052
 1646SOL    HW1 4951   3.324   0.923   2.065
 1646SOL    HW2 4952   3.435   1.017   2.138
 1647SOL     OW 4953   3.049   1.792   3.478
 1647SOL    HW1 4954   3.073   1.852   3.402
 1647SOL    HW2 4955   3.056   1.697   3.448
 1648SOL     OW 4956   2.179   0.251   3.663
 1648SOL    HW1 4957   2.250   0.322   3.669
 1648SOL    HW2 4958   2.091   0.290   3.691
 1649SOL     OW 4959   3.328   1.417   2.815
 1649SOL    HW1 4960   3.269   1.423   2.895
 1649SOL    HW2 4961   3.313   1.329   2.769
 1650SOL     OW 4962   3.529   1.714   2.434
 1650SOL    HW1 4963   3.488   1.691   2.346
 1650SOL    HW2 4964   3.511   1.640   2.499
 1651SOL     OW 4965   2.460   0.729   2.132
 1651SOL    HW1 4966   2.484   0.798   2.064
 1651SOL    HW2 4967   2.382   0.762   2.186
 1652SOL     OW 4968   3.143   0.345   2.806
 1652SOL    HW1 4969   3.057   0.295   2.793
 1652SOL    HW2 4970   3.205   0.291   2.862
 1653SOL     OW 4971   3.438   1.662   2.169
 1653SOL    HW1 4972   3.527   1.708   2.172
 1653SOL    HW2 4973   3.417   1.638   2.074
 1654SOL     OW 4974   2.669   0.605   3.327
 1654SOL    HW1 4975   2.622   0.602   3.416
 1654SOL    HW2 4976   2.618   0.550   3.261
 1655SOL     OW 4977   3.256   0.469   3.536
 1655SOL    HW1 4978   3.236   0.512   3.624
 1655SOL    HW2 4979   3.334   0.407   3.545
 1656SOL     OW 4980   2.835   0.890   3.434
 1656SOL    HW1 4981   2.881   0.806   3.405
 1656SOL    HW2 4982   2.779   0.924   3.359
 1657SOL     OW 4983   2.853   0.410   3.104
 1657SOL    HW1 4984   2.776   0.444   3.158
 1657SOL    HW2 4985   2.819   0.359   3.025
 1658SOL     OW 4986   2.903   0.701   2.291
 1658SOL    HW1 4987   2.929   0.697   2.387
 1658SOL    HW2 4988   2.818   0.650   2.277
 1659SOL     OW 4989   1.938   0.811   2.651
 1659SOL    HW1 4990   2.037   0.799   2.660
 1659SOL    HW2 4991   1.914   0.906   2.672
 1660SOL     OW 4992   1.992   1.821   3.433
 1660SOL    HW1 4993   1.982   1.806   3.532
 1660SOL    HW2 4994   1.906   1.857   3.397
 1661SOL     OW 4995   2.727   0.348   2.057
 1661SOL    HW1 4996   2.786   0.411   2.008
 1661SOL    HW2 4997   2.746   0.254   2.028
 1662SOL     OW 4998   3.581   0.585   3.693
 1662SOL    HW1 4999   3.555   0.674   3.657
 1662SOL    HW2 5000   3.579   0.517   3.620
 1663SOL     OW 5001   3.224   1.144   2.407
 1663SOL    HW1 5002   3.307   1.115   2.359
 1663SOL    HW2 5003   3.175   1.211   2.351
 1664SOL     OW 5004   2.412   0.196   2.747
 1664SOL    HW1 5005   2.407   0.191   2.847
 1664SOL    HW2 5006   2.414   0.292   2.718
 1665SOL     OW 5007   2.870   1.456   2.339
 1665SOL    HW1 5008   2.824   1.528   2.287
 1665SOL    HW2 5009   2.866   1.476   2.437
 1666SOL     OW 5010   2.213   1.801   2.715
 1666SOL    HW1 5011   2.263   1.715   2.721
 1666SOL    HW2 5012   2.278   1.878   2.712
 1667SOL     OW 5013   3.657   1.066   2.735
 1667SOL    HW1 5014   3.595   1.051   2.659
 1667SOL    HW2 5015   3.605   1.077   2.820
 1668SOL     OW 5016   3.089   1.550   3.368
 1668SOL    HW1 5017   3.095   1.473   3.432
 1668SOL    HW2 5018   3.037   1.524   3.288
 1669SOL     OW 5019   2.183   0.943   2.104
 1669SOL    HW1 5020   2.265   0.982   2.062
 1669SOL    HW2 5021   2.156   0.861   2.055
 1670SOL     OW 5022   3.320   0.735   2.590
 1670SOL    HW1 5023   3.315   0.670   2.665
 1670SOL    HW2 5024   3.400   0.794   2.603
 1671SOL     OW 5025   2.323   1.266   3.589
 1671SOL    HW1 5026   2.273   1.267   3.503
 1671SOL    HW2 5027   2.260   1.248   3.665
 1672SOL     OW 5028   2.973   1.776   2.099
 1672SOL    HW1 5029   2.913   1.714   2.149
 1672SOL    HW2 5030   3.004   1.732   2.014
 1673SOL     OW 5031   2.064   0.285   3.360
 1673SOL    HW1 5032   1.984   0.345   3.347
 1673SOL    HW2 5033   2.054   0.236   3.446
 1674SOL     OW 5034   3.494   1.377   1.943
 1674SOL    HW1 5035   3.462   1.471   1.933
 1674SOL    HW2 5036   3.418   1.314   1.931
 1675SOL     OW 5037   2.326   1.743   2.185
 1675SOL    HW1 5038   2.359   1.782   2.271
 1675SOL    HW2 5039   2.402   1.736   2.120
 1676SOL     OW 5040   3.262   0.107   2.288
 1676SOL    HW1 5041   3.238   0.070   2.198
 1676SOL    HW2 5042   3.361   0.123   2.292
 1677SOL     OW 5043   2.111   1.785   3.103
 1677SOL    HW1 5044   2.168   1.720   3.153
 1677SOL    HW2 5045   2.095   1.752   3.010
 1678SOL     OW 5046   2.802   1.698   2.766
 1678SOL    HW1 5047   2.882   1.641   2.787
 1678SOL    HW2 5048   2.753   1.658   2.689
 1679SOL     OW 5049   2.244   0.700   2.342
 1679SOL    HW1 5050   2.289   0.610   2.339
 1679SOL    HW2 5051   2.150   0.689   2.375
 1680SOL     OW 5052   3.409   0.222   3.591
 1680SOL    HW1 5053   3.404   0.259   3.683
 1680SOL    HW2 5054   3.337   0.153   3.579
 1681SOL     OW 5055   2.476   0.122   1.979
 1681SOL    HW1 5056   2.574   0.100   1.986
 1681SOL    HW2 5057   2.445   0.105   1.886
 1682SOL     OW 5058   2.643   0.264   3.611
 1682SOL    HW1 5059   2.710   0.203   3.654
 1682SOL    HW2 5060   2.570   0.283   3.676
 1683SOL     OW 5061   2.750   1.514   3.057
 1683SOL    HW1 5062   2.727   1.489   2.963
 1683SOL    HW2 5063   2.811   1.445   3.096
 1684SOL     OW 5064   3.213   0.590   3.295
 1684SOL    HW1 5065   3.241   0.547   3.380
 1684SOL    HW2 5066   3.238   0.686   3.296
 1685SOL     OW 5067   2.665   1.402   2.786
 1685SOL    HW1 5068   2.755   1.416   2.744
 1685SOL    HW2 5069   2.594   1.404   2.715
 1686SOL     OW 5070   2.784   0.503   2.761
 1686SOL    HW1 5071   2.759   0.494   2.665
 1686SOL    HW2 5072   2.832   0.421   2.792
 1687SOL     OW 5073   2.401   0.064   2.374
 1687SOL    HW1 5074   2.320   0.065   2.432
 1687SOL    HW2 5075   2.404   0.147   2.319
 1688SOL     OW 5076   3.296   1.188   1.903
 1688SOL    HW1 5077   3.328   1.112   1.960
 1688SOL    HW2 5078   3.204   1.215   1.933
 1689SOL     OW 5079   2.159   0.035   2.033
 1689SOL    HW1 5080   2.208   0.119   2.012
 1689SOL    HW2 5081   2.221  -0.030   2.078
 1690SOL     OW 5082   2.797   0.236   2.342
 1690SOL    HW1 5083   2.749   0.277   2.264
 1690SOL    HW2 5084   2.896   0.234   2.323
 1691SOL     OW 5085   2.938   0.683   3.326
 1691SOL    HW1 5086   2.858   0.622   3.329
 1691SOL    HW2 5087   3.019   0.630   3.302
 1692SOL     OW 5088   3.089   1.570   2.655
 1692SOL    HW1 5089   3.110   1.644   2.590
 1692SOL    HW2 5090   3.157   1.570   2.728
 1693SOL     OW 5091   2.321   1.152   2.603
 1693SOL    HW1 5092   2.250   1.125   2.668
 1693SOL    HW2 5093   2.295   1.124   2.510
 1694SOL     OW 5094   3.133   1.797   2.453
 1694SOL    HW1 5095   3.177   1.861   2.389
 1694SOL    HW2 5096   3.083   1.849   2.523
 1695SOL     OW 5097   2.894   0.549   1.878
 1695SOL    HW1 5098   2.853   0.631   1.839
 1695SOL    HW2 5099   2.958   0.575   1.951
 1696SOL     OW 5100   1.940   0.556   3.248
 1696SOL    HW1 5101   2.032   0.555   3.207
 1696SOL    HW2 5102   1.934   0.630   3.315
 1697SOL     OW 5103   2.423   0.222   3.009
 1697SOL    HW1 5104   2.461   0.138   3.046
 1697SOL    HW2 5105   2.335   0.241   3.053
 1698SOL     OW 5106   2.728   0.454   2.504
 1698SOL    HW1 5107   2.696   0.526   2.442
 1698SOL    HW2 5108   2.752   0.373   2.451
 1699SOL     OW 5109   2.879   0.039   2.615
 1699SOL    HW1 5110   2.807   0.044   2.546
 1699SOL    HW2 5111   2.855  -0.030   2.684
 1700SOL     OW 5112   3.291   1.173   2.729
 1700SOL    HW1 5113   3.236   1.089   2.722
 1700SOL    HW2 5114   3.317   1.202   2.637
 1701SOL     OW 5115   3.328   0.590   2.854
 1701SOL    HW1 5116   3.298   0.495   2.861
 1701SOL    HW2 5117   3.401   0.606   2.920
 1702SOL     OW 5118   3.719   0.833   2.239
 1702SOL    HW1 5119   3.761   0.769   2.303
 1702SOL    HW2 5120   3.681   0.782   2.161
 1703SOL     OW 5121   2.350   1.385   2.036
 1703SOL    HW1 5122   2.263   1.370   2.083
 1703SOL    HW2 5123   2.333   1.411   1.941
 1704SOL     OW 5124   3.526   1.280   2.519
 1704SOL    HW1 5125   3.625   1.288   2.533
 1704SOL    HW2 5126   3.481   1.364   2.550
 1705SOL     OW 5127   3.252   0.575   1.940
 1705SOL    HW1 5128   3.198   0.554   2.021
 1705SOL    HW2 5129   3.343   0.534   1.949
 1706SOL     OW 5130   2.389   0.256   2.190
 1706SOL    HW1 5131   2.416   0.197   2.115
 1706SOL    HW2 5132   2.389   0.351   2.159
 1707SOL     OW 5133   3.616   1.223   3.450
 1707SOL    HW1 5134   3.707   1.184   3.437
 1707SOL    HW2 5135   3.624   1.319   3.474
 1708SOL     OW 5136   2.926   1.347   3.202
 1708SOL    HW1 5137   2.846   1.324   3.257
 1708SOL    HW2 5138   3.009   1.321   3.251
 1709SOL     OW 5139   3.454   1.629   3.487
 1709SOL    HW1 5140   3.481   1.663   3.397
 1709SOL    HW2 5141   3.533   1.591   3.533
 1710SOL     OW 5142   2.973   1.195   2.962
 1710SOL    HW1 5143   2.933   1.239   3.043
 1710SOL    HW2 5144   2.932   1.232   2.879
 1711SOL     OW 5145   3.500   1.099   2.941
 1711SOL    HW1 5146   3.505   1.180   3.000
 1711SOL    HW2 5147   3.414   1.101   2.890
 1712SOL     OW 5148   2.777   0.089   3.264
 1712SOL    HW1 5149   2.802   0.069   3.169
 1712SOL    HW2 5150   2.849   0.145   3.306
 1713SOL     OW 5151   2.842   1.116   3.581
 1713SOL    HW1 5152   2.743   1.122   3.591
 1713SOL    HW2 5153   2.865   1.036   3.525
 1714SOL     OW 5154   2.567   1.050   2.230
 1714SOL    HW1 5155   2.553   1.057   2.329
 1714SOL    HW2 5156   2.651   0.999   2.212
 1715SOL     OW 5157   2.272   0.813   3.113
 1715SOL    HW1 5158   2.358   0.825   3.163
 1715SOL    HW2 5159   2.230   0.726   3.140
 1716SOL     OW 5160   3.136   0.386   3.124
 1716SOL    HW1 5161   3.157   0.460   3.188
 1716SOL    HW2 5162   3.047   0.403   3.081
 1717SOL     OW 5163   1.926   1.564   3.193
 1717SOL    HW1 5164   1.880   1.646   3.159
 1717SOL    HW2 5165   2.024   1.583   3.202
 1718SOL     OW 5166   2.229   1.100   2.363
 1718SOL    HW1 5167   2.222   1.183   2.307
 1718SOL    HW2 5168   2.233   1.020   2.303
 1719SOL     OW 5169   2.428   0.537   2.727
 1719SOL    HW1 5170   2.440   0.603   2.653
 1719SOL    HW2 5171   2.474   0.571   2.810
 1720SOL     OW 5172   3.114   1.348   2.250
 1720SOL    HW1 5173   3.164   1.425   2.290
 1720SOL    HW2 5174   3.019   1.350   2.282
 1721SOL     OW 5175   3.134   1.445   3.004
 1721SOL    HW1 5176   3.181   1.458   3.091
 1721SOL    HW2 5177   3.068   1.371   3.013
 1722SOL     OW 5178   3.444   0.639   2.334
 1722SOL    HW1 5179   3.413   0.700   2.407
 1722SOL    HW2 5180   3.494   0.691   2.265
 1723SOL     OW 5181   2.216   1.510   3.191
 1723SOL    HW1 5182   2.195   1.466   3.104
 1723SOL    HW2 5183   2.313   1.536   3.194
 1724SOL     OW 5184   2.264   0.751   3.460
 1724SOL    HW1 5185   2.332   0.806   3.413
 1724SOL    HW2 5186   2.304   0.663   3.487
 1725SOL     OW 5187   3.449   0.779   3.532
 1725SOL    HW1 5188   3.357   0.817   3.527
 1725SOL    HW2 5189   3.509   0.826   3.467
 1726SOL     OW 5190   2.875   0.105   3.632
 1726SOL    HW1 5191   2.881   0.190   3.580
 1726SOL    HW2 5192   2.907   0.029   3.575
 1727SOL     OW 5193   2.366   0.050   3.602
 1727SOL    HW1 5194   2.324  -0.007   3.532
 1727SOL    HW2 5195   2.300   0.119   3.634
 1728SOL     OW 5196   2.435   0.870   2.891
 1728SOL    HW1 5197   2.479   0.959   2.882
 1728SOL    HW2 5198   2.372   0.870   2.968
 1729SOL     OW 5199   3.222   0.862   2.907
 1729SOL    HW1 5200   3.147   0.862   2.841
 1729SOL    HW2 5201   3.259   0.770   2.916
 1730SOL     OW 5202   3.071   0.525   2.137
 1730SOL    HW1 5203   3.084   0.441   2.191
 1730SOL    HW2 5204   3.042   0.599   2.197
 1731SOL     OW 5205   2.169   0.213   3.093
 1731SOL    HW1 5206   2.146   0.250   3.183
 1731SOL    HW2 5207   2.139   0.118   3.087
 1732SOL     OW 5208   1.899   1.310   3.144
 1732SOL    HW1 5209   1.952   1.261   3.212
 1732SOL    HW2 5210   1.921   1.408   3.149
 1733SOL     OW 5211   2.594   0.634   2.926
 1733SOL    HW1 5212   2.653   0.608   2.850
 1733SOL    HW2 5213   2.566   0.730   2.915
 1734SOL     OW 5214   3.590   0.935   3.716
 1734SOL    HW1 5215   3.544   0.928   3.627
 1734SOL    HW2 5216   3.528   0.979   3.782
 1735SOL     OW 5217   2.169   0.063   2.480
 1735SOL    HW1 5218   2.158   0.157   2.513
 1735SOL    HW2 5219   2.164   0.000   2.557
 1736SOL     OW 5220   3.484   0.367   2.236
 1736SOL    HW1 5221   3.486   0.291   2.300
 1736SOL    HW2 5222   3.436   0.444   2.276
 1737SOL     OW 5223   2.885   0.766   2.828
 1737SOL    HW1 5224   2.900   0.787   2.924
 1737SOL    HW2 5225   2.855   0.671   2.819
 1738SOL     OW 5226   2.842   1.573   3.562
 1738SOL    HW1 5227   2.822   1.617   3.474
 1738SOL    HW2 5228   2.881   1.482   3.546
 1739SOL     OW 5229   3.721   1.518   3.467
 1739SOL    HW1 5230   3.735   1.545   3.372
 1739SOL    HW2 5231   3.804   1.540   3.520
 1740SOL     OW 5232   2.212   0.898   3.666
 1740SOL    HW1 5233   2.288   0.942   3.714
 1740SOL    HW2 5234   2.247   0.851   3.584
 1741SOL     OW 5235   3.402   0.274   1.987
 1741SOL    HW1 5236   3.341   0.199   2.010
 1741SOL    HW2 5237   3.424   0.326   2.070
 1742SOL     OW 5238   3.165   0.838   1.904
 1742SOL    HW1 5239   3.199   0.745   1.919
 1742SOL    HW2 5240   3.183   0.865   1.809
 1743SOL     OW 5241   2.930   1.333   2.711
 1743SOL    HW1 5242   2.937   1.249   2.656
 1743SOL    HW2 5243   2.992   1.402   2.675
 1744SOL     OW 5244   2.181   0.810   2.811
 1744SOL    HW1 5245   2.274   0.846   2.816
 1744SOL    HW2 5246   2.175   0.725   2.863
 1745SOL     OW 5247   2.201   0.509   2.868
 1745SOL    HW1 5248   2.149   0.426   2.851
 1745SOL    HW2 5249   2.278   0.514   2.804
 1746SOL     OW 5250   3.000   0.380   3.540
 1746SOL    HW1 5251   2.955   0.443   3.604
 1746SOL    HW2 5252   3.093   0.411   3.523
 1747SOL     OW 5253   3.022   0.207   3.339
 1747SOL    HW1 5254   3.022   0.271   3.416
 1747SOL    HW2 5255   3.050   0.255   3.256
 1748SOL     OW 5256   1.870   1.326   2.062
 1748SOL    HW1 5257   1.777   1.347   2.031
 1748SOL    HW2 5258   1.880   1.227   2.075
 1749SOL     OW 5259   1.950   1.801   2.789
 1749SOL    HW1 5260   1.908   1.715   2.762
 1749SOL    HW2 5261   2.044   1.804   2.755
 1750SOL     OW 5262   2.366   1.568   2.772
 1750SOL    HW1 5263   2.432   1.642   2.781
 1750SOL    HW2 5264   2.410   1.489   2.730
 1751SOL     OW 5265   2.864   0.796   3.100
 1751SOL    HW1 5266   2.905   0.764   3.186
 1751SOL    HW2 5267   2.768   0.769   3.097
 1752SOL     OW 5268   1.902   0.544   2.976
 1752SOL    HW1 5269   1.987   0.511   2.935
 1752SOL    HW2 5270   1.915   0.559   3.074
 1753SOL     OW 5271   2.051   0.520   3.584
 1753SOL    HW1 5272   2.110   0.480   3.514
 1753SOL    HW2 5273   1.993   0.591   3.543
 1754SOL     OW 5274   3.231   0.950   3.522
 1754SOL    HW1 5275   3.270   1.039   3.542
 1754SOL    HW2 5276   3.241   0.930   3.425
 1755SOL     OW 5277   2.677   0.572   2.187
 1755SOL    HW1 5278   2.684   0.483   2.141
 1755SOL    HW2 5279   2.583   0.606   2.179
 1756SOL     OW 5280   3.519   0.604   3.068
 1756SOL    HW1 5281   3.481   0.535   3.130
 1756SOL    HW2 5282   3.601   0.568   3.024
 1757SOL     OW 5283   2.114   1.564   3.606
 1757SOL    HW1 5284   2.084   1.621   3.682
 1757SOL    HW2 5285   2.107   1.467   3.632
 1758SOL     OW 5286   2.533   0.464   3.131
 1758SOL    HW1 5287   2.499   0.375   3.101
 1758SOL    HW2 5288   2.559   0.518   3.051
 1759SOL     OW 5289   2.792   1.678   3.327
 1759SOL    HW1 5290   2.768   1.660   3.232
 1759SOL    HW2 5291   2.822   1.772   3.337
 1760SOL     OW 5292   2.335   0.500   2.053
 1760SOL    HW1 5293   2.396   0.580   2.057
 1760SOL    HW2 5294   2.240   0.531   2.060
 1761SOL     OW 5295   2.021   1.137   3.328
 1761SOL    HW1 5296   2.043   1.076   3.404
 1761SOL    HW2 5297   2.031   1.088   3.242
 1762SOL     OW 5298   3.209   1.059   3.096
 1762SOL    HW1 5299   3.233   0.996   3.022
 1762SOL    HW2 5300   3.119   1.099   3.078
 1763SOL     OW 5301   3.164   0.855   2.171
 1763SOL    HW1 5302   3.078   0.824   2.213
 1763SOL    HW2 5303   3.160   0.841   2.072
 1764SOL     OW 5304   3.621   1.747   3.016
 1764SOL    HW1 5305   3.682   1.777   2.943
 1764SOL    HW2 5306   3.583   1.658   2.994
 1765SOL     OW 5307   3.114   1.731   2.990
 1765SOL    HW1 5308   3.198   1.736   2.936
 1765SOL    HW2 5309   3.091   1.635   3.008
 1766SOL     OW 5310   1.945   1.258   2.884
 1766SOL    HW1 5311   1.940   1.257   2.984
 1766SOL    HW2 5312   1.862   1.217   2.846
 1767SOL     OW 5313   2.550   1.662   3.578
 1767SOL    HW1 5314   2.494   1.743   3.587
 1767SOL    HW2 5315   2.602   1.666   3.492
 1768SOL     OW 5316   3.588   0.135   2.385
 1768SOL    HW1 5317   3.661   0.118   2.318
 1768SOL    HW2 5318   3.557   0.048   2.423
 1769SOL     OW 5319   3.250   1.573   2.339
 1769SOL    HW1 5320   3.317   1.585   2.265
 1769SOL    HW2 5321   3.210   1.662   2.362
 1770SOL     OW 5322   1.992   1.794   3.713
 1770SOL    HW1 5323   1.951   1.720   3.766
 1770SOL    HW2 5324   2.056   1.845   3.771
 1771SOL     OW 5325   3.142   0.927   2.534
 1771SOL    HW1 5326   3.202   0.846   2.536
 1771SOL    HW2 5327   3.182   0.996   2.474
 1772SOL     OW 5328   2.692   1.273   3.284
 1772SOL    HW1 5329   2.687   1.306   3.379
 1772SOL    HW2 5330   2.606   1.292   3.238
 1773SOL     OW 5331   2.534   1.616   2.016
 1773SOL    HW1 5332   2.543   1.626   1.917
 1773SOL    HW2 5333   2.494   1.527   2.037
 1774SOL     OW 5334   3.512   1.720   3.256
 1774SOL    HW1 5335   3.565   1.730   3.172
 1774SOL    HW2 5336   3.485   1.810   3.290
 1775SOL     OW 5337   3.703   0.175   2.825
 1775SOL    HW1 5338   3.742   0.090   2.789
 1775SOL    HW2 5339   3.605   0.177   2.806
 1776SOL     OW 5340   2.125   0.326   2.582
 1776SOL    HW1 5341   2.046   0.377   2.548
 1776SOL    HW2 5342   2.116   0.311   2.680
 1777SOL     OW 5343   3.056   1.612   1.893
 1777SOL    HW1 5344   3.062   1.519   1.930
 1777SOL    HW2 5345   2.997   1.612   1.813
 1778SOL     OW 5346   2.684   1.002   3.234
 1778SOL    HW1 5347   2.724   1.001   3.142
 1778SOL    HW2 5348   2.694   1.094   3.274
 1779SOL     OW 5349   2.778   0.910   2.153
 1779SOL    HW1 5350   2.841   0.948   2.085
 1779SOL    HW2 5351   2.818   0.827   2.192
 1780SOL     OW 5352   3.366   1.607   1.906
 1780SOL    HW1 5353   3.274   1.644   1.913
 1780SOL    HW2 5354   3.404   1.627   1.816
 1781SOL     OW 5355   2.234   1.288   3.352
 1781SOL    HW1 5356   2.221   1.381   3.318
 1781SOL    HW2 5357   2.150   1.236   3.339
 1782SOL     OW 5358   3.476   1.292   3.151
 1782SOL    HW1 5359   3.536   1.295   3.231
 1782SOL    HW2 5360   3.401   1.356   3.164
 1783SOL     OW 5361   2.901   1.098   2.558
 1783SOL    HW1 5362   2.831   1.051   2.612
 1783SOL    HW2 5363   2.960   1.030   2.515
 1784SOL     OW 5364   2.876   0.236   2.833
 1784SOL    HW1 5365   2.868   0.200   2.740
 1784SOL    HW2 5366   2.874   0.160   2.898
 1785SOL     OW 5367   2.452   1.487   2.353
 1785SOL    HW1 5368   2.494   1.429   2.283
 1785SOL    HW2 5369   2.408   1.566   2.309
 1786SOL     OW 5370   3.571   0.385   3.243
 1786SOL    HW1 5371   3.644   0.454   3.247
 1786SOL    HW2 5372   3.599   0.310   3.184
 1787SOL     OW 5373   2.117   1.348   2.152
 1787SOL    HW1 5374   2.021   1.349   2.125
 1787SOL    HW2 5375   2.129   1.401   2.236
 1788SOL     OW 5376   1.967   1.013   3.588
 1788SOL    HW1 5377   1.890   0.980   3.642
 1788SOL    HW2 5378   2.052   0.983   3.630
 1789SOL     OW 5379   2.534   0.203   3.351
 1789SOL    HW1 5380   2.624   0.187   3.311
 1789SOL    HW2 5381   2.542   0.208   3.450
 1790SOL     OW 5382   1.937   0.345   1.895
 1790SOL    HW1 5383   1.845   0.317   1.866
 1790SOL    HW2 5384   1.968   0.422   1.839
 1791SOL     OW 5385   3.302   0.856   3.260
 1791SOL    HW1 5386   3.245   0.908   3.197
 1791SOL    HW2 5387   3.398   0.868   3.236
 1792SOL     OW 5388   1.934   0.166   2.180
 1792SOL    HW1 5389   1.917   0.249   2.126
 1792SOL    HW2 5390   2.024   0.129   2.158
 1793SOL     OW 5391   3.045   1.335   1.981
 1793SOL    HW1 5392   2.946   1.324   1.983
 1793SOL    HW2 5393   3.079   1.350   2.074
 1794SOL     OW 5394   2.475   0.842   3.293
 1794SOL    HW1 5395   2.531   0.923   3.276
 1794SOL    HW2 5396   2.534   0.762   3.296
 1795SOL     OW 5397   3.355   1.767   2.821
 1795SOL    HW1 5398   3.388   1.831   2.752
 1795SOL    HW2 5399   3.421   1.761   2.896
 1796SOL     OW 5400   2.578   0.565   3.570
 1796SOL    HW1 5401   2.597   0.630   3.644
 1796SOL    HW2 5402   2.638   0.485   3.579
 1797SOL     OW 5403   3.312   1.220   3.495
 1797SOL    HW1 5404   3.303   1.210   3.594
 1797SOL    HW2 5405   3.408   1.213   3.469
 1798SOL     OW 5406   2.252   1.741   3.422
 1798SOL    HW1 5407   2.161   1.782   3.420
 1798SOL    HW2 5408   2.245   1.647   3.454
 1799SOL     OW 5409   3.536   0.883   3.116
 1799SOL    HW1 5410   3.509   0.794   3.079
 1799SOL    HW2 5411   3.537   0.951   3.043
 1800SOL     OW 5412   3.087   0.325   2.311
 1800SOL    HW1 5413   3.152   0.251   2.300
 1800SOL    HW2 5414   3.107   0.375   2.395
 1801SOL     OW 5415   2.456   0.745   2.514
 1801SOL    HW1 5416   2.506   0.830   2.495
 1801SOL    HW2 5417   2.368   0.747   2.466
 1802SOL     OW 5418   3.639   0.342   3.504
 1802SOL    HW1 5419   3.622   0.373   3.410
 1802SOL    HW2 5420   3.555   0.305   3.542
 1803SOL     OW 5421   3.592   0.934   3.379
 1803SOL    HW1 5422   3.630   1.025   3.394
 1803SOL    HW2 5423   3.584   0.917   3.280
 1804SOL     OW 5424   2.721   1.374   1.878
 1804SOL    HW1 5425   2.675   1.389   1.966
 1804SOL    HW2 5426   2.765   1.459   1.848
 1805SOL     OW 5427   2.523   1.790   2.815
 1805SOL    HW1 5428   2.477   1.878   2.802
 1805SOL    HW2 5429   2.622   1.802   2.808
 1806SOL     OW 5430   2.721   0.956   2.723
 1806SOL    HW1 5431   2.775   0.887   2.771
 1806SOL    HW2 5432   2.689   1.025   2.789
 1807SOL     OW 5433   2.945   0.984   1.949
 1807SOL    HW1 5434   2.922   1.037   1.867
 1807SOL    HW2 5435   3.026   0.928   1.930
 1808SOL     OW 5436   3.723   1.569   2.713
 1808SOL    HW1 5437   3.652   1.557   2.643
 1808SOL    HW2 5438   3.724   1.490   2.773
 1809SOL     OW 5439   2.083   1.314   3.706
 1809SOL    HW1 5440   2.018   1.241   3.685
 1809SOL    HW2 5441   2.087   1.328   3.804
 1810SOL     OW 5442   1.941   1.240   2.515
 1810SOL    HW1 5443   1.940   1.193   2.603
 1810SOL    HW2 5444   2.023   1.212   2.464
 1811SOL     OW 5445   2.534   1.391   3.486
 1811SOL    HW1 5446   2.456   1.341   3.524
 1811SOL    HW2 5447   2.531   1.486   3.517
 1812SOL     OW 5448   3.686   0.192   3.089
 1812SOL    HW1 5449   3.682   0.102   3.133
 1812SOL    HW2 5450   3.689   0.181   2.990
 1813SOL     OW 5451   2.290   0.424   2.382
 1813SOL    HW1 5452   2.320   0.352   2.320
 1813SOL    HW2 5453   2.251   0.384   2.465
 1814SOL     OW 5454   3.567   1.487   2.966
 1814SOL    HW1 5455   3.474   1.462   2.939
 1814SOL    HW2 5456   3.593   1.437   3.048
 1815SOL     OW 5457   2.179   0.547   3.142
 1815SOL    HW1 5458   2.217   0.488   3.214
 1815SOL    HW2 5459   2.219   0.521   3.054
 1816SOL     OW 5460   2.674   1.586   2.549
 1816SOL    HW1 5461   2.706   1.596   2.455
 1816SOL    HW2 5462   2.595   1.524   2.551
 1817SOL     OW 5463   3.286   0.214   2.974
 1817SOL    HW1 5464   3.338   0.149   3.029
 1817SOL    HW2 5465   3.237   0.277   3.035
 1818SOL     OW 5466   2.863   0.034   3.016
 1818SOL    HW1 5467   2.800  -0.038   2.985
 1818SOL    HW2 5468   2.956  -0.002   3.016
 1819SOL     OW 5469   2.632   1.330   2.163
 1819SOL    HW1 5470   2.586   1.243   2.180
 1819SOL    HW2 5471   2.723   1.327   2.204
 1820SOL     OW 5472   2.480   1.567   3.146
 1820SOL    HW1 5473   2.475   1.649   3.203
 1820SOL    HW2 5474   2.569   1.564   3.101
 1821SOL     OW 5475   3.214   0.052   2.030
 1821SOL    HW1 5476   3.249   0.011   1.946
 1821SOL    HW2 5477   3.124   0.014   2.050
 1822SOL     OW 5478   3.162   0.453   2.553
 1822SOL    HW1 5479   3.103   0.533   2.557
 1822SOL    HW2 5480   3.177   0.418   2.646
 1823SOL     OW 5481   3.455   0.221   2.744
 1823SOL    HW1 5482   3.371   0.220   2.798
 1823SOL    HW2 5483   3.457   0.304   2.688
 1824SOL     OW 5484   1.901   1.077   2.162
 1824SOL    HW1 5485   2.000   1.066   2.153
 1824SOL    HW2 5486   1.861   0.991   2.194
 1825SOL     OW 5487   2.737   1.646   2.199
 1825SOL    HW1 5488   2.660   1.611   2.145
 1825SOL    HW2 5489   2.705   1.717   2.261
 1826SOL     OW 5490   2.092   0.628   3.837
 1826SOL    HW1 5491   1.999   0.626   3.874
 1826SOL    HW2 5492   2.093   0.589   3.745
 1827SOL     OW 5493   2.087   0.275   4.720
 1827SOL    HW1 5494   2.122   0.258   4.812
 1827SOL    HW2 5495   1.999   0.230   4.708
 1828SOL     OW 5496   1.881   0.368   4.371
 1828SOL    HW1 5497   1.799   0.411   4.410
 1828SOL    HW2 5498   1.853   0.295   4.308
 1829SOL     OW 5499   3.417   1.511   4.427
 1829SOL    HW1 5500   3.360   1.495   4.508
 1829SOL    HW2 5501   3.358   1.521   4.347
 1830SOL     OW 5502   2.997   0.703   4.441
 1830SOL    HW1 5503   3.054   0.781   4.416
 1830SOL    HW2 5504   2.937   0.729   4.517
 1831SOL     OW 5505   3.617   0.607   3.955
 1831SOL    HW1 5506   3.605   0.594   3.856
 1831SOL    HW2 5507   3.587   0.526   4.004
 1832SOL     OW 5508   2.630   1.144   4.747
 1832SOL    HW1 5509   2.552   1.161   4.807
 1832SOL    HW2 5510   2.664   1.231   4.711
 1833SOL     OW 5511   2.547   1.012   4.389
 1833SOL    HW1 5512   2.616   0.996   4.459
 1833SOL    HW2 5513   2.474   1.069   4.427
 1834SOL     OW 5514   2.197   1.435   4.785
 1834SOL    HW1 5515   2.119   1.404   4.732
 1834SOL    HW2 5516   2.255   1.493   4.728
 1835SOL     OW 5517   3.465   0.447   4.461
 1835SOL    HW1 5518   3.391   0.493   4.411
 1835SOL    HW2 5519   3.516   0.515   4.514
 1836SOL     OW 5520   2.093   1.713   4.207
 1836SOL    HW1 5521   2.127   1.790   4.261
 1836SOL    HW2 5522   2.137   1.713   4.117
 1837SOL     OW 5523   2.092   1.434   4.262
 1837SOL    HW1 5524   2.066   1.530   4.262
 1837SOL    HW2 5525   2.021   1.380   4.307
 1838SOL     OW 5526   2.102   1.091   4.610
 1838SOL    HW1 5527   2.116   1.007   4.662
 1838SOL    HW2 5528   2.047   1.155   4.665
 1839SOL     OW 5529   2.468   0.964   3.847
 1839SOL    HW1 5530   2.475   1.048   3.793
 1839SOL    HW2 5531   2.514   0.977   3.935
 1840SOL     OW 5532   1.984   0.643   4.287
 1840SOL    HW1 5533   1.939   0.555   4.304
 1840SOL    HW2 5534   1.983   0.697   4.371
 1841SOL     OW 5535   3.704   1.767   4.083
 1841SOL    HW1 5536   3.758   1.738   4.163
 1841SOL    HW2 5537   3.734   1.857   4.054
 1842SOL     OW 5538   1.889   1.596   3.841
 1842SOL    HW1 5539   1.870   1.500   3.862
 1842SOL    HW2 5540   1.856   1.654   3.916
 1843SOL     OW 5541   3.551   0.922   4.336
 1843SOL    HW1 5542   3.646   0.893   4.344
 1843SOL    HW2 5543   3.543   0.987   4.261
 1844SOL     OW 5544   3.503   1.108   4.156
 1844SOL    HW1 5545   3.589   1.110   4.104
 1844SOL    HW2 5546   3.517   1.155   4.244
 1845SOL     OW 5547   2.475   1.365   4.450
 1845SOL    HW1 5548   2.426   1.278   4.459
 1845SOL    HW2 5549   2.452   1.408   4.363
 1846SOL     OW 5550   2.671   0.004   4.226
 1846SOL    HW1 5551   2.711   0.095   4.217
 1846SOL    HW2 5552   2.571   0.012   4.232
 1847SOL     OW 5553   3.387   0.999   3.914
 1847SOL    HW1 5554   3.324   0.923   3.927
 1847SOL    HW2 5555   3.435   1.017   4.000
 1848SOL     OW 5556   3.328   1.417   4.677
 1848SOL    HW1 5557   3.269   1.423   4.757
 1848SOL    HW2 5558   3.313   1.329   4.631
 1849SOL     OW 5559   3.529   1.714   4.296
 1849SOL    HW1 5560   3.488   1.691   4.208
 1849SOL    HW2 5561   3.511   1.640   4.361
 1850SOL     OW 5562   2.460   0.729   3.994
 1850SOL    HW1 5563   2.484   0.798   3.926
 1850SOL    HW2 5564   2.382   0.762   4.048
 1851SOL     OW 5565   3.143   0.345   4.668
 1851SOL    HW1 5566   3.057   0.295   4.655
 1851SOL    HW2 5567   3.205   0.291   4.724
 1852SOL     OW 5568   3.438   1.662   4.031
 1852SOL    HW1 5569   3.527   1.708   4.034
 1852SOL    HW2 5570   3.417   1.638   3.936
 1853SOL     OW 5571   2.903   0.701   4.153
 1853SOL    HW1 5572   2.929   0.697   4.249
 1853SOL    HW2 5573   2.818   0.650   4.139
 1854SOL     OW 5574   1.938   0.811   4.513
 1854SOL    HW1 5575   2.037   0.799   4.522
 1854SOL    HW2 5576   1.914   0.906   4.534
 1855SOL     OW 5577   2.727   0.348   3.919
 1855SOL    HW1 5578   2.786   0.411   3.870
 1855SOL    HW2 5579   2.746   0.254   3.890
 1856SOL     OW 5580   3.224   1.144   4.269
 1856SOL    HW1 5581   3.307   1.115   4.221
 1856SOL    HW2 5582   3.175   1.211   4.213
 1857SOL     OW 5583   2.412   0.196   4.609
 1857SOL    HW1 5584   2.407   0.191   4.709
 1857SOL    HW2 5585   2.414   0.292   4.580
 1858SOL     OW 5586   2.870   1.456   4.201
 1858SOL    HW1 5587   2.824   1.528   4.149
 1858SOL    HW2 5588   2.866   1.476   4.299
 1859SOL     OW 5589   2.213   1.801   4.577
 1859SOL    HW1 5590   2.263   1.715   4.583
 1859SOL    HW2 5591   2.278   1.878   4.574
 1860SOL     OW 5592   3.657   1.066   4.597
 1860SOL    HW1 5593   3.595   1.051   4.521
 1860SOL    HW2 5594   3.605   1.077   4.682
 1861SOL     OW 5595   2.183   0.943   3.966
 1861SOL    HW1 5596   2.265   0.982   3.924
 1861SOL    HW2 5597   2.156   0.861   3.917
 1862SOL     OW 5598   3.320   0.735   4.452
 1862SOL    HW1 5599   3.315   0.670   4.527
 1862SOL    HW2 5600   3.400   0.794   4.465
 1863SOL     OW 5601   2.973   1.776   3.961
 1863SOL    HW1 5602   2.913   1.714   4.011
 1863SOL    HW2 5603   3.004   1.732   3.876
 1864SOL     OW 5604   3.494   1.377   3.805
 1864SOL    HW1 5605   3.462   1.471   3.795
 1864SOL    HW2 5606   3.418   1.314   3.793
 1865SOL     OW 5607   2.326   1.743   4.047
 1865SOL    HW1 5608   2.359   1.782   4.133
 1865SOL    HW2 5609   2.402   1.736   3.982
 1866SOL     OW 5610   3.262   0.107   4.150
 1866SOL    HW1 5611   3.238   0.070   4.060
 1866SOL    HW2 5612   3.361   0.123   4.154
 1867SOL     OW 5613   2.111   1.785   4.965
 1867SOL    HW1 5614   2.168   1.720   5.015
 1867SOL    HW2 5615   2.095   1.752   4.872
 1868SOL     OW 5616   2.802   1.698   4.628
 1868SOL    HW1 5617   2.882   1.641   4.649
 1868SOL    HW2 5618   2.753   1.658   4.551
 1869SOL     OW 5619   2.244   0.700   4.204
 1869SOL    HW1 5620   2.289   0.610   4.201
 1869SOL    HW2 5621   2.150   0.689   4.237
 1870SOL     OW 5622   2.476   0.122   3.841
 1870SOL    HW1 5623   2.574   0.100   3.848
 1870SOL    HW2 5624   2.445   0.105   3.748
 1871SOL     OW 5625   2.784   0.503   4.623
 1871SOL    HW1 5626   2.759   0.494   4.527
 1871SOL    HW2 5627   2.832   0.421   4.654
 1872SOL     OW 5628   2.401   0.064   4.236
 1872SOL    HW1 5629   2.320   0.065   4.294
 1872SOL    HW2 5630   2.404   0.147   4.181
 1873SOL     OW 5631   3.296   1.188   3.765
 1873SOL    HW1 5632   3.328   1.112   3.822
 1873SOL    HW2 5633   3.204   1.215   3.795
 1874SOL     OW 5634   2.159   0.035   3.895
 1874SOL    HW1 5635   2.208   0.119   3.874
 1874SOL    HW2 5636   2.221  -0.030   3.940
 1875SOL     OW 5637   2.797   0.236   4.204
 1875SOL    HW1 5638   2.749   0.277   4.126
 1875SOL    HW2 5639   2.896   0.234   4.185
 1876SOL     OW 5640   3.089   1.570   4.517
 1876SOL    HW1 5641   3.110   1.644   4.452
 1876SOL    HW2 5642   3.157   1.570   4.590
 1877SOL     OW 5643   2.321   1.152   4.465
 1877SOL    HW1 5644   2.250   1.125   4.530
 1877SOL    HW2 5645   2.295   1.124   4.372
 1878SOL     OW 5646   3.133   1.797   4.315
 1878SOL    HW1 5647   3.177   1.861   4.251
 1878SOL    HW2 5648   3.083   1.849   4.385
 1879SOL     OW 5649   2.894   0.549   3.740
 1879SOL    HW1 5650   2.853   0.631   3.701
 1879SOL    HW2 5651   2.958   0.575   3.813
 1880SOL     OW 5652   2.728   0.454   4.366
 1880SOL    HW1 5653   2.696   0.526   4.304
 1880SOL    HW2 5654   2.752   0.373   4.313
 1881SOL     OW 5655   2.879   0.039   4.477
 1881SOL    HW1 5656   2.807   0.044   4.408
 1881SOL    HW2 5657   2.855  -0.030   4.546
 1882SOL     OW 5658   3.291   1.173   4.591
 1882SOL    HW1 5659   3.236   1.089   4.584
 1882SOL    HW2 5660   3.317   1.202   4.499
 1883SOL     OW 5661   3.719   0.833   4.101
 1883SOL    HW1 5662   3.761   0.769   4.165
 1883SOL    HW2 5663   3.681   0.782   4.023
 1884SOL     OW 5664   2.350   1.385   3.898
 1884SOL    HW1 5665   2.263   1.370   3.945
 1884SOL    HW2 5666   2.333   1.411   3.803
 1885SOL     OW 5667   3.526   1.280   4.381
 1885SOL    HW1 5668   3.625   1.288   4.395
 1885SOL    HW2 5669   3.481   1.364   4.412
 1886SOL     OW 5670   3.252   0.575   3.802
 1886SOL    HW1 5671   3.198   0.554   3.883
 1886SOL    HW2 5672   3.343   0.534   3.811
 1887SOL     OW 5673   2.389   0.256   4.052
 1887SOL    HW1 5674   2.416   0.197   3.977
 1887SOL    HW2 5675   2.389   0.351   4.021
 1888SOL     OW 5676   3.500   1.099   4.803
 1888SOL    HW1 5677   3.505   1.180   4.862
 1888SOL    HW2 5678   3.414   1.101   4.752
 1889SOL     OW 5679   2.567   1.050   4.092
 1889SOL    HW1 5680   2.553   1.057   4.191
 1889SOL    HW2 5681   2.651   0.999   4.074
 1890SOL     OW 5682   2.229   1.100   4.225
 1890SOL    HW1 5683   2.222   1.183   4.169
 1890SOL    HW2 5684   2.233   1.020   4.165
 1891SOL     OW 5685   2.428   0.537   4.589
 1891SOL    HW1 5686   2.440   0.603   4.515
 1891SOL    HW2 5687   2.474   0.571   4.672
 1892SOL     OW 5688   3.114   1.348   4.112
 1892SOL    HW1 5689   3.164   1.425   4.152
 1892SOL    HW2 5690   3.019   1.350   4.144
 1893SOL     OW 5691   3.444   0.639   4.196
 1893SOL    HW1 5692   3.413   0.700   4.269
 1893SOL    HW2 5693   3.494   0.691   4.127
 1894SOL     OW 5694   2.435   0.870   4.753
 1894SOL    HW1 5695   2.479   0.959   4.744
 1894SOL    HW2 5696   2.372   0.870   4.830
 1895SOL     OW 5697   3.071   0.525   3.999
 1895SOL    HW1 5698   3.084   0.441   4.053
 1895SOL    HW2 5699   3.042   0.599   4.059
 1896SOL     OW 5700   2.594   0.634   4.788
 1896SOL    HW1 5701   2.653   0.608   4.712
 1896SOL    HW2 5702   2.566   0.730   4.777
 1897SOL     OW 5703   2.169   0.063   4.342
 1897SOL    HW1 5704   2.158   0.157   4.375
 1897SOL    HW2 5705   2.164   0.000   4.419
 1898SOL     OW 5706   3.484   0.367   4.098
 1898SOL    HW1 5707   3.486   0.291   4.162
 1898SOL    HW2 5708   3.436   0.444   4.138
 1899SOL     OW 5709   3.402   0.274   3.849
 1899SOL    HW1 5710   3.341   0.199   3.872
 1899SOL    HW2 5711   3.424   0.326   3.932
 1900SOL     OW 5712   3.165   0.838   3.766
 1900SOL    HW1 5713   3.199   0.745   3.781
 1900SOL    HW2 5714   3.183   0.865   3.671
 1901SOL     OW 5715   2.930   1.333   4.573
 1901SOL    HW1 5716   2.937   1.249   4.518
 1901SOL    HW2 5717   2.992   1.402   4.537
 1902SOL     OW 5718   2.181   0.810   4.673
 1902SOL    HW1 5719   2.274   0.846   4.678
 1902SOL    HW2 5720   2.175   0.725   4.725
 1903SOL     OW 5721   2.201   0.509   4.730
 1903SOL    HW1 5722   2.149   0.426   4.713
 1903SOL    HW2 5723   2.278   0.514   4.666
 1904SOL     OW 5724   1.870   1.326   3.924
 1904SOL    HW1 5725   1.777   1.347   3.893
 1904SOL    HW2 5726   1.880   1.227   3.937
 1905SOL     OW 5727   1.950   1.801   4.651
 1905SOL    HW1 5728   1.908   1.715   4.624
 1905SOL    HW2 5729   2.044   1.804   4.617
 1906SOL     OW 5730   2.366   1.568   4.634
 1906SOL    HW1 5731   2.432   1.642   4.643
 1906SOL    HW2 5732   2.410   1.489   4.592
 1907SOL     OW 5733   2.677   0.572   4.049
 1907SOL    HW1 5734   2.684   0.483   4.003
 1907SOL    HW2 5735   2.583   0.606   4.041
 1908SOL     OW 5736   2.533   0.464   4.993
 1908SOL    HW1 5737   2.499   0.375   4.963
 1908SOL    HW2 5738   2.559   0.518   4.913
 1909SOL     OW 5739   2.335   0.500   3.915
 1909SOL    HW1 5740   2.396   0.580   3.919
 1909SOL    HW2 5741   2.240   0.531   3.922
 1910SOL     OW 5742   3.164   0.855   4.033
 1910SOL    HW1 5743   3.078   0.824   4.075
 1910SOL    HW2 5744   3.160   0.841   3.934
 1911SOL     OW 5745   3.621   1.747   4.878
 1911SOL    HW1 5746   3.682   1.777   4.805
 1911SOL    HW2 5747   3.583   1.658   4.856
 1912SOL     OW 5748   1.945   1.258   4.746
 1912SOL    HW1 5749   1.940   1.257   4.846
 1912SOL    HW2 5750   1.862   1.217   4.708
 1913SOL     OW 5751   3.588   0.135   4.247
 1913SOL    HW1 5752   3.661   0.118   4.180
 1913SOL    HW2 5753   3.557   0.048   4.285
 1914SOL     OW 5754   3.250   1.573   4.201
 1914SOL    HW1 5755   3.317   1.585   4.127
 1914SOL    HW2 5756   3.210   1.662   4.224
 1915SOL     OW 5757   3.142   0.927   4.396
 1915SOL    HW1 5758   3.202   0.846   4.398
 1915SOL    HW2 5759   3.182   0.996   4.336
 1916SOL     OW 5760   2.534   1.616   3.878
 1916SOL    HW1 5761   2.543   1.626   3.779
 1916SOL    HW2 5762   2.494   1.527   3.899
 1917SOL     OW 5763   3.703   0.175   4.687
 1917SOL    HW1 5764   3.742   0.090   4.651
 1917SOL    HW2 5765   3.605   0.177   4.668
 1918SOL     OW 5766   2.125   0.326   4.444
 1918SOL    HW1 5767   2.046   0.377   4.410
 1918SOL    HW2 5768   2.116   0.311   4.542
 1919SOL     OW 5769   3.056   1.612   3.755
 1919SOL    HW1 5770   3.062   1.519   3.792
 1919SOL    HW2 5771   2.997   1.612   3.675
 1920SOL     OW 5772   2.778   0.910   4.015
 1920SOL    HW1 5773   2.841   0.948   3.947
 1920SOL    HW2 5774   2.818   0.827   4.054
 1921SOL     OW 5775   3.366   1.607   3.768
 1921SOL    HW1 5776   3.274   1.644   3.775
 1921SOL    HW2 5777   3.404   1.627   3.678
 1922SOL     OW 5778   2.901   1.098   4.420
 1922SOL    HW1 5779   2.831   1.051   4.474
 1922SOL    HW2 5780   2.960   1.030   4.377
 1923SOL     OW 5781   2.452   1.487   4.215
 1923SOL    HW1 5782   2.494   1.429   4.145
 1923SOL    HW2 5783   2.408   1.566   4.171
 1924SOL     OW 5784   2.117   1.348   4.014
 1924SOL    HW1 5785   2.021   1.349   3.987
 1924SOL    HW2 5786   2.129   1.401   4.098
 1925SOL     OW 5787   1.937   0.345   3.757
 1925SOL    HW1 5788   1.845   0.317   3.728
 1925SOL    HW2 5789   1.968   0.422   3.701
 1926SOL     OW 5790   1.934   0.166   4.042
 1926SOL    HW1 5791   1.917   0.249   3.988
 1926SOL    HW2 5792   2.024   0.129   4.020
 1927SOL     OW 5793   3.045   1.335   3.843
 1927SOL    HW1 5794   2.946   1.324   3.845
 1927SOL    HW2 5795   3.079   1.350   3.936
 1928SOL     OW 5796   3.536   0.883   4.978
 1928SOL    HW1 5797   3.509   0.794   4.941
 1928SOL    HW2 5798   3.537   0.951   4.905
 1929SOL     OW 5799   3.087   0.325   4.173
 1929SOL    HW1 5800   3.152   0.251   4.162
 1929SOL    HW2 5801   3.107   0.375   4.257
 1930SOL     OW 5802   2.456   0.745   4.376
 1930SOL    HW1 5803   2.506   0.830   4.357
 1930SOL    HW2 5804   2.368   0.747   4.328
 1931SOL     OW 5805   2.721   1.374   3.740
 1931SOL    HW1 5806   2.675   1.389   3.828
 1931SOL    HW2 5807   2.765   1.459   3.710
 1932SOL     OW 5808   2.523   1.790   4.677
 1932SOL    HW1 5809   2.477   1.878   4.664
 1932SOL    HW2 5810   2.622   1.802   4.670
 1933SOL     OW 5811   2.721   0.956   4.585
 1933SOL    HW1 5812   2.775   0.887   4.633
 1933SOL    HW2 5813   2.689   1.025   4.651
 1934SOL     OW 5814   2.945   0.984   3.811
 1934SOL    HW1 5815   2.922   1.037   3.729
 1934SOL    HW2 5816   3.026   0.928   3.792
 1935SOL     OW 5817   3.723   1.569   4.575
 1935SOL    HW1 5818   3.652   1.557   4.505
 1935SOL    HW2 5819   3.724   1.490   4.635
 1936SOL     OW 5820   1.941   1.240   4.377
 1936SOL    HW1 5821   1.940   1.193   4.465
 1936SOL    HW2 5822   2.023   1.212   4.326
 1937SOL     OW 5823   3.686   0.192   4.951
 1937SOL    HW1 5824   3.682   0.102   4.995
 1937SOL    HW2 5825   3.689   0.181   4.852
 1938SOL     OW 5826   2.290   0.424   4.244
 1938SOL    HW1 5827   2.320   0.352   4.182
 1938SOL    HW2 5828   2.251   0.384   4.327
 1939SOL     OW 5829   2.674   1.586   4.411
 1939SOL    HW1 5830   2.706   1.596   4.317
 1939SOL    HW2 5831   2.595   1.524   4.413
 1940SOL     OW 5832   2.632   1.330   4.025
 1940SOL    HW1 5833   2.586   1.243   4.042
 1940SOL    HW2 5834   2.723   1.327   4.066
 1941SOL     OW 5835   3.214   0.052   3.892
 1941SOL    HW1 5836   3.249   0.011   3.808
 1941SOL    HW2 5837   3.124   0.014   3.912
 1942SOL     OW 5838   3.162   0.453   4.415
 1942SOL    HW1 5839   3.103   0.533   4.419
 1942SOL    HW2 5840   3.177   0.418   4.508
 1943SOL     OW 5841   3.455   0.221   4.606
 1943SOL    HW1 5842   3.371   0.220   4.660
 1943SOL    HW2 5843   3.457   0.304   4.550
 1944SOL     OW 5844   1.901   1.077   4.024
 1944SOL    HW1 5845   2.000   1.066   4.015
 1944SOL    HW2 5846   1.861   0.991   4.056
 1945SOL     OW 5847   2.737   1.646   4.061
 1945SOL    HW1 5848   2.660   1.611   4.007
 1945SOL    HW2 5849   2.705   1.717   4.123
 1946SOL     OW 5850   2.092   2.490   0.113
 1946SOL    HW1 5851   1.999   2.488   0.150
 1946SOL    HW2 5852   2.093   2.451   0.021
 1947SOL     OW 5853   2.087   2.137   0.996
 1947SOL    HW1 5854   2.122   2.120   1.088
 1947SOL    HW2 5855   1.999   2.092   0.984
 1948SOL     OW 5856   1.881   2.230   0.647
 1948SOL    HW1 5857   1.799   2.273   0.686
 1948SOL    HW2 5858   1.853   2.157   0.584
 1949SOL     OW 5859   2.431   3.137   1.165
 1949SOL    HW1 5860   2.338   3.130   1.128
 1949SOL    HW2 5861   2.442   3.226   1.209
 1950SOL     OW 5862   3.417   3.373   0.703
 1950SOL    HW1 5863   3.360   3.357   0.784
 1950SOL    HW2 5864   3.358   3.383   0.623
 1951SOL     OW 5865   2.997   2.565   0.717
 1951SOL    HW1 5866   3.054   2.643   0.692
 1951SOL    HW2 5867   2.937   2.591   0.793
 1952SOL     OW 5868   3.617   2.469   0.231
 1952SOL    HW1 5869   3.605   2.456   0.132
 1952SOL    HW2 5870   3.587   2.388   0.280
 1953SOL     OW 5871   2.630   3.006   1.023
 1953SOL    HW1 5872   2.552   3.023   1.083
 1953SOL    HW2 5873   2.664   3.093   0.987
 1954SOL     OW 5874   2.712   2.660   1.823
 1954SOL    HW1 5875   2.708   2.736   1.888
 1954SOL    HW2 5876   2.734   2.696   1.732
 1955SOL     OW 5877   2.547   2.874   0.665
 1955SOL    HW1 5878   2.616   2.858   0.735
 1955SOL    HW2 5879   2.474   2.931   0.703
 1956SOL     OW 5880   2.548   3.023   1.803
 1956SOL    HW1 5881   2.608   3.102   1.817
 1956SOL    HW2 5882   2.462   3.054   1.762
 1957SOL     OW 5883   2.197   3.297   1.061
 1957SOL    HW1 5884   2.119   3.266   1.008
 1957SOL    HW2 5885   2.255   3.355   1.004
 1958SOL     OW 5886   3.322   3.367   1.339
 1958SOL    HW1 5887   3.346   3.461   1.365
 1958SOL    HW2 5888   3.306   3.313   1.421
 1959SOL     OW 5889   2.300   2.254   1.499
 1959SOL    HW1 5890   2.382   2.198   1.508
 1959SOL    HW2 5891   2.219   2.196   1.503
 1960SOL     OW 5892   3.465   2.309   0.737
 1960SOL    HW1 5893   3.391   2.355   0.687
 1960SOL    HW2 5894   3.516   2.377   0.790
 1961SOL     OW 5895   2.093   3.575   0.483
 1961SOL    HW1 5896   2.127   3.652   0.537
 1961SOL    HW2 5897   2.137   3.575   0.393
 1962SOL     OW 5898   2.989   3.203   1.690
 1962SOL    HW1 5899   3.036   3.203   1.778
 1962SOL    HW2 5900   2.941   3.116   1.679
 1963SOL     OW 5901   2.092   3.296   0.538
 1963SOL    HW1 5902   2.066   3.392   0.538
 1963SOL    HW2 5903   2.021   3.242   0.583
 1964SOL     OW 5904   2.102   2.953   0.886
 1964SOL    HW1 5905   2.116   2.869   0.938
 1964SOL    HW2 5906   2.047   3.017   0.941
 1965SOL     OW 5907   2.482   3.648   1.439
 1965SOL    HW1 5908   2.390   3.631   1.474
 1965SOL    HW2 5909   2.510   3.740   1.465
 1966SOL     OW 5910   2.468   2.826   0.123
 1966SOL    HW1 5911   2.475   2.910   0.069
 1966SOL    HW2 5912   2.514   2.839   0.211
 1967SOL     OW 5913   3.456   1.976   1.480
 1967SOL    HW1 5914   3.438   2.043   1.408
 1967SOL    HW2 5915   3.453   2.022   1.569
 1968SOL     OW 5916   1.984   2.505   0.563
 1968SOL    HW1 5917   1.939   2.417   0.580
 1968SOL    HW2 5918   1.983   2.559   0.647
 1969SOL     OW 5919   3.704   3.629   0.359
 1969SOL    HW1 5920   3.758   3.600   0.439
 1969SOL    HW2 5921   3.734   3.719   0.330
 1970SOL     OW 5922   1.889   3.458   0.117
 1970SOL    HW1 5923   1.870   3.362   0.138
 1970SOL    HW2 5924   1.856   3.516   0.192
 1971SOL     OW 5925   3.551   2.784   0.612
 1971SOL    HW1 5926   3.646   2.755   0.620
 1971SOL    HW2 5927   3.543   2.849   0.537
 1972SOL     OW 5928   3.503   2.970   0.432
 1972SOL    HW1 5929   3.589   2.972   0.380
 1972SOL    HW2 5930   3.517   3.017   0.520
 1973SOL     OW 5931   1.975   2.599   1.597
 1973SOL    HW1 5932   2.063   2.586   1.642
 1973SOL    HW2 5933   1.962   2.696   1.575
 1974SOL     OW 5934   2.475   3.227   0.726
 1974SOL    HW1 5935   2.426   3.140   0.735
 1974SOL    HW2 5936   2.452   3.270   0.639
 1975SOL     OW 5937   3.155   3.090   1.423
 1975SOL    HW1 5938   3.192   3.017   1.365
 1975SOL    HW2 5939   3.207   3.095   1.508
 1976SOL     OW 5940   2.671   1.866   0.502
 1976SOL    HW1 5941   2.711   1.957   0.493
 1976SOL    HW2 5942   2.571   1.874   0.508
 1977SOL     OW 5943   2.059   2.838   1.264
 1977SOL    HW1 5944   2.148   2.793   1.250
 1977SOL    HW2 5945   1.986   2.773   1.245
 1978SOL     OW 5946   3.387   2.861   0.190
 1978SOL    HW1 5947   3.324   2.785   0.203
 1978SOL    HW2 5948   3.435   2.879   0.276
 1979SOL     OW 5949   3.049   3.654   1.616
 1979SOL    HW1 5950   3.073   3.714   1.540
 1979SOL    HW2 5951   3.056   3.559   1.586
 1980SOL     OW 5952   2.179   2.113   1.801
 1980SOL    HW1 5953   2.250   2.184   1.807
 1980SOL    HW2 5954   2.091   2.152   1.829
 1981SOL     OW 5955   3.328   3.279   0.953
 1981SOL    HW1 5956   3.269   3.285   1.033
 1981SOL    HW2 5957   3.313   3.191   0.907
 1982SOL     OW 5958   3.529   3.576   0.572
 1982SOL    HW1 5959   3.488   3.553   0.484
 1982SOL    HW2 5960   3.511   3.502   0.637
 1983SOL     OW 5961   2.460   2.591   0.270
 1983SOL    HW1 5962   2.484   2.660   0.202
 1983SOL    HW2 5963   2.382   2.624   0.324
 1984SOL     OW 5964   3.143   2.207   0.944
 1984SOL    HW1 5965   3.057   2.157   0.931
 1984SOL    HW2 5966   3.205   2.153   1.000
 1985SOL     OW 5967   3.438   3.524   0.307
 1985SOL    HW1 5968   3.527   3.570   0.310
 1985SOL    HW2 5969   3.417   3.500   0.212
 1986SOL     OW 5970   2.669   2.467   1.465
 1986SOL    HW1 5971   2.622   2.464   1.554
 1986SOL    HW2 5972   2.618   2.412   1.399
 1987SOL     OW 5973   3.256   2.331   1.674
 1987SOL    HW1 5974   3.236   2.374   1.762
 1987SOL    HW2 5975   3.334   2.269   1.683
 1988SOL     OW 5976   2.835   2.752   1.572
 1988SOL    HW1 5977   2.881   2.668   1.543
 1988SOL    HW2 5978   2.779   2.786   1.497
 1989SOL     OW 5979   2.853   2.272   1.242
 1989SOL    HW1 5980   2.776   2.306   1.296
 1989SOL    HW2 5981   2.819   2.221   1.163
 1990SOL     OW 5982   2.903   2.563   0.429
 1990SOL    HW1 5983   2.929   2.559   0.525
 1990SOL    HW2 5984   2.818   2.512   0.415
 1991SOL     OW 5985   1.938   2.673   0.789
 1991SOL    HW1 5986   2.037   2.661   0.798
 1991SOL    HW2 5987   1.914   2.768   0.810
 1992SOL     OW 5988   1.992   3.683   1.571
 1992SOL    HW1 5989   1.982   3.668   1.670
 1992SOL    HW2 5990   1.906   3.719   1.535
 1993SOL     OW 5991   2.727   2.210   0.195
 1993SOL    HW1 5992   2.786   2.273   0.146
 1993SOL    HW2 5993   2.746   2.116   0.166
 1994SOL     OW 5994   3.581   2.447   1.831
 1994SOL    HW1 5995   3.555   2.536   1.795
 1994SOL    HW2 5996   3.579   2.379   1.758
 1995SOL     OW 5997   3.224   3.006   0.545
 1995SOL    HW1 5998   3.307   2.977   0.497
 1995SOL    HW2 5999   3.175   3.073   0.489
 1996SOL     OW 6000   2.412   2.058   0.885
 1996SOL    HW1 6001   2.407   2.053   0.985
 1996SOL    HW2 6002   2.414   2.154   0.856
 1997SOL     OW 6003   2.870   3.318   0.477
 1997SOL    HW1 6004   2.824   3.390   0.425
 1997SOL    HW2 6005   2.866   3.338   0.575
 1998SOL     OW 6006   2.213   3.663   0.853
 1998SOL    HW1 6007   2.263   3.577   0.859
 1998SOL    HW2 6008   2.278   3.740   0.850
 1999SOL     OW 6009   3.657   2.928   0.873
 1999SOL    HW1 6010   3.595   2.913   0.797
 1999SOL    HW2 6011   3.605   2.939   0.958
 2000SOL     OW 6012   3.089   3.412   1.506
 2000SOL    HW1 6013   3.095   3.335   1.570
 2000SOL    HW2 6014   3.037   3.386   1.426
 2001SOL     OW 6015   2.183   2.805   0.242
 2001SOL    HW1 6016   2.265   2.844   0.200
 2001SOL    HW2 6017   2.156   2.723   0.193
 2002SOL     OW 6018   3.320   2.597   0.728
 2002SOL    HW1 6019   3.315   2.532   0.803
 2002SOL    HW2 6020   3.400   2.656   0.741
 2003SOL     OW 6021   2.323   3.128   1.727
 2003SOL    HW1 6022   2.273   3.129   1.641
 2003SOL    HW2 6023   2.260   3.110   1.803
 2004SOL     OW 6024   2.973   3.638   0.237
 2004SOL    HW1 6025   2.913   3.576   0.287
 2004SOL    HW2 6026   3.004   3.594   0.152
 2005SOL     OW 6027   2.064   2.147   1.498
 2005SOL    HW1 6028   1.984   2.207   1.485
 2005SOL    HW2 6029   2.054   2.098   1.584
 2006SOL     OW 6030   3.494   3.239   0.081
 2006SOL    HW1 6031   3.462   3.333   0.071
 2006SOL    HW2 6032   3.418   3.176   0.069
 2007SOL     OW 6033   2.326   3.605   0.323
 2007SOL    HW1 6034   2.359   3.644   0.409
 2007SOL    HW2 6035   2.402   3.598   0.258
 2008SOL     OW 6036   3.262   1.969   0.426
 2008SOL    HW1 6037   3.238   1.932   0.336
 2008SOL    HW2 6038   3.361   1.985   0.430
 2009SOL     OW 6039   2.111   3.647   1.241
 2009SOL    HW1 6040   2.168   3.582   1.291
 2009SOL    HW2 6041   2.095   3.614   1.148
 2010SOL     OW 6042   2.802   3.560   0.904
 2010SOL    HW1 6043   2.882   3.503   0.925
 2010SOL    HW2 6044   2.753   3.520   0.827
 2011SOL     OW 6045   2.244   2.562   0.480
 2011SOL    HW1 6046   2.289   2.472   0.477
 2011SOL    HW2 6047   2.150   2.551   0.513
 2012SOL     OW 6048   3.409   2.084   1.729
 2012SOL    HW1 6049   3.404   2.121   1.821
 2012SOL    HW2 6050   3.337   2.015   1.717
 2013SOL     OW 6051   2.476   1.984   0.117
 2013SOL    HW1 6052   2.574   1.962   0.124
 2013SOL    HW2 6053   2.445   1.967   0.024
 2014SOL     OW 6054   2.643   2.126   1.749
 2014SOL    HW1 6055   2.710   2.065   1.792
 2014SOL    HW2 6056   2.570   2.145   1.814
 2015SOL     OW 6057   2.750   3.376   1.195
 2015SOL    HW1 6058   2.727   3.351   1.101
 2015SOL    HW2 6059   2.811   3.307   1.234
 2016SOL     OW 6060   3.213   2.452   1.433
 2016SOL    HW1 6061   3.241   2.409   1.518
 2016SOL    HW2 6062   3.238   2.548   1.434
 2017SOL     OW 6063   2.665   3.264   0.924
 2017SOL    HW1 6064   2.755   3.278   0.882
 2017SOL    HW2 6065   2.594   3.266   0.853
 2018SOL     OW 6066   2.784   2.365   0.899
 2018SOL    HW1 6067   2.759   2.356   0.803
 2018SOL    HW2 6068   2.832   2.283   0.930
 2019SOL     OW 6069   2.401   1.926   0.512
 2019SOL    HW1 6070   2.320   1.927   0.570
 2019SOL    HW2 6071   2.404   2.009   0.457
 2020SOL     OW 6072   3.296   3.050   0.041
 2020SOL    HW1 6073   3.328   2.974   0.098
 2020SOL    HW2 6074   3.204   3.077   0.071
 2021SOL     OW 6075   2.797   2.098   0.480
 2021SOL    HW1 6076   2.749   2.139   0.402
 2021SOL    HW2 6077   2.896   2.096   0.461
 2022SOL     OW 6078   2.938   2.545   1.464
 2022SOL    HW1 6079   2.858   2.484   1.467
 2022SOL    HW2 6080   3.019   2.492   1.440
 2023SOL     OW 6081   3.089   3.432   0.793
 2023SOL    HW1 6082   3.110   3.506   0.728
 2023SOL    HW2 6083   3.157   3.432   0.866
 2024SOL     OW 6084   2.321   3.014   0.741
 2024SOL    HW1 6085   2.250   2.987   0.806
 2024SOL    HW2 6086   2.295   2.986   0.648
 2025SOL     OW 6087   3.133   3.659   0.591
 2025SOL    HW1 6088   3.177   3.723   0.527
 2025SOL    HW2 6089   3.083   3.711   0.661
 2026SOL     OW 6090   2.894   2.411   0.016
 2026SOL    HW1 6091   2.853   2.493  -0.023
 2026SOL    HW2 6092   2.958   2.437   0.089
 2027SOL     OW 6093   1.940   2.418   1.386
 2027SOL    HW1 6094   2.032   2.417   1.345
 2027SOL    HW2 6095   1.934   2.492   1.453
 2028SOL     OW 6096   2.423   2.084   1.147
 2028SOL    HW1 6097   2.461   2.000   1.184
 2028SOL    HW2 6098   2.335   2.103   1.191
 2029SOL     OW 6099   2.728   2.316   0.642
 2029SOL    HW1 6100   2.696   2.388   0.580
 2029SOL    HW2 6101   2.752   2.235   0.589
 2030SOL     OW 6102   2.879   1.901   0.753
 2030SOL    HW1 6103   2.807   1.906   0.684
 2030SOL    HW2 6104   2.855   1.832   0.822
 2031SOL     OW 6105   3.291   3.035   0.867
 2031SOL    HW1 6106   3.236   2.951   0.860
 2031SOL    HW2 6107   3.317   3.064   0.775
 2032SOL     OW 6108   3.328   2.452   0.992
 2032SOL    HW1 6109   3.298   2.357   0.999
 2032SOL    HW2 6110   3.401   2.468   1.058
 2033SOL     OW 6111   3.719   2.695   0.377
 2033SOL    HW1 6112   3.761   2.631   0.441
 2033SOL    HW2 6113   3.681   2.644   0.299
 2034SOL     OW 6114   2.350   3.247   0.174
 2034SOL    HW1 6115   2.263   3.232   0.221
 2034SOL    HW2 6116   2.333   3.273   0.079
 2035SOL     OW 6117   3.526   3.142   0.657
 2035SOL    HW1 6118   3.625   3.150   0.671
 2035SOL    HW2 6119   3.481   3.226   0.688
 2036SOL     OW 6120   3.252   2.437   0.078
 2036SOL    HW1 6121   3.198   2.416   0.159
 2036SOL    HW2 6122   3.343   2.396   0.087
 2037SOL     OW 6123   2.389   2.118   0.328
 2037SOL    HW1 6124   2.416   2.059   0.253
 2037SOL    HW2 6125   2.389   2.213   0.297
 2038SOL     OW 6126   3.616   3.085   1.588
 2038SOL    HW1 6127   3.707   3.046   1.575
 2038SOL    HW2 6128   3.624   3.181   1.612
 2039SOL     OW 6129   2.926   3.209   1.340
 2039SOL    HW1 6130   2.846   3.186   1.395
 2039SOL    HW2 6131   3.009   3.183   1.389
 2040SOL     OW 6132   3.454   3.491   1.625
 2040SOL    HW1 6133   3.481   3.525   1.535
 2040SOL    HW2 6134   3.533   3.453   1.671
 2041SOL     OW 6135   2.973   3.057   1.100
 2041SOL    HW1 6136   2.933   3.101   1.181
 2041SOL    HW2 6137   2.932   3.094   1.017
 2042SOL     OW 6138   3.500   2.961   1.079
 2042SOL    HW1 6139   3.505   3.042   1.138
 2042SOL    HW2 6140   3.414   2.963   1.028
 2043SOL     OW 6141   2.777   1.951   1.402
 2043SOL    HW1 6142   2.802   1.931   1.307
 2043SOL    HW2 6143   2.849   2.007   1.444
 2044SOL     OW 6144   2.842   2.978   1.719
 2044SOL    HW1 6145   2.743   2.984   1.729
 2044SOL    HW2 6146   2.865   2.898   1.663
 2045SOL     OW 6147   2.567   2.912   0.368
 2045SOL    HW1 6148   2.553   2.919   0.467
 2045SOL    HW2 6149   2.651   2.861   0.350
 2046SOL     OW 6150   2.272   2.675   1.251
 2046SOL    HW1 6151   2.358   2.687   1.301
 2046SOL    HW2 6152   2.230   2.588   1.278
 2047SOL     OW 6153   3.136   2.248   1.262
 2047SOL    HW1 6154   3.157   2.322   1.326
 2047SOL    HW2 6155   3.047   2.265   1.219
 2048SOL     OW 6156   1.926   3.426   1.331
 2048SOL    HW1 6157   1.880   3.508   1.297
 2048SOL    HW2 6158   2.024   3.445   1.340
 2049SOL     OW 6159   2.229   2.962   0.501
 2049SOL    HW1 6160   2.222   3.045   0.445
 2049SOL    HW2 6161   2.233   2.882   0.441
 2050SOL     OW 6162   2.428   2.399   0.865
 2050SOL    HW1 6163   2.440   2.465   0.791
 2050SOL    HW2 6164   2.474   2.433   0.948
 2051SOL     OW 6165   3.114   3.210   0.388
 2051SOL    HW1 6166   3.164   3.287   0.428
 2051SOL    HW2 6167   3.019   3.212   0.420
 2052SOL     OW 6168   3.134   3.307   1.142
 2052SOL    HW1 6169   3.181   3.320   1.229
 2052SOL    HW2 6170   3.068   3.233   1.151
 2053SOL     OW 6171   3.444   2.501   0.472
 2053SOL    HW1 6172   3.413   2.562   0.545
 2053SOL    HW2 6173   3.494   2.553   0.403
 2054SOL     OW 6174   2.216   3.372   1.329
 2054SOL    HW1 6175   2.195   3.328   1.242
 2054SOL    HW2 6176   2.313   3.398   1.332
 2055SOL     OW 6177   2.264   2.613   1.598
 2055SOL    HW1 6178   2.332   2.668   1.551
 2055SOL    HW2 6179   2.304   2.525   1.625
 2056SOL     OW 6180   3.449   2.641   1.670
 2056SOL    HW1 6181   3.357   2.679   1.665
 2056SOL    HW2 6182   3.509   2.688   1.605
 2057SOL     OW 6183   2.875   1.967   1.770
 2057SOL    HW1 6184   2.881   2.052   1.718
 2057SOL    HW2 6185   2.907   1.891   1.713
 2058SOL     OW 6186   2.366   1.912   1.740
 2058SOL    HW1 6187   2.324   1.855   1.670
 2058SOL    HW2 6188   2.300   1.981   1.772
 2059SOL     OW 6189   2.435   2.732   1.029
 2059SOL    HW1 6190   2.479   2.821   1.020
 2059SOL    HW2 6191   2.372   2.732   1.106
 2060SOL     OW 6192   3.222   2.724   1.045
 2060SOL    HW1 6193   3.147   2.724   0.979
 2060SOL    HW2 6194   3.259   2.632   1.054
 2061SOL     OW 6195   3.071   2.387   0.275
 2061SOL    HW1 6196   3.084   2.303   0.329
 2061SOL    HW2 6197   3.042   2.461   0.335
 2062SOL     OW 6198   2.169   2.075   1.231
 2062SOL    HW1 6199   2.146   2.112   1.321
 2062SOL    HW2 6200   2.139   1.980   1.225
 2063SOL     OW 6201   1.899   3.172   1.282
 2063SOL    HW1 6202   1.952   3.123   1.350
 2063SOL    HW2 6203   1.921   3.270   1.287
 2064SOL     OW 6204   2.594   2.496   1.064
 2064SOL    HW1 6205   2.653   2.470   0.988
 2064SOL    HW2 6206   2.566   2.592   1.053
 2065SOL     OW 6207   3.590   2.797   1.854
 2065SOL    HW1 6208   3.544   2.790   1.765
 2065SOL    HW2 6209   3.528   2.841   1.920
 2066SOL     OW 6210   2.169   1.925   0.618
 2066SOL    HW1 6211   2.158   2.019   0.651
 2066SOL    HW2 6212   2.164   1.862   0.695
 2067SOL     OW 6213   3.484   2.229   0.374
 2067SOL    HW1 6214   3.486   2.153   0.438
 2067SOL    HW2 6215   3.436   2.306   0.414
 2068SOL     OW 6216   2.885   2.628   0.966
 2068SOL    HW1 6217   2.900   2.649   1.062
 2068SOL    HW2 6218   2.855   2.533   0.957
 2069SOL     OW 6219   2.842   3.435   1.700
 2069SOL    HW1 6220   2.822   3.479   1.612
 2069SOL    HW2 6221   2.881   3.344   1.684
 2070SOL     OW 6222   3.721   3.380   1.605
 2070SOL    HW1 6223   3.735   3.407   1.510
 2070SOL    HW2 6224   3.804   3.402   1.658
 2071SOL     OW 6225   2.212   2.760   1.804
 2071SOL    HW1 6226   2.288   2.804   1.852
 2071SOL    HW2 6227   2.247   2.713   1.722
 2072SOL     OW 6228   3.402   2.136   0.125
 2072SOL    HW1 6229   3.341   2.061   0.148
 2072SOL    HW2 6230   3.424   2.188   0.208
 2073SOL     OW 6231   3.165   2.700   0.042
 2073SOL    HW1 6232   3.199   2.607   0.057
 2073SOL    HW2 6233   3.183   2.727  -0.053
 2074SOL     OW 6234   2.930   3.195   0.849
 2074SOL    HW1 6235   2.937   3.111   0.794
 2074SOL    HW2 6236   2.992   3.264   0.813
 2075SOL     OW 6237   2.181   2.672   0.949
 2075SOL    HW1 6238   2.274   2.708   0.954
 2075SOL    HW2 6239   2.175   2.587   1.001
 2076SOL     OW 6240   2.201   2.371   1.006
 2076SOL    HW1 6241   2.149   2.288   0.989
 2076SOL    HW2 6242   2.278   2.376   0.942
 2077SOL     OW 6243   3.000   2.242   1.678
 2077SOL    HW1 6244   2.955   2.305   1.742
 2077SOL    HW2 6245   3.093   2.273   1.661
 2078SOL     OW 6246   3.022   2.069   1.477
 2078SOL    HW1 6247   3.022   2.133   1.554
 2078SOL    HW2 6248   3.050   2.117   1.394
 2079SOL     OW 6249   1.870   3.188   0.200
 2079SOL    HW1 6250   1.777   3.209   0.169
 2079SOL    HW2 6251   1.880   3.089   0.213
 2080SOL     OW 6252   1.950   3.663   0.927
 2080SOL    HW1 6253   1.908   3.577   0.900
 2080SOL    HW2 6254   2.044   3.666   0.893
 2081SOL     OW 6255   2.366   3.430   0.910
 2081SOL    HW1 6256   2.432   3.504   0.919
 2081SOL    HW2 6257   2.410   3.351   0.868
 2082SOL     OW 6258   2.864   2.658   1.238
 2082SOL    HW1 6259   2.905   2.626   1.324
 2082SOL    HW2 6260   2.768   2.631   1.235
 2083SOL     OW 6261   1.902   2.406   1.114
 2083SOL    HW1 6262   1.987   2.373   1.073
 2083SOL    HW2 6263   1.915   2.421   1.212
 2084SOL     OW 6264   2.051   2.382   1.722
 2084SOL    HW1 6265   2.110   2.342   1.652
 2084SOL    HW2 6266   1.993   2.453   1.681
 2085SOL     OW 6267   3.231   2.812   1.660
 2085SOL    HW1 6268   3.270   2.901   1.680
 2085SOL    HW2 6269   3.241   2.792   1.563
 2086SOL     OW 6270   2.677   2.434   0.325
 2086SOL    HW1 6271   2.684   2.345   0.279
 2086SOL    HW2 6272   2.583   2.468   0.317
 2087SOL     OW 6273   3.519   2.466   1.206
 2087SOL    HW1 6274   3.481   2.397   1.268
 2087SOL    HW2 6275   3.601   2.430   1.162
 2088SOL     OW 6276   2.114   3.426   1.744
 2088SOL    HW1 6277   2.084   3.483   1.820
 2088SOL    HW2 6278   2.107   3.329   1.770
 2089SOL     OW 6279   2.533   2.326   1.269
 2089SOL    HW1 6280   2.499   2.237   1.239
 2089SOL    HW2 6281   2.559   2.380   1.189
 2090SOL     OW 6282   2.792   3.540   1.465
 2090SOL    HW1 6283   2.768   3.522   1.370
 2090SOL    HW2 6284   2.822   3.634   1.475
 2091SOL     OW 6285   2.335   2.362   0.191
 2091SOL    HW1 6286   2.396   2.442   0.195
 2091SOL    HW2 6287   2.240   2.393   0.198
 2092SOL     OW 6288   2.021   2.999   1.466
 2092SOL    HW1 6289   2.043   2.938   1.542
 2092SOL    HW2 6290   2.031   2.950   1.380
 2093SOL     OW 6291   3.209   2.921   1.234
 2093SOL    HW1 6292   3.233   2.858   1.160
 2093SOL    HW2 6293   3.119   2.961   1.216
 2094SOL     OW 6294   3.164   2.717   0.309
 2094SOL    HW1 6295   3.078   2.686   0.351
 2094SOL    HW2 6296   3.160   2.703   0.210
 2095SOL     OW 6297   3.621   3.609   1.154
 2095SOL    HW1 6298   3.682   3.639   1.081
 2095SOL    HW2 6299   3.583   3.520   1.132
 2096SOL     OW 6300   3.114   3.593   1.128
 2096SOL    HW1 6301   3.198   3.598   1.074
 2096SOL    HW2 6302   3.091   3.497   1.146
 2097SOL     OW 6303   1.945   3.120   1.022
 2097SOL    HW1 6304   1.940   3.119   1.122
 2097SOL    HW2 6305   1.862   3.079   0.984
 2098SOL     OW 6306   2.550   3.524   1.716
 2098SOL    HW1 6307   2.494   3.605   1.725
 2098SOL    HW2 6308   2.602   3.528   1.630
 2099SOL     OW 6309   2.765   1.948   0.133
 2099SOL    HW1 6310   2.816   1.949   0.047
 2099SOL    HW2 6311   2.821   1.906   0.204
 2100SOL     OW 6312   3.588   1.997   0.523
 2100SOL    HW1 6313   3.661   1.980   0.456
 2100SOL    HW2 6314   3.557   1.910   0.561
 2101SOL     OW 6315   3.250   3.435   0.477
 2101SOL    HW1 6316   3.317   3.447   0.403
 2101SOL    HW2 6317   3.210   3.524   0.500
 2102SOL     OW 6318   1.992   3.656   1.851
 2102SOL    HW1 6319   1.951   3.582   1.904
 2102SOL    HW2 6320   2.056   3.707   1.909
 2103SOL     OW 6321   3.142   2.789   0.672
 2103SOL    HW1 6322   3.202   2.708   0.674
 2103SOL    HW2 6323   3.182   2.858   0.612
 2104SOL     OW 6324   2.692   3.135   1.422
 2104SOL    HW1 6325   2.687   3.168   1.517
 2104SOL    HW2 6326   2.606   3.154   1.376
 2105SOL     OW 6327   2.534   3.478   0.154
 2105SOL    HW1 6328   2.543   3.488   0.055
 2105SOL    HW2 6329   2.494   3.389   0.175
 2106SOL     OW 6330   3.512   3.582   1.394
 2106SOL    HW1 6331   3.565   3.592   1.310
 2106SOL    HW2 6332   3.485   3.672   1.428
 2107SOL     OW 6333   3.703   2.037   0.963
 2107SOL    HW1 6334   3.742   1.952   0.927
 2107SOL    HW2 6335   3.605   2.039   0.944
 2108SOL     OW 6336   2.125   2.188   0.720
 2108SOL    HW1 6337   2.046   2.239   0.686
 2108SOL    HW2 6338   2.116   2.173   0.818
 2109SOL     OW 6339   3.056   3.474   0.031
 2109SOL    HW1 6340   3.062   3.381   0.068
 2109SOL    HW2 6341   2.997   3.474  -0.049
 2110SOL     OW 6342   2.684   2.864   1.372
 2110SOL    HW1 6343   2.724   2.863   1.280
 2110SOL    HW2 6344   2.694   2.956   1.412
 2111SOL     OW 6345   2.778   2.772   0.291
 2111SOL    HW1 6346   2.841   2.810   0.223
 2111SOL    HW2 6347   2.818   2.689   0.330
 2112SOL     OW 6348   3.366   3.469   0.044
 2112SOL    HW1 6349   3.274   3.506   0.051
 2112SOL    HW2 6350   3.404   3.489  -0.046
 2113SOL     OW 6351   2.234   3.150   1.490
 2113SOL    HW1 6352   2.221   3.243   1.456
 2113SOL    HW2 6353   2.150   3.098   1.477
 2114SOL     OW 6354   3.476   3.154   1.289
 2114SOL    HW1 6355   3.536   3.157   1.369
 2114SOL    HW2 6356   3.401   3.218   1.302
 2115SOL     OW 6357   2.901   2.960   0.696
 2115SOL    HW1 6358   2.831   2.913   0.750
 2115SOL    HW2 6359   2.960   2.892   0.653
 2116SOL     OW 6360   2.876   2.098   0.971
 2116SOL    HW1 6361   2.868   2.062   0.878
 2116SOL    HW2 6362   2.874   2.022   1.036
 2117SOL     OW 6363   2.452   3.349   0.491
 2117SOL    HW1 6364   2.494   3.291   0.421
 2117SOL    HW2 6365   2.408   3.428   0.447
 2118SOL     OW 6366   3.571   2.247   1.381
 2118SOL    HW1 6367   3.644   2.316   1.385
 2118SOL    HW2 6368   3.599   2.172   1.322
 2119SOL     OW 6369   2.117   3.210   0.290
 2119SOL    HW1 6370   2.021   3.211   0.263
 2119SOL    HW2 6371   2.129   3.263   0.374
 2120SOL     OW 6372   1.967   2.875   1.726
 2120SOL    HW1 6373   1.890   2.842   1.780
 2120SOL    HW2 6374   2.052   2.845   1.768
 2121SOL     OW 6375   2.534   2.065   1.489
 2121SOL    HW1 6376   2.624   2.049   1.449
 2121SOL    HW2 6377   2.542   2.070   1.588
 2122SOL     OW 6378   1.937   2.207   0.033
 2122SOL    HW1 6379   1.845   2.179   0.004
 2122SOL    HW2 6380   1.968   2.284  -0.023
 2123SOL     OW 6381   3.302   2.718   1.398
 2123SOL    HW1 6382   3.245   2.770   1.335
 2123SOL    HW2 6383   3.398   2.730   1.374
 2124SOL     OW 6384   3.045   3.197   0.119
 2124SOL    HW1 6385   2.946   3.186   0.121
 2124SOL    HW2 6386   3.079   3.212   0.212
 2125SOL     OW 6387   2.475   2.704   1.431
 2125SOL    HW1 6388   2.531   2.785   1.414
 2125SOL    HW2 6389   2.534   2.624   1.434
 2126SOL     OW 6390   3.355   3.629   0.959
 2126SOL    HW1 6391   3.388   3.693   0.890
 2126SOL    HW2 6392   3.421   3.623   1.034
 2127SOL     OW 6393   2.578   2.427   1.708
 2127SOL    HW1 6394   2.597   2.492   1.782
 2127SOL    HW2 6395   2.638   2.347   1.717
 2128SOL     OW 6396   3.312   3.082   1.633
 2128SOL    HW1 6397   3.303   3.072   1.732
 2128SOL    HW2 6398   3.408   3.075   1.607
 2129SOL     OW 6399   2.252   3.603   1.560
 2129SOL    HW1 6400   2.161   3.644   1.558
 2129SOL    HW2 6401   2.245   3.509   1.592
 2130SOL     OW 6402   3.536   2.745   1.254
 2130SOL    HW1 6403   3.509   2.656   1.217
 2130SOL    HW2 6404   3.537   2.813   1.181
 2131SOL     OW 6405   3.087   2.187   0.449
 2131SOL    HW1 6406   3.152   2.113   0.438
 2131SOL    HW2 6407   3.107   2.237   0.533
 2132SOL     OW 6408   2.456   2.607   0.652
 2132SOL    HW1 6409   2.506   2.692   0.633
 2132SOL    HW2 6410   2.368   2.609   0.604
 2133SOL     OW 6411   3.639   2.204   1.642
 2133SOL    HW1 6412   3.622   2.235   1.548
 2133SOL    HW2 6413   3.555   2.167   1.680
 2134SOL     OW 6414   3.592   2.796   1.517
 2134SOL    HW1 6415   3.630   2.887   1.532
 2134SOL    HW2 6416   3.584   2.779   1.418
 2135SOL     OW 6417   2.721   3.236   0.016
 2135SOL    HW1 6418   2.675   3.251   0.104
 2135SOL    HW2 6419   2.765   3.321  -0.014
 2136SOL     OW 6420   2.523   3.652   0.953
 2136SOL    HW1 6421   2.477   3.740   0.940
 2136SOL    HW2 6422   2.622   3.664   0.946
 2137SOL     OW 6423   2.721   2.818   0.861
 2137SOL    HW1 6424   2.775   2.749   0.909
 2137SOL    HW2 6425   2.689   2.887   0.927
 2138SOL     OW 6426   2.945   2.846   0.087
 2138SOL    HW1 6427   2.922   2.899   0.005
 2138SOL    HW2 6428   3.026   2.790   0.068
 2139SOL     OW 6429   3.723   3.431   0.851
 2139SOL    HW1 6430   3.652   3.419   0.781
 2139SOL    HW2 6431   3.724   3.352   0.911
 2140SOL     OW 6432   2.083   3.176   1.844
 2140SOL    HW1 6433   2.018   3.103   1.823
 2140SOL    HW2 6434   2.087   3.190   1.942
 2141SOL     OW 6435   1.941   3.102   0.653
 2141SOL    HW1 6436   1.940   3.055   0.741
 2141SOL    HW2 6437   2.023   3.074   0.602
 2142SOL     OW 6438   2.534   3.253   1.624
 2142SOL    HW1 6439   2.456   3.203   1.662
 2142SOL    HW2 6440   2.531   3.348   1.655
 2143SOL     OW 6441   3.686   2.054   1.227
 2143SOL    HW1 6442   3.682   1.964   1.271
 2143SOL    HW2 6443   3.689   2.043   1.128
 2144SOL     OW 6444   2.290   2.286   0.520
 2144SOL    HW1 6445   2.320   2.214   0.458
 2144SOL    HW2 6446   2.251   2.246   0.603
 2145SOL     OW 6447   3.567   3.349   1.104
 2145SOL    HW1 6448   3.474   3.324   1.077
 2145SOL    HW2 6449   3.593   3.299   1.186
 2146SOL     OW 6450   2.179   2.409   1.280
 2146SOL    HW1 6451   2.217   2.350   1.352
 2146SOL    HW2 6452   2.219   2.383   1.192
 2147SOL     OW 6453   2.674   3.448   0.687
 2147SOL    HW1 6454   2.706   3.458   0.593
 2147SOL    HW2 6455   2.595   3.386   0.689
 2148SOL     OW 6456   3.286   2.076   1.112
 2148SOL    HW1 6457   3.338   2.011   1.167
 2148SOL    HW2 6458   3.237   2.139   1.173
 2149SOL     OW 6459   2.863   1.896   1.154
 2149SOL    HW1 6460   2.800   1.824   1.123
 2149SOL    HW2 6461   2.956   1.860   1.154
 2150SOL     OW 6462   2.632   3.192   0.301
 2150SOL    HW1 6463   2.586   3.105   0.318
 2150SOL    HW2 6464   2.723   3.189   0.342
 2151SOL     OW 6465   2.480   3.429   1.284
 2151SOL    HW1 6466   2.475   3.511   1.341
 2151SOL    HW2 6467   2.569   3.426   1.239
 2152SOL     OW 6468   3.214   1.914   0.168
 2152SOL    HW1 6469   3.249   1.873   0.084
 2152SOL    HW2 6470   3.124   1.876   0.188
 2153SOL     OW 6471   3.162   2.315   0.691
 2153SOL    HW1 6472   3.103   2.395   0.695
 2153SOL    HW2 6473   3.177   2.280   0.784
 2154SOL     OW 6474   3.455   2.083   0.882
 2154SOL    HW1 6475   3.371   2.082   0.936
 2154SOL    HW2 6476   3.457   2.166   0.826
 2155SOL     OW 6477   1.901   2.939   0.300
 2155SOL    HW1 6478   2.000   2.928   0.291
 2155SOL    HW2 6479   1.861   2.853   0.332
 2156SOL     OW 6480   2.737   3.508   0.337
 2156SOL    HW1 6481   2.660   3.473   0.283
 2156SOL    HW2 6482   2.705   3.579   0.399
 2157SOL     OW 6483   2.092   2.490   1.975
 2157SOL    HW1 6484   1.999   2.488   2.012
 2157SOL    HW2 6485   2.093   2.451   1.883
 2158SOL     OW 6486   2.087   2.137   2.858
 2158SOL    HW1 6487   2.122   2.120   2.950
 2158SOL    HW2 6488   1.999   2.092   2.846
 2159SOL     OW 6489   1.881   2.230   2.509
 2159SOL    HW1 6490   1.799   2.273   2.548
 2159SOL    HW2 6491   1.853   2.157   2.446
 2160SOL     OW 6492   2.431   3.137   3.027
 2160SOL    HW1 6493   2.338   3.130   2.990
 2160SOL    HW2 6494   2.442   3.226   3.071
 2161SOL     OW 6495   3.417   3.373   2.565
 2161SOL    HW1 6496   3.360   3.357   2.646
 2161SOL    HW2 6497   3.358   3.383   2.485
 2162SOL     OW 6498   2.997   2.565   2.579
 2162SOL    HW1 6499   3.054   2.643   2.554
 2162SOL    HW2 6500   2.937   2.591   2.655
 2163SOL     OW 6501   3.617   2.469   2.093
 2163SOL    HW1 6502   3.605   2.456   1.994
 2163SOL    HW2 6503   3.587   2.388   2.142
 2164SOL     OW 6504   2.630   3.006   2.885
 2164SOL    HW1 6505   2.552   3.023   2.945
 2164SOL    HW2 6506   2.664   3.093   2.849
 2165SOL     OW 6507   2.712   2.660   3.685
 2165SOL    HW1 6508   2.708   2.736   3.750
 2165SOL    HW2 6509   2.734   2.696   3.594
 2166SOL     OW 6510   2.547   2.874   2.527
 2166SOL    HW1 6511   2.616   2.858   2.597
 2166SOL    HW2 6512   2.474   2.931   2.565
 2167SOL     OW 6513   2.548   3.023   3.665
 2167SOL    HW1 6514   2.608   3.102   3.679
 2167SOL    HW2 6515   2.462   3.054   3.624
 2168SOL     OW 6516   2.197   3.297   2.923
 2168SOL    HW1 6517   2.119   3.266   2.870
 2168SOL    HW2 6518   2.255   3.355   2.866
 2169SOL     OW 6519   3.322   3.367   3.201
 2169SOL    HW1 6520   3.346   3.461   3.227
 2169SOL    HW2 6521   3.306   3.313   3.283
 2170SOL     OW 6522   2.300   2.254   3.361
 2170SOL    HW1 6523   2.382   2.198   3.370
 2170SOL    HW2 6524   2.219   2.196   3.365
 2171SOL     OW 6525   3.465   2.309   2.599
 2171SOL    HW1 6526   3.391   2.355   2.549
 2171SOL    HW2 6527   3.516   2.377   2.652
 2172SOL     OW 6528   2.093   3.575   2.345
 2172SOL    HW1 6529   2.127   3.652   2.399
 2172SOL    HW2 6530   2.137   3.575   2.255
 2173SOL     OW 6531   2.989   3.203   3.552
 2173SOL    HW1 6532   3.036   3.203   3.640
 2173SOL    HW2 6533   2.941   3.116   3.541
 2174SOL     OW 6534   2.092   3.296   2.400
 2174SOL    HW1 6535   2.066   3.392   2.400
 2174SOL    HW2 6536   2.021   3.242   2.445
 2175SOL     OW 6537   2.102   2.953   2.748
 2175SOL    HW1 6538   2.116   2.869   2.800
 2175SOL    HW2 6539   2.047   3.017   2.803
 2176SOL     OW 6540   2.482   3.648   3.301
 2176SOL    HW1 6541   2.390   3.631   3.336
 2176SOL    HW2 6542   2.510   3.740   3.327
 2177SOL     OW 6543   2.468   2.826   1.985
 2177SOL    HW1 6544   2.475   2.910   1.931
 2177SOL    HW2 6545   2.514   2.839   2.073
 2178SOL     OW 6546   3.456   1.976   3.342
 2178SOL    HW1 6547   3.438   2.043   3.270
 2178SOL    HW2 6548   3.453   2.022   3.431
 2179SOL     OW 6549   1.984   2.505   2.425
 2179SOL    HW1 6550   1.939   2.417   2.442
 2179SOL    HW2 6551   1.983   2.559   2.509
 2180SOL     OW 6552   3.704   3.629   2.221
 2180SOL    HW1 6553   3.758   3.600   2.301
 2180SOL    HW2 6554   3.734   3.719   2.192
 2181SOL     OW 6555   1.889   3.458   1.979
 2181SOL    HW1 6556   1.870   3.362   2.000
 2181SOL    HW2 6557   1.856   3.516   2.054
 2182SOL     OW 6558   3.551   2.784   2.474
 2182SOL    HW1 6559   3.646   2.755   2.482
 2182SOL    HW2 6560   3.543   2.849   2.399
 2183SOL     OW 6561   3.503   2.970   2.294
 2183SOL    HW1 6562   3.589   2.972   2.242
 2183SOL    HW2 6563   3.517   3.017   2.382
 2184SOL     OW 6564   1.975   2.599   3.459
 2184SOL    HW1 6565   2.063   2.586   3.504
 2184SOL    HW2 6566   1.962   2.696   3.437
 2185SOL     OW 6567   2.475   3.227   2.588
 2185SOL    HW1 6568   2.426   3.140   2.597
 2185SOL    HW2 6569   2.452   3.270   2.501
 2186SOL     OW 6570   3.155   3.090   3.285
 2186SOL    HW1 6571   3.192   3.017   3.227
 2186SOL    HW2 6572   3.207   3.095   3.370
 2187SOL     OW 6573   2.671   1.866   2.364
 2187SOL    HW1 6574   2.711   1.957   2.355
 2187SOL    HW2 6575   2.571   1.874   2.370
 2188SOL     OW 6576   2.059   2.838   3.126
 2188SOL    HW1 6577   2.148   2.793   3.112
 2188SOL    HW2 6578   1.986   2.773   3.107
 2189SOL     OW 6579   3.387   2.861   2.052
 2189SOL    HW1 6580   3.324   2.785   2.065
 2189SOL    HW2 6581   3.435   2.879   2.138
 2190SOL     OW 6582   3.049   3.654   3.478
 2190SOL    HW1 6583   3.073   3.714   3.402
 2190SOL    HW2 6584   3.056   3.559   3.448
 2191SOL     OW 6585   2.179   2.113   3.663
 2191SOL    HW1 6586   2.250   2.184   3.669
 2191SOL    HW2 6587   2.091   2.152   3.691
 2192SOL     OW 6588   3.328   3.279   2.815
 2192SOL    HW1 6589   3.269   3.285   2.895
 2192SOL    HW2 6590   3.313   3.191   2.769
 2193SOL     OW 6591   3.529   3.576   2.434
 2193SOL    HW1 6592   3.488   3.553   2.346
 2193SOL    HW2 6593   3.511   3.502   2.499
 2194SOL     OW 6594   2.460   2.591   2.132
 2194SOL    HW1 6595   2.484   2.660   2.064
 2194SOL    HW2 6596   2.382   2.624   2.186
 2195SOL     OW 6597   3.143   2.207   2.806
 2195SOL    HW1 6598   3.057   2.157   2.793
 2195SOL    HW2 6599   3.205   2.153   2.862
 2196SOL     OW 6600   3.438   3.524   2.169
 2196SOL    HW1 6601   3.527   3.570   2.172
 2196SOL    HW2 6602   3.417   3.500   2.074
 2197SOL     OW 6603   2.669   2.467   3.327
 2197SOL    HW1 6604   2.622   2.464   3.416
 2197SOL    HW2 6605   2.618   2.412   3.261
 2198SOL     OW 6606   3.256   2.331   3.536
 2198SOL    HW1 6607   3.236   2.374   3.624
 2198SOL    HW2 6608   3.334   2.269   3.545
 2199SOL     OW 6609   2.835   2.752   3.434
 2199SOL    HW1 6610   2.881   2.668   3.405
 2199SOL    HW2 6611   2.779   2.786   3.359
 2200SOL     OW 6612   2.853   2.272   3.104
 2200SOL    HW1 6613   2.776   2.306   3.158
 2200SOL    HW2 6614   2.819   2.221   3.025
 2201SOL     OW 6615   2.903   2.563   2.291
 2201SOL    HW1 6616   2.929   2.559   2.387
 2201SOL    HW2 6617   2.818   2.512   2.277
 2202SOL     OW 6618   1.938   2.673   2.651
 2202SOL    HW1 6619   2.037   2.661   2.660
 2202SOL    HW2 6620   1.914   2.768   2.672
 2203SOL     OW 6621   1.992   3.683   3.433
 2203SOL    HW1 6622   1.982   3.668   3.532
 2203SOL    HW2 6623   1.906   3.719   3.397
 2204SOL     OW 6624   2.727   2.210   2.057
 2204SOL    HW1 6625   2.786   2.273   2.008
 2204SOL    HW2 6626   2.746   2.116   2.028
 2205SOL     OW 6627   3.581   2.447   3.693
 2205SOL    HW1 6628   3.555   2.536   3.657
 2205SOL    HW2 6629   3.579   2.379   3.620
 2206SOL     OW 6630   3.224   3.006   2.407
 2206SOL    HW1 6631   3.307   2.977   2.359
 2206SOL    HW2 6632   3.175   3.073   2.351
 2207SOL     OW 6633   2.412   2.058   2.747
 2207SOL    HW1 6634   2.407   2.053   2.847
 2207SOL    HW2 6635   2.414   2.154   2.718
 2208SOL     OW 6636   2.870   3.318   2.339
 2208SOL    HW1 6637   2.824   3.390   2.287
 2208SOL    HW2 6638   2.866   3.338   2.437
 2209SOL     OW 6639   2.213   3.663   2.715
 2209SOL    HW1 6640   2.263   3.577   2.721
 2209SOL    HW2 6641   2.278   3.740   2.712
 2210SOL     OW 6642   3.657   2.928   2.735
 2210SOL    HW1 6643   3.595   2.913   2.659
 2210SOL    HW2 6644   3.605   2.939   2.820
 2211SOL     OW 6645   3.089   3.412   3.368
 2211SOL    HW1 6646   3.095   3.335   3.432
 2211SOL    HW2 6647   3.037   3.386   3.288
 2212SOL     OW 6648   2.183   2.805   2.104
 2212SOL    HW1 6649   2.265   2.844   2.062
 2212SOL    HW2 6650   2.156   2.723   2.055
 2213SOL     OW 6651   3.320   2.597   2.590
 2213SOL    HW1 6652   3.315   2.532   2.665
 2213SOL    HW2 6653   3.400   2.656   2.603
 2214SOL     OW 6654   2.323   3.128   3.589
 2214SOL    HW1 6655   2.273   3.129   3.503
 2214SOL    HW2 6656   2.260   3.110   3.665
 2215SOL     OW 6657   2.973   3.638   2.099
 2215SOL    HW1 6658   2.913   3.576   2.149
 2215SOL    HW2 6659   3.004   3.594   2.014
 2216SOL     OW 6660   2.064   2.147   3.360
 2216SOL    HW1 6661   1.984   2.207   3.347
 2216SOL    HW2 6662   2.054   2.098   3.446
 2217SOL     OW 6663   3.494   3.239   1.943
 2217SOL    HW1 6664   3.462   3.333   1.933
 2217SOL    HW2 6665   3.418   3.176   1.931
 2218SOL     OW 6666   2.326   3.605   2.185
 2218SOL    HW1 6667   2.359   3.644   2.271
 2218SOL    HW2 6668   2.402   3.598   2.120
 2219SOL     OW 6669   3.262   1.969   2.288
 2219SOL    HW1 6670   3.238   1.932   2.198
 2219SOL    HW2 6671   3.361   1.985   2.292
 2220SOL     OW 6672   2.111   3.647   3.103
 2220SOL    HW1 6673   2.168   3.582   3.153
 2220SOL    HW2 6674   2.095   3.614   3.010
 2221SOL     OW 6675   2.802   3.560   2.766
 2221SOL    HW1 6676   2.882   3.503   2.787
 2221SOL    HW2 6677   2.753   3.520   2.689
 2222SOL     OW 6678   3.409   2.084   3.591
 2222SOL    HW1 6679   3.404   2.121   3.683
 2222SOL    HW2 6680   3.337   2.015   3.579
 2223SOL     OW 6681   2.476   1.984   1.979
 2223SOL    HW1 6682   2.574   1.962   1.986
 2223SOL    HW2 6683   2.445   1.967   1.886
 2224SOL     OW 6684   2.643   2.126   3.611
 2224SOL    HW1 6685   2.710   2.065   3.654
 2224SOL    HW2 6686   2.570   2.145   3.676
 2225SOL     OW 6687   2.750   3.376   3.057
 2225SOL    HW1 6688   2.727   3.351   2.963
 2225SOL    HW2 6689   2.811   3.307   3.096
 2226SOL     OW 6690   3.213   2.452   3.295
 2226SOL    HW1 6691   3.241   2.409   3.380
 2226SOL    HW2 6692   3.238   2.548   3.296
 2227SOL     OW 6693   2.665   3.264   2.786
 2227SOL    HW1 6694   2.755   3.278   2.744
 2227SOL    HW2 6695   2.594   3.266   2.715
 2228SOL     OW 6696   2.784   2.365   2.761
 2228SOL    HW1 6697   2.759   2.356   2.665
 2228SOL    HW2 6698   2.832   2.283   2.792
 2229SOL     OW 6699   2.401   1.926   2.374
 2229SOL    HW1 6700   2.320   1.927   2.432
 2229SOL    HW2 6701   2.404   2.009   2.319
 2230SOL     OW 6702   3.296   3.050   1.903
 2230SOL    HW1 6703   3.328   2.974   1.960
 2230SOL    HW2 6704   3.204   3.077   1.933
 2231SOL     OW 6705   2.159   1.897   2.033
 2231SOL    HW1 6706   2.208   1.981   2.012
 2231SOL    HW2 6707   2.221   1.832   2.078
 2232SOL     OW 6708   2.797   2.098   2.342
 2232SOL    HW1 6709   2.749   2.139   2.264
 2232SOL    HW2 6710   2.896   2.096   2.323
 2233SOL     OW 6711   2.938   2.545   3.326
 2233SOL    HW1 6712   2.858   2.484   3.329
 2233SOL    HW2 6713   3.019   2.492   3.302
 2234SOL     OW 6714   3.089   3.432   2.655
 2234SOL    HW1 6715   3.110   3.506   2.590
 2234SOL    HW2 6716   3.157   3.432   2.728
 2235SOL     OW 6717   2.321   3.014   2.603
 2235SOL    HW1 6718   2.250   2.987   2.668
 2235SOL    HW2 6719   2.295   2.986   2.510
 2236SOL     OW 6720   3.133   3.659   2.453
 2236SOL    HW1 6721   3.177   3.723   2.389
 2236SOL    HW2 6722   3.083   3.711   2.523
 2237SOL     OW 6723   2.894   2.411   1.878
 2237SOL    HW1 6724   2.853   2.493   1.839
 2237SOL    HW2 6725   2.958   2.437   1.951
 2238SOL     OW 6726   1.940   2.418   3.248
 2238SOL    HW1 6727   2.032   2.417   3.207
 2238SOL    HW2 6728   1.934   2.492   3.315
 2239SOL     OW 6729   2.423   2.084   3.009
 2239SOL    HW1 6730   2.461   2.000   3.046
 2239SOL    HW2 6731   2.335   2.103   3.053
 2240SOL     OW 6732   2.728   2.316   2.504
 2240SOL    HW1 6733   2.696   2.388   2.442
 2240SOL    HW2 6734   2.752   2.235   2.451
 2241SOL     OW 6735   2.879   1.901   2.615
 2241SOL    HW1 6736   2.807   1.906   2.546
 2241SOL    HW2 6737   2.855   1.832   2.684
 2242SOL     OW 6738   3.291   3.035   2.729
 2242SOL    HW1 6739   3.236   2.951   2.722
 2242SOL    HW2 6740   3.317   3.064   2.637
 2243SOL     OW 6741   3.328   2.452   2.854
 2243SOL    HW1 6742   3.298   2.357   2.861
 2243SOL    HW2 6743   3.401   2.468   2.920
 2244SOL     OW 6744   3.719   2.695   2.239
 2244SOL    HW1 6745   3.761   2.631   2.303
 2244SOL    HW2 6746   3.681   2.644   2.161
 2245SOL     OW 6747   2.350   3.247   2.036
 2245SOL    HW1 6748   2.263   3.232   2.083
 2245SOL    HW2 6749   2.333   3.273   1.941
 2246SOL     OW 6750   3.526   3.142   2.519
 2246SOL    HW1 6751   3.625   3.150   2.533
 2246SOL    HW2 6752   3.481   3.226   2.550
 2247SOL     OW 6753   3.252   2.437   1.940
 2247SOL    HW1 6754   3.198   2.416   2.021
 2247SOL    HW2 6755   3.343   2.396   1.949
 2248SOL     OW 6756   3.616   3.085   3.450
 2248SOL    HW1 6757   3.707   3.046   3.437
 2248SOL    HW2 6758   3.624   3.181   3.474
 2249SOL     OW 6759   2.926   3.209   3.202
 2249SOL    HW1 6760   2.846   3.186   3.257
 2249SOL    HW2 6761   3.009   3.183   3.251
 2250SOL     OW 6762   3.454   3.491   3.487
 2250SOL    HW1 6763   3.481   3.525   3.397
 2250SOL    HW2 6764   3.533   3.453   3.533
 2251SOL     OW 6765   2.973   3.057   2.962
 2251SOL    HW1 6766   2.933   3.101   3.043
 2251SOL    HW2 6767   2.932   3.094   2.879
 2252SOL     OW 6768   3.500   2.961   2.941
 2252SOL    HW1 6769   3.505   3.042   3.000
 2252SOL    HW2 6770   3.414   2.963   2.890
 2253SOL     OW 6771   2.777   1.951   3.264
 2253SOL    HW1 6772   2.802   1.931   3.169
 2253SOL    HW2 6773   2.849   2.007   3.306
 2254SOL     OW 6774   2.842   2.978   3.581
 2254SOL    HW1 6775   2.743   2.984   3.591
 2254SOL    HW2 6776   2.865   2.898   3.525
 2255SOL     OW 6777   2.567   2.912   2.230
 2255SOL    HW1 6778   2.553   2.919   2.329
 2255SOL    HW2 6779   2.651   2.861   2.212
 2256SOL     OW 6780   2.272   2.675   3.113
 2256SOL    HW1 6781   2.358   2.687   3.163
 2256SOL    HW2 6782   2.230   2.588   3.140
 2257SOL     OW 6783   3.136   2.248   3.124
 2257SOL    HW1 6784   3.157   2.322   3.188
 2257SOL    HW2 6785   3.047   2.265   3.081
 2258SOL     OW 6786   1.926   3.426   3.193
 2258SOL    HW1 6787   1.880   3.508   3.159
 2258SOL    HW2 6788   2.024   3.445   3.202
 2259SOL     OW 6789   2.229   2.962   2.363
 2259SOL    HW1 6790   2.222   3.045   2.307
 2259SOL    HW2 6791   2.233   2.882   2.303
 2260SOL     OW 6792   3.114   3.210   2.250
 2260SOL    HW1 6793   3.164   3.287   2.290
 2260SOL    HW2 6794   3.019   3.212   2.282
 2261SOL     OW 6795   3.134   3.307   3.004
 2261SOL    HW1 6796   3.181   3.320   3.091
 2261SOL    HW2 6797   3.068   3.233   3.013
 2262SOL     OW 6798   3.444   2.501   2.334
 2262SOL    HW1 6799   3.413   2.562   2.407
 2262SOL    HW2 6800   3.494   2.553   2.265
 2263SOL     OW 6801   2.216   3.372   3.191
 2263SOL    HW1 6802   2.195   3.328   3.104
 2263SOL    HW2 6803   2.313   3.398   3.194
 2264SOL     OW 6804   2.264   2.613   3.460
 2264SOL    HW1 6805   2.332   2.668   3.413
 2264SOL    HW2 6806   2.304   2.525   3.487
 2265SOL     OW 6807   3.449   2.641   3.532
 2265SOL    HW1 6808   3.357   2.679   3.527
 2265SOL    HW2 6809   3.509   2.688   3.467
 2266SOL     OW 6810   2.875   1.967   3.632
 2266SOL    HW1 6811   2.881   2.052   3.580
 2266SOL    HW2 6812   2.907   1.891   3.575
 2267SOL     OW 6813   2.366   1.912   3.602
 2267SOL    HW1 6814   2.324   1.855   3.532
 2267SOL    HW2 6815   2.300   1.981   3.634
 2268SOL     OW 6816   2.435   2.732   2.891
 2268SOL    HW1 6817   2.479   2.821   2.882
 2268SOL    HW2 6818   2.372   2.732   2.968
 2269SOL     OW 6819   3.222   2.724   2.907
 2269SOL    HW1 6820   3.147   2.724   2.841
 2269SOL    HW2 6821   3.259   2.632   2.916
 2270SOL     OW 6822   3.071   2.387   2.137
 2270SOL    HW1 6823   3.084   2.303   2.191
 2270SOL    HW2 6824   3.042   2.461   2.197
 2271SOL     OW 6825   2.169   2.075   3.093
 2271SOL    HW1 6826   2.146   2.112   3.183
 2271SOL    HW2 6827   2.139   1.980   3.087
 2272SOL     OW 6828   1.899   3.172   3.144
 2272SOL    HW1 6829   1.952   3.123   3.212
 2272SOL    HW2 6830   1.921   3.270   3.149
 2273SOL     OW 6831   2.594   2.496   2.926
 2273SOL    HW1 6832   2.653   2.470   2.850
 2273SOL    HW2 6833   2.566   2.592   2.915
 2274SOL     OW 6834   3.590   2.797   3.716
 2274SOL    HW1 6835   3.544   2.790   3.627
 2274SOL    HW2 6836   3.528   2.841   3.782
 2275SOL     OW 6837   2.169   1.925   2.480
 2275SOL    HW1 6838   2.158   2.019   2.513
 2275SOL    HW2 6839   2.164   1.862   2.557
 2276SOL     OW 6840   3.484   2.229   2.236
 2276SOL    HW1 6841   3.486   2.153   2.300
 2276SOL    HW2 6842   3.436   2.306   2.276
 2277SOL     OW 6843   2.885   2.628   2.828
 2277SOL    HW1 6844   2.900   2.649   2.924
 2277SOL    HW2 6845   2.855   2.533   2.819
 2278SOL     OW 6846   2.842   3.435   3.562
 2278SOL    HW1 6847   2.822   3.479   3.474
 2278SOL    HW2 6848   2.881   3.344   3.546
 2279SOL     OW 6849   3.721   3.380   3.467
 2279SOL    HW1 6850   3.735   3.407   3.372
 2279SOL    HW2 6851   3.804   3.402   3.520
 2280SOL     OW 6852   2.212   2.760   3.666
 2280SOL    HW1 6853   2.288   2.804   3.714
 2280SOL    HW2 6854   2.247   2.713   3.584
 2281SOL     OW 6855   3.402   2.136   1.987
 2281SOL    HW1 6856   3.341   2.061   2.010
 2281SOL    HW2 6857   3.424   2.188   2.070
 2282SOL     OW 6858   3.165   2.700   1.904
 2282SOL    HW1 6859   3.199   2.607   1.919
 2282SOL    HW2 6860   3.183   2.727   1.809
 2283SOL     OW 6861   2.930   3.195   2.711
 2283SOL    HW1 6862   2.937   3.111   2.656
 2283SOL    HW2 6863   2.992   3.264   2.675
 2284SOL     OW 6864   2.181   2.672   2.811
 2284SOL    HW1 6865   2.274   2.708   2.816
 2284SOL    HW2 6866   2.175   2.587   2.863
 2285SOL     OW 6867   2.201   2.371   2.868
 2285SOL    HW1 6868   2.149   2.288   2.851
 2285SOL    HW2 6869   2.278   2.376   2.804
 2286SOL     OW 6870   3.000   2.242   3.540
 2286SOL    HW1 6871   2.955   2.305   3.604
 2286SOL    HW2 6872   3.093   2.273   3.523
 2287SOL     OW 6873   3.022   2.069   3.339
 2287SOL    HW1 6874   3.022   2.133   3.416
 2287SOL    HW2 6875   3.050   2.117   3.256
 2288SOL     OW 6876   1.870   3.188   2.062
 2288SOL    HW1 6877   1.777   3.209   2.031
 2288SOL    HW2 6878   1.880   3.089   2.075
 2289SOL     OW 6879   1.950   3.663   2.789
 2289SOL    HW1 6880   1.908   3.577   2.762
 2289SOL    HW2 6881   2.044   3.666   2.755
 2290SOL     OW 6882   2.366   3.430   2.772
 2290SOL    HW1 6883   2.432   3.504   2.781
 2290SOL    HW2 6884   2.410   3.351   2.730
 2291SOL     OW 6885   2.864   2.658   3.100
 2291SOL    HW1 6886   2.905   2.626   3.186
 2291SOL    HW2 6887   2.768   2.631   3.097
 2292SOL     OW 6888   1.902   2.406   2.976
 2292SOL    HW1 6889   1.987   2.373   2.935
 2292SOL    HW2 6890   1.915   2.421   3.074
 2293SOL     OW 6891   2.051   2.382   3.584
 2293SOL    HW1 6892   2.110   2.342   3.514
 2293SOL    HW2 6893   1.993   2.453   3.543
 2294SOL     OW 6894   3.231   2.812   3.522
 2294SOL    HW1 6895   3.270   2.901   3.542
 2294SOL    HW2 6896   3.241   2.792   3.425
 2295SOL     OW 6897   3.519   2.466   3.068
 2295SOL    HW1 6898   3.481   2.397   3.130
 2295SOL    HW2 6899   3.601   2.430   3.024
 2296SOL     OW 6900   2.114   3.426   3.606
 2296SOL    HW1 6901   2.084   3.483   3.682
 2296SOL    HW2 6902   2.107   3.329   3.632
 2297SOL     OW 6903   2.533   2.326   3.131
 2297SOL    HW1 6904   2.499   2.237   3.101
 2297SOL    HW2 6905   2.559   2.380   3.051
 2298SOL     OW 6906   2.792   3.540   3.327
 2298SOL    HW1 6907   2.768   3.522   3.232
 2298SOL    HW2 6908   2.822   3.634   3.337
 2299SOL     OW 6909   2.021   2.999   3.328
 2299SOL    HW1 6910   2.043   2.938   3.404
 2299SOL    HW2 6911   2.031   2.950   3.242
 2300SOL     OW 6912   3.209   2.921   3.096
 2300SOL    HW1 6913   3.233   2.858   3.022
 2300SOL    HW2 6914   3.119   2.961   3.078
 2301SOL     OW 6915   3.164   2.717   2.171
 2301SOL    HW1 6916   3.078   2.686   2.213
 2301SOL    HW2 6917   3.160   2.703   2.072
 2302SOL     OW 6918   3.621   3.609   3.016
 2302SOL    HW1 6919   3.682   3.639   2.943
 2302SOL    HW2 6920   3.583   3.520   2.994
 2303SOL     OW 6921   3.114   3.593   2.990
 2303SOL    HW1 6922   3.198   3.598   2.936
 2303SOL    HW2 6923   3.091   3.497   3.008
 2304SOL     OW 6924   1.945   3.120   2.884
 2304SOL    HW1 6925   1.940   3.119   2.984
 2304SOL    HW2 6926   1.862   3.079   2.846
 2305SOL     OW 6927   2.550   3.524   3.578
 2305SOL    HW1 6928   2.494   3.605   3.587
 2305SOL    HW2 6929   2.602   3.528   3.492
 2306SOL     OW 6930   3.588   1.997   2.385
 2306SOL    HW1 6931   3.661   1.980   2.318
 2306SOL    HW2 6932   3.557   1.910   2.423
 2307SOL     OW 6933   3.250   3.435   2.339
 2307SOL    HW1 6934   3.317   3.447   2.265
 2307SOL    HW2 6935   3.210   3.524   2.362
 2308SOL     OW 6936   1.992   3.656   3.713
 2308SOL    HW1 6937   1.951   3.582   3.766
 2308SOL    HW2 6938   2.056   3.707   3.771
 2309SOL     OW 6939   3.142   2.789   2.534
 2309SOL    HW1 6940   3.202   2.708   2.536
 2309SOL    HW2 6941   3.182   2.858   2.474
 2310SOL     OW 6942   2.692   3.135   3.284
 2310SOL    HW1 6943   2.687   3.168   3.379
 2310SOL    HW2 6944   2.606   3.154   3.238
 2311SOL     OW 6945   2.534   3.478   2.016
 2311SOL    HW1 6946   2.543   3.488   1.917
 2311SOL    HW2 6947   2.494   3.389   2.037
 2312SOL     OW 6948   3.512   3.582   3.256
 2312SOL    HW1 6949   3.565   3.592   3.172
 2312SOL    HW2 6950   3.485   3.672   3.290
 2313SOL     OW 6951   3.703   2.037   2.825
 2313SOL    HW1 6952   3.742   1.952   2.789
 2313SOL    HW2 6953   3.605   2.039   2.806
 2314SOL     OW 6954   2.125   2.188   2.582
 2314SOL    HW1 6955   2.046   2.239   2.548
 2314SOL    HW2 6956   2.116   2.173   2.680
 2315SOL     OW 6957   3.056   3.474   1.893
 2315SOL    HW1 6958   3.062   3.381   1.930
 2315SOL    HW2 6959   2.997   3.474   1.813
 2316SOL     OW 6960   2.684   2.864   3.234
 2316SOL    HW1 6961   2.724   2.863   3.142
 2316SOL    HW2 6962   2.694   2.956   3.274
 2317SOL     OW 6963   2.778   2.772   2.153
 2317SOL    HW1 6964   2.841   2.810   2.085
 2317SOL    HW2 6965   2.818   2.689   2.192
 2318SOL     OW 6966   3.366   3.469   1.906
 2318SOL    HW1 6967   3.274   3.506   1.913
 2318SOL    HW2 6968   3.404   3.489   1.816
 2319SOL     OW 6969   2.234   3.150   3.352
 2319SOL    HW1 6970   2.221   3.243   3.318
 2319SOL    HW2 6971   2.150   3.098   3.339
 2320SOL     OW 6972   3.476   3.154   3.151
 2320SOL    HW1 6973   3.536   3.157   3.231
 2320SOL    HW2 6974   3.401   3.218   3.164
 2321SOL     OW 6975   2.901   2.960   2.558
 2321SOL    HW1 6976   2.831   2.913   2.612
 2321SOL    HW2 6977   2.960   2.892   2.515
 2322SOL     OW 6978   2.876   2.098   2.833
 2322SOL    HW1 6979   2.868   2.062   2.740
 2322SOL    HW2 6980   2.874   2.022   2.898
 2323SOL     OW 6981   2.452   3.349   2.353
 2323SOL    HW1 6982   2.494   3.291   2.283
 2323SOL    HW2 6983   2.408   3.428   2.309
 2324SOL     OW 6984   3.571   2.247   3.243
 2324SOL    HW1 6985   3.644   2.316   3.247
 2324SOL    HW2 6986   3.599   2.172   3.184
 2325SOL     OW 6987   2.117   3.210   2.152
 2325SOL    HW1 6988   2.021   3.211   2.125
 2325SOL    HW2 6989   2.129   3.263   2.236
 2326SOL     OW 6990   1.967   2.875   3.588
 2326SOL    HW1 6991   1.890   2.842   3.642
 2326SOL    HW2 6992   2.052   2.845   3.630
 2327SOL     OW 6993   2.534   2.065   3.351
 2327SOL    HW1 6994   2.624   2.049   3.311
 2327SOL    HW2 6995   2.542   2.070   3.450
 2328SOL     OW 6996   1.937   2.207   1.895
 2328SOL    HW1 6997   1.845   2.179   1.866
 2328SOL    HW2 6998   1.968   2.284   1.839
 2329SOL     OW 6999   3.302   2.718   3.260
 2329SOL    HW1 7000   3.245   2.770   3.197
 2329SOL    HW2 7001   3.398   2.730   3.236
 2330SOL     OW 7002   1.934   2.028   2.180
 2330SOL    HW1 7003   1.917   2.111   2.126
 2330SOL    HW2 7004   2.024   1.991   2.158
 2331SOL     OW 7005   3.045   3.197   1.981
 2331SOL    HW1 7006   2.946   3.186   1.983
 2331SOL    HW2 7007   3.079   3.212   2.074
 2332SOL     OW 7008   2.475   2.704   3.293
 2332SOL    HW1 7009   2.531   2.785   3.276
 2332SOL    HW2 7010   2.534   2.624   3.296
 2333SOL     OW 7011   3.355   3.629   2.821
 2333SOL    HW1 7012   3.388   3.693   2.752
 2333SOL    HW2 7013   3.421   3.623   2.896
 2334SOL     OW 7014   2.578   2.427   3.570
 2334SOL    HW1 7015   2.597   2.492   3.644
 2334SOL    HW2 7016   2.638   2.347   3.579
 2335SOL     OW 7017   3.312   3.082   3.495
 2335SOL    HW1 7018   3.303   3.072   3.594
 2335SOL    HW2 7019   3.408   3.075   3.469
 2336SOL     OW 7020   2.252   3.603   3.422
 2336SOL    HW1 7021   2.161   3.644   3.420
 2336SOL    HW2 7022   2.245   3.509   3.454
 2337SOL     OW 7023   3.536   2.745   3.116
 2337SOL    HW1 7024   3.509   2.656   3.079
 2337SOL    HW2 7025   3.537   2.813   3.043
 2338SOL     OW 7026   3.087   2.187   2.311
 2338SOL    HW1 7027   3.152   2.113   2.300
 2338SOL    HW2 7028   3.107   2.237   2.395
 2339SOL     OW 7029   3.639   2.204   3.504
 2339SOL    HW1 7030   3.622   2.235   3.410
 2339SOL    HW2 7031   3.555   2.167   3.542
 2340SOL     OW 7032   3.592   2.796   3.379
 2340SOL    HW1 7033   3.630   2.887   3.394
 2340SOL    HW2 7034   3.584   2.779   3.280
 2341SOL     OW 7035   2.721   3.236   1.878
 2341SOL    HW1 7036   2.675   3.251   1.966
 2341SOL    HW2 7037   2.765   3.321   1.848
 2342SOL     OW 7038   2.523   3.652   2.815
 2342SOL    HW1 7039   2.477   3.740   2.802
 2342SOL    HW2 7040   2.622   3.664   2.808
 2343SOL     OW 7041   2.721   2.818   2.723
 2343SOL    HW1 7042   2.775   2.749   2.771
 2343SOL    HW2 7043   2.689   2.887   2.789
 2344SOL     OW 7044   2.945   2.846   1.949
 2344SOL    HW1 7045   2.922   2.899   1.867
 2344SOL    HW2 7046   3.026   2.790   1.930
 2345SOL     OW 7047   3.723   3.431   2.713
 2345SOL    HW1 7048   3.652   3.419   2.643
 2345SOL    HW2 7049   3.724   3.352   2.773
 2346SOL     OW 7050   2.083   3.176   3.706
 2346SOL    HW1 7051   2.018   3.103   3.685
 2346SOL    HW2 7052   2.087   3.190   3.804
 2347SOL     OW 7053   1.941   3.102   2.515
 2347SOL    HW1 7054   1.940   3.055   2.603
 2347SOL    HW2 7055   2.023   3.074   2.464
 2348SOL     OW 7056   2.534   3.253   3.486
 2348SOL    HW1 7057   2.456   3.203   3.524
 2348SOL    HW2 7058   2.531   3.348   3.517
 2349SOL     OW 7059   3.686   2.054   3.089
 2349SOL    HW1 7060   3.682   1.964   3.133
 2349SOL    HW2 7061   3.689   2.043   2.990
 2350SOL     OW 7062   3.567   3.349   2.966
 2350SOL    HW1 7063   3.474   3.324   2.939
 2350SOL    HW2 7064   3.593   3.299   3.048
 2351SOL     OW 7065   2.179   2.409   3.142
 2351SOL    HW1 7066   2.217   2.350   3.214
 2351SOL    HW2 7067   2.219   2.383   3.054
 2352SOL     OW 7068   2.674   3.448   2.549
 2352SOL    HW1 7069   2.706   3.458   2.455
 2352SOL    HW2 7070   2.595   3.386   2.551
 2353SOL     OW 7071   3.286   2.076   2.974
 2353SOL    HW1 7072   3.338   2.011   3.029
 2353SOL    HW2 7073   3.237   2.139   3.035
 2354SOL     OW 7074   2.863   1.896   3.016
 2354SOL    HW1 7075   2.800   1.824   2.985
 2354SOL    HW2 7076   2.956   1.860   3.016
 2355SOL     OW 7077   2.632   3.192   2.163
 2355SOL    HW1 7078   2.586   3.105   2.180
 2355SOL    HW2 7079   2.723   3.189   2.204
 2356SOL     OW 7080   2.480   3.429   3.146
 2356SOL    HW1 7081   2.475   3.511   3.203
 2356SOL    HW2 7082   2.569   3.426   3.101
 2357SOL     OW 7083   3.214   1.914   2.030
 2357SOL    HW1 7084   3.249   1.873   1.946
 2357SOL    HW2 7085   3.124   1.876   2.050
 2358SOL     OW 7086   3.162   2.315   2.553
 2358SOL    HW1 7087   3.103   2.395   2.557
 2358SOL    HW2 7088   3.177   2.280   2.646
 2359SOL     OW 7089   3.455   2.083   2.744
 2359SOL    HW1 7090   3.371   2.082   2.798
 2359SOL    HW2 7091   3.457   2.166   2.688
 2360SOL     OW 7092   1.901   2.939   2.162
 2360SOL    HW1 7093   2.000   2.928   2.153
 2360SOL    HW2 7094   1.861   2.853   2.194
 2361SOL     OW 7095   2.737   3.508   2.199
 2361SOL    HW1 7096   2.660   3.473   2.145
 2361SOL    HW2 7097   2.705   3.579   2.261
 2362SOL     OW 7098   2.092   2.490   3.837
 2362SOL    HW1 7099   1.999   2.488   3.874
 2362SOL    HW2 7100   2.093   2.451   3.745
 2363SOL     OW 7101   2.087   2.137   4.720
 2363SOL    HW1 7102   2.122   2.120   4.812
 2363SOL    HW2 7103   1.999   2.092   4.708
 2364SOL     OW 7104   1.881   2.230   4.371
 2364SOL    HW1 7105   1.799   2.273   4.410
 2364SOL    HW2 7106   1.853   2.157   4.308
 2365SOL     OW 7107   3.417   3.373   4.427
 2365SOL    HW1 7108   3.360   3.357   4.508
 2365SOL    HW2 7109   3.358   3.383   4.347
 2366SOL     OW 7110   2.997   2.565   4.441
 2366SOL    HW1 7111   3.054   2.643   4.416
 2366SOL    HW2 7112   2.937   2.591   4.517
 2367SOL     OW 7113   3.617   2.469   3.955
 2367SOL    HW1 7114   3.605   2.456   3.856
 2367SOL    HW2 7115   3.587   2.388   4.004
 2368SOL     OW 7116   2.630   3.006   4.747
 2368SOL    HW1 7117   2.552   3.023   4.807
 2368SOL    HW2 7118   2.664   3.093   4.711
 2369SOL     OW 7119   2.547   2.874   4.389
 2369SOL    HW1 7120   2.616   2.858   4.459
 2369SOL    HW2 7121   2.474   2.931   4.427
 2370SOL     OW 7122   2.197   3.297   4.785
 2370SOL    HW1 7123   2.119   3.266   4.732
 2370SOL    HW2 7124   2.255   3.355   4.728
 2371SOL     OW 7125   3.465   2.309   4.461
 2371SOL    HW1 7126   3.391   2.355   4.411
 2371SOL    HW2 7127   3.516   2.377   4.514
 2372SOL     OW 7128   2.093   3.575   4.207
 2372SOL    HW1 7129   2.127   3.652   4.261
 2372SOL    HW2 7130   2.137   3.575   4.117
 2373SOL     OW 7131   2.092   3.296   4.262
 2373SOL    HW1 7132   2.066   3.392   4.262
 2373SOL    HW2 7133   2.021   3.242   4.307
 2374SOL     OW 7134   2.102   2.953   4.610
 2374SOL    HW1 7135   2.116   2.869   4.662
 2374SOL    HW2 7136   2.047   3.017   4.665
 2375SOL     OW 7137   2.468   2.826   3.847
 2375SOL    HW1 7138   2.475   2.910   3.793
 2375SOL    HW2 7139   2.514   2.839   3.935
 2376SOL     OW 7140   1.984   2.505   4.287
 2376SOL    HW1 7141   1.939   2.417   4.304
 2376SOL    HW2 7142   1.983   2.559   4.371
 2377SOL     OW 7143   3.704   3.629   4.083
 2377SOL    HW1 7144   3.758   3.600   4.163
 2377SOL    HW2 7145   3.734   3.719   4.054
 2378SOL     OW 7146   1.889   3.458   3.841
 2378SOL    HW1 7147   1.870   3.362   3.862
 2378SOL    HW2 7148   1.856   3.516   3.916
 2379SOL     OW 7149   3.551   2.784   4.336
 2379SOL    HW1 7150   3.646   2.755   4.344
 2379SOL    HW2 7151   3.543   2.849   4.261
 2380SOL     OW 7152   3.503   2.970   4.156
 2380SOL    HW1 7153   3.589   2.972   4.104
 2380SOL    HW2 7154   3.517   3.017   4.244
 2381SOL     OW 7155   2.475   3.227   4.450
 2381SOL    HW1 7156   2.426   3.140   4.459
 2381SOL    HW2 7157   2.452   3.270   4.363
 2382SOL     OW 7158   2.671   1.866   4.226
 2382SOL    HW1 7159   2.711   1.957   4.217
 2382SOL    HW2 7160   2.571   1.874   4.232
 2383SOL     OW 7161   3.387   2.861   3.914
 2383SOL    HW1 7162   3.324   2.785   3.927
 2383SOL    HW2 7163   3.435   2.879   4.000
 2384SOL     OW 7164   3.328   3.279   4.677
 2384SOL    HW1 7165   3.269   3.285   4.757
 2384SOL    HW2 7166   3.313   3.191   4.631
 2385SOL     OW 7167   3.529   3.576   4.296
 2385SOL    HW1 7168   3.488   3.553   4.208
 2385SOL    HW2 7169   3.511   3.502   4.361
 2386SOL     OW 7170   2.460   2.591   3.994
 2386SOL    HW1 7171   2.484   2.660   3.926
 2386SOL    HW2 7172   2.382   2.624   4.048
 2387SOL     OW 7173   3.143   2.207   4.668
 2387SOL    HW1 7174   3.057   2.157   4.655
 2387SOL    HW2 7175   3.205   2.153   4.724
 2388SOL     OW 7176   3.438   3.524   4.031
 2388SOL    HW1 7177   3.527   3.570   4.034
 2388SOL    HW2 7178   3.417   3.500   3.936
 2389SOL     OW 7179   2.903   2.563   4.153
 2389SOL    HW1 7180   2.929   2.559   4.249
 2389SOL    HW2 7181   2.818   2.512   4.139
 2390SOL     OW 7182   1.938   2.673   4.513
 2390SOL    HW1 7183   2.037   2.661   4.522
 2390SOL    HW2 7184   1.914   2.768   4.534
 2391SOL     OW 7185   2.727   2.210   3.919
 2391SOL    HW1 7186   2.786   2.273   3.870
 2391SOL    HW2 7187   2.746   2.116   3.890
 2392SOL     OW 7188   3.224   3.006   4.269
 2392SOL    HW1 7189   3.307   2.977   4.221
 2392SOL    HW2 7190   3.175   3.073   4.213
 2393SOL     OW 7191   2.412   2.058   4.609
 2393SOL    HW1 7192   2.407   2.053   4.709
 2393SOL    HW2 7193   2.414   2.154   4.580
 2394SOL     OW 7194   2.870   3.318   4.201
 2394SOL    HW1 7195   2.824   3.390   4.149
 2394SOL    HW2 7196   2.866   3.338   4.299
 2395SOL     OW 7197   2.213   3.663   4.577
 2395SOL    HW1 7198   2.263   3.577   4.583
 2395SOL    HW2 7199   2.278   3.740   4.574
 2396SOL     OW 7200   3.657   2.928   4.597
 2396SOL    HW1 7201   3.595   2.913   4.521
 2396SOL    HW2 7202   3.605   2.939   4.682
 2397SOL     OW 7203   2.183   2.805   3.966
 2397SOL    HW1 7204   2.265   2.844   3.924
 2397SOL    HW2 7205   2.156   2.723   3.917
 2398SOL     OW 7206   3.320   2.597   4.452
 2398SOL    HW1 7207   3.315   2.532   4.527
 2398SOL    HW2 7208   3.400   2.656   4.465
 2399SOL     OW 7209   2.973   3.638   3.961
 2399SOL    HW1 7210   2.913   3.576   4.011
 2399SOL    HW2 7211   3.004   3.594   3.876
 2400SOL     OW 7212   3.494   3.239   3.805
 2400SOL    HW1 7213   3.462   3.333   3.795
 2400SOL    HW2 7214   3.418   3.176   3.793
 2401SOL     OW 7215   2.326   3.605   4.047
 2401SOL    HW1 7216   2.359   3.644   4.133
 2401SOL    HW2 7217   2.402   3.598   3.982
 2402SOL     OW 7218   3.262   1.969   4.150
 2402SOL    HW1 7219   3.238   1.932   4.060
 2402SOL    HW2 7220   3.361   1.985   4.154
 2403SOL     OW 7221   2.111   3.647   4.965
 2403SOL    HW1 7222   2.168   3.582   5.015
 2403SOL    HW2 7223   2.095   3.614   4.872
 2404SOL     OW 7224   2.802   3.560   4.628
 2404SOL    HW1 7225   2.882   3.503   4.649
 2404SOL    HW2 7226   2.753   3.520   4.551
 2405SOL     OW 7227   2.244   2.562   4.204
 2405SOL    HW1 7228   2.289   2.472   4.201
 2405SOL    HW2 7229   2.150   2.551   4.237
 2406SOL     OW 7230   2.476   1.984   3.841
 2406SOL    HW1 7231   2.574   1.962   3.848
 2406SOL    HW2 7232   2.445   1.967   3.748
 2407SOL     OW 7233   2.784   2.365   4.623
 2407SOL    HW1 7234   2.759   2.356   4.527
 2407SOL    HW2 7235   2.832   2.283   4.654
 2408SOL     OW 7236   2.401   1.926   4.236
 2408SOL    HW1 7237   2.320   1.927   4.294
 2408SOL    HW2 7238   2.404   2.009   4.181
 2409SOL     OW 7239   3.296   3.050   3.765
 2409SOL    HW1 7240   3.328   2.974   3.822
 2409SOL    HW2 7241   3.204   3.077   3.795
 2410SOL     OW 7242   2.159   1.897   3.895
 2410SOL    HW1 7243   2.208   1.981   3.874
 2410SOL    HW2 7244   2.221   1.832   3.940
 2411SOL     OW 7245   2.797   2.098   4.204
 2411SOL    HW1 7246   2.749   2.139   4.126
 2411SOL    HW2 7247   2.896   2.096   4.185
 2412SOL     OW 7248   3.089   3.432   4.517
 2412SOL    HW1 7249   3.110   3.506   4.452
 2412SOL    HW2 7250   3.157   3.432   4.590
 2413SOL     OW 7251   2.321   3.014   4.465
 2413SOL    HW1 7252   2.250   2.987   4.530
 2413SOL    HW2 7253   2.295   2.986   4.372
 2414SOL     OW 7254   3.133   3.659   4.315
 2414SOL    HW1 7255   3.177   3.723   4.251
 2414SOL    HW2 7256   3.083   3.711   4.385
 2415SOL     OW 7257   2.894   2.411   3.740
 2415SOL    HW1 7258   2.853   2.493   3.701
 2415SOL    HW2 7259   2.958   2.437   3.813
 2416SOL     OW 7260   2.728   2.316   4.366
 2416SOL    HW1 7261   2.696   2.388   4.304
 2416SOL    HW2 7262   2.752   2.235   4.313
 2417SOL     OW 7263   2.879   1.901   4.477
 2417SOL    HW1 7264   2.807   1.906   4.408
 2417SOL    HW2 7265   2.855   1.832   4.546
 2418SOL     OW 7266   3.291   3.035   4.591
 2418SOL    HW1 7267   3.236   2.951   4.584
 2418SOL    HW2 7268   3.317   3.064   4.499
 2419SOL     OW 7269   3.719   2.695   4.101
 2419SOL    HW1 7270   3.761   2.631   4.165
 2419SOL    HW2 7271   3.681   2.644   4.023
 2420SOL     OW 7272   2.350   3.247   3.898
 2420SOL    HW1 7273   2.263   3.232   3.945
 2420SOL    HW2 7274   2.333   3.273   3.803
 2421SOL     OW 7275   3.526   3.142   4.381
 2421SOL    HW1 7276   3.625   3.150   4.395
 2421SOL    HW2 7277   3.481   3.226   4.412
 2422SOL     OW 7278   3.252   2.437   3.802
 2422SOL    HW1 7279   3.198   2.416   3.883
 2422SOL    HW2 7280   3.343   2.396   3.811
 2423SOL     OW 7281   2.389   2.118   4.052
 2423SOL    HW1 7282   2.416   2.059   3.977
 2423SOL    HW2 7283   2.389   2.213   4.021
 2424SOL     OW 7284   3.500   2.961   4.803
 2424SOL    HW1 7285   3.505   3.042   4.862
 2424SOL    HW2 7286   3.414   2.963   4.752
 2425SOL     OW 7287   2.567   2.912   4.092
 2425SOL    HW1 7288   2.553   2.919   4.191
 2425SOL    HW2 7289   2.651   2.861   4.074
 2426SOL     OW 7290   2.229   2.962   4.225
 2426SOL    HW1 7291   2.222   3.045   4.169
 2426SOL    HW2 7292   2.233   2.882   4.165
 2427SOL     OW 7293   2.428   2.399   4.589
 2427SOL    HW1 7294   2.440   2.465   4.515
 2427SOL    HW2 7295   2.474   2.433   4.672
 2428SOL     OW 7296   3.114   3.210   4.112
 2428SOL    HW1 7297   3.164   3.287   4.152
 2428SOL    HW2 7298   3.019   3.212   4.144
 2429SOL     OW 7299   3.444   2.501   4.196
 2429SOL    HW1 7300   3.413   2.562   4.269
 2429SOL    HW2 7301   3.494   2.553   4.127
 2430SOL     OW 7302   2.435   2.732   4.753
 2430SOL    HW1 7303   2.479   2.821   4.744
 2430SOL    HW2 7304   2.372   2.732   4.830
 2431SOL     OW 7305   3.071   2.387   3.999
 2431SOL    HW1 7306   3.084   2.303   4.053
 2431SOL    HW2 7307   3.042   2.461   4.059
 2432SOL     OW 7308   2.169   2.075   4.955
 2432SOL    HW1 7309   2.146   2.112   5.045
 2432SOL    HW2 7310   2.139   1.980   4.949
 2433SOL     OW 7311   2.594   2.496   4.788
 2433SOL    HW1 7312   2.653   2.470   4.712
 2433SOL    HW2 7313   2.566   2.592   4.777
 2434SOL     OW 7314   2.169   1.925   4.342
 2434SOL    HW1 7315   2.158   2.019   4.375
 2434SOL    HW2 7316   2.164   1.862   4.419
 2435SOL     OW 7317   3.484   2.229   4.098
 2435SOL    HW1 7318   3.486   2.153   4.162
 2435SOL    HW2 7319   3.436   2.306   4.138
 2436SOL     OW 7320   3.402   2.136   3.849
 2436SOL    HW1 7321   3.341   2.061   3.872
 2436SOL    HW2 7322   3.424   2.188   3.932
 2437SOL     OW 7323   3.165   2.700   3.766
 2437SOL    HW1 7324   3.199   2.607   3.781
 2437SOL    HW2 7325   3.183   2.727   3.671
 2438SOL     OW 7326   2.930   3.195   4.573
 2438SOL    HW1 7327   2.937   3.111   4.518
 2438SOL    HW2 7328   2.992   3.264   4.537
 2439SOL     OW 7329   2.181   2.672   4.673
 2439SOL    HW1 7330   2.274   2.708   4.678
 2439SOL    HW2 7331   2.175   2.587   4.725
 2440SOL     OW 7332   2.201   2.371   4.730
 2440SOL    HW1 7333   2.149   2.288   4.713
 2440SOL    HW2 7334   2.278   2.376   4.666
 2441SOL     OW 7335   1.870   3.188   3.924
 2441SOL    HW1 7336   1.777   3.209   3.893
 2441SOL    HW2 7337   1.880   3.089   3.937
 2442SOL     OW 7338   1.950   3.663   4.651
 2442SOL    HW1 7339   1.908   3.577   4.624
 2442SOL    HW2 7340   2.044   3.666   4.617
 2443SOL     OW 7341   2.366   3.430   4.634
 2443SOL    HW1 7342   2.432   3.504   4.643
 2443SOL    HW2 7343   2.410   3.351   4.592
 2444SOL     OW 7344   2.677   2.434   4.049
 2444SOL    HW1 7345   2.684   2.345   4.003
 2444SOL    HW2 7346   2.583   2.468   4.041
 2445SOL     OW 7347   2.533   2.326   4.993
 2445SOL    HW1 7348   2.499   2.237   4.963
 2445SOL    HW2 7349   2.559   2.380   4.913
 2446SOL     OW 7350   2.335   2.362   3.915
 2446SOL    HW1 7351   2.396   2.442   3.919
 2446SOL    HW2 7352   2.240   2.393   3.922
 2447SOL     OW 7353   3.164   2.717   4.033
 2447SOL    HW1 7354   3.078   2.686   4.075
 2447SOL    HW2 7355   3.160   2.703   3.934
 2448SOL     OW 7356   3.621   3.609   4.878
 2448SOL    HW1 7357   3.682   3.639   4.805
 2448SOL    HW2 7358   3.583   3.520   4.856
 2449SOL     OW 7359   1.945   3.120   4.746
 2449SOL    HW1 7360   1.940   3.119   4.846
 2449SOL    HW2 7361   1.862   3.079   4.708
 2450SOL     OW 7362   3.588   1.997   4.247
 2450SOL    HW1 7363   3.661   1.980   4.180
 2450SOL    HW2 7364   3.557   1.910   4.285
 2451SOL     OW 7365   3.250   3.435   4.201
 2451SOL    HW1 7366   3.317   3.447   4.127
 2451SOL    HW2 7367   3.210   3.524   4.224
 2452SOL     OW 7368   3.142   2.789   4.396
 2452SOL    HW1 7369   3.202   2.708   4.398
 2452SOL    HW2 7370   3.182   2.858   4.336
 2453SOL     OW 7371   2.534   3.478   3.878
 2453SOL    HW1 7372   2.543   3.488   3.779
 2453SOL    HW2 7373   2.494   3.389   3.899
 2454SOL     OW 7374   3.703   2.037   4.687
 2454SOL    HW1 7375   3.742   1.952   4.651
 2454SOL    HW2 7376   3.605   2.039   4.668
 2455SOL     OW 7377   2.125   2.188   4.444
 2455SOL    HW1 7378   2.046   2.239   4.410
 2455SOL    HW2 7379   2.116   2.173   4.542
 2456SOL     OW 7380   3.056   3.474   3.755
 2456SOL    HW1 7381   3.062   3.381   3.792
 2456SOL    HW2 7382   2.997   3.474   3.675
 2457SOL     OW 7383   2.778   2.772   4.015
 2457SOL    HW1 7384   2.841   2.810   3.947
 2457SOL    HW2 7385   2.818   2.689   4.054
 2458SOL     OW 7386   3.366   3.469   3.768
 2458SOL    HW1 7387   3.274   3.506   3.775
 2458SOL    HW2 7388   3.404   3.489   3.678
 2459SOL     OW 7389   2.901   2.960   4.420
 2459SOL    HW1 7390   2.831   2.913   4.474
 2459SOL    HW2 7391   2.960   2.892   4.377
 2460SOL     OW 7392   2.452   3.349   4.215
 2460SOL    HW1 7393   2.494   3.291   4.145
 2460SOL    HW2 7394   2.408   3.428   4.171
 2461SOL     OW 7395   2.117   3.210   4.014
 2461SOL    HW1 7396   2.021   3.211   3.987
 2461SOL    HW2 7397   2.129   3.263   4.098
 2462SOL     OW 7398   1.937   2.207   3.757
 2462SOL    HW1 7399   1.845   2.179   3.728
 2462SOL    HW2 7400   1.968   2.284   3.701
 2463SOL     OW 7401   1.934   2.028   4.042
 2463SOL    HW1 7402   1.917   2.111   3.988
 2463SOL    HW2 7403   2.024   1.991   4.020
 2464SOL     OW 7404   3.045   3.197   3.843
 2464SOL    HW1 7405   2.946   3.186   3.845
 2464SOL    HW2 7406   3.079   3.212   3.936
 2465SOL     OW 7407   3.536   2.745   4.978
 2465SOL    HW1 7408   3.509   2.656   4.941
 2465SOL    HW2 7409   3.537   2.813   4.905
 2466SOL     OW 7410   3.087   2.187   4.173
 2466SOL    HW1 7411   3.152   2.113   4.162
 2466SOL    HW2 7412   3.107   2.237   4.257
 2467SOL     OW 7413   2.456   2.607   4.376
 2467SOL    HW1 7414   2.506   2.692   4.357
 2467SOL    HW2 7415   2.368   2.609   4.328
 2468SOL     OW 7416   2.721   3.236   3.740
 2468SOL    HW1 7417   2.675   3.251   3.828
 2468SOL    HW2 7418   2.765   3.321   3.710
 2469SOL     OW 7419   2.523   3.652   4.677
 2469SOL    HW1 7420   2.477   3.740   4.664
 2469SOL    HW2 7421   2.622   3.664   4.670
 2470SOL     OW 7422   2.721   2.818   4.585
 2470SOL    HW1 7423   2.775   2.749   4.633
 2470SOL    HW2 7424   2.689   2.887   4.651
 2471SOL     OW 7425   2.945   2.846   3.811
 2471SOL    HW1 7426   2.922   2.899   3.729
 2471SOL    HW2 7427   3.026   2.790   3.792
 2472SOL     OW 7428   3.723   3.431   4.575
 2472SOL    HW1 7429   3.652   3.419   4.505
 2472SOL    HW2 7430   3.724   3.352   4.635
 2473SOL     OW 7431   1.941   3.102   4.377
 2473SOL    HW1 7432   1.940   3.055   4.465
 2473SOL    HW2 7433   2.023   3.074   4.326
 2474SOL     OW 7434   3.686   2.054   4.951
 2474SOL    HW1 7435   3.682   1.964   4.995
 2474SOL    HW2 7436   3.689   2.043   4.852
 2475SOL     OW 7437   2.290   2.286   4.244
 2475SOL    HW1 7438   2.320   2.214   4.182
 2475SOL    HW2 7439   2.251   2.246   4.327
 2476SOL     OW 7440   2.674   3.448   4.411
 2476SOL    HW1 7441   2.706   3.458   4.317
 2476SOL    HW2 7442   2.595   3.386   4.413
 2477SOL     OW 7443   2.632   3.192   4.025
 2477SOL    HW1 7444   2.586   3.105   4.042
 2477SOL    HW2 7445   2.723   3.189   4.066
 2478SOL     OW 7446   3.214   1.914   3.892
 2478SOL    HW1 7447   3.249   1.873   3.808
 2478SOL    HW2 7448   3.124   1.876   3.912
 2479SOL     OW 7449   3.162   2.315   4.415
 2479SOL    HW1 7450   3.103   2.395   4.419
 2479SOL    HW2 7451   3.177   2.280   4.508
 2480SOL     OW 7452   3.455   2.083   4.606
 2480SOL    HW1 7453   3.371   2.082   4.660
 2480SOL    HW2 7454   3.457   2.166   4.550
 2481SOL     OW 7455   1.901   2.939   4.024
 2481SOL    HW1 7456   2.000   2.928   4.015
 2481SOL    HW2 7457   1.861   2.853   4.056
 2482SOL     OW 7458   2.737   3.508   4.061
 2482SOL    HW1 7459   2.660   3.473   4.007
 2482SOL    HW2 7460   2.705   3.579   4.123
 2483SOL     OW 7461   2.092   4.352   0.113
 2483SOL    HW1 7462   1.999   4.350   0.150
 2483SOL    HW2 7463   2.093   4.313   0.021
 2484SOL     OW 7464   2.087   3.999   0.996
 2484SOL    HW1 7465   2.122   3.982   1.088
 2484SOL    HW2 7466   1.999   3.954   0.984
 2485SOL     OW 7467   1.881   4.092   0.647
 2485SOL    HW1 7468   1.799   4.135   0.686
 2485SOL    HW2 7469   1.853   4.019   0.584
 2486SOL     OW 7470   2.997   4.427   0.717
 2486SOL    HW1 7471   3.054   4.505   0.692
 2486SOL    HW2 7472   2.937   4.453   0.793
 2487SOL     OW 7473   3.617   4.331   0.231
 2487SOL    HW1 7474   3.605   4.318   0.132
 2487SOL    HW2 7475   3.587   4.250   0.280
 2488SOL     OW 7476   2.630   4.868   1.023
 2488SOL    HW1 7477   2.552   4.885   1.083
 2488SOL    HW2 7478   2.664   4.955   0.987
 2489SOL     OW 7479   2.712   4.522   1.823
 2489SOL    HW1 7480   2.708   4.598   1.888
 2489SOL    HW2 7481   2.734   4.558   1.732
 2490SOL     OW 7482   2.547   4.736   0.665
 2490SOL    HW1 7483   2.616   4.720   0.735
 2490SOL    HW2 7484   2.474   4.793   0.703
 2491SOL     OW 7485   2.300   4.116   1.499
 2491SOL    HW1 7486   2.382   4.060   1.508
 2491SOL    HW2 7487   2.219   4.058   1.503
 2492SOL     OW 7488   3.465   4.171   0.737
 2492SOL    HW1 7489   3.391   4.217   0.687
 2492SOL    HW2 7490   3.516   4.239   0.790
 2493SOL     OW 7491   2.102   4.815   0.886
 2493SOL    HW1 7492   2.116   4.731   0.938
 2493SOL    HW2 7493   2.047   4.879   0.941
 2494SOL     OW 7494   3.456   3.838   1.480
 2494SOL    HW1 7495   3.438   3.905   1.408
 2494SOL    HW2 7496   3.453   3.884   1.569
 2495SOL     OW 7497   1.984   4.367   0.563
 2495SOL    HW1 7498   1.939   4.279   0.580
 2495SOL    HW2 7499   1.983   4.421   0.647
 2496SOL     OW 7500   1.975   4.461   1.597
 2496SOL    HW1 7501   2.063   4.448   1.642
 2496SOL    HW2 7502   1.962   4.558   1.575
 2497SOL     OW 7503   2.671   3.728   0.502
 2497SOL    HW1 7504   2.711   3.819   0.493
 2497SOL    HW2 7505   2.571   3.736   0.508
 2498SOL     OW 7506   2.059   4.700   1.264
 2498SOL    HW1 7507   2.148   4.655   1.250
 2498SOL    HW2 7508   1.986   4.635   1.245
 2499SOL     OW 7509   3.387   4.723   0.190
 2499SOL    HW1 7510   3.324   4.647   0.203
 2499SOL    HW2 7511   3.435   4.741   0.276
 2500SOL     OW 7512   2.179   3.975   1.801
 2500SOL    HW1 7513   2.250   4.046   1.807
 2500SOL    HW2 7514   2.091   4.014   1.829
 2501SOL     OW 7515   2.460   4.453   0.270
 2501SOL    HW1 7516   2.484   4.522   0.202
 2501SOL    HW2 7517   2.382   4.486   0.324
 2502SOL     OW 7518   3.143   4.069   0.944
 2502SOL    HW1 7519   3.057   4.019   0.931
 2502SOL    HW2 7520   3.205   4.015   1.000
 2503SOL     OW 7521   2.669   4.329   1.465
 2503SOL    HW1 7522   2.622   4.326   1.554
 2503SOL    HW2 7523   2.618   4.274   1.399
 2504SOL     OW 7524   3.256   4.193   1.674
 2504SOL    HW1 7525   3.236   4.236   1.762
 2504SOL    HW2 7526   3.334   4.131   1.683
 2505SOL     OW 7527   2.835   4.614   1.572
 2505SOL    HW1 7528   2.881   4.530   1.543
 2505SOL    HW2 7529   2.779   4.648   1.497
 2506SOL     OW 7530   2.853   4.134   1.242
 2506SOL    HW1 7531   2.776   4.168   1.296
 2506SOL    HW2 7532   2.819   4.083   1.163
 2507SOL     OW 7533   2.903   4.425   0.429
 2507SOL    HW1 7534   2.929   4.421   0.525
 2507SOL    HW2 7535   2.818   4.374   0.415
 2508SOL     OW 7536   1.938   4.535   0.789
 2508SOL    HW1 7537   2.037   4.523   0.798
 2508SOL    HW2 7538   1.914   4.630   0.810
 2509SOL     OW 7539   2.727   4.072   0.195
 2509SOL    HW1 7540   2.786   4.135   0.146
 2509SOL    HW2 7541   2.746   3.978   0.166
 2510SOL     OW 7542   3.581   4.309   1.831
 2510SOL    HW1 7543   3.555   4.398   1.795
 2510SOL    HW2 7544   3.579   4.241   1.758
 2511SOL     OW 7545   2.412   3.920   0.885
 2511SOL    HW1 7546   2.407   3.915   0.985
 2511SOL    HW2 7547   2.414   4.016   0.856
 2512SOL     OW 7548   3.320   4.459   0.728
 2512SOL    HW1 7549   3.315   4.394   0.803
 2512SOL    HW2 7550   3.400   4.518   0.741
 2513SOL     OW 7551   2.064   4.009   1.498
 2513SOL    HW1 7552   1.984   4.069   1.485
 2513SOL    HW2 7553   2.054   3.960   1.584
 2514SOL     OW 7554   3.262   3.831   0.426
 2514SOL    HW1 7555   3.238   3.794   0.336
 2514SOL    HW2 7556   3.361   3.847   0.430
 2515SOL     OW 7557   2.244   4.424   0.480
 2515SOL    HW1 7558   2.289   4.334   0.477
 2515SOL    HW2 7559   2.150   4.413   0.513
 2516SOL     OW 7560   3.409   3.946   1.729
 2516SOL    HW1 7561   3.404   3.983   1.821
 2516SOL    HW2 7562   3.337   3.877   1.717
 2517SOL     OW 7563   2.476   3.846   0.117
 2517SOL    HW1 7564   2.574   3.824   0.124
 2517SOL    HW2 7565   2.445   3.829   0.024
 2518SOL     OW 7566   2.643   3.988   1.749
 2518SOL    HW1 7567   2.710   3.927   1.792
 2518SOL    HW2 7568   2.570   4.007   1.814
 2519SOL     OW 7569   3.213   4.314   1.433
 2519SOL    HW1 7570   3.241   4.271   1.518
 2519SOL    HW2 7571   3.238   4.410   1.434
 2520SOL     OW 7572   2.784   4.227   0.899
 2520SOL    HW1 7573   2.759   4.218   0.803
 2520SOL    HW2 7574   2.832   4.145   0.930
 2521SOL     OW 7575   2.401   3.788   0.512
 2521SOL    HW1 7576   2.320   3.789   0.570
 2521SOL    HW2 7577   2.404   3.871   0.457
 2522SOL     OW 7578   2.797   3.960   0.480
 2522SOL    HW1 7579   2.749   4.001   0.402
 2522SOL    HW2 7580   2.896   3.958   0.461
 2523SOL     OW 7581   2.938   4.407   1.464
 2523SOL    HW1 7582   2.858   4.346   1.467
 2523SOL    HW2 7583   3.019   4.354   1.440
 2524SOL     OW 7584   2.894   4.273   0.016
 2524SOL    HW1 7585   2.853   4.355  -0.023
 2524SOL    HW2 7586   2.958   4.299   0.089
 2525SOL     OW 7587   1.940   4.280   1.386
 2525SOL    HW1 7588   2.032   4.279   1.345
 2525SOL    HW2 7589   1.934   4.354   1.453
 2526SOL     OW 7590   2.423   3.946   1.147
 2526SOL    HW1 7591   2.461   3.862   1.184
 2526SOL    HW2 7592   2.335   3.965   1.191
 2527SOL     OW 7593   2.728   4.178   0.642
 2527SOL    HW1 7594   2.696   4.250   0.580
 2527SOL    HW2 7595   2.752   4.097   0.589
 2528SOL     OW 7596   2.879   3.763   0.753
 2528SOL    HW1 7597   2.807   3.768   0.684
 2528SOL    HW2 7598   2.855   3.694   0.822
 2529SOL     OW 7599   3.291   4.897   0.867
 2529SOL    HW1 7600   3.236   4.813   0.860
 2529SOL    HW2 7601   3.317   4.926   0.775
 2530SOL     OW 7602   3.328   4.314   0.992
 2530SOL    HW1 7603   3.298   4.219   0.999
 2530SOL    HW2 7604   3.401   4.330   1.058
 2531SOL     OW 7605   3.719   4.557   0.377
 2531SOL    HW1 7606   3.761   4.493   0.441
 2531SOL    HW2 7607   3.681   4.506   0.299
 2532SOL     OW 7608   3.252   4.299   0.078
 2532SOL    HW1 7609   3.198   4.278   0.159
 2532SOL    HW2 7610   3.343   4.258   0.087
 2533SOL     OW 7611   2.389   3.980   0.328
 2533SOL    HW1 7612   2.416   3.921   0.253
 2533SOL    HW2 7613   2.389   4.075   0.297
 2534SOL     OW 7614   3.500   4.823   1.079
 2534SOL    HW1 7615   3.505   4.904   1.138
 2534SOL    HW2 7616   3.414   4.825   1.028
 2535SOL     OW 7617   2.777   3.813   1.402
 2535SOL    HW1 7618   2.802   3.793   1.307
 2535SOL    HW2 7619   2.849   3.869   1.444
 2536SOL     OW 7620   2.272   4.537   1.251
 2536SOL    HW1 7621   2.358   4.549   1.301
 2536SOL    HW2 7622   2.230   4.450   1.278
 2537SOL     OW 7623   3.136   4.110   1.262
 2537SOL    HW1 7624   3.157   4.184   1.326
 2537SOL    HW2 7625   3.047   4.127   1.219
 2538SOL     OW 7626   2.428   4.261   0.865
 2538SOL    HW1 7627   2.440   4.327   0.791
 2538SOL    HW2 7628   2.474   4.295   0.948
 2539SOL     OW 7629   3.444   4.363   0.472
 2539SOL    HW1 7630   3.413   4.424   0.545
 2539SOL    HW2 7631   3.494   4.415   0.403
 2540SOL     OW 7632   2.264   4.475   1.598
 2540SOL    HW1 7633   2.332   4.530   1.551
 2540SOL    HW2 7634   2.304   4.387   1.625
 2541SOL     OW 7635   3.449   4.503   1.670
 2541SOL    HW1 7636   3.357   4.541   1.665
 2541SOL    HW2 7637   3.509   4.550   1.605
 2542SOL     OW 7638   2.875   3.829   1.770
 2542SOL    HW1 7639   2.881   3.914   1.718
 2542SOL    HW2 7640   2.907   3.753   1.713
 2543SOL     OW 7641   2.366   3.774   1.740
 2543SOL    HW1 7642   2.324   3.717   1.670
 2543SOL    HW2 7643   2.300   3.843   1.772
 2544SOL     OW 7644   2.435   4.594   1.029
 2544SOL    HW1 7645   2.479   4.683   1.020
 2544SOL    HW2 7646   2.372   4.594   1.106
 2545SOL     OW 7647   3.222   4.586   1.045
 2545SOL    HW1 7648   3.147   4.586   0.979
 2545SOL    HW2 7649   3.259   4.494   1.054
 2546SOL     OW 7650   3.071   4.249   0.275
 2546SOL    HW1 7651   3.084   4.165   0.329
 2546SOL    HW2 7652   3.042   4.323   0.335
 2547SOL     OW 7653   2.169   3.937   1.231
 2547SOL    HW1 7654   2.146   3.974   1.321
 2547SOL    HW2 7655   2.139   3.842   1.225
 2548SOL     OW 7656   2.594   4.358   1.064
 2548SOL    HW1 7657   2.653   4.332   0.988
 2548SOL    HW2 7658   2.566   4.454   1.053
 2549SOL     OW 7659   3.590   4.659   1.854
 2549SOL    HW1 7660   3.544   4.652   1.765
 2549SOL    HW2 7661   3.528   4.703   1.920
 2550SOL     OW 7662   2.169   3.787   0.618
 2550SOL    HW1 7663   2.158   3.881   0.651
 2550SOL    HW2 7664   2.164   3.724   0.695
 2551SOL     OW 7665   3.484   4.091   0.374
 2551SOL    HW1 7666   3.486   4.015   0.438
 2551SOL    HW2 7667   3.436   4.168   0.414
 2552SOL     OW 7668   2.885   4.490   0.966
 2552SOL    HW1 7669   2.900   4.511   1.062
 2552SOL    HW2 7670   2.855   4.395   0.957
 2553SOL     OW 7671   2.212   4.622   1.804
 2553SOL    HW1 7672   2.288   4.666   1.852
 2553SOL    HW2 7673   2.247   4.575   1.722
 2554SOL     OW 7674   3.402   3.998   0.125
 2554SOL    HW1 7675   3.341   3.923   0.148
 2554SOL    HW2 7676   3.424   4.050   0.208
 2555SOL     OW 7677   3.165   4.562   0.042
 2555SOL    HW1 7678   3.199   4.469   0.057
 2555SOL    HW2 7679   3.183   4.589  -0.053
 2556SOL     OW 7680   2.181   4.534   0.949
 2556SOL    HW1 7681   2.274   4.570   0.954
 2556SOL    HW2 7682   2.175   4.449   1.001
 2557SOL     OW 7683   2.201   4.233   1.006
 2557SOL    HW1 7684   2.149   4.150   0.989
 2557SOL    HW2 7685   2.278   4.238   0.942
 2558SOL     OW 7686   3.000   4.104   1.678
 2558SOL    HW1 7687   2.955   4.167   1.742
 2558SOL    HW2 7688   3.093   4.135   1.661
 2559SOL     OW 7689   3.022   3.931   1.477
 2559SOL    HW1 7690   3.022   3.995   1.554
 2559SOL    HW2 7691   3.050   3.979   1.394
 2560SOL     OW 7692   2.864   4.520   1.238
 2560SOL    HW1 7693   2.905   4.488   1.324
 2560SOL    HW2 7694   2.768   4.493   1.235
 2561SOL     OW 7695   1.902   4.268   1.114
 2561SOL    HW1 7696   1.987   4.235   1.073
 2561SOL    HW2 7697   1.915   4.283   1.212
 2562SOL     OW 7698   2.051   4.244   1.722
 2562SOL    HW1 7699   2.110   4.204   1.652
 2562SOL    HW2 7700   1.993   4.315   1.681
 2563SOL     OW 7701   3.231   4.674   1.660
 2563SOL    HW1 7702   3.270   4.763   1.680
 2563SOL    HW2 7703   3.241   4.654   1.563
 2564SOL     OW 7704   2.677   4.296   0.325
 2564SOL    HW1 7705   2.684   4.207   0.279
 2564SOL    HW2 7706   2.583   4.330   0.317
 2565SOL     OW 7707   3.519   4.328   1.206
 2565SOL    HW1 7708   3.481   4.259   1.268
 2565SOL    HW2 7709   3.601   4.292   1.162
 2566SOL     OW 7710   2.533   4.188   1.269
 2566SOL    HW1 7711   2.499   4.099   1.239
 2566SOL    HW2 7712   2.559   4.242   1.189
 2567SOL     OW 7713   2.335   4.224   0.191
 2567SOL    HW1 7714   2.396   4.304   0.195
 2567SOL    HW2 7715   2.240   4.255   0.198
 2568SOL     OW 7716   2.021   4.861   1.466
 2568SOL    HW1 7717   2.043   4.800   1.542
 2568SOL    HW2 7718   2.031   4.812   1.380
 2569SOL     OW 7719   3.209   4.783   1.234
 2569SOL    HW1 7720   3.233   4.720   1.160
 2569SOL    HW2 7721   3.119   4.823   1.216
 2570SOL     OW 7722   3.164   4.579   0.309
 2570SOL    HW1 7723   3.078   4.548   0.351
 2570SOL    HW2 7724   3.160   4.565   0.210
 2571SOL     OW 7725   2.765   3.810   0.133
 2571SOL    HW1 7726   2.816   3.811   0.047
 2571SOL    HW2 7727   2.821   3.768   0.204
 2572SOL     OW 7728   3.588   3.859   0.523
 2572SOL    HW1 7729   3.661   3.842   0.456
 2572SOL    HW2 7730   3.557   3.772   0.561
 2573SOL     OW 7731   3.142   4.651   0.672
 2573SOL    HW1 7732   3.202   4.570   0.674
 2573SOL    HW2 7733   3.182   4.720   0.612
 2574SOL     OW 7734   3.703   3.899   0.963
 2574SOL    HW1 7735   3.742   3.814   0.927
 2574SOL    HW2 7736   3.605   3.901   0.944
 2575SOL     OW 7737   2.125   4.050   0.720
 2575SOL    HW1 7738   2.046   4.101   0.686
 2575SOL    HW2 7739   2.116   4.035   0.818
 2576SOL     OW 7740   2.778   4.634   0.291
 2576SOL    HW1 7741   2.841   4.672   0.223
 2576SOL    HW2 7742   2.818   4.551   0.330
 2577SOL     OW 7743   2.876   3.960   0.971
 2577SOL    HW1 7744   2.868   3.924   0.878
 2577SOL    HW2 7745   2.874   3.884   1.036
 2578SOL     OW 7746   3.571   4.109   1.381
 2578SOL    HW1 7747   3.644   4.178   1.385
 2578SOL    HW2 7748   3.599   4.034   1.322
 2579SOL     OW 7749   1.967   4.737   1.726
 2579SOL    HW1 7750   1.890   4.704   1.780
 2579SOL    HW2 7751   2.052   4.707   1.768
 2580SOL     OW 7752   2.534   3.927   1.489
 2580SOL    HW1 7753   2.624   3.911   1.449
 2580SOL    HW2 7754   2.542   3.932   1.588
 2581SOL     OW 7755   1.937   4.069   0.033
 2581SOL    HW1 7756   1.845   4.041   0.004
 2581SOL    HW2 7757   1.968   4.146  -0.023
 2582SOL     OW 7758   3.302   4.580   1.398
 2582SOL    HW1 7759   3.245   4.632   1.335
 2582SOL    HW2 7760   3.398   4.592   1.374
 2583SOL     OW 7761   3.045   5.059   0.119
 2583SOL    HW1 7762   2.946   5.048   0.121
 2583SOL    HW2 7763   3.079   5.074   0.212
 2584SOL     OW 7764   2.475   4.566   1.431
 2584SOL    HW1 7765   2.531   4.647   1.414
 2584SOL    HW2 7766   2.534   4.486   1.434
 2585SOL     OW 7767   2.578   4.289   1.708
 2585SOL    HW1 7768   2.597   4.354   1.782
 2585SOL    HW2 7769   2.638   4.209   1.717
 2586SOL     OW 7770   3.536   4.607   1.254
 2586SOL    HW1 7771   3.509   4.518   1.217
 2586SOL    HW2 7772   3.537   4.675   1.181
 2587SOL     OW 7773   3.087   4.049   0.449
 2587SOL    HW1 7774   3.152   3.975   0.438
 2587SOL    HW2 7775   3.107   4.099   0.533
 2588SOL     OW 7776   2.456   4.469   0.652
 2588SOL    HW1 7777   2.506   4.554   0.633
 2588SOL    HW2 7778   2.368   4.471   0.604
 2589SOL     OW 7779   3.639   4.066   1.642
 2589SOL    HW1 7780   3.622   4.097   1.548
 2589SOL    HW2 7781   3.555   4.029   1.680
 2590SOL     OW 7782   3.592   4.658   1.517
 2590SOL    HW1 7783   3.630   4.749   1.532
 2590SOL    HW2 7784   3.584   4.641   1.418
 2591SOL     OW 7785   2.721   4.680   0.861
 2591SOL    HW1 7786   2.775   4.611   0.909
 2591SOL    HW2 7787   2.689   4.749   0.927
 2592SOL     OW 7788   2.945   4.708   0.087
 2592SOL    HW1 7789   2.922   4.761   0.005
 2592SOL    HW2 7790   3.026   4.652   0.068
 2593SOL     OW 7791   1.941   4.964   0.653
 2593SOL    HW1 7792   1.940   4.917   0.741
 2593SOL    HW2 7793   2.023   4.936   0.602
 2594SOL     OW 7794   3.686   3.916   1.227
 2594SOL    HW1 7795   3.682   3.826   1.271
 2594SOL    HW2 7796   3.689   3.905   1.128
 2595SOL     OW 7797   2.290   4.148   0.520
 2595SOL    HW1 7798   2.320   4.076   0.458
 2595SOL    HW2 7799   2.251   4.108   0.603
 2596SOL     OW 7800   2.179   4.271   1.280
 2596SOL    HW1 7801   2.217   4.212   1.352
 2596SOL    HW2 7802   2.219   4.245   1.192
 2597SOL     OW 7803   3.286   3.938   1.112
 2597SOL    HW1 7804   3.338   3.873   1.167
 2597SOL    HW2 7805   3.237   4.001   1.173
 2598SOL     OW 7806   2.863   3.758   1.154
 2598SOL    HW1 7807   2.800   3.686   1.123
 2598SOL    HW2 7808   2.956   3.722   1.154
 2599SOL     OW 7809   3.214   3.776   0.168
 2599SOL    HW1 7810   3.249   3.735   0.084
 2599SOL    HW2 7811   3.124   3.738   0.188
 2600SOL     OW 7812   3.162   4.177   0.691
 2600SOL    HW1 7813   3.103   4.257   0.695
 2600SOL    HW2 7814   3.177   4.142   0.784
 2601SOL     OW 7815   3.455   3.945   0.882
 2601SOL    HW1 7816   3.371   3.944   0.936
 2601SOL    HW2 7817   3.457   4.028   0.826
 2602SOL     OW 7818   1.901   4.801   0.300
 2602SOL    HW1 7819   2.000   4.790   0.291
 2602SOL    HW2 7820   1.861   4.715   0.332
 2603SOL     OW 7821   2.092   4.352   1.975
 2603SOL    HW1 7822   1.999   4.350   2.012
 2603SOL    HW2 7823   2.093   4.313   1.883
 2604SOL     OW 7824   2.087   3.999   2.858
 2604SOL    HW1 7825   2.122   3.982   2.950
 2604SOL    HW2 7826   1.999   3.954   2.846
 2605SOL     OW 7827   1.881   4.092   2.509
 2605SOL    HW1 7828   1.799   4.135   2.548
 2605SOL    HW2 7829   1.853   4.019   2.446
 2606SOL     OW 7830   2.997   4.427   2.579
 2606SOL    HW1 7831   3.054   4.505   2.554
 2606SOL    HW2 7832   2.937   4.453   2.655
 2607SOL     OW 7833   3.617   4.331   2.093
 2607SOL    HW1 7834   3.605   4.318   1.994
 2607SOL    HW2 7835   3.587   4.250   2.142
 2608SOL     OW 7836   2.630   4.868   2.885
 2608SOL    HW1 7837   2.552   4.885   2.945
 2608SOL    HW2 7838   2.664   4.955   2.849
 2609SOL     OW 7839   2.712   4.522   3.685
 2609SOL    HW1 7840   2.708   4.598   3.750
 2609SOL    HW2 7841   2.734   4.558   3.594
 2610SOL     OW 7842   2.547   4.736   2.527
 2610SOL    HW1 7843   2.616   4.720   2.597
 2610SOL    HW2 7844   2.474   4.793   2.565
 2611SOL     OW 7845   2.300   4.116   3.361
 2611SOL    HW1 7846   2.382   4.060   3.370
 2611SOL    HW2 7847   2.219   4.058   3.365
 2612SOL     OW 7848   3.465   4.171   2.599
 2612SOL    HW1 7849   3.391   4.217   2.549
 2612SOL    HW2 7850   3.516   4.239   2.652
 2613SOL     OW 7851   2.102   4.815   2.748
 2613SOL    HW1 7852   2.116   4.731   2.800
 2613SOL    HW2 7853   2.047   4.879   2.803
 2614SOL     OW 7854   3.456   3.838   3.342
 2614SOL    HW1 7855   3.438   3.905   3.270
 2614SOL    HW2 7856   3.453   3.884   3.431
 2615SOL     OW 7857   1.984   4.367   2.425
 2615SOL    HW1 7858   1.939   4.279   2.442
 2615SOL    HW2 7859   1.983   4.421   2.509
 2616SOL     OW 7860   1.975   4.461   3.459
 2616SOL    HW1 7861   2.063   4.448   3.504
 2616SOL    HW2 7862   1.962   4.558   3.437
 2617SOL     OW 7863   2.671   3.728   2.364
 2617SOL    HW1 7864   2.711   3.819   2.355
 2617SOL    HW2 7865   2.571   3.736   2.370
 2618SOL     OW 7866   2.059   4.700   3.126
 2618SOL    HW1 7867   2.148   4.655   3.112
 2618SOL    HW2 7868   1.986   4.635   3.107
 2619SOL     OW 7869   3.387   4.723   2.052
 2619SOL    HW1 7870   3.324   4.647   2.065
 2619SOL    HW2 7871   3.435   4.741   2.138
 2620SOL     OW 7872   2.179   3.975   3.663
 2620SOL    HW1 7873   2.250   4.046   3.669
 2620SOL    HW2 7874   2.091   4.014   3.691
 2621SOL     OW 7875   2.460   4.453   2.132
 2621SOL    HW1 7876   2.484   4.522   2.064
 2621SOL    HW2 7877   2.382   4.486   2.186
 2622SOL     OW 7878   3.143   4.069   2.806
 2622SOL    HW1 7879   3.057   4.019   2.793
 2622SOL    HW2 7880   3.205   4.015   2.862
 2623SOL     OW 7881   2.669   4.329   3.327
 2623SOL    HW1 7882   2.622   4.326   3.416
 2623SOL    HW2 7883   2.618   4.274   3.261
 2624SOL     OW 7884   3.256   4.193   3.536
 2624SOL    HW1 7885   3.236   4.236   3.624
 2624SOL    HW2 7886   3.334   4.131   3.545
 2625SOL     OW 7887   2.835   4.614   3.434
 2625SOL    HW1 7888   2.881   4.530   3.405
 2625SOL    HW2 7889   2.779   4.648   3.359
 2626SOL     OW 7890   2.853   4.134   3.104
 2626SOL    HW1 7891   2.776   4.168   3.158
 2626SOL    HW2 7892   2.819   4.083   3.025
 2627SOL     OW 7893   2.903   4.425   2.291
 2627SOL    HW1 7894   2.929   4.421   2.387
 2627SOL    HW2 7895   2.818   4.374   2.277
 2628SOL     OW 7896   1.938   4.535   2.651
 2628SOL    HW1 7897   2.037   4.523   2.660
 2628SOL    HW2 7898   1.914   4.630   2.672
 2629SOL     OW 7899   2.727   4.072   2.057
 2629SOL    HW1 7900   2.786   4.135   2.008
 2629SOL    HW2 7901   2.746   3.978   2.028
 2630SOL     OW 7902   3.581   4.309   3.693
 2630SOL    HW1 7903   3.555   4.398   3.657
 2630SOL    HW2 7904   3.579   4.241   3.620
 2631SOL     OW 7905   2.412   3.920   2.747
 2631SOL    HW1 7906   2.407   3.915   2.847
 2631SOL    HW2 7907   2.414   4.016   2.718
 2632SOL     OW 7908   3.320   4.459   2.590
 2632SOL    HW1 7909   3.315   4.394   2.665
 2632SOL    HW2 7910   3.400   4.518   2.603
 2633SOL     OW 7911   2.064   4.009   3.360
 2633SOL    HW1 7912   1.984   4.069   3.347
 2633SOL    HW2 7913   2.054   3.960   3.446
 2634SOL     OW 7914   3.262   3.831   2.288
 2634SOL    HW1 7915   3.238   3.794   2.198
 2634SOL    HW2 7916   3.361   3.847   2.292
 2635SOL     OW 7917   2.244   4.424   2.342
 2635SOL    HW1 7918   2.289   4.334   2.339
 2635SOL    HW2 7919   2.150   4.413   2.375
 2636SOL     OW 7920   3.409   3.946   3.591
 2636SOL    HW1 7921   3.404   3.983   3.683
 2636SOL    HW2 7922   3.337   3.877   3.579
 2637SOL     OW 7923   2.476   3.846   1.979
 2637SOL    HW1 7924   2.574   3.824   1.986
 2637SOL    HW2 7925   2.445   3.829   1.886
 2638SOL     OW 7926   2.643   3.988   3.611
 2638SOL    HW1 7927   2.710   3.927   3.654
 2638SOL    HW2 7928   2.570   4.007   3.676
 2639SOL     OW 7929   3.213   4.314   3.295
 2639SOL    HW1 7930   3.241   4.271   3.380
 2639SOL    HW2 7931   3.238   4.410   3.296
 2640SOL     OW 7932   2.784   4.227   2.761
 2640SOL    HW1 7933   2.759   4.218   2.665
 2640SOL    HW2 7934   2.832   4.145   2.792
 2641SOL     OW 7935   2.401   3.788   2.374
 2641SOL    HW1 7936   2.320   3.789   2.432
 2641SOL    HW2 7937   2.404   3.871   2.319
 2642SOL     OW 7938   2.159   3.759   2.033
 2642SOL    HW1 7939   2.208   3.843   2.012
 2642SOL    HW2 7940   2.221   3.694   2.078
 2643SOL     OW 7941   2.797   3.960   2.342
 2643SOL    HW1 7942   2.749   4.001   2.264
 2643SOL    HW2 7943   2.896   3.958   2.323
 2644SOL     OW 7944   2.938   4.407   3.326
 2644SOL    HW1 7945   2.858   4.346   3.329
 2644SOL    HW2 7946   3.019   4.354   3.302
 2645SOL     OW 7947   2.894   4.273   1.878
 2645SOL    HW1 7948   2.853   4.355   1.839
 2645SOL    HW2 7949   2.958   4.299   1.951
 2646SOL     OW 7950   1.940   4.280   3.248
 2646SOL    HW1 7951   2.032   4.279   3.207
 2646SOL    HW2 7952   1.934   4.354   3.315
 2647SOL     OW 7953   2.423   3.946   3.009
 2647SOL    HW1 7954   2.461   3.862   3.046
 2647SOL    HW2 7955   2.335   3.965   3.053
 2648SOL     OW 7956   2.728   4.178   2.504
 2648SOL    HW1 7957   2.696   4.250   2.442
 2648SOL    HW2 7958   2.752   4.097   2.451
 2649SOL     OW 7959   2.879   3.763   2.615
 2649SOL    HW1 7960   2.807   3.768   2.546
 2649SOL    HW2 7961   2.855   3.694   2.684
 2650SOL     OW 7962   3.291   4.897   2.729
 2650SOL    HW1 7963   3.236   4.813   2.722
 2650SOL    HW2 7964   3.317   4.926   2.637
 2651SOL     OW 7965   3.328   4.314   2.854
 2651SOL    HW1 7966   3.298   4.219   2.861
 2651SOL    HW2 7967   3.401   4.330   2.920
 2652SOL     OW 7968   3.719   4.557   2.239
 2652SOL    HW1 7969   3.761   4.493   2.303
 2652SOL    HW2 7970   3.681   4.506   2.161
 2653SOL     OW 7971   3.252   4.299   1.940
 2653SOL    HW1 7972   3.198   4.278   2.021
 2653SOL    HW2 7973   3.343   4.258   1.949
 2654SOL     OW 7974   2.389   3.980   2.190
 2654SOL    HW1 7975   2.416   3.921   2.115
 2654SOL    HW2 7976   2.389   4.075   2.159
 2655SOL     OW 7977   3.500   4.823   2.941
 2655SOL    HW1 7978   3.505   4.904   3.000
 2655SOL    HW2 7979   3.414   4.825   2.890
 2656SOL     OW 7980   2.777   3.813   3.264
 2656SOL    HW1 7981   2.802   3.793   3.169
 2656SOL    HW2 7982   2.849   3.869   3.306
 2657SOL     OW 7983   2.272   4.537   3.113
 2657SOL    HW1 7984   2.358   4.549   3.163
 2657SOL    HW2 7985   2.230   4.450   3.140
 2658SOL     OW 7986   3.136   4.110   3.124
 2658SOL    HW1 7987   3.157   4.184   3.188
 2658SOL    HW2 7988   3.047   4.127   3.081
 2659SOL     OW 7989   2.428   4.261   2.727
 2659SOL    HW1 7990   2.440   4.327   2.653
 2659SOL    HW2 7991   2.474   4.295   2.810
 2660SOL     OW 7992   3.444   4.363   2.334
 2660SOL    HW1 7993   3.413   4.424   2.407
 2660SOL    HW2 7994   3.494   4.415   2.265
 2661SOL     OW 7995   2.264   4.475   3.460
 2661SOL    HW1 7996   2.332   4.530   3.413
 2661SOL    HW2 7997   2.304   4.387   3.487
 2662SOL     OW 7998   3.449   4.503   3.532
 2662SOL    HW1 7999   3.357   4.541   3.527
 2662SOL    HW2 8000   3.509   4.550   3.467
 2663SOL     OW 8001   2.875   3.829   3.632
 2663SOL    HW1 8002   2.881   3.914   3.580
 2663SOL    HW2 8003   2.907   3.753   3.575
 2664SOL     OW 8004   2.366   3.774   3.602
 2664SOL    HW1 8005   2.324   3.717   3.532
 2664SOL    HW2 8006   2.300   3.843   3.634
 2665SOL     OW 8007   2.435   4.594   2.891
 2665SOL    HW1 8008   2.479   4.683   2.882
 2665SOL    HW2 8009   2.372   4.594   2.968
 2666SOL     OW 8010   3.222   4.586   2.907
 2666SOL    HW1 8011   3.147   4.586   2.841
 2666SOL    HW2 8012   3.259   4.494   2.916
 2667SOL     OW 8013   3.071   4.249   2.137
 2667SOL    HW1 8014   3.084   4.165   2.191
 2667SOL    HW2 8015   3.042   4.323   2.197
 2668SOL     OW 8016   2.169   3.937   3.093
 2668SOL    HW1 8017   2.146   3.974   3.183
 2668SOL    HW2 8018   2.139   3.842   3.087
 2669SOL     OW 8019   2.594   4.358   2.926
 2669SOL    HW1 8020   2.653   4.332   2.850
 2669SOL    HW2 8021   2.566   4.454   2.915
 2670SOL     OW 8022   3.590   4.659   3.716
 2670SOL    HW1 8023   3.544   4.652   3.627
 2670SOL    HW2 8024   3.528   4.703   3.782
 2671SOL     OW 8025   2.169   3.787   2.480
 2671SOL    HW1 8026   2.158   3.881   2.513
 2671SOL    HW2 8027   2.164   3.724   2.557
 2672SOL     OW 8028   3.484   4.091   2.236
 2672SOL    HW1 8029   3.486   4.015   2.300
 2672SOL    HW2 8030   3.436   4.168   2.276
 2673SOL     OW 8031   2.885   4.490   2.828
 2673SOL    HW1 8032   2.900   4.511   2.924
 2673SOL    HW2 8033   2.855   4.395   2.819
 2674SOL     OW 8034   2.212   4.622   3.666
 2674SOL    HW1 8035   2.288   4.666   3.714
 2674SOL    HW2 8036   2.247   4.575   3.584
 2675SOL     OW 8037   3.402   3.998   1.987
 2675SOL    HW1 8038   3.341   3.923   2.010
 2675SOL    HW2 8039   3.424   4.050   2.070
 2676SOL     OW 8040   3.165   4.562   1.904
 2676SOL    HW1 8041   3.199   4.469   1.919
 2676SOL    HW2 8042   3.183   4.589   1.809
 2677SOL     OW 8043   2.181   4.534   2.811
 2677SOL    HW1 8044   2.274   4.570   2.816
 2677SOL    HW2 8045   2.175   4.449   2.863
 2678SOL     OW 8046   2.201   4.233   2.868
 2678SOL    HW1 8047   2.149   4.150   2.851
 2678SOL    HW2 8048   2.278   4.238   2.804
 2679SOL     OW 8049   3.000   4.104   3.540
 2679SOL    HW1 8050   2.955   4.167   3.604
 2679SOL    HW2 8051   3.093   4.135   3.523
 2680SOL     OW 8052   3.022   3.931   3.339
 2680SOL    HW1 8053   3.022   3.995   3.416
 2680SOL    HW2 8054   3.050   3.979   3.256
 2681SOL     OW 8055   2.864   4.520   3.100
 2681SOL    HW1 8056   2.905   4.488   3.186
 2681SOL    HW2 8057   2.768   4.493   3.097
 2682SOL     OW 8058   1.902   4.268   2.976
 2682SOL    HW1 8059   1.987   4.235   2.935
 2682SOL    HW2 8060   1.915   4.283   3.074
 2683SOL     OW 8061   2.051   4.244   3.584
 2683SOL    HW1 8062   2.110   4.204   3.514
 2683SOL    HW2 8063   1.993   4.315   3.543
 2684SOL     OW 8064   3.231   4.674   3.522
 2684SOL    HW1 8065   3.270   4.763   3.542
 2684SOL    HW2 8066   3.241   4.654   3.425
 2685SOL     OW 8067   2.677   4.296   2.187
 2685SOL    HW1 8068   2.684   4.207   2.141
 2685SOL    HW2 8069   2.583   4.330   2.179
 2686SOL     OW 8070   3.519   4.328   3.068
 2686SOL    HW1 8071   3.481   4.259   3.130
 2686SOL    HW2 8072   3.601   4.292   3.024
 2687SOL     OW 8073   2.533   4.188   3.131
 2687SOL    HW1 8074   2.499   4.099   3.101
 2687SOL    HW2 8075   2.559   4.242   3.051
 2688SOL     OW 8076   2.335   4.224   2.053
 2688SOL    HW1 8077   2.396   4.304   2.057
 2688SOL    HW2 8078   2.240   4.255   2.060
 2689SOL     OW 8079   2.021   4.861   3.328
 2689SOL    HW1 8080   2.043   4.800   3.404
 2689SOL    HW2 8081   2.031   4.812   3.242
 2690SOL     OW 8082   3.209   4.783   3.096
 2690SOL    HW1 8083   3.233   4.720   3.022
 2690SOL    HW2 8084   3.119   4.823   3.078
 2691SOL     OW 8085   3.164   4.579   2.171
 2691SOL    HW1 8086   3.078   4.548   2.213
 2691SOL    HW2 8087   3.160   4.565   2.072
 2692SOL     OW 8088   3.588   3.859   2.385
 2692SOL    HW1 8089   3.661   3.842   2.318
 2692SOL    HW2 8090   3.557   3.772   2.423
 2693SOL     OW 8091   3.142   4.651   2.534
 2693SOL    HW1 8092   3.202   4.570   2.536
 2693SOL    HW2 8093   3.182   4.720   2.474
 2694SOL     OW 8094   3.703   3.899   2.825
 2694SOL    HW1 8095   3.742   3.814   2.789
 2694SOL    HW2 8096   3.605   3.901   2.806
 2695SOL     OW 8097   2.125   4.050   2.582
 2695SOL    HW1 8098   2.046   4.101   2.548
 2695SOL    HW2 8099   2.116   4.035   2.680
 2696SOL     OW 8100   2.778   4.634   2.153
 2696SOL    HW1 8101   2.841   4.672   2.085
 2696SOL    HW2 8102   2.818   4.551   2.192
 2697SOL     OW 8103   2.876   3.960   2.833
 2697SOL    HW1 8104   2.868   3.924   2.740
 2697SOL    HW2 8105   2.874   3.884   2.898
 2698SOL     OW 8106   3.571   4.109   3.243
 2698SOL    HW1 8107   3.644   4.178   3.247
 2698SOL    HW2 8108   3.599   4.034   3.184
 2699SOL     OW 8109   1.967   4.737   3.588
 2699SOL    HW1 8110   1.890   4.704   3.642
 2699SOL    HW2 8111   2.052   4.707   3.630
 2700SOL     OW 8112   2.534   3.927   3.351
 2700SOL    HW1 8113   2.624   3.911   3.311
 2700SOL    HW2 8114   2.542   3.932   3.450
 2701SOL     OW 8115   1.937   4.069   1.895
 2701SOL    HW1 8116   1.845   4.041   1.866
 2701SOL    HW2 8117   1.968   4.146   1.839
 2702SOL     OW 8118   3.302   4.580   3.260
 2702SOL    HW1 8119   3.245   4.632   3.197
 2702SOL    HW2 8120   3.398   4.592   3.236
 2703SOL     OW 8121   1.934   3.890   2.180
 2703SOL    HW1 8122   1.917   3.973   2.126
 2703SOL    HW2 8123   2.024   3.853   2.158
 2704SOL     OW 8124   3.045   5.059   1.981
 2704SOL    HW1 8125   2.946   5.048   1.983
 2704SOL    HW2 8126   3.079   5.074   2.074
 2705SOL     OW 8127   2.475   4.566   3.293
 2705SOL    HW1 8128   2.531   4.647   3.276
 2705SOL    HW2 8129   2.534   4.486   3.296
 2706SOL     OW 8130   2.578   4.289   3.570
 2706SOL    HW1 8131   2.597   4.354   3.644
 2706SOL    HW2 8132   2.638   4.209   3.579
 2707SOL     OW 8133   3.536   4.607   3.116
 2707SOL    HW1 8134   3.509   4.518   3.079
 2707SOL    HW2 8135   3.537   4.675   3.043
 2708SOL     OW 8136   3.087   4.049   2.311
 2708SOL    HW1 8137   3.152   3.975   2.300
 2708SOL    HW2 8138   3.107   4.099   2.395
 2709SOL     OW 8139   2.456   4.469   2.514
 2709SOL    HW1 8140   2.506   4.554   2.495
 2709SOL    HW2 8141   2.368   4.471   2.466
 2710SOL     OW 8142   3.639   4.066   3.504
 2710SOL    HW1 8143   3.622   4.097   3.410
 2710SOL    HW2 8144   3.555   4.029   3.542
 2711SOL     OW 8145   3.592   4.658   3.379
 2711SOL    HW1 8146   3.630   4.749   3.394
 2711SOL    HW2 8147   3.584   4.641   3.280
 2712SOL     OW 8148   2.721   4.680   2.723
 2712SOL    HW1 8149   2.775   4.611   2.771
 2712SOL    HW2 8150   2.689   4.749   2.789
 2713SOL     OW 8151   2.945   4.708   1.949
 2713SOL    HW1 8152   2.922   4.761   1.867
 2713SOL    HW2 8153   3.026   4.652   1.930
 2714SOL     OW 8154   1.941   4.964   2.515
 2714SOL    HW1 8155   1.940   4.917   2.603
 2714SOL    HW2 8156   2.023   4.936   2.464
 2715SOL     OW 8157   3.686   3.916   3.089
 2715SOL    HW1 8158   3.682   3.826   3.133
 2715SOL    HW2 8159   3.689   3.905   2.990
 2716SOL     OW 8160   2.290   4.148   2.382
 2716SOL    HW1 8161   2.320   4.076   2.320
 2716SOL    HW2 8162   2.251   4.108   2.465
 2717SOL     OW 8163   2.179   4.271   3.142
 2717SOL    HW1 8164   2.217   4.212   3.214
 2717SOL    HW2 8165   2.219   4.245   3.054
 2718SOL     OW 8166   3.286   3.938   2.974
 2718SOL    HW1 8167   3.338   3.873   3.029
 2718SOL    HW2 8168   3.237   4.001   3.035
 2719SOL     OW 8169   2.863   3.758   3.016
 2719SOL    HW1 8170   2.800   3.686   2.985
 2719SOL    HW2 8171   2.956   3.722   3.016
 2720SOL     OW 8172   3.214   3.776   2.030
 2720SOL    HW1 8173   3.249   3.735   1.946
 2720SOL    HW2 8174   3.124   3.738   2.050
 2721SOL     OW 8175   3.162   4.177   2.553
 2721SOL    HW1 8176   3.103   4.257   2.557
 2721SOL    HW2 8177   3.177   4.142   2.646
 2722SOL     OW 8178   3.455   3.945   2.744
 2722SOL    HW1 8179   3.371   3.944   2.798
 2722SOL    HW2 8180   3.457   4.028   2.688
 2723SOL     OW 8181   2.092   4.352   3.837
 2723SOL    HW1 8182   1.999   4.350   3.874
 2723SOL    HW2 8183   2.093   4.313   3.745
 2724SOL     OW 8184   2.087   3.999   4.720
 2724SOL    HW1 8185   2.122   3.982   4.812
 2724SOL    HW2 8186   1.999   3.954   4.708
 2725SOL     OW 8187   1.881   4.092   4.371
 2725SOL    HW1 8188   1.799   4.135   4.410
 2725SOL    HW2 8189   1.853   4.019   4.308
 2726SOL     OW 8190   2.997   4.427   4.441
 2726SOL    HW1 8191   3.054   4.505   4.416
 2726SOL    HW2 8192   2.937   4.453   4.517
 2727SOL     OW 8193   3.617   4.331   3.955
 2727SOL    HW1 8194   3.605   4.318   3.856
 2727SOL    HW2 8195   3.587   4.250   4.004
 2728SOL     OW 8196   2.547   4.736   4.389
 2728SOL    HW1 8197   2.616   4.720   4.459
 2728SOL    HW2 8198   2.474   4.793   4.427
 2729SOL     OW 8199   3.465   4.171   4.461
 2729SOL    HW1 8200   3.391   4.217   4.411
 2729SOL    HW2 8201   3.516   4.239   4.514
 2730SOL     OW 8202   2.102   4.815   4.610
 2730SOL    HW1 8203   2.116   4.731   4.662
 2730SOL    HW2 8204   2.047   4.879   4.665
 2731SOL     OW 8205   1.984   4.367   4.287
 2731SOL    HW1 8206   1.939   4.279   4.304
 2731SOL    HW2 8207   1.983   4.421   4.371
 2732SOL     OW 8208   2.671   3.728   4.226
 2732SOL    HW1 8209   2.711   3.819   4.217
 2732SOL    HW2 8210   2.571   3.736   4.232
 2733SOL     OW 8211   3.387   4.723   3.914
 2733SOL    HW1 8212   3.324   4.647   3.927
 2733SOL    HW2 8213   3.435   4.741   4.000
 2734SOL     OW 8214   2.460   4.453   3.994
 2734SOL    HW1 8215   2.484   4.522   3.926
 2734SOL    HW2 8216   2.382   4.486   4.048
 2735SOL     OW 8217   3.143   4.069   4.668
 2735SOL    HW1 8218   3.057   4.019   4.655
 2735SOL    HW2 8219   3.205   4.015   4.724
 2736SOL     OW 8220   2.903   4.425   4.153
 2736SOL    HW1 8221   2.929   4.421   4.249
 2736SOL    HW2 8222   2.818   4.374   4.139
 2737SOL     OW 8223   1.938   4.535   4.513
 2737SOL    HW1 8224   2.037   4.523   4.522
 2737SOL    HW2 8225   1.914   4.630   4.534
 2738SOL     OW 8226   2.727   4.072   3.919
 2738SOL    HW1 8227   2.786   4.135   3.870
 2738SOL    HW2 8228   2.746   3.978   3.890
 2739SOL     OW 8229   2.412   3.920   4.609
 2739SOL    HW1 8230   2.407   3.915   4.709
 2739SOL    HW2 8231   2.414   4.016   4.580
 2740SOL     OW 8232   3.320   4.459   4.452
 2740SOL    HW1 8233   3.315   4.394   4.527
 2740SOL    HW2 8234   3.400   4.518   4.465
 2741SOL     OW 8235   3.262   3.831   4.150
 2741SOL    HW1 8236   3.238   3.794   4.060
 2741SOL    HW2 8237   3.361   3.847   4.154
 2742SOL     OW 8238   2.244   4.424   4.204
 2742SOL    HW1 8239   2.289   4.334   4.201
 2742SOL    HW2 8240   2.150   4.413   4.237
 2743SOL     OW 8241   2.476   3.846   3.841
 2743SOL    HW1 8242   2.574   3.824   3.848
 2743SOL    HW2 8243   2.445   3.829   3.748
 2744SOL     OW 8244   2.784   4.227   4.623
 2744SOL    HW1 8245   2.759   4.218   4.527
 2744SOL    HW2 8246   2.832   4.145   4.654
 2745SOL     OW 8247   2.401   3.788   4.236
 2745SOL    HW1 8248   2.320   3.789   4.294
 2745SOL    HW2 8249   2.404   3.871   4.181
 2746SOL     OW 8250   2.159   3.759   3.895
 2746SOL    HW1 8251   2.208   3.843   3.874
 2746SOL    HW2 8252   2.221   3.694   3.940
 2747SOL     OW 8253   2.797   3.960   4.204
 2747SOL    HW1 8254   2.749   4.001   4.126
 2747SOL    HW2 8255   2.896   3.958   4.185
 2748SOL     OW 8256   2.894   4.273   3.740
 2748SOL    HW1 8257   2.853   4.355   3.701
 2748SOL    HW2 8258   2.958   4.299   3.813
 2749SOL     OW 8259   2.728   4.178   4.366
 2749SOL    HW1 8260   2.696   4.250   4.304
 2749SOL    HW2 8261   2.752   4.097   4.313
 2750SOL     OW 8262   2.879   3.763   4.477
 2750SOL    HW1 8263   2.807   3.768   4.408
 2750SOL    HW2 8264   2.855   3.694   4.546
 2751SOL     OW 8265   3.291   4.897   4.591
 2751SOL    HW1 8266   3.236   4.813   4.584
 2751SOL    HW2 8267   3.317   4.926   4.499
 2752SOL     OW 8268   3.719   4.557   4.101
 2752SOL    HW1 8269   3.761   4.493   4.165
 2752SOL    HW2 8270   3.681   4.506   4.023
 2753SOL     OW 8271   3.252   4.299   3.802
 2753SOL    HW1 8272   3.198   4.278   3.883
 2753SOL    HW2 8273   3.343   4.258   3.811
 2754SOL     OW 8274   2.389   3.980   4.052
 2754SOL    HW1 8275   2.416   3.921   3.977
 2754SOL    HW2 8276   2.389   4.075   4.021
 2755SOL     OW 8277   3.500   4.823   4.803
 2755SOL    HW1 8278   3.505   4.904   4.862
 2755SOL    HW2 8279   3.414   4.825   4.752
 2756SOL     OW 8280   2.428   4.261   4.589
 2756SOL    HW1 8281   2.440   4.327   4.515
 2756SOL    HW2 8282   2.474   4.295   4.672
 2757SOL     OW 8283   3.444   4.363   4.196
 2757SOL    HW1 8284   3.413   4.424   4.269
 2757SOL    HW2 8285   3.494   4.415   4.127
 2758SOL     OW 8286   2.435   4.594   4.753
 2758SOL    HW1 8287   2.479   4.683   4.744
 2758SOL    HW2 8288   2.372   4.594   4.830
 2759SOL     OW 8289   3.071   4.249   3.999
 2759SOL    HW1 8290   3.084   4.165   4.053
 2759SOL    HW2 8291   3.042   4.323   4.059
 2760SOL     OW 8292   2.169   3.937   4.955
 2760SOL    HW1 8293   2.146   3.974   5.045
 2760SOL    HW2 8294   2.139   3.842   4.949
 2761SOL     OW 8295   2.594   4.358   4.788
 2761SOL    HW1 8296   2.653   4.332   4.712
 2761SOL    HW2 8297   2.566   4.454   4.777
 2762SOL     OW 8298   2.169   3.787   4.342
 2762SOL    HW1 8299   2.158   3.881   4.375
 2762SOL    HW2 8300   2.164   3.724   4.419
 2763SOL     OW 8301   3.484   4.091   4.098
 2763SOL    HW1 8302   3.486   4.015   4.162
 2763SOL    HW2 8303   3.436   4.168   4.138
 2764SOL     OW 8304   3.402   3.998   3.849
 2764SOL    HW1 8305   3.341   3.923   3.872
 2764SOL    HW2 8306   3.424   4.050   3.932
 2765SOL     OW 8307   3.165   4.562   3.766
 2765SOL    HW1 8308   3.199   4.469   3.781
 2765SOL    HW2 8309   3.183   4.589   3.671
 2766SOL     OW 8310   2.181   4.534   4.673
 2766SOL    HW1 8311   2.274   4.570   4.678
 2766SOL    HW2 8312   2.175   4.449   4.725
 2767SOL     OW 8313   2.201   4.233   4.730
 2767SOL    HW1 8314   2.149   4.150   4.713
 2767SOL    HW2 8315   2.278   4.238   4.666
 2768SOL     OW 8316   2.677   4.296   4.049
 2768SOL    HW1 8317   2.684   4.207   4.003
 2768SOL    HW2 8318   2.583   4.330   4.041
 2769SOL     OW 8319   2.533   4.188   4.993
 2769SOL    HW1 8320   2.499   4.099   4.963
 2769SOL    HW2 8321   2.559   4.242   4.913
 2770SOL     OW 8322   2.335   4.224   3.915
 2770SOL    HW1 8323   2.396   4.304   3.919
 2770SOL    HW2 8324   2.240   4.255   3.922
 2771SOL     OW 8325   3.164   4.579   4.033
 2771SOL    HW1 8326   3.078   4.548   4.075
 2771SOL    HW2 8327   3.160   4.565   3.934
 2772SOL     OW 8328   3.588   3.859   4.247
 2772SOL    HW1 8329   3.661   3.842   4.180
 2772SOL    HW2 8330   3.557   3.772   4.285
 2773SOL     OW 8331   3.142   4.651   4.396
 2773SOL    HW1 8332   3.202   4.570   4.398
 2773SOL    HW2 8333   3.182   4.720   4.336
 2774SOL     OW 8334   3.703   3.899   4.687
 2774SOL    HW1 8335   3.742   3.814   4.651
 2774SOL    HW2 8336   3.605   3.901   4.668
 2775SOL     OW 8337   2.125   4.050   4.444
 2775SOL    HW1 8338   2.046   4.101   4.410
 2775SOL    HW2 8339   2.116   4.035   4.542
 2776SOL     OW 8340   2.778   4.634   4.015
 2776SOL    HW1 8341   2.841   4.672   3.947
 2776SOL    HW2 8342   2.818   4.551   4.054
 2777SOL     OW 8343   1.937   4.069   3.757
 2777SOL    HW1 8344   1.845   4.041   3.728
 2777SOL    HW2 8345   1.968   4.146   3.701
 2778SOL     OW 8346   1.934   3.890   4.042
 2778SOL    HW1 8347   1.917   3.973   3.988
 2778SOL    HW2 8348   2.024   3.853   4.020
 2779SOL     OW 8349   3.045   5.059   3.843
 2779SOL    HW1 8350   2.946   5.048   3.845
 2779SOL    HW2 8351   3.079   5.074   3.936
 2780SOL     OW 8352   3.536   4.607   4.978
 2780SOL    HW1 8353   3.509   4.518   4.941
 2780SOL    HW2 8354   3.537   4.675   4.905
 2781SOL     OW 8355   3.087   4.049   4.173
 2781SOL    HW1 8356   3.152   3.975   4.162
 2781SOL    HW2 8357   3.107   4.099   4.257
 2782SOL     OW 8358   2.456   4.469   4.376
 2782SOL    HW1 8359   2.506   4.554   4.357
 2782SOL    HW2 8360   2.368   4.471   4.328
 2783SOL     OW 8361   2.721   4.680   4.585
 2783SOL    HW1 8362   2.775   4.611   4.633
 2783SOL    HW2 8363   2.689   4.749   4.651
 2784SOL     OW 8364   2.945   4.708   3.811
 2784SOL    HW1 8365   2.922   4.761   3.729
 2784SOL    HW2 8366   3.026   4.652   3.792
 2785SOL     OW 8367   1.941   4.964   4.377
 2785SOL    HW1 8368   1.940   4.917   4.465
 2785SOL    HW2 8369   2.023   4.936   4.326
 2786SOL     OW 8370   3.686   3.916   4.951
 2786SOL    HW1 8371   3.682   3.826   4.995
 2786SOL    HW2 8372   3.689   3.905   4.852
 2787SOL     OW 8373   2.290   4.148   4.244
 2787SOL    HW1 8374   2.320   4.076   4.182
 2787SOL    HW2 8375   2.251   4.108   4.327
 2788SOL     OW 8376   3.214   3.776   3.892
 2788SOL    HW1 8377   3.249   3.735   3.808
 2788SOL    HW2 8378   3.124   3.738   3.912
 2789SOL     OW 8379   3.162   4.177   4.415
 2789SOL    HW1 8380   3.103   4.257   4.419
 2789SOL    HW2 8381   3.177   4.142   4.508
 2790SOL     OW 8382   3.455   3.945   4.606
 2790SOL    HW1 8383   3.371   3.944   4.660
 2790SOL    HW2 8384   3.457   4.028   4.550
 2791SOL     OW 8385   3.954   0.628   0.113
 2791SOL    HW1 8386   3.861   0.626   0.150
 2791SOL    HW2 8387   3.955   0.589   0.021
 2792SOL     OW 8388   3.949   0.275   0.996
 2792SOL    HW1 8389   3.984   0.258   1.088
 2792SOL    HW2 8390   3.861   0.230   0.984
 2793SOL     OW 8391   3.743   0.368   0.647
 2793SOL    HW1 8392   3.661   0.411   0.686
 2793SOL    HW2 8393   3.715   0.295   0.584
 2794SOL     OW 8394   4.293   1.275   1.165
 2794SOL    HW1 8395   4.200   1.268   1.128
 2794SOL    HW2 8396   4.304   1.364   1.209
 2795SOL     OW 8397   4.492   1.144   1.023
 2795SOL    HW1 8398   4.414   1.161   1.083
 2795SOL    HW2 8399   4.526   1.231   0.987
 2796SOL     OW 8400   4.574   0.798   1.823
 2796SOL    HW1 8401   4.570   0.874   1.888
 2796SOL    HW2 8402   4.596   0.834   1.732
 2797SOL     OW 8403   4.409   1.012   0.665
 2797SOL    HW1 8404   4.478   0.996   0.735
 2797SOL    HW2 8405   4.336   1.069   0.703
 2798SOL     OW 8406   4.410   1.161   1.803
 2798SOL    HW1 8407   4.470   1.240   1.817
 2798SOL    HW2 8408   4.324   1.192   1.762
 2799SOL     OW 8409   4.059   1.435   1.061
 2799SOL    HW1 8410   3.981   1.404   1.008
 2799SOL    HW2 8411   4.117   1.493   1.004
 2800SOL     OW 8412   4.162   0.392   1.499
 2800SOL    HW1 8413   4.244   0.336   1.508
 2800SOL    HW2 8414   4.081   0.334   1.503
 2801SOL     OW 8415   3.955   1.713   0.483
 2801SOL    HW1 8416   3.989   1.790   0.537
 2801SOL    HW2 8417   3.999   1.713   0.393
 2802SOL     OW 8418   3.954   1.434   0.538
 2802SOL    HW1 8419   3.928   1.530   0.538
 2802SOL    HW2 8420   3.883   1.380   0.583
 2803SOL     OW 8421   3.964   1.091   0.886
 2803SOL    HW1 8422   3.978   1.007   0.938
 2803SOL    HW2 8423   3.909   1.155   0.941
 2804SOL     OW 8424   4.344   1.786   1.439
 2804SOL    HW1 8425   4.252   1.769   1.474
 2804SOL    HW2 8426   4.372   1.878   1.465
 2805SOL     OW 8427   4.330   0.964   0.123
 2805SOL    HW1 8428   4.337   1.048   0.069
 2805SOL    HW2 8429   4.376   0.977   0.211
 2806SOL     OW 8430   3.846   0.643   0.563
 2806SOL    HW1 8431   3.801   0.555   0.580
 2806SOL    HW2 8432   3.845   0.697   0.647
 2807SOL     OW 8433   3.751   1.596   0.117
 2807SOL    HW1 8434   3.732   1.500   0.138
 2807SOL    HW2 8435   3.718   1.654   0.192
 2808SOL     OW 8436   3.837   0.737   1.597
 2808SOL    HW1 8437   3.925   0.724   1.642
 2808SOL    HW2 8438   3.824   0.834   1.575
 2809SOL     OW 8439   4.337   1.365   0.726
 2809SOL    HW1 8440   4.288   1.278   0.735
 2809SOL    HW2 8441   4.314   1.408   0.639
 2810SOL     OW 8442   4.533   0.004   0.502
 2810SOL    HW1 8443   4.573   0.095   0.493
 2810SOL    HW2 8444   4.433   0.012   0.508
 2811SOL     OW 8445   3.921   0.976   1.264
 2811SOL    HW1 8446   4.010   0.931   1.250
 2811SOL    HW2 8447   3.848   0.911   1.245
 2812SOL     OW 8448   4.041   0.251   1.801
 2812SOL    HW1 8449   4.112   0.322   1.807
 2812SOL    HW2 8450   3.953   0.290   1.829
 2813SOL     OW 8451   4.322   0.729   0.270
 2813SOL    HW1 8452   4.346   0.798   0.202
 2813SOL    HW2 8453   4.244   0.762   0.324
 2814SOL     OW 8454   4.531   0.605   1.465
 2814SOL    HW1 8455   4.484   0.602   1.554
 2814SOL    HW2 8456   4.480   0.550   1.399
 2815SOL     OW 8457   4.697   0.890   1.572
 2815SOL    HW1 8458   4.743   0.806   1.543
 2815SOL    HW2 8459   4.641   0.924   1.497
 2816SOL     OW 8460   4.715   0.410   1.242
 2816SOL    HW1 8461   4.638   0.444   1.296
 2816SOL    HW2 8462   4.681   0.359   1.163
 2817SOL     OW 8463   3.800   0.811   0.789
 2817SOL    HW1 8464   3.899   0.799   0.798
 2817SOL    HW2 8465   3.776   0.906   0.810
 2818SOL     OW 8466   3.854   1.821   1.571
 2818SOL    HW1 8467   3.844   1.806   1.670
 2818SOL    HW2 8468   3.768   1.857   1.535
 2819SOL     OW 8469   4.589   0.348   0.195
 2819SOL    HW1 8470   4.648   0.411   0.146
 2819SOL    HW2 8471   4.608   0.254   0.166
 2820SOL     OW 8472   4.274   0.196   0.885
 2820SOL    HW1 8473   4.269   0.191   0.985
 2820SOL    HW2 8474   4.276   0.292   0.856
 2821SOL     OW 8475   4.732   1.456   0.477
 2821SOL    HW1 8476   4.686   1.528   0.425
 2821SOL    HW2 8477   4.728   1.476   0.575
 2822SOL     OW 8478   4.075   1.801   0.853
 2822SOL    HW1 8479   4.125   1.715   0.859
 2822SOL    HW2 8480   4.140   1.878   0.850
 2823SOL     OW 8481   4.045   0.943   0.242
 2823SOL    HW1 8482   4.127   0.982   0.200
 2823SOL    HW2 8483   4.018   0.861   0.193
 2824SOL     OW 8484   4.185   1.266   1.727
 2824SOL    HW1 8485   4.135   1.267   1.641
 2824SOL    HW2 8486   4.122   1.248   1.803
 2825SOL     OW 8487   3.926   0.285   1.498
 2825SOL    HW1 8488   3.846   0.345   1.485
 2825SOL    HW2 8489   3.916   0.236   1.584
 2826SOL     OW 8490   4.188   1.743   0.323
 2826SOL    HW1 8491   4.221   1.782   0.409
 2826SOL    HW2 8492   4.264   1.736   0.258
 2827SOL     OW 8493   3.973   1.785   1.241
 2827SOL    HW1 8494   4.030   1.720   1.291
 2827SOL    HW2 8495   3.957   1.752   1.148
 2828SOL     OW 8496   4.106   0.700   0.480
 2828SOL    HW1 8497   4.151   0.610   0.477
 2828SOL    HW2 8498   4.012   0.689   0.513
 2829SOL     OW 8499   4.338   0.122   0.117
 2829SOL    HW1 8500   4.436   0.100   0.124
 2829SOL    HW2 8501   4.307   0.105   0.024
 2830SOL     OW 8502   4.505   0.264   1.749
 2830SOL    HW1 8503   4.572   0.203   1.792
 2830SOL    HW2 8504   4.432   0.283   1.814
 2831SOL     OW 8505   4.612   1.514   1.195
 2831SOL    HW1 8506   4.589   1.489   1.101
 2831SOL    HW2 8507   4.673   1.445   1.234
 2832SOL     OW 8508   4.527   1.402   0.924
 2832SOL    HW1 8509   4.617   1.416   0.882
 2832SOL    HW2 8510   4.456   1.404   0.853
 2833SOL     OW 8511   4.646   0.503   0.899
 2833SOL    HW1 8512   4.621   0.494   0.803
 2833SOL    HW2 8513   4.694   0.421   0.930
 2834SOL     OW 8514   4.263   0.064   0.512
 2834SOL    HW1 8515   4.182   0.065   0.570
 2834SOL    HW2 8516   4.266   0.147   0.457
 2835SOL     OW 8517   4.021   0.035   0.171
 2835SOL    HW1 8518   4.070   0.119   0.150
 2835SOL    HW2 8519   4.083  -0.030   0.216
 2836SOL     OW 8520   4.659   0.236   0.480
 2836SOL    HW1 8521   4.611   0.277   0.402
 2836SOL    HW2 8522   4.758   0.234   0.461
 2837SOL     OW 8523   4.951   1.570   0.793
 2837SOL    HW1 8524   4.972   1.644   0.728
 2837SOL    HW2 8525   5.019   1.570   0.866
 2838SOL     OW 8526   4.183   1.152   0.741
 2838SOL    HW1 8527   4.112   1.125   0.806
 2838SOL    HW2 8528   4.157   1.124   0.648
 2839SOL     OW 8529   3.802   0.556   1.386
 2839SOL    HW1 8530   3.894   0.555   1.345
 2839SOL    HW2 8531   3.796   0.630   1.453
 2840SOL     OW 8532   4.285   0.222   1.147
 2840SOL    HW1 8533   4.323   0.138   1.184
 2840SOL    HW2 8534   4.197   0.241   1.191
 2841SOL     OW 8535   4.741   0.039   0.753
 2841SOL    HW1 8536   4.669   0.044   0.684
 2841SOL    HW2 8537   4.717  -0.030   0.822
 2842SOL     OW 8538   4.212   1.385   0.174
 2842SOL    HW1 8539   4.125   1.370   0.221
 2842SOL    HW2 8540   4.195   1.411   0.079
 2843SOL     OW 8541   4.251   0.256   0.328
 2843SOL    HW1 8542   4.278   0.197   0.253
 2843SOL    HW2 8543   4.251   0.351   0.297
 2844SOL     OW 8544   4.639   0.089   1.402
 2844SOL    HW1 8545   4.664   0.069   1.307
 2844SOL    HW2 8546   4.711   0.145   1.444
 2845SOL     OW 8547   4.704   1.116   1.719
 2845SOL    HW1 8548   4.605   1.122   1.729
 2845SOL    HW2 8549   4.727   1.036   1.663
 2846SOL     OW 8550   4.429   1.050   0.368
 2846SOL    HW1 8551   4.415   1.057   0.467
 2846SOL    HW2 8552   4.513   0.999   0.350
 2847SOL     OW 8553   4.134   0.813   1.251
 2847SOL    HW1 8554   4.220   0.825   1.301
 2847SOL    HW2 8555   4.092   0.726   1.278
 2848SOL     OW 8556   3.788   1.564   1.331
 2848SOL    HW1 8557   3.742   1.646   1.297
 2848SOL    HW2 8558   3.886   1.583   1.340
 2849SOL     OW 8559   4.091   1.100   0.501
 2849SOL    HW1 8560   4.084   1.183   0.445
 2849SOL    HW2 8561   4.095   1.020   0.441
 2850SOL     OW 8562   4.290   0.537   0.865
 2850SOL    HW1 8563   4.302   0.603   0.791
 2850SOL    HW2 8564   4.336   0.571   0.948
 2851SOL     OW 8565   4.078   1.510   1.329
 2851SOL    HW1 8566   4.057   1.466   1.242
 2851SOL    HW2 8567   4.175   1.536   1.332
 2852SOL     OW 8568   4.126   0.751   1.598
 2852SOL    HW1 8569   4.194   0.806   1.551
 2852SOL    HW2 8570   4.166   0.663   1.625
 2853SOL     OW 8571   4.228   0.050   1.740
 2853SOL    HW1 8572   4.186  -0.007   1.670
 2853SOL    HW2 8573   4.162   0.119   1.772
 2854SOL     OW 8574   4.297   0.870   1.029
 2854SOL    HW1 8575   4.341   0.959   1.020
 2854SOL    HW2 8576   4.234   0.870   1.106
 2855SOL     OW 8577   4.933   0.525   0.275
 2855SOL    HW1 8578   4.946   0.441   0.329
 2855SOL    HW2 8579   4.904   0.599   0.335
 2856SOL     OW 8580   4.031   0.213   1.231
 2856SOL    HW1 8581   4.008   0.250   1.321
 2856SOL    HW2 8582   4.001   0.118   1.225
 2857SOL     OW 8583   3.761   1.310   1.282
 2857SOL    HW1 8584   3.814   1.261   1.350
 2857SOL    HW2 8585   3.783   1.408   1.287
 2858SOL     OW 8586   4.456   0.634   1.064
 2858SOL    HW1 8587   4.515   0.608   0.988
 2858SOL    HW2 8588   4.428   0.730   1.053
 2859SOL     OW 8589   4.031   0.063   0.618
 2859SOL    HW1 8590   4.020   0.157   0.651
 2859SOL    HW2 8591   4.026   0.000   0.695
 2860SOL     OW 8592   4.747   0.766   0.966
 2860SOL    HW1 8593   4.762   0.787   1.062
 2860SOL    HW2 8594   4.717   0.671   0.957
 2861SOL     OW 8595   4.704   1.573   1.700
 2861SOL    HW1 8596   4.684   1.617   1.612
 2861SOL    HW2 8597   4.743   1.482   1.684
 2862SOL     OW 8598   4.074   0.898   1.804
 2862SOL    HW1 8599   4.150   0.942   1.852
 2862SOL    HW2 8600   4.109   0.851   1.722
 2863SOL     OW 8601   4.043   0.810   0.949
 2863SOL    HW1 8602   4.136   0.846   0.954
 2863SOL    HW2 8603   4.037   0.725   1.001
 2864SOL     OW 8604   4.063   0.509   1.006
 2864SOL    HW1 8605   4.011   0.426   0.989
 2864SOL    HW2 8606   4.140   0.514   0.942
 2865SOL     OW 8607   3.732   1.326   0.200
 2865SOL    HW1 8608   3.639   1.347   0.169
 2865SOL    HW2 8609   3.742   1.227   0.213
 2866SOL     OW 8610   3.812   1.801   0.927
 2866SOL    HW1 8611   3.770   1.715   0.900
 2866SOL    HW2 8612   3.906   1.804   0.893
 2867SOL     OW 8613   4.228   1.568   0.910
 2867SOL    HW1 8614   4.294   1.642   0.919
 2867SOL    HW2 8615   4.272   1.489   0.868
 2868SOL     OW 8616   4.726   0.796   1.238
 2868SOL    HW1 8617   4.767   0.764   1.324
 2868SOL    HW2 8618   4.630   0.769   1.235
 2869SOL     OW 8619   3.764   0.544   1.114
 2869SOL    HW1 8620   3.849   0.511   1.073
 2869SOL    HW2 8621   3.777   0.559   1.212
 2870SOL     OW 8622   3.913   0.520   1.722
 2870SOL    HW1 8623   3.972   0.480   1.652
 2870SOL    HW2 8624   3.855   0.591   1.681
 2871SOL     OW 8625   4.539   0.572   0.325
 2871SOL    HW1 8626   4.546   0.483   0.279
 2871SOL    HW2 8627   4.445   0.606   0.317
 2872SOL     OW 8628   3.976   1.564   1.744
 2872SOL    HW1 8629   3.946   1.621   1.820
 2872SOL    HW2 8630   3.969   1.467   1.770
 2873SOL     OW 8631   4.395   0.464   1.269
 2873SOL    HW1 8632   4.361   0.375   1.239
 2873SOL    HW2 8633   4.421   0.518   1.189
 2874SOL     OW 8634   4.654   1.678   1.465
 2874SOL    HW1 8635   4.630   1.660   1.370
 2874SOL    HW2 8636   4.684   1.772   1.475
 2875SOL     OW 8637   4.197   0.500   0.191
 2875SOL    HW1 8638   4.258   0.580   0.195
 2875SOL    HW2 8639   4.102   0.531   0.198
 2876SOL     OW 8640   3.883   1.137   1.466
 2876SOL    HW1 8641   3.905   1.076   1.542
 2876SOL    HW2 8642   3.893   1.088   1.380
 2877SOL     OW 8643   3.807   1.258   1.022
 2877SOL    HW1 8644   3.802   1.257   1.122
 2877SOL    HW2 8645   3.724   1.217   0.984
 2878SOL     OW 8646   4.412   1.662   1.716
 2878SOL    HW1 8647   4.356   1.743   1.725
 2878SOL    HW2 8648   4.464   1.666   1.630
 2879SOL     OW 8649   4.627   0.086   0.133
 2879SOL    HW1 8650   4.678   0.087   0.047
 2879SOL    HW2 8651   4.683   0.044   0.204
 2880SOL     OW 8652   3.854   1.794   1.851
 2880SOL    HW1 8653   3.813   1.720   1.904
 2880SOL    HW2 8654   3.918   1.845   1.909
 2881SOL     OW 8655   5.004   0.927   0.672
 2881SOL    HW1 8656   5.064   0.846   0.674
 2881SOL    HW2 8657   5.044   0.996   0.612
 2882SOL     OW 8658   4.554   1.273   1.422
 2882SOL    HW1 8659   4.549   1.306   1.517
 2882SOL    HW2 8660   4.468   1.292   1.376
 2883SOL     OW 8661   4.396   1.616   0.154
 2883SOL    HW1 8662   4.405   1.626   0.055
 2883SOL    HW2 8663   4.356   1.527   0.175
 2884SOL     OW 8664   3.987   0.326   0.720
 2884SOL    HW1 8665   3.908   0.377   0.686
 2884SOL    HW2 8666   3.978   0.311   0.818
 2885SOL     OW 8667   4.546   1.002   1.372
 2885SOL    HW1 8668   4.586   1.001   1.280
 2885SOL    HW2 8669   4.556   1.094   1.412
 2886SOL     OW 8670   4.640   0.910   0.291
 2886SOL    HW1 8671   4.703   0.948   0.223
 2886SOL    HW2 8672   4.680   0.827   0.330
 2887SOL     OW 8673   4.096   1.288   1.490
 2887SOL    HW1 8674   4.083   1.381   1.456
 2887SOL    HW2 8675   4.012   1.236   1.477
 2888SOL     OW 8676   4.738   0.236   0.971
 2888SOL    HW1 8677   4.730   0.200   0.878
 2888SOL    HW2 8678   4.736   0.160   1.036
 2889SOL     OW 8679   4.314   1.487   0.491
 2889SOL    HW1 8680   4.356   1.429   0.421
 2889SOL    HW2 8681   4.270   1.566   0.447
 2890SOL     OW 8682   3.979   1.348   0.290
 2890SOL    HW1 8683   3.883   1.349   0.263
 2890SOL    HW2 8684   3.991   1.401   0.374
 2891SOL     OW 8685   3.829   1.013   1.726
 2891SOL    HW1 8686   3.752   0.980   1.780
 2891SOL    HW2 8687   3.914   0.983   1.768
 2892SOL     OW 8688   4.396   0.203   1.489
 2892SOL    HW1 8689   4.486   0.187   1.449
 2892SOL    HW2 8690   4.404   0.208   1.588
 2893SOL     OW 8691   3.799   0.345   0.033
 2893SOL    HW1 8692   3.707   0.317   0.004
 2893SOL    HW2 8693   3.830   0.422  -0.023
 2894SOL     OW 8694   4.337   0.842   1.431
 2894SOL    HW1 8695   4.393   0.923   1.414
 2894SOL    HW2 8696   4.396   0.762   1.434
 2895SOL     OW 8697   4.440   0.565   1.708
 2895SOL    HW1 8698   4.459   0.630   1.782
 2895SOL    HW2 8699   4.500   0.485   1.717
 2896SOL     OW 8700   4.114   1.741   1.560
 2896SOL    HW1 8701   4.023   1.782   1.558
 2896SOL    HW2 8702   4.107   1.647   1.592
 2897SOL     OW 8703   4.949   0.325   0.449
 2897SOL    HW1 8704   5.014   0.251   0.438
 2897SOL    HW2 8705   4.969   0.375   0.533
 2898SOL     OW 8706   4.318   0.745   0.652
 2898SOL    HW1 8707   4.368   0.830   0.633
 2898SOL    HW2 8708   4.230   0.747   0.604
 2899SOL     OW 8709   4.583   1.374   0.016
 2899SOL    HW1 8710   4.537   1.389   0.104
 2899SOL    HW2 8711   4.627   1.459  -0.014
 2900SOL     OW 8712   4.385   1.790   0.953
 2900SOL    HW1 8713   4.339   1.878   0.940
 2900SOL    HW2 8714   4.484   1.802   0.946
 2901SOL     OW 8715   4.583   0.956   0.861
 2901SOL    HW1 8716   4.637   0.887   0.909
 2901SOL    HW2 8717   4.551   1.025   0.927
 2902SOL     OW 8718   4.807   0.984   0.087
 2902SOL    HW1 8719   4.784   1.037   0.005
 2902SOL    HW2 8720   4.888   0.928   0.068
 2903SOL     OW 8721   3.945   1.314   1.844
 2903SOL    HW1 8722   3.880   1.241   1.823
 2903SOL    HW2 8723   3.949   1.328   1.942
 2904SOL     OW 8724   3.803   1.240   0.653
 2904SOL    HW1 8725   3.802   1.193   0.741
 2904SOL    HW2 8726   3.885   1.212   0.602
 2905SOL     OW 8727   4.396   1.391   1.624
 2905SOL    HW1 8728   4.318   1.341   1.662
 2905SOL    HW2 8729   4.393   1.486   1.655
 2906SOL     OW 8730   4.152   0.424   0.520
 2906SOL    HW1 8731   4.182   0.352   0.458
 2906SOL    HW2 8732   4.113   0.384   0.603
 2907SOL     OW 8733   4.041   0.547   1.280
 2907SOL    HW1 8734   4.079   0.488   1.352
 2907SOL    HW2 8735   4.081   0.521   1.192
 2908SOL     OW 8736   4.536   1.586   0.687
 2908SOL    HW1 8737   4.568   1.596   0.593
 2908SOL    HW2 8738   4.457   1.524   0.689
 2909SOL     OW 8739   4.725   0.034   1.154
 2909SOL    HW1 8740   4.662  -0.038   1.123
 2909SOL    HW2 8741   4.818  -0.002   1.154
 2910SOL     OW 8742   4.494   1.330   0.301
 2910SOL    HW1 8743   4.448   1.243   0.318
 2910SOL    HW2 8744   4.585   1.327   0.342
 2911SOL     OW 8745   4.342   1.567   1.284
 2911SOL    HW1 8746   4.337   1.649   1.341
 2911SOL    HW2 8747   4.431   1.564   1.239
 2912SOL     OW 8748   3.763   1.077   0.300
 2912SOL    HW1 8749   3.862   1.066   0.291
 2912SOL    HW2 8750   3.723   0.991   0.332
 2913SOL     OW 8751   4.599   1.646   0.337
 2913SOL    HW1 8752   4.522   1.611   0.283
 2913SOL    HW2 8753   4.567   1.717   0.399
 2914SOL     OW 8754   3.954   0.628   1.975
 2914SOL    HW1 8755   3.861   0.626   2.012
 2914SOL    HW2 8756   3.955   0.589   1.883
 2915SOL     OW 8757   3.949   0.275   2.858
 2915SOL    HW1 8758   3.984   0.258   2.950
 2915SOL    HW2 8759   3.861   0.230   2.846
 2916SOL     OW 8760   3.743   0.368   2.509
 2916SOL    HW1 8761   3.661   0.411   2.548
 2916SOL    HW2 8762   3.715   0.295   2.446
 2917SOL     OW 8763   4.293   1.275   3.027
 2917SOL    HW1 8764   4.200   1.268   2.990
 2917SOL    HW2 8765   4.304   1.364   3.071
 2918SOL     OW 8766   4.492   1.144   2.885
 2918SOL    HW1 8767   4.414   1.161   2.945
 2918SOL    HW2 8768   4.526   1.231   2.849
 2919SOL     OW 8769   4.574   0.798   3.685
 2919SOL    HW1 8770   4.570   0.874   3.750
 2919SOL    HW2 8771   4.596   0.834   3.594
 2920SOL     OW 8772   4.409   1.012   2.527
 2920SOL    HW1 8773   4.478   0.996   2.597
 2920SOL    HW2 8774   4.336   1.069   2.565
 2921SOL     OW 8775   4.410   1.161   3.665
 2921SOL    HW1 8776   4.470   1.240   3.679
 2921SOL    HW2 8777   4.324   1.192   3.624
 2922SOL     OW 8778   4.059   1.435   2.923
 2922SOL    HW1 8779   3.981   1.404   2.870
 2922SOL    HW2 8780   4.117   1.493   2.866
 2923SOL     OW 8781   4.162   0.392   3.361
 2923SOL    HW1 8782   4.244   0.336   3.370
 2923SOL    HW2 8783   4.081   0.334   3.365
 2924SOL     OW 8784   3.955   1.713   2.345
 2924SOL    HW1 8785   3.989   1.790   2.399
 2924SOL    HW2 8786   3.999   1.713   2.255
 2925SOL     OW 8787   3.954   1.434   2.400
 2925SOL    HW1 8788   3.928   1.530   2.400
 2925SOL    HW2 8789   3.883   1.380   2.445
 2926SOL     OW 8790   3.964   1.091   2.748
 2926SOL    HW1 8791   3.978   1.007   2.800
 2926SOL    HW2 8792   3.909   1.155   2.803
 2927SOL     OW 8793   4.344   1.786   3.301
 2927SOL    HW1 8794   4.252   1.769   3.336
 2927SOL    HW2 8795   4.372   1.878   3.327
 2928SOL     OW 8796   4.330   0.964   1.985
 2928SOL    HW1 8797   4.337   1.048   1.931
 2928SOL    HW2 8798   4.376   0.977   2.073
 2929SOL     OW 8799   3.846   0.643   2.425
 2929SOL    HW1 8800   3.801   0.555   2.442
 2929SOL    HW2 8801   3.845   0.697   2.509
 2930SOL     OW 8802   3.751   1.596   1.979
 2930SOL    HW1 8803   3.732   1.500   2.000
 2930SOL    HW2 8804   3.718   1.654   2.054
 2931SOL     OW 8805   3.837   0.737   3.459
 2931SOL    HW1 8806   3.925   0.724   3.504
 2931SOL    HW2 8807   3.824   0.834   3.437
 2932SOL     OW 8808   4.337   1.365   2.588
 2932SOL    HW1 8809   4.288   1.278   2.597
 2932SOL    HW2 8810   4.314   1.408   2.501
 2933SOL     OW 8811   4.533   0.004   2.364
 2933SOL    HW1 8812   4.573   0.095   2.355
 2933SOL    HW2 8813   4.433   0.012   2.370
 2934SOL     OW 8814   3.921   0.976   3.126
 2934SOL    HW1 8815   4.010   0.931   3.112
 2934SOL    HW2 8816   3.848   0.911   3.107
 2935SOL     OW 8817   4.041   0.251   3.663
 2935SOL    HW1 8818   4.112   0.322   3.669
 2935SOL    HW2 8819   3.953   0.290   3.691
 2936SOL     OW 8820   4.322   0.729   2.132
 2936SOL    HW1 8821   4.346   0.798   2.064
 2936SOL    HW2 8822   4.244   0.762   2.186
 2937SOL     OW 8823   4.531   0.605   3.327
 2937SOL    HW1 8824   4.484   0.602   3.416
 2937SOL    HW2 8825   4.480   0.550   3.261
 2938SOL     OW 8826   4.697   0.890   3.434
 2938SOL    HW1 8827   4.743   0.806   3.405
 2938SOL    HW2 8828   4.641   0.924   3.359
 2939SOL     OW 8829   4.715   0.410   3.104
 2939SOL    HW1 8830   4.638   0.444   3.158
 2939SOL    HW2 8831   4.681   0.359   3.025
 2940SOL     OW 8832   3.800   0.811   2.651
 2940SOL    HW1 8833   3.899   0.799   2.660
 2940SOL    HW2 8834   3.776   0.906   2.672
 2941SOL     OW 8835   3.854   1.821   3.433
 2941SOL    HW1 8836   3.844   1.806   3.532
 2941SOL    HW2 8837   3.768   1.857   3.397
 2942SOL     OW 8838   4.589   0.348   2.057
 2942SOL    HW1 8839   4.648   0.411   2.008
 2942SOL    HW2 8840   4.608   0.254   2.028
 2943SOL     OW 8841   4.274   0.196   2.747
 2943SOL    HW1 8842   4.269   0.191   2.847
 2943SOL    HW2 8843   4.276   0.292   2.718
 2944SOL     OW 8844   4.732   1.456   2.339
 2944SOL    HW1 8845   4.686   1.528   2.287
 2944SOL    HW2 8846   4.728   1.476   2.437
 2945SOL     OW 8847   4.075   1.801   2.715
 2945SOL    HW1 8848   4.125   1.715   2.721
 2945SOL    HW2 8849   4.140   1.878   2.712
 2946SOL     OW 8850   4.045   0.943   2.104
 2946SOL    HW1 8851   4.127   0.982   2.062
 2946SOL    HW2 8852   4.018   0.861   2.055
 2947SOL     OW 8853   4.185   1.266   3.589
 2947SOL    HW1 8854   4.135   1.267   3.503
 2947SOL    HW2 8855   4.122   1.248   3.665
 2948SOL     OW 8856   3.926   0.285   3.360
 2948SOL    HW1 8857   3.846   0.345   3.347
 2948SOL    HW2 8858   3.916   0.236   3.446
 2949SOL     OW 8859   4.188   1.743   2.185
 2949SOL    HW1 8860   4.221   1.782   2.271
 2949SOL    HW2 8861   4.264   1.736   2.120
 2950SOL     OW 8862   3.973   1.785   3.103
 2950SOL    HW1 8863   4.030   1.720   3.153
 2950SOL    HW2 8864   3.957   1.752   3.010
 2951SOL     OW 8865   4.106   0.700   2.342
 2951SOL    HW1 8866   4.151   0.610   2.339
 2951SOL    HW2 8867   4.012   0.689   2.375
 2952SOL     OW 8868   4.338   0.122   1.979
 2952SOL    HW1 8869   4.436   0.100   1.986
 2952SOL    HW2 8870   4.307   0.105   1.886
 2953SOL     OW 8871   4.505   0.264   3.611
 2953SOL    HW1 8872   4.572   0.203   3.654
 2953SOL    HW2 8873   4.432   0.283   3.676
 2954SOL     OW 8874   4.612   1.514   3.057
 2954SOL    HW1 8875   4.589   1.489   2.963
 2954SOL    HW2 8876   4.673   1.445   3.096
 2955SOL     OW 8877   4.527   1.402   2.786
 2955SOL    HW1 8878   4.617   1.416   2.744
 2955SOL    HW2 8879   4.456   1.404   2.715
 2956SOL     OW 8880   4.646   0.503   2.761
 2956SOL    HW1 8881   4.621   0.494   2.665
 2956SOL    HW2 8882   4.694   0.421   2.792
 2957SOL     OW 8883   4.263   0.064   2.374
 2957SOL    HW1 8884   4.182   0.065   2.432
 2957SOL    HW2 8885   4.266   0.147   2.319
 2958SOL     OW 8886   4.021   0.035   2.033
 2958SOL    HW1 8887   4.070   0.119   2.012
 2958SOL    HW2 8888   4.083  -0.030   2.078
 2959SOL     OW 8889   4.659   0.236   2.342
 2959SOL    HW1 8890   4.611   0.277   2.264
 2959SOL    HW2 8891   4.758   0.234   2.323
 2960SOL     OW 8892   4.951   1.570   2.655
 2960SOL    HW1 8893   4.972   1.644   2.590
 2960SOL    HW2 8894   5.019   1.570   2.728
 2961SOL     OW 8895   4.183   1.152   2.603
 2961SOL    HW1 8896   4.112   1.125   2.668
 2961SOL    HW2 8897   4.157   1.124   2.510
 2962SOL     OW 8898   3.802   0.556   3.248
 2962SOL    HW1 8899   3.894   0.555   3.207
 2962SOL    HW2 8900   3.796   0.630   3.315
 2963SOL     OW 8901   4.285   0.222   3.009
 2963SOL    HW1 8902   4.323   0.138   3.046
 2963SOL    HW2 8903   4.197   0.241   3.053
 2964SOL     OW 8904   4.741   0.039   2.615
 2964SOL    HW1 8905   4.669   0.044   2.546
 2964SOL    HW2 8906   4.717  -0.030   2.684
 2965SOL     OW 8907   4.212   1.385   2.036
 2965SOL    HW1 8908   4.125   1.370   2.083
 2965SOL    HW2 8909   4.195   1.411   1.941
 2966SOL     OW 8910   4.251   0.256   2.190
 2966SOL    HW1 8911   4.278   0.197   2.115
 2966SOL    HW2 8912   4.251   0.351   2.159
 2967SOL     OW 8913   4.639   0.089   3.264
 2967SOL    HW1 8914   4.664   0.069   3.169
 2967SOL    HW2 8915   4.711   0.145   3.306
 2968SOL     OW 8916   4.704   1.116   3.581
 2968SOL    HW1 8917   4.605   1.122   3.591
 2968SOL    HW2 8918   4.727   1.036   3.525
 2969SOL     OW 8919   4.429   1.050   2.230
 2969SOL    HW1 8920   4.415   1.057   2.329
 2969SOL    HW2 8921   4.513   0.999   2.212
 2970SOL     OW 8922   4.134   0.813   3.113
 2970SOL    HW1 8923   4.220   0.825   3.163
 2970SOL    HW2 8924   4.092   0.726   3.140
 2971SOL     OW 8925   3.788   1.564   3.193
 2971SOL    HW1 8926   3.742   1.646   3.159
 2971SOL    HW2 8927   3.886   1.583   3.202
 2972SOL     OW 8928   4.091   1.100   2.363
 2972SOL    HW1 8929   4.084   1.183   2.307
 2972SOL    HW2 8930   4.095   1.020   2.303
 2973SOL     OW 8931   4.290   0.537   2.727
 2973SOL    HW1 8932   4.302   0.603   2.653
 2973SOL    HW2 8933   4.336   0.571   2.810
 2974SOL     OW 8934   4.078   1.510   3.191
 2974SOL    HW1 8935   4.057   1.466   3.104
 2974SOL    HW2 8936   4.175   1.536   3.194
 2975SOL     OW 8937   4.126   0.751   3.460
 2975SOL    HW1 8938   4.194   0.806   3.413
 2975SOL    HW2 8939   4.166   0.663   3.487
 2976SOL     OW 8940   4.228   0.050   3.602
 2976SOL    HW1 8941   4.186  -0.007   3.532
 2976SOL    HW2 8942   4.162   0.119   3.634
 2977SOL     OW 8943   4.297   0.870   2.891
 2977SOL    HW1 8944   4.341   0.959   2.882
 2977SOL    HW2 8945   4.234   0.870   2.968
 2978SOL     OW 8946   4.933   0.525   2.137
 2978SOL    HW1 8947   4.946   0.441   2.191
 2978SOL    HW2 8948   4.904   0.599   2.197
 2979SOL     OW 8949   4.031   0.213   3.093
 2979SOL    HW1 8950   4.008   0.250   3.183
 2979SOL    HW2 8951   4.001   0.118   3.087
 2980SOL     OW 8952   3.761   1.310   3.144
 2980SOL    HW1 8953   3.814   1.261   3.212
 2980SOL    HW2 8954   3.783   1.408   3.149
 2981SOL     OW 8955   4.456   0.634   2.926
 2981SOL    HW1 8956   4.515   0.608   2.850
 2981SOL    HW2 8957   4.428   0.730   2.915
 2982SOL     OW 8958   4.031   0.063   2.480
 2982SOL    HW1 8959   4.020   0.157   2.513
 2982SOL    HW2 8960   4.026   0.000   2.557
 2983SOL     OW 8961   4.747   0.766   2.828
 2983SOL    HW1 8962   4.762   0.787   2.924
 2983SOL    HW2 8963   4.717   0.671   2.819
 2984SOL     OW 8964   4.704   1.573   3.562
 2984SOL    HW1 8965   4.684   1.617   3.474
 2984SOL    HW2 8966   4.743   1.482   3.546
 2985SOL     OW 8967   4.074   0.898   3.666
 2985SOL    HW1 8968   4.150   0.942   3.714
 2985SOL    HW2 8969   4.109   0.851   3.584
 2986SOL     OW 8970   4.043   0.810   2.811
 2986SOL    HW1 8971   4.136   0.846   2.816
 2986SOL    HW2 8972   4.037   0.725   2.863
 2987SOL     OW 8973   4.063   0.509   2.868
 2987SOL    HW1 8974   4.011   0.426   2.851
 2987SOL    HW2 8975   4.140   0.514   2.804
 2988SOL     OW 8976   3.732   1.326   2.062
 2988SOL    HW1 8977   3.639   1.347   2.031
 2988SOL    HW2 8978   3.742   1.227   2.075
 2989SOL     OW 8979   3.812   1.801   2.789
 2989SOL    HW1 8980   3.770   1.715   2.762
 2989SOL    HW2 8981   3.906   1.804   2.755
 2990SOL     OW 8982   4.228   1.568   2.772
 2990SOL    HW1 8983   4.294   1.642   2.781
 2990SOL    HW2 8984   4.272   1.489   2.730
 2991SOL     OW 8985   4.726   0.796   3.100
 2991SOL    HW1 8986   4.767   0.764   3.186
 2991SOL    HW2 8987   4.630   0.769   3.097
 2992SOL     OW 8988   3.764   0.544   2.976
 2992SOL    HW1 8989   3.849   0.511   2.935
 2992SOL    HW2 8990   3.777   0.559   3.074
 2993SOL     OW 8991   3.913   0.520   3.584
 2993SOL    HW1 8992   3.972   0.480   3.514
 2993SOL    HW2 8993   3.855   0.591   3.543
 2994SOL     OW 8994   4.539   0.572   2.187
 2994SOL    HW1 8995   4.546   0.483   2.141
 2994SOL    HW2 8996   4.445   0.606   2.179
 2995SOL     OW 8997   3.976   1.564   3.606
 2995SOL    HW1 8998   3.946   1.621   3.682
 2995SOL    HW2 8999   3.969   1.467   3.632
 2996SOL     OW 9000   4.395   0.464   3.131
 2996SOL    HW1 9001   4.361   0.375   3.101
 2996SOL    HW2 9002   4.421   0.518   3.051
 2997SOL     OW 9003   4.654   1.678   3.327
 2997SOL    HW1 9004   4.630   1.660   3.232
 2997SOL    HW2 9005   4.684   1.772   3.337
 2998SOL     OW 9006   4.197   0.500   2.053
 2998SOL    HW1 9007   4.258   0.580   2.057
 2998SOL    HW2 9008   4.102   0.531   2.060
 2999SOL     OW 9009   3.883   1.137   3.328
 2999SOL    HW1 9010   3.905   1.076   3.404
 2999SOL    HW2 9011   3.893   1.088   3.242
 3000SOL     OW 9012   3.807   1.258   2.884
 3000SOL    HW1 9013   3.802   1.257   2.984
 3000SOL    HW2 9014   3.724   1.217   2.846
 3001SOL     OW 9015   4.412   1.662   3.578
 3001SOL    HW1 9016   4.356   1.743   3.587
 3001SOL    HW2 9017   4.464   1.666   3.492
 3002SOL     OW 9018   4.627   0.086   1.995
 3002SOL    HW1 9019   4.678   0.087   1.909
 3002SOL    HW2 9020   4.683   0.044   2.066
 3003SOL     OW 9021   3.854   1.794   3.713
 3003SOL    HW1 9022   3.813   1.720   3.766
 3003SOL    HW2 9023   3.918   1.845   3.771
 3004SOL     OW 9024   5.004   0.927   2.534
 3004SOL    HW1 9025   5.064   0.846   2.536
 3004SOL    HW2 9026   5.044   0.996   2.474
 3005SOL     OW 9027   4.554   1.273   3.284
 3005SOL    HW1 9028   4.549   1.306   3.379
 3005SOL    HW2 9029   4.468   1.292   3.238
 3006SOL     OW 9030   4.396   1.616   2.016
 3006SOL    HW1 9031   4.405   1.626   1.917
 3006SOL    HW2 9032   4.356   1.527   2.037
 3007SOL     OW 9033   3.987   0.326   2.582
 3007SOL    HW1 9034   3.908   0.377   2.548
 3007SOL    HW2 9035   3.978   0.311   2.680
 3008SOL     OW 9036   4.546   1.002   3.234
 3008SOL    HW1 9037   4.586   1.001   3.142
 3008SOL    HW2 9038   4.556   1.094   3.274
 3009SOL     OW 9039   4.640   0.910   2.153
 3009SOL    HW1 9040   4.703   0.948   2.085
 3009SOL    HW2 9041   4.680   0.827   2.192
 3010SOL     OW 9042   4.096   1.288   3.352
 3010SOL    HW1 9043   4.083   1.381   3.318
 3010SOL    HW2 9044   4.012   1.236   3.339
 3011SOL     OW 9045   4.738   0.236   2.833
 3011SOL    HW1 9046   4.730   0.200   2.740
 3011SOL    HW2 9047   4.736   0.160   2.898
 3012SOL     OW 9048   4.314   1.487   2.353
 3012SOL    HW1 9049   4.356   1.429   2.283
 3012SOL    HW2 9050   4.270   1.566   2.309
 3013SOL     OW 9051   3.979   1.348   2.152
 3013SOL    HW1 9052   3.883   1.349   2.125
 3013SOL    HW2 9053   3.991   1.401   2.236
 3014SOL     OW 9054   3.829   1.013   3.588
 3014SOL    HW1 9055   3.752   0.980   3.642
 3014SOL    HW2 9056   3.914   0.983   3.630
 3015SOL     OW 9057   4.396   0.203   3.351
 3015SOL    HW1 9058   4.486   0.187   3.311
 3015SOL    HW2 9059   4.404   0.208   3.450
 3016SOL     OW 9060   3.799   0.345   1.895
 3016SOL    HW1 9061   3.707   0.317   1.866
 3016SOL    HW2 9062   3.830   0.422   1.839
 3017SOL     OW 9063   3.796   0.166   2.180
 3017SOL    HW1 9064   3.779   0.249   2.126
 3017SOL    HW2 9065   3.886   0.129   2.158
 3018SOL     OW 9066   4.337   0.842   3.293
 3018SOL    HW1 9067   4.393   0.923   3.276
 3018SOL    HW2 9068   4.396   0.762   3.296
 3019SOL     OW 9069   4.440   0.565   3.570
 3019SOL    HW1 9070   4.459   0.630   3.644
 3019SOL    HW2 9071   4.500   0.485   3.579
 3020SOL     OW 9072   4.114   1.741   3.422
 3020SOL    HW1 9073   4.023   1.782   3.420
 3020SOL    HW2 9074   4.107   1.647   3.454
 3021SOL     OW 9075   4.949   0.325   2.311
 3021SOL    HW1 9076   5.014   0.251   2.300
 3021SOL    HW2 9077   4.969   0.375   2.395
 3022SOL     OW 9078   4.318   0.745   2.514
 3022SOL    HW1 9079   4.368   0.830   2.495
 3022SOL    HW2 9080   4.230   0.747   2.466
 3023SOL     OW 9081   4.583   1.374   1.878
 3023SOL    HW1 9082   4.537   1.389   1.966
 3023SOL    HW2 9083   4.627   1.459   1.848
 3024SOL     OW 9084   4.385   1.790   2.815
 3024SOL    HW1 9085   4.339   1.878   2.802
 3024SOL    HW2 9086   4.484   1.802   2.808
 3025SOL     OW 9087   4.583   0.956   2.723
 3025SOL    HW1 9088   4.637   0.887   2.771
 3025SOL    HW2 9089   4.551   1.025   2.789
 3026SOL     OW 9090   3.945   1.314   3.706
 3026SOL    HW1 9091   3.880   1.241   3.685
 3026SOL    HW2 9092   3.949   1.328   3.804
 3027SOL     OW 9093   3.803   1.240   2.515
 3027SOL    HW1 9094   3.802   1.193   2.603
 3027SOL    HW2 9095   3.885   1.212   2.464
 3028SOL     OW 9096   4.396   1.391   3.486
 3028SOL    HW1 9097   4.318   1.341   3.524
 3028SOL    HW2 9098   4.393   1.486   3.517
 3029SOL     OW 9099   4.152   0.424   2.382
 3029SOL    HW1 9100   4.182   0.352   2.320
 3029SOL    HW2 9101   4.113   0.384   2.465
 3030SOL     OW 9102   4.041   0.547   3.142
 3030SOL    HW1 9103   4.079   0.488   3.214
 3030SOL    HW2 9104   4.081   0.521   3.054
 3031SOL     OW 9105   4.536   1.586   2.549
 3031SOL    HW1 9106   4.568   1.596   2.455
 3031SOL    HW2 9107   4.457   1.524   2.551
 3032SOL     OW 9108   4.725   0.034   3.016
 3032SOL    HW1 9109   4.662  -0.038   2.985
 3032SOL    HW2 9110   4.818  -0.002   3.016
 3033SOL     OW 9111   4.494   1.330   2.163
 3033SOL    HW1 9112   4.448   1.243   2.180
 3033SOL    HW2 9113   4.585   1.327   2.204
 3034SOL     OW 9114   4.342   1.567   3.146
 3034SOL    HW1 9115   4.337   1.649   3.203
 3034SOL    HW2 9116   4.431   1.564   3.101
 3035SOL     OW 9117   3.763   1.077   2.162
 3035SOL    HW1 9118   3.862   1.066   2.153
 3035SOL    HW2 9119   3.723   0.991   2.194
 3036SOL     OW 9120   4.599   1.646   2.199
 3036SOL    HW1 9121   4.522   1.611   2.145
 3036SOL    HW2 9122   4.567   1.717   2.261
 3037SOL     OW 9123   3.954   0.628   3.837
 3037SOL    HW1 9124   3.861   0.626   3.874
 3037SOL    HW2 9125   3.955   0.589   3.745
 3038SOL     OW 9126   3.949   0.275   4.720
 3038SOL    HW1 9127   3.984   0.258   4.812
 3038SOL    HW2 9128   3.861   0.230   4.708
 3039SOL     OW 9129   3.743   0.368   4.371
 3039SOL    HW1 9130   3.661   0.411   4.410
 3039SOL    HW2 9131   3.715   0.295   4.308
 3040SOL     OW 9132   4.492   1.144   4.747
 3040SOL    HW1 9133   4.414   1.161   4.807
 3040SOL    HW2 9134   4.526   1.231   4.711
 3041SOL     OW 9135   4.409   1.012   4.389
 3041SOL    HW1 9136   4.478   0.996   4.459
 3041SOL    HW2 9137   4.336   1.069   4.427
 3042SOL     OW 9138   4.059   1.435   4.785
 3042SOL    HW1 9139   3.981   1.404   4.732
 3042SOL    HW2 9140   4.117   1.493   4.728
 3043SOL     OW 9141   3.955   1.713   4.207
 3043SOL    HW1 9142   3.989   1.790   4.261
 3043SOL    HW2 9143   3.999   1.713   4.117
 3044SOL     OW 9144   3.954   1.434   4.262
 3044SOL    HW1 9145   3.928   1.530   4.262
 3044SOL    HW2 9146   3.883   1.380   4.307
 3045SOL     OW 9147   3.964   1.091   4.610
 3045SOL    HW1 9148   3.978   1.007   4.662
 3045SOL    HW2 9149   3.909   1.155   4.665
 3046SOL     OW 9150   4.330   0.964   3.847
 3046SOL    HW1 9151   4.337   1.048   3.793
 3046SOL    HW2 9152   4.376   0.977   3.935
 3047SOL     OW 9153   3.846   0.643   4.287
 3047SOL    HW1 9154   3.801   0.555   4.304
 3047SOL    HW2 9155   3.845   0.697   4.371
 3048SOL     OW 9156   3.751   1.596   3.841
 3048SOL    HW1 9157   3.732   1.500   3.862
 3048SOL    HW2 9158   3.718   1.654   3.916
 3049SOL     OW 9159   4.337   1.365   4.450
 3049SOL    HW1 9160   4.288   1.278   4.459
 3049SOL    HW2 9161   4.314   1.408   4.363
 3050SOL     OW 9162   4.533   0.004   4.226
 3050SOL    HW1 9163   4.573   0.095   4.217
 3050SOL    HW2 9164   4.433   0.012   4.232
 3051SOL     OW 9165   4.322   0.729   3.994
 3051SOL    HW1 9166   4.346   0.798   3.926
 3051SOL    HW2 9167   4.244   0.762   4.048
 3052SOL     OW 9168   3.800   0.811   4.513
 3052SOL    HW1 9169   3.899   0.799   4.522
 3052SOL    HW2 9170   3.776   0.906   4.534
 3053SOL     OW 9171   4.589   0.348   3.919
 3053SOL    HW1 9172   4.648   0.411   3.870
 3053SOL    HW2 9173   4.608   0.254   3.890
 3054SOL     OW 9174   4.274   0.196   4.609
 3054SOL    HW1 9175   4.269   0.191   4.709
 3054SOL    HW2 9176   4.276   0.292   4.580
 3055SOL     OW 9177   4.732   1.456   4.201
 3055SOL    HW1 9178   4.686   1.528   4.149
 3055SOL    HW2 9179   4.728   1.476   4.299
 3056SOL     OW 9180   4.075   1.801   4.577
 3056SOL    HW1 9181   4.125   1.715   4.583
 3056SOL    HW2 9182   4.140   1.878   4.574
 3057SOL     OW 9183   4.045   0.943   3.966
 3057SOL    HW1 9184   4.127   0.982   3.924
 3057SOL    HW2 9185   4.018   0.861   3.917
 3058SOL     OW 9186   4.188   1.743   4.047
 3058SOL    HW1 9187   4.221   1.782   4.133
 3058SOL    HW2 9188   4.264   1.736   3.982
 3059SOL     OW 9189   3.973   1.785   4.965
 3059SOL    HW1 9190   4.030   1.720   5.015
 3059SOL    HW2 9191   3.957   1.752   4.872
 3060SOL     OW 9192   4.106   0.700   4.204
 3060SOL    HW1 9193   4.151   0.610   4.201
 3060SOL    HW2 9194   4.012   0.689   4.237
 3061SOL     OW 9195   4.338   0.122   3.841
 3061SOL    HW1 9196   4.436   0.100   3.848
 3061SOL    HW2 9197   4.307   0.105   3.748
 3062SOL     OW 9198   4.646   0.503   4.623
 3062SOL    HW1 9199   4.621   0.494   4.527
 3062SOL    HW2 9200   4.694   0.421   4.654
 3063SOL     OW 9201   4.263   0.064   4.236
 3063SOL    HW1 9202   4.182   0.065   4.294
 3063SOL    HW2 9203   4.266   0.147   4.181
 3064SOL     OW 9204   4.021   0.035   3.895
 3064SOL    HW1 9205   4.070   0.119   3.874
 3064SOL    HW2 9206   4.083  -0.030   3.940
 3065SOL     OW 9207   4.659   0.236   4.204
 3065SOL    HW1 9208   4.611   0.277   4.126
 3065SOL    HW2 9209   4.758   0.234   4.185
 3066SOL     OW 9210   4.951   1.570   4.517
 3066SOL    HW1 9211   4.972   1.644   4.452
 3066SOL    HW2 9212   5.019   1.570   4.590
 3067SOL     OW 9213   4.183   1.152   4.465
 3067SOL    HW1 9214   4.112   1.125   4.530
 3067SOL    HW2 9215   4.157   1.124   4.372
 3068SOL     OW 9216   4.741   0.039   4.477
 3068SOL    HW1 9217   4.669   0.044   4.408
 3068SOL    HW2 9218   4.717  -0.030   4.546
 3069SOL     OW 9219   4.212   1.385   3.898
 3069SOL    HW1 9220   4.125   1.370   3.945
 3069SOL    HW2 9221   4.195   1.411   3.803
 3070SOL     OW 9222   4.251   0.256   4.052
 3070SOL    HW1 9223   4.278   0.197   3.977
 3070SOL    HW2 9224   4.251   0.351   4.021
 3071SOL     OW 9225   4.429   1.050   4.092
 3071SOL    HW1 9226   4.415   1.057   4.191
 3071SOL    HW2 9227   4.513   0.999   4.074
 3072SOL     OW 9228   4.091   1.100   4.225
 3072SOL    HW1 9229   4.084   1.183   4.169
 3072SOL    HW2 9230   4.095   1.020   4.165
 3073SOL     OW 9231   4.290   0.537   4.589
 3073SOL    HW1 9232   4.302   0.603   4.515
 3073SOL    HW2 9233   4.336   0.571   4.672
 3074SOL     OW 9234   4.297   0.870   4.753
 3074SOL    HW1 9235   4.341   0.959   4.744
 3074SOL    HW2 9236   4.234   0.870   4.830
 3075SOL     OW 9237   4.933   0.525   3.999
 3075SOL    HW1 9238   4.946   0.441   4.053
 3075SOL    HW2 9239   4.904   0.599   4.059
 3076SOL     OW 9240   4.456   0.634   4.788
 3076SOL    HW1 9241   4.515   0.608   4.712
 3076SOL    HW2 9242   4.428   0.730   4.777
 3077SOL     OW 9243   4.031   0.063   4.342
 3077SOL    HW1 9244   4.020   0.157   4.375
 3077SOL    HW2 9245   4.026   0.000   4.419
 3078SOL     OW 9246   4.747   0.766   4.690
 3078SOL    HW1 9247   4.762   0.787   4.786
 3078SOL    HW2 9248   4.717   0.671   4.681
 3079SOL     OW 9249   4.043   0.810   4.673
 3079SOL    HW1 9250   4.136   0.846   4.678
 3079SOL    HW2 9251   4.037   0.725   4.725
 3080SOL     OW 9252   4.063   0.509   4.730
 3080SOL    HW1 9253   4.011   0.426   4.713
 3080SOL    HW2 9254   4.140   0.514   4.666
 3081SOL     OW 9255   3.732   1.326   3.924
 3081SOL    HW1 9256   3.639   1.347   3.893
 3081SOL    HW2 9257   3.742   1.227   3.937
 3082SOL     OW 9258   3.812   1.801   4.651
 3082SOL    HW1 9259   3.770   1.715   4.624
 3082SOL    HW2 9260   3.906   1.804   4.617
 3083SOL     OW 9261   4.228   1.568   4.634
 3083SOL    HW1 9262   4.294   1.642   4.643
 3083SOL    HW2 9263   4.272   1.489   4.592
 3084SOL     OW 9264   4.539   0.572   4.049
 3084SOL    HW1 9265   4.546   0.483   4.003
 3084SOL    HW2 9266   4.445   0.606   4.041
 3085SOL     OW 9267   4.395   0.464   4.993
 3085SOL    HW1 9268   4.361   0.375   4.963
 3085SOL    HW2 9269   4.421   0.518   4.913
 3086SOL     OW 9270   4.197   0.500   3.915
 3086SOL    HW1 9271   4.258   0.580   3.919
 3086SOL    HW2 9272   4.102   0.531   3.922
 3087SOL     OW 9273   3.807   1.258   4.746
 3087SOL    HW1 9274   3.802   1.257   4.846
 3087SOL    HW2 9275   3.724   1.217   4.708
 3088SOL     OW 9276   4.627   0.086   3.857
 3088SOL    HW1 9277   4.678   0.087   3.771
 3088SOL    HW2 9278   4.683   0.044   3.928
 3089SOL     OW 9279   5.004   0.927   4.396
 3089SOL    HW1 9280   5.064   0.846   4.398
 3089SOL    HW2 9281   5.044   0.996   4.336
 3090SOL     OW 9282   4.396   1.616   3.878
 3090SOL    HW1 9283   4.405   1.626   3.779
 3090SOL    HW2 9284   4.356   1.527   3.899
 3091SOL     OW 9285   3.987   0.326   4.444
 3091SOL    HW1 9286   3.908   0.377   4.410
 3091SOL    HW2 9287   3.978   0.311   4.542
 3092SOL     OW 9288   4.640   0.910   4.015
 3092SOL    HW1 9289   4.703   0.948   3.947
 3092SOL    HW2 9290   4.680   0.827   4.054
 3093SOL     OW 9291   4.314   1.487   4.215
 3093SOL    HW1 9292   4.356   1.429   4.145
 3093SOL    HW2 9293   4.270   1.566   4.171
 3094SOL     OW 9294   3.979   1.348   4.014
 3094SOL    HW1 9295   3.883   1.349   3.987
 3094SOL    HW2 9296   3.991   1.401   4.098
 3095SOL     OW 9297   3.799   0.345   3.757
 3095SOL    HW1 9298   3.707   0.317   3.728
 3095SOL    HW2 9299   3.830   0.422   3.701
 3096SOL     OW 9300   3.796   0.166   4.042
 3096SOL    HW1 9301   3.779   0.249   3.988
 3096SOL    HW2 9302   3.886   0.129   4.020
 3097SOL     OW 9303   4.949   0.325   4.173
 3097SOL    HW1 9304   5.014   0.251   4.162
 3097SOL    HW2 9305   4.969   0.375   4.257
 3098SOL     OW 9306   4.318   0.745   4.376
 3098SOL    HW1 9307   4.368   0.830   4.357
 3098SOL    HW2 9308   4.230   0.747   4.328
 3099SOL     OW 9309   4.583   1.374   3.740
 3099SOL    HW1 9310   4.537   1.389   3.828
 3099SOL    HW2 9311   4.627   1.459   3.710
 3100SOL     OW 9312   4.385   1.790   4.677
 3100SOL    HW1 9313   4.339   1.878   4.664
 3100SOL    HW2 9314   4.484   1.802   4.670
 3101SOL     OW 9315   4.583   0.956   4.585
 3101SOL    HW1 9316   4.637   0.887   4.633
 3101SOL    HW2 9317   4.551   1.025   4.651
 3102SOL     OW 9318   3.803   1.240   4.377
 3102SOL    HW1 9319   3.802   1.193   4.465
 3102SOL    HW2 9320   3.885   1.212   4.326
 3103SOL     OW 9321   4.152   0.424   4.244
 3103SOL    HW1 9322   4.182   0.352   4.182
 3103SOL    HW2 9323   4.113   0.384   4.327
 3104SOL     OW 9324   4.536   1.586   4.411
 3104SOL    HW1 9325   4.568   1.596   4.317
 3104SOL    HW2 9326   4.457   1.524   4.413
 3105SOL     OW 9327   4.494   1.330   4.025
 3105SOL    HW1 9328   4.448   1.243   4.042
 3105SOL    HW2 9329   4.585   1.327   4.066
 3106SOL     OW 9330   3.763   1.077   4.024
 3106SOL    HW1 9331   3.862   1.066   4.015
 3106SOL    HW2 9332   3.723   0.991   4.056
 3107SOL     OW 9333   4.599   1.646   4.061
 3107SOL    HW1 9334   4.522   1.611   4.007
 3107SOL    HW2 9335   4.567   1.717   4.123
 3108SOL     OW 9336   3.954   2.490   0.113
 3108SOL    HW1 9337   3.861   2.488   0.150
 3108SOL    HW2 9338   3.955   2.451   0.021
 3109SOL     OW 9339   3.949   2.137   0.996
 3109SOL    HW1 9340   3.984   2.120   1.088
 3109SOL    HW2 9341   3.861   2.092   0.984
 3110SOL     OW 9342   3.743   2.230   0.647
 3110SOL    HW1 9343   3.661   2.273   0.686
 3110SOL    HW2 9344   3.715   2.157   0.584
 3111SOL     OW 9345   4.293   3.137   1.165
 3111SOL    HW1 9346   4.200   3.130   1.128
 3111SOL    HW2 9347   4.304   3.226   1.209
 3112SOL     OW 9348   4.492   3.006   1.023
 3112SOL    HW1 9349   4.414   3.023   1.083
 3112SOL    HW2 9350   4.526   3.093   0.987
 3113SOL     OW 9351   4.574   2.660   1.823
 3113SOL    HW1 9352   4.570   2.736   1.888
 3113SOL    HW2 9353   4.596   2.696   1.732
 3114SOL     OW 9354   4.409   2.874   0.665
 3114SOL    HW1 9355   4.478   2.858   0.735
 3114SOL    HW2 9356   4.336   2.931   0.703
 3115SOL     OW 9357   4.410   3.023   1.803
 3115SOL    HW1 9358   4.470   3.102   1.817
 3115SOL    HW2 9359   4.324   3.054   1.762
 3116SOL     OW 9360   4.059   3.297   1.061
 3116SOL    HW1 9361   3.981   3.266   1.008
 3116SOL    HW2 9362   4.117   3.355   1.004
 3117SOL     OW 9363   4.162   2.254   1.499
 3117SOL    HW1 9364   4.244   2.198   1.508
 3117SOL    HW2 9365   4.081   2.196   1.503
 3118SOL     OW 9366   3.955   3.575   0.483
 3118SOL    HW1 9367   3.989   3.652   0.537
 3118SOL    HW2 9368   3.999   3.575   0.393
 3119SOL     OW 9369   3.954   3.296   0.538
 3119SOL    HW1 9370   3.928   3.392   0.538
 3119SOL    HW2 9371   3.883   3.242   0.583
 3120SOL     OW 9372   3.964   2.953   0.886
 3120SOL    HW1 9373   3.978   2.869   0.938
 3120SOL    HW2 9374   3.909   3.017   0.941
 3121SOL     OW 9375   4.344   3.648   1.439
 3121SOL    HW1 9376   4.252   3.631   1.474
 3121SOL    HW2 9377   4.372   3.740   1.465
 3122SOL     OW 9378   4.330   2.826   0.123
 3122SOL    HW1 9379   4.337   2.910   0.069
 3122SOL    HW2 9380   4.376   2.839   0.211
 3123SOL     OW 9381   3.846   2.505   0.563
 3123SOL    HW1 9382   3.801   2.417   0.580
 3123SOL    HW2 9383   3.845   2.559   0.647
 3124SOL     OW 9384   3.751   3.458   0.117
 3124SOL    HW1 9385   3.732   3.362   0.138
 3124SOL    HW2 9386   3.718   3.516   0.192
 3125SOL     OW 9387   3.837   2.599   1.597
 3125SOL    HW1 9388   3.925   2.586   1.642
 3125SOL    HW2 9389   3.824   2.696   1.575
 3126SOL     OW 9390   4.337   3.227   0.726
 3126SOL    HW1 9391   4.288   3.140   0.735
 3126SOL    HW2 9392   4.314   3.270   0.639
 3127SOL     OW 9393   4.533   1.866   0.502
 3127SOL    HW1 9394   4.573   1.957   0.493
 3127SOL    HW2 9395   4.433   1.874   0.508
 3128SOL     OW 9396   3.921   2.838   1.264
 3128SOL    HW1 9397   4.010   2.793   1.250
 3128SOL    HW2 9398   3.848   2.773   1.245
 3129SOL     OW 9399   4.041   2.113   1.801
 3129SOL    HW1 9400   4.112   2.184   1.807
 3129SOL    HW2 9401   3.953   2.152   1.829
 3130SOL     OW 9402   4.322   2.591   0.270
 3130SOL    HW1 9403   4.346   2.660   0.202
 3130SOL    HW2 9404   4.244   2.624   0.324
 3131SOL     OW 9405   4.531   2.467   1.465
 3131SOL    HW1 9406   4.484   2.464   1.554
 3131SOL    HW2 9407   4.480   2.412   1.399
 3132SOL     OW 9408   4.697   2.752   1.572
 3132SOL    HW1 9409   4.743   2.668   1.543
 3132SOL    HW2 9410   4.641   2.786   1.497
 3133SOL     OW 9411   4.715   2.272   1.242
 3133SOL    HW1 9412   4.638   2.306   1.296
 3133SOL    HW2 9413   4.681   2.221   1.163
 3134SOL     OW 9414   3.800   2.673   0.789
 3134SOL    HW1 9415   3.899   2.661   0.798
 3134SOL    HW2 9416   3.776   2.768   0.810
 3135SOL     OW 9417   3.854   3.683   1.571
 3135SOL    HW1 9418   3.844   3.668   1.670
 3135SOL    HW2 9419   3.768   3.719   1.535
 3136SOL     OW 9420   4.589   2.210   0.195
 3136SOL    HW1 9421   4.648   2.273   0.146
 3136SOL    HW2 9422   4.608   2.116   0.166
 3137SOL     OW 9423   4.274   2.058   0.885
 3137SOL    HW1 9424   4.269   2.053   0.985
 3137SOL    HW2 9425   4.276   2.154   0.856
 3138SOL     OW 9426   4.732   3.318   0.477
 3138SOL    HW1 9427   4.686   3.390   0.425
 3138SOL    HW2 9428   4.728   3.338   0.575
 3139SOL     OW 9429   4.075   3.663   0.853
 3139SOL    HW1 9430   4.125   3.577   0.859
 3139SOL    HW2 9431   4.140   3.740   0.850
 3140SOL     OW 9432   4.045   2.805   0.242
 3140SOL    HW1 9433   4.127   2.844   0.200
 3140SOL    HW2 9434   4.018   2.723   0.193
 3141SOL     OW 9435   4.185   3.128   1.727
 3141SOL    HW1 9436   4.135   3.129   1.641
 3141SOL    HW2 9437   4.122   3.110   1.803
 3142SOL     OW 9438   3.926   2.147   1.498
 3142SOL    HW1 9439   3.846   2.207   1.485
 3142SOL    HW2 9440   3.916   2.098   1.584
 3143SOL     OW 9441   4.188   3.605   0.323
 3143SOL    HW1 9442   4.221   3.644   0.409
 3143SOL    HW2 9443   4.264   3.598   0.258
 3144SOL     OW 9444   3.973   3.647   1.241
 3144SOL    HW1 9445   4.030   3.582   1.291
 3144SOL    HW2 9446   3.957   3.614   1.148
 3145SOL     OW 9447   4.106   2.562   0.480
 3145SOL    HW1 9448   4.151   2.472   0.477
 3145SOL    HW2 9449   4.012   2.551   0.513
 3146SOL     OW 9450   4.338   1.984   0.117
 3146SOL    HW1 9451   4.436   1.962   0.124
 3146SOL    HW2 9452   4.307   1.967   0.024
 3147SOL     OW 9453   4.505   2.126   1.749
 3147SOL    HW1 9454   4.572   2.065   1.792
 3147SOL    HW2 9455   4.432   2.145   1.814
 3148SOL     OW 9456   4.612   3.376   1.195
 3148SOL    HW1 9457   4.589   3.351   1.101
 3148SOL    HW2 9458   4.673   3.307   1.234
 3149SOL     OW 9459   4.527   3.264   0.924
 3149SOL    HW1 9460   4.617   3.278   0.882
 3149SOL    HW2 9461   4.456   3.266   0.853
 3150SOL     OW 9462   4.646   2.365   0.899
 3150SOL    HW1 9463   4.621   2.356   0.803
 3150SOL    HW2 9464   4.694   2.283   0.930
 3151SOL     OW 9465   4.263   1.926   0.512
 3151SOL    HW1 9466   4.182   1.927   0.570
 3151SOL    HW2 9467   4.266   2.009   0.457
 3152SOL     OW 9468   4.659   2.098   0.480
 3152SOL    HW1 9469   4.611   2.139   0.402
 3152SOL    HW2 9470   4.758   2.096   0.461
 3153SOL     OW 9471   4.951   3.432   0.793
 3153SOL    HW1 9472   4.972   3.506   0.728
 3153SOL    HW2 9473   5.019   3.432   0.866
 3154SOL     OW 9474   4.183   3.014   0.741
 3154SOL    HW1 9475   4.112   2.987   0.806
 3154SOL    HW2 9476   4.157   2.986   0.648
 3155SOL     OW 9477   3.802   2.418   1.386
 3155SOL    HW1 9478   3.894   2.417   1.345
 3155SOL    HW2 9479   3.796   2.492   1.453
 3156SOL     OW 9480   4.285   2.084   1.147
 3156SOL    HW1 9481   4.323   2.000   1.184
 3156SOL    HW2 9482   4.197   2.103   1.191
 3157SOL     OW 9483   4.741   1.901   0.753
 3157SOL    HW1 9484   4.669   1.906   0.684
 3157SOL    HW2 9485   4.717   1.832   0.822
 3158SOL     OW 9486   4.212   3.247   0.174
 3158SOL    HW1 9487   4.125   3.232   0.221
 3158SOL    HW2 9488   4.195   3.273   0.079
 3159SOL     OW 9489   4.251   2.118   0.328
 3159SOL    HW1 9490   4.278   2.059   0.253
 3159SOL    HW2 9491   4.251   2.213   0.297
 3160SOL     OW 9492   4.639   1.951   1.402
 3160SOL    HW1 9493   4.664   1.931   1.307
 3160SOL    HW2 9494   4.711   2.007   1.444
 3161SOL     OW 9495   4.704   2.978   1.719
 3161SOL    HW1 9496   4.605   2.984   1.729
 3161SOL    HW2 9497   4.727   2.898   1.663
 3162SOL     OW 9498   4.429   2.912   0.368
 3162SOL    HW1 9499   4.415   2.919   0.467
 3162SOL    HW2 9500   4.513   2.861   0.350
 3163SOL     OW 9501   4.134   2.675   1.251
 3163SOL    HW1 9502   4.220   2.687   1.301
 3163SOL    HW2 9503   4.092   2.588   1.278
 3164SOL     OW 9504   3.788   3.426   1.331
 3164SOL    HW1 9505   3.742   3.508   1.297
 3164SOL    HW2 9506   3.886   3.445   1.340
 3165SOL     OW 9507   4.091   2.962   0.501
 3165SOL    HW1 9508   4.084   3.045   0.445
 3165SOL    HW2 9509   4.095   2.882   0.441
 3166SOL     OW 9510   4.290   2.399   0.865
 3166SOL    HW1 9511   4.302   2.465   0.791
 3166SOL    HW2 9512   4.336   2.433   0.948
 3167SOL     OW 9513   4.078   3.372   1.329
 3167SOL    HW1 9514   4.057   3.328   1.242
 3167SOL    HW2 9515   4.175   3.398   1.332
 3168SOL     OW 9516   4.126   2.613   1.598
 3168SOL    HW1 9517   4.194   2.668   1.551
 3168SOL    HW2 9518   4.166   2.525   1.625
 3169SOL     OW 9519   4.737   1.967   1.770
 3169SOL    HW1 9520   4.743   2.052   1.718
 3169SOL    HW2 9521   4.769   1.891   1.713
 3170SOL     OW 9522   4.228   1.912   1.740
 3170SOL    HW1 9523   4.186   1.855   1.670
 3170SOL    HW2 9524   4.162   1.981   1.772
 3171SOL     OW 9525   4.297   2.732   1.029
 3171SOL    HW1 9526   4.341   2.821   1.020
 3171SOL    HW2 9527   4.234   2.732   1.106
 3172SOL     OW 9528   4.933   2.387   0.275
 3172SOL    HW1 9529   4.946   2.303   0.329
 3172SOL    HW2 9530   4.904   2.461   0.335
 3173SOL     OW 9531   4.031   2.075   1.231
 3173SOL    HW1 9532   4.008   2.112   1.321
 3173SOL    HW2 9533   4.001   1.980   1.225
 3174SOL     OW 9534   3.761   3.172   1.282
 3174SOL    HW1 9535   3.814   3.123   1.350
 3174SOL    HW2 9536   3.783   3.270   1.287
 3175SOL     OW 9537   4.456   2.496   1.064
 3175SOL    HW1 9538   4.515   2.470   0.988
 3175SOL    HW2 9539   4.428   2.592   1.053
 3176SOL     OW 9540   4.031   1.925   0.618
 3176SOL    HW1 9541   4.020   2.019   0.651
 3176SOL    HW2 9542   4.026   1.862   0.695
 3177SOL     OW 9543   4.747   2.628   0.966
 3177SOL    HW1 9544   4.762   2.649   1.062
 3177SOL    HW2 9545   4.717   2.533   0.957
 3178SOL     OW 9546   4.704   3.435   1.700
 3178SOL    HW1 9547   4.684   3.479   1.612
 3178SOL    HW2 9548   4.743   3.344   1.684
 3179SOL     OW 9549   4.074   2.760   1.804
 3179SOL    HW1 9550   4.150   2.804   1.852
 3179SOL    HW2 9551   4.109   2.713   1.722
 3180SOL     OW 9552   4.043   2.672   0.949
 3180SOL    HW1 9553   4.136   2.708   0.954
 3180SOL    HW2 9554   4.037   2.587   1.001
 3181SOL     OW 9555   4.063   2.371   1.006
 3181SOL    HW1 9556   4.011   2.288   0.989
 3181SOL    HW2 9557   4.140   2.376   0.942
 3182SOL     OW 9558   3.732   3.188   0.200
 3182SOL    HW1 9559   3.639   3.209   0.169
 3182SOL    HW2 9560   3.742   3.089   0.213
 3183SOL     OW 9561   3.812   3.663   0.927
 3183SOL    HW1 9562   3.770   3.577   0.900
 3183SOL    HW2 9563   3.906   3.666   0.893
 3184SOL     OW 9564   4.228   3.430   0.910
 3184SOL    HW1 9565   4.294   3.504   0.919
 3184SOL    HW2 9566   4.272   3.351   0.868
 3185SOL     OW 9567   4.726   2.658   1.238
 3185SOL    HW1 9568   4.767   2.626   1.324
 3185SOL    HW2 9569   4.630   2.631   1.235
 3186SOL     OW 9570   3.764   2.406   1.114
 3186SOL    HW1 9571   3.849   2.373   1.073
 3186SOL    HW2 9572   3.777   2.421   1.212
 3187SOL     OW 9573   3.913   2.382   1.722
 3187SOL    HW1 9574   3.972   2.342   1.652
 3187SOL    HW2 9575   3.855   2.453   1.681
 3188SOL     OW 9576   4.539   2.434   0.325
 3188SOL    HW1 9577   4.546   2.345   0.279
 3188SOL    HW2 9578   4.445   2.468   0.317
 3189SOL     OW 9579   3.976   3.426   1.744
 3189SOL    HW1 9580   3.946   3.483   1.820
 3189SOL    HW2 9581   3.969   3.329   1.770
 3190SOL     OW 9582   4.395   2.326   1.269
 3190SOL    HW1 9583   4.361   2.237   1.239
 3190SOL    HW2 9584   4.421   2.380   1.189
 3191SOL     OW 9585   4.654   3.540   1.465
 3191SOL    HW1 9586   4.630   3.522   1.370
 3191SOL    HW2 9587   4.684   3.634   1.475
 3192SOL     OW 9588   4.197   2.362   0.191
 3192SOL    HW1 9589   4.258   2.442   0.195
 3192SOL    HW2 9590   4.102   2.393   0.198
 3193SOL     OW 9591   3.883   2.999   1.466
 3193SOL    HW1 9592   3.905   2.938   1.542
 3193SOL    HW2 9593   3.893   2.950   1.380
 3194SOL     OW 9594   3.807   3.120   1.022
 3194SOL    HW1 9595   3.802   3.119   1.122
 3194SOL    HW2 9596   3.724   3.079   0.984
 3195SOL     OW 9597   4.412   3.524   1.716
 3195SOL    HW1 9598   4.356   3.605   1.725
 3195SOL    HW2 9599   4.464   3.528   1.630
 3196SOL     OW 9600   4.627   1.948   0.133
 3196SOL    HW1 9601   4.678   1.949   0.047
 3196SOL    HW2 9602   4.683   1.906   0.204
 3197SOL     OW 9603   3.854   3.656   1.851
 3197SOL    HW1 9604   3.813   3.582   1.904
 3197SOL    HW2 9605   3.918   3.707   1.909
 3198SOL     OW 9606   5.004   2.789   0.672
 3198SOL    HW1 9607   5.064   2.708   0.674
 3198SOL    HW2 9608   5.044   2.858   0.612
 3199SOL     OW 9609   4.554   3.135   1.422
 3199SOL    HW1 9610   4.549   3.168   1.517
 3199SOL    HW2 9611   4.468   3.154   1.376
 3200SOL     OW 9612   4.396   3.478   0.154
 3200SOL    HW1 9613   4.405   3.488   0.055
 3200SOL    HW2 9614   4.356   3.389   0.175
 3201SOL     OW 9615   3.987   2.188   0.720
 3201SOL    HW1 9616   3.908   2.239   0.686
 3201SOL    HW2 9617   3.978   2.173   0.818
 3202SOL     OW 9618   4.546   2.864   1.372
 3202SOL    HW1 9619   4.586   2.863   1.280
 3202SOL    HW2 9620   4.556   2.956   1.412
 3203SOL     OW 9621   4.640   2.772   0.291
 3203SOL    HW1 9622   4.703   2.810   0.223
 3203SOL    HW2 9623   4.680   2.689   0.330
 3204SOL     OW 9624   4.096   3.150   1.490
 3204SOL    HW1 9625   4.083   3.243   1.456
 3204SOL    HW2 9626   4.012   3.098   1.477
 3205SOL     OW 9627   4.738   2.098   0.971
 3205SOL    HW1 9628   4.730   2.062   0.878
 3205SOL    HW2 9629   4.736   2.022   1.036
 3206SOL     OW 9630   4.314   3.349   0.491
 3206SOL    HW1 9631   4.356   3.291   0.421
 3206SOL    HW2 9632   4.270   3.428   0.447
 3207SOL     OW 9633   3.979   3.210   0.290
 3207SOL    HW1 9634   3.883   3.211   0.263
 3207SOL    HW2 9635   3.991   3.263   0.374
 3208SOL     OW 9636   3.829   2.875   1.726
 3208SOL    HW1 9637   3.752   2.842   1.780
 3208SOL    HW2 9638   3.914   2.845   1.768
 3209SOL     OW 9639   4.396   2.065   1.489
 3209SOL    HW1 9640   4.486   2.049   1.449
 3209SOL    HW2 9641   4.404   2.070   1.588
 3210SOL     OW 9642   3.799   2.207   0.033
 3210SOL    HW1 9643   3.707   2.179   0.004
 3210SOL    HW2 9644   3.830   2.284  -0.023
 3211SOL     OW 9645   4.337   2.704   1.431
 3211SOL    HW1 9646   4.393   2.785   1.414
 3211SOL    HW2 9647   4.396   2.624   1.434
 3212SOL     OW 9648   4.440   2.427   1.708
 3212SOL    HW1 9649   4.459   2.492   1.782
 3212SOL    HW2 9650   4.500   2.347   1.717
 3213SOL     OW 9651   4.114   3.603   1.560
 3213SOL    HW1 9652   4.023   3.644   1.558
 3213SOL    HW2 9653   4.107   3.509   1.592
 3214SOL     OW 9654   4.949   2.187   0.449
 3214SOL    HW1 9655   5.014   2.113   0.438
 3214SOL    HW2 9656   4.969   2.237   0.533
 3215SOL     OW 9657   4.318   2.607   0.652
 3215SOL    HW1 9658   4.368   2.692   0.633
 3215SOL    HW2 9659   4.230   2.609   0.604
 3216SOL     OW 9660   4.583   3.236   0.016
 3216SOL    HW1 9661   4.537   3.251   0.104
 3216SOL    HW2 9662   4.627   3.321  -0.014
 3217SOL     OW 9663   4.385   3.652   0.953
 3217SOL    HW1 9664   4.339   3.740   0.940
 3217SOL    HW2 9665   4.484   3.664   0.946
 3218SOL     OW 9666   4.583   2.818   0.861
 3218SOL    HW1 9667   4.637   2.749   0.909
 3218SOL    HW2 9668   4.551   2.887   0.927
 3219SOL     OW 9669   4.807   2.846   0.087
 3219SOL    HW1 9670   4.784   2.899   0.005
 3219SOL    HW2 9671   4.888   2.790   0.068
 3220SOL     OW 9672   3.945   3.176   1.844
 3220SOL    HW1 9673   3.880   3.103   1.823
 3220SOL    HW2 9674   3.949   3.190   1.942
 3221SOL     OW 9675   3.803   3.102   0.653
 3221SOL    HW1 9676   3.802   3.055   0.741
 3221SOL    HW2 9677   3.885   3.074   0.602
 3222SOL     OW 9678   4.396   3.253   1.624
 3222SOL    HW1 9679   4.318   3.203   1.662
 3222SOL    HW2 9680   4.393   3.348   1.655
 3223SOL     OW 9681   4.152   2.286   0.520
 3223SOL    HW1 9682   4.182   2.214   0.458
 3223SOL    HW2 9683   4.113   2.246   0.603
 3224SOL     OW 9684   4.041   2.409   1.280
 3224SOL    HW1 9685   4.079   2.350   1.352
 3224SOL    HW2 9686   4.081   2.383   1.192
 3225SOL     OW 9687   4.536   3.448   0.687
 3225SOL    HW1 9688   4.568   3.458   0.593
 3225SOL    HW2 9689   4.457   3.386   0.689
 3226SOL     OW 9690   4.725   1.896   1.154
 3226SOL    HW1 9691   4.662   1.824   1.123
 3226SOL    HW2 9692   4.818   1.860   1.154
 3227SOL     OW 9693   4.494   3.192   0.301
 3227SOL    HW1 9694   4.448   3.105   0.318
 3227SOL    HW2 9695   4.585   3.189   0.342
 3228SOL     OW 9696   4.342   3.429   1.284
 3228SOL    HW1 9697   4.337   3.511   1.341
 3228SOL    HW2 9698   4.431   3.426   1.239
 3229SOL     OW 9699   3.763   2.939   0.300
 3229SOL    HW1 9700   3.862   2.928   0.291
 3229SOL    HW2 9701   3.723   2.853   0.332
 3230SOL     OW 9702   4.599   3.508   0.337
 3230SOL    HW1 9703   4.522   3.473   0.283
 3230SOL    HW2 9704   4.567   3.579   0.399
 3231SOL     OW 9705   3.954   2.490   1.975
 3231SOL    HW1 9706   3.861   2.488   2.012
 3231SOL    HW2 9707   3.955   2.451   1.883
 3232SOL     OW 9708   3.949   2.137   2.858
 3232SOL    HW1 9709   3.984   2.120   2.950
 3232SOL    HW2 9710   3.861   2.092   2.846
 3233SOL     OW 9711   3.743   2.230   2.509
 3233SOL    HW1 9712   3.661   2.273   2.548
 3233SOL    HW2 9713   3.715   2.157   2.446
 3234SOL     OW 9714   4.293   3.137   3.027
 3234SOL    HW1 9715   4.200   3.130   2.990
 3234SOL    HW2 9716   4.304   3.226   3.071
 3235SOL     OW 9717   4.492   3.006   2.885
 3235SOL    HW1 9718   4.414   3.023   2.945
 3235SOL    HW2 9719   4.526   3.093   2.849
 3236SOL     OW 9720   4.574   2.660   3.685
 3236SOL    HW1 9721   4.570   2.736   3.750
 3236SOL    HW2 9722   4.596   2.696   3.594
 3237SOL     OW 9723   4.409   2.874   2.527
 3237SOL    HW1 9724   4.478   2.858   2.597
 3237SOL    HW2 9725   4.336   2.931   2.565
 3238SOL     OW 9726   4.410   3.023   3.665
 3238SOL    HW1 9727   4.470   3.102   3.679
 3238SOL    HW2 9728   4.324   3.054   3.624
 3239SOL     OW 9729   4.059   3.297   2.923
 3239SOL    HW1 9730   3.981   3.266   2.870
 3239SOL    HW2 9731   4.117   3.355   2.866
 3240SOL     OW 9732   4.162   2.254   3.361
 3240SOL    HW1 9733   4.244   2.198   3.370
 3240SOL    HW2 9734   4.081   2.196   3.365
 3241SOL     OW 9735   3.955   3.575   2.345
 3241SOL    HW1 9736   3.989   3.652   2.399
 3241SOL    HW2 9737   3.999   3.575   2.255
 3242SOL     OW 9738   3.954   3.296   2.400
 3242SOL    HW1 9739   3.928   3.392   2.400
 3242SOL    HW2 9740   3.883   3.242   2.445
 3243SOL     OW 9741   3.964   2.953   2.748
 3243SOL    HW1 9742   3.978   2.869   2.800
 3243SOL    HW2 9743   3.909   3.017   2.803
 3244SOL     OW 9744   4.344   3.648   3.301
 3244SOL    HW1 9745   4.252   3.631   3.336
 3244SOL    HW2 9746   4.372   3.740   3.327
 3245SOL     OW 9747   4.330   2.826   1.985
 3245SOL    HW1 9748   4.337   2.910   1.931
 3245SOL    HW2 9749   4.376   2.839   2.073
 3246SOL     OW 9750   3.846   2.505   2.425
 3246SOL    HW1 9751   3.801   2.417   2.442
 3246SOL    HW2 9752   3.845   2.559   2.509
 3247SOL     OW 9753   3.751   3.458   1.979
 3247SOL    HW1 9754   3.732   3.362   2.000
 3247SOL    HW2 9755   3.718   3.516   2.054
 3248SOL     OW 9756   3.837   2.599   3.459
 3248SOL    HW1 9757   3.925   2.586   3.504
 3248SOL    HW2 9758   3.824   2.696   3.437
 3249SOL     OW 9759   4.337   3.227   2.588
 3249SOL    HW1 9760   4.288   3.140   2.597
 3249SOL    HW2 9761   4.314   3.270   2.501
 3250SOL     OW 9762   4.533   1.866   2.364
 3250SOL    HW1 9763   4.573   1.957   2.355
 3250SOL    HW2 9764   4.433   1.874   2.370
 3251SOL     OW 9765   3.921   2.838   3.126
 3251SOL    HW1 9766   4.010   2.793   3.112
 3251SOL    HW2 9767   3.848   2.773   3.107
 3252SOL     OW 9768   4.041   2.113   3.663
 3252SOL    HW1 9769   4.112   2.184   3.669
 3252SOL    HW2 9770   3.953   2.152   3.691
 3253SOL     OW 9771   4.322   2.591   2.132
 3253SOL    HW1 9772   4.346   2.660   2.064
 3253SOL    HW2 9773   4.244   2.624   2.186
 3254SOL     OW 9774   4.531   2.467   3.327
 3254SOL    HW1 9775   4.484   2.464   3.416
 3254SOL    HW2 9776   4.480   2.412   3.261
 3255SOL     OW 9777   4.697   2.752   3.434
 3255SOL    HW1 9778   4.743   2.668   3.405
 3255SOL    HW2 9779   4.641   2.786   3.359
 3256SOL     OW 9780   4.715   2.272   3.104
 3256SOL    HW1 9781   4.638   2.306   3.158
 3256SOL    HW2 9782   4.681   2.221   3.025
 3257SOL     OW 9783   3.800   2.673   2.651
 3257SOL    HW1 9784   3.899   2.661   2.660
 3257SOL    HW2 9785   3.776   2.768   2.672
 3258SOL     OW 9786   3.854   3.683   3.433
 3258SOL    HW1 9787   3.844   3.668   3.532
 3258SOL    HW2 9788   3.768   3.719   3.397
 3259SOL     OW 9789   4.589   2.210   2.057
 3259SOL    HW1 9790   4.648   2.273   2.008
 3259SOL    HW2 9791   4.608   2.116   2.028
 3260SOL     OW 9792   4.274   2.058   2.747
 3260SOL    HW1 9793   4.269   2.053   2.847
 3260SOL    HW2 9794   4.276   2.154   2.718
 3261SOL     OW 9795   4.732   3.318   2.339
 3261SOL    HW1 9796   4.686   3.390   2.287
 3261SOL    HW2 9797   4.728   3.338   2.437
 3262SOL     OW 9798   4.075   3.663   2.715
 3262SOL    HW1 9799   4.125   3.577   2.721
 3262SOL    HW2 9800   4.140   3.740   2.712
 3263SOL     OW 9801   4.045   2.805   2.104
 3263SOL    HW1 9802   4.127   2.844   2.062
 3263SOL    HW2 9803   4.018   2.723   2.055
 3264SOL     OW 9804   4.185   3.128   3.589
 3264SOL    HW1 9805   4.135   3.129   3.503
 3264SOL    HW2 9806   4.122   3.110   3.665
 3265SOL     OW 9807   3.926   2.147   3.360
 3265SOL    HW1 9808   3.846   2.207   3.347
 3265SOL    HW2 9809   3.916   2.098   3.446
 3266SOL     OW 9810   4.188   3.605   2.185
 3266SOL    HW1 9811   4.221   3.644   2.271
 3266SOL    HW2 9812   4.264   3.598   2.120
 3267SOL     OW 9813   3.973   3.647   3.103
 3267SOL    HW1 9814   4.030   3.582   3.153
 3267SOL    HW2 9815   3.957   3.614   3.010
 3268SOL     OW 9816   4.106   2.562   2.342
 3268SOL    HW1 9817   4.151   2.472   2.339
 3268SOL    HW2 9818   4.012   2.551   2.375
 3269SOL     OW 9819   4.338   1.984   1.979
 3269SOL    HW1 9820   4.436   1.962   1.986
 3269SOL    HW2 9821   4.307   1.967   1.886
 3270SOL     OW 9822   4.505   2.126   3.611
 3270SOL    HW1 9823   4.572   2.065   3.654
 3270SOL    HW2 9824   4.432   2.145   3.676
 3271SOL     OW 9825   4.612   3.376   3.057
 3271SOL    HW1 9826   4.589   3.351   2.963
 3271SOL    HW2 9827   4.673   3.307   3.096
 3272SOL     OW 9828   4.527   3.264   2.786
 3272SOL    HW1 9829   4.617   3.278   2.744
 3272SOL    HW2 9830   4.456   3.266   2.715
 3273SOL     OW 9831   4.646   2.365   2.761
 3273SOL    HW1 9832   4.621   2.356   2.665
 3273SOL    HW2 9833   4.694   2.283   2.792
 3274SOL     OW 9834   4.263   1.926   2.374
 3274SOL    HW1 9835   4.182   1.927   2.432
 3274SOL    HW2 9836   4.266   2.009   2.319
 3275SOL     OW 9837   4.021   1.897   2.033
 3275SOL    HW1 9838   4.070   1.981   2.012
 3275SOL    HW2 9839   4.083   1.832   2.078
 3276SOL     OW 9840   4.659   2.098   2.342
 3276SOL    HW1 9841   4.611   2.139   2.264
 3276SOL    HW2 9842   4.758   2.096   2.323
 3277SOL     OW 9843   4.951   3.432   2.655
 3277SOL    HW1 9844   4.972   3.506   2.590
 3277SOL    HW2 9845   5.019   3.432   2.728
 3278SOL     OW 9846   4.183   3.014   2.603
 3278SOL    HW1 9847   4.112   2.987   2.668
 3278SOL    HW2 9848   4.157   2.986   2.510
 3279SOL     OW 9849   3.802   2.418   3.248
 3279SOL    HW1 9850   3.894   2.417   3.207
 3279SOL    HW2 9851   3.796   2.492   3.315
 3280SOL     OW 9852   4.285   2.084   3.009
 3280SOL    HW1 9853   4.323   2.000   3.046
 3280SOL    HW2 9854   4.197   2.103   3.053
 3281SOL     OW 9855   4.741   1.901   2.615
 3281SOL    HW1 9856   4.669   1.906   2.546
 3281SOL    HW2 9857   4.717   1.832   2.684
 3282SOL     OW 9858   4.212   3.247   2.036
 3282SOL    HW1 9859   4.125   3.232   2.083
 3282SOL    HW2 9860   4.195   3.273   1.941
 3283SOL     OW 9861   4.251   2.118   2.190
 3283SOL    HW1 9862   4.278   2.059   2.115
 3283SOL    HW2 9863   4.251   2.213   2.159
 3284SOL     OW 9864   4.639   1.951   3.264
 3284SOL    HW1 9865   4.664   1.931   3.169
 3284SOL    HW2 9866   4.711   2.007   3.306
 3285SOL     OW 9867   4.704   2.978   3.581
 3285SOL    HW1 9868   4.605   2.984   3.591
 3285SOL    HW2 9869   4.727   2.898   3.525
 3286SOL     OW 9870   4.429   2.912   2.230
 3286SOL    HW1 9871   4.415   2.919   2.329
 3286SOL    HW2 9872   4.513   2.861   2.212
 3287SOL     OW 9873   4.134   2.675   3.113
 3287SOL    HW1 9874   4.220   2.687   3.163
 3287SOL    HW2 9875   4.092   2.588   3.140
 3288SOL     OW 9876   3.788   3.426   3.193
 3288SOL    HW1 9877   3.742   3.508   3.159
 3288SOL    HW2 9878   3.886   3.445   3.202
 3289SOL     OW 9879   4.091   2.962   2.363
 3289SOL    HW1 9880   4.084   3.045   2.307
 3289SOL    HW2 9881   4.095   2.882   2.303
 3290SOL     OW 9882   4.290   2.399   2.727
 3290SOL    HW1 9883   4.302   2.465   2.653
 3290SOL    HW2 9884   4.336   2.433   2.810
 3291SOL     OW 9885   4.078   3.372   3.191
 3291SOL    HW1 9886   4.057   3.328   3.104
 3291SOL    HW2 9887   4.175   3.398   3.194
 3292SOL     OW 9888   4.126   2.613   3.460
 3292SOL    HW1 9889   4.194   2.668   3.413
 3292SOL    HW2 9890   4.166   2.525   3.487
 3293SOL     OW 9891   4.737   1.967   3.632
 3293SOL    HW1 9892   4.743   2.052   3.580
 3293SOL    HW2 9893   4.769   1.891   3.575
 3294SOL     OW 9894   4.228   1.912   3.602
 3294SOL    HW1 9895   4.186   1.855   3.532
 3294SOL    HW2 9896   4.162   1.981   3.634
 3295SOL     OW 9897   4.297   2.732   2.891
 3295SOL    HW1 9898   4.341   2.821   2.882
 3295SOL    HW2 9899   4.234   2.732   2.968
 3296SOL     OW 9900   4.933   2.387   2.137
 3296SOL    HW1 9901   4.946   2.303   2.191
 3296SOL    HW2 9902   4.904   2.461   2.197
 3297SOL     OW 9903   4.031   2.075   3.093
 3297SOL    HW1 9904   4.008   2.112   3.183
 3297SOL    HW2 9905   4.001   1.980   3.087
 3298SOL     OW 9906   3.761   3.172   3.144
 3298SOL    HW1 9907   3.814   3.123   3.212
 3298SOL    HW2 9908   3.783   3.270   3.149
 3299SOL     OW 9909   4.456   2.496   2.926
 3299SOL    HW1 9910   4.515   2.470   2.850
 3299SOL    HW2 9911   4.428   2.592   2.915
 3300SOL     OW 9912   4.031   1.925   2.480
 3300SOL    HW1 9913   4.020   2.019   2.513
 3300SOL    HW2 9914   4.026   1.862   2.557
 3301SOL     OW 9915   4.747   2.628   2.828
 3301SOL    HW1 9916   4.762   2.649   2.924
 3301SOL    HW2 9917   4.717   2.533   2.819
 3302SOL     OW 9918   4.704   3.435   3.562
 3302SOL    HW1 9919   4.684   3.479   3.474
 3302SOL    HW2 9920   4.743   3.344   3.546
 3303SOL     OW 9921   4.074   2.760   3.666
 3303SOL    HW1 9922   4.150   2.804   3.714
 3303SOL    HW2 9923   4.109   2.713   3.584
 3304SOL     OW 9924   4.043   2.672   2.811
 3304SOL    HW1 9925   4.136   2.708   2.816
 3304SOL    HW2 9926   4.037   2.587   2.863
 3305SOL     OW 9927   4.063   2.371   2.868
 3305SOL    HW1 9928   4.011   2.288   2.851
 3305SOL    HW2 9929   4.140   2.376   2.804
 3306SOL     OW 9930   3.732   3.188   2.062
 3306SOL    HW1 9931   3.639   3.209   2.031
 3306SOL    HW2 9932   3.742   3.089   2.075
 3307SOL     OW 9933   3.812   3.663   2.789
 3307SOL    HW1 9934   3.770   3.577   2.762
 3307SOL    HW2 9935   3.906   3.666   2.755
 3308SOL     OW 9936   4.228   3.430   2.772
 3308SOL    HW1 9937   4.294   3.504   2.781
 3308SOL    HW2 9938   4.272   3.351   2.730
 3309SOL     OW 9939   4.726   2.658   3.100
 3309SOL    HW1 9940   4.767   2.626   3.186
 3309SOL    HW2 9941   4.630   2.631   3.097
 3310SOL     OW 9942   3.764   2.406   2.976
 3310SOL    HW1 9943   3.849   2.373   2.935
 3310SOL    HW2 9944   3.777   2.421   3.074
 3311SOL     OW 9945   3.913   2.382   3.584
 3311SOL    HW1 9946   3.972   2.342   3.514
 3311SOL    HW2 9947   3.855   2.453   3.543
 3312SOL     OW 9948   4.539   2.434   2.187
 3312SOL    HW1 9949   4.546   2.345   2.141
 3312SOL    HW2 9950   4.445   2.468   2.179
 3313SOL     OW 9951   3.976   3.426   3.606
 3313SOL    HW1 9952   3.946   3.483   3.682
 3313SOL    HW2 9953   3.969   3.329   3.632
 3314SOL     OW 9954   4.395   2.326   3.131
 3314SOL    HW1 9955   4.361   2.237   3.101
 3314SOL    HW2 9956   4.421   2.380   3.051
 3315SOL     OW 9957   4.654   3.540   3.327
 3315SOL    HW1 9958   4.630   3.522   3.232
 3315SOL    HW2 9959   4.684   3.634   3.337
 3316SOL     OW 9960   4.197   2.362   2.053
 3316SOL    HW1 9961   4.258   2.442   2.057
 3316SOL    HW2 9962   4.102   2.393   2.060
 3317SOL     OW 9963   3.883   2.999   3.328
 3317SOL    HW1 9964   3.905   2.938   3.404
 3317SOL    HW2 9965   3.893   2.950   3.242
 3318SOL     OW 9966   3.807   3.120   2.884
 3318SOL    HW1 9967   3.802   3.119   2.984
 3318SOL    HW2 9968   3.724   3.079   2.846
 3319SOL     OW 9969   4.412   3.524   3.578
 3319SOL    HW1 9970   4.356   3.605   3.587
 3319SOL    HW2 9971   4.464   3.528   3.492
 3320SOL     OW 9972   3.854   3.656   3.713
 3320SOL    HW1 9973   3.813   3.582   3.766
 3320SOL    HW2 9974   3.918   3.707   3.771
 3321SOL     OW 9975   5.004   2.789   2.534
 3321SOL    HW1 9976   5.064   2.708   2.536
 3321SOL    HW2 9977   5.044   2.858   2.474
 3322SOL     OW 9978   4.554   3.135   3.284
 3322SOL    HW1 9979   4.549   3.168   3.379
 3322SOL    HW2 9980   4.468   3.154   3.238
 3323SOL     OW 9981   4.396   3.478   2.016
 3323SOL    HW1 9982   4.405   3.488   1.917
 3323SOL    HW2 9983   4.356   3.389   2.037
 3324SOL     OW 9984   3.987   2.188   2.582
 3324SOL    HW1 9985   3.908   2.239   2.548
 3324SOL    HW2 9986   3.978   2.173   2.680
 3325SOL     OW 9987   4.546   2.864   3.234
 3325SOL    HW1 9988   4.586   2.863   3.142
 3325SOL    HW2 9989   4.556   2.956   3.274
 3326SOL     OW 9990   4.640   2.772   2.153
 3326SOL    HW1 9991   4.703   2.810   2.085
 3326SOL    HW2 9992   4.680   2.689   2.192
 3327SOL     OW 9993   4.096   3.150   3.352
 3327SOL    HW1 9994   4.083   3.243   3.318
 3327SOL    HW2 9995   4.012   3.098   3.339
 3328SOL     OW 9996   4.738   2.098   2.833
 3328SOL    HW1 9997   4.730   2.062   2.740
 3328SOL    HW2 9998   4.736   2.022   2.898
 3329SOL     OW 9999   4.314   3.349   2.353
 3329SOL    HW110000   4.356   3.291   2.283
 3329SOL    HW210001   4.270   3.428   2.309
 3330SOL     OW10002   3.979   3.210   2.152
 3330SOL    HW110003   3.883   3.211   2.125
 3330SOL    HW210004   3.991   3.263   2.236
 3331SOL     OW10005   3.829   2.875   3.588
 3331SOL    HW110006   3.752   2.842   3.642
 3331SOL    HW210007   3.914   2.845   3.630
 3332SOL     OW10008   4.396   2.065   3.351
 3332SOL    HW110009   4.486   2.049   3.311
 3332SOL    HW210010   4.404   2.070   3.450
 3333SOL     OW10011   3.799   2.207   1.895
 3333SOL    HW110012   3.707   2.179   1.866
 3333SOL    HW210013   3.830   2.284   1.839
 3334SOL     OW10014   3.796   2.028   2.180
 3334SOL    HW110015   3.779   2.111   2.126
 3334SOL    HW210016   3.886   1.991   2.158
 3335SOL     OW10017   4.337   2.704   3.293
 3335SOL    HW110018   4.393   2.785   3.276
 3335SOL    HW210019   4.396   2.624   3.296
 3336SOL     OW10020   4.440   2.427   3.570
 3336SOL    HW110021   4.459   2.492   3.644
 3336SOL    HW210022   4.500   2.347   3.579
 3337SOL     OW10023   4.114   3.603   3.422
 3337SOL    HW110024   4.023   3.644   3.420
 3337SOL    HW210025   4.107   3.509   3.454
 3338SOL     OW10026   4.949   2.187   2.311
 3338SOL    HW110027   5.014   2.113   2.300
 3338SOL    HW210028   4.969   2.237   2.395
 3339SOL     OW10029   4.318   2.607   2.514
 3339SOL    HW110030   4.368   2.692   2.495
 3339SOL    HW210031   4.230   2.609   2.466
 3340SOL     OW10032   4.583   3.236   1.878
 3340SOL    HW110033   4.537   3.251   1.966
 3340SOL    HW210034   4.627   3.321   1.848
 3341SOL     OW10035   4.385   3.652   2.815
 3341SOL    HW110036   4.339   3.740   2.802
 3341SOL    HW210037   4.484   3.664   2.808
 3342SOL     OW10038   4.583   2.818   2.723
 3342SOL    HW110039   4.637   2.749   2.771
 3342SOL    HW210040   4.551   2.887   2.789
 3343SOL     OW10041   3.945   3.176   3.706
 3343SOL    HW110042   3.880   3.103   3.685
 3343SOL    HW210043   3.949   3.190   3.804
 3344SOL     OW10044   3.803   3.102   2.515
 3344SOL    HW110045   3.802   3.055   2.603
 3344SOL    HW210046   3.885   3.074   2.464
 3345SOL     OW10047   4.396   3.253   3.486
 3345SOL    HW110048   4.318   3.203   3.524
 3345SOL    HW210049   4.393   3.348   3.517
 3346SOL     OW10050   4.152   2.286   2.382
 3346SOL    HW110051   4.182   2.214   2.320
 3346SOL    HW210052   4.113   2.246   2.465
 3347SOL     OW10053   4.041   2.409   3.142
 3347SOL    HW110054   4.079   2.350   3.214
 3347SOL    HW210055   4.081   2.383   3.054
 3348SOL     OW10056   4.536   3.448   2.549
 3348SOL    HW110057   4.568   3.458   2.455
 3348SOL    HW210058   4.457   3.386   2.551
 3349SOL     OW10059   4.725   1.896   3.016
 3349SOL    HW110060   4.662   1.824   2.985
 3349SOL    HW210061   4.818   1.860   3.016
 3350SOL     OW10062   4.494   3.192   2.163
 3350SOL    HW110063   4.448   3.105   2.180
 3350SOL    HW210064   4.585   3.189   2.204
 3351SOL     OW10065   4.342   3.429   3.146
 3351SOL    HW110066   4.337   3.511   3.203
 3351SOL    HW210067   4.431   3.426   3.101
 3352SOL     OW10068   3.763   2.939   2.162
 3352SOL    HW110069   3.862   2.928   2.153
 3352SOL    HW210070   3.723   2.853   2.194
 3353SOL     OW10071   4.599   3.508   2.199
 3353SOL    HW110072   4.522   3.473   2.145
 3353SOL    HW210073   4.567   3.579   2.261
 3354SOL     OW10074   3.954   2.490   3.837
 3354SOL    HW110075   3.861   2.488   3.874
 3354SOL    HW210076   3.955   2.451   3.745
 3355SOL     OW10077   3.949   2.137   4.720
 3355SOL    HW110078   3.984   2.120   4.812
 3355SOL    HW210079   3.861   2.092   4.708
 3356SOL     OW10080   3.743   2.230   4.371
 3356SOL    HW110081   3.661   2.273   4.410
 3356SOL    HW210082   3.715   2.157   4.308
 3357SOL     OW10083   4.492   3.006   4.747
 3357SOL    HW110084   4.414   3.023   4.807
 3357SOL    HW210085   4.526   3.093   4.711
 3358SOL     OW10086   4.409   2.874   4.389
 3358SOL    HW110087   4.478   2.858   4.459
 3358SOL    HW210088   4.336   2.931   4.427
 3359SOL     OW10089   4.059   3.297   4.785
 3359SOL    HW110090   3.981   3.266   4.732
 3359SOL    HW210091   4.117   3.355   4.728
 3360SOL     OW10092   3.955   3.575   4.207
 3360SOL    HW110093   3.989   3.652   4.261
 3360SOL    HW210094   3.999   3.575   4.117
 3361SOL     OW10095   3.954   3.296   4.262
 3361SOL    HW110096   3.928   3.392   4.262
 3361SOL    HW210097   3.883   3.242   4.307
 3362SOL     OW10098   3.964   2.953   4.610
 3362SOL    HW110099   3.978   2.869   4.662
 3362SOL    HW210100   3.909   3.017   4.665
 3363SOL     OW10101   4.330   2.826   3.847
 3363SOL    HW110102   4.337   2.910   3.793
 3363SOL    HW210103   4.376   2.839   3.935
 3364SOL     OW10104   3.846   2.505   4.287
 3364SOL    HW110105   3.801   2.417   4.304
 3364SOL    HW210106   3.845   2.559   4.371
 3365SOL     OW10107   3.751   3.458   3.841
 3365SOL    HW110108   3.732   3.362   3.862
 3365SOL    HW210109   3.718   3.516   3.916
 3366SOL     OW10110   4.337   3.227   4.450
 3366SOL    HW110111   4.288   3.140   4.459
 3366SOL    HW210112   4.314   3.270   4.363
 3367SOL     OW10113   4.533   1.866   4.226
 3367SOL    HW110114   4.573   1.957   4.217
 3367SOL    HW210115   4.433   1.874   4.232
 3368SOL     OW10116   4.322   2.591   3.994
 3368SOL    HW110117   4.346   2.660   3.926
 3368SOL    HW210118   4.244   2.624   4.048
 3369SOL     OW10119   3.800   2.673   4.513
 3369SOL    HW110120   3.899   2.661   4.522
 3369SOL    HW210121   3.776   2.768   4.534
 3370SOL     OW10122   4.589   2.210   3.919
 3370SOL    HW110123   4.648   2.273   3.870
 3370SOL    HW210124   4.608   2.116   3.890
 3371SOL     OW10125   4.274   2.058   4.609
 3371SOL    HW110126   4.269   2.053   4.709
 3371SOL    HW210127   4.276   2.154   4.580
 3372SOL     OW10128   4.732   3.318   4.201
 3372SOL    HW110129   4.686   3.390   4.149
 3372SOL    HW210130   4.728   3.338   4.299
 3373SOL     OW10131   4.075   3.663   4.577
 3373SOL    HW110132   4.125   3.577   4.583
 3373SOL    HW210133   4.140   3.740   4.574
 3374SOL     OW10134   4.045   2.805   3.966
 3374SOL    HW110135   4.127   2.844   3.924
 3374SOL    HW210136   4.018   2.723   3.917
 3375SOL     OW10137   4.188   3.605   4.047
 3375SOL    HW110138   4.221   3.644   4.133
 3375SOL    HW210139   4.264   3.598   3.982
 3376SOL     OW10140   3.973   3.647   4.965
 3376SOL    HW110141   4.030   3.582   5.015
 3376SOL    HW210142   3.957   3.614   4.872
 3377SOL     OW10143   4.106   2.562   4.204
 3377SOL    HW110144   4.151   2.472   4.201
 3377SOL    HW210145   4.012   2.551   4.237
 3378SOL     OW10146   4.338   1.984   3.841
 3378SOL    HW110147   4.436   1.962   3.848
 3378SOL    HW210148   4.307   1.967   3.748
 3379SOL     OW10149   4.646   2.365   4.623
 3379SOL    HW110150   4.621   2.356   4.527
 3379SOL    HW210151   4.694   2.283   4.654
 3380SOL     OW10152   4.263   1.926   4.236
 3380SOL    HW110153   4.182   1.927   4.294
 3380SOL    HW210154   4.266   2.009   4.181
 3381SOL     OW10155   4.021   1.897   3.895
 3381SOL    HW110156   4.070   1.981   3.874
 3381SOL    HW210157   4.083   1.832   3.940
 3382SOL     OW10158   4.659   2.098   4.204
 3382SOL    HW110159   4.611   2.139   4.126
 3382SOL    HW210160   4.758   2.096   4.185
 3383SOL     OW10161   4.951   3.432   4.517
 3383SOL    HW110162   4.972   3.506   4.452
 3383SOL    HW210163   5.019   3.432   4.590
 3384SOL     OW10164   4.183   3.014   4.465
 3384SOL    HW110165   4.112   2.987   4.530
 3384SOL    HW210166   4.157   2.986   4.372
 3385SOL     OW10167   4.741   1.901   4.477
 3385SOL    HW110168   4.669   1.906   4.408
 3385SOL    HW210169   4.717   1.832   4.546
 3386SOL     OW10170   4.212   3.247   3.898
 3386SOL    HW110171   4.125   3.232   3.945
 3386SOL    HW210172   4.195   3.273   3.803
 3387SOL     OW10173   4.251   2.118   4.052
 3387SOL    HW110174   4.278   2.059   3.977
 3387SOL    HW210175   4.251   2.213   4.021
 3388SOL     OW10176   4.429   2.912   4.092
 3388SOL    HW110177   4.415   2.919   4.191
 3388SOL    HW210178   4.513   2.861   4.074
 3389SOL     OW10179   4.091   2.962   4.225
 3389SOL    HW110180   4.084   3.045   4.169
 3389SOL    HW210181   4.095   2.882   4.165
 3390SOL     OW10182   4.290   2.399   4.589
 3390SOL    HW110183   4.302   2.465   4.515
 3390SOL    HW210184   4.336   2.433   4.672
 3391SOL     OW10185   4.297   2.732   4.753
 3391SOL    HW110186   4.341   2.821   4.744
 3391SOL    HW210187   4.234   2.732   4.830
 3392SOL     OW10188   4.933   2.387   3.999
 3392SOL    HW110189   4.946   2.303   4.053
 3392SOL    HW210190   4.904   2.461   4.059
 3393SOL     OW10191   4.031   2.075   4.955
 3393SOL    HW110192   4.008   2.112   5.045
 3393SOL    HW210193   4.001   1.980   4.949
 3394SOL     OW10194   4.456   2.496   4.788
 3394SOL    HW110195   4.515   2.470   4.712
 3394SOL    HW210196   4.428   2.592   4.777
 3395SOL     OW10197   4.031   1.925   4.342
 3395SOL    HW110198   4.020   2.019   4.375
 3395SOL    HW210199   4.026   1.862   4.419
 3396SOL     OW10200   4.747   2.628   4.690
 3396SOL    HW110201   4.762   2.649   4.786
 3396SOL    HW210202   4.717   2.533   4.681
 3397SOL     OW10203   4.043   2.672   4.673
 3397SOL    HW110204   4.136   2.708   4.678
 3397SOL    HW210205   4.037   2.587   4.725
 3398SOL     OW10206   4.063   2.371   4.730
 3398SOL    HW110207   4.011   2.288   4.713
 3398SOL    HW210208   4.140   2.376   4.666
 3399SOL     OW10209   3.732   3.188   3.924
 3399SOL    HW110210   3.639   3.209   3.893
 3399SOL    HW210211   3.742   3.089   3.937
 3400SOL     OW10212   3.812   3.663   4.651
 3400SOL    HW110213   3.770   3.577   4.624
 3400SOL    HW210214   3.906   3.666   4.617
 3401SOL     OW10215   4.228   3.430   4.634
 3401SOL    HW110216   4.294   3.504   4.643
 3401SOL    HW210217   4.272   3.351   4.592
 3402SOL     OW10218   4.539   2.434   4.049
 3402SOL    HW110219   4.546   2.345   4.003
 3402SOL    HW210220   4.445   2.468   4.041
 3403SOL     OW10221   4.395   2.326   4.993
 3403SOL    HW110222   4.361   2.237   4.963
 3403SOL    HW210223   4.421   2.380   4.913
 3404SOL     OW10224   4.197   2.362   3.915
 3404SOL    HW110225   4.258   2.442   3.919
 3404SOL    HW210226   4.102   2.393   3.922
 3405SOL     OW10227   3.807   3.120   4.746
 3405SOL    HW110228   3.802   3.119   4.846
 3405SOL    HW210229   3.724   3.079   4.708
 3406SOL     OW10230   5.004   2.789   4.396
 3406SOL    HW110231   5.064   2.708   4.398
 3406SOL    HW210232   5.044   2.858   4.336
 3407SOL     OW10233   4.396   3.478   3.878
 3407SOL    HW110234   4.405   3.488   3.779
 3407SOL    HW210235   4.356   3.389   3.899
 3408SOL     OW10236   3.987   2.188   4.444
 3408SOL    HW110237   3.908   2.239   4.410
 3408SOL    HW210238   3.978   2.173   4.542
 3409SOL     OW10239   4.640   2.772   4.015
 3409SOL    HW110240   4.703   2.810   3.947
 3409SOL    HW210241   4.680   2.689   4.054
 3410SOL     OW10242   4.314   3.349   4.215
 3410SOL    HW110243   4.356   3.291   4.145
 3410SOL    HW210244   4.270   3.428   4.171
 3411SOL     OW10245   3.979   3.210   4.014
 3411SOL    HW110246   3.883   3.211   3.987
 3411SOL    HW210247   3.991   3.263   4.098
 3412SOL     OW10248   3.799   2.207   3.757
 3412SOL    HW110249   3.707   2.179   3.728
 3412SOL    HW210250   3.830   2.284   3.701
 3413SOL     OW10251   3.796   2.028   4.042
 3413SOL    HW110252   3.779   2.111   3.988
 3413SOL    HW210253   3.886   1.991   4.020
 3414SOL     OW10254   4.949   2.187   4.173
 3414SOL    HW110255   5.014   2.113   4.162
 3414SOL    HW210256   4.969   2.237   4.257
 3415SOL     OW10257   4.318   2.607   4.376
 3415SOL    HW110258   4.368   2.692   4.357
 3415SOL    HW210259   4.230   2.609   4.328
 3416SOL     OW10260   4.583   3.236   3.740
 3416SOL    HW110261   4.537   3.251   3.828
 3416SOL    HW210262   4.627   3.321   3.710
 3417SOL     OW10263   4.385   3.652   4.677
 3417SOL    HW110264   4.339   3.740   4.664
 3417SOL    HW210265   4.484   3.664   4.670
 3418SOL     OW10266   4.583   2.818   4.585
 3418SOL    HW110267   4.637   2.749   4.633
 3418SOL    HW210268   4.551   2.887   4.651
 3419SOL     OW10269   3.803   3.102   4.377
 3419SOL    HW110270   3.802   3.055   4.465
 3419SOL    HW210271   3.885   3.074   4.326
 3420SOL     OW10272   4.152   2.286   4.244
 3420SOL    HW110273   4.182   2.214   4.182
 3420SOL    HW210274   4.113   2.246   4.327
 3421SOL     OW10275   4.536   3.448   4.411
 3421SOL    HW110276   4.568   3.458   4.317
 3421SOL    HW210277   4.457   3.386   4.413
 3422SOL     OW10278   4.494   3.192   4.025
 3422SOL    HW110279   4.448   3.105   4.042
 3422SOL    HW210280   4.585   3.189   4.066
 3423SOL     OW10281   3.763   2.939   4.024
 3423SOL    HW110282   3.862   2.928   4.015
 3423SOL    HW210283   3.723   2.853   4.056
 3424SOL     OW10284   4.599   3.508   4.061
 3424SOL    HW110285   4.522   3.473   4.007
 3424SOL    HW210286   4.567   3.579   4.123
 3425SOL     OW10287   3.954   4.352   0.113
 3425SOL    HW110288   3.861   4.350   0.150
 3425SOL    HW210289   3.955   4.313   0.021
 3426SOL     OW10290   3.949   3.999   0.996
 3426SOL    HW110291   3.984   3.982   1.088
 3426SOL    HW210292   3.861   3.954   0.984
 3427SOL     OW10293   3.743   4.092   0.647
 3427SOL    HW110294   3.661   4.135   0.686
 3427SOL    HW210295   3.715   4.019   0.584
 3428SOL     OW10296   4.492   4.868   1.023
 3428SOL    HW110297   4.414   4.885   1.083
 3428SOL    HW210298   4.526   4.955   0.987
 3429SOL     OW10299   4.574   4.522   1.823
 3429SOL    HW110300   4.570   4.598   1.888
 3429SOL    HW210301   4.596   4.558   1.732
 3430SOL     OW10302   4.409   4.736   0.665
 3430SOL    HW110303   4.478   4.720   0.735
 3430SOL    HW210304   4.336   4.793   0.703
 3431SOL     OW10305   4.162   4.116   1.499
 3431SOL    HW110306   4.244   4.060   1.508
 3431SOL    HW210307   4.081   4.058   1.503
 3432SOL     OW10308   3.964   4.815   0.886
 3432SOL    HW110309   3.978   4.731   0.938
 3432SOL    HW210310   3.909   4.879   0.941
 3433SOL     OW10311   3.846   4.367   0.563
 3433SOL    HW110312   3.801   4.279   0.580
 3433SOL    HW210313   3.845   4.421   0.647
 3434SOL     OW10314   3.837   4.461   1.597
 3434SOL    HW110315   3.925   4.448   1.642
 3434SOL    HW210316   3.824   4.558   1.575
 3435SOL     OW10317   4.533   3.728   0.502
 3435SOL    HW110318   4.573   3.819   0.493
 3435SOL    HW210319   4.433   3.736   0.508
 3436SOL     OW10320   3.921   4.700   1.264
 3436SOL    HW110321   4.010   4.655   1.250
 3436SOL    HW210322   3.848   4.635   1.245
 3437SOL     OW10323   4.041   3.975   1.801
 3437SOL    HW110324   4.112   4.046   1.807
 3437SOL    HW210325   3.953   4.014   1.829
 3438SOL     OW10326   4.322   4.453   0.270
 3438SOL    HW110327   4.346   4.522   0.202
 3438SOL    HW210328   4.244   4.486   0.324
 3439SOL     OW10329   4.531   4.329   1.465
 3439SOL    HW110330   4.484   4.326   1.554
 3439SOL    HW210331   4.480   4.274   1.399
 3440SOL     OW10332   4.697   4.614   1.572
 3440SOL    HW110333   4.743   4.530   1.543
 3440SOL    HW210334   4.641   4.648   1.497
 3441SOL     OW10335   4.715   4.134   1.242
 3441SOL    HW110336   4.638   4.168   1.296
 3441SOL    HW210337   4.681   4.083   1.163
 3442SOL     OW10338   3.800   4.535   0.789
 3442SOL    HW110339   3.899   4.523   0.798
 3442SOL    HW210340   3.776   4.630   0.810
 3443SOL     OW10341   4.589   4.072   0.195
 3443SOL    HW110342   4.648   4.135   0.146
 3443SOL    HW210343   4.608   3.978   0.166
 3444SOL     OW10344   4.274   3.920   0.885
 3444SOL    HW110345   4.269   3.915   0.985
 3444SOL    HW210346   4.276   4.016   0.856
 3445SOL     OW10347   3.926   4.009   1.498
 3445SOL    HW110348   3.846   4.069   1.485
 3445SOL    HW210349   3.916   3.960   1.584
 3446SOL     OW10350   4.106   4.424   0.480
 3446SOL    HW110351   4.151   4.334   0.477
 3446SOL    HW210352   4.012   4.413   0.513
 3447SOL     OW10353   4.338   3.846   0.117
 3447SOL    HW110354   4.436   3.824   0.124
 3447SOL    HW210355   4.307   3.829   0.024
 3448SOL     OW10356   4.505   3.988   1.749
 3448SOL    HW110357   4.572   3.927   1.792
 3448SOL    HW210358   4.432   4.007   1.814
 3449SOL     OW10359   4.646   4.227   0.899
 3449SOL    HW110360   4.621   4.218   0.803
 3449SOL    HW210361   4.694   4.145   0.930
 3450SOL     OW10362   4.263   3.788   0.512
 3450SOL    HW110363   4.182   3.789   0.570
 3450SOL    HW210364   4.266   3.871   0.457
 3451SOL     OW10365   4.659   3.960   0.480
 3451SOL    HW110366   4.611   4.001   0.402
 3451SOL    HW210367   4.758   3.958   0.461
 3452SOL     OW10368   3.802   4.280   1.386
 3452SOL    HW110369   3.894   4.279   1.345
 3452SOL    HW210370   3.796   4.354   1.453
 3453SOL     OW10371   4.285   3.946   1.147
 3453SOL    HW110372   4.323   3.862   1.184
 3453SOL    HW210373   4.197   3.965   1.191
 3454SOL     OW10374   4.741   3.763   0.753
 3454SOL    HW110375   4.669   3.768   0.684
 3454SOL    HW210376   4.717   3.694   0.822
 3455SOL     OW10377   4.251   3.980   0.328
 3455SOL    HW110378   4.278   3.921   0.253
 3455SOL    HW210379   4.251   4.075   0.297
 3456SOL     OW10380   4.639   3.813   1.402
 3456SOL    HW110381   4.664   3.793   1.307
 3456SOL    HW210382   4.711   3.869   1.444
 3457SOL     OW10383   4.704   4.840   1.719
 3457SOL    HW110384   4.605   4.846   1.729
 3457SOL    HW210385   4.727   4.760   1.663
 3458SOL     OW10386   4.134   4.537   1.251
 3458SOL    HW110387   4.220   4.549   1.301
 3458SOL    HW210388   4.092   4.450   1.278
 3459SOL     OW10389   4.290   4.261   0.865
 3459SOL    HW110390   4.302   4.327   0.791
 3459SOL    HW210391   4.336   4.295   0.948
 3460SOL     OW10392   4.126   4.475   1.598
 3460SOL    HW110393   4.194   4.530   1.551
 3460SOL    HW210394   4.166   4.387   1.625
 3461SOL     OW10395   4.737   3.829   1.770
 3461SOL    HW110396   4.743   3.914   1.718
 3461SOL    HW210397   4.769   3.753   1.713
 3462SOL     OW10398   4.228   3.774   1.740
 3462SOL    HW110399   4.186   3.717   1.670
 3462SOL    HW210400   4.162   3.843   1.772
 3463SOL     OW10401   4.297   4.594   1.029
 3463SOL    HW110402   4.341   4.683   1.020
 3463SOL    HW210403   4.234   4.594   1.106
 3464SOL     OW10404   4.933   4.249   0.275
 3464SOL    HW110405   4.946   4.165   0.329
 3464SOL    HW210406   4.904   4.323   0.335
 3465SOL     OW10407   4.031   3.937   1.231
 3465SOL    HW110408   4.008   3.974   1.321
 3465SOL    HW210409   4.001   3.842   1.225
 3466SOL     OW10410   4.456   4.358   1.064
 3466SOL    HW110411   4.515   4.332   0.988
 3466SOL    HW210412   4.428   4.454   1.053
 3467SOL     OW10413   4.031   3.787   0.618
 3467SOL    HW110414   4.020   3.881   0.651
 3467SOL    HW210415   4.026   3.724   0.695
 3468SOL     OW10416   4.747   4.490   0.966
 3468SOL    HW110417   4.762   4.511   1.062
 3468SOL    HW210418   4.717   4.395   0.957
 3469SOL     OW10419   4.074   4.622   1.804
 3469SOL    HW110420   4.150   4.666   1.852
 3469SOL    HW210421   4.109   4.575   1.722
 3470SOL     OW10422   4.043   4.534   0.949
 3470SOL    HW110423   4.136   4.570   0.954
 3470SOL    HW210424   4.037   4.449   1.001
 3471SOL     OW10425   4.063   4.233   1.006
 3471SOL    HW110426   4.011   4.150   0.989
 3471SOL    HW210427   4.140   4.238   0.942
 3472SOL     OW10428   4.726   4.520   1.238
 3472SOL    HW110429   4.767   4.488   1.324
 3472SOL    HW210430   4.630   4.493   1.235
 3473SOL     OW10431   3.764   4.268   1.114
 3473SOL    HW110432   3.849   4.235   1.073
 3473SOL    HW210433   3.777   4.283   1.212
 3474SOL     OW10434   3.913   4.244   1.722
 3474SOL    HW110435   3.972   4.204   1.652
 3474SOL    HW210436   3.855   4.315   1.681
 3475SOL     OW10437   4.539   4.296   0.325
 3475SOL    HW110438   4.546   4.207   0.279
 3475SOL    HW210439   4.445   4.330   0.317
 3476SOL     OW10440   4.395   4.188   1.269
 3476SOL    HW110441   4.361   4.099   1.239
 3476SOL    HW210442   4.421   4.242   1.189
 3477SOL     OW10443   4.197   4.224   0.191
 3477SOL    HW110444   4.258   4.304   0.195
 3477SOL    HW210445   4.102   4.255   0.198
 3478SOL     OW10446   3.883   4.861   1.466
 3478SOL    HW110447   3.905   4.800   1.542
 3478SOL    HW210448   3.893   4.812   1.380
 3479SOL     OW10449   5.026   4.579   0.309
 3479SOL    HW110450   4.940   4.548   0.351
 3479SOL    HW210451   5.022   4.565   0.210
 3480SOL     OW10452   4.627   3.810   0.133
 3480SOL    HW110453   4.678   3.811   0.047
 3480SOL    HW210454   4.683   3.768   0.204
 3481SOL     OW10455   3.987   4.050   0.720
 3481SOL    HW110456   3.908   4.101   0.686
 3481SOL    HW210457   3.978   4.035   0.818
 3482SOL     OW10458   4.640   4.634   0.291
 3482SOL    HW110459   4.703   4.672   0.223
 3482SOL    HW210460   4.680   4.551   0.330
 3483SOL     OW10461   4.738   3.960   0.971
 3483SOL    HW110462   4.730   3.924   0.878
 3483SOL    HW210463   4.736   3.884   1.036
 3484SOL     OW10464   3.829   4.737   1.726
 3484SOL    HW110465   3.752   4.704   1.780
 3484SOL    HW210466   3.914   4.707   1.768
 3485SOL     OW10467   4.396   3.927   1.489
 3485SOL    HW110468   4.486   3.911   1.449
 3485SOL    HW210469   4.404   3.932   1.588
 3486SOL     OW10470   3.799   4.069   0.033
 3486SOL    HW110471   3.707   4.041   0.004
 3486SOL    HW210472   3.830   4.146  -0.023
 3487SOL     OW10473   4.337   4.566   1.431
 3487SOL    HW110474   4.393   4.647   1.414
 3487SOL    HW210475   4.396   4.486   1.434
 3488SOL     OW10476   4.440   4.289   1.708
 3488SOL    HW110477   4.459   4.354   1.782
 3488SOL    HW210478   4.500   4.209   1.717
 3489SOL     OW10479   4.949   4.049   0.449
 3489SOL    HW110480   5.014   3.975   0.438
 3489SOL    HW210481   4.969   4.099   0.533
 3490SOL     OW10482   4.318   4.469   0.652
 3490SOL    HW110483   4.368   4.554   0.633
 3490SOL    HW210484   4.230   4.471   0.604
 3491SOL     OW10485   4.583   4.680   0.861
 3491SOL    HW110486   4.637   4.611   0.909
 3491SOL    HW210487   4.551   4.749   0.927
 3492SOL     OW10488   4.807   4.708   0.087
 3492SOL    HW110489   4.784   4.761   0.005
 3492SOL    HW210490   4.888   4.652   0.068
 3493SOL     OW10491   3.803   4.964   0.653
 3493SOL    HW110492   3.802   4.917   0.741
 3493SOL    HW210493   3.885   4.936   0.602
 3494SOL     OW10494   4.152   4.148   0.520
 3494SOL    HW110495   4.182   4.076   0.458
 3494SOL    HW210496   4.113   4.108   0.603
 3495SOL     OW10497   4.041   4.271   1.280
 3495SOL    HW110498   4.079   4.212   1.352
 3495SOL    HW210499   4.081   4.245   1.192
 3496SOL     OW10500   4.725   3.758   1.154
 3496SOL    HW110501   4.662   3.686   1.123
 3496SOL    HW210502   4.818   3.722   1.154
 3497SOL     OW10503   3.763   4.801   0.300
 3497SOL    HW110504   3.862   4.790   0.291
 3497SOL    HW210505   3.723   4.715   0.332
 3498SOL     OW10506   3.954   4.352   1.975
 3498SOL    HW110507   3.861   4.350   2.012
 3498SOL    HW210508   3.955   4.313   1.883
 3499SOL     OW10509   3.949   3.999   2.858
 3499SOL    HW110510   3.984   3.982   2.950
 3499SOL    HW210511   3.861   3.954   2.846
 3500SOL     OW10512   3.743   4.092   2.509
 3500SOL    HW110513   3.661   4.135   2.548
 3500SOL    HW210514   3.715   4.019   2.446
 3501SOL     OW10515   4.492   4.868   2.885
 3501SOL    HW110516   4.414   4.885   2.945
 3501SOL    HW210517   4.526   4.955   2.849
 3502SOL     OW10518   4.574   4.522   3.685
 3502SOL    HW110519   4.570   4.598   3.750
 3502SOL    HW210520   4.596   4.558   3.594
 3503SOL     OW10521   4.409   4.736   2.527
 3503SOL    HW110522   4.478   4.720   2.597
 3503SOL    HW210523   4.336   4.793   2.565
 3504SOL     OW10524   4.162   4.116   3.361
 3504SOL    HW110525   4.244   4.060   3.370
 3504SOL    HW210526   4.081   4.058   3.365
 3505SOL     OW10527   3.964   4.815   2.748
 3505SOL    HW110528   3.978   4.731   2.800
 3505SOL    HW210529   3.909   4.879   2.803
 3506SOL     OW10530   3.846   4.367   2.425
 3506SOL    HW110531   3.801   4.279   2.442
 3506SOL    HW210532   3.845   4.421   2.509
 3507SOL     OW10533   3.837   4.461   3.459
 3507SOL    HW110534   3.925   4.448   3.504
 3507SOL    HW210535   3.824   4.558   3.437
 3508SOL     OW10536   4.533   3.728   2.364
 3508SOL    HW110537   4.573   3.819   2.355
 3508SOL    HW210538   4.433   3.736   2.370
 3509SOL     OW10539   3.921   4.700   3.126
 3509SOL    HW110540   4.010   4.655   3.112
 3509SOL    HW210541   3.848   4.635   3.107
 3510SOL     OW10542   4.041   3.975   3.663
 3510SOL    HW110543   4.112   4.046   3.669
 3510SOL    HW210544   3.953   4.014   3.691
 3511SOL     OW10545   4.322   4.453   2.132
 3511SOL    HW110546   4.346   4.522   2.064
 3511SOL    HW210547   4.244   4.486   2.186
 3512SOL     OW10548   4.531   4.329   3.327
 3512SOL    HW110549   4.484   4.326   3.416
 3512SOL    HW210550   4.480   4.274   3.261
 3513SOL     OW10551   4.697   4.614   3.434
 3513SOL    HW110552   4.743   4.530   3.405
 3513SOL    HW210553   4.641   4.648   3.359
 3514SOL     OW10554   4.715   4.134   3.104
 3514SOL    HW110555   4.638   4.168   3.158
 3514SOL    HW210556   4.681   4.083   3.025
 3515SOL     OW10557   3.800   4.535   2.651
 3515SOL    HW110558   3.899   4.523   2.660
 3515SOL    HW210559   3.776   4.630   2.672
 3516SOL     OW10560   4.589   4.072   2.057
 3516SOL    HW110561   4.648   4.135   2.008
 3516SOL    HW210562   4.608   3.978   2.028
 3517SOL     OW10563   4.274   3.920   2.747
 3517SOL    HW110564   4.269   3.915   2.847
 3517SOL    HW210565   4.276   4.016   2.718
 3518SOL     OW10566   3.926   4.009   3.360
 3518SOL    HW110567   3.846   4.069   3.347
 3518SOL    HW210568   3.916   3.960   3.446
 3519SOL     OW10569   4.106   4.424   2.342
 3519SOL    HW110570   4.151   4.334   2.339
 3519SOL    HW210571   4.012   4.413   2.375
 3520SOL     OW10572   4.338   3.846   1.979
 3520SOL    HW110573   4.436   3.824   1.986
 3520SOL    HW210574   4.307   3.829   1.886
 3521SOL     OW10575   4.505   3.988   3.611
 3521SOL    HW110576   4.572   3.927   3.654
 3521SOL    HW210577   4.432   4.007   3.676
 3522SOL     OW10578   4.646   4.227   2.761
 3522SOL    HW110579   4.621   4.218   2.665
 3522SOL    HW210580   4.694   4.145   2.792
 3523SOL     OW10581   4.263   3.788   2.374
 3523SOL    HW110582   4.182   3.789   2.432
 3523SOL    HW210583   4.266   3.871   2.319
 3524SOL     OW10584   4.021   3.759   2.033
 3524SOL    HW110585   4.070   3.843   2.012
 3524SOL    HW210586   4.083   3.694   2.078
 3525SOL     OW10587   4.659   3.960   2.342
 3525SOL    HW110588   4.611   4.001   2.264
 3525SOL    HW210589   4.758   3.958   2.323
 3526SOL     OW10590   3.802   4.280   3.248
 3526SOL    HW110591   3.894   4.279   3.207
 3526SOL    HW210592   3.796   4.354   3.315
 3527SOL     OW10593   4.285   3.946   3.009
 3527SOL    HW110594   4.323   3.862   3.046
 3527SOL    HW210595   4.197   3.965   3.053
 3528SOL     OW10596   4.741   3.763   2.615
 3528SOL    HW110597   4.669   3.768   2.546
 3528SOL    HW210598   4.717   3.694   2.684
 3529SOL     OW10599   4.251   3.980   2.190
 3529SOL    HW110600   4.278   3.921   2.115
 3529SOL    HW210601   4.251   4.075   2.159
 3530SOL     OW10602   4.639   3.813   3.264
 3530SOL    HW110603   4.664   3.793   3.169
 3530SOL    HW210604   4.711   3.869   3.306
 3531SOL     OW10605   4.704   4.840   3.581
 3531SOL    HW110606   4.605   4.846   3.591
 3531SOL    HW210607   4.727   4.760   3.525
 3532SOL     OW10608   4.134   4.537   3.113
 3532SOL    HW110609   4.220   4.549   3.163
 3532SOL    HW210610   4.092   4.450   3.140
 3533SOL     OW10611   4.290   4.261   2.727
 3533SOL    HW110612   4.302   4.327   2.653
 3533SOL    HW210613   4.336   4.295   2.810
 3534SOL     OW10614   4.126   4.475   3.460
 3534SOL    HW110615   4.194   4.530   3.413
 3534SOL    HW210616   4.166   4.387   3.487
 3535SOL     OW10617   4.737   3.829   3.632
 3535SOL    HW110618   4.743   3.914   3.580
 3535SOL    HW210619   4.769   3.753   3.575
 3536SOL     OW10620   4.228   3.774   3.602
 3536SOL    HW110621   4.186   3.717   3.532
 3536SOL    HW210622   4.162   3.843   3.634
 3537SOL     OW10623   4.297   4.594   2.891
 3537SOL    HW110624   4.341   4.683   2.882
 3537SOL    HW210625   4.234   4.594   2.968
 3538SOL     OW10626   4.933   4.249   2.137
 3538SOL    HW110627   4.946   4.165   2.191
 3538SOL    HW210628   4.904   4.323   2.197
 3539SOL     OW10629   4.031   3.937   3.093
 3539SOL    HW110630   4.008   3.974   3.183
 3539SOL    HW210631   4.001   3.842   3.087
 3540SOL     OW10632   4.456   4.358   2.926
 3540SOL    HW110633   4.515   4.332   2.850
 3540SOL    HW210634   4.428   4.454   2.915
 3541SOL     OW10635   4.031   3.787   2.480
 3541SOL    HW110636   4.020   3.881   2.513
 3541SOL    HW210637   4.026   3.724   2.557
 3542SOL     OW10638   4.747   4.490   2.828
 3542SOL    HW110639   4.762   4.511   2.924
 3542SOL    HW210640   4.717   4.395   2.819
 3543SOL     OW10641   4.074   4.622   3.666
 3543SOL    HW110642   4.150   4.666   3.714
 3543SOL    HW210643   4.109   4.575   3.584
 3544SOL     OW10644   4.043   4.534   2.811
 3544SOL    HW110645   4.136   4.570   2.816
 3544SOL    HW210646   4.037   4.449   2.863
 3545SOL     OW10647   4.063   4.233   2.868
 3545SOL    HW110648   4.011   4.150   2.851
 3545SOL    HW210649   4.140   4.238   2.804
 3546SOL     OW10650   4.726   4.520   3.100
 3546SOL    HW110651   4.767   4.488   3.186
 3546SOL    HW210652   4.630   4.493   3.097
 3547SOL     OW10653   3.764   4.268   2.976
 3547SOL    HW110654   3.849   4.235   2.935
 3547SOL    HW210655   3.777   4.283   3.074
 3548SOL     OW10656   3.913   4.244   3.584
 3548SOL    HW110657   3.972   4.204   3.514
 3548SOL    HW210658   3.855   4.315   3.543
 3549SOL     OW10659   4.539   4.296   2.187
 3549SOL    HW110660   4.546   4.207   2.141
 3549SOL    HW210661   4.445   4.330   2.179
 3550SOL     OW10662   4.395   4.188   3.131
 3550SOL    HW110663   4.361   4.099   3.101
 3550SOL    HW210664   4.421   4.242   3.051
 3551SOL     OW10665   4.197   4.224   2.053
 3551SOL    HW110666   4.258   4.304   2.057
 3551SOL    HW210667   4.102   4.255   2.060
 3552SOL     OW10668   3.883   4.861   3.328
 3552SOL    HW110669   3.905   4.800   3.404
 3552SOL    HW210670   3.893   4.812   3.242
 3553SOL     OW10671   5.026   4.579   2.171
 3553SOL    HW110672   4.940   4.548   2.213
 3553SOL    HW210673   5.022   4.565   2.072
 3554SOL     OW10674   3.987   4.050   2.582
 3554SOL    HW110675   3.908   4.101   2.548
 3554SOL    HW210676   3.978   4.035   2.680
 3555SOL     OW10677   4.640   4.634   2.153
 3555SOL    HW110678   4.703   4.672   2.085
 3555SOL    HW210679   4.680   4.551   2.192
 3556SOL     OW10680   4.738   3.960   2.833
 3556SOL    HW110681   4.730   3.924   2.740
 3556SOL    HW210682   4.736   3.884   2.898
 3557SOL     OW10683   3.829   4.737   3.588
 3557SOL    HW110684   3.752   4.704   3.642
 3557SOL    HW210685   3.914   4.707   3.630
 3558SOL     OW10686   4.396   3.927   3.351
 3558SOL    HW110687   4.486   3.911   3.311
 3558SOL    HW210688   4.404   3.932   3.450
 3559SOL     OW10689   3.799   4.069   1.895
 3559SOL    HW110690   3.707   4.041   1.866
 3559SOL    HW210691   3.830   4.146   1.839
 3560SOL     OW10692   3.796   3.890   2.180
 3560SOL    HW110693   3.779   3.973   2.126
 3560SOL    HW210694   3.886   3.853   2.158
 3561SOL     OW10695   4.337   4.566   3.293
 3561SOL    HW110696   4.393   4.647   3.276
 3561SOL    HW210697   4.396   4.486   3.296
 3562SOL     OW10698   4.440   4.289   3.570
 3562SOL    HW110699   4.459   4.354   3.644
 3562SOL    HW210700   4.500   4.209   3.579
 3563SOL     OW10701   4.949   4.049   2.311
 3563SOL    HW110702   5.014   3.975   2.300
 3563SOL    HW210703   4.969   4.099   2.395
 3564SOL     OW10704   4.318   4.469   2.514
 3564SOL    HW110705   4.368   4.554   2.495
 3564SOL    HW210706   4.230   4.471   2.466
 3565SOL     OW10707   4.583   4.680   2.723
 3565SOL    HW110708   4.637   4.611   2.771
 3565SOL    HW210709   4.551   4.749   2.789
 3566SOL     OW10710   3.803   4.964   2.515
 3566SOL    HW110711   3.802   4.917   2.603
 3566SOL    HW210712   3.885   4.936   2.464
 3567SOL     OW10713   4.152   4.148   2.382
 3567SOL    HW110714   4.182   4.076   2.320
 3567SOL    HW210715   4.113   4.108   2.465
 3568SOL     OW10716   4.041   4.271   3.142
 3568SOL    HW110717   4.079   4.212   3.214
 3568SOL    HW210718   4.081   4.245   3.054
 3569SOL     OW10719   4.725   3.758   3.016
 3569SOL    HW110720   4.662   3.686   2.985
 3569SOL    HW210721   4.818   3.722   3.016
 3570SOL     OW10722   3.954   4.352   3.837
 3570SOL    HW110723   3.861   4.350   3.874
 3570SOL    HW210724   3.955   4.313   3.745
 3571SOL     OW10725   3.949   3.999   4.720
 3571SOL    HW110726   3.984   3.982   4.812
 3571SOL    HW210727   3.861   3.954   4.708
 3572SOL     OW10728   3.743   4.092   4.371
 3572SOL    HW110729   3.661   4.135   4.410
 3572SOL    HW210730   3.715   4.019   4.308
 3573SOL     OW10731   4.409   4.736   4.389
 3573SOL    HW110732   4.478   4.720   4.459
 3573SOL    HW210733   4.336   4.793   4.427
 3574SOL     OW10734   3.964   4.815   4.610
 3574SOL    HW110735   3.978   4.731   4.662
 3574SOL    HW210736   3.909   4.879   4.665
 3575SOL     OW10737   3.846   4.367   4.287
 3575SOL    HW110738   3.801   4.279   4.304
 3575SOL    HW210739   3.845   4.421   4.371
 3576SOL     OW10740   4.533   3.728   4.226
 3576SOL    HW110741   4.573   3.819   4.217
 3576SOL    HW210742   4.433   3.736   4.232
 3577SOL     OW10743   4.322   4.453   3.994
 3577SOL    HW110744   4.346   4.522   3.926
 3577SOL    HW210745   4.244   4.486   4.048
 3578SOL     OW10746   3.800   4.535   4.513
 3578SOL    HW110747   3.899   4.523   4.522
 3578SOL    HW210748   3.776   4.630   4.534
 3579SOL     OW10749   4.589   4.072   3.919
 3579SOL    HW110750   4.648   4.135   3.870
 3579SOL    HW210751   4.608   3.978   3.890
 3580SOL     OW10752   4.274   3.920   4.609
 3580SOL    HW110753   4.269   3.915   4.709
 3580SOL    HW210754   4.276   4.016   4.580
 3581SOL     OW10755   4.106   4.424   4.204
 3581SOL    HW110756   4.151   4.334   4.201
 3581SOL    HW210757   4.012   4.413   4.237
 3582SOL     OW10758   4.338   3.846   3.841
 3582SOL    HW110759   4.436   3.824   3.848
 3582SOL    HW210760   4.307   3.829   3.748
 3583SOL     OW10761   4.646   4.227   4.623
 3583SOL    HW110762   4.621   4.218   4.527
 3583SOL    HW210763   4.694   4.145   4.654
 3584SOL     OW10764   4.263   3.788   4.236
 3584SOL    HW110765   4.182   3.789   4.294
 3584SOL    HW210766   4.266   3.871   4.181
 3585SOL     OW10767   4.021   3.759   3.895
 3585SOL    HW110768   4.070   3.843   3.874
 3585SOL    HW210769   4.083   3.694   3.940
 3586SOL     OW10770   4.659   3.960   4.204
 3586SOL    HW110771   4.611   4.001   4.126
 3586SOL    HW210772   4.758   3.958   4.185
 3587SOL     OW10773   4.741   3.763   4.477
 3587SOL    HW110774   4.669   3.768   4.408
 3587SOL    HW210775   4.717   3.694   4.546
 3588SOL     OW10776   4.251   3.980   4.052
 3588SOL    HW110777   4.278   3.921   3.977
 3588SOL    HW210778   4.251   4.075   4.021
 3589SOL     OW10779   4.835   4.919   4.824
 3589SOL    HW110780   4.795   4.963   4.905
 3589SOL    HW210781   4.794   4.956   4.741
 3590SOL     OW10782   4.290   4.261   4.589
 3590SOL    HW110783   4.302   4.327   4.515
 3590SOL    HW210784   4.336   4.295   4.672
 3591SOL     OW10785   4.297   4.594   4.753
 3591SOL    HW110786   4.341   4.683   4.744
 3591SOL    HW210787   4.234   4.594   4.830
 3592SOL     OW10788   4.933   4.249   3.999
 3592SOL    HW110789   4.946   4.165   4.053
 3592SOL    HW210790   4.904   4.323   4.059
 3593SOL     OW10791   4.031   3.937   4.955
 3593SOL    HW110792   4.008   3.974   5.045
 3593SOL    HW210793   4.001   3.842   4.949
 3594SOL     OW10794   4.456   4.358   4.788
 3594SOL    HW110795   4.515   4.332   4.712
 3594SOL    HW210796   4.428   4.454   4.777
 3595SOL     OW10797   4.031   3.787   4.342
 3595SOL    HW110798   4.020   3.881   4.375
 3595SOL    HW210799   4.026   3.724   4.419
 3596SOL     OW10800   4.747   4.490   4.690
 3596SOL    HW110801   4.762   4.511   4.786
 3596SOL    HW210802   4.717   4.395   4.681
 3597SOL     OW10803   4.043   4.534   4.673
 3597SOL    HW110804   4.136   4.570   4.678
 3597SOL    HW210805   4.037   4.449   4.725
 3598SOL     OW10806   4.063   4.233   4.730
 3598SOL    HW110807   4.011   4.150   4.713
 3598SOL    HW210808   4.140   4.238   4.666
 3599SOL     OW10809   4.539   4.296   4.049
 3599SOL    HW110810   4.546   4.207   4.003
 3599SOL    HW210811   4.445   4.330   4.041
 3600SOL     OW10812   4.395   4.188   4.993
 3600SOL    HW110813   4.361   4.099   4.963
 3600SOL    HW210814   4.421   4.242   4.913
 3601SOL     OW10815   4.197   4.224   3.915
 3601SOL    HW110816   4.258   4.304   3.919
 3601SOL    HW210817   4.102   4.255   3.922
 3602SOL     OW10818   5.026   4.579   4.033
 3602SOL    HW110819   4.940   4.548   4.075
 3602SOL    HW210820   5.022   4.565   3.934
 3603SOL     OW10821   3.987   4.050   4.444
 3603SOL    HW110822   3.908   4.101   4.410
 3603SOL    HW210823   3.978   4.035   4.542
 3604SOL     OW10824   4.640   4.634   4.015
 3604SOL    HW110825   4.703   4.672   3.947
 3604SOL    HW210826   4.680   4.551   4.054
 3605SOL     OW10827   3.799   4.069   3.757
 3605SOL    HW110828   3.707   4.041   3.728
 3605SOL    HW210829   3.830   4.146   3.701
 3606SOL     OW10830   3.796   3.890   4.042
 3606SOL    HW110831   3.779   3.973   3.988
 3606SOL    HW210832   3.886   3.853   4.020
 3607SOL     OW10833   4.949   4.049   4.173
 3607SOL    HW110834   5.014   3.975   4.162
 3607SOL    HW210835   4.969   4.099   4.257
 3608SOL     OW10836   4.318   4.469   4.376
 3608SOL    HW110837   4.368   4.554   4.357
 3608SOL    HW210838   4.230   4.471   4.328
 3609SOL     OW10839   4.583   4.680   4.585
 3609SOL    HW110840   4.637   4.611   4.633
 3609SOL    HW210841   4.551   4.749   4.651
 3610SOL     OW10842   3.803   4.964   4.377
 3610SOL    HW110843   3.802   4.917   4.465
 3610SOL    HW210844   3.885   4.936   4.326
 3611SOL     OW10845   4.152   4.148   4.244
 3611SOL    HW110846   4.182   4.076   4.182
 3611SOL    HW210847   4.113   4.108   4.327
   4.79204   4.79204   4.79204
