mobley_2481002_GMX.gro created by acpype (v: 2023.10.27) on Wed May 20 23:46:02 2026
 7
    1  MOL   C1    1   0.143  -0.014   0.049
    1  MOL   N1    2  -0.002   0.000  -0.001
    1  MOL   O1    3  -0.048  -0.090  -0.073
    1  MOL   O2    4  -0.068   0.100   0.033
    1  MOL  CL1    5   0.148  -0.163   0.145
    1  MOL  CL2    6   0.245  -0.023  -0.096
    1  MOL  CL3    7   0.188   0.126   0.148
    6.26200     5.77800     4.87000
