; mobley_2481002_GMX_OPLS.itp created by acpype (v: 2023.10.27) on Wed May 20 23:46:02 2026

; For OPLS atomtypes manual fine tuning
; AC_at:OPLS_at:OPLScode: Possible_Alternatives (see ffoplsaa.atp and ffoplsaanb.itp)
; c3:CT:opls_135: ['136', '137', '149', '157', '158', '206', '209', '210', '223B', '224B', '245', '246', '274', '283', '284', '285', '292', '292B', '293B', '296', '307', '308', '505']
; no:x:opls_x: []
; o:O:opls_236: ['272']
; cl:x:opls_x: []

[ moleculetype ]
;name            nrexcl
 mobley_2481002   3

[ atoms ]
;   nr  type  resi  res  atom  cgnr     charge      mass       ; qtot   bond_type
     1 opls_135     1   MOL    C1    1     0.182900     12.01100 ; qtot  0.183  CT  
     2 opls_x     1   MOL    N1    2     0.232301      0.00000 ; qtot  0.415  x   
     3 opls_236     1   MOL    O1    3    -0.147500     15.99940 ; qtot  0.268  O   
     4 opls_236     1   MOL    O2    4    -0.147500     15.99940 ; qtot  0.120  O   
     5 opls_x     1   MOL   CL1    5    -0.040067      0.00000 ; qtot  0.080  x   
     6 opls_x     1   MOL   CL2    6    -0.040067      0.00000 ; qtot  0.040  x   
     7 opls_x     1   MOL   CL3    7    -0.040067      0.00000 ; qtot -0.000  x   

[ bonds ]
;   ai     aj funct   r             k
     1      2   1 ;    1.5232e-01    1.7705e+05 ;     C1 - N1         CT - x     
     1      5   1 ;    1.8092e-01    1.3724e+05 ;     C1 - CL1        CT - x     
     1      6   1 ;    1.8092e-01    1.3724e+05 ;     C1 - CL2        CT - x     
     1      7   1 ;    1.8092e-01    1.3724e+05 ;     C1 - CL3        CT - x     
     2      3   1 ;    1.2311e-01    3.0270e+05 ;     N1 - O1          x - O     
     2      4   1 ;    1.2311e-01    3.0270e+05 ;     N1 - O2          x - O     

[ pairs ]
;   ai     aj    funct
     5      3      1 ;    CL1 - O1    
     5      4      1 ;    CL1 - O2    
     6      3      1 ;    CL2 - O1    
     6      4      1 ;    CL2 - O2    
     7      3      1 ;    CL3 - O1    
     7      4      1 ;    CL3 - O2    

[ angles ]
;   ai     aj     ak    funct   theta         cth
     1      2      3      1 ;    1.1693e+02    8.1027e+02 ;     C1 - N1   - O1       CT -    x - O   
     1      2      4      1 ;    1.1693e+02    8.1027e+02 ;     C1 - N1   - O2       CT -    x - O   
     2      1      5      1 ;    1.0619e+02    5.7773e+02 ;     N1 - C1   - CL1       x -   CT - x   
     2      1      6      1 ;    1.0619e+02    5.7773e+02 ;     N1 - C1   - CL2       x -   CT - x   
     2      1      7      1 ;    1.0619e+02    5.7773e+02 ;     N1 - C1   - CL3       x -   CT - x   
     3      2      4      1 ;    1.2505e+02    1.0964e+03 ;     O1 - N1   - O2        O -    x - O   
     5      1      6      1 ;    1.0934e+02    5.8225e+02 ;    CL1 - C1   - CL2       x -   CT - x   
     5      1      7      1 ;    1.0934e+02    5.8225e+02 ;    CL1 - C1   - CL3       x -   CT - x   
     6      1      7      1 ;    1.0934e+02    5.8225e+02 ;    CL2 - C1   - CL3       x -   CT - x   

[ dihedrals ] ; propers
; for gromacs 4.5 or higher, using funct 9
;    i      j      k      l   func   phase     kd      pn
     5      1      2      3      9 ;     0.00   0.00000   0 ;    CL1-    C1-    N1-    O1
     5      1      2      4      9 ;     0.00   0.00000   0 ;    CL1-    C1-    N1-    O2
     6      1      2      3      9 ;     0.00   0.00000   0 ;    CL2-    C1-    N1-    O1
     6      1      2      4      9 ;     0.00   0.00000   0 ;    CL2-    C1-    N1-    O2
     7      1      2      3      9 ;     0.00   0.00000   0 ;    CL3-    C1-    N1-    O1
     7      1      2      4      9 ;     0.00   0.00000   0 ;    CL3-    C1-    N1-    O2

[ dihedrals ] ; impropers
; treated as propers in GROMACS to use correct AMBER analytical function
;    i      j      k      l   func   phase     kd      pn
     1      3      2      4      4 ;   180.00   4.60240   2 ;     C1-    O1-    N1-    O2
