mobley_4780078_GMX.gro created by acpype (v: 2023.10.27) on Wed May 20 23:43:56 2026
 19
    1  MOL   C1    1   0.082  -0.044   0.056
    1  MOL   C2    2   0.080  -0.041   0.196
    1  MOL   C3    3   0.294  -0.160   0.062
    1  MOL   C4    4   0.189  -0.103  -0.011
    1  MOL   C5    5   0.292  -0.157   0.201
    1  MOL   C6    6   0.185  -0.097   0.268
    1  MOL   C7    7   0.191  -0.107  -0.160
    1  MOL   C8    8   0.405  -0.217   0.277
    1  MOL   O1    9   0.182  -0.093   0.405
    1  MOL   H1   10  -0.001   0.000   0.001
    1  MOL   H2   11  -0.004   0.006   0.247
    1  MOL   H3   12   0.377  -0.206   0.010
    1  MOL   H4   13   0.210  -0.209  -0.195
    1  MOL   H5   14   0.095  -0.073  -0.202
    1  MOL   H6   15   0.268  -0.041  -0.200
    1  MOL   H7   16   0.456  -0.141   0.338
    1  MOL   H8   17   0.370  -0.297   0.344
    1  MOL   H9   18   0.479  -0.262   0.210
    1  MOL  H10   19   0.116  -0.027   0.432
    9.64800     6.05600    12.67600
