24_dimethylphenol
    19
   0.8180000  -0.4390000   0.5640000   0.7990000  -0.4060000   1.9590000
   2.9370000  -1.5970000   0.6200000   1.8870000  -1.0340000  -0.1050000
   2.9180000  -1.5650000   2.0140000   1.8500000  -0.9690000   2.6840000
   1.9060000  -1.0690000  -1.5960000   4.0520000  -2.1710000   2.7740000
   1.8160000  -0.9290000   4.0450000  -0.0050000   0.0020000   0.0080000
  -0.0360000   0.0590000   2.4740000   3.7700000  -2.0610000   0.0970000
   2.1010000  -2.0880000  -1.9520000   0.9490000  -0.7310000  -2.0150000
   2.6820000  -0.4050000  -2.0000000   4.5550000  -1.4080000   3.3790000
   3.7010000  -2.9690000   3.4400000   4.7880000  -2.6210000   2.0960000
   1.1580000  -0.2660000   4.3230000
