; mobley_6190089_GMX_OPLS.itp created by acpype (v: 2023.10.27) on Wed May 20 23:45:54 2026

; For OPLS atomtypes manual fine tuning
; AC_at:OPLS_at:OPLScode: Possible_Alternatives (see ffoplsaa.atp and ffoplsaanb.itp)
; c3:CT:opls_135: ['136', '137', '149', '157', '158', '206', '209', '210', '223B', '224B', '245', '246', '274', '283', '284', '285', '292', '292B', '293B', '296', '307', '308', '505']
; cl:x:opls_x: []
; h2:x:opls_x: []

[ moleculetype ]
;name            nrexcl
 mobley_6190089   3

[ atoms ]
;   nr  type  resi  res  atom  cgnr     charge      mass       ; qtot   bond_type
     1 opls_135     1   MOL    C1    1     0.122100     12.01100 ; qtot  0.122  CT  
     2 opls_135     1   MOL    C2    2     0.122100     12.01100 ; qtot  0.244  CT  
     3 opls_x     1   MOL   CL1    3    -0.117900      0.00000 ; qtot  0.126  x   
     4 opls_x     1   MOL   CL2    4    -0.117900      0.00000 ; qtot  0.008  x   
     5 opls_x     1   MOL   CL3    5    -0.117900      0.00000 ; qtot -0.110  x   
     6 opls_x     1   MOL   CL4    6    -0.117900      0.00000 ; qtot -0.227  x   
     7 opls_x     1   MOL    H1    7     0.113700      0.00000 ; qtot -0.114  x   
     8 opls_x     1   MOL    H2    8     0.113700      0.00000 ; qtot  0.000  x   

[ bonds ]
;   ai     aj funct   r             k
     1      2   1 ;    1.5354e-01    1.9154e+05 ;     C1 - C2         CT - CT    
     1      3   1 ;    1.8092e-01    1.3724e+05 ;     C1 - CL1        CT - x     
     1      4   1 ;    1.8092e-01    1.3724e+05 ;     C1 - CL2        CT - x     
     1      7   1 ;    1.0950e-01    2.9039e+05 ;     C1 - H1         CT - x     
     2      5   1 ;    1.8092e-01    1.3724e+05 ;     C2 - CL3        CT - x     
     2      6   1 ;    1.8092e-01    1.3724e+05 ;     C2 - CL4        CT - x     
     2      8   1 ;    1.0950e-01    2.9039e+05 ;     C2 - H2         CT - x     

[ pairs ]
;   ai     aj    funct
     3      5      1 ;    CL1 - CL3   
     3      6      1 ;    CL1 - CL4   
     3      8      1 ;    CL1 - H2    
     4      5      1 ;    CL2 - CL3   
     4      6      1 ;    CL2 - CL4   
     4      8      1 ;    CL2 - H2    
     7      5      1 ;     H1 - CL3   
     7      6      1 ;     H1 - CL4   
     7      8      1 ;     H1 - H2    

[ angles ]
;   ai     aj     ak    funct   theta         cth
     1      2      5      1 ;    1.1039e+02    5.3254e+02 ;     C1 - C2   - CL3      CT -   CT - x   
     1      2      6      1 ;    1.1039e+02    5.3254e+02 ;     C1 - C2   - CL4      CT -   CT - x   
     1      2      8      1 ;    1.1042e+02    3.6091e+02 ;     C1 - C2   - H2       CT -   CT - x   
     2      1      3      1 ;    1.1039e+02    5.3254e+02 ;     C2 - C1   - CL1      CT -   CT - x   
     2      1      4      1 ;    1.1039e+02    5.3254e+02 ;     C2 - C1   - CL2      CT -   CT - x   
     2      1      7      1 ;    1.1042e+02    3.6091e+02 ;     C2 - C1   - H1       CT -   CT - x   
     3      1      4      1 ;    1.0934e+02    5.8225e+02 ;    CL1 - C1   - CL2       x -   CT - x   
     3      1      7      1 ;    1.0706e+02    3.6133e+02 ;    CL1 - C1   - H1        x -   CT - x   
     4      1      7      1 ;    1.0706e+02    3.6133e+02 ;    CL2 - C1   - H1        x -   CT - x   
     5      2      6      1 ;    1.0934e+02    5.8225e+02 ;    CL3 - C2   - CL4       x -   CT - x   
     5      2      8      1 ;    1.0706e+02    3.6133e+02 ;    CL3 - C2   - H2        x -   CT - x   
     6      2      8      1 ;    1.0706e+02    3.6133e+02 ;    CL4 - C2   - H2        x -   CT - x   

[ dihedrals ] ; propers
; for gromacs 4.5 or higher, using funct 9
;    i      j      k      l   func   phase     kd      pn
     3      1      2      5      9 ;     0.00   5.94128   3 ;    CL1-    C1-    C2-   CL3
     3      1      2      6      9 ;     0.00   5.94128   3 ;    CL1-    C1-    C2-   CL4
     3      1      2      8      9 ;     0.00   0.65084   3 ;    CL1-    C1-    C2-    H2
     4      1      2      5      9 ;     0.00   5.94128   3 ;    CL2-    C1-    C2-   CL3
     4      1      2      6      9 ;     0.00   5.94128   3 ;    CL2-    C1-    C2-   CL4
     4      1      2      8      9 ;     0.00   0.65084   3 ;    CL2-    C1-    C2-    H2
     7      1      2      5      9 ;     0.00   0.65084   3 ;     H1-    C1-    C2-   CL3
     7      1      2      6      9 ;     0.00   0.65084   3 ;     H1-    C1-    C2-   CL4
     7      1      2      8      9 ;     0.00   0.65084   3 ;     H1-    C1-    C2-    H2
