1,1,2,2-tetrachloroethane
     8
   0.4210000   0.2030000  -0.6170000  -0.4360000   0.0140000   0.6390000
   1.5840000  -1.1260000  -0.8840000  -0.6000000   0.3910000  -2.0720000
  -1.4330000  -1.4670000   0.5970000   0.5750000  -0.0000000   2.1130000
   1.0080000   1.1230000  -0.5370000  -1.1270000   0.8550000   0.7530000
