dimethyl_sulfide
     9
   0.9860000  -0.3290000   0.3400000   2.8850000  -0.4870000   2.3100000
   1.2240000   0.1820000   2.0580000   1.9250000  -0.2330000  -0.2100000
   0.2300000   0.3020000  -0.1330000   0.6550000  -1.3700000   0.3050000
   3.6330000   0.2750000   2.0740000   3.0400000  -1.3510000   1.6600000
   3.0070000  -0.7960000   3.3510000
