; mobley_9073553_GMX_OPLS.top created by acpype (v: 2023.10.27) on Wed May 20 23:53:35 2026

; Include forcefield parameters
#include "ffoplsaa.itp"

; Include mobley_9073553_GMX.itp topology
#include "mobley_9073553_GMX.itp"

; Ligand position restraints
#ifdef POSRES_LIG
#include "posre_mobley_9073553.itp"
#endif

[ system ]
 mobley_9073553

[ molecules ]
; Compound        nmols
 mobley_9073553   1     
