mobley_9073553_GMX.gro created by acpype (v: 2023.10.27) on Wed May 20 23:53:35 2026
 9
    1  MOL   C1    1   0.099  -0.033   0.034
    1  MOL   C2    2   0.288  -0.049   0.231
    1  MOL   S1    3   0.122   0.018   0.206
    1  MOL   H1    4   0.193  -0.023  -0.021
    1  MOL   H2    5   0.023   0.030  -0.013
    1  MOL   H3    6   0.066  -0.137   0.030
    1  MOL   H4    7   0.363   0.028   0.207
    1  MOL   H5    8   0.304  -0.135   0.166
    1  MOL   H6    9   0.301  -0.080   0.335
    6.80600     3.34400     7.12200
