; mobley_9073553_GMX_OPLS.itp created by acpype (v: 2023.10.27) on Wed May 20 23:53:35 2026

; For OPLS atomtypes manual fine tuning
; AC_at:OPLS_at:OPLScode: Possible_Alternatives (see ffoplsaa.atp and ffoplsaanb.itp)
; c3:CT:opls_135: ['136', '137', '149', '157', '158', '206', '209', '210', '223B', '224B', '245', '246', '274', '283', '284', '285', '292', '292B', '293B', '296', '307', '308', '505']
; ss:S:opls_202: []
; h1:HC:opls_140: []

[ moleculetype ]
;name            nrexcl
 mobley_9073553   3

[ atoms ]
;   nr  type  resi  res  atom  cgnr     charge      mass       ; qtot   bond_type
     1 opls_135     1   MOL    C1    1    -0.045000     12.01100 ; qtot -0.045  CT  
     2 opls_135     1   MOL    C2    2    -0.045000     12.01100 ; qtot -0.090  CT  
     3 opls_202     1   MOL    S1    3    -0.280200     32.06000 ; qtot -0.370  S   
     4 opls_140     1   MOL    H1    4     0.061700      1.00800 ; qtot -0.308  HC  
     5 opls_140     1   MOL    H2    5     0.061700      1.00800 ; qtot -0.247  HC  
     6 opls_140     1   MOL    H3    6     0.061700      1.00800 ; qtot -0.185  HC  
     7 opls_140     1   MOL    H4    7     0.061700      1.00800 ; qtot -0.123  HC  
     8 opls_140     1   MOL    H5    8     0.061700      1.00800 ; qtot -0.062  HC  
     9 opls_140     1   MOL    H6    9     0.061700      1.00800 ; qtot  0.000  HC  

[ bonds ]
;   ai     aj funct   r             k
     1      3   1 ;    1.8407e-01    1.5459e+05 ;     C1 - S1         CT - S     
     1      4   1 ;    1.0969e-01    2.8804e+05 ;     C1 - H1         CT - HC    
     1      5   1 ;    1.0969e-01    2.8804e+05 ;     C1 - H2         CT - HC    
     1      6   1 ;    1.0969e-01    2.8804e+05 ;     C1 - H3         CT - HC    
     2      3   1 ;    1.8407e-01    1.5459e+05 ;     C2 - S1         CT - S     
     2      7   1 ;    1.0969e-01    2.8804e+05 ;     C2 - H4         CT - HC    
     2      8   1 ;    1.0969e-01    2.8804e+05 ;     C2 - H5         CT - HC    
     2      9   1 ;    1.0969e-01    2.8804e+05 ;     C2 - H6         CT - HC    

[ pairs ]
;   ai     aj    funct
     1      7      1 ;     C1 - H4    
     1      8      1 ;     C1 - H5    
     1      9      1 ;     C1 - H6    
     4      2      1 ;     H1 - C2    
     5      2      1 ;     H2 - C2    
     6      2      1 ;     H3 - C2    

[ angles ]
;   ai     aj     ak    funct   theta         cth
     1      3      2      1 ;    9.9640e+01    7.7546e+02 ;     C1 - S1   - C2       CT -    S - CT  
     3      1      4      1 ;    1.0873e+02    3.5196e+02 ;     S1 - C1   - H1        S -   CT - HC  
     3      1      5      1 ;    1.0873e+02    3.5196e+02 ;     S1 - C1   - H2        S -   CT - HC  
     3      1      6      1 ;    1.0873e+02    3.5196e+02 ;     S1 - C1   - H3        S -   CT - HC  
     3      2      7      1 ;    1.0873e+02    3.5196e+02 ;     S1 - C2   - H4        S -   CT - HC  
     3      2      8      1 ;    1.0873e+02    3.5196e+02 ;     S1 - C2   - H5        S -   CT - HC  
     3      2      9      1 ;    1.0873e+02    3.5196e+02 ;     S1 - C2   - H6        S -   CT - HC  
     4      1      5      1 ;    1.0855e+02    2.9824e+02 ;     H1 - C1   - H2       HC -   CT - HC  
     4      1      6      1 ;    1.0855e+02    2.9824e+02 ;     H1 - C1   - H3       HC -   CT - HC  
     5      1      6      1 ;    1.0855e+02    2.9824e+02 ;     H2 - C1   - H3       HC -   CT - HC  
     7      2      8      1 ;    1.0855e+02    2.9824e+02 ;     H4 - C2   - H5       HC -   CT - HC  
     7      2      9      1 ;    1.0855e+02    2.9824e+02 ;     H4 - C2   - H6       HC -   CT - HC  
     8      2      9      1 ;    1.0855e+02    2.9824e+02 ;     H5 - C2   - H6       HC -   CT - HC  

[ dihedrals ] ; propers
; for gromacs 4.5 or higher, using funct 9
;    i      j      k      l   func   phase     kd      pn
     1      3      2      7      9 ;     0.00   0.92048   3 ;     C1-    S1-    C2-    H4
     1      3      2      8      9 ;     0.00   0.92048   3 ;     C1-    S1-    C2-    H5
     1      3      2      9      9 ;     0.00   0.92048   3 ;     C1-    S1-    C2-    H6
     4      1      3      2      9 ;     0.00   0.92048   3 ;     H1-    C1-    S1-    C2
     5      1      3      2      9 ;     0.00   0.92048   3 ;     H2-    C1-    S1-    C2
     6      1      3      2      9 ;     0.00   0.92048   3 ;     H3-    C1-    S1-    C2
