mobley_1838110_GMX.gro created by acpype (v: 2023.10.27) on Wed May 20 23:42:01 2026
    8
    1MOL     C1    1   2.270   2.196   2.226
    1MOL     C2    2   2.132   2.193   2.162
    1MOL     F1    3   2.308   2.069   2.257
    1MOL     F2    4   2.361   2.241   2.134
    1MOL     F3    5   2.141   2.116   2.049
    1MOL    CL1    6   2.281   2.297   2.372
    1MOL    CL2    7   2.078   2.356   2.113
    1MOL    CL3    8   2.011   2.118   2.270
   4.39584   4.39584   4.39584
