mobley_3976574_GMX.gro created by acpype (v: 2023.10.27) on Wed May 20 23:51:51 2026
   22
    1MOL     C1    1   2.615   2.795   2.543
    1MOL     C2    2   2.744   2.827   2.501
    1MOL     C3    3   2.786   2.595   2.448
    1MOL     C4    4   2.572   2.662   2.537
    1MOL     C5    5   2.657   2.562   2.490
    1MOL     C6    6   2.406   2.503   2.572
    1MOL     C7    7   2.491   2.404   2.525
    1MOL     C8    8   2.830   2.727   2.454
    1MOL     C9    9   2.277   2.471   2.614
    1MOL    C10   10   2.448   2.271   2.519
    1MOL    C11   11   2.234   2.338   2.609
    1MOL    C12   12   2.319   2.239   2.561
    1MOL     O1   13   2.444   2.635   2.580
    1MOL     O2   14   2.619   2.431   2.483
    1MOL    CL1   15   2.989   2.768   2.402
    1MOL    CL2   16   2.173   2.598   2.673
    1MOL    CL3   17   2.557   2.150   2.460
    1MOL    CL4   18   2.073   2.298   2.661
    1MOL    CL5   19   2.265   2.073   2.554
    1MOL     H1   20   2.549   2.873   2.580
    1MOL     H2   21   2.777   2.931   2.506
    1MOL     H3   22   2.852   2.517   2.411
   5.06162   5.06162   5.06162
