13_dimethylnaphthalene
    24
   0.3470000  -1.0290000   0.0270000  -0.5380000  -2.0540000   0.3450000
   1.6820000  -1.3210000  -0.2570000  -0.0920000  -3.3760000   0.3810000
   3.4870000  -2.9580000  -0.5090000   3.0470000  -5.3050000  -0.1550000
   2.1480000  -2.6450000  -0.2260000   1.2470000  -3.6880000   0.0980000
   3.9330000  -4.2790000  -0.4730000   1.7130000  -5.0130000   0.1290000
   5.3590000  -4.5930000  -0.7770000   0.8140000  -6.1630000   0.4640000
  -0.0000000  -0.0000000  -0.0010000  -1.5770000  -1.8260000   0.5660000
   2.3560000  -0.5030000  -0.5030000  -0.8140000  -4.1490000   0.6330000
   4.1900000  -2.1650000  -0.7600000   3.3980000  -6.3340000  -0.1290000
   5.9850000  -4.4200000   0.1070000   5.4790000  -5.6380000  -1.0900000
   5.7370000  -3.9710000  -1.5990000   1.1580000  -6.6540000   1.3790000
  -0.2170000  -5.8240000   0.6110000   0.7990000  -6.8980000  -0.3480000
