mobley_5665561_GMX.gro created by acpype (v: 2023.10.27) on Wed May 20 23:52:16 2026
 24
    1  MOL   C1    1   0.035  -0.103   0.003
    1  MOL   C2    2  -0.054  -0.205   0.034
    1  MOL   C3    3   0.168  -0.132  -0.026
    1  MOL   C4    4  -0.009  -0.338   0.038
    1  MOL   C5    5   0.349  -0.296  -0.051
    1  MOL   C6    6   0.305  -0.530  -0.015
    1  MOL   C7    7   0.215  -0.265  -0.023
    1  MOL   C8    8   0.125  -0.369   0.010
    1  MOL   C9    9   0.393  -0.428  -0.047
    1  MOL  C10   10   0.171  -0.501   0.013
    1  MOL  C11   11   0.536  -0.459  -0.078
    1  MOL  C12   12   0.081  -0.616   0.046
    1  MOL   H1   13  -0.000  -0.000  -0.000
    1  MOL   H2   14  -0.158  -0.183   0.057
    1  MOL   H3   15   0.236  -0.050  -0.050
    1  MOL   H4   16  -0.081  -0.415   0.063
    1  MOL   H5   17   0.419  -0.217  -0.076
    1  MOL   H6   18   0.340  -0.633  -0.013
    1  MOL   H7   19   0.599  -0.442   0.011
    1  MOL   H8   20   0.548  -0.564  -0.109
    1  MOL   H9   21   0.574  -0.397  -0.160
    1  MOL  H10   22   0.116  -0.665   0.138
    1  MOL  H11   23  -0.022  -0.582   0.061
    1  MOL  H12   24   0.080  -0.690  -0.035
   15.12400    13.79600     5.95600
