; mobley_5665561_GMX_OPLS.itp created by acpype (v: 2023.10.27) on Wed May 20 23:52:16 2026

; For OPLS atomtypes manual fine tuning
; AC_at:OPLS_at:OPLScode: Possible_Alternatives (see ffoplsaa.atp and ffoplsaanb.itp)
; ca:CA:opls_145: ['166', '501', '502']
; c3:CT:opls_135: ['136', '137', '149', '157', '158', '206', '209', '210', '223B', '224B', '245', '246', '274', '283', '284', '285', '292', '292B', '293B', '296', '307', '308', '505']
; ha:HA:opls_146: []
; hc:HC:opls_140: []

[ moleculetype ]
;name            nrexcl
 mobley_5665561   3

[ atoms ]
;   nr  type  resi  res  atom  cgnr     charge      mass       ; qtot   bond_type
     1 opls_145     1   MOL    C1    1    -0.128000     12.01100 ; qtot -0.128  CA  
     2 opls_145     1   MOL    C2    2    -0.131000     12.01100 ; qtot -0.259  CA  
     3 opls_145     1   MOL    C3    3    -0.119000     12.01100 ; qtot -0.378  CA  
     4 opls_145     1   MOL    C4    4    -0.117000     12.01100 ; qtot -0.495  CA  
     5 opls_145     1   MOL    C5    5    -0.125000     12.01100 ; qtot -0.620  CA  
     6 opls_145     1   MOL    C6    6    -0.130000     12.01100 ; qtot -0.750  CA  
     7 opls_145     1   MOL    C7    7    -0.030000     12.01100 ; qtot -0.780  CA  
     8 opls_145     1   MOL    C8    8    -0.036000     12.01100 ; qtot -0.816  CA  
     9 opls_145     1   MOL    C9    9    -0.071300     12.01100 ; qtot -0.887  CA  
    10 opls_145     1   MOL   C10   10    -0.061300     12.01100 ; qtot -0.949  CA  
    11 opls_135     1   MOL   C11   11    -0.053800     12.01100 ; qtot -1.002  CT  
    12 opls_135     1   MOL   C12   12    -0.055800     12.01100 ; qtot -1.058  CT  
    13 opls_146     1   MOL    H1   13     0.131000      1.00800 ; qtot -0.927  HA  
    14 opls_146     1   MOL    H2   14     0.131000      1.00800 ; qtot -0.796  HA  
    15 opls_146     1   MOL    H3   15     0.131000      1.00800 ; qtot -0.665  HA  
    16 opls_146     1   MOL    H4   16     0.133000      1.00800 ; qtot -0.532  HA  
    17 opls_146     1   MOL    H5   17     0.133000      1.00800 ; qtot -0.399  HA  
    18 opls_146     1   MOL    H6   18     0.131000      1.00800 ; qtot -0.268  HA  
    19 opls_140     1   MOL    H7   19     0.044367      1.00800 ; qtot -0.224  HC  
    20 opls_140     1   MOL    H8   20     0.044367      1.00800 ; qtot -0.179  HC  
    21 opls_140     1   MOL    H9   21     0.044367      1.00800 ; qtot -0.135  HC  
    22 opls_140     1   MOL   H10   22     0.045033      1.00800 ; qtot -0.090  HC  
    23 opls_140     1   MOL   H11   23     0.045033      1.00800 ; qtot -0.045  HC  
    24 opls_140     1   MOL   H12   24     0.045033      1.00800 ; qtot -0.000  HC  

[ bonds ]
;   ai     aj funct   r             k
     1      2   1 ;    1.3986e-01    2.9644e+05 ;     C1 - C2         CA - CA    
     1      3   1 ;    1.3986e-01    2.9644e+05 ;     C1 - C3         CA - CA    
     1     13   1 ;    1.0860e-01    3.0183e+05 ;     C1 - H1         CA - HA    
     2      4   1 ;    1.3986e-01    2.9644e+05 ;     C2 - C4         CA - CA    
     2     14   1 ;    1.0860e-01    3.0183e+05 ;     C2 - H2         CA - HA    
     3      7   1 ;    1.3986e-01    2.9644e+05 ;     C3 - C7         CA - CA    
     3     15   1 ;    1.0860e-01    3.0183e+05 ;     C3 - H3         CA - HA    
     4      8   1 ;    1.3986e-01    2.9644e+05 ;     C4 - C8         CA - CA    
     4     16   1 ;    1.0860e-01    3.0183e+05 ;     C4 - H4         CA - HA    
     5      7   1 ;    1.3986e-01    2.9644e+05 ;     C5 - C7         CA - CA    
     5      9   1 ;    1.3986e-01    2.9644e+05 ;     C5 - C9         CA - CA    
     5     17   1 ;    1.0860e-01    3.0183e+05 ;     C5 - H5         CA - HA    
     6      9   1 ;    1.3986e-01    2.9644e+05 ;     C6 - C9         CA - CA    
     6     10   1 ;    1.3986e-01    2.9644e+05 ;     C6 - C10        CA - CA    
     6     18   1 ;    1.0860e-01    3.0183e+05 ;     C6 - H6         CA - HA    
     7      8   1 ;    1.3986e-01    2.9644e+05 ;     C7 - C8         CA - CA    
     8     10   1 ;    1.3986e-01    2.9644e+05 ;     C8 - C10        CA - CA    
     9     11   1 ;    1.5147e-01    2.0410e+05 ;     C9 - C11        CA - CT    
    10     12   1 ;    1.5147e-01    2.0410e+05 ;    C10 - C12        CA - CT    
    11     19   1 ;    1.0962e-01    2.8891e+05 ;    C11 - H7         CT - HC    
    11     20   1 ;    1.0962e-01    2.8891e+05 ;    C11 - H8         CT - HC    
    11     21   1 ;    1.0962e-01    2.8891e+05 ;    C11 - H9         CT - HC    
    12     22   1 ;    1.0962e-01    2.8891e+05 ;    C12 - H10        CT - HC    
    12     23   1 ;    1.0962e-01    2.8891e+05 ;    C12 - H11        CT - HC    
    12     24   1 ;    1.0962e-01    2.8891e+05 ;    C12 - H12        CT - HC    

[ pairs ]
;   ai     aj    funct
     1      5      1 ;     C1 - C5    
     1      8      1 ;     C1 - C8    
     1     16      1 ;     C1 - H4    
     2      7      1 ;     C2 - C7    
     2     10      1 ;     C2 - C10   
     2     15      1 ;     C2 - H3    
     3      4      1 ;     C3 - C4    
     3      9      1 ;     C3 - C9    
     3     10      1 ;     C3 - C10   
     3     14      1 ;     C3 - H2    
     3     17      1 ;     C3 - H5    
     4      5      1 ;     C4 - C5    
     4      6      1 ;     C4 - C6    
     4     12      1 ;     C4 - C12   
     5     10      1 ;     C5 - C10   
     5     15      1 ;     C5 - H3    
     5     18      1 ;     C5 - H6    
     5     19      1 ;     C5 - H7    
     5     20      1 ;     C5 - H8    
     5     21      1 ;     C5 - H9    
     6      7      1 ;     C6 - C7    
     6     17      1 ;     C6 - H5    
     6     19      1 ;     C6 - H7    
     6     20      1 ;     C6 - H8    
     6     21      1 ;     C6 - H9    
     6     22      1 ;     C6 - H10   
     6     23      1 ;     C6 - H11   
     6     24      1 ;     C6 - H12   
     7     11      1 ;     C7 - C11   
     7     12      1 ;     C7 - C12   
     7     16      1 ;     C7 - H4    
     8      9      1 ;     C8 - C9    
     8     14      1 ;     C8 - H2    
     8     15      1 ;     C8 - H3    
     8     17      1 ;     C8 - H5    
     8     18      1 ;     C8 - H6    
     8     22      1 ;     C8 - H10   
     8     23      1 ;     C8 - H11   
     8     24      1 ;     C8 - H12   
     9     12      1 ;     C9 - C12   
    10     11      1 ;    C10 - C11   
    10     16      1 ;    C10 - H4    
    11     17      1 ;    C11 - H5    
    11     18      1 ;    C11 - H6    
    12     18      1 ;    C12 - H6    
    13      4      1 ;     H1 - C4    
    13      7      1 ;     H1 - C7    
    13     14      1 ;     H1 - H2    
    13     15      1 ;     H1 - H3    
    14     16      1 ;     H2 - H4    

[ angles ]
;   ai     aj     ak    funct   theta         cth
     1      2      4      1 ;    1.2002e+02    5.3279e+02 ;     C1 - C2   - C4       CA -   CA - CA  
     1      2     14      1 ;    1.1988e+02    3.7572e+02 ;     C1 - C2   - H2       CA -   CA - HA  
     1      3      7      1 ;    1.2002e+02    5.3279e+02 ;     C1 - C3   - C7       CA -   CA - CA  
     1      3     15      1 ;    1.1988e+02    3.7572e+02 ;     C1 - C3   - H3       CA -   CA - HA  
     2      1      3      1 ;    1.2002e+02    5.3279e+02 ;     C2 - C1   - C3       CA -   CA - CA  
     2      1     13      1 ;    1.1988e+02    3.7572e+02 ;     C2 - C1   - H1       CA -   CA - HA  
     2      4      8      1 ;    1.2002e+02    5.3279e+02 ;     C2 - C4   - C8       CA -   CA - CA  
     2      4     16      1 ;    1.1988e+02    3.7572e+02 ;     C2 - C4   - H4       CA -   CA - HA  
     3      1     13      1 ;    1.1988e+02    3.7572e+02 ;     C3 - C1   - H1       CA -   CA - HA  
     3      7      5      1 ;    1.2002e+02    5.3279e+02 ;     C3 - C7   - C5       CA -   CA - CA  
     3      7      8      1 ;    1.2002e+02    5.3279e+02 ;     C3 - C7   - C8       CA -   CA - CA  
     4      2     14      1 ;    1.1988e+02    3.7572e+02 ;     C4 - C2   - H2       CA -   CA - HA  
     4      8      7      1 ;    1.2002e+02    5.3279e+02 ;     C4 - C8   - C7       CA -   CA - CA  
     4      8     10      1 ;    1.2002e+02    5.3279e+02 ;     C4 - C8   - C10      CA -   CA - CA  
     5      7      8      1 ;    1.2002e+02    5.3279e+02 ;     C5 - C7   - C8       CA -   CA - CA  
     5      9      6      1 ;    1.2002e+02    5.3279e+02 ;     C5 - C9   - C6       CA -   CA - CA  
     5      9     11      1 ;    1.2083e+02    5.0827e+02 ;     C5 - C9   - C11      CA -   CA - CT  
     6      9     11      1 ;    1.2083e+02    5.0827e+02 ;     C6 - C9   - C11      CA -   CA - CT  
     6     10      8      1 ;    1.2002e+02    5.3279e+02 ;     C6 - C10  - C8       CA -   CA - CA  
     6     10     12      1 ;    1.2083e+02    5.0827e+02 ;     C6 - C10  - C12      CA -   CA - CT  
     7      3     15      1 ;    1.1988e+02    3.7572e+02 ;     C7 - C3   - H3       CA -   CA - HA  
     7      5      9      1 ;    1.2002e+02    5.3279e+02 ;     C7 - C5   - C9       CA -   CA - CA  
     7      5     17      1 ;    1.1988e+02    3.7572e+02 ;     C7 - C5   - H5       CA -   CA - HA  
     7      8     10      1 ;    1.2002e+02    5.3279e+02 ;     C7 - C8   - C10      CA -   CA - CA  
     8      4     16      1 ;    1.1988e+02    3.7572e+02 ;     C8 - C4   - H4       CA -   CA - HA  
     8     10     12      1 ;    1.2083e+02    5.0827e+02 ;     C8 - C10  - C12      CA -   CA - CT  
     9      5     17      1 ;    1.1988e+02    3.7572e+02 ;     C9 - C5   - H5       CA -   CA - HA  
     9      6     10      1 ;    1.2002e+02    5.3279e+02 ;     C9 - C6   - C10      CA -   CA - CA  
     9      6     18      1 ;    1.1988e+02    3.7572e+02 ;     C9 - C6   - H6       CA -   CA - HA  
     9     11     19      1 ;    1.1063e+02    3.6493e+02 ;     C9 - C11  - H7       CA -   CT - HC  
     9     11     20      1 ;    1.1063e+02    3.6493e+02 ;     C9 - C11  - H8       CA -   CT - HC  
     9     11     21      1 ;    1.1063e+02    3.6493e+02 ;     C9 - C11  - H9       CA -   CT - HC  
    10      6     18      1 ;    1.1988e+02    3.7572e+02 ;    C10 - C6   - H6       CA -   CA - HA  
    10     12     22      1 ;    1.1063e+02    3.6493e+02 ;    C10 - C12  - H10      CA -   CT - HC  
    10     12     23      1 ;    1.1063e+02    3.6493e+02 ;    C10 - C12  - H11      CA -   CT - HC  
    10     12     24      1 ;    1.1063e+02    3.6493e+02 ;    C10 - C12  - H12      CA -   CT - HC  
    19     11     20      1 ;    1.0773e+02    2.9957e+02 ;     H7 - C11  - H8       HC -   CT - HC  
    19     11     21      1 ;    1.0773e+02    2.9957e+02 ;     H7 - C11  - H9       HC -   CT - HC  
    20     11     21      1 ;    1.0773e+02    2.9957e+02 ;     H8 - C11  - H9       HC -   CT - HC  
    22     12     23      1 ;    1.0773e+02    2.9957e+02 ;    H10 - C12  - H11      HC -   CT - HC  
    22     12     24      1 ;    1.0773e+02    2.9957e+02 ;    H10 - C12  - H12      HC -   CT - HC  
    23     12     24      1 ;    1.0773e+02    2.9957e+02 ;    H11 - C12  - H12      HC -   CT - HC  

[ dihedrals ] ; propers
; for gromacs 4.5 or higher, using funct 9
;    i      j      k      l   func   phase     kd      pn
     1      2      4      8      9 ;   180.00  15.16700   2 ;     C1-    C2-    C4-    C8
     1      2      4     16      9 ;   180.00  15.16700   2 ;     C1-    C2-    C4-    H4
     1      3      7      5      9 ;   180.00  15.16700   2 ;     C1-    C3-    C7-    C5
     1      3      7      8      9 ;   180.00  15.16700   2 ;     C1-    C3-    C7-    C8
     2      1      3      7      9 ;   180.00  15.16700   2 ;     C2-    C1-    C3-    C7
     2      1      3     15      9 ;   180.00  15.16700   2 ;     C2-    C1-    C3-    H3
     2      4      8      7      9 ;   180.00  15.16700   2 ;     C2-    C4-    C8-    C7
     2      4      8     10      9 ;   180.00  15.16700   2 ;     C2-    C4-    C8-   C10
     3      1      2      4      9 ;   180.00  15.16700   2 ;     C3-    C1-    C2-    C4
     3      1      2     14      9 ;   180.00  15.16700   2 ;     C3-    C1-    C2-    H2
     3      7      5      9      9 ;   180.00  15.16700   2 ;     C3-    C7-    C5-    C9
     3      7      5     17      9 ;   180.00  15.16700   2 ;     C3-    C7-    C5-    H5
     3      7      8      4      9 ;   180.00  15.16700   2 ;     C3-    C7-    C8-    C4
     3      7      8     10      9 ;   180.00  15.16700   2 ;     C3-    C7-    C8-   C10
     4      8      7      5      9 ;   180.00  15.16700   2 ;     C4-    C8-    C7-    C5
     4      8     10      6      9 ;   180.00  15.16700   2 ;     C4-    C8-   C10-    C6
     4      8     10     12      9 ;   180.00  15.16700   2 ;     C4-    C8-   C10-   C12
     5      7      3     15      9 ;   180.00  15.16700   2 ;     C5-    C7-    C3-    H3
     5      7      8     10      9 ;   180.00  15.16700   2 ;     C5-    C7-    C8-   C10
     5      9      6     10      9 ;   180.00  15.16700   2 ;     C5-    C9-    C6-   C10
     5      9      6     18      9 ;   180.00  15.16700   2 ;     C5-    C9-    C6-    H6
     5      9     11     19      9 ;     0.00   0.00000   0 ;     C5-    C9-   C11-    H7
     5      9     11     20      9 ;     0.00   0.00000   0 ;     C5-    C9-   C11-    H8
     5      9     11     21      9 ;     0.00   0.00000   0 ;     C5-    C9-   C11-    H9
     6      9      5      7      9 ;   180.00  15.16700   2 ;     C6-    C9-    C5-    C7
     6      9      5     17      9 ;   180.00  15.16700   2 ;     C6-    C9-    C5-    H5
     6      9     11     19      9 ;     0.00   0.00000   0 ;     C6-    C9-   C11-    H7
     6      9     11     20      9 ;     0.00   0.00000   0 ;     C6-    C9-   C11-    H8
     6      9     11     21      9 ;     0.00   0.00000   0 ;     C6-    C9-   C11-    H9
     6     10      8      7      9 ;   180.00  15.16700   2 ;     C6-   C10-    C8-    C7
     6     10     12     22      9 ;     0.00   0.00000   0 ;     C6-   C10-   C12-   H10
     6     10     12     23      9 ;     0.00   0.00000   0 ;     C6-   C10-   C12-   H11
     6     10     12     24      9 ;     0.00   0.00000   0 ;     C6-   C10-   C12-   H12
     7      5      9     11      9 ;   180.00  15.16700   2 ;     C7-    C5-    C9-   C11
     7      8      4     16      9 ;   180.00  15.16700   2 ;     C7-    C8-    C4-    H4
     7      8     10     12      9 ;   180.00  15.16700   2 ;     C7-    C8-   C10-   C12
     8      4      2     14      9 ;   180.00  15.16700   2 ;     C8-    C4-    C2-    H2
     8      7      3     15      9 ;   180.00  15.16700   2 ;     C8-    C7-    C3-    H3
     8      7      5      9      9 ;   180.00  15.16700   2 ;     C8-    C7-    C5-    C9
     8      7      5     17      9 ;   180.00  15.16700   2 ;     C8-    C7-    C5-    H5
     8     10      6      9      9 ;   180.00  15.16700   2 ;     C8-   C10-    C6-    C9
     8     10      6     18      9 ;   180.00  15.16700   2 ;     C8-   C10-    C6-    H6
     8     10     12     22      9 ;     0.00   0.00000   0 ;     C8-   C10-   C12-   H10
     8     10     12     23      9 ;     0.00   0.00000   0 ;     C8-   C10-   C12-   H11
     8     10     12     24      9 ;     0.00   0.00000   0 ;     C8-   C10-   C12-   H12
     9      6     10     12      9 ;   180.00  15.16700   2 ;     C9-    C6-   C10-   C12
    10      6      9     11      9 ;   180.00  15.16700   2 ;    C10-    C6-    C9-   C11
    10      8      4     16      9 ;   180.00  15.16700   2 ;    C10-    C8-    C4-    H4
    11      9      5     17      9 ;   180.00  15.16700   2 ;    C11-    C9-    C5-    H5
    11      9      6     18      9 ;   180.00  15.16700   2 ;    C11-    C9-    C6-    H6
    12     10      6     18      9 ;   180.00  15.16700   2 ;    C12-   C10-    C6-    H6
    13      1      2      4      9 ;   180.00  15.16700   2 ;     H1-    C1-    C2-    C4
    13      1      2     14      9 ;   180.00  15.16700   2 ;     H1-    C1-    C2-    H2
    13      1      3      7      9 ;   180.00  15.16700   2 ;     H1-    C1-    C3-    C7
    13      1      3     15      9 ;   180.00  15.16700   2 ;     H1-    C1-    C3-    H3
    14      2      4     16      9 ;   180.00  15.16700   2 ;     H2-    C2-    C4-    H4

[ dihedrals ] ; impropers
; treated as propers in GROMACS to use correct AMBER analytical function
;    i      j      k      l   func   phase     kd      pn
     1      4      2     14      4 ;   180.00   4.60240   2 ;     C1-    C4-    C2-    H2
     1      7      3     15      4 ;   180.00   4.60240   2 ;     C1-    C7-    C3-    H3
     2      8      4     16      4 ;   180.00   4.60240   2 ;     C2-    C8-    C4-    H4
     3      5      7      8      4 ;   180.00   4.60240   2 ;     C3-    C5-    C7-    C8
     4      7      8     10      4 ;   180.00   4.60240   2 ;     C4-    C7-    C8-   C10
     5      6      9     11      4 ;   180.00   4.60240   2 ;     C5-    C6-    C9-   C11
     7      9      5     17      4 ;   180.00   4.60240   2 ;     C7-    C9-    C5-    H5
     9     10      6     18      4 ;   180.00   4.60240   2 ;     C9-   C10-    C6-    H6
    12      6     10      8      4 ;   180.00   4.60240   2 ;    C12-    C6-   C10-    C8
    13      1      3      2      4 ;   180.00   4.60240   2 ;     H1-    C1-    C3-    C2
