; mobley_5665561_GMX_OPLS.top created by acpype (v: 2023.10.27) on Wed May 20 23:52:16 2026

; Include forcefield parameters
#include "ffoplsaa.itp"

; Include mobley_5665561_GMX.itp topology
#include "mobley_5665561_GMX.itp"

; Ligand position restraints
#ifdef POSRES_LIG
#include "posre_mobley_5665561.itp"
#endif

[ system ]
 mobley_5665561

[ molecules ]
; Compound        nmols
 mobley_5665561   1     
