%VERSION  VERSION_STAMP = V0001.000  DATE = 05/20/26  23:52:23                  
%FLAG TITLE                                                                     
%FORMAT(20a4)                                                                   
13_dimethylnaphthalene                                                          
%FLAG POINTERS                                                                  
%FORMAT(10I8)                                                                   
      24       4      12      13      24      18      39      27       0       0
     123       1      13      18      27       4       5       3       4       0
       0       0       0       0       0       0       0       0      24       0
       0
%FLAG ATOM_NAME                                                                 
%FORMAT(20a4)                                                                   
C1  C2  C3  C4  C5  C6  C7  C8  C9  C10 C11 C12 H1  H2  H3  H4  H5  H6  H7  H8  
H9  H10 H11 H12 
%FLAG CHARGE                                                                    
%FORMAT(5E16.8)                                                                 
 -2.33245440E+00 -2.38712130E+00 -2.16845370E+00 -2.13200910E+00 -2.27778750E+00
 -2.36889900E+00 -5.46669000E-01 -6.56002800E-01 -1.29924999E+00 -1.11702699E+00
 -9.80359740E-01 -1.01680434E+00  2.38712130E+00  2.38712130E+00  2.38712130E+00
  2.40534360E+00  2.40534360E+00  2.38712130E+00  8.08468784E-01  8.08468784E-01
  8.08468784E-01  8.20604836E-01  8.20604836E-01  8.20604836E-01
%FLAG ATOMIC_NUMBER                                                             
%FORMAT(10I8)                                                                   
       6       6       6       6       6       6       6       6       6       6
       6       6       1       1       1       1       1       1       1       1
       1       1       1       1
%FLAG MASS                                                                      
%FORMAT(5E16.8)                                                                 
  1.20100000E+01  1.20100000E+01  1.20100000E+01  1.20100000E+01  1.20100000E+01
  1.20100000E+01  1.20100000E+01  1.20100000E+01  1.20100000E+01  1.20100000E+01
  1.20100000E+01  1.20100000E+01  1.00800000E+00  1.00800000E+00  1.00800000E+00
  1.00800000E+00  1.00800000E+00  1.00800000E+00  1.00800000E+00  1.00800000E+00
  1.00800000E+00  1.00800000E+00  1.00800000E+00  1.00800000E+00
%FLAG ATOM_TYPE_INDEX                                                           
%FORMAT(10I8)                                                                   
       1       1       1       1       1       1       1       1       1       1
       2       2       3       3       3       3       3       3       4       4
       4       4       4       4
%FLAG NUMBER_EXCLUDED_ATOMS                                                     
%FORMAT(10I8)                                                                   
      10       9      10       9      12      14       9      11       8       7
       5       4       2       1       1       1       1       1       2       1
       1       2       1       1
%FLAG NONBONDED_PARM_INDEX                                                      
%FORMAT(10I8)                                                                   
       1       2       4       7       2       3       5       8       4       5
       6       9       7       8       9      10
%FLAG RESIDUE_LABEL                                                             
%FORMAT(20a4)                                                                   
MOL 
%FLAG RESIDUE_POINTER                                                           
%FORMAT(10I8)                                                                   
       1
%FLAG BOND_FORCE_CONSTANT                                                       
%FORMAT(5E16.8)                                                                 
  3.54250000E+02  3.60690000E+02  2.43910000E+02  3.45250000E+02
%FLAG BOND_EQUIL_VALUE                                                          
%FORMAT(5E16.8)                                                                 
  1.39860000E+00  1.08600000E+00  1.51470000E+00  1.09620000E+00
%FLAG ANGLE_FORCE_CONSTANT                                                      
%FORMAT(5E16.8)                                                                 
  6.36700000E+01  4.49000000E+01  6.07400000E+01  4.36100000E+01  3.58000000E+01
%FLAG ANGLE_EQUIL_VALUE                                                         
%FORMAT(5E16.8)                                                                 
  2.09474507E+00  2.09230160E+00  2.10888224E+00  1.93085858E+00  1.88024401E+00
%FLAG DIHEDRAL_FORCE_CONSTANT                                                   
%FORMAT(5E16.8)                                                                 
  3.62500000E+00  0.00000000E+00  1.10000000E+00
%FLAG DIHEDRAL_PERIODICITY                                                      
%FORMAT(5E16.8)                                                                 
  2.00000000E+00  1.00000000E+00  2.00000000E+00
%FLAG DIHEDRAL_PHASE                                                            
%FORMAT(5E16.8)                                                                 
  3.14159400E+00  0.00000000E+00  3.14159400E+00
%FLAG SCEE_SCALE_FACTOR                                                         
%FORMAT(5E16.8)                                                                 
  1.20000000E+00  1.20000000E+00  0.00000000E+00
%FLAG SCNB_SCALE_FACTOR                                                         
%FORMAT(5E16.8)                                                                 
  2.00000000E+00  2.00000000E+00  0.00000000E+00
%FLAG SOLTY                                                                     
%FORMAT(5E16.8)                                                                 
  0.00000000E+00  0.00000000E+00  0.00000000E+00  0.00000000E+00
%FLAG LENNARD_JONES_ACOEF                                                       
%FORMAT(5E16.8)                                                                 
  6.96551276E+05  8.43969952E+05  1.02073671E+06  7.52549148E+04  9.27554496E+04
  6.90855956E+03  8.12662403E+04  1.00235148E+05  7.41026906E+03  7.94617769E+03
%FLAG LENNARD_JONES_BCOEF                                                       
%FORMAT(5E16.8)                                                                 
  5.24668528E+02  5.90251928E+02  6.63431737E+02  1.09570372E+02  1.24325688E+02
  2.10929191E+01  1.21392023E+02  1.37787728E+02  2.32899892E+01  2.57122925E+01
%FLAG BONDS_INC_HYDROGEN                                                        
%FORMAT(10I8)                                                                   
       0      36       2       3      39       2       6      42       2       9
      45       2      12      48       2      15      51       2      30      54
       4      30      57       4      30      60       4      33      63       4
      33      66       4      33      69       4
%FLAG BONDS_WITHOUT_HYDROGEN                                                    
%FORMAT(10I8)                                                                   
       0       3       1       0       6       1       3       9       1       6
      18       1       9      21       1      12      18       1      12      24
       1      15      24       1      15      27       1      18      21       1
      21      27       1      24      30       3      27      33       3
%FLAG ANGLES_INC_HYDROGEN                                                       
%FORMAT(10I8)                                                                   
       0       3      39       2       0       6      42       2       3       0
      36       2       3       9      45       2       6       0      36       2
       9       3      39       2      18       6      42       2      18      12
      48       2      21       9      45       2      24      12      48       2
      24      15      51       2      24      30      54       4      24      30
      57       4      24      30      60       4      27      15      51       2
      27      33      63       4      27      33      66       4      27      33
      69       4      54      30      57       5      54      30      60       5
      57      30      60       5      63      33      66       5      63      33
      69       5      66      33      69       5
%FLAG ANGLES_WITHOUT_HYDROGEN                                                   
%FORMAT(10I8)                                                                   
       0       3       9       1       0       6      18       1       3       0
       6       1       3       9      21       1       6      18      12       1
       6      18      21       1       9      21      18       1       9      21
      27       1      12      18      21       1      12      24      15       1
      12      24      30       3      15      24      30       3      15      27
      21       1      15      27      33       3      18      12      24       1
      18      21      27       1      21      27      33       3      24      15
      27       1
%FLAG DIHEDRALS_INC_HYDROGEN                                                    
%FORMAT(10I8)                                                                   
       0       3       9      45       1       3       0       6      42       1
       6       0       3      39       1       6      18      12      48       1
      36       0       3       9       1      12      18       6      42       1
      12      24      15      51       1      12      24      30      54       2
      12      24      30      57       2      12      24      30      60       2
      15      24      12      48       1      15      24      30      54       2
      15      24      30      57       2      15      24      30      60       2
      15      27      33      63       2      15      27      33      66       2
      15      27      33      69       2      36       0       6      18       1
      18      21       9      45       1      21       9       3      39       1
      21      18       6      42       1      21      18      12      48       1
      21      27      15      51       1      21      27      33      63       2
      21      27      33      66       2      21      27      33      69       2
      27      21       9      45       1      30      24      12      48       1
      30      24      15      51       1      33      27      15      51       1
      36       0       3      39       1      36       0       6      42       1
      39       3       9      45       1      36       0      -6      -3       3
       0       9      -3     -39       3       0      18      -6     -42       3
       3      21      -9     -45       3      18      24     -12     -48       3
      24      27     -15     -51       3
%FLAG DIHEDRALS_WITHOUT_HYDROGEN                                                
%FORMAT(10I8)                                                                   
       0       3       9      21       1       0       6      18      12       1
       0       6     -18      21       1       3       0       6      18       1
       3       9     -21      18       1       3       9      21      27       1
       6       0       3       9       1       6      18      12      24       1
       6      18     -21       9       1       6      18      21      27       1
       9      21      18      12       1       9      21      27      15       1
       9      21      27      33       1      12      18      21      27       1
      12      24     -15      27       1      15      24      12      18       1
      15      27     -21      18       1      18      12      24      30       1
      18      21      27      33       1      21      18      12      24       1
      21      27     -15      24       1      24      15      27      33       1
      27      15      24      30       1       6      12     -18     -21       3
       9      18     -21     -27       3      12      15     -24     -30       3
      33      15     -27     -21       3
%FLAG EXCLUDED_ATOMS_LIST                                                       
%FORMAT(10I8)                                                                   
       2       3       4       5       7       8      13      14      15      16
       3       4       7       8      10      13      14      15      16       4
       5       7       8       9      10      13      14      15      17       5
       6       7       8      10      12      13      14      16       6       7
       8       9      10      11      15      17      18      19      20      21
       7       8       9      10      11      12      17      18      19      20
      21      22      23      24       8       9      10      11      12      13
      15      16      17       9      10      12      14      15      16      17
      18      22      23      24      10      11      12      17      18      19
      20      21      11      12      16      18      22      23      24      17
      18      19      20      21      18      22      23      24      14      15
      16       0       0       0       0      20      21      21       0      23
      24      24       0
%FLAG HBOND_ACOEF                                                               
%FORMAT(5E16.8)                                                                 

%FLAG HBOND_BCOEF                                                               
%FORMAT(5E16.8)                                                                 

%FLAG HBCUT                                                                     
%FORMAT(5E16.8)                                                                 

%FLAG AMBER_ATOM_TYPE                                                           
%FORMAT(20a4)                                                                   
ca  ca  ca  ca  ca  ca  ca  ca  ca  ca  c3  c3  ha  ha  ha  ha  ha  ha  hc  hc  
hc  hc  hc  hc  
%FLAG TREE_CHAIN_CLASSIFICATION                                                 
%FORMAT(20a4)                                                                   
BLA BLA BLA BLA BLA BLA BLA BLA BLA BLA BLA BLA BLA BLA BLA BLA BLA BLA BLA BLA 
BLA BLA BLA BLA 
%FLAG JOIN_ARRAY                                                                
%FORMAT(10I8)                                                                   
       0       0       0       0       0       0       0       0       0       0
       0       0       0       0       0       0       0       0       0       0
       0       0       0       0
%FLAG IROTAT                                                                    
%FORMAT(10I8)                                                                   
       0       0       0       0       0       0       0       0       0       0
       0       0       0       0       0       0       0       0       0       0
       0       0       0       0
%FLAG RADIUS_SET                                                                
%FORMAT(1a80)                                                                   
modified Bondi radii (mbondi)                                                   
%FLAG RADII                                                                     
%FORMAT(5E16.8)                                                                 
  1.70000000E+00  1.70000000E+00  1.70000000E+00  1.70000000E+00  1.70000000E+00
  1.70000000E+00  1.70000000E+00  1.70000000E+00  1.70000000E+00  1.70000000E+00
  1.70000000E+00  1.70000000E+00  1.30000000E+00  1.30000000E+00  1.30000000E+00
  1.30000000E+00  1.30000000E+00  1.30000000E+00  1.30000000E+00  1.30000000E+00
  1.30000000E+00  1.30000000E+00  1.30000000E+00  1.30000000E+00
%FLAG SCREEN                                                                    
%FORMAT(5E16.8)                                                                 
  7.20000000E-01  7.20000000E-01  7.20000000E-01  7.20000000E-01  7.20000000E-01
  7.20000000E-01  7.20000000E-01  7.20000000E-01  7.20000000E-01  7.20000000E-01
  7.20000000E-01  7.20000000E-01  8.50000000E-01  8.50000000E-01  8.50000000E-01
  8.50000000E-01  8.50000000E-01  8.50000000E-01  8.50000000E-01  8.50000000E-01
  8.50000000E-01  8.50000000E-01  8.50000000E-01  8.50000000E-01
%FLAG IPOL                                                                      
%FORMAT(1I8)                                                                    
       0
