; mobley_5471704_GMX_OPLS.top created by acpype (v: 2023.10.27) on Thu May 21 00:01:27 2026

; Include forcefield parameters
#include "ffoplsaa.itp"

; Include mobley_5471704_GMX.itp topology
#include "mobley_5471704_GMX.itp"

; Ligand position restraints
#ifdef POSRES_LIG
#include "posre_mobley_5471704.itp"
#endif

[ system ]
 mobley_5471704

[ molecules ]
; Compound        nmols
 mobley_5471704   1     
