mobley_5471704_GMX.gro created by acpype (v: 2023.10.27) on Thu May 21 00:01:27 2026
 23
    1  MOL   C1    1  -0.132  -0.217  -0.586
    1  MOL   C2    2  -0.084  -0.151  -0.712
    1  MOL   C3    3  -0.219  -0.172  -0.072
    1  MOL   C4    4  -0.021  -0.325  -0.076
    1  MOL   C5    5  -0.038  -0.132  -0.242
    1  MOL   C6    6  -0.111  -0.210  -0.351
    1  MOL   C7    7  -0.069  -0.182  -0.100
    1  MOL   O1    8  -0.211  -0.310  -0.583
    1  MOL   O2    9  -0.074  -0.157  -0.477
    1  MOL   H1   10   0.025  -0.163  -0.721
    1  MOL   H2   11  -0.111  -0.045  -0.711
    1  MOL   H3   12  -0.131  -0.199  -0.798
    1  MOL   H4   13  -0.242  -0.203   0.030
    1  MOL   H5   14  -0.276  -0.236  -0.141
    1  MOL   H6   15  -0.254  -0.069  -0.084
    1  MOL   H7   16  -0.065  -0.394  -0.149
    1  MOL   H8   17  -0.050  -0.360   0.024
    1  MOL   H9   18   0.088  -0.333  -0.083
    1  MOL  H10   19   0.070  -0.140  -0.261
    1  MOL  H11   20  -0.062  -0.026  -0.251
    1  MOL  H12   21  -0.084  -0.316  -0.348
    1  MOL  H13   22  -0.220  -0.200  -0.341
    1  MOL  H14   23  -0.017  -0.116  -0.028
    7.27800     7.36400    16.56600
