isoamyl_acetate
    23
  -1.3190000  -2.1660000  -5.8600000  -0.8360000  -1.5100000  -7.1180000
  -2.1890000  -1.7200000  -0.7220000  -0.2100000  -3.2510000  -0.7600000
  -0.3810000  -1.3240000  -2.4190000  -1.1140000  -2.0990000  -3.5070000
  -0.6860000  -1.8170000  -0.9950000  -2.1140000  -3.0960000  -5.8340000
  -0.7410000  -1.5710000  -4.7730000   0.2470000  -1.6260000  -7.2050000
  -1.1110000  -0.4520000  -7.1130000  -1.3090000  -1.9880000  -7.9810000
  -2.4200000  -2.0310000   0.3020000  -2.7590000  -2.3570000  -1.4070000
  -2.5410000  -0.6900000  -0.8440000  -0.6460000  -3.9390000  -1.4920000
  -0.4950000  -3.5960000   0.2400000   0.8800000  -3.3250000  -0.8290000
   0.6990000  -1.3960000  -2.6080000  -0.6210000  -0.2570000  -2.5130000
  -0.8430000  -3.1600000  -3.4800000  -2.1980000  -2.0030000  -3.4060000
  -0.1720000  -1.1630000  -0.2790000
