mobley_1328936_GMX.gro created by acpype (v: 2023.10.27) on Wed May 20 23:44:32 2026
   20
    1MOL     C1    1   2.327   2.533   2.487
    1MOL     C2    2   2.539   2.417   2.493
    1MOL     C3    3   2.325   2.536   2.627
    1MOL     C4    4   2.537   2.420   2.632
    1MOL     C5    5   2.434   2.474   2.420
    1MOL     C6    6   2.430   2.480   2.699
    1MOL     C7    7   2.436   2.470   2.275
    1MOL     C8    8   2.562   2.399   2.085
    1MOL     N1    9   2.428   2.484   2.841
    1MOL     O1   10   2.347   2.518   2.203
    1MOL     O2   11   2.331   2.538   2.900
    1MOL     O3   12   2.524   2.432   2.905
    1MOL     O4   13   2.548   2.408   2.228
    1MOL     H1   14   2.244   2.577   2.432
    1MOL     H2   15   2.622   2.370   2.442
    1MOL     H3   16   2.241   2.583   2.678
    1MOL     H4   17   2.619   2.376   2.688
    1MOL     H5   18   2.651   2.341   2.061
    1MOL     H6   19   2.569   2.499   2.043
    1MOL     H7   20   2.474   2.348   2.045
   4.91931   4.91931   4.91931
