mobley_1328936_GMX.gro created by acpype (v: 2023.10.27) on Wed May 20 23:44:32 2026
11660
    1MOL     C1    1   2.327   2.533   2.487
    1MOL     C2    2   2.539   2.417   2.493
    1MOL     C3    3   2.325   2.536   2.627
    1MOL     C4    4   2.537   2.420   2.632
    1MOL     C5    5   2.434   2.474   2.420
    1MOL     C6    6   2.430   2.480   2.699
    1MOL     C7    7   2.436   2.470   2.275
    1MOL     C8    8   2.562   2.399   2.085
    1MOL     N1    9   2.428   2.484   2.841
    1MOL     O1   10   2.347   2.518   2.203
    1MOL     O2   11   2.331   2.538   2.900
    1MOL     O3   12   2.524   2.432   2.905
    1MOL     O4   13   2.548   2.408   2.228
    1MOL     H1   14   2.244   2.577   2.432
    1MOL     H2   15   2.622   2.370   2.442
    1MOL     H3   16   2.241   2.583   2.678
    1MOL     H4   17   2.619   2.376   2.688
    1MOL     H5   18   2.651   2.341   2.061
    1MOL     H6   19   2.569   2.499   2.043
    1MOL     H7   20   2.474   2.348   2.045
    2SOL     OW   21   0.230   0.628   0.113
    2SOL    HW1   22   0.137   0.626   0.150
    2SOL    HW2   23   0.231   0.589   0.021
    3SOL     OW   24   0.225   0.275   0.996
    3SOL    HW1   25   0.260   0.258   1.088
    3SOL    HW2   26   0.137   0.230   0.984
    4SOL     OW   27   0.019   0.368   0.647
    4SOL    HW1   28  -0.063   0.411   0.686
    4SOL    HW2   29  -0.009   0.295   0.584
    5SOL     OW   30   0.569   1.275   1.165
    5SOL    HW1   31   0.476   1.268   1.128
    5SOL    HW2   32   0.580   1.364   1.209
    6SOL     OW   33   1.555   1.511   0.703
    6SOL    HW1   34   1.498   1.495   0.784
    6SOL    HW2   35   1.496   1.521   0.623
    7SOL     OW   36   1.135   0.703   0.717
    7SOL    HW1   37   1.192   0.781   0.692
    7SOL    HW2   38   1.075   0.729   0.793
    8SOL     OW   39   1.755   0.607   0.231
    8SOL    HW1   40   1.743   0.594   0.132
    8SOL    HW2   41   1.725   0.526   0.280
    9SOL     OW   42   0.768   1.144   1.023
    9SOL    HW1   43   0.690   1.161   1.083
    9SOL    HW2   44   0.802   1.231   0.987
   10SOL     OW   45   0.850   0.798   1.823
   10SOL    HW1   46   0.846   0.874   1.888
   10SOL    HW2   47   0.872   0.834   1.732
   11SOL     OW   48   0.685   1.012   0.665
   11SOL    HW1   49   0.754   0.996   0.735
   11SOL    HW2   50   0.612   1.069   0.703
   12SOL     OW   51   0.686   1.161   1.803
   12SOL    HW1   52   0.746   1.240   1.817
   12SOL    HW2   53   0.600   1.192   1.762
   13SOL     OW   54   0.335   1.435   1.061
   13SOL    HW1   55   0.257   1.404   1.008
   13SOL    HW2   56   0.393   1.493   1.004
   14SOL     OW   57   1.460   1.505   1.339
   14SOL    HW1   58   1.484   1.599   1.365
   14SOL    HW2   59   1.444   1.451   1.421
   15SOL     OW   60   0.438   0.392   1.499
   15SOL    HW1   61   0.520   0.336   1.508
   15SOL    HW2   62   0.357   0.334   1.503
   16SOL     OW   63   1.603   0.447   0.737
   16SOL    HW1   64   1.529   0.493   0.687
   16SOL    HW2   65   1.654   0.515   0.790
   17SOL     OW   66   0.231   1.713   0.483
   17SOL    HW1   67   0.265   1.790   0.537
   17SOL    HW2   68   0.275   1.713   0.393
   18SOL     OW   69   1.127   1.341   1.690
   18SOL    HW1   70   1.174   1.341   1.778
   18SOL    HW2   71   1.079   1.254   1.679
   19SOL     OW   72   0.230   1.434   0.538
   19SOL    HW1   73   0.204   1.530   0.538
   19SOL    HW2   74   0.159   1.380   0.583
   20SOL     OW   75   0.240   1.091   0.886
   20SOL    HW1   76   0.254   1.007   0.938
   20SOL    HW2   77   0.185   1.155   0.941
   21SOL     OW   78   0.620   1.786   1.439
   21SOL    HW1   79   0.528   1.769   1.474
   21SOL    HW2   80   0.648   1.878   1.465
   22SOL     OW   81   0.606   0.964   0.123
   22SOL    HW1   82   0.613   1.048   0.069
   22SOL    HW2   83   0.652   0.977   0.211
   23SOL     OW   84   1.594   0.114   1.480
   23SOL    HW1   85   1.576   0.181   1.408
   23SOL    HW2   86   1.591   0.160   1.569
   24SOL     OW   87   0.122   0.643   0.563
   24SOL    HW1   88   0.077   0.555   0.580
   24SOL    HW2   89   0.121   0.697   0.647
   25SOL     OW   90   1.842   1.767   0.359
   25SOL    HW1   91   1.896   1.738   0.439
   25SOL    HW2   92   1.872   1.857   0.330
   26SOL     OW   93   0.027   1.596   0.117
   26SOL    HW1   94   0.008   1.500   0.138
   26SOL    HW2   95  -0.006   1.654   0.192
   27SOL     OW   96   1.689   0.922   0.612
   27SOL    HW1   97   1.784   0.893   0.620
   27SOL    HW2   98   1.681   0.987   0.537
   28SOL     OW   99   1.641   1.108   0.432
   28SOL    HW1  100   1.727   1.110   0.380
   28SOL    HW2  101   1.655   1.155   0.520
   29SOL     OW  102   0.113   0.737   1.597
   29SOL    HW1  103   0.201   0.724   1.642
   29SOL    HW2  104   0.100   0.834   1.575
   30SOL     OW  105   0.613   1.365   0.726
   30SOL    HW1  106   0.564   1.278   0.735
   30SOL    HW2  107   0.590   1.408   0.639
   31SOL     OW  108   1.293   1.228   1.423
   31SOL    HW1  109   1.330   1.155   1.365
   31SOL    HW2  110   1.345   1.233   1.508
   32SOL     OW  111   0.809   0.004   0.502
   32SOL    HW1  112   0.849   0.095   0.493
   32SOL    HW2  113   0.709   0.012   0.508
   33SOL     OW  114   0.197   0.976   1.264
   33SOL    HW1  115   0.286   0.931   1.250
   33SOL    HW2  116   0.124   0.911   1.245
   34SOL     OW  117   1.525   0.999   0.190
   34SOL    HW1  118   1.462   0.923   0.203
   34SOL    HW2  119   1.573   1.017   0.276
   35SOL     OW  120   1.187   1.792   1.616
   35SOL    HW1  121   1.211   1.852   1.540
   35SOL    HW2  122   1.194   1.697   1.586
   36SOL     OW  123   0.317   0.251   1.801
   36SOL    HW1  124   0.388   0.322   1.807
   36SOL    HW2  125   0.229   0.290   1.829
   37SOL     OW  126   1.466   1.417   0.953
   37SOL    HW1  127   1.407   1.423   1.033
   37SOL    HW2  128   1.451   1.329   0.907
   38SOL     OW  129   1.667   1.714   0.572
   38SOL    HW1  130   1.626   1.691   0.484
   38SOL    HW2  131   1.649   1.640   0.637
   39SOL     OW  132   0.598   0.729   0.270
   39SOL    HW1  133   0.622   0.798   0.202
   39SOL    HW2  134   0.520   0.762   0.324
   40SOL     OW  135   1.281   0.345   0.944
   40SOL    HW1  136   1.195   0.295   0.931
   40SOL    HW2  137   1.343   0.291   1.000
   41SOL     OW  138   1.576   1.662   0.307
   41SOL    HW1  139   1.665   1.708   0.310
   41SOL    HW2  140   1.555   1.638   0.212
   42SOL     OW  141   0.807   0.605   1.465
   42SOL    HW1  142   0.760   0.602   1.554
   42SOL    HW2  143   0.756   0.550   1.399
   43SOL     OW  144   1.394   0.469   1.674
   43SOL    HW1  145   1.374   0.512   1.762
   43SOL    HW2  146   1.472   0.407   1.683
   44SOL     OW  147   0.973   0.890   1.572
   44SOL    HW1  148   1.019   0.806   1.543
   44SOL    HW2  149   0.917   0.924   1.497
   45SOL     OW  150   0.991   0.410   1.242
   45SOL    HW1  151   0.914   0.444   1.296
   45SOL    HW2  152   0.957   0.359   1.163
   46SOL     OW  153   1.041   0.701   0.429
   46SOL    HW1  154   1.067   0.697   0.525
   46SOL    HW2  155   0.956   0.650   0.415
   47SOL     OW  156   0.076   0.811   0.789
   47SOL    HW1  157   0.175   0.799   0.798
   47SOL    HW2  158   0.052   0.906   0.810
   48SOL     OW  159   0.130   1.821   1.571
   48SOL    HW1  160   0.120   1.806   1.670
   48SOL    HW2  161   0.044   1.857   1.535
   49SOL     OW  162   0.865   0.348   0.195
   49SOL    HW1  163   0.924   0.411   0.146
   49SOL    HW2  164   0.884   0.254   0.166
   50SOL     OW  165   1.719   0.585   1.831
   50SOL    HW1  166   1.693   0.674   1.795
   50SOL    HW2  167   1.717   0.517   1.758
   51SOL     OW  168   1.362   1.144   0.545
   51SOL    HW1  169   1.445   1.115   0.497
   51SOL    HW2  170   1.313   1.211   0.489
   52SOL     OW  171   0.550   0.196   0.885
   52SOL    HW1  172   0.545   0.191   0.985
   52SOL    HW2  173   0.552   0.292   0.856
   53SOL     OW  174   1.008   1.456   0.477
   53SOL    HW1  175   0.962   1.528   0.425
   53SOL    HW2  176   1.004   1.476   0.575
   54SOL     OW  177   0.351   1.801   0.853
   54SOL    HW1  178   0.401   1.715   0.859
   54SOL    HW2  179   0.416   1.878   0.850
   55SOL     OW  180   1.795   1.066   0.873
   55SOL    HW1  181   1.733   1.051   0.797
   55SOL    HW2  182   1.743   1.077   0.958
   56SOL     OW  183   1.227   1.550   1.506
   56SOL    HW1  184   1.233   1.473   1.570
   56SOL    HW2  185   1.175   1.524   1.426
   57SOL     OW  186   0.321   0.943   0.242
   57SOL    HW1  187   0.403   0.982   0.200
   57SOL    HW2  188   0.294   0.861   0.193
   58SOL     OW  189   1.458   0.735   0.728
   58SOL    HW1  190   1.453   0.670   0.803
   58SOL    HW2  191   1.538   0.794   0.741
   59SOL     OW  192   0.461   1.266   1.727
   59SOL    HW1  193   0.411   1.267   1.641
   59SOL    HW2  194   0.398   1.248   1.803
   60SOL     OW  195   1.111   1.776   0.237
   60SOL    HW1  196   1.051   1.714   0.287
   60SOL    HW2  197   1.142   1.732   0.152
   61SOL     OW  198   0.202   0.285   1.498
   61SOL    HW1  199   0.122   0.345   1.485
   61SOL    HW2  200   0.192   0.236   1.584
   62SOL     OW  201   1.632   1.377   0.081
   62SOL    HW1  202   1.600   1.471   0.071
   62SOL    HW2  203   1.556   1.314   0.069
   63SOL     OW  204   0.464   1.743   0.323
   63SOL    HW1  205   0.497   1.782   0.409
   63SOL    HW2  206   0.540   1.736   0.258
   64SOL     OW  207   1.400   0.107   0.426
   64SOL    HW1  208   1.376   0.070   0.336
   64SOL    HW2  209   1.499   0.123   0.430
   65SOL     OW  210   0.249   1.785   1.241
   65SOL    HW1  211   0.306   1.720   1.291
   65SOL    HW2  212   0.233   1.752   1.148
   66SOL     OW  213   0.940   1.698   0.904
   66SOL    HW1  214   1.020   1.641   0.925
   66SOL    HW2  215   0.891   1.658   0.827
   67SOL     OW  216   0.382   0.700   0.480
   67SOL    HW1  217   0.427   0.610   0.477
   67SOL    HW2  218   0.288   0.689   0.513
   68SOL     OW  219   1.547   0.222   1.729
   68SOL    HW1  220   1.542   0.259   1.821
   68SOL    HW2  221   1.475   0.153   1.717
   69SOL     OW  222   0.614   0.122   0.117
   69SOL    HW1  223   0.712   0.100   0.124
   69SOL    HW2  224   0.583   0.105   0.024
   70SOL     OW  225   0.781   0.264   1.749
   70SOL    HW1  226   0.848   0.203   1.792
   70SOL    HW2  227   0.708   0.283   1.814
   71SOL     OW  228   0.888   1.514   1.195
   71SOL    HW1  229   0.865   1.489   1.101
   71SOL    HW2  230   0.949   1.445   1.234
   72SOL     OW  231   1.351   0.590   1.433
   72SOL    HW1  232   1.379   0.547   1.518
   72SOL    HW2  233   1.376   0.686   1.434
   73SOL     OW  234   0.803   1.402   0.924
   73SOL    HW1  235   0.893   1.416   0.882
   73SOL    HW2  236   0.732   1.404   0.853
   74SOL     OW  237   0.922   0.503   0.899
   74SOL    HW1  238   0.897   0.494   0.803
   74SOL    HW2  239   0.970   0.421   0.930
   75SOL     OW  240   0.539   0.064   0.512
   75SOL    HW1  241   0.458   0.065   0.570
   75SOL    HW2  242   0.542   0.147   0.457
   76SOL     OW  243   1.434   1.188   0.041
   76SOL    HW1  244   1.466   1.112   0.098
   76SOL    HW2  245   1.342   1.215   0.071
   77SOL     OW  246   0.297   0.035   0.171
   77SOL    HW1  247   0.346   0.119   0.150
   77SOL    HW2  248   0.359  -0.030   0.216
   78SOL     OW  249   0.935   0.236   0.480
   78SOL    HW1  250   0.887   0.277   0.402
   78SOL    HW2  251   1.034   0.234   0.461
   79SOL     OW  252   1.076   0.683   1.464
   79SOL    HW1  253   0.996   0.622   1.467
   79SOL    HW2  254   1.157   0.630   1.440
   80SOL     OW  255   1.227   1.570   0.793
   80SOL    HW1  256   1.248   1.644   0.728
   80SOL    HW2  257   1.295   1.570   0.866
   81SOL     OW  258   0.459   1.152   0.741
   81SOL    HW1  259   0.388   1.125   0.806
   81SOL    HW2  260   0.433   1.124   0.648
   82SOL     OW  261   1.271   1.797   0.591
   82SOL    HW1  262   1.315   1.861   0.527
   82SOL    HW2  263   1.221   1.849   0.661
   83SOL     OW  264   1.032   0.549   0.016
   83SOL    HW1  265   0.991   0.631  -0.023
   83SOL    HW2  266   1.096   0.575   0.089
   84SOL     OW  267   0.078   0.556   1.386
   84SOL    HW1  268   0.170   0.555   1.345
   84SOL    HW2  269   0.072   0.630   1.453
   85SOL     OW  270   0.561   0.222   1.147
   85SOL    HW1  271   0.599   0.138   1.184
   85SOL    HW2  272   0.473   0.241   1.191
   86SOL     OW  273   0.866   0.454   0.642
   86SOL    HW1  274   0.834   0.526   0.580
   86SOL    HW2  275   0.890   0.373   0.589
   87SOL     OW  276   1.017   0.039   0.753
   87SOL    HW1  277   0.945   0.044   0.684
   87SOL    HW2  278   0.993  -0.030   0.822
   88SOL     OW  279   1.429   1.173   0.867
   88SOL    HW1  280   1.374   1.089   0.860
   88SOL    HW2  281   1.455   1.202   0.775
   89SOL     OW  282   1.466   0.590   0.992
   89SOL    HW1  283   1.436   0.495   0.999
   89SOL    HW2  284   1.539   0.606   1.058
   90SOL     OW  285   1.857   0.833   0.377
   90SOL    HW1  286   1.899   0.769   0.441
   90SOL    HW2  287   1.819   0.782   0.299
   91SOL     OW  288   0.488   1.385   0.174
   91SOL    HW1  289   0.401   1.370   0.221
   91SOL    HW2  290   0.471   1.411   0.079
   92SOL     OW  291   1.664   1.280   0.657
   92SOL    HW1  292   1.763   1.288   0.671
   92SOL    HW2  293   1.619   1.364   0.688
   93SOL     OW  294   1.390   0.575   0.078
   93SOL    HW1  295   1.336   0.554   0.159
   93SOL    HW2  296   1.481   0.534   0.087
   94SOL     OW  297   0.527   0.256   0.328
   94SOL    HW1  298   0.554   0.197   0.253
   94SOL    HW2  299   0.527   0.351   0.297
   95SOL     OW  300   1.754   1.223   1.588
   95SOL    HW1  301   1.845   1.184   1.575
   95SOL    HW2  302   1.762   1.319   1.612
   96SOL     OW  303   1.064   1.347   1.340
   96SOL    HW1  304   0.984   1.324   1.395
   96SOL    HW2  305   1.147   1.321   1.389
   97SOL     OW  306   1.592   1.629   1.625
   97SOL    HW1  307   1.619   1.663   1.535
   97SOL    HW2  308   1.671   1.591   1.671
   98SOL     OW  309   1.111   1.195   1.100
   98SOL    HW1  310   1.071   1.239   1.181
   98SOL    HW2  311   1.070   1.232   1.017
   99SOL     OW  312   1.638   1.099   1.079
   99SOL    HW1  313   1.643   1.180   1.138
   99SOL    HW2  314   1.552   1.101   1.028
  100SOL     OW  315   0.915   0.089   1.402
  100SOL    HW1  316   0.940   0.069   1.307
  100SOL    HW2  317   0.987   0.145   1.444
  101SOL     OW  318   0.980   1.116   1.719
  101SOL    HW1  319   0.881   1.122   1.729
  101SOL    HW2  320   1.003   1.036   1.663
  102SOL     OW  321   0.705   1.050   0.368
  102SOL    HW1  322   0.691   1.057   0.467
  102SOL    HW2  323   0.789   0.999   0.350
  103SOL     OW  324   0.410   0.813   1.251
  103SOL    HW1  325   0.496   0.825   1.301
  103SOL    HW2  326   0.368   0.726   1.278
  104SOL     OW  327   1.274   0.386   1.262
  104SOL    HW1  328   1.295   0.460   1.326
  104SOL    HW2  329   1.185   0.403   1.219
  105SOL     OW  330   0.064   1.564   1.331
  105SOL    HW1  331   0.018   1.646   1.297
  105SOL    HW2  332   0.162   1.583   1.340
  106SOL     OW  333   0.367   1.100   0.501
  106SOL    HW1  334   0.360   1.183   0.445
  106SOL    HW2  335   0.371   1.020   0.441
  107SOL     OW  336   0.566   0.537   0.865
  107SOL    HW1  337   0.578   0.603   0.791
  107SOL    HW2  338   0.612   0.571   0.948
  108SOL     OW  339   1.252   1.348   0.388
  108SOL    HW1  340   1.302   1.425   0.428
  108SOL    HW2  341   1.157   1.350   0.420
  109SOL     OW  342   1.272   1.445   1.142
  109SOL    HW1  343   1.319   1.458   1.229
  109SOL    HW2  344   1.206   1.371   1.151
  110SOL     OW  345   1.582   0.639   0.472
  110SOL    HW1  346   1.551   0.700   0.545
  110SOL    HW2  347   1.632   0.691   0.403
  111SOL     OW  348   0.354   1.510   1.329
  111SOL    HW1  349   0.333   1.466   1.242
  111SOL    HW2  350   0.451   1.536   1.332
  112SOL     OW  351   0.402   0.751   1.598
  112SOL    HW1  352   0.470   0.806   1.551
  112SOL    HW2  353   0.442   0.663   1.625
  113SOL     OW  354   1.587   0.779   1.670
  113SOL    HW1  355   1.495   0.817   1.665
  113SOL    HW2  356   1.647   0.826   1.605
  114SOL     OW  357   1.013   0.105   1.770
  114SOL    HW1  358   1.019   0.190   1.718
  114SOL    HW2  359   1.045   0.029   1.713
  115SOL     OW  360   0.504   0.050   1.740
  115SOL    HW1  361   0.462  -0.007   1.670
  115SOL    HW2  362   0.438   0.119   1.772
  116SOL     OW  363   0.573   0.870   1.029
  116SOL    HW1  364   0.617   0.959   1.020
  116SOL    HW2  365   0.510   0.870   1.106
  117SOL     OW  366   1.360   0.862   1.045
  117SOL    HW1  367   1.285   0.862   0.979
  117SOL    HW2  368   1.397   0.770   1.054
  118SOL     OW  369   1.209   0.525   0.275
  118SOL    HW1  370   1.222   0.441   0.329
  118SOL    HW2  371   1.180   0.599   0.335
  119SOL     OW  372   0.307   0.213   1.231
  119SOL    HW1  373   0.284   0.250   1.321
  119SOL    HW2  374   0.277   0.118   1.225
  120SOL     OW  375   0.037   1.310   1.282
  120SOL    HW1  376   0.090   1.261   1.350
  120SOL    HW2  377   0.059   1.408   1.287
  121SOL     OW  378   0.732   0.634   1.064
  121SOL    HW1  379   0.791   0.608   0.988
  121SOL    HW2  380   0.704   0.730   1.053
  122SOL     OW  381   1.728   0.935   1.854
  122SOL    HW1  382   1.682   0.928   1.765
  122SOL    HW2  383   1.666   0.979   1.920
  123SOL     OW  384   0.307   0.063   0.618
  123SOL    HW1  385   0.296   0.157   0.651
  123SOL    HW2  386   0.302   0.000   0.695
  124SOL     OW  387   1.622   0.367   0.374
  124SOL    HW1  388   1.624   0.291   0.438
  124SOL    HW2  389   1.574   0.444   0.414
  125SOL     OW  390   1.023   0.766   0.966
  125SOL    HW1  391   1.038   0.787   1.062
  125SOL    HW2  392   0.993   0.671   0.957
  126SOL     OW  393   0.980   1.573   1.700
  126SOL    HW1  394   0.960   1.617   1.612
  126SOL    HW2  395   1.019   1.482   1.684
  127SOL     OW  396   1.859   1.518   1.605
  127SOL    HW1  397   1.873   1.545   1.510
  127SOL    HW2  398   1.942   1.540   1.658
  128SOL     OW  399   0.350   0.898   1.804
  128SOL    HW1  400   0.426   0.942   1.852
  128SOL    HW2  401   0.385   0.851   1.722
  129SOL     OW  402   1.540   0.274   0.125
  129SOL    HW1  403   1.479   0.199   0.148
  129SOL    HW2  404   1.562   0.326   0.208
  130SOL     OW  405   1.303   0.838   0.042
  130SOL    HW1  406   1.337   0.745   0.057
  130SOL    HW2  407   1.321   0.865  -0.053
  131SOL     OW  408   1.068   1.333   0.849
  131SOL    HW1  409   1.075   1.249   0.794
  131SOL    HW2  410   1.130   1.402   0.813
  132SOL     OW  411   0.319   0.810   0.949
  132SOL    HW1  412   0.412   0.846   0.954
  132SOL    HW2  413   0.313   0.725   1.001
  133SOL     OW  414   0.339   0.509   1.006
  133SOL    HW1  415   0.287   0.426   0.989
  133SOL    HW2  416   0.416   0.514   0.942
  134SOL     OW  417   1.138   0.380   1.678
  134SOL    HW1  418   1.093   0.443   1.742
  134SOL    HW2  419   1.231   0.411   1.661
  135SOL     OW  420   1.160   0.207   1.477
  135SOL    HW1  421   1.160   0.271   1.554
  135SOL    HW2  422   1.188   0.255   1.394
  136SOL     OW  423   0.008   1.326   0.200
  136SOL    HW1  424  -0.085   1.347   0.169
  136SOL    HW2  425   0.018   1.227   0.213
  137SOL     OW  426   0.088   1.801   0.927
  137SOL    HW1  427   0.046   1.715   0.900
  137SOL    HW2  428   0.182   1.804   0.893
  138SOL     OW  429   0.504   1.568   0.910
  138SOL    HW1  430   0.570   1.642   0.919
  138SOL    HW2  431   0.548   1.489   0.868
  139SOL     OW  432   1.002   0.796   1.238
  139SOL    HW1  433   1.043   0.764   1.324
  139SOL    HW2  434   0.906   0.769   1.235
  140SOL     OW  435   0.040   0.544   1.114
  140SOL    HW1  436   0.125   0.511   1.073
  140SOL    HW2  437   0.053   0.559   1.212
  141SOL     OW  438   0.189   0.520   1.722
  141SOL    HW1  439   0.248   0.480   1.652
  141SOL    HW2  440   0.131   0.591   1.681
  142SOL     OW  441   1.369   0.950   1.660
  142SOL    HW1  442   1.408   1.039   1.680
  142SOL    HW2  443   1.379   0.930   1.563
  143SOL     OW  444   0.815   0.572   0.325
  143SOL    HW1  445   0.822   0.483   0.279
  143SOL    HW2  446   0.721   0.606   0.317
  144SOL     OW  447   1.657   0.604   1.206
  144SOL    HW1  448   1.619   0.535   1.268
  144SOL    HW2  449   1.739   0.568   1.162
  145SOL     OW  450   0.252   1.564   1.744
  145SOL    HW1  451   0.222   1.621   1.820
  145SOL    HW2  452   0.245   1.467   1.770
  146SOL     OW  453   0.671   0.464   1.269
  146SOL    HW1  454   0.637   0.375   1.239
  146SOL    HW2  455   0.697   0.518   1.189
  147SOL     OW  456   0.930   1.678   1.465
  147SOL    HW1  457   0.906   1.660   1.370
  147SOL    HW2  458   0.960   1.772   1.475
  148SOL     OW  459   0.473   0.500   0.191
  148SOL    HW1  460   0.534   0.580   0.195
  148SOL    HW2  461   0.378   0.531   0.198
  149SOL     OW  462   0.159   1.137   1.466
  149SOL    HW1  463   0.181   1.076   1.542
  149SOL    HW2  464   0.169   1.088   1.380
  150SOL     OW  465   1.347   1.059   1.234
  150SOL    HW1  466   1.371   0.996   1.160
  150SOL    HW2  467   1.257   1.099   1.216
  151SOL     OW  468   1.302   0.855   0.309
  151SOL    HW1  469   1.216   0.824   0.351
  151SOL    HW2  470   1.298   0.841   0.210
  152SOL     OW  471   1.759   1.747   1.154
  152SOL    HW1  472   1.820   1.777   1.081
  152SOL    HW2  473   1.721   1.658   1.132
  153SOL     OW  474   1.252   1.731   1.128
  153SOL    HW1  475   1.336   1.736   1.074
  153SOL    HW2  476   1.229   1.635   1.146
  154SOL     OW  477   0.083   1.258   1.022
  154SOL    HW1  478   0.078   1.257   1.122
  154SOL    HW2  479   0.000   1.217   0.984
  155SOL     OW  480   0.688   1.662   1.716
  155SOL    HW1  481   0.632   1.743   1.725
  155SOL    HW2  482   0.740   1.666   1.630
  156SOL     OW  483   0.903   0.086   0.133
  156SOL    HW1  484   0.954   0.087   0.047
  156SOL    HW2  485   0.959   0.044   0.204
  157SOL     OW  486   1.726   0.135   0.523
  157SOL    HW1  487   1.799   0.118   0.456
  157SOL    HW2  488   1.695   0.048   0.561
  158SOL     OW  489   1.388   1.573   0.477
  158SOL    HW1  490   1.455   1.585   0.403
  158SOL    HW2  491   1.348   1.662   0.500
  159SOL     OW  492   0.130   1.794   1.851
  159SOL    HW1  493   0.089   1.720   1.904
  159SOL    HW2  494   0.194   1.845   1.909
  160SOL     OW  495   1.280   0.927   0.672
  160SOL    HW1  496   1.340   0.846   0.674
  160SOL    HW2  497   1.320   0.996   0.612
  161SOL     OW  498   0.830   1.273   1.422
  161SOL    HW1  499   0.825   1.306   1.517
  161SOL    HW2  500   0.744   1.292   1.376
  162SOL     OW  501   0.672   1.616   0.154
  162SOL    HW1  502   0.681   1.626   0.055
  162SOL    HW2  503   0.632   1.527   0.175
  163SOL     OW  504   1.650   1.720   1.394
  163SOL    HW1  505   1.703   1.730   1.310
  163SOL    HW2  506   1.623   1.810   1.428
  164SOL     OW  507   1.841   0.175   0.963
  164SOL    HW1  508   1.880   0.090   0.927
  164SOL    HW2  509   1.743   0.177   0.944
  165SOL     OW  510   0.263   0.326   0.720
  165SOL    HW1  511   0.184   0.377   0.686
  165SOL    HW2  512   0.254   0.311   0.818
  166SOL     OW  513   1.194   1.612   0.031
  166SOL    HW1  514   1.200   1.519   0.068
  166SOL    HW2  515   1.135   1.612  -0.049
  167SOL     OW  516   0.822   1.002   1.372
  167SOL    HW1  517   0.862   1.001   1.280
  167SOL    HW2  518   0.832   1.094   1.412
  168SOL     OW  519   0.916   0.910   0.291
  168SOL    HW1  520   0.979   0.948   0.223
  168SOL    HW2  521   0.956   0.827   0.330
  169SOL     OW  522   1.504   1.607   0.044
  169SOL    HW1  523   1.412   1.644   0.051
  169SOL    HW2  524   1.542   1.627  -0.046
  170SOL     OW  525   0.372   1.288   1.490
  170SOL    HW1  526   0.359   1.381   1.456
  170SOL    HW2  527   0.288   1.236   1.477
  171SOL     OW  528   1.614   1.292   1.289
  171SOL    HW1  529   1.674   1.295   1.369
  171SOL    HW2  530   1.539   1.356   1.302
  172SOL     OW  531   1.039   1.098   0.696
  172SOL    HW1  532   0.969   1.051   0.750
  172SOL    HW2  533   1.098   1.030   0.653
  173SOL     OW  534   1.014   0.236   0.971
  173SOL    HW1  535   1.006   0.200   0.878
  173SOL    HW2  536   1.012   0.160   1.036
  174SOL     OW  537   0.590   1.487   0.491
  174SOL    HW1  538   0.632   1.429   0.421
  174SOL    HW2  539   0.546   1.566   0.447
  175SOL     OW  540   1.709   0.385   1.381
  175SOL    HW1  541   1.782   0.454   1.385
  175SOL    HW2  542   1.737   0.310   1.322
  176SOL     OW  543   0.255   1.348   0.290
  176SOL    HW1  544   0.159   1.349   0.263
  176SOL    HW2  545   0.267   1.401   0.374
  177SOL     OW  546   0.105   1.013   1.726
  177SOL    HW1  547   0.028   0.980   1.780
  177SOL    HW2  548   0.190   0.983   1.768
  178SOL     OW  549   0.672   0.203   1.489
  178SOL    HW1  550   0.762   0.187   1.449
  178SOL    HW2  551   0.680   0.208   1.588
  179SOL     OW  552   0.075   0.345   0.033
  179SOL    HW1  553  -0.017   0.317   0.004
  179SOL    HW2  554   0.106   0.422  -0.023
  180SOL     OW  555   1.440   0.856   1.398
  180SOL    HW1  556   1.383   0.908   1.335
  180SOL    HW2  557   1.536   0.868   1.374
  181SOL     OW  558   0.072   0.166   0.318
  181SOL    HW1  559   0.055   0.249   0.264
  181SOL    HW2  560   0.162   0.129   0.296
  182SOL     OW  561   1.183   1.335   0.119
  182SOL    HW1  562   1.084   1.324   0.121
  182SOL    HW2  563   1.217   1.350   0.212
  183SOL     OW  564   0.613   0.842   1.431
  183SOL    HW1  565   0.669   0.923   1.414
  183SOL    HW2  566   0.672   0.762   1.434
  184SOL     OW  567   1.493   1.767   0.959
  184SOL    HW1  568   1.526   1.831   0.890
  184SOL    HW2  569   1.559   1.761   1.034
  185SOL     OW  570   0.716   0.565   1.708
  185SOL    HW1  571   0.735   0.630   1.782
  185SOL    HW2  572   0.776   0.485   1.717
  186SOL     OW  573   1.450   1.220   1.633
  186SOL    HW1  574   1.441   1.210   1.732
  186SOL    HW2  575   1.546   1.213   1.607
  187SOL     OW  576   0.390   1.741   1.560
  187SOL    HW1  577   0.299   1.782   1.558
  187SOL    HW2  578   0.383   1.647   1.592
  188SOL     OW  579   1.674   0.883   1.254
  188SOL    HW1  580   1.647   0.794   1.217
  188SOL    HW2  581   1.675   0.951   1.181
  189SOL     OW  582   1.225   0.325   0.449
  189SOL    HW1  583   1.290   0.251   0.438
  189SOL    HW2  584   1.245   0.375   0.533
  190SOL     OW  585   0.594   0.745   0.652
  190SOL    HW1  586   0.644   0.830   0.633
  190SOL    HW2  587   0.506   0.747   0.604
  191SOL     OW  588   1.777   0.342   1.642
  191SOL    HW1  589   1.760   0.373   1.548
  191SOL    HW2  590   1.693   0.305   1.680
  192SOL     OW  591   1.730   0.934   1.517
  192SOL    HW1  592   1.768   1.025   1.532
  192SOL    HW2  593   1.722   0.917   1.418
  193SOL     OW  594   0.859   1.374   0.016
  193SOL    HW1  595   0.813   1.389   0.104
  193SOL    HW2  596   0.903   1.459  -0.014
  194SOL     OW  597   0.661   1.790   0.953
  194SOL    HW1  598   0.615   1.878   0.940
  194SOL    HW2  599   0.760   1.802   0.946
  195SOL     OW  600   0.859   0.956   0.861
  195SOL    HW1  601   0.913   0.887   0.909
  195SOL    HW2  602   0.827   1.025   0.927
  196SOL     OW  603   1.083   0.984   0.087
  196SOL    HW1  604   1.060   1.037   0.005
  196SOL    HW2  605   1.164   0.928   0.068
  197SOL     OW  606   1.861   1.569   0.851
  197SOL    HW1  607   1.790   1.557   0.781
  197SOL    HW2  608   1.862   1.490   0.911
  198SOL     OW  609   0.221   1.314   1.844
  198SOL    HW1  610   0.156   1.241   1.823
  198SOL    HW2  611   0.225   1.328   1.942
  199SOL     OW  612   0.079   1.240   0.653
  199SOL    HW1  613   0.078   1.193   0.741
  199SOL    HW2  614   0.161   1.212   0.602
  200SOL     OW  615   0.672   1.391   1.624
  200SOL    HW1  616   0.594   1.341   1.662
  200SOL    HW2  617   0.669   1.486   1.655
  201SOL     OW  618   1.824   0.192   1.227
  201SOL    HW1  619   1.820   0.102   1.271
  201SOL    HW2  620   1.827   0.181   1.128
  202SOL     OW  621   0.428   0.424   0.520
  202SOL    HW1  622   0.458   0.352   0.458
  202SOL    HW2  623   0.389   0.384   0.603
  203SOL     OW  624   1.705   1.487   1.104
  203SOL    HW1  625   1.612   1.462   1.077
  203SOL    HW2  626   1.731   1.437   1.186
  204SOL     OW  627   0.317   0.547   1.280
  204SOL    HW1  628   0.355   0.488   1.352
  204SOL    HW2  629   0.357   0.521   1.192
  205SOL     OW  630   0.812   1.586   0.687
  205SOL    HW1  631   0.844   1.596   0.593
  205SOL    HW2  632   0.733   1.524   0.689
  206SOL     OW  633   1.424   0.214   1.112
  206SOL    HW1  634   1.476   0.149   1.167
  206SOL    HW2  635   1.375   0.277   1.173
  207SOL     OW  636   1.001   0.034   1.154
  207SOL    HW1  637   0.938  -0.038   1.123
  207SOL    HW2  638   1.094  -0.002   1.154
  208SOL     OW  639   0.770   1.330   0.301
  208SOL    HW1  640   0.724   1.243   0.318
  208SOL    HW2  641   0.861   1.327   0.342
  209SOL     OW  642   0.618   1.567   1.284
  209SOL    HW1  643   0.613   1.649   1.341
  209SOL    HW2  644   0.707   1.564   1.239
  210SOL     OW  645   1.352   0.052   0.168
  210SOL    HW1  646   1.387   0.011   0.084
  210SOL    HW2  647   1.262   0.014   0.188
  211SOL     OW  648   1.300   0.453   0.691
  211SOL    HW1  649   1.241   0.533   0.695
  211SOL    HW2  650   1.315   0.418   0.784
  212SOL     OW  651   1.593   0.221   0.882
  212SOL    HW1  652   1.509   0.220   0.936
  212SOL    HW2  653   1.595   0.304   0.826
  213SOL     OW  654   0.039   1.077   0.300
  213SOL    HW1  655   0.138   1.066   0.291
  213SOL    HW2  656  -0.001   0.991   0.332
  214SOL     OW  657   0.875   1.646   0.337
  214SOL    HW1  658   0.798   1.611   0.283
  214SOL    HW2  659   0.843   1.717   0.399
  215SOL     OW  660   0.230   0.628   1.975
  215SOL    HW1  661   0.137   0.626   2.012
  215SOL    HW2  662   0.231   0.589   1.883
  216SOL     OW  663   0.225   0.275   2.858
  216SOL    HW1  664   0.260   0.258   2.950
  216SOL    HW2  665   0.137   0.230   2.846
  217SOL     OW  666   0.019   0.368   2.509
  217SOL    HW1  667  -0.063   0.411   2.548
  217SOL    HW2  668  -0.009   0.295   2.446
  218SOL     OW  669   0.569   1.275   3.027
  218SOL    HW1  670   0.476   1.268   2.990
  218SOL    HW2  671   0.580   1.364   3.071
  219SOL     OW  672   1.555   1.511   2.565
  219SOL    HW1  673   1.498   1.495   2.646
  219SOL    HW2  674   1.496   1.521   2.485
  220SOL     OW  675   1.135   0.703   2.579
  220SOL    HW1  676   1.192   0.781   2.554
  220SOL    HW2  677   1.075   0.729   2.655
  221SOL     OW  678   1.755   0.607   2.093
  221SOL    HW1  679   1.743   0.594   1.994
  221SOL    HW2  680   1.725   0.526   2.142
  222SOL     OW  681   0.768   1.144   2.885
  222SOL    HW1  682   0.690   1.161   2.945
  222SOL    HW2  683   0.802   1.231   2.849
  223SOL     OW  684   0.850   0.798   3.685
  223SOL    HW1  685   0.846   0.874   3.750
  223SOL    HW2  686   0.872   0.834   3.594
  224SOL     OW  687   0.685   1.012   2.527
  224SOL    HW1  688   0.754   0.996   2.597
  224SOL    HW2  689   0.612   1.069   2.565
  225SOL     OW  690   0.686   1.161   3.665
  225SOL    HW1  691   0.746   1.240   3.679
  225SOL    HW2  692   0.600   1.192   3.624
  226SOL     OW  693   0.335   1.435   2.923
  226SOL    HW1  694   0.257   1.404   2.870
  226SOL    HW2  695   0.393   1.493   2.866
  227SOL     OW  696   1.460   1.505   3.201
  227SOL    HW1  697   1.484   1.599   3.227
  227SOL    HW2  698   1.444   1.451   3.283
  228SOL     OW  699   0.438   0.392   3.361
  228SOL    HW1  700   0.520   0.336   3.370
  228SOL    HW2  701   0.357   0.334   3.365
  229SOL     OW  702   1.603   0.447   2.599
  229SOL    HW1  703   1.529   0.493   2.549
  229SOL    HW2  704   1.654   0.515   2.652
  230SOL     OW  705   0.231   1.713   2.345
  230SOL    HW1  706   0.265   1.790   2.399
  230SOL    HW2  707   0.275   1.713   2.255
  231SOL     OW  708   1.127   1.341   3.552
  231SOL    HW1  709   1.174   1.341   3.640
  231SOL    HW2  710   1.079   1.254   3.541
  232SOL     OW  711   0.230   1.434   2.400
  232SOL    HW1  712   0.204   1.530   2.400
  232SOL    HW2  713   0.159   1.380   2.445
  233SOL     OW  714   0.240   1.091   2.748
  233SOL    HW1  715   0.254   1.007   2.800
  233SOL    HW2  716   0.185   1.155   2.803
  234SOL     OW  717   0.620   1.786   3.301
  234SOL    HW1  718   0.528   1.769   3.336
  234SOL    HW2  719   0.648   1.878   3.327
  235SOL     OW  720   0.606   0.964   1.985
  235SOL    HW1  721   0.613   1.048   1.931
  235SOL    HW2  722   0.652   0.977   2.073
  236SOL     OW  723   1.594   0.114   3.342
  236SOL    HW1  724   1.576   0.181   3.270
  236SOL    HW2  725   1.591   0.160   3.431
  237SOL     OW  726   0.122   0.643   2.425
  237SOL    HW1  727   0.077   0.555   2.442
  237SOL    HW2  728   0.121   0.697   2.509
  238SOL     OW  729   1.842   1.767   2.221
  238SOL    HW1  730   1.896   1.738   2.301
  238SOL    HW2  731   1.872   1.857   2.192
  239SOL     OW  732   0.027   1.596   1.979
  239SOL    HW1  733   0.008   1.500   2.000
  239SOL    HW2  734  -0.006   1.654   2.054
  240SOL     OW  735   1.689   0.922   2.474
  240SOL    HW1  736   1.784   0.893   2.482
  240SOL    HW2  737   1.681   0.987   2.399
  241SOL     OW  738   1.641   1.108   2.294
  241SOL    HW1  739   1.727   1.110   2.242
  241SOL    HW2  740   1.655   1.155   2.382
  242SOL     OW  741   0.113   0.737   3.459
  242SOL    HW1  742   0.201   0.724   3.504
  242SOL    HW2  743   0.100   0.834   3.437
  243SOL     OW  744   0.613   1.365   2.588
  243SOL    HW1  745   0.564   1.278   2.597
  243SOL    HW2  746   0.590   1.408   2.501
  244SOL     OW  747   1.293   1.228   3.285
  244SOL    HW1  748   1.330   1.155   3.227
  244SOL    HW2  749   1.345   1.233   3.370
  245SOL     OW  750   0.809   0.004   2.364
  245SOL    HW1  751   0.849   0.095   2.355
  245SOL    HW2  752   0.709   0.012   2.370
  246SOL     OW  753   0.197   0.976   3.126
  246SOL    HW1  754   0.286   0.931   3.112
  246SOL    HW2  755   0.124   0.911   3.107
  247SOL     OW  756   1.525   0.999   2.052
  247SOL    HW1  757   1.462   0.923   2.065
  247SOL    HW2  758   1.573   1.017   2.138
  248SOL     OW  759   1.187   1.792   3.478
  248SOL    HW1  760   1.211   1.852   3.402
  248SOL    HW2  761   1.194   1.697   3.448
  249SOL     OW  762   0.317   0.251   3.663
  249SOL    HW1  763   0.388   0.322   3.669
  249SOL    HW2  764   0.229   0.290   3.691
  250SOL     OW  765   1.466   1.417   2.815
  250SOL    HW1  766   1.407   1.423   2.895
  250SOL    HW2  767   1.451   1.329   2.769
  251SOL     OW  768   1.667   1.714   2.434
  251SOL    HW1  769   1.626   1.691   2.346
  251SOL    HW2  770   1.649   1.640   2.499
  252SOL     OW  771   0.598   0.729   2.132
  252SOL    HW1  772   0.622   0.798   2.064
  252SOL    HW2  773   0.520   0.762   2.186
  253SOL     OW  774   1.281   0.345   2.806
  253SOL    HW1  775   1.195   0.295   2.793
  253SOL    HW2  776   1.343   0.291   2.862
  254SOL     OW  777   1.576   1.662   2.169
  254SOL    HW1  778   1.665   1.708   2.172
  254SOL    HW2  779   1.555   1.638   2.074
  255SOL     OW  780   0.807   0.605   3.327
  255SOL    HW1  781   0.760   0.602   3.416
  255SOL    HW2  782   0.756   0.550   3.261
  256SOL     OW  783   1.394   0.469   3.536
  256SOL    HW1  784   1.374   0.512   3.624
  256SOL    HW2  785   1.472   0.407   3.545
  257SOL     OW  786   0.973   0.890   3.434
  257SOL    HW1  787   1.019   0.806   3.405
  257SOL    HW2  788   0.917   0.924   3.359
  258SOL     OW  789   0.991   0.410   3.104
  258SOL    HW1  790   0.914   0.444   3.158
  258SOL    HW2  791   0.957   0.359   3.025
  259SOL     OW  792   1.041   0.701   2.291
  259SOL    HW1  793   1.067   0.697   2.387
  259SOL    HW2  794   0.956   0.650   2.277
  260SOL     OW  795   0.076   0.811   2.651
  260SOL    HW1  796   0.175   0.799   2.660
  260SOL    HW2  797   0.052   0.906   2.672
  261SOL     OW  798   0.130   1.821   3.433
  261SOL    HW1  799   0.120   1.806   3.532
  261SOL    HW2  800   0.044   1.857   3.397
  262SOL     OW  801   0.865   0.348   2.057
  262SOL    HW1  802   0.924   0.411   2.008
  262SOL    HW2  803   0.884   0.254   2.028
  263SOL     OW  804   1.719   0.585   3.693
  263SOL    HW1  805   1.693   0.674   3.657
  263SOL    HW2  806   1.717   0.517   3.620
  264SOL     OW  807   1.362   1.144   2.407
  264SOL    HW1  808   1.445   1.115   2.359
  264SOL    HW2  809   1.313   1.211   2.351
  265SOL     OW  810   0.550   0.196   2.747
  265SOL    HW1  811   0.545   0.191   2.847
  265SOL    HW2  812   0.552   0.292   2.718
  266SOL     OW  813   1.008   1.456   2.339
  266SOL    HW1  814   0.962   1.528   2.287
  266SOL    HW2  815   1.004   1.476   2.437
  267SOL     OW  816   0.351   1.801   2.715
  267SOL    HW1  817   0.401   1.715   2.721
  267SOL    HW2  818   0.416   1.878   2.712
  268SOL     OW  819   1.795   1.066   2.735
  268SOL    HW1  820   1.733   1.051   2.659
  268SOL    HW2  821   1.743   1.077   2.820
  269SOL     OW  822   1.227   1.550   3.368
  269SOL    HW1  823   1.233   1.473   3.432
  269SOL    HW2  824   1.175   1.524   3.288
  270SOL     OW  825   0.321   0.943   2.104
  270SOL    HW1  826   0.403   0.982   2.062
  270SOL    HW2  827   0.294   0.861   2.055
  271SOL     OW  828   1.458   0.735   2.590
  271SOL    HW1  829   1.453   0.670   2.665
  271SOL    HW2  830   1.538   0.794   2.603
  272SOL     OW  831   0.461   1.266   3.589
  272SOL    HW1  832   0.411   1.267   3.503
  272SOL    HW2  833   0.398   1.248   3.665
  273SOL     OW  834   1.111   1.776   2.099
  273SOL    HW1  835   1.051   1.714   2.149
  273SOL    HW2  836   1.142   1.732   2.014
  274SOL     OW  837   0.202   0.285   3.360
  274SOL    HW1  838   0.122   0.345   3.347
  274SOL    HW2  839   0.192   0.236   3.446
  275SOL     OW  840   1.632   1.377   1.943
  275SOL    HW1  841   1.600   1.471   1.933
  275SOL    HW2  842   1.556   1.314   1.931
  276SOL     OW  843   0.464   1.743   2.185
  276SOL    HW1  844   0.497   1.782   2.271
  276SOL    HW2  845   0.540   1.736   2.120
  277SOL     OW  846   1.400   0.107   2.288
  277SOL    HW1  847   1.376   0.070   2.198
  277SOL    HW2  848   1.499   0.123   2.292
  278SOL     OW  849   0.249   1.785   3.103
  278SOL    HW1  850   0.306   1.720   3.153
  278SOL    HW2  851   0.233   1.752   3.010
  279SOL     OW  852   0.940   1.698   2.766
  279SOL    HW1  853   1.020   1.641   2.787
  279SOL    HW2  854   0.891   1.658   2.689
  280SOL     OW  855   0.382   0.700   2.342
  280SOL    HW1  856   0.427   0.610   2.339
  280SOL    HW2  857   0.288   0.689   2.375
  281SOL     OW  858   1.547   0.222   3.591
  281SOL    HW1  859   1.542   0.259   3.683
  281SOL    HW2  860   1.475   0.153   3.579
  282SOL     OW  861   0.614   0.122   1.979
  282SOL    HW1  862   0.712   0.100   1.986
  282SOL    HW2  863   0.583   0.105   1.886
  283SOL     OW  864   0.781   0.264   3.611
  283SOL    HW1  865   0.848   0.203   3.654
  283SOL    HW2  866   0.708   0.283   3.676
  284SOL     OW  867   0.888   1.514   3.057
  284SOL    HW1  868   0.865   1.489   2.963
  284SOL    HW2  869   0.949   1.445   3.096
  285SOL     OW  870   1.351   0.590   3.295
  285SOL    HW1  871   1.379   0.547   3.380
  285SOL    HW2  872   1.376   0.686   3.296
  286SOL     OW  873   0.803   1.402   2.786
  286SOL    HW1  874   0.893   1.416   2.744
  286SOL    HW2  875   0.732   1.404   2.715
  287SOL     OW  876   0.922   0.503   2.761
  287SOL    HW1  877   0.897   0.494   2.665
  287SOL    HW2  878   0.970   0.421   2.792
  288SOL     OW  879   0.539   0.064   2.374
  288SOL    HW1  880   0.458   0.065   2.432
  288SOL    HW2  881   0.542   0.147   2.319
  289SOL     OW  882   1.434   1.188   1.903
  289SOL    HW1  883   1.466   1.112   1.960
  289SOL    HW2  884   1.342   1.215   1.933
  290SOL     OW  885   0.297   0.035   2.033
  290SOL    HW1  886   0.346   0.119   2.012
  290SOL    HW2  887   0.359  -0.030   2.078
  291SOL     OW  888   0.935   0.236   2.342
  291SOL    HW1  889   0.887   0.277   2.264
  291SOL    HW2  890   1.034   0.234   2.323
  292SOL     OW  891   1.076   0.683   3.326
  292SOL    HW1  892   0.996   0.622   3.329
  292SOL    HW2  893   1.157   0.630   3.302
  293SOL     OW  894   1.227   1.570   2.655
  293SOL    HW1  895   1.248   1.644   2.590
  293SOL    HW2  896   1.295   1.570   2.728
  294SOL     OW  897   0.459   1.152   2.603
  294SOL    HW1  898   0.388   1.125   2.668
  294SOL    HW2  899   0.433   1.124   2.510
  295SOL     OW  900   1.271   1.797   2.453
  295SOL    HW1  901   1.315   1.861   2.389
  295SOL    HW2  902   1.221   1.849   2.523
  296SOL     OW  903   1.032   0.549   1.878
  296SOL    HW1  904   0.991   0.631   1.839
  296SOL    HW2  905   1.096   0.575   1.951
  297SOL     OW  906   0.078   0.556   3.248
  297SOL    HW1  907   0.170   0.555   3.207
  297SOL    HW2  908   0.072   0.630   3.315
  298SOL     OW  909   0.561   0.222   3.009
  298SOL    HW1  910   0.599   0.138   3.046
  298SOL    HW2  911   0.473   0.241   3.053
  299SOL     OW  912   0.866   0.454   2.504
  299SOL    HW1  913   0.834   0.526   2.442
  299SOL    HW2  914   0.890   0.373   2.451
  300SOL     OW  915   1.017   0.039   2.615
  300SOL    HW1  916   0.945   0.044   2.546
  300SOL    HW2  917   0.993  -0.030   2.684
  301SOL     OW  918   1.429   1.173   2.729
  301SOL    HW1  919   1.374   1.089   2.722
  301SOL    HW2  920   1.455   1.202   2.637
  302SOL     OW  921   1.466   0.590   2.854
  302SOL    HW1  922   1.436   0.495   2.861
  302SOL    HW2  923   1.539   0.606   2.920
  303SOL     OW  924   1.857   0.833   2.239
  303SOL    HW1  925   1.899   0.769   2.303
  303SOL    HW2  926   1.819   0.782   2.161
  304SOL     OW  927   0.488   1.385   2.036
  304SOL    HW1  928   0.401   1.370   2.083
  304SOL    HW2  929   0.471   1.411   1.941
  305SOL     OW  930   1.664   1.280   2.519
  305SOL    HW1  931   1.763   1.288   2.533
  305SOL    HW2  932   1.619   1.364   2.550
  306SOL     OW  933   1.390   0.575   1.940
  306SOL    HW1  934   1.336   0.554   2.021
  306SOL    HW2  935   1.481   0.534   1.949
  307SOL     OW  936   0.527   0.256   2.190
  307SOL    HW1  937   0.554   0.197   2.115
  307SOL    HW2  938   0.527   0.351   2.159
  308SOL     OW  939   1.754   1.223   3.450
  308SOL    HW1  940   1.845   1.184   3.437
  308SOL    HW2  941   1.762   1.319   3.474
  309SOL     OW  942   1.064   1.347   3.202
  309SOL    HW1  943   0.984   1.324   3.257
  309SOL    HW2  944   1.147   1.321   3.251
  310SOL     OW  945   1.592   1.629   3.487
  310SOL    HW1  946   1.619   1.663   3.397
  310SOL    HW2  947   1.671   1.591   3.533
  311SOL     OW  948   1.111   1.195   2.962
  311SOL    HW1  949   1.071   1.239   3.043
  311SOL    HW2  950   1.070   1.232   2.879
  312SOL     OW  951   1.638   1.099   2.941
  312SOL    HW1  952   1.643   1.180   3.000
  312SOL    HW2  953   1.552   1.101   2.890
  313SOL     OW  954   0.915   0.089   3.264
  313SOL    HW1  955   0.940   0.069   3.169
  313SOL    HW2  956   0.987   0.145   3.306
  314SOL     OW  957   0.980   1.116   3.581
  314SOL    HW1  958   0.881   1.122   3.591
  314SOL    HW2  959   1.003   1.036   3.525
  315SOL     OW  960   0.705   1.050   2.230
  315SOL    HW1  961   0.691   1.057   2.329
  315SOL    HW2  962   0.789   0.999   2.212
  316SOL     OW  963   0.410   0.813   3.113
  316SOL    HW1  964   0.496   0.825   3.163
  316SOL    HW2  965   0.368   0.726   3.140
  317SOL     OW  966   1.274   0.386   3.124
  317SOL    HW1  967   1.295   0.460   3.188
  317SOL    HW2  968   1.185   0.403   3.081
  318SOL     OW  969   0.064   1.564   3.193
  318SOL    HW1  970   0.018   1.646   3.159
  318SOL    HW2  971   0.162   1.583   3.202
  319SOL     OW  972   0.367   1.100   2.363
  319SOL    HW1  973   0.360   1.183   2.307
  319SOL    HW2  974   0.371   1.020   2.303
  320SOL     OW  975   0.566   0.537   2.727
  320SOL    HW1  976   0.578   0.603   2.653
  320SOL    HW2  977   0.612   0.571   2.810
  321SOL     OW  978   1.252   1.348   2.250
  321SOL    HW1  979   1.302   1.425   2.290
  321SOL    HW2  980   1.157   1.350   2.282
  322SOL     OW  981   1.272   1.445   3.004
  322SOL    HW1  982   1.319   1.458   3.091
  322SOL    HW2  983   1.206   1.371   3.013
  323SOL     OW  984   1.582   0.639   2.334
  323SOL    HW1  985   1.551   0.700   2.407
  323SOL    HW2  986   1.632   0.691   2.265
  324SOL     OW  987   0.354   1.510   3.191
  324SOL    HW1  988   0.333   1.466   3.104
  324SOL    HW2  989   0.451   1.536   3.194
  325SOL     OW  990   0.402   0.751   3.460
  325SOL    HW1  991   0.470   0.806   3.413
  325SOL    HW2  992   0.442   0.663   3.487
  326SOL     OW  993   1.587   0.779   3.532
  326SOL    HW1  994   1.495   0.817   3.527
  326SOL    HW2  995   1.647   0.826   3.467
  327SOL     OW  996   1.013   0.105   3.632
  327SOL    HW1  997   1.019   0.190   3.580
  327SOL    HW2  998   1.045   0.029   3.575
  328SOL     OW  999   0.504   0.050   3.602
  328SOL    HW1 1000   0.462  -0.007   3.532
  328SOL    HW2 1001   0.438   0.119   3.634
  329SOL     OW 1002   0.573   0.870   2.891
  329SOL    HW1 1003   0.617   0.959   2.882
  329SOL    HW2 1004   0.510   0.870   2.968
  330SOL     OW 1005   1.360   0.862   2.907
  330SOL    HW1 1006   1.285   0.862   2.841
  330SOL    HW2 1007   1.397   0.770   2.916
  331SOL     OW 1008   1.209   0.525   2.137
  331SOL    HW1 1009   1.222   0.441   2.191
  331SOL    HW2 1010   1.180   0.599   2.197
  332SOL     OW 1011   0.307   0.213   3.093
  332SOL    HW1 1012   0.284   0.250   3.183
  332SOL    HW2 1013   0.277   0.118   3.087
  333SOL     OW 1014   0.037   1.310   3.144
  333SOL    HW1 1015   0.090   1.261   3.212
  333SOL    HW2 1016   0.059   1.408   3.149
  334SOL     OW 1017   0.732   0.634   2.926
  334SOL    HW1 1018   0.791   0.608   2.850
  334SOL    HW2 1019   0.704   0.730   2.915
  335SOL     OW 1020   1.728   0.935   3.716
  335SOL    HW1 1021   1.682   0.928   3.627
  335SOL    HW2 1022   1.666   0.979   3.782
  336SOL     OW 1023   0.307   0.063   2.480
  336SOL    HW1 1024   0.296   0.157   2.513
  336SOL    HW2 1025   0.302   0.000   2.557
  337SOL     OW 1026   1.622   0.367   2.236
  337SOL    HW1 1027   1.624   0.291   2.300
  337SOL    HW2 1028   1.574   0.444   2.276
  338SOL     OW 1029   1.023   0.766   2.828
  338SOL    HW1 1030   1.038   0.787   2.924
  338SOL    HW2 1031   0.993   0.671   2.819
  339SOL     OW 1032   0.980   1.573   3.562
  339SOL    HW1 1033   0.960   1.617   3.474
  339SOL    HW2 1034   1.019   1.482   3.546
  340SOL     OW 1035   1.859   1.518   3.467
  340SOL    HW1 1036   1.873   1.545   3.372
  340SOL    HW2 1037   1.942   1.540   3.520
  341SOL     OW 1038   0.350   0.898   3.666
  341SOL    HW1 1039   0.426   0.942   3.714
  341SOL    HW2 1040   0.385   0.851   3.584
  342SOL     OW 1041   1.540   0.274   1.987
  342SOL    HW1 1042   1.479   0.199   2.010
  342SOL    HW2 1043   1.562   0.326   2.070
  343SOL     OW 1044   1.303   0.838   1.904
  343SOL    HW1 1045   1.337   0.745   1.919
  343SOL    HW2 1046   1.321   0.865   1.809
  344SOL     OW 1047   1.068   1.333   2.711
  344SOL    HW1 1048   1.075   1.249   2.656
  344SOL    HW2 1049   1.130   1.402   2.675
  345SOL     OW 1050   0.319   0.810   2.811
  345SOL    HW1 1051   0.412   0.846   2.816
  345SOL    HW2 1052   0.313   0.725   2.863
  346SOL     OW 1053   0.339   0.509   2.868
  346SOL    HW1 1054   0.287   0.426   2.851
  346SOL    HW2 1055   0.416   0.514   2.804
  347SOL     OW 1056   1.138   0.380   3.540
  347SOL    HW1 1057   1.093   0.443   3.604
  347SOL    HW2 1058   1.231   0.411   3.523
  348SOL     OW 1059   1.160   0.207   3.339
  348SOL    HW1 1060   1.160   0.271   3.416
  348SOL    HW2 1061   1.188   0.255   3.256
  349SOL     OW 1062   0.008   1.326   2.062
  349SOL    HW1 1063  -0.085   1.347   2.031
  349SOL    HW2 1064   0.018   1.227   2.075
  350SOL     OW 1065   0.088   1.801   2.789
  350SOL    HW1 1066   0.046   1.715   2.762
  350SOL    HW2 1067   0.182   1.804   2.755
  351SOL     OW 1068   0.504   1.568   2.772
  351SOL    HW1 1069   0.570   1.642   2.781
  351SOL    HW2 1070   0.548   1.489   2.730
  352SOL     OW 1071   1.002   0.796   3.100
  352SOL    HW1 1072   1.043   0.764   3.186
  352SOL    HW2 1073   0.906   0.769   3.097
  353SOL     OW 1074   0.040   0.544   2.976
  353SOL    HW1 1075   0.125   0.511   2.935
  353SOL    HW2 1076   0.053   0.559   3.074
  354SOL     OW 1077   0.189   0.520   3.584
  354SOL    HW1 1078   0.248   0.480   3.514
  354SOL    HW2 1079   0.131   0.591   3.543
  355SOL     OW 1080   1.369   0.950   3.522
  355SOL    HW1 1081   1.408   1.039   3.542
  355SOL    HW2 1082   1.379   0.930   3.425
  356SOL     OW 1083   0.815   0.572   2.187
  356SOL    HW1 1084   0.822   0.483   2.141
  356SOL    HW2 1085   0.721   0.606   2.179
  357SOL     OW 1086   1.657   0.604   3.068
  357SOL    HW1 1087   1.619   0.535   3.130
  357SOL    HW2 1088   1.739   0.568   3.024
  358SOL     OW 1089   0.252   1.564   3.606
  358SOL    HW1 1090   0.222   1.621   3.682
  358SOL    HW2 1091   0.245   1.467   3.632
  359SOL     OW 1092   0.671   0.464   3.131
  359SOL    HW1 1093   0.637   0.375   3.101
  359SOL    HW2 1094   0.697   0.518   3.051
  360SOL     OW 1095   0.930   1.678   3.327
  360SOL    HW1 1096   0.906   1.660   3.232
  360SOL    HW2 1097   0.960   1.772   3.337
  361SOL     OW 1098   0.473   0.500   2.053
  361SOL    HW1 1099   0.534   0.580   2.057
  361SOL    HW2 1100   0.378   0.531   2.060
  362SOL     OW 1101   0.159   1.137   3.328
  362SOL    HW1 1102   0.181   1.076   3.404
  362SOL    HW2 1103   0.169   1.088   3.242
  363SOL     OW 1104   1.347   1.059   3.096
  363SOL    HW1 1105   1.371   0.996   3.022
  363SOL    HW2 1106   1.257   1.099   3.078
  364SOL     OW 1107   1.302   0.855   2.171
  364SOL    HW1 1108   1.216   0.824   2.213
  364SOL    HW2 1109   1.298   0.841   2.072
  365SOL     OW 1110   1.759   1.747   3.016
  365SOL    HW1 1111   1.820   1.777   2.943
  365SOL    HW2 1112   1.721   1.658   2.994
  366SOL     OW 1113   1.252   1.731   2.990
  366SOL    HW1 1114   1.336   1.736   2.936
  366SOL    HW2 1115   1.229   1.635   3.008
  367SOL     OW 1116   0.083   1.258   2.884
  367SOL    HW1 1117   0.078   1.257   2.984
  367SOL    HW2 1118   0.000   1.217   2.846
  368SOL     OW 1119   0.688   1.662   3.578
  368SOL    HW1 1120   0.632   1.743   3.587
  368SOL    HW2 1121   0.740   1.666   3.492
  369SOL     OW 1122   1.726   0.135   2.385
  369SOL    HW1 1123   1.799   0.118   2.318
  369SOL    HW2 1124   1.695   0.048   2.423
  370SOL     OW 1125   1.388   1.573   2.339
  370SOL    HW1 1126   1.455   1.585   2.265
  370SOL    HW2 1127   1.348   1.662   2.362
  371SOL     OW 1128   0.130   1.794   3.713
  371SOL    HW1 1129   0.089   1.720   3.766
  371SOL    HW2 1130   0.194   1.845   3.771
  372SOL     OW 1131   1.280   0.927   2.534
  372SOL    HW1 1132   1.340   0.846   2.536
  372SOL    HW2 1133   1.320   0.996   2.474
  373SOL     OW 1134   0.830   1.273   3.284
  373SOL    HW1 1135   0.825   1.306   3.379
  373SOL    HW2 1136   0.744   1.292   3.238
  374SOL     OW 1137   0.672   1.616   2.016
  374SOL    HW1 1138   0.681   1.626   1.917
  374SOL    HW2 1139   0.632   1.527   2.037
  375SOL     OW 1140   1.650   1.720   3.256
  375SOL    HW1 1141   1.703   1.730   3.172
  375SOL    HW2 1142   1.623   1.810   3.290
  376SOL     OW 1143   1.841   0.175   2.825
  376SOL    HW1 1144   1.880   0.090   2.789
  376SOL    HW2 1145   1.743   0.177   2.806
  377SOL     OW 1146   0.263   0.326   2.582
  377SOL    HW1 1147   0.184   0.377   2.548
  377SOL    HW2 1148   0.254   0.311   2.680
  378SOL     OW 1149   1.194   1.612   1.893
  378SOL    HW1 1150   1.200   1.519   1.930
  378SOL    HW2 1151   1.135   1.612   1.813
  379SOL     OW 1152   0.822   1.002   3.234
  379SOL    HW1 1153   0.862   1.001   3.142
  379SOL    HW2 1154   0.832   1.094   3.274
  380SOL     OW 1155   0.916   0.910   2.153
  380SOL    HW1 1156   0.979   0.948   2.085
  380SOL    HW2 1157   0.956   0.827   2.192
  381SOL     OW 1158   1.504   1.607   1.906
  381SOL    HW1 1159   1.412   1.644   1.913
  381SOL    HW2 1160   1.542   1.627   1.816
  382SOL     OW 1161   0.372   1.288   3.352
  382SOL    HW1 1162   0.359   1.381   3.318
  382SOL    HW2 1163   0.288   1.236   3.339
  383SOL     OW 1164   1.614   1.292   3.151
  383SOL    HW1 1165   1.674   1.295   3.231
  383SOL    HW2 1166   1.539   1.356   3.164
  384SOL     OW 1167   1.039   1.098   2.558
  384SOL    HW1 1168   0.969   1.051   2.612
  384SOL    HW2 1169   1.098   1.030   2.515
  385SOL     OW 1170   1.014   0.236   2.833
  385SOL    HW1 1171   1.006   0.200   2.740
  385SOL    HW2 1172   1.012   0.160   2.898
  386SOL     OW 1173   0.590   1.487   2.353
  386SOL    HW1 1174   0.632   1.429   2.283
  386SOL    HW2 1175   0.546   1.566   2.309
  387SOL     OW 1176   1.709   0.385   3.243
  387SOL    HW1 1177   1.782   0.454   3.247
  387SOL    HW2 1178   1.737   0.310   3.184
  388SOL     OW 1179   0.255   1.348   2.152
  388SOL    HW1 1180   0.159   1.349   2.125
  388SOL    HW2 1181   0.267   1.401   2.236
  389SOL     OW 1182   0.105   1.013   3.588
  389SOL    HW1 1183   0.028   0.980   3.642
  389SOL    HW2 1184   0.190   0.983   3.630
  390SOL     OW 1185   0.672   0.203   3.351
  390SOL    HW1 1186   0.762   0.187   3.311
  390SOL    HW2 1187   0.680   0.208   3.450
  391SOL     OW 1188   0.075   0.345   1.895
  391SOL    HW1 1189  -0.017   0.317   1.866
  391SOL    HW2 1190   0.106   0.422   1.839
  392SOL     OW 1191   1.440   0.856   3.260
  392SOL    HW1 1192   1.383   0.908   3.197
  392SOL    HW2 1193   1.536   0.868   3.236
  393SOL     OW 1194   0.072   0.166   2.180
  393SOL    HW1 1195   0.055   0.249   2.126
  393SOL    HW2 1196   0.162   0.129   2.158
  394SOL     OW 1197   1.183   1.335   1.981
  394SOL    HW1 1198   1.084   1.324   1.983
  394SOL    HW2 1199   1.217   1.350   2.074
  395SOL     OW 1200   0.613   0.842   3.293
  395SOL    HW1 1201   0.669   0.923   3.276
  395SOL    HW2 1202   0.672   0.762   3.296
  396SOL     OW 1203   1.493   1.767   2.821
  396SOL    HW1 1204   1.526   1.831   2.752
  396SOL    HW2 1205   1.559   1.761   2.896
  397SOL     OW 1206   0.716   0.565   3.570
  397SOL    HW1 1207   0.735   0.630   3.644
  397SOL    HW2 1208   0.776   0.485   3.579
  398SOL     OW 1209   1.450   1.220   3.495
  398SOL    HW1 1210   1.441   1.210   3.594
  398SOL    HW2 1211   1.546   1.213   3.469
  399SOL     OW 1212   0.390   1.741   3.422
  399SOL    HW1 1213   0.299   1.782   3.420
  399SOL    HW2 1214   0.383   1.647   3.454
  400SOL     OW 1215   1.674   0.883   3.116
  400SOL    HW1 1216   1.647   0.794   3.079
  400SOL    HW2 1217   1.675   0.951   3.043
  401SOL     OW 1218   1.225   0.325   2.311
  401SOL    HW1 1219   1.290   0.251   2.300
  401SOL    HW2 1220   1.245   0.375   2.395
  402SOL     OW 1221   0.594   0.745   2.514
  402SOL    HW1 1222   0.644   0.830   2.495
  402SOL    HW2 1223   0.506   0.747   2.466
  403SOL     OW 1224   1.777   0.342   3.504
  403SOL    HW1 1225   1.760   0.373   3.410
  403SOL    HW2 1226   1.693   0.305   3.542
  404SOL     OW 1227   1.730   0.934   3.379
  404SOL    HW1 1228   1.768   1.025   3.394
  404SOL    HW2 1229   1.722   0.917   3.280
  405SOL     OW 1230   0.859   1.374   1.878
  405SOL    HW1 1231   0.813   1.389   1.966
  405SOL    HW2 1232   0.903   1.459   1.848
  406SOL     OW 1233   0.661   1.790   2.815
  406SOL    HW1 1234   0.615   1.878   2.802
  406SOL    HW2 1235   0.760   1.802   2.808
  407SOL     OW 1236   0.859   0.956   2.723
  407SOL    HW1 1237   0.913   0.887   2.771
  407SOL    HW2 1238   0.827   1.025   2.789
  408SOL     OW 1239   1.083   0.984   1.949
  408SOL    HW1 1240   1.060   1.037   1.867
  408SOL    HW2 1241   1.164   0.928   1.930
  409SOL     OW 1242   1.861   1.569   2.713
  409SOL    HW1 1243   1.790   1.557   2.643
  409SOL    HW2 1244   1.862   1.490   2.773
  410SOL     OW 1245   0.221   1.314   3.706
  410SOL    HW1 1246   0.156   1.241   3.685
  410SOL    HW2 1247   0.225   1.328   3.804
  411SOL     OW 1248   0.079   1.240   2.515
  411SOL    HW1 1249   0.078   1.193   2.603
  411SOL    HW2 1250   0.161   1.212   2.464
  412SOL     OW 1251   0.672   1.391   3.486
  412SOL    HW1 1252   0.594   1.341   3.524
  412SOL    HW2 1253   0.669   1.486   3.517
  413SOL     OW 1254   1.824   0.192   3.089
  413SOL    HW1 1255   1.820   0.102   3.133
  413SOL    HW2 1256   1.827   0.181   2.990
  414SOL     OW 1257   0.428   0.424   2.382
  414SOL    HW1 1258   0.458   0.352   2.320
  414SOL    HW2 1259   0.389   0.384   2.465
  415SOL     OW 1260   1.705   1.487   2.966
  415SOL    HW1 1261   1.612   1.462   2.939
  415SOL    HW2 1262   1.731   1.437   3.048
  416SOL     OW 1263   0.317   0.547   3.142
  416SOL    HW1 1264   0.355   0.488   3.214
  416SOL    HW2 1265   0.357   0.521   3.054
  417SOL     OW 1266   0.812   1.586   2.549
  417SOL    HW1 1267   0.844   1.596   2.455
  417SOL    HW2 1268   0.733   1.524   2.551
  418SOL     OW 1269   1.424   0.214   2.974
  418SOL    HW1 1270   1.476   0.149   3.029
  418SOL    HW2 1271   1.375   0.277   3.035
  419SOL     OW 1272   1.001   0.034   3.016
  419SOL    HW1 1273   0.938  -0.038   2.985
  419SOL    HW2 1274   1.094  -0.002   3.016
  420SOL     OW 1275   0.770   1.330   2.163
  420SOL    HW1 1276   0.724   1.243   2.180
  420SOL    HW2 1277   0.861   1.327   2.204
  421SOL     OW 1278   0.618   1.567   3.146
  421SOL    HW1 1279   0.613   1.649   3.203
  421SOL    HW2 1280   0.707   1.564   3.101
  422SOL     OW 1281   1.352   0.052   2.030
  422SOL    HW1 1282   1.387   0.011   1.946
  422SOL    HW2 1283   1.262   0.014   2.050
  423SOL     OW 1284   1.300   0.453   2.553
  423SOL    HW1 1285   1.241   0.533   2.557
  423SOL    HW2 1286   1.315   0.418   2.646
  424SOL     OW 1287   1.593   0.221   2.744
  424SOL    HW1 1288   1.509   0.220   2.798
  424SOL    HW2 1289   1.595   0.304   2.688
  425SOL     OW 1290   0.039   1.077   2.162
  425SOL    HW1 1291   0.138   1.066   2.153
  425SOL    HW2 1292  -0.001   0.991   2.194
  426SOL     OW 1293   0.875   1.646   2.199
  426SOL    HW1 1294   0.798   1.611   2.145
  426SOL    HW2 1295   0.843   1.717   2.261
  427SOL     OW 1296   0.230   0.628   3.837
  427SOL    HW1 1297   0.137   0.626   3.874
  427SOL    HW2 1298   0.231   0.589   3.745
  428SOL     OW 1299   0.225   0.275   4.720
  428SOL    HW1 1300   0.260   0.258   4.812
  428SOL    HW2 1301   0.137   0.230   4.708
  429SOL     OW 1302   0.019   0.368   4.371
  429SOL    HW1 1303  -0.063   0.411   4.410
  429SOL    HW2 1304  -0.009   0.295   4.308
  430SOL     OW 1305   1.555   1.511   4.427
  430SOL    HW1 1306   1.498   1.495   4.508
  430SOL    HW2 1307   1.496   1.521   4.347
  431SOL     OW 1308   1.135   0.703   4.441
  431SOL    HW1 1309   1.192   0.781   4.416
  431SOL    HW2 1310   1.075   0.729   4.517
  432SOL     OW 1311   1.755   0.607   3.955
  432SOL    HW1 1312   1.743   0.594   3.856
  432SOL    HW2 1313   1.725   0.526   4.004
  433SOL     OW 1314   0.768   1.144   4.747
  433SOL    HW1 1315   0.690   1.161   4.807
  433SOL    HW2 1316   0.802   1.231   4.711
  434SOL     OW 1317   0.685   1.012   4.389
  434SOL    HW1 1318   0.754   0.996   4.459
  434SOL    HW2 1319   0.612   1.069   4.427
  435SOL     OW 1320   0.335   1.435   4.785
  435SOL    HW1 1321   0.257   1.404   4.732
  435SOL    HW2 1322   0.393   1.493   4.728
  436SOL     OW 1323   1.603   0.447   4.461
  436SOL    HW1 1324   1.529   0.493   4.411
  436SOL    HW2 1325   1.654   0.515   4.514
  437SOL     OW 1326   0.231   1.713   4.207
  437SOL    HW1 1327   0.265   1.790   4.261
  437SOL    HW2 1328   0.275   1.713   4.117
  438SOL     OW 1329   0.230   1.434   4.262
  438SOL    HW1 1330   0.204   1.530   4.262
  438SOL    HW2 1331   0.159   1.380   4.307
  439SOL     OW 1332   0.240   1.091   4.610
  439SOL    HW1 1333   0.254   1.007   4.662
  439SOL    HW2 1334   0.185   1.155   4.665
  440SOL     OW 1335   0.606   0.964   3.847
  440SOL    HW1 1336   0.613   1.048   3.793
  440SOL    HW2 1337   0.652   0.977   3.935
  441SOL     OW 1338   0.122   0.643   4.287
  441SOL    HW1 1339   0.077   0.555   4.304
  441SOL    HW2 1340   0.121   0.697   4.371
  442SOL     OW 1341   1.842   1.767   4.083
  442SOL    HW1 1342   1.896   1.738   4.163
  442SOL    HW2 1343   1.872   1.857   4.054
  443SOL     OW 1344   0.027   1.596   3.841
  443SOL    HW1 1345   0.008   1.500   3.862
  443SOL    HW2 1346  -0.006   1.654   3.916
  444SOL     OW 1347   1.689   0.922   4.336
  444SOL    HW1 1348   1.784   0.893   4.344
  444SOL    HW2 1349   1.681   0.987   4.261
  445SOL     OW 1350   1.641   1.108   4.156
  445SOL    HW1 1351   1.727   1.110   4.104
  445SOL    HW2 1352   1.655   1.155   4.244
  446SOL     OW 1353   0.613   1.365   4.450
  446SOL    HW1 1354   0.564   1.278   4.459
  446SOL    HW2 1355   0.590   1.408   4.363
  447SOL     OW 1356   0.809   0.004   4.226
  447SOL    HW1 1357   0.849   0.095   4.217
  447SOL    HW2 1358   0.709   0.012   4.232
  448SOL     OW 1359   0.197   0.976   4.988
  448SOL    HW1 1360   0.286   0.931   4.974
  448SOL    HW2 1361   0.124   0.911   4.969
  449SOL     OW 1362   1.525   0.999   3.914
  449SOL    HW1 1363   1.462   0.923   3.927
  449SOL    HW2 1364   1.573   1.017   4.000
  450SOL     OW 1365   1.466   1.417   4.677
  450SOL    HW1 1366   1.407   1.423   4.757
  450SOL    HW2 1367   1.451   1.329   4.631
  451SOL     OW 1368   1.667   1.714   4.296
  451SOL    HW1 1369   1.626   1.691   4.208
  451SOL    HW2 1370   1.649   1.640   4.361
  452SOL     OW 1371   0.598   0.729   3.994
  452SOL    HW1 1372   0.622   0.798   3.926
  452SOL    HW2 1373   0.520   0.762   4.048
  453SOL     OW 1374   1.281   0.345   4.668
  453SOL    HW1 1375   1.195   0.295   4.655
  453SOL    HW2 1376   1.343   0.291   4.724
  454SOL     OW 1377   1.576   1.662   4.031
  454SOL    HW1 1378   1.665   1.708   4.034
  454SOL    HW2 1379   1.555   1.638   3.936
  455SOL     OW 1380   1.041   0.701   4.153
  455SOL    HW1 1381   1.067   0.697   4.249
  455SOL    HW2 1382   0.956   0.650   4.139
  456SOL     OW 1383   0.076   0.811   4.513
  456SOL    HW1 1384   0.175   0.799   4.522
  456SOL    HW2 1385   0.052   0.906   4.534
  457SOL     OW 1386   0.865   0.348   3.919
  457SOL    HW1 1387   0.924   0.411   3.870
  457SOL    HW2 1388   0.884   0.254   3.890
  458SOL     OW 1389   1.362   1.144   4.269
  458SOL    HW1 1390   1.445   1.115   4.221
  458SOL    HW2 1391   1.313   1.211   4.213
  459SOL     OW 1392   0.550   0.196   4.609
  459SOL    HW1 1393   0.545   0.191   4.709
  459SOL    HW2 1394   0.552   0.292   4.580
  460SOL     OW 1395   1.008   1.456   4.201
  460SOL    HW1 1396   0.962   1.528   4.149
  460SOL    HW2 1397   1.004   1.476   4.299
  461SOL     OW 1398   0.351   1.801   4.577
  461SOL    HW1 1399   0.401   1.715   4.583
  461SOL    HW2 1400   0.416   1.878   4.574
  462SOL     OW 1401   1.795   1.066   4.597
  462SOL    HW1 1402   1.733   1.051   4.521
  462SOL    HW2 1403   1.743   1.077   4.682
  463SOL     OW 1404   0.321   0.943   3.966
  463SOL    HW1 1405   0.403   0.982   3.924
  463SOL    HW2 1406   0.294   0.861   3.917
  464SOL     OW 1407   1.458   0.735   4.452
  464SOL    HW1 1408   1.453   0.670   4.527
  464SOL    HW2 1409   1.538   0.794   4.465
  465SOL     OW 1410   1.111   1.776   3.961
  465SOL    HW1 1411   1.051   1.714   4.011
  465SOL    HW2 1412   1.142   1.732   3.876
  466SOL     OW 1413   1.632   1.377   3.805
  466SOL    HW1 1414   1.600   1.471   3.795
  466SOL    HW2 1415   1.556   1.314   3.793
  467SOL     OW 1416   0.464   1.743   4.047
  467SOL    HW1 1417   0.497   1.782   4.133
  467SOL    HW2 1418   0.540   1.736   3.982
  468SOL     OW 1419   1.400   0.107   4.150
  468SOL    HW1 1420   1.376   0.070   4.060
  468SOL    HW2 1421   1.499   0.123   4.154
  469SOL     OW 1422   0.249   1.785   4.965
  469SOL    HW1 1423   0.306   1.720   5.015
  469SOL    HW2 1424   0.233   1.752   4.872
  470SOL     OW 1425   0.940   1.698   4.628
  470SOL    HW1 1426   1.020   1.641   4.649
  470SOL    HW2 1427   0.891   1.658   4.551
  471SOL     OW 1428   0.382   0.700   4.204
  471SOL    HW1 1429   0.427   0.610   4.201
  471SOL    HW2 1430   0.288   0.689   4.237
  472SOL     OW 1431   0.614   0.122   3.841
  472SOL    HW1 1432   0.712   0.100   3.848
  472SOL    HW2 1433   0.583   0.105   3.748
  473SOL     OW 1434   0.803   1.402   4.648
  473SOL    HW1 1435   0.893   1.416   4.606
  473SOL    HW2 1436   0.732   1.404   4.577
  474SOL     OW 1437   0.922   0.503   4.623
  474SOL    HW1 1438   0.897   0.494   4.527
  474SOL    HW2 1439   0.970   0.421   4.654
  475SOL     OW 1440   0.539   0.064   4.236
  475SOL    HW1 1441   0.458   0.065   4.294
  475SOL    HW2 1442   0.542   0.147   4.181
  476SOL     OW 1443   1.434   1.188   3.765
  476SOL    HW1 1444   1.466   1.112   3.822
  476SOL    HW2 1445   1.342   1.215   3.795
  477SOL     OW 1446   0.297   0.035   3.895
  477SOL    HW1 1447   0.346   0.119   3.874
  477SOL    HW2 1448   0.359  -0.030   3.940
  478SOL     OW 1449   0.935   0.236   4.204
  478SOL    HW1 1450   0.887   0.277   4.126
  478SOL    HW2 1451   1.034   0.234   4.185
  479SOL     OW 1452   1.227   1.570   4.517
  479SOL    HW1 1453   1.248   1.644   4.452
  479SOL    HW2 1454   1.295   1.570   4.590
  480SOL     OW 1455   0.459   1.152   4.465
  480SOL    HW1 1456   0.388   1.125   4.530
  480SOL    HW2 1457   0.433   1.124   4.372
  481SOL     OW 1458   1.271   1.797   4.315
  481SOL    HW1 1459   1.315   1.861   4.251
  481SOL    HW2 1460   1.221   1.849   4.385
  482SOL     OW 1461   1.032   0.549   3.740
  482SOL    HW1 1462   0.991   0.631   3.701
  482SOL    HW2 1463   1.096   0.575   3.813
  483SOL     OW 1464   0.866   0.454   4.366
  483SOL    HW1 1465   0.834   0.526   4.304
  483SOL    HW2 1466   0.890   0.373   4.313
  484SOL     OW 1467   1.017   0.039   4.477
  484SOL    HW1 1468   0.945   0.044   4.408
  484SOL    HW2 1469   0.993  -0.030   4.546
  485SOL     OW 1470   1.429   1.173   4.591
  485SOL    HW1 1471   1.374   1.089   4.584
  485SOL    HW2 1472   1.455   1.202   4.499
  486SOL     OW 1473   1.466   0.590   4.716
  486SOL    HW1 1474   1.436   0.495   4.723
  486SOL    HW2 1475   1.539   0.606   4.782
  487SOL     OW 1476   1.857   0.833   4.101
  487SOL    HW1 1477   1.899   0.769   4.165
  487SOL    HW2 1478   1.819   0.782   4.023
  488SOL     OW 1479   0.488   1.385   3.898
  488SOL    HW1 1480   0.401   1.370   3.945
  488SOL    HW2 1481   0.471   1.411   3.803
  489SOL     OW 1482   1.664   1.280   4.381
  489SOL    HW1 1483   1.763   1.288   4.395
  489SOL    HW2 1484   1.619   1.364   4.412
  490SOL     OW 1485   1.390   0.575   3.802
  490SOL    HW1 1486   1.336   0.554   3.883
  490SOL    HW2 1487   1.481   0.534   3.811
  491SOL     OW 1488   0.527   0.256   4.052
  491SOL    HW1 1489   0.554   0.197   3.977
  491SOL    HW2 1490   0.527   0.351   4.021
  492SOL     OW 1491   1.111   1.195   4.824
  492SOL    HW1 1492   1.071   1.239   4.905
  492SOL    HW2 1493   1.070   1.232   4.741
  493SOL     OW 1494   1.638   1.099   4.803
  493SOL    HW1 1495   1.643   1.180   4.862
  493SOL    HW2 1496   1.552   1.101   4.752
  494SOL     OW 1497   0.705   1.050   4.092
  494SOL    HW1 1498   0.691   1.057   4.191
  494SOL    HW2 1499   0.789   0.999   4.074
  495SOL     OW 1500   0.410   0.813   4.975
  495SOL    HW1 1501   0.496   0.825   5.025
  495SOL    HW2 1502   0.368   0.726   5.002
  496SOL     OW 1503   0.367   1.100   4.225
  496SOL    HW1 1504   0.360   1.183   4.169
  496SOL    HW2 1505   0.371   1.020   4.165
  497SOL     OW 1506   0.566   0.537   4.589
  497SOL    HW1 1507   0.578   0.603   4.515
  497SOL    HW2 1508   0.612   0.571   4.672
  498SOL     OW 1509   1.252   1.348   4.112
  498SOL    HW1 1510   1.302   1.425   4.152
  498SOL    HW2 1511   1.157   1.350   4.144
  499SOL     OW 1512   1.272   1.445   4.866
  499SOL    HW1 1513   1.319   1.458   4.953
  499SOL    HW2 1514   1.206   1.371   4.875
  500SOL     OW 1515   1.582   0.639   4.196
  500SOL    HW1 1516   1.551   0.700   4.269
  500SOL    HW2 1517   1.632   0.691   4.127
  501SOL     OW 1518   0.354   1.510   5.053
  501SOL    HW1 1519   0.333   1.466   4.966
  501SOL    HW2 1520   0.451   1.536   5.056
  502SOL     OW 1521   0.573   0.870   4.753
  502SOL    HW1 1522   0.617   0.959   4.744
  502SOL    HW2 1523   0.510   0.870   4.830
  503SOL     OW 1524   1.209   0.525   3.999
  503SOL    HW1 1525   1.222   0.441   4.053
  503SOL    HW2 1526   1.180   0.599   4.059
  504SOL     OW 1527   0.732   0.634   4.788
  504SOL    HW1 1528   0.791   0.608   4.712
  504SOL    HW2 1529   0.704   0.730   4.777
  505SOL     OW 1530   0.307   0.063   4.342
  505SOL    HW1 1531   0.296   0.157   4.375
  505SOL    HW2 1532   0.302   0.000   4.419
  506SOL     OW 1533   1.622   0.367   4.098
  506SOL    HW1 1534   1.624   0.291   4.162
  506SOL    HW2 1535   1.574   0.444   4.138
  507SOL     OW 1536   1.023   0.766   4.690
  507SOL    HW1 1537   1.038   0.787   4.786
  507SOL    HW2 1538   0.993   0.671   4.681
  508SOL     OW 1539   1.540   0.274   3.849
  508SOL    HW1 1540   1.479   0.199   3.872
  508SOL    HW2 1541   1.562   0.326   3.932
  509SOL     OW 1542   1.303   0.838   3.766
  509SOL    HW1 1543   1.337   0.745   3.781
  509SOL    HW2 1544   1.321   0.865   3.671
  510SOL     OW 1545   1.068   1.333   4.573
  510SOL    HW1 1546   1.075   1.249   4.518
  510SOL    HW2 1547   1.130   1.402   4.537
  511SOL     OW 1548   0.319   0.810   4.673
  511SOL    HW1 1549   0.412   0.846   4.678
  511SOL    HW2 1550   0.313   0.725   4.725
  512SOL     OW 1551   0.339   0.509   4.730
  512SOL    HW1 1552   0.287   0.426   4.713
  512SOL    HW2 1553   0.416   0.514   4.666
  513SOL     OW 1554   0.008   1.326   3.924
  513SOL    HW1 1555  -0.085   1.347   3.893
  513SOL    HW2 1556   0.018   1.227   3.937
  514SOL     OW 1557   0.088   1.801   4.651
  514SOL    HW1 1558   0.046   1.715   4.624
  514SOL    HW2 1559   0.182   1.804   4.617
  515SOL     OW 1560   0.504   1.568   4.634
  515SOL    HW1 1561   0.570   1.642   4.643
  515SOL    HW2 1562   0.548   1.489   4.592
  516SOL     OW 1563   1.002   0.796   4.962
  516SOL    HW1 1564   1.043   0.764   5.048
  516SOL    HW2 1565   0.906   0.769   4.959
  517SOL     OW 1566   0.815   0.572   4.049
  517SOL    HW1 1567   0.822   0.483   4.003
  517SOL    HW2 1568   0.721   0.606   4.041
  518SOL     OW 1569   0.671   0.464   4.993
  518SOL    HW1 1570   0.637   0.375   4.963
  518SOL    HW2 1571   0.697   0.518   4.913
  519SOL     OW 1572   0.473   0.500   3.915
  519SOL    HW1 1573   0.534   0.580   3.919
  519SOL    HW2 1574   0.378   0.531   3.922
  520SOL     OW 1575   1.302   0.855   4.033
  520SOL    HW1 1576   1.216   0.824   4.075
  520SOL    HW2 1577   1.298   0.841   3.934
  521SOL     OW 1578   1.759   1.747   4.878
  521SOL    HW1 1579   1.820   1.777   4.805
  521SOL    HW2 1580   1.721   1.658   4.856
  522SOL     OW 1581   0.083   1.258   4.746
  522SOL    HW1 1582   0.078   1.257   4.846
  522SOL    HW2 1583   0.000   1.217   4.708
  523SOL     OW 1584   1.726   0.135   4.247
  523SOL    HW1 1585   1.799   0.118   4.180
  523SOL    HW2 1586   1.695   0.048   4.285
  524SOL     OW 1587   1.388   1.573   4.201
  524SOL    HW1 1588   1.455   1.585   4.127
  524SOL    HW2 1589   1.348   1.662   4.224
  525SOL     OW 1590   1.280   0.927   4.396
  525SOL    HW1 1591   1.340   0.846   4.398
  525SOL    HW2 1592   1.320   0.996   4.336
  526SOL     OW 1593   0.672   1.616   3.878
  526SOL    HW1 1594   0.681   1.626   3.779
  526SOL    HW2 1595   0.632   1.527   3.899
  527SOL     OW 1596   1.841   0.175   4.687
  527SOL    HW1 1597   1.880   0.090   4.651
  527SOL    HW2 1598   1.743   0.177   4.668
  528SOL     OW 1599   0.263   0.326   4.444
  528SOL    HW1 1600   0.184   0.377   4.410
  528SOL    HW2 1601   0.254   0.311   4.542
  529SOL     OW 1602   1.194   1.612   3.755
  529SOL    HW1 1603   1.200   1.519   3.792
  529SOL    HW2 1604   1.135   1.612   3.675
  530SOL     OW 1605   0.822   1.002   5.096
  530SOL    HW1 1606   0.862   1.001   5.004
  530SOL    HW2 1607   0.832   1.094   5.136
  531SOL     OW 1608   0.916   0.910   4.015
  531SOL    HW1 1609   0.979   0.948   3.947
  531SOL    HW2 1610   0.956   0.827   4.054
  532SOL     OW 1611   1.504   1.607   3.768
  532SOL    HW1 1612   1.412   1.644   3.775
  532SOL    HW2 1613   1.542   1.627   3.678
  533SOL     OW 1614   1.039   1.098   4.420
  533SOL    HW1 1615   0.969   1.051   4.474
  533SOL    HW2 1616   1.098   1.030   4.377
  534SOL     OW 1617   1.014   0.236   4.695
  534SOL    HW1 1618   1.006   0.200   4.602
  534SOL    HW2 1619   1.012   0.160   4.760
  535SOL     OW 1620   0.590   1.487   4.215
  535SOL    HW1 1621   0.632   1.429   4.145
  535SOL    HW2 1622   0.546   1.566   4.171
  536SOL     OW 1623   0.255   1.348   4.014
  536SOL    HW1 1624   0.159   1.349   3.987
  536SOL    HW2 1625   0.267   1.401   4.098
  537SOL     OW 1626   0.075   0.345   3.757
  537SOL    HW1 1627  -0.017   0.317   3.728
  537SOL    HW2 1628   0.106   0.422   3.701
  538SOL     OW 1629   0.072   0.166   4.042
  538SOL    HW1 1630   0.055   0.249   3.988
  538SOL    HW2 1631   0.162   0.129   4.020
  539SOL     OW 1632   1.183   1.335   3.843
  539SOL    HW1 1633   1.084   1.324   3.845
  539SOL    HW2 1634   1.217   1.350   3.936
  540SOL     OW 1635   1.493   1.767   4.683
  540SOL    HW1 1636   1.526   1.831   4.614
  540SOL    HW2 1637   1.559   1.761   4.758
  541SOL     OW 1638   1.674   0.883   4.978
  541SOL    HW1 1639   1.647   0.794   4.941
  541SOL    HW2 1640   1.675   0.951   4.905
  542SOL     OW 1641   1.225   0.325   4.173
  542SOL    HW1 1642   1.290   0.251   4.162
  542SOL    HW2 1643   1.245   0.375   4.257
  543SOL     OW 1644   0.594   0.745   4.376
  543SOL    HW1 1645   0.644   0.830   4.357
  543SOL    HW2 1646   0.506   0.747   4.328
  544SOL     OW 1647   0.859   1.374   3.740
  544SOL    HW1 1648   0.813   1.389   3.828
  544SOL    HW2 1649   0.903   1.459   3.710
  545SOL     OW 1650   0.661   1.790   4.677
  545SOL    HW1 1651   0.615   1.878   4.664
  545SOL    HW2 1652   0.760   1.802   4.670
  546SOL     OW 1653   0.859   0.956   4.585
  546SOL    HW1 1654   0.913   0.887   4.633
  546SOL    HW2 1655   0.827   1.025   4.651
  547SOL     OW 1656   1.083   0.984   3.811
  547SOL    HW1 1657   1.060   1.037   3.729
  547SOL    HW2 1658   1.164   0.928   3.792
  548SOL     OW 1659   1.861   1.569   4.575
  548SOL    HW1 1660   1.790   1.557   4.505
  548SOL    HW2 1661   1.862   1.490   4.635
  549SOL     OW 1662   0.079   1.240   4.377
  549SOL    HW1 1663   0.078   1.193   4.465
  549SOL    HW2 1664   0.161   1.212   4.326
  550SOL     OW 1665   1.824   0.192   4.951
  550SOL    HW1 1666   1.820   0.102   4.995
  550SOL    HW2 1667   1.827   0.181   4.852
  551SOL     OW 1668   0.428   0.424   4.244
  551SOL    HW1 1669   0.458   0.352   4.182
  551SOL    HW2 1670   0.389   0.384   4.327
  552SOL     OW 1671   0.812   1.586   4.411
  552SOL    HW1 1672   0.844   1.596   4.317
  552SOL    HW2 1673   0.733   1.524   4.413
  553SOL     OW 1674   1.424   0.214   4.836
  553SOL    HW1 1675   1.476   0.149   4.891
  553SOL    HW2 1676   1.375   0.277   4.897
  554SOL     OW 1677   0.770   1.330   4.025
  554SOL    HW1 1678   0.724   1.243   4.042
  554SOL    HW2 1679   0.861   1.327   4.066
  555SOL     OW 1680   1.352   0.052   3.892
  555SOL    HW1 1681   1.387   0.011   3.808
  555SOL    HW2 1682   1.262   0.014   3.912
  556SOL     OW 1683   1.300   0.453   4.415
  556SOL    HW1 1684   1.241   0.533   4.419
  556SOL    HW2 1685   1.315   0.418   4.508
  557SOL     OW 1686   1.593   0.221   4.606
  557SOL    HW1 1687   1.509   0.220   4.660
  557SOL    HW2 1688   1.595   0.304   4.550
  558SOL     OW 1689   0.039   1.077   4.024
  558SOL    HW1 1690   0.138   1.066   4.015
  558SOL    HW2 1691  -0.001   0.991   4.056
  559SOL     OW 1692   0.875   1.646   4.061
  559SOL    HW1 1693   0.798   1.611   4.007
  559SOL    HW2 1694   0.843   1.717   4.123
  560SOL     OW 1695   0.230   2.490   0.113
  560SOL    HW1 1696   0.137   2.488   0.150
  560SOL    HW2 1697   0.231   2.451   0.021
  561SOL     OW 1698   0.225   2.137   0.996
  561SOL    HW1 1699   0.260   2.120   1.088
  561SOL    HW2 1700   0.137   2.092   0.984
  562SOL     OW 1701   0.019   2.230   0.647
  562SOL    HW1 1702  -0.063   2.273   0.686
  562SOL    HW2 1703  -0.009   2.157   0.584
  563SOL     OW 1704   0.569   3.137   1.165
  563SOL    HW1 1705   0.476   3.130   1.128
  563SOL    HW2 1706   0.580   3.226   1.209
  564SOL     OW 1707   1.555   3.373   0.703
  564SOL    HW1 1708   1.498   3.357   0.784
  564SOL    HW2 1709   1.496   3.383   0.623
  565SOL     OW 1710   1.135   2.565   0.717
  565SOL    HW1 1711   1.192   2.643   0.692
  565SOL    HW2 1712   1.075   2.591   0.793
  566SOL     OW 1713   1.755   2.469   0.231
  566SOL    HW1 1714   1.743   2.456   0.132
  566SOL    HW2 1715   1.725   2.388   0.280
  567SOL     OW 1716   0.768   3.006   1.023
  567SOL    HW1 1717   0.690   3.023   1.083
  567SOL    HW2 1718   0.802   3.093   0.987
  568SOL     OW 1719   0.850   2.660   1.823
  568SOL    HW1 1720   0.846   2.736   1.888
  568SOL    HW2 1721   0.872   2.696   1.732
  569SOL     OW 1722   0.685   2.874   0.665
  569SOL    HW1 1723   0.754   2.858   0.735
  569SOL    HW2 1724   0.612   2.931   0.703
  570SOL     OW 1725   0.686   3.023   1.803
  570SOL    HW1 1726   0.746   3.102   1.817
  570SOL    HW2 1727   0.600   3.054   1.762
  571SOL     OW 1728   0.335   3.297   1.061
  571SOL    HW1 1729   0.257   3.266   1.008
  571SOL    HW2 1730   0.393   3.355   1.004
  572SOL     OW 1731   1.460   3.367   1.339
  572SOL    HW1 1732   1.484   3.461   1.365
  572SOL    HW2 1733   1.444   3.313   1.421
  573SOL     OW 1734   0.438   2.254   1.499
  573SOL    HW1 1735   0.520   2.198   1.508
  573SOL    HW2 1736   0.357   2.196   1.503
  574SOL     OW 1737   1.603   2.309   0.737
  574SOL    HW1 1738   1.529   2.355   0.687
  574SOL    HW2 1739   1.654   2.377   0.790
  575SOL     OW 1740   0.231   3.575   0.483
  575SOL    HW1 1741   0.265   3.652   0.537
  575SOL    HW2 1742   0.275   3.575   0.393
  576SOL     OW 1743   1.127   3.203   1.690
  576SOL    HW1 1744   1.174   3.203   1.778
  576SOL    HW2 1745   1.079   3.116   1.679
  577SOL     OW 1746   0.230   3.296   0.538
  577SOL    HW1 1747   0.204   3.392   0.538
  577SOL    HW2 1748   0.159   3.242   0.583
  578SOL     OW 1749   0.240   2.953   0.886
  578SOL    HW1 1750   0.254   2.869   0.938
  578SOL    HW2 1751   0.185   3.017   0.941
  579SOL     OW 1752   0.620   3.648   1.439
  579SOL    HW1 1753   0.528   3.631   1.474
  579SOL    HW2 1754   0.648   3.740   1.465
  580SOL     OW 1755   0.606   2.826   0.123
  580SOL    HW1 1756   0.613   2.910   0.069
  580SOL    HW2 1757   0.652   2.839   0.211
  581SOL     OW 1758   1.594   1.976   1.480
  581SOL    HW1 1759   1.576   2.043   1.408
  581SOL    HW2 1760   1.591   2.022   1.569
  582SOL     OW 1761   0.122   2.505   0.563
  582SOL    HW1 1762   0.077   2.417   0.580
  582SOL    HW2 1763   0.121   2.559   0.647
  583SOL     OW 1764   1.842   3.629   0.359
  583SOL    HW1 1765   1.896   3.600   0.439
  583SOL    HW2 1766   1.872   3.719   0.330
  584SOL     OW 1767   0.027   3.458   0.117
  584SOL    HW1 1768   0.008   3.362   0.138
  584SOL    HW2 1769  -0.006   3.516   0.192
  585SOL     OW 1770   1.689   2.784   0.612
  585SOL    HW1 1771   1.784   2.755   0.620
  585SOL    HW2 1772   1.681   2.849   0.537
  586SOL     OW 1773   1.641   2.970   0.432
  586SOL    HW1 1774   1.727   2.972   0.380
  586SOL    HW2 1775   1.655   3.017   0.520
  587SOL     OW 1776   0.113   2.599   1.597
  587SOL    HW1 1777   0.201   2.586   1.642
  587SOL    HW2 1778   0.100   2.696   1.575
  588SOL     OW 1779   0.613   3.227   0.726
  588SOL    HW1 1780   0.564   3.140   0.735
  588SOL    HW2 1781   0.590   3.270   0.639
  589SOL     OW 1782   1.293   3.090   1.423
  589SOL    HW1 1783   1.330   3.017   1.365
  589SOL    HW2 1784   1.345   3.095   1.508
  590SOL     OW 1785   0.809   1.866   0.502
  590SOL    HW1 1786   0.849   1.957   0.493
  590SOL    HW2 1787   0.709   1.874   0.508
  591SOL     OW 1788   0.197   2.838   1.264
  591SOL    HW1 1789   0.286   2.793   1.250
  591SOL    HW2 1790   0.124   2.773   1.245
  592SOL     OW 1791   1.525   2.861   0.190
  592SOL    HW1 1792   1.462   2.785   0.203
  592SOL    HW2 1793   1.573   2.879   0.276
  593SOL     OW 1794   1.187   3.654   1.616
  593SOL    HW1 1795   1.211   3.714   1.540
  593SOL    HW2 1796   1.194   3.559   1.586
  594SOL     OW 1797   0.317   2.113   1.801
  594SOL    HW1 1798   0.388   2.184   1.807
  594SOL    HW2 1799   0.229   2.152   1.829
  595SOL     OW 1800   1.466   3.279   0.953
  595SOL    HW1 1801   1.407   3.285   1.033
  595SOL    HW2 1802   1.451   3.191   0.907
  596SOL     OW 1803   1.667   3.576   0.572
  596SOL    HW1 1804   1.626   3.553   0.484
  596SOL    HW2 1805   1.649   3.502   0.637
  597SOL     OW 1806   0.598   2.591   0.270
  597SOL    HW1 1807   0.622   2.660   0.202
  597SOL    HW2 1808   0.520   2.624   0.324
  598SOL     OW 1809   1.281   2.207   0.944
  598SOL    HW1 1810   1.195   2.157   0.931
  598SOL    HW2 1811   1.343   2.153   1.000
  599SOL     OW 1812   1.576   3.524   0.307
  599SOL    HW1 1813   1.665   3.570   0.310
  599SOL    HW2 1814   1.555   3.500   0.212
  600SOL     OW 1815   0.807   2.467   1.465
  600SOL    HW1 1816   0.760   2.464   1.554
  600SOL    HW2 1817   0.756   2.412   1.399
  601SOL     OW 1818   1.394   2.331   1.674
  601SOL    HW1 1819   1.374   2.374   1.762
  601SOL    HW2 1820   1.472   2.269   1.683
  602SOL     OW 1821   0.973   2.752   1.572
  602SOL    HW1 1822   1.019   2.668   1.543
  602SOL    HW2 1823   0.917   2.786   1.497
  603SOL     OW 1824   0.991   2.272   1.242
  603SOL    HW1 1825   0.914   2.306   1.296
  603SOL    HW2 1826   0.957   2.221   1.163
  604SOL     OW 1827   1.041   2.563   0.429
  604SOL    HW1 1828   1.067   2.559   0.525
  604SOL    HW2 1829   0.956   2.512   0.415
  605SOL     OW 1830   0.076   2.673   0.789
  605SOL    HW1 1831   0.175   2.661   0.798
  605SOL    HW2 1832   0.052   2.768   0.810
  606SOL     OW 1833   0.130   3.683   1.571
  606SOL    HW1 1834   0.120   3.668   1.670
  606SOL    HW2 1835   0.044   3.719   1.535
  607SOL     OW 1836   0.865   2.210   0.195
  607SOL    HW1 1837   0.924   2.273   0.146
  607SOL    HW2 1838   0.884   2.116   0.166
  608SOL     OW 1839   1.719   2.447   1.831
  608SOL    HW1 1840   1.693   2.536   1.795
  608SOL    HW2 1841   1.717   2.379   1.758
  609SOL     OW 1842   1.362   3.006   0.545
  609SOL    HW1 1843   1.445   2.977   0.497
  609SOL    HW2 1844   1.313   3.073   0.489
  610SOL     OW 1845   0.550   2.058   0.885
  610SOL    HW1 1846   0.545   2.053   0.985
  610SOL    HW2 1847   0.552   2.154   0.856
  611SOL     OW 1848   1.008   3.318   0.477
  611SOL    HW1 1849   0.962   3.390   0.425
  611SOL    HW2 1850   1.004   3.338   0.575
  612SOL     OW 1851   0.351   3.663   0.853
  612SOL    HW1 1852   0.401   3.577   0.859
  612SOL    HW2 1853   0.416   3.740   0.850
  613SOL     OW 1854   1.795   2.928   0.873
  613SOL    HW1 1855   1.733   2.913   0.797
  613SOL    HW2 1856   1.743   2.939   0.958
  614SOL     OW 1857   1.227   3.412   1.506
  614SOL    HW1 1858   1.233   3.335   1.570
  614SOL    HW2 1859   1.175   3.386   1.426
  615SOL     OW 1860   0.321   2.805   0.242
  615SOL    HW1 1861   0.403   2.844   0.200
  615SOL    HW2 1862   0.294   2.723   0.193
  616SOL     OW 1863   1.458   2.597   0.728
  616SOL    HW1 1864   1.453   2.532   0.803
  616SOL    HW2 1865   1.538   2.656   0.741
  617SOL     OW 1866   0.461   3.128   1.727
  617SOL    HW1 1867   0.411   3.129   1.641
  617SOL    HW2 1868   0.398   3.110   1.803
  618SOL     OW 1869   1.111   3.638   0.237
  618SOL    HW1 1870   1.051   3.576   0.287
  618SOL    HW2 1871   1.142   3.594   0.152
  619SOL     OW 1872   0.202   2.147   1.498
  619SOL    HW1 1873   0.122   2.207   1.485
  619SOL    HW2 1874   0.192   2.098   1.584
  620SOL     OW 1875   1.632   3.239   0.081
  620SOL    HW1 1876   1.600   3.333   0.071
  620SOL    HW2 1877   1.556   3.176   0.069
  621SOL     OW 1878   0.464   3.605   0.323
  621SOL    HW1 1879   0.497   3.644   0.409
  621SOL    HW2 1880   0.540   3.598   0.258
  622SOL     OW 1881   1.400   1.969   0.426
  622SOL    HW1 1882   1.376   1.932   0.336
  622SOL    HW2 1883   1.499   1.985   0.430
  623SOL     OW 1884   0.249   3.647   1.241
  623SOL    HW1 1885   0.306   3.582   1.291
  623SOL    HW2 1886   0.233   3.614   1.148
  624SOL     OW 1887   0.940   3.560   0.904
  624SOL    HW1 1888   1.020   3.503   0.925
  624SOL    HW2 1889   0.891   3.520   0.827
  625SOL     OW 1890   0.382   2.562   0.480
  625SOL    HW1 1891   0.427   2.472   0.477
  625SOL    HW2 1892   0.288   2.551   0.513
  626SOL     OW 1893   1.547   2.084   1.729
  626SOL    HW1 1894   1.542   2.121   1.821
  626SOL    HW2 1895   1.475   2.015   1.717
  627SOL     OW 1896   0.614   1.984   0.117
  627SOL    HW1 1897   0.712   1.962   0.124
  627SOL    HW2 1898   0.583   1.967   0.024
  628SOL     OW 1899   0.781   2.126   1.749
  628SOL    HW1 1900   0.848   2.065   1.792
  628SOL    HW2 1901   0.708   2.145   1.814
  629SOL     OW 1902   0.888   3.376   1.195
  629SOL    HW1 1903   0.865   3.351   1.101
  629SOL    HW2 1904   0.949   3.307   1.234
  630SOL     OW 1905   1.351   2.452   1.433
  630SOL    HW1 1906   1.379   2.409   1.518
  630SOL    HW2 1907   1.376   2.548   1.434
  631SOL     OW 1908   0.803   3.264   0.924
  631SOL    HW1 1909   0.893   3.278   0.882
  631SOL    HW2 1910   0.732   3.266   0.853
  632SOL     OW 1911   0.922   2.365   0.899
  632SOL    HW1 1912   0.897   2.356   0.803
  632SOL    HW2 1913   0.970   2.283   0.930
  633SOL     OW 1914   0.539   1.926   0.512
  633SOL    HW1 1915   0.458   1.927   0.570
  633SOL    HW2 1916   0.542   2.009   0.457
  634SOL     OW 1917   1.434   3.050   0.041
  634SOL    HW1 1918   1.466   2.974   0.098
  634SOL    HW2 1919   1.342   3.077   0.071
  635SOL     OW 1920   0.297   1.897   0.171
  635SOL    HW1 1921   0.346   1.981   0.150
  635SOL    HW2 1922   0.359   1.832   0.216
  636SOL     OW 1923   0.935   2.098   0.480
  636SOL    HW1 1924   0.887   2.139   0.402
  636SOL    HW2 1925   1.034   2.096   0.461
  637SOL     OW 1926   1.076   2.545   1.464
  637SOL    HW1 1927   0.996   2.484   1.467
  637SOL    HW2 1928   1.157   2.492   1.440
  638SOL     OW 1929   1.227   3.432   0.793
  638SOL    HW1 1930   1.248   3.506   0.728
  638SOL    HW2 1931   1.295   3.432   0.866
  639SOL     OW 1932   0.459   3.014   0.741
  639SOL    HW1 1933   0.388   2.987   0.806
  639SOL    HW2 1934   0.433   2.986   0.648
  640SOL     OW 1935   1.271   3.659   0.591
  640SOL    HW1 1936   1.315   3.723   0.527
  640SOL    HW2 1937   1.221   3.711   0.661
  641SOL     OW 1938   1.032   2.411   0.016
  641SOL    HW1 1939   0.991   2.493  -0.023
  641SOL    HW2 1940   1.096   2.437   0.089
  642SOL     OW 1941   0.078   2.418   1.386
  642SOL    HW1 1942   0.170   2.417   1.345
  642SOL    HW2 1943   0.072   2.492   1.453
  643SOL     OW 1944   0.561   2.084   1.147
  643SOL    HW1 1945   0.599   2.000   1.184
  643SOL    HW2 1946   0.473   2.103   1.191
  644SOL     OW 1947   0.866   2.316   0.642
  644SOL    HW1 1948   0.834   2.388   0.580
  644SOL    HW2 1949   0.890   2.235   0.589
  645SOL     OW 1950   1.017   1.901   0.753
  645SOL    HW1 1951   0.945   1.906   0.684
  645SOL    HW2 1952   0.993   1.832   0.822
  646SOL     OW 1953   1.429   3.035   0.867
  646SOL    HW1 1954   1.374   2.951   0.860
  646SOL    HW2 1955   1.455   3.064   0.775
  647SOL     OW 1956   1.466   2.452   0.992
  647SOL    HW1 1957   1.436   2.357   0.999
  647SOL    HW2 1958   1.539   2.468   1.058
  648SOL     OW 1959   1.857   2.695   0.377
  648SOL    HW1 1960   1.899   2.631   0.441
  648SOL    HW2 1961   1.819   2.644   0.299
  649SOL     OW 1962   0.488   3.247   0.174
  649SOL    HW1 1963   0.401   3.232   0.221
  649SOL    HW2 1964   0.471   3.273   0.079
  650SOL     OW 1965   1.664   3.142   0.657
  650SOL    HW1 1966   1.763   3.150   0.671
  650SOL    HW2 1967   1.619   3.226   0.688
  651SOL     OW 1968   1.390   2.437   0.078
  651SOL    HW1 1969   1.336   2.416   0.159
  651SOL    HW2 1970   1.481   2.396   0.087
  652SOL     OW 1971   0.527   2.118   0.328
  652SOL    HW1 1972   0.554   2.059   0.253
  652SOL    HW2 1973   0.527   2.213   0.297
  653SOL     OW 1974   1.754   3.085   1.588
  653SOL    HW1 1975   1.845   3.046   1.575
  653SOL    HW2 1976   1.762   3.181   1.612
  654SOL     OW 1977   1.064   3.209   1.340
  654SOL    HW1 1978   0.984   3.186   1.395
  654SOL    HW2 1979   1.147   3.183   1.389
  655SOL     OW 1980   1.592   3.491   1.625
  655SOL    HW1 1981   1.619   3.525   1.535
  655SOL    HW2 1982   1.671   3.453   1.671
  656SOL     OW 1983   1.111   3.057   1.100
  656SOL    HW1 1984   1.071   3.101   1.181
  656SOL    HW2 1985   1.070   3.094   1.017
  657SOL     OW 1986   1.638   2.961   1.079
  657SOL    HW1 1987   1.643   3.042   1.138
  657SOL    HW2 1988   1.552   2.963   1.028
  658SOL     OW 1989   0.915   1.951   1.402
  658SOL    HW1 1990   0.940   1.931   1.307
  658SOL    HW2 1991   0.987   2.007   1.444
  659SOL     OW 1992   0.980   2.978   1.719
  659SOL    HW1 1993   0.881   2.984   1.729
  659SOL    HW2 1994   1.003   2.898   1.663
  660SOL     OW 1995   0.705   2.912   0.368
  660SOL    HW1 1996   0.691   2.919   0.467
  660SOL    HW2 1997   0.789   2.861   0.350
  661SOL     OW 1998   0.410   2.675   1.251
  661SOL    HW1 1999   0.496   2.687   1.301
  661SOL    HW2 2000   0.368   2.588   1.278
  662SOL     OW 2001   1.274   2.248   1.262
  662SOL    HW1 2002   1.295   2.322   1.326
  662SOL    HW2 2003   1.185   2.265   1.219
  663SOL     OW 2004   0.064   3.426   1.331
  663SOL    HW1 2005   0.018   3.508   1.297
  663SOL    HW2 2006   0.162   3.445   1.340
  664SOL     OW 2007   0.367   2.962   0.501
  664SOL    HW1 2008   0.360   3.045   0.445
  664SOL    HW2 2009   0.371   2.882   0.441
  665SOL     OW 2010   0.566   2.399   0.865
  665SOL    HW1 2011   0.578   2.465   0.791
  665SOL    HW2 2012   0.612   2.433   0.948
  666SOL     OW 2013   1.252   3.210   0.388
  666SOL    HW1 2014   1.302   3.287   0.428
  666SOL    HW2 2015   1.157   3.212   0.420
  667SOL     OW 2016   1.272   3.307   1.142
  667SOL    HW1 2017   1.319   3.320   1.229
  667SOL    HW2 2018   1.206   3.233   1.151
  668SOL     OW 2019   1.582   2.501   0.472
  668SOL    HW1 2020   1.551   2.562   0.545
  668SOL    HW2 2021   1.632   2.553   0.403
  669SOL     OW 2022   0.354   3.372   1.329
  669SOL    HW1 2023   0.333   3.328   1.242
  669SOL    HW2 2024   0.451   3.398   1.332
  670SOL     OW 2025   0.402   2.613   1.598
  670SOL    HW1 2026   0.470   2.668   1.551
  670SOL    HW2 2027   0.442   2.525   1.625
  671SOL     OW 2028   1.587   2.641   1.670
  671SOL    HW1 2029   1.495   2.679   1.665
  671SOL    HW2 2030   1.647   2.688   1.605
  672SOL     OW 2031   1.013   1.967   1.770
  672SOL    HW1 2032   1.019   2.052   1.718
  672SOL    HW2 2033   1.045   1.891   1.713
  673SOL     OW 2034   0.504   1.912   1.740
  673SOL    HW1 2035   0.462   1.855   1.670
  673SOL    HW2 2036   0.438   1.981   1.772
  674SOL     OW 2037   0.573   2.732   1.029
  674SOL    HW1 2038   0.617   2.821   1.020
  674SOL    HW2 2039   0.510   2.732   1.106
  675SOL     OW 2040   1.360   2.724   1.045
  675SOL    HW1 2041   1.285   2.724   0.979
  675SOL    HW2 2042   1.397   2.632   1.054
  676SOL     OW 2043   1.209   2.387   0.275
  676SOL    HW1 2044   1.222   2.303   0.329
  676SOL    HW2 2045   1.180   2.461   0.335
  677SOL     OW 2046   0.307   2.075   1.231
  677SOL    HW1 2047   0.284   2.112   1.321
  677SOL    HW2 2048   0.277   1.980   1.225
  678SOL     OW 2049   0.037   3.172   1.282
  678SOL    HW1 2050   0.090   3.123   1.350
  678SOL    HW2 2051   0.059   3.270   1.287
  679SOL     OW 2052   0.732   2.496   1.064
  679SOL    HW1 2053   0.791   2.470   0.988
  679SOL    HW2 2054   0.704   2.592   1.053
  680SOL     OW 2055   1.728   2.797   1.854
  680SOL    HW1 2056   1.682   2.790   1.765
  680SOL    HW2 2057   1.666   2.841   1.920
  681SOL     OW 2058   0.307   1.925   0.618
  681SOL    HW1 2059   0.296   2.019   0.651
  681SOL    HW2 2060   0.302   1.862   0.695
  682SOL     OW 2061   1.622   2.229   0.374
  682SOL    HW1 2062   1.624   2.153   0.438
  682SOL    HW2 2063   1.574   2.306   0.414
  683SOL     OW 2064   1.023   2.628   0.966
  683SOL    HW1 2065   1.038   2.649   1.062
  683SOL    HW2 2066   0.993   2.533   0.957
  684SOL     OW 2067   0.980   3.435   1.700
  684SOL    HW1 2068   0.960   3.479   1.612
  684SOL    HW2 2069   1.019   3.344   1.684
  685SOL     OW 2070   1.859   3.380   1.605
  685SOL    HW1 2071   1.873   3.407   1.510
  685SOL    HW2 2072   1.942   3.402   1.658
  686SOL     OW 2073   0.350   2.760   1.804
  686SOL    HW1 2074   0.426   2.804   1.852
  686SOL    HW2 2075   0.385   2.713   1.722
  687SOL     OW 2076   1.540   2.136   0.125
  687SOL    HW1 2077   1.479   2.061   0.148
  687SOL    HW2 2078   1.562   2.188   0.208
  688SOL     OW 2079   1.303   2.700   0.042
  688SOL    HW1 2080   1.337   2.607   0.057
  688SOL    HW2 2081   1.321   2.727  -0.053
  689SOL     OW 2082   1.068   3.195   0.849
  689SOL    HW1 2083   1.075   3.111   0.794
  689SOL    HW2 2084   1.130   3.264   0.813
  690SOL     OW 2085   0.319   2.672   0.949
  690SOL    HW1 2086   0.412   2.708   0.954
  690SOL    HW2 2087   0.313   2.587   1.001
  691SOL     OW 2088   0.339   2.371   1.006
  691SOL    HW1 2089   0.287   2.288   0.989
  691SOL    HW2 2090   0.416   2.376   0.942
  692SOL     OW 2091   1.138   2.242   1.678
  692SOL    HW1 2092   1.093   2.305   1.742
  692SOL    HW2 2093   1.231   2.273   1.661
  693SOL     OW 2094   1.160   2.069   1.477
  693SOL    HW1 2095   1.160   2.133   1.554
  693SOL    HW2 2096   1.188   2.117   1.394
  694SOL     OW 2097   0.008   3.188   0.200
  694SOL    HW1 2098  -0.085   3.209   0.169
  694SOL    HW2 2099   0.018   3.089   0.213
  695SOL     OW 2100   0.088   3.663   0.927
  695SOL    HW1 2101   0.046   3.577   0.900
  695SOL    HW2 2102   0.182   3.666   0.893
  696SOL     OW 2103   0.504   3.430   0.910
  696SOL    HW1 2104   0.570   3.504   0.919
  696SOL    HW2 2105   0.548   3.351   0.868
  697SOL     OW 2106   1.002   2.658   1.238
  697SOL    HW1 2107   1.043   2.626   1.324
  697SOL    HW2 2108   0.906   2.631   1.235
  698SOL     OW 2109   0.040   2.406   1.114
  698SOL    HW1 2110   0.125   2.373   1.073
  698SOL    HW2 2111   0.053   2.421   1.212
  699SOL     OW 2112   0.189   2.382   1.722
  699SOL    HW1 2113   0.248   2.342   1.652
  699SOL    HW2 2114   0.131   2.453   1.681
  700SOL     OW 2115   1.369   2.812   1.660
  700SOL    HW1 2116   1.408   2.901   1.680
  700SOL    HW2 2117   1.379   2.792   1.563
  701SOL     OW 2118   0.815   2.434   0.325
  701SOL    HW1 2119   0.822   2.345   0.279
  701SOL    HW2 2120   0.721   2.468   0.317
  702SOL     OW 2121   1.657   2.466   1.206
  702SOL    HW1 2122   1.619   2.397   1.268
  702SOL    HW2 2123   1.739   2.430   1.162
  703SOL     OW 2124   0.252   3.426   1.744
  703SOL    HW1 2125   0.222   3.483   1.820
  703SOL    HW2 2126   0.245   3.329   1.770
  704SOL     OW 2127   0.671   2.326   1.269
  704SOL    HW1 2128   0.637   2.237   1.239
  704SOL    HW2 2129   0.697   2.380   1.189
  705SOL     OW 2130   0.930   3.540   1.465
  705SOL    HW1 2131   0.906   3.522   1.370
  705SOL    HW2 2132   0.960   3.634   1.475
  706SOL     OW 2133   0.473   2.362   0.191
  706SOL    HW1 2134   0.534   2.442   0.195
  706SOL    HW2 2135   0.378   2.393   0.198
  707SOL     OW 2136   0.159   2.999   1.466
  707SOL    HW1 2137   0.181   2.938   1.542
  707SOL    HW2 2138   0.169   2.950   1.380
  708SOL     OW 2139   1.347   2.921   1.234
  708SOL    HW1 2140   1.371   2.858   1.160
  708SOL    HW2 2141   1.257   2.961   1.216
  709SOL     OW 2142   1.302   2.717   0.309
  709SOL    HW1 2143   1.216   2.686   0.351
  709SOL    HW2 2144   1.298   2.703   0.210
  710SOL     OW 2145   1.759   3.609   1.154
  710SOL    HW1 2146   1.820   3.639   1.081
  710SOL    HW2 2147   1.721   3.520   1.132
  711SOL     OW 2148   1.252   3.593   1.128
  711SOL    HW1 2149   1.336   3.598   1.074
  711SOL    HW2 2150   1.229   3.497   1.146
  712SOL     OW 2151   0.083   3.120   1.022
  712SOL    HW1 2152   0.078   3.119   1.122
  712SOL    HW2 2153   0.000   3.079   0.984
  713SOL     OW 2154   0.688   3.524   1.716
  713SOL    HW1 2155   0.632   3.605   1.725
  713SOL    HW2 2156   0.740   3.528   1.630
  714SOL     OW 2157   0.903   1.948   0.133
  714SOL    HW1 2158   0.954   1.949   0.047
  714SOL    HW2 2159   0.959   1.906   0.204
  715SOL     OW 2160   1.726   1.997   0.523
  715SOL    HW1 2161   1.799   1.980   0.456
  715SOL    HW2 2162   1.695   1.910   0.561
  716SOL     OW 2163   1.388   3.435   0.477
  716SOL    HW1 2164   1.455   3.447   0.403
  716SOL    HW2 2165   1.348   3.524   0.500
  717SOL     OW 2166   0.130   3.656   1.851
  717SOL    HW1 2167   0.089   3.582   1.904
  717SOL    HW2 2168   0.194   3.707   1.909
  718SOL     OW 2169   1.280   2.789   0.672
  718SOL    HW1 2170   1.340   2.708   0.674
  718SOL    HW2 2171   1.320   2.858   0.612
  719SOL     OW 2172   0.830   3.135   1.422
  719SOL    HW1 2173   0.825   3.168   1.517
  719SOL    HW2 2174   0.744   3.154   1.376
  720SOL     OW 2175   0.672   3.478   0.154
  720SOL    HW1 2176   0.681   3.488   0.055
  720SOL    HW2 2177   0.632   3.389   0.175
  721SOL     OW 2178   1.650   3.582   1.394
  721SOL    HW1 2179   1.703   3.592   1.310
  721SOL    HW2 2180   1.623   3.672   1.428
  722SOL     OW 2181   1.841   2.037   0.963
  722SOL    HW1 2182   1.880   1.952   0.927
  722SOL    HW2 2183   1.743   2.039   0.944
  723SOL     OW 2184   0.263   2.188   0.720
  723SOL    HW1 2185   0.184   2.239   0.686
  723SOL    HW2 2186   0.254   2.173   0.818
  724SOL     OW 2187   1.194   3.474   0.031
  724SOL    HW1 2188   1.200   3.381   0.068
  724SOL    HW2 2189   1.135   3.474  -0.049
  725SOL     OW 2190   0.822   2.864   1.372
  725SOL    HW1 2191   0.862   2.863   1.280
  725SOL    HW2 2192   0.832   2.956   1.412
  726SOL     OW 2193   0.916   2.772   0.291
  726SOL    HW1 2194   0.979   2.810   0.223
  726SOL    HW2 2195   0.956   2.689   0.330
  727SOL     OW 2196   1.504   3.469   0.044
  727SOL    HW1 2197   1.412   3.506   0.051
  727SOL    HW2 2198   1.542   3.489  -0.046
  728SOL     OW 2199   0.372   3.150   1.490
  728SOL    HW1 2200   0.359   3.243   1.456
  728SOL    HW2 2201   0.288   3.098   1.477
  729SOL     OW 2202   1.614   3.154   1.289
  729SOL    HW1 2203   1.674   3.157   1.369
  729SOL    HW2 2204   1.539   3.218   1.302
  730SOL     OW 2205   1.039   2.960   0.696
  730SOL    HW1 2206   0.969   2.913   0.750
  730SOL    HW2 2207   1.098   2.892   0.653
  731SOL     OW 2208   1.014   2.098   0.971
  731SOL    HW1 2209   1.006   2.062   0.878
  731SOL    HW2 2210   1.012   2.022   1.036
  732SOL     OW 2211   0.590   3.349   0.491
  732SOL    HW1 2212   0.632   3.291   0.421
  732SOL    HW2 2213   0.546   3.428   0.447
  733SOL     OW 2214   1.709   2.247   1.381
  733SOL    HW1 2215   1.782   2.316   1.385
  733SOL    HW2 2216   1.737   2.172   1.322
  734SOL     OW 2217   0.255   3.210   0.290
  734SOL    HW1 2218   0.159   3.211   0.263
  734SOL    HW2 2219   0.267   3.263   0.374
  735SOL     OW 2220   0.105   2.875   1.726
  735SOL    HW1 2221   0.028   2.842   1.780
  735SOL    HW2 2222   0.190   2.845   1.768
  736SOL     OW 2223   0.672   2.065   1.489
  736SOL    HW1 2224   0.762   2.049   1.449
  736SOL    HW2 2225   0.680   2.070   1.588
  737SOL     OW 2226   0.075   2.207   0.033
  737SOL    HW1 2227  -0.017   2.179   0.004
  737SOL    HW2 2228   0.106   2.284  -0.023
  738SOL     OW 2229   1.440   2.718   1.398
  738SOL    HW1 2230   1.383   2.770   1.335
  738SOL    HW2 2231   1.536   2.730   1.374
  739SOL     OW 2232   0.072   2.028   0.318
  739SOL    HW1 2233   0.055   2.111   0.264
  739SOL    HW2 2234   0.162   1.991   0.296
  740SOL     OW 2235   1.183   3.197   0.119
  740SOL    HW1 2236   1.084   3.186   0.121
  740SOL    HW2 2237   1.217   3.212   0.212
  741SOL     OW 2238   0.613   2.704   1.431
  741SOL    HW1 2239   0.669   2.785   1.414
  741SOL    HW2 2240   0.672   2.624   1.434
  742SOL     OW 2241   1.493   3.629   0.959
  742SOL    HW1 2242   1.526   3.693   0.890
  742SOL    HW2 2243   1.559   3.623   1.034
  743SOL     OW 2244   0.716   2.427   1.708
  743SOL    HW1 2245   0.735   2.492   1.782
  743SOL    HW2 2246   0.776   2.347   1.717
  744SOL     OW 2247   1.450   3.082   1.633
  744SOL    HW1 2248   1.441   3.072   1.732
  744SOL    HW2 2249   1.546   3.075   1.607
  745SOL     OW 2250   0.390   3.603   1.560
  745SOL    HW1 2251   0.299   3.644   1.558
  745SOL    HW2 2252   0.383   3.509   1.592
  746SOL     OW 2253   1.674   2.745   1.254
  746SOL    HW1 2254   1.647   2.656   1.217
  746SOL    HW2 2255   1.675   2.813   1.181
  747SOL     OW 2256   1.225   2.187   0.449
  747SOL    HW1 2257   1.290   2.113   0.438
  747SOL    HW2 2258   1.245   2.237   0.533
  748SOL     OW 2259   0.594   2.607   0.652
  748SOL    HW1 2260   0.644   2.692   0.633
  748SOL    HW2 2261   0.506   2.609   0.604
  749SOL     OW 2262   1.777   2.204   1.642
  749SOL    HW1 2263   1.760   2.235   1.548
  749SOL    HW2 2264   1.693   2.167   1.680
  750SOL     OW 2265   1.730   2.796   1.517
  750SOL    HW1 2266   1.768   2.887   1.532
  750SOL    HW2 2267   1.722   2.779   1.418
  751SOL     OW 2268   0.859   3.236   0.016
  751SOL    HW1 2269   0.813   3.251   0.104
  751SOL    HW2 2270   0.903   3.321  -0.014
  752SOL     OW 2271   0.661   3.652   0.953
  752SOL    HW1 2272   0.615   3.740   0.940
  752SOL    HW2 2273   0.760   3.664   0.946
  753SOL     OW 2274   0.859   2.818   0.861
  753SOL    HW1 2275   0.913   2.749   0.909
  753SOL    HW2 2276   0.827   2.887   0.927
  754SOL     OW 2277   1.083   2.846   0.087
  754SOL    HW1 2278   1.060   2.899   0.005
  754SOL    HW2 2279   1.164   2.790   0.068
  755SOL     OW 2280   1.861   3.431   0.851
  755SOL    HW1 2281   1.790   3.419   0.781
  755SOL    HW2 2282   1.862   3.352   0.911
  756SOL     OW 2283   0.221   3.176   1.844
  756SOL    HW1 2284   0.156   3.103   1.823
  756SOL    HW2 2285   0.225   3.190   1.942
  757SOL     OW 2286   0.079   3.102   0.653
  757SOL    HW1 2287   0.078   3.055   0.741
  757SOL    HW2 2288   0.161   3.074   0.602
  758SOL     OW 2289   0.672   3.253   1.624
  758SOL    HW1 2290   0.594   3.203   1.662
  758SOL    HW2 2291   0.669   3.348   1.655
  759SOL     OW 2292   1.824   2.054   1.227
  759SOL    HW1 2293   1.820   1.964   1.271
  759SOL    HW2 2294   1.827   2.043   1.128
  760SOL     OW 2295   0.428   2.286   0.520
  760SOL    HW1 2296   0.458   2.214   0.458
  760SOL    HW2 2297   0.389   2.246   0.603
  761SOL     OW 2298   1.705   3.349   1.104
  761SOL    HW1 2299   1.612   3.324   1.077
  761SOL    HW2 2300   1.731   3.299   1.186
  762SOL     OW 2301   0.317   2.409   1.280
  762SOL    HW1 2302   0.355   2.350   1.352
  762SOL    HW2 2303   0.357   2.383   1.192
  763SOL     OW 2304   0.812   3.448   0.687
  763SOL    HW1 2305   0.844   3.458   0.593
  763SOL    HW2 2306   0.733   3.386   0.689
  764SOL     OW 2307   1.424   2.076   1.112
  764SOL    HW1 2308   1.476   2.011   1.167
  764SOL    HW2 2309   1.375   2.139   1.173
  765SOL     OW 2310   1.001   1.896   1.154
  765SOL    HW1 2311   0.938   1.824   1.123
  765SOL    HW2 2312   1.094   1.860   1.154
  766SOL     OW 2313   0.770   3.192   0.301
  766SOL    HW1 2314   0.724   3.105   0.318
  766SOL    HW2 2315   0.861   3.189   0.342
  767SOL     OW 2316   0.618   3.429   1.284
  767SOL    HW1 2317   0.613   3.511   1.341
  767SOL    HW2 2318   0.707   3.426   1.239
  768SOL     OW 2319   1.352   1.914   0.168
  768SOL    HW1 2320   1.387   1.873   0.084
  768SOL    HW2 2321   1.262   1.876   0.188
  769SOL     OW 2322   1.300   2.315   0.691
  769SOL    HW1 2323   1.241   2.395   0.695
  769SOL    HW2 2324   1.315   2.280   0.784
  770SOL     OW 2325   1.593   2.083   0.882
  770SOL    HW1 2326   1.509   2.082   0.936
  770SOL    HW2 2327   1.595   2.166   0.826
  771SOL     OW 2328   0.039   2.939   0.300
  771SOL    HW1 2329   0.138   2.928   0.291
  771SOL    HW2 2330  -0.001   2.853   0.332
  772SOL     OW 2331   0.875   3.508   0.337
  772SOL    HW1 2332   0.798   3.473   0.283
  772SOL    HW2 2333   0.843   3.579   0.399
  773SOL     OW 2334   0.230   2.490   1.975
  773SOL    HW1 2335   0.137   2.488   2.012
  773SOL    HW2 2336   0.231   2.451   1.883
  774SOL     OW 2337   0.225   2.137   2.858
  774SOL    HW1 2338   0.260   2.120   2.950
  774SOL    HW2 2339   0.137   2.092   2.846
  775SOL     OW 2340   0.019   2.230   2.509
  775SOL    HW1 2341  -0.063   2.273   2.548
  775SOL    HW2 2342  -0.009   2.157   2.446
  776SOL     OW 2343   0.569   3.137   3.027
  776SOL    HW1 2344   0.476   3.130   2.990
  776SOL    HW2 2345   0.580   3.226   3.071
  777SOL     OW 2346   1.555   3.373   2.565
  777SOL    HW1 2347   1.498   3.357   2.646
  777SOL    HW2 2348   1.496   3.383   2.485
  778SOL     OW 2349   1.135   2.565   2.579
  778SOL    HW1 2350   1.192   2.643   2.554
  778SOL    HW2 2351   1.075   2.591   2.655
  779SOL     OW 2352   1.755   2.469   2.093
  779SOL    HW1 2353   1.743   2.456   1.994
  779SOL    HW2 2354   1.725   2.388   2.142
  780SOL     OW 2355   0.768   3.006   2.885
  780SOL    HW1 2356   0.690   3.023   2.945
  780SOL    HW2 2357   0.802   3.093   2.849
  781SOL     OW 2358   0.850   2.660   3.685
  781SOL    HW1 2359   0.846   2.736   3.750
  781SOL    HW2 2360   0.872   2.696   3.594
  782SOL     OW 2361   0.685   2.874   2.527
  782SOL    HW1 2362   0.754   2.858   2.597
  782SOL    HW2 2363   0.612   2.931   2.565
  783SOL     OW 2364   0.686   3.023   3.665
  783SOL    HW1 2365   0.746   3.102   3.679
  783SOL    HW2 2366   0.600   3.054   3.624
  784SOL     OW 2367   0.335   3.297   2.923
  784SOL    HW1 2368   0.257   3.266   2.870
  784SOL    HW2 2369   0.393   3.355   2.866
  785SOL     OW 2370   1.460   3.367   3.201
  785SOL    HW1 2371   1.484   3.461   3.227
  785SOL    HW2 2372   1.444   3.313   3.283
  786SOL     OW 2373   0.438   2.254   3.361
  786SOL    HW1 2374   0.520   2.198   3.370
  786SOL    HW2 2375   0.357   2.196   3.365
  787SOL     OW 2376   1.603   2.309   2.599
  787SOL    HW1 2377   1.529   2.355   2.549
  787SOL    HW2 2378   1.654   2.377   2.652
  788SOL     OW 2379   0.231   3.575   2.345
  788SOL    HW1 2380   0.265   3.652   2.399
  788SOL    HW2 2381   0.275   3.575   2.255
  789SOL     OW 2382   1.127   3.203   3.552
  789SOL    HW1 2383   1.174   3.203   3.640
  789SOL    HW2 2384   1.079   3.116   3.541
  790SOL     OW 2385   0.230   3.296   2.400
  790SOL    HW1 2386   0.204   3.392   2.400
  790SOL    HW2 2387   0.159   3.242   2.445
  791SOL     OW 2388   0.240   2.953   2.748
  791SOL    HW1 2389   0.254   2.869   2.800
  791SOL    HW2 2390   0.185   3.017   2.803
  792SOL     OW 2391   0.620   3.648   3.301
  792SOL    HW1 2392   0.528   3.631   3.336
  792SOL    HW2 2393   0.648   3.740   3.327
  793SOL     OW 2394   0.606   2.826   1.985
  793SOL    HW1 2395   0.613   2.910   1.931
  793SOL    HW2 2396   0.652   2.839   2.073
  794SOL     OW 2397   1.594   1.976   3.342
  794SOL    HW1 2398   1.576   2.043   3.270
  794SOL    HW2 2399   1.591   2.022   3.431
  795SOL     OW 2400   0.122   2.505   2.425
  795SOL    HW1 2401   0.077   2.417   2.442
  795SOL    HW2 2402   0.121   2.559   2.509
  796SOL     OW 2403   1.842   3.629   2.221
  796SOL    HW1 2404   1.896   3.600   2.301
  796SOL    HW2 2405   1.872   3.719   2.192
  797SOL     OW 2406   0.027   3.458   1.979
  797SOL    HW1 2407   0.008   3.362   2.000
  797SOL    HW2 2408  -0.006   3.516   2.054
  798SOL     OW 2409   1.689   2.784   2.474
  798SOL    HW1 2410   1.784   2.755   2.482
  798SOL    HW2 2411   1.681   2.849   2.399
  799SOL     OW 2412   1.641   2.970   2.294
  799SOL    HW1 2413   1.727   2.972   2.242
  799SOL    HW2 2414   1.655   3.017   2.382
  800SOL     OW 2415   0.113   2.599   3.459
  800SOL    HW1 2416   0.201   2.586   3.504
  800SOL    HW2 2417   0.100   2.696   3.437
  801SOL     OW 2418   0.613   3.227   2.588
  801SOL    HW1 2419   0.564   3.140   2.597
  801SOL    HW2 2420   0.590   3.270   2.501
  802SOL     OW 2421   1.293   3.090   3.285
  802SOL    HW1 2422   1.330   3.017   3.227
  802SOL    HW2 2423   1.345   3.095   3.370
  803SOL     OW 2424   0.809   1.866   2.364
  803SOL    HW1 2425   0.849   1.957   2.355
  803SOL    HW2 2426   0.709   1.874   2.370
  804SOL     OW 2427   0.197   2.838   3.126
  804SOL    HW1 2428   0.286   2.793   3.112
  804SOL    HW2 2429   0.124   2.773   3.107
  805SOL     OW 2430   1.525   2.861   2.052
  805SOL    HW1 2431   1.462   2.785   2.065
  805SOL    HW2 2432   1.573   2.879   2.138
  806SOL     OW 2433   1.187   3.654   3.478
  806SOL    HW1 2434   1.211   3.714   3.402
  806SOL    HW2 2435   1.194   3.559   3.448
  807SOL     OW 2436   0.317   2.113   3.663
  807SOL    HW1 2437   0.388   2.184   3.669
  807SOL    HW2 2438   0.229   2.152   3.691
  808SOL     OW 2439   1.466   3.279   2.815
  808SOL    HW1 2440   1.407   3.285   2.895
  808SOL    HW2 2441   1.451   3.191   2.769
  809SOL     OW 2442   1.667   3.576   2.434
  809SOL    HW1 2443   1.626   3.553   2.346
  809SOL    HW2 2444   1.649   3.502   2.499
  810SOL     OW 2445   0.598   2.591   2.132
  810SOL    HW1 2446   0.622   2.660   2.064
  810SOL    HW2 2447   0.520   2.624   2.186
  811SOL     OW 2448   1.281   2.207   2.806
  811SOL    HW1 2449   1.195   2.157   2.793
  811SOL    HW2 2450   1.343   2.153   2.862
  812SOL     OW 2451   1.576   3.524   2.169
  812SOL    HW1 2452   1.665   3.570   2.172
  812SOL    HW2 2453   1.555   3.500   2.074
  813SOL     OW 2454   0.807   2.467   3.327
  813SOL    HW1 2455   0.760   2.464   3.416
  813SOL    HW2 2456   0.756   2.412   3.261
  814SOL     OW 2457   1.394   2.331   3.536
  814SOL    HW1 2458   1.374   2.374   3.624
  814SOL    HW2 2459   1.472   2.269   3.545
  815SOL     OW 2460   0.973   2.752   3.434
  815SOL    HW1 2461   1.019   2.668   3.405
  815SOL    HW2 2462   0.917   2.786   3.359
  816SOL     OW 2463   0.991   2.272   3.104
  816SOL    HW1 2464   0.914   2.306   3.158
  816SOL    HW2 2465   0.957   2.221   3.025
  817SOL     OW 2466   1.041   2.563   2.291
  817SOL    HW1 2467   1.067   2.559   2.387
  817SOL    HW2 2468   0.956   2.512   2.277
  818SOL     OW 2469   0.076   2.673   2.651
  818SOL    HW1 2470   0.175   2.661   2.660
  818SOL    HW2 2471   0.052   2.768   2.672
  819SOL     OW 2472   0.130   3.683   3.433
  819SOL    HW1 2473   0.120   3.668   3.532
  819SOL    HW2 2474   0.044   3.719   3.397
  820SOL     OW 2475   0.865   2.210   2.057
  820SOL    HW1 2476   0.924   2.273   2.008
  820SOL    HW2 2477   0.884   2.116   2.028
  821SOL     OW 2478   1.719   2.447   3.693
  821SOL    HW1 2479   1.693   2.536   3.657
  821SOL    HW2 2480   1.717   2.379   3.620
  822SOL     OW 2481   1.362   3.006   2.407
  822SOL    HW1 2482   1.445   2.977   2.359
  822SOL    HW2 2483   1.313   3.073   2.351
  823SOL     OW 2484   0.550   2.058   2.747
  823SOL    HW1 2485   0.545   2.053   2.847
  823SOL    HW2 2486   0.552   2.154   2.718
  824SOL     OW 2487   1.008   3.318   2.339
  824SOL    HW1 2488   0.962   3.390   2.287
  824SOL    HW2 2489   1.004   3.338   2.437
  825SOL     OW 2490   0.351   3.663   2.715
  825SOL    HW1 2491   0.401   3.577   2.721
  825SOL    HW2 2492   0.416   3.740   2.712
  826SOL     OW 2493   1.795   2.928   2.735
  826SOL    HW1 2494   1.733   2.913   2.659
  826SOL    HW2 2495   1.743   2.939   2.820
  827SOL     OW 2496   1.227   3.412   3.368
  827SOL    HW1 2497   1.233   3.335   3.432
  827SOL    HW2 2498   1.175   3.386   3.288
  828SOL     OW 2499   0.321   2.805   2.104
  828SOL    HW1 2500   0.403   2.844   2.062
  828SOL    HW2 2501   0.294   2.723   2.055
  829SOL     OW 2502   1.458   2.597   2.590
  829SOL    HW1 2503   1.453   2.532   2.665
  829SOL    HW2 2504   1.538   2.656   2.603
  830SOL     OW 2505   0.461   3.128   3.589
  830SOL    HW1 2506   0.411   3.129   3.503
  830SOL    HW2 2507   0.398   3.110   3.665
  831SOL     OW 2508   1.111   3.638   2.099
  831SOL    HW1 2509   1.051   3.576   2.149
  831SOL    HW2 2510   1.142   3.594   2.014
  832SOL     OW 2511   0.202   2.147   3.360
  832SOL    HW1 2512   0.122   2.207   3.347
  832SOL    HW2 2513   0.192   2.098   3.446
  833SOL     OW 2514   1.632   3.239   1.943
  833SOL    HW1 2515   1.600   3.333   1.933
  833SOL    HW2 2516   1.556   3.176   1.931
  834SOL     OW 2517   0.464   3.605   2.185
  834SOL    HW1 2518   0.497   3.644   2.271
  834SOL    HW2 2519   0.540   3.598   2.120
  835SOL     OW 2520   1.400   1.969   2.288
  835SOL    HW1 2521   1.376   1.932   2.198
  835SOL    HW2 2522   1.499   1.985   2.292
  836SOL     OW 2523   0.249   3.647   3.103
  836SOL    HW1 2524   0.306   3.582   3.153
  836SOL    HW2 2525   0.233   3.614   3.010
  837SOL     OW 2526   0.940   3.560   2.766
  837SOL    HW1 2527   1.020   3.503   2.787
  837SOL    HW2 2528   0.891   3.520   2.689
  838SOL     OW 2529   0.382   2.562   2.342
  838SOL    HW1 2530   0.427   2.472   2.339
  838SOL    HW2 2531   0.288   2.551   2.375
  839SOL     OW 2532   1.547   2.084   3.591
  839SOL    HW1 2533   1.542   2.121   3.683
  839SOL    HW2 2534   1.475   2.015   3.579
  840SOL     OW 2535   0.614   1.984   1.979
  840SOL    HW1 2536   0.712   1.962   1.986
  840SOL    HW2 2537   0.583   1.967   1.886
  841SOL     OW 2538   0.781   2.126   3.611
  841SOL    HW1 2539   0.848   2.065   3.654
  841SOL    HW2 2540   0.708   2.145   3.676
  842SOL     OW 2541   0.888   3.376   3.057
  842SOL    HW1 2542   0.865   3.351   2.963
  842SOL    HW2 2543   0.949   3.307   3.096
  843SOL     OW 2544   1.351   2.452   3.295
  843SOL    HW1 2545   1.379   2.409   3.380
  843SOL    HW2 2546   1.376   2.548   3.296
  844SOL     OW 2547   0.803   3.264   2.786
  844SOL    HW1 2548   0.893   3.278   2.744
  844SOL    HW2 2549   0.732   3.266   2.715
  845SOL     OW 2550   0.922   2.365   2.761
  845SOL    HW1 2551   0.897   2.356   2.665
  845SOL    HW2 2552   0.970   2.283   2.792
  846SOL     OW 2553   0.539   1.926   2.374
  846SOL    HW1 2554   0.458   1.927   2.432
  846SOL    HW2 2555   0.542   2.009   2.319
  847SOL     OW 2556   1.434   3.050   1.903
  847SOL    HW1 2557   1.466   2.974   1.960
  847SOL    HW2 2558   1.342   3.077   1.933
  848SOL     OW 2559   0.297   1.897   2.033
  848SOL    HW1 2560   0.346   1.981   2.012
  848SOL    HW2 2561   0.359   1.832   2.078
  849SOL     OW 2562   0.935   2.098   2.342
  849SOL    HW1 2563   0.887   2.139   2.264
  849SOL    HW2 2564   1.034   2.096   2.323
  850SOL     OW 2565   1.076   2.545   3.326
  850SOL    HW1 2566   0.996   2.484   3.329
  850SOL    HW2 2567   1.157   2.492   3.302
  851SOL     OW 2568   1.227   3.432   2.655
  851SOL    HW1 2569   1.248   3.506   2.590
  851SOL    HW2 2570   1.295   3.432   2.728
  852SOL     OW 2571   0.459   3.014   2.603
  852SOL    HW1 2572   0.388   2.987   2.668
  852SOL    HW2 2573   0.433   2.986   2.510
  853SOL     OW 2574   1.271   3.659   2.453
  853SOL    HW1 2575   1.315   3.723   2.389
  853SOL    HW2 2576   1.221   3.711   2.523
  854SOL     OW 2577   1.032   2.411   1.878
  854SOL    HW1 2578   0.991   2.493   1.839
  854SOL    HW2 2579   1.096   2.437   1.951
  855SOL     OW 2580   0.078   2.418   3.248
  855SOL    HW1 2581   0.170   2.417   3.207
  855SOL    HW2 2582   0.072   2.492   3.315
  856SOL     OW 2583   0.561   2.084   3.009
  856SOL    HW1 2584   0.599   2.000   3.046
  856SOL    HW2 2585   0.473   2.103   3.053
  857SOL     OW 2586   0.866   2.316   2.504
  857SOL    HW1 2587   0.834   2.388   2.442
  857SOL    HW2 2588   0.890   2.235   2.451
  858SOL     OW 2589   1.017   1.901   2.615
  858SOL    HW1 2590   0.945   1.906   2.546
  858SOL    HW2 2591   0.993   1.832   2.684
  859SOL     OW 2592   1.429   3.035   2.729
  859SOL    HW1 2593   1.374   2.951   2.722
  859SOL    HW2 2594   1.455   3.064   2.637
  860SOL     OW 2595   1.466   2.452   2.854
  860SOL    HW1 2596   1.436   2.357   2.861
  860SOL    HW2 2597   1.539   2.468   2.920
  861SOL     OW 2598   1.857   2.695   2.239
  861SOL    HW1 2599   1.899   2.631   2.303
  861SOL    HW2 2600   1.819   2.644   2.161
  862SOL     OW 2601   0.488   3.247   2.036
  862SOL    HW1 2602   0.401   3.232   2.083
  862SOL    HW2 2603   0.471   3.273   1.941
  863SOL     OW 2604   1.664   3.142   2.519
  863SOL    HW1 2605   1.763   3.150   2.533
  863SOL    HW2 2606   1.619   3.226   2.550
  864SOL     OW 2607   1.390   2.437   1.940
  864SOL    HW1 2608   1.336   2.416   2.021
  864SOL    HW2 2609   1.481   2.396   1.949
  865SOL     OW 2610   0.527   2.118   2.190
  865SOL    HW1 2611   0.554   2.059   2.115
  865SOL    HW2 2612   0.527   2.213   2.159
  866SOL     OW 2613   1.754   3.085   3.450
  866SOL    HW1 2614   1.845   3.046   3.437
  866SOL    HW2 2615   1.762   3.181   3.474
  867SOL     OW 2616   1.064   3.209   3.202
  867SOL    HW1 2617   0.984   3.186   3.257
  867SOL    HW2 2618   1.147   3.183   3.251
  868SOL     OW 2619   1.592   3.491   3.487
  868SOL    HW1 2620   1.619   3.525   3.397
  868SOL    HW2 2621   1.671   3.453   3.533
  869SOL     OW 2622   1.111   3.057   2.962
  869SOL    HW1 2623   1.071   3.101   3.043
  869SOL    HW2 2624   1.070   3.094   2.879
  870SOL     OW 2625   1.638   2.961   2.941
  870SOL    HW1 2626   1.643   3.042   3.000
  870SOL    HW2 2627   1.552   2.963   2.890
  871SOL     OW 2628   0.915   1.951   3.264
  871SOL    HW1 2629   0.940   1.931   3.169
  871SOL    HW2 2630   0.987   2.007   3.306
  872SOL     OW 2631   0.980   2.978   3.581
  872SOL    HW1 2632   0.881   2.984   3.591
  872SOL    HW2 2633   1.003   2.898   3.525
  873SOL     OW 2634   0.705   2.912   2.230
  873SOL    HW1 2635   0.691   2.919   2.329
  873SOL    HW2 2636   0.789   2.861   2.212
  874SOL     OW 2637   0.410   2.675   3.113
  874SOL    HW1 2638   0.496   2.687   3.163
  874SOL    HW2 2639   0.368   2.588   3.140
  875SOL     OW 2640   1.274   2.248   3.124
  875SOL    HW1 2641   1.295   2.322   3.188
  875SOL    HW2 2642   1.185   2.265   3.081
  876SOL     OW 2643   0.064   3.426   3.193
  876SOL    HW1 2644   0.018   3.508   3.159
  876SOL    HW2 2645   0.162   3.445   3.202
  877SOL     OW 2646   0.367   2.962   2.363
  877SOL    HW1 2647   0.360   3.045   2.307
  877SOL    HW2 2648   0.371   2.882   2.303
  878SOL     OW 2649   0.566   2.399   2.727
  878SOL    HW1 2650   0.578   2.465   2.653
  878SOL    HW2 2651   0.612   2.433   2.810
  879SOL     OW 2652   1.252   3.210   2.250
  879SOL    HW1 2653   1.302   3.287   2.290
  879SOL    HW2 2654   1.157   3.212   2.282
  880SOL     OW 2655   1.272   3.307   3.004
  880SOL    HW1 2656   1.319   3.320   3.091
  880SOL    HW2 2657   1.206   3.233   3.013
  881SOL     OW 2658   1.582   2.501   2.334
  881SOL    HW1 2659   1.551   2.562   2.407
  881SOL    HW2 2660   1.632   2.553   2.265
  882SOL     OW 2661   0.354   3.372   3.191
  882SOL    HW1 2662   0.333   3.328   3.104
  882SOL    HW2 2663   0.451   3.398   3.194
  883SOL     OW 2664   0.402   2.613   3.460
  883SOL    HW1 2665   0.470   2.668   3.413
  883SOL    HW2 2666   0.442   2.525   3.487
  884SOL     OW 2667   1.587   2.641   3.532
  884SOL    HW1 2668   1.495   2.679   3.527
  884SOL    HW2 2669   1.647   2.688   3.467
  885SOL     OW 2670   1.013   1.967   3.632
  885SOL    HW1 2671   1.019   2.052   3.580
  885SOL    HW2 2672   1.045   1.891   3.575
  886SOL     OW 2673   0.504   1.912   3.602
  886SOL    HW1 2674   0.462   1.855   3.532
  886SOL    HW2 2675   0.438   1.981   3.634
  887SOL     OW 2676   0.573   2.732   2.891
  887SOL    HW1 2677   0.617   2.821   2.882
  887SOL    HW2 2678   0.510   2.732   2.968
  888SOL     OW 2679   1.360   2.724   2.907
  888SOL    HW1 2680   1.285   2.724   2.841
  888SOL    HW2 2681   1.397   2.632   2.916
  889SOL     OW 2682   1.209   2.387   2.137
  889SOL    HW1 2683   1.222   2.303   2.191
  889SOL    HW2 2684   1.180   2.461   2.197
  890SOL     OW 2685   0.307   2.075   3.093
  890SOL    HW1 2686   0.284   2.112   3.183
  890SOL    HW2 2687   0.277   1.980   3.087
  891SOL     OW 2688   0.037   3.172   3.144
  891SOL    HW1 2689   0.090   3.123   3.212
  891SOL    HW2 2690   0.059   3.270   3.149
  892SOL     OW 2691   0.732   2.496   2.926
  892SOL    HW1 2692   0.791   2.470   2.850
  892SOL    HW2 2693   0.704   2.592   2.915
  893SOL     OW 2694   1.728   2.797   3.716
  893SOL    HW1 2695   1.682   2.790   3.627
  893SOL    HW2 2696   1.666   2.841   3.782
  894SOL     OW 2697   0.307   1.925   2.480
  894SOL    HW1 2698   0.296   2.019   2.513
  894SOL    HW2 2699   0.302   1.862   2.557
  895SOL     OW 2700   1.622   2.229   2.236
  895SOL    HW1 2701   1.624   2.153   2.300
  895SOL    HW2 2702   1.574   2.306   2.276
  896SOL     OW 2703   1.023   2.628   2.828
  896SOL    HW1 2704   1.038   2.649   2.924
  896SOL    HW2 2705   0.993   2.533   2.819
  897SOL     OW 2706   0.980   3.435   3.562
  897SOL    HW1 2707   0.960   3.479   3.474
  897SOL    HW2 2708   1.019   3.344   3.546
  898SOL     OW 2709   1.859   3.380   3.467
  898SOL    HW1 2710   1.873   3.407   3.372
  898SOL    HW2 2711   1.942   3.402   3.520
  899SOL     OW 2712   0.350   2.760   3.666
  899SOL    HW1 2713   0.426   2.804   3.714
  899SOL    HW2 2714   0.385   2.713   3.584
  900SOL     OW 2715   1.540   2.136   1.987
  900SOL    HW1 2716   1.479   2.061   2.010
  900SOL    HW2 2717   1.562   2.188   2.070
  901SOL     OW 2718   1.303   2.700   1.904
  901SOL    HW1 2719   1.337   2.607   1.919
  901SOL    HW2 2720   1.321   2.727   1.809
  902SOL     OW 2721   1.068   3.195   2.711
  902SOL    HW1 2722   1.075   3.111   2.656
  902SOL    HW2 2723   1.130   3.264   2.675
  903SOL     OW 2724   0.319   2.672   2.811
  903SOL    HW1 2725   0.412   2.708   2.816
  903SOL    HW2 2726   0.313   2.587   2.863
  904SOL     OW 2727   0.339   2.371   2.868
  904SOL    HW1 2728   0.287   2.288   2.851
  904SOL    HW2 2729   0.416   2.376   2.804
  905SOL     OW 2730   1.138   2.242   3.540
  905SOL    HW1 2731   1.093   2.305   3.604
  905SOL    HW2 2732   1.231   2.273   3.523
  906SOL     OW 2733   1.160   2.069   3.339
  906SOL    HW1 2734   1.160   2.133   3.416
  906SOL    HW2 2735   1.188   2.117   3.256
  907SOL     OW 2736   0.008   3.188   2.062
  907SOL    HW1 2737  -0.085   3.209   2.031
  907SOL    HW2 2738   0.018   3.089   2.075
  908SOL     OW 2739   0.088   3.663   2.789
  908SOL    HW1 2740   0.046   3.577   2.762
  908SOL    HW2 2741   0.182   3.666   2.755
  909SOL     OW 2742   0.504   3.430   2.772
  909SOL    HW1 2743   0.570   3.504   2.781
  909SOL    HW2 2744   0.548   3.351   2.730
  910SOL     OW 2745   1.002   2.658   3.100
  910SOL    HW1 2746   1.043   2.626   3.186
  910SOL    HW2 2747   0.906   2.631   3.097
  911SOL     OW 2748   0.040   2.406   2.976
  911SOL    HW1 2749   0.125   2.373   2.935
  911SOL    HW2 2750   0.053   2.421   3.074
  912SOL     OW 2751   0.189   2.382   3.584
  912SOL    HW1 2752   0.248   2.342   3.514
  912SOL    HW2 2753   0.131   2.453   3.543
  913SOL     OW 2754   1.369   2.812   3.522
  913SOL    HW1 2755   1.408   2.901   3.542
  913SOL    HW2 2756   1.379   2.792   3.425
  914SOL     OW 2757   0.815   2.434   2.187
  914SOL    HW1 2758   0.822   2.345   2.141
  914SOL    HW2 2759   0.721   2.468   2.179
  915SOL     OW 2760   1.657   2.466   3.068
  915SOL    HW1 2761   1.619   2.397   3.130
  915SOL    HW2 2762   1.739   2.430   3.024
  916SOL     OW 2763   0.252   3.426   3.606
  916SOL    HW1 2764   0.222   3.483   3.682
  916SOL    HW2 2765   0.245   3.329   3.632
  917SOL     OW 2766   0.671   2.326   3.131
  917SOL    HW1 2767   0.637   2.237   3.101
  917SOL    HW2 2768   0.697   2.380   3.051
  918SOL     OW 2769   0.930   3.540   3.327
  918SOL    HW1 2770   0.906   3.522   3.232
  918SOL    HW2 2771   0.960   3.634   3.337
  919SOL     OW 2772   0.473   2.362   2.053
  919SOL    HW1 2773   0.534   2.442   2.057
  919SOL    HW2 2774   0.378   2.393   2.060
  920SOL     OW 2775   0.159   2.999   3.328
  920SOL    HW1 2776   0.181   2.938   3.404
  920SOL    HW2 2777   0.169   2.950   3.242
  921SOL     OW 2778   1.347   2.921   3.096
  921SOL    HW1 2779   1.371   2.858   3.022
  921SOL    HW2 2780   1.257   2.961   3.078
  922SOL     OW 2781   1.302   2.717   2.171
  922SOL    HW1 2782   1.216   2.686   2.213
  922SOL    HW2 2783   1.298   2.703   2.072
  923SOL     OW 2784   1.759   3.609   3.016
  923SOL    HW1 2785   1.820   3.639   2.943
  923SOL    HW2 2786   1.721   3.520   2.994
  924SOL     OW 2787   1.252   3.593   2.990
  924SOL    HW1 2788   1.336   3.598   2.936
  924SOL    HW2 2789   1.229   3.497   3.008
  925SOL     OW 2790   0.083   3.120   2.884
  925SOL    HW1 2791   0.078   3.119   2.984
  925SOL    HW2 2792   0.000   3.079   2.846
  926SOL     OW 2793   0.688   3.524   3.578
  926SOL    HW1 2794   0.632   3.605   3.587
  926SOL    HW2 2795   0.740   3.528   3.492
  927SOL     OW 2796   1.726   1.997   2.385
  927SOL    HW1 2797   1.799   1.980   2.318
  927SOL    HW2 2798   1.695   1.910   2.423
  928SOL     OW 2799   1.388   3.435   2.339
  928SOL    HW1 2800   1.455   3.447   2.265
  928SOL    HW2 2801   1.348   3.524   2.362
  929SOL     OW 2802   0.130   3.656   3.713
  929SOL    HW1 2803   0.089   3.582   3.766
  929SOL    HW2 2804   0.194   3.707   3.771
  930SOL     OW 2805   1.280   2.789   2.534
  930SOL    HW1 2806   1.340   2.708   2.536
  930SOL    HW2 2807   1.320   2.858   2.474
  931SOL     OW 2808   0.830   3.135   3.284
  931SOL    HW1 2809   0.825   3.168   3.379
  931SOL    HW2 2810   0.744   3.154   3.238
  932SOL     OW 2811   0.672   3.478   2.016
  932SOL    HW1 2812   0.681   3.488   1.917
  932SOL    HW2 2813   0.632   3.389   2.037
  933SOL     OW 2814   1.650   3.582   3.256
  933SOL    HW1 2815   1.703   3.592   3.172
  933SOL    HW2 2816   1.623   3.672   3.290
  934SOL     OW 2817   1.841   2.037   2.825
  934SOL    HW1 2818   1.880   1.952   2.789
  934SOL    HW2 2819   1.743   2.039   2.806
  935SOL     OW 2820   0.263   2.188   2.582
  935SOL    HW1 2821   0.184   2.239   2.548
  935SOL    HW2 2822   0.254   2.173   2.680
  936SOL     OW 2823   1.194   3.474   1.893
  936SOL    HW1 2824   1.200   3.381   1.930
  936SOL    HW2 2825   1.135   3.474   1.813
  937SOL     OW 2826   0.822   2.864   3.234
  937SOL    HW1 2827   0.862   2.863   3.142
  937SOL    HW2 2828   0.832   2.956   3.274
  938SOL     OW 2829   0.916   2.772   2.153
  938SOL    HW1 2830   0.979   2.810   2.085
  938SOL    HW2 2831   0.956   2.689   2.192
  939SOL     OW 2832   1.504   3.469   1.906
  939SOL    HW1 2833   1.412   3.506   1.913
  939SOL    HW2 2834   1.542   3.489   1.816
  940SOL     OW 2835   0.372   3.150   3.352
  940SOL    HW1 2836   0.359   3.243   3.318
  940SOL    HW2 2837   0.288   3.098   3.339
  941SOL     OW 2838   1.614   3.154   3.151
  941SOL    HW1 2839   1.674   3.157   3.231
  941SOL    HW2 2840   1.539   3.218   3.164
  942SOL     OW 2841   1.039   2.960   2.558
  942SOL    HW1 2842   0.969   2.913   2.612
  942SOL    HW2 2843   1.098   2.892   2.515
  943SOL     OW 2844   1.014   2.098   2.833
  943SOL    HW1 2845   1.006   2.062   2.740
  943SOL    HW2 2846   1.012   2.022   2.898
  944SOL     OW 2847   0.590   3.349   2.353
  944SOL    HW1 2848   0.632   3.291   2.283
  944SOL    HW2 2849   0.546   3.428   2.309
  945SOL     OW 2850   1.709   2.247   3.243
  945SOL    HW1 2851   1.782   2.316   3.247
  945SOL    HW2 2852   1.737   2.172   3.184
  946SOL     OW 2853   0.255   3.210   2.152
  946SOL    HW1 2854   0.159   3.211   2.125
  946SOL    HW2 2855   0.267   3.263   2.236
  947SOL     OW 2856   0.105   2.875   3.588
  947SOL    HW1 2857   0.028   2.842   3.642
  947SOL    HW2 2858   0.190   2.845   3.630
  948SOL     OW 2859   0.672   2.065   3.351
  948SOL    HW1 2860   0.762   2.049   3.311
  948SOL    HW2 2861   0.680   2.070   3.450
  949SOL     OW 2862   0.075   2.207   1.895
  949SOL    HW1 2863  -0.017   2.179   1.866
  949SOL    HW2 2864   0.106   2.284   1.839
  950SOL     OW 2865   1.440   2.718   3.260
  950SOL    HW1 2866   1.383   2.770   3.197
  950SOL    HW2 2867   1.536   2.730   3.236
  951SOL     OW 2868   0.072   2.028   2.180
  951SOL    HW1 2869   0.055   2.111   2.126
  951SOL    HW2 2870   0.162   1.991   2.158
  952SOL     OW 2871   1.183   3.197   1.981
  952SOL    HW1 2872   1.084   3.186   1.983
  952SOL    HW2 2873   1.217   3.212   2.074
  953SOL     OW 2874   0.613   2.704   3.293
  953SOL    HW1 2875   0.669   2.785   3.276
  953SOL    HW2 2876   0.672   2.624   3.296
  954SOL     OW 2877   1.493   3.629   2.821
  954SOL    HW1 2878   1.526   3.693   2.752
  954SOL    HW2 2879   1.559   3.623   2.896
  955SOL     OW 2880   0.716   2.427   3.570
  955SOL    HW1 2881   0.735   2.492   3.644
  955SOL    HW2 2882   0.776   2.347   3.579
  956SOL     OW 2883   1.450   3.082   3.495
  956SOL    HW1 2884   1.441   3.072   3.594
  956SOL    HW2 2885   1.546   3.075   3.469
  957SOL     OW 2886   0.390   3.603   3.422
  957SOL    HW1 2887   0.299   3.644   3.420
  957SOL    HW2 2888   0.383   3.509   3.454
  958SOL     OW 2889   1.674   2.745   3.116
  958SOL    HW1 2890   1.647   2.656   3.079
  958SOL    HW2 2891   1.675   2.813   3.043
  959SOL     OW 2892   1.225   2.187   2.311
  959SOL    HW1 2893   1.290   2.113   2.300
  959SOL    HW2 2894   1.245   2.237   2.395
  960SOL     OW 2895   0.594   2.607   2.514
  960SOL    HW1 2896   0.644   2.692   2.495
  960SOL    HW2 2897   0.506   2.609   2.466
  961SOL     OW 2898   1.777   2.204   3.504
  961SOL    HW1 2899   1.760   2.235   3.410
  961SOL    HW2 2900   1.693   2.167   3.542
  962SOL     OW 2901   1.730   2.796   3.379
  962SOL    HW1 2902   1.768   2.887   3.394
  962SOL    HW2 2903   1.722   2.779   3.280
  963SOL     OW 2904   0.859   3.236   1.878
  963SOL    HW1 2905   0.813   3.251   1.966
  963SOL    HW2 2906   0.903   3.321   1.848
  964SOL     OW 2907   0.661   3.652   2.815
  964SOL    HW1 2908   0.615   3.740   2.802
  964SOL    HW2 2909   0.760   3.664   2.808
  965SOL     OW 2910   0.859   2.818   2.723
  965SOL    HW1 2911   0.913   2.749   2.771
  965SOL    HW2 2912   0.827   2.887   2.789
  966SOL     OW 2913   1.083   2.846   1.949
  966SOL    HW1 2914   1.060   2.899   1.867
  966SOL    HW2 2915   1.164   2.790   1.930
  967SOL     OW 2916   1.861   3.431   2.713
  967SOL    HW1 2917   1.790   3.419   2.643
  967SOL    HW2 2918   1.862   3.352   2.773
  968SOL     OW 2919   0.221   3.176   3.706
  968SOL    HW1 2920   0.156   3.103   3.685
  968SOL    HW2 2921   0.225   3.190   3.804
  969SOL     OW 2922   0.079   3.102   2.515
  969SOL    HW1 2923   0.078   3.055   2.603
  969SOL    HW2 2924   0.161   3.074   2.464
  970SOL     OW 2925   0.672   3.253   3.486
  970SOL    HW1 2926   0.594   3.203   3.524
  970SOL    HW2 2927   0.669   3.348   3.517
  971SOL     OW 2928   1.824   2.054   3.089
  971SOL    HW1 2929   1.820   1.964   3.133
  971SOL    HW2 2930   1.827   2.043   2.990
  972SOL     OW 2931   0.428   2.286   2.382
  972SOL    HW1 2932   0.458   2.214   2.320
  972SOL    HW2 2933   0.389   2.246   2.465
  973SOL     OW 2934   1.705   3.349   2.966
  973SOL    HW1 2935   1.612   3.324   2.939
  973SOL    HW2 2936   1.731   3.299   3.048
  974SOL     OW 2937   0.317   2.409   3.142
  974SOL    HW1 2938   0.355   2.350   3.214
  974SOL    HW2 2939   0.357   2.383   3.054
  975SOL     OW 2940   0.812   3.448   2.549
  975SOL    HW1 2941   0.844   3.458   2.455
  975SOL    HW2 2942   0.733   3.386   2.551
  976SOL     OW 2943   1.424   2.076   2.974
  976SOL    HW1 2944   1.476   2.011   3.029
  976SOL    HW2 2945   1.375   2.139   3.035
  977SOL     OW 2946   1.001   1.896   3.016
  977SOL    HW1 2947   0.938   1.824   2.985
  977SOL    HW2 2948   1.094   1.860   3.016
  978SOL     OW 2949   0.770   3.192   2.163
  978SOL    HW1 2950   0.724   3.105   2.180
  978SOL    HW2 2951   0.861   3.189   2.204
  979SOL     OW 2952   0.618   3.429   3.146
  979SOL    HW1 2953   0.613   3.511   3.203
  979SOL    HW2 2954   0.707   3.426   3.101
  980SOL     OW 2955   1.352   1.914   2.030
  980SOL    HW1 2956   1.387   1.873   1.946
  980SOL    HW2 2957   1.262   1.876   2.050
  981SOL     OW 2958   1.300   2.315   2.553
  981SOL    HW1 2959   1.241   2.395   2.557
  981SOL    HW2 2960   1.315   2.280   2.646
  982SOL     OW 2961   1.593   2.083   2.744
  982SOL    HW1 2962   1.509   2.082   2.798
  982SOL    HW2 2963   1.595   2.166   2.688
  983SOL     OW 2964   0.039   2.939   2.162
  983SOL    HW1 2965   0.138   2.928   2.153
  983SOL    HW2 2966  -0.001   2.853   2.194
  984SOL     OW 2967   0.875   3.508   2.199
  984SOL    HW1 2968   0.798   3.473   2.145
  984SOL    HW2 2969   0.843   3.579   2.261
  985SOL     OW 2970   0.230   2.490   3.837
  985SOL    HW1 2971   0.137   2.488   3.874
  985SOL    HW2 2972   0.231   2.451   3.745
  986SOL     OW 2973   0.225   2.137   4.720
  986SOL    HW1 2974   0.260   2.120   4.812
  986SOL    HW2 2975   0.137   2.092   4.708
  987SOL     OW 2976   0.019   2.230   4.371
  987SOL    HW1 2977  -0.063   2.273   4.410
  987SOL    HW2 2978  -0.009   2.157   4.308
  988SOL     OW 2979   1.555   3.373   4.427
  988SOL    HW1 2980   1.498   3.357   4.508
  988SOL    HW2 2981   1.496   3.383   4.347
  989SOL     OW 2982   1.135   2.565   4.441
  989SOL    HW1 2983   1.192   2.643   4.416
  989SOL    HW2 2984   1.075   2.591   4.517
  990SOL     OW 2985   1.755   2.469   3.955
  990SOL    HW1 2986   1.743   2.456   3.856
  990SOL    HW2 2987   1.725   2.388   4.004
  991SOL     OW 2988   0.768   3.006   4.747
  991SOL    HW1 2989   0.690   3.023   4.807
  991SOL    HW2 2990   0.802   3.093   4.711
  992SOL     OW 2991   0.685   2.874   4.389
  992SOL    HW1 2992   0.754   2.858   4.459
  992SOL    HW2 2993   0.612   2.931   4.427
  993SOL     OW 2994   0.335   3.297   4.785
  993SOL    HW1 2995   0.257   3.266   4.732
  993SOL    HW2 2996   0.393   3.355   4.728
  994SOL     OW 2997   1.603   2.309   4.461
  994SOL    HW1 2998   1.529   2.355   4.411
  994SOL    HW2 2999   1.654   2.377   4.514
  995SOL     OW 3000   0.231   3.575   4.207
  995SOL    HW1 3001   0.265   3.652   4.261
  995SOL    HW2 3002   0.275   3.575   4.117
  996SOL     OW 3003   0.230   3.296   4.262
  996SOL    HW1 3004   0.204   3.392   4.262
  996SOL    HW2 3005   0.159   3.242   4.307
  997SOL     OW 3006   0.240   2.953   4.610
  997SOL    HW1 3007   0.254   2.869   4.662
  997SOL    HW2 3008   0.185   3.017   4.665
  998SOL     OW 3009   0.606   2.826   3.847
  998SOL    HW1 3010   0.613   2.910   3.793
  998SOL    HW2 3011   0.652   2.839   3.935
  999SOL     OW 3012   0.122   2.505   4.287
  999SOL    HW1 3013   0.077   2.417   4.304
  999SOL    HW2 3014   0.121   2.559   4.371
 1000SOL     OW 3015   1.842   3.629   4.083
 1000SOL    HW1 3016   1.896   3.600   4.163
 1000SOL    HW2 3017   1.872   3.719   4.054
 1001SOL     OW 3018   0.027   3.458   3.841
 1001SOL    HW1 3019   0.008   3.362   3.862
 1001SOL    HW2 3020  -0.006   3.516   3.916
 1002SOL     OW 3021   1.689   2.784   4.336
 1002SOL    HW1 3022   1.784   2.755   4.344
 1002SOL    HW2 3023   1.681   2.849   4.261
 1003SOL     OW 3024   1.641   2.970   4.156
 1003SOL    HW1 3025   1.727   2.972   4.104
 1003SOL    HW2 3026   1.655   3.017   4.244
 1004SOL     OW 3027   0.613   3.227   4.450
 1004SOL    HW1 3028   0.564   3.140   4.459
 1004SOL    HW2 3029   0.590   3.270   4.363
 1005SOL     OW 3030   0.809   1.866   4.226
 1005SOL    HW1 3031   0.849   1.957   4.217
 1005SOL    HW2 3032   0.709   1.874   4.232
 1006SOL     OW 3033   0.197   2.838   4.988
 1006SOL    HW1 3034   0.286   2.793   4.974
 1006SOL    HW2 3035   0.124   2.773   4.969
 1007SOL     OW 3036   1.525   2.861   3.914
 1007SOL    HW1 3037   1.462   2.785   3.927
 1007SOL    HW2 3038   1.573   2.879   4.000
 1008SOL     OW 3039   1.466   3.279   4.677
 1008SOL    HW1 3040   1.407   3.285   4.757
 1008SOL    HW2 3041   1.451   3.191   4.631
 1009SOL     OW 3042   1.667   3.576   4.296
 1009SOL    HW1 3043   1.626   3.553   4.208
 1009SOL    HW2 3044   1.649   3.502   4.361
 1010SOL     OW 3045   0.598   2.591   3.994
 1010SOL    HW1 3046   0.622   2.660   3.926
 1010SOL    HW2 3047   0.520   2.624   4.048
 1011SOL     OW 3048   1.281   2.207   4.668
 1011SOL    HW1 3049   1.195   2.157   4.655
 1011SOL    HW2 3050   1.343   2.153   4.724
 1012SOL     OW 3051   1.576   3.524   4.031
 1012SOL    HW1 3052   1.665   3.570   4.034
 1012SOL    HW2 3053   1.555   3.500   3.936
 1013SOL     OW 3054   1.041   2.563   4.153
 1013SOL    HW1 3055   1.067   2.559   4.249
 1013SOL    HW2 3056   0.956   2.512   4.139
 1014SOL     OW 3057   0.076   2.673   4.513
 1014SOL    HW1 3058   0.175   2.661   4.522
 1014SOL    HW2 3059   0.052   2.768   4.534
 1015SOL     OW 3060   0.865   2.210   3.919
 1015SOL    HW1 3061   0.924   2.273   3.870
 1015SOL    HW2 3062   0.884   2.116   3.890
 1016SOL     OW 3063   1.362   3.006   4.269
 1016SOL    HW1 3064   1.445   2.977   4.221
 1016SOL    HW2 3065   1.313   3.073   4.213
 1017SOL     OW 3066   0.550   2.058   4.609
 1017SOL    HW1 3067   0.545   2.053   4.709
 1017SOL    HW2 3068   0.552   2.154   4.580
 1018SOL     OW 3069   1.008   3.318   4.201
 1018SOL    HW1 3070   0.962   3.390   4.149
 1018SOL    HW2 3071   1.004   3.338   4.299
 1019SOL     OW 3072   0.351   3.663   4.577
 1019SOL    HW1 3073   0.401   3.577   4.583
 1019SOL    HW2 3074   0.416   3.740   4.574
 1020SOL     OW 3075   1.795   2.928   4.597
 1020SOL    HW1 3076   1.733   2.913   4.521
 1020SOL    HW2 3077   1.743   2.939   4.682
 1021SOL     OW 3078   0.321   2.805   3.966
 1021SOL    HW1 3079   0.403   2.844   3.924
 1021SOL    HW2 3080   0.294   2.723   3.917
 1022SOL     OW 3081   1.458   2.597   4.452
 1022SOL    HW1 3082   1.453   2.532   4.527
 1022SOL    HW2 3083   1.538   2.656   4.465
 1023SOL     OW 3084   1.111   3.638   3.961
 1023SOL    HW1 3085   1.051   3.576   4.011
 1023SOL    HW2 3086   1.142   3.594   3.876
 1024SOL     OW 3087   1.632   3.239   3.805
 1024SOL    HW1 3088   1.600   3.333   3.795
 1024SOL    HW2 3089   1.556   3.176   3.793
 1025SOL     OW 3090   0.464   3.605   4.047
 1025SOL    HW1 3091   0.497   3.644   4.133
 1025SOL    HW2 3092   0.540   3.598   3.982
 1026SOL     OW 3093   1.400   1.969   4.150
 1026SOL    HW1 3094   1.376   1.932   4.060
 1026SOL    HW2 3095   1.499   1.985   4.154
 1027SOL     OW 3096   0.249   3.647   4.965
 1027SOL    HW1 3097   0.306   3.582   5.015
 1027SOL    HW2 3098   0.233   3.614   4.872
 1028SOL     OW 3099   0.940   3.560   4.628
 1028SOL    HW1 3100   1.020   3.503   4.649
 1028SOL    HW2 3101   0.891   3.520   4.551
 1029SOL     OW 3102   0.382   2.562   4.204
 1029SOL    HW1 3103   0.427   2.472   4.201
 1029SOL    HW2 3104   0.288   2.551   4.237
 1030SOL     OW 3105   0.614   1.984   3.841
 1030SOL    HW1 3106   0.712   1.962   3.848
 1030SOL    HW2 3107   0.583   1.967   3.748
 1031SOL     OW 3108   0.803   3.264   4.648
 1031SOL    HW1 3109   0.893   3.278   4.606
 1031SOL    HW2 3110   0.732   3.266   4.577
 1032SOL     OW 3111   0.922   2.365   4.623
 1032SOL    HW1 3112   0.897   2.356   4.527
 1032SOL    HW2 3113   0.970   2.283   4.654
 1033SOL     OW 3114   0.539   1.926   4.236
 1033SOL    HW1 3115   0.458   1.927   4.294
 1033SOL    HW2 3116   0.542   2.009   4.181
 1034SOL     OW 3117   1.434   3.050   3.765
 1034SOL    HW1 3118   1.466   2.974   3.822
 1034SOL    HW2 3119   1.342   3.077   3.795
 1035SOL     OW 3120   0.297   1.897   3.895
 1035SOL    HW1 3121   0.346   1.981   3.874
 1035SOL    HW2 3122   0.359   1.832   3.940
 1036SOL     OW 3123   0.935   2.098   4.204
 1036SOL    HW1 3124   0.887   2.139   4.126
 1036SOL    HW2 3125   1.034   2.096   4.185
 1037SOL     OW 3126   1.227   3.432   4.517
 1037SOL    HW1 3127   1.248   3.506   4.452
 1037SOL    HW2 3128   1.295   3.432   4.590
 1038SOL     OW 3129   0.459   3.014   4.465
 1038SOL    HW1 3130   0.388   2.987   4.530
 1038SOL    HW2 3131   0.433   2.986   4.372
 1039SOL     OW 3132   1.271   3.659   4.315
 1039SOL    HW1 3133   1.315   3.723   4.251
 1039SOL    HW2 3134   1.221   3.711   4.385
 1040SOL     OW 3135   1.032   2.411   3.740
 1040SOL    HW1 3136   0.991   2.493   3.701
 1040SOL    HW2 3137   1.096   2.437   3.813
 1041SOL     OW 3138   0.866   2.316   4.366
 1041SOL    HW1 3139   0.834   2.388   4.304
 1041SOL    HW2 3140   0.890   2.235   4.313
 1042SOL     OW 3141   1.017   1.901   4.477
 1042SOL    HW1 3142   0.945   1.906   4.408
 1042SOL    HW2 3143   0.993   1.832   4.546
 1043SOL     OW 3144   1.429   3.035   4.591
 1043SOL    HW1 3145   1.374   2.951   4.584
 1043SOL    HW2 3146   1.455   3.064   4.499
 1044SOL     OW 3147   1.466   2.452   4.716
 1044SOL    HW1 3148   1.436   2.357   4.723
 1044SOL    HW2 3149   1.539   2.468   4.782
 1045SOL     OW 3150   1.857   2.695   4.101
 1045SOL    HW1 3151   1.899   2.631   4.165
 1045SOL    HW2 3152   1.819   2.644   4.023
 1046SOL     OW 3153   0.488   3.247   3.898
 1046SOL    HW1 3154   0.401   3.232   3.945
 1046SOL    HW2 3155   0.471   3.273   3.803
 1047SOL     OW 3156   1.664   3.142   4.381
 1047SOL    HW1 3157   1.763   3.150   4.395
 1047SOL    HW2 3158   1.619   3.226   4.412
 1048SOL     OW 3159   1.390   2.437   3.802
 1048SOL    HW1 3160   1.336   2.416   3.883
 1048SOL    HW2 3161   1.481   2.396   3.811
 1049SOL     OW 3162   0.527   2.118   4.052
 1049SOL    HW1 3163   0.554   2.059   3.977
 1049SOL    HW2 3164   0.527   2.213   4.021
 1050SOL     OW 3165   1.111   3.057   4.824
 1050SOL    HW1 3166   1.071   3.101   4.905
 1050SOL    HW2 3167   1.070   3.094   4.741
 1051SOL     OW 3168   1.638   2.961   4.803
 1051SOL    HW1 3169   1.643   3.042   4.862
 1051SOL    HW2 3170   1.552   2.963   4.752
 1052SOL     OW 3171   0.705   2.912   4.092
 1052SOL    HW1 3172   0.691   2.919   4.191
 1052SOL    HW2 3173   0.789   2.861   4.074
 1053SOL     OW 3174   0.410   2.675   4.975
 1053SOL    HW1 3175   0.496   2.687   5.025
 1053SOL    HW2 3176   0.368   2.588   5.002
 1054SOL     OW 3177   0.367   2.962   4.225
 1054SOL    HW1 3178   0.360   3.045   4.169
 1054SOL    HW2 3179   0.371   2.882   4.165
 1055SOL     OW 3180   0.566   2.399   4.589
 1055SOL    HW1 3181   0.578   2.465   4.515
 1055SOL    HW2 3182   0.612   2.433   4.672
 1056SOL     OW 3183   1.252   3.210   4.112
 1056SOL    HW1 3184   1.302   3.287   4.152
 1056SOL    HW2 3185   1.157   3.212   4.144
 1057SOL     OW 3186   1.272   3.307   4.866
 1057SOL    HW1 3187   1.319   3.320   4.953
 1057SOL    HW2 3188   1.206   3.233   4.875
 1058SOL     OW 3189   1.582   2.501   4.196
 1058SOL    HW1 3190   1.551   2.562   4.269
 1058SOL    HW2 3191   1.632   2.553   4.127
 1059SOL     OW 3192   0.354   3.372   5.053
 1059SOL    HW1 3193   0.333   3.328   4.966
 1059SOL    HW2 3194   0.451   3.398   5.056
 1060SOL     OW 3195   0.573   2.732   4.753
 1060SOL    HW1 3196   0.617   2.821   4.744
 1060SOL    HW2 3197   0.510   2.732   4.830
 1061SOL     OW 3198   1.209   2.387   3.999
 1061SOL    HW1 3199   1.222   2.303   4.053
 1061SOL    HW2 3200   1.180   2.461   4.059
 1062SOL     OW 3201   0.732   2.496   4.788
 1062SOL    HW1 3202   0.791   2.470   4.712
 1062SOL    HW2 3203   0.704   2.592   4.777
 1063SOL     OW 3204   0.307   1.925   4.342
 1063SOL    HW1 3205   0.296   2.019   4.375
 1063SOL    HW2 3206   0.302   1.862   4.419
 1064SOL     OW 3207   1.622   2.229   4.098
 1064SOL    HW1 3208   1.624   2.153   4.162
 1064SOL    HW2 3209   1.574   2.306   4.138
 1065SOL     OW 3210   1.023   2.628   4.690
 1065SOL    HW1 3211   1.038   2.649   4.786
 1065SOL    HW2 3212   0.993   2.533   4.681
 1066SOL     OW 3213   1.540   2.136   3.849
 1066SOL    HW1 3214   1.479   2.061   3.872
 1066SOL    HW2 3215   1.562   2.188   3.932
 1067SOL     OW 3216   1.303   2.700   3.766
 1067SOL    HW1 3217   1.337   2.607   3.781
 1067SOL    HW2 3218   1.321   2.727   3.671
 1068SOL     OW 3219   1.068   3.195   4.573
 1068SOL    HW1 3220   1.075   3.111   4.518
 1068SOL    HW2 3221   1.130   3.264   4.537
 1069SOL     OW 3222   0.319   2.672   4.673
 1069SOL    HW1 3223   0.412   2.708   4.678
 1069SOL    HW2 3224   0.313   2.587   4.725
 1070SOL     OW 3225   0.339   2.371   4.730
 1070SOL    HW1 3226   0.287   2.288   4.713
 1070SOL    HW2 3227   0.416   2.376   4.666
 1071SOL     OW 3228   0.008   3.188   3.924
 1071SOL    HW1 3229  -0.085   3.209   3.893
 1071SOL    HW2 3230   0.018   3.089   3.937
 1072SOL     OW 3231   0.088   3.663   4.651
 1072SOL    HW1 3232   0.046   3.577   4.624
 1072SOL    HW2 3233   0.182   3.666   4.617
 1073SOL     OW 3234   0.504   3.430   4.634
 1073SOL    HW1 3235   0.570   3.504   4.643
 1073SOL    HW2 3236   0.548   3.351   4.592
 1074SOL     OW 3237   1.002   2.658   4.962
 1074SOL    HW1 3238   1.043   2.626   5.048
 1074SOL    HW2 3239   0.906   2.631   4.959
 1075SOL     OW 3240   0.815   2.434   4.049
 1075SOL    HW1 3241   0.822   2.345   4.003
 1075SOL    HW2 3242   0.721   2.468   4.041
 1076SOL     OW 3243   0.671   2.326   4.993
 1076SOL    HW1 3244   0.637   2.237   4.963
 1076SOL    HW2 3245   0.697   2.380   4.913
 1077SOL     OW 3246   0.473   2.362   3.915
 1077SOL    HW1 3247   0.534   2.442   3.919
 1077SOL    HW2 3248   0.378   2.393   3.922
 1078SOL     OW 3249   1.302   2.717   4.033
 1078SOL    HW1 3250   1.216   2.686   4.075
 1078SOL    HW2 3251   1.298   2.703   3.934
 1079SOL     OW 3252   1.759   3.609   4.878
 1079SOL    HW1 3253   1.820   3.639   4.805
 1079SOL    HW2 3254   1.721   3.520   4.856
 1080SOL     OW 3255   0.083   3.120   4.746
 1080SOL    HW1 3256   0.078   3.119   4.846
 1080SOL    HW2 3257   0.000   3.079   4.708
 1081SOL     OW 3258   1.726   1.997   4.247
 1081SOL    HW1 3259   1.799   1.980   4.180
 1081SOL    HW2 3260   1.695   1.910   4.285
 1082SOL     OW 3261   1.388   3.435   4.201
 1082SOL    HW1 3262   1.455   3.447   4.127
 1082SOL    HW2 3263   1.348   3.524   4.224
 1083SOL     OW 3264   1.280   2.789   4.396
 1083SOL    HW1 3265   1.340   2.708   4.398
 1083SOL    HW2 3266   1.320   2.858   4.336
 1084SOL     OW 3267   0.672   3.478   3.878
 1084SOL    HW1 3268   0.681   3.488   3.779
 1084SOL    HW2 3269   0.632   3.389   3.899
 1085SOL     OW 3270   1.841   2.037   4.687
 1085SOL    HW1 3271   1.880   1.952   4.651
 1085SOL    HW2 3272   1.743   2.039   4.668
 1086SOL     OW 3273   0.263   2.188   4.444
 1086SOL    HW1 3274   0.184   2.239   4.410
 1086SOL    HW2 3275   0.254   2.173   4.542
 1087SOL     OW 3276   1.194   3.474   3.755
 1087SOL    HW1 3277   1.200   3.381   3.792
 1087SOL    HW2 3278   1.135   3.474   3.675
 1088SOL     OW 3279   0.822   2.864   5.096
 1088SOL    HW1 3280   0.862   2.863   5.004
 1088SOL    HW2 3281   0.832   2.956   5.136
 1089SOL     OW 3282   0.916   2.772   4.015
 1089SOL    HW1 3283   0.979   2.810   3.947
 1089SOL    HW2 3284   0.956   2.689   4.054
 1090SOL     OW 3285   1.504   3.469   3.768
 1090SOL    HW1 3286   1.412   3.506   3.775
 1090SOL    HW2 3287   1.542   3.489   3.678
 1091SOL     OW 3288   1.039   2.960   4.420
 1091SOL    HW1 3289   0.969   2.913   4.474
 1091SOL    HW2 3290   1.098   2.892   4.377
 1092SOL     OW 3291   1.014   2.098   4.695
 1092SOL    HW1 3292   1.006   2.062   4.602
 1092SOL    HW2 3293   1.012   2.022   4.760
 1093SOL     OW 3294   0.590   3.349   4.215
 1093SOL    HW1 3295   0.632   3.291   4.145
 1093SOL    HW2 3296   0.546   3.428   4.171
 1094SOL     OW 3297   0.255   3.210   4.014
 1094SOL    HW1 3298   0.159   3.211   3.987
 1094SOL    HW2 3299   0.267   3.263   4.098
 1095SOL     OW 3300   0.075   2.207   3.757
 1095SOL    HW1 3301  -0.017   2.179   3.728
 1095SOL    HW2 3302   0.106   2.284   3.701
 1096SOL     OW 3303   0.072   2.028   4.042
 1096SOL    HW1 3304   0.055   2.111   3.988
 1096SOL    HW2 3305   0.162   1.991   4.020
 1097SOL     OW 3306   1.183   3.197   3.843
 1097SOL    HW1 3307   1.084   3.186   3.845
 1097SOL    HW2 3308   1.217   3.212   3.936
 1098SOL     OW 3309   1.493   3.629   4.683
 1098SOL    HW1 3310   1.526   3.693   4.614
 1098SOL    HW2 3311   1.559   3.623   4.758
 1099SOL     OW 3312   1.674   2.745   4.978
 1099SOL    HW1 3313   1.647   2.656   4.941
 1099SOL    HW2 3314   1.675   2.813   4.905
 1100SOL     OW 3315   1.225   2.187   4.173
 1100SOL    HW1 3316   1.290   2.113   4.162
 1100SOL    HW2 3317   1.245   2.237   4.257
 1101SOL     OW 3318   0.594   2.607   4.376
 1101SOL    HW1 3319   0.644   2.692   4.357
 1101SOL    HW2 3320   0.506   2.609   4.328
 1102SOL     OW 3321   0.859   3.236   3.740
 1102SOL    HW1 3322   0.813   3.251   3.828
 1102SOL    HW2 3323   0.903   3.321   3.710
 1103SOL     OW 3324   0.661   3.652   4.677
 1103SOL    HW1 3325   0.615   3.740   4.664
 1103SOL    HW2 3326   0.760   3.664   4.670
 1104SOL     OW 3327   0.859   2.818   4.585
 1104SOL    HW1 3328   0.913   2.749   4.633
 1104SOL    HW2 3329   0.827   2.887   4.651
 1105SOL     OW 3330   1.083   2.846   3.811
 1105SOL    HW1 3331   1.060   2.899   3.729
 1105SOL    HW2 3332   1.164   2.790   3.792
 1106SOL     OW 3333   1.861   3.431   4.575
 1106SOL    HW1 3334   1.790   3.419   4.505
 1106SOL    HW2 3335   1.862   3.352   4.635
 1107SOL     OW 3336   0.079   3.102   4.377
 1107SOL    HW1 3337   0.078   3.055   4.465
 1107SOL    HW2 3338   0.161   3.074   4.326
 1108SOL     OW 3339   1.824   2.054   4.951
 1108SOL    HW1 3340   1.820   1.964   4.995
 1108SOL    HW2 3341   1.827   2.043   4.852
 1109SOL     OW 3342   0.428   2.286   4.244
 1109SOL    HW1 3343   0.458   2.214   4.182
 1109SOL    HW2 3344   0.389   2.246   4.327
 1110SOL     OW 3345   0.812   3.448   4.411
 1110SOL    HW1 3346   0.844   3.458   4.317
 1110SOL    HW2 3347   0.733   3.386   4.413
 1111SOL     OW 3348   1.424   2.076   4.836
 1111SOL    HW1 3349   1.476   2.011   4.891
 1111SOL    HW2 3350   1.375   2.139   4.897
 1112SOL     OW 3351   0.770   3.192   4.025
 1112SOL    HW1 3352   0.724   3.105   4.042
 1112SOL    HW2 3353   0.861   3.189   4.066
 1113SOL     OW 3354   1.352   1.914   3.892
 1113SOL    HW1 3355   1.387   1.873   3.808
 1113SOL    HW2 3356   1.262   1.876   3.912
 1114SOL     OW 3357   1.300   2.315   4.415
 1114SOL    HW1 3358   1.241   2.395   4.419
 1114SOL    HW2 3359   1.315   2.280   4.508
 1115SOL     OW 3360   1.593   2.083   4.606
 1115SOL    HW1 3361   1.509   2.082   4.660
 1115SOL    HW2 3362   1.595   2.166   4.550
 1116SOL     OW 3363   0.039   2.939   4.024
 1116SOL    HW1 3364   0.138   2.928   4.015
 1116SOL    HW2 3365  -0.001   2.853   4.056
 1117SOL     OW 3366   0.875   3.508   4.061
 1117SOL    HW1 3367   0.798   3.473   4.007
 1117SOL    HW2 3368   0.843   3.579   4.123
 1118SOL     OW 3369   0.230   4.352   0.113
 1118SOL    HW1 3370   0.137   4.350   0.150
 1118SOL    HW2 3371   0.231   4.313   0.021
 1119SOL     OW 3372   0.225   3.999   0.996
 1119SOL    HW1 3373   0.260   3.982   1.088
 1119SOL    HW2 3374   0.137   3.954   0.984
 1120SOL     OW 3375   0.019   4.092   0.647
 1120SOL    HW1 3376  -0.063   4.135   0.686
 1120SOL    HW2 3377  -0.009   4.019   0.584
 1121SOL     OW 3378   1.135   4.427   0.717
 1121SOL    HW1 3379   1.192   4.505   0.692
 1121SOL    HW2 3380   1.075   4.453   0.793
 1122SOL     OW 3381   1.755   4.331   0.231
 1122SOL    HW1 3382   1.743   4.318   0.132
 1122SOL    HW2 3383   1.725   4.250   0.280
 1123SOL     OW 3384   0.768   4.868   1.023
 1123SOL    HW1 3385   0.690   4.885   1.083
 1123SOL    HW2 3386   0.802   4.955   0.987
 1124SOL     OW 3387   0.850   4.522   1.823
 1124SOL    HW1 3388   0.846   4.598   1.888
 1124SOL    HW2 3389   0.872   4.558   1.732
 1125SOL     OW 3390   0.685   4.736   0.665
 1125SOL    HW1 3391   0.754   4.720   0.735
 1125SOL    HW2 3392   0.612   4.793   0.703
 1126SOL     OW 3393   1.460   5.229   1.339
 1126SOL    HW1 3394   1.484   5.323   1.365
 1126SOL    HW2 3395   1.444   5.175   1.421
 1127SOL     OW 3396   0.438   4.116   1.499
 1127SOL    HW1 3397   0.520   4.060   1.508
 1127SOL    HW2 3398   0.357   4.058   1.503
 1128SOL     OW 3399   1.603   4.171   0.737
 1128SOL    HW1 3400   1.529   4.217   0.687
 1128SOL    HW2 3401   1.654   4.239   0.790
 1129SOL     OW 3402   0.240   4.815   0.886
 1129SOL    HW1 3403   0.254   4.731   0.938
 1129SOL    HW2 3404   0.185   4.879   0.941
 1130SOL     OW 3405   0.606   4.688   0.123
 1130SOL    HW1 3406   0.613   4.772   0.069
 1130SOL    HW2 3407   0.652   4.701   0.211
 1131SOL     OW 3408   1.594   3.838   1.480
 1131SOL    HW1 3409   1.576   3.905   1.408
 1131SOL    HW2 3410   1.591   3.884   1.569
 1132SOL     OW 3411   0.122   4.367   0.563
 1132SOL    HW1 3412   0.077   4.279   0.580
 1132SOL    HW2 3413   0.121   4.421   0.647
 1133SOL     OW 3414   1.689   4.646   0.612
 1133SOL    HW1 3415   1.784   4.617   0.620
 1133SOL    HW2 3416   1.681   4.711   0.537
 1134SOL     OW 3417   0.113   4.461   1.597
 1134SOL    HW1 3418   0.201   4.448   1.642
 1134SOL    HW2 3419   0.100   4.558   1.575
 1135SOL     OW 3420   1.293   4.952   1.423
 1135SOL    HW1 3421   1.330   4.879   1.365
 1135SOL    HW2 3422   1.345   4.957   1.508
 1136SOL     OW 3423   0.809   3.728   0.502
 1136SOL    HW1 3424   0.849   3.819   0.493
 1136SOL    HW2 3425   0.709   3.736   0.508
 1137SOL     OW 3426   0.197   4.700   1.264
 1137SOL    HW1 3427   0.286   4.655   1.250
 1137SOL    HW2 3428   0.124   4.635   1.245
 1138SOL     OW 3429   1.525   4.723   0.190
 1138SOL    HW1 3430   1.462   4.647   0.203
 1138SOL    HW2 3431   1.573   4.741   0.276
 1139SOL     OW 3432   0.317   3.975   1.801
 1139SOL    HW1 3433   0.388   4.046   1.807
 1139SOL    HW2 3434   0.229   4.014   1.829
 1140SOL     OW 3435   0.598   4.453   0.270
 1140SOL    HW1 3436   0.622   4.522   0.202
 1140SOL    HW2 3437   0.520   4.486   0.324
 1141SOL     OW 3438   1.281   4.069   0.944
 1141SOL    HW1 3439   1.195   4.019   0.931
 1141SOL    HW2 3440   1.343   4.015   1.000
 1142SOL     OW 3441   0.807   4.329   1.465
 1142SOL    HW1 3442   0.760   4.326   1.554
 1142SOL    HW2 3443   0.756   4.274   1.399
 1143SOL     OW 3444   1.394   4.193   1.674
 1143SOL    HW1 3445   1.374   4.236   1.762
 1143SOL    HW2 3446   1.472   4.131   1.683
 1144SOL     OW 3447   0.973   4.614   1.572
 1144SOL    HW1 3448   1.019   4.530   1.543
 1144SOL    HW2 3449   0.917   4.648   1.497
 1145SOL     OW 3450   0.991   4.134   1.242
 1145SOL    HW1 3451   0.914   4.168   1.296
 1145SOL    HW2 3452   0.957   4.083   1.163
 1146SOL     OW 3453   1.041   4.425   0.429
 1146SOL    HW1 3454   1.067   4.421   0.525
 1146SOL    HW2 3455   0.956   4.374   0.415
 1147SOL     OW 3456   0.076   4.535   0.789
 1147SOL    HW1 3457   0.175   4.523   0.798
 1147SOL    HW2 3458   0.052   4.630   0.810
 1148SOL     OW 3459   0.865   4.072   0.195
 1148SOL    HW1 3460   0.924   4.135   0.146
 1148SOL    HW2 3461   0.884   3.978   0.166
 1149SOL     OW 3462   1.719   4.309   1.831
 1149SOL    HW1 3463   1.693   4.398   1.795
 1149SOL    HW2 3464   1.717   4.241   1.758
 1150SOL     OW 3465   0.550   3.920   0.885
 1150SOL    HW1 3466   0.545   3.915   0.985
 1150SOL    HW2 3467   0.552   4.016   0.856
 1151SOL     OW 3468   1.795   4.790   0.873
 1151SOL    HW1 3469   1.733   4.775   0.797
 1151SOL    HW2 3470   1.743   4.801   0.958
 1152SOL     OW 3471   0.321   4.667   0.242
 1152SOL    HW1 3472   0.403   4.706   0.200
 1152SOL    HW2 3473   0.294   4.585   0.193
 1153SOL     OW 3474   1.458   4.459   0.728
 1153SOL    HW1 3475   1.453   4.394   0.803
 1153SOL    HW2 3476   1.538   4.518   0.741
 1154SOL     OW 3477   0.202   4.009   1.498
 1154SOL    HW1 3478   0.122   4.069   1.485
 1154SOL    HW2 3479   0.192   3.960   1.584
 1155SOL     OW 3480   1.400   3.831   0.426
 1155SOL    HW1 3481   1.376   3.794   0.336
 1155SOL    HW2 3482   1.499   3.847   0.430
 1156SOL     OW 3483   0.382   4.424   0.480
 1156SOL    HW1 3484   0.427   4.334   0.477
 1156SOL    HW2 3485   0.288   4.413   0.513
 1157SOL     OW 3486   1.547   3.946   1.729
 1157SOL    HW1 3487   1.542   3.983   1.821
 1157SOL    HW2 3488   1.475   3.877   1.717
 1158SOL     OW 3489   0.614   3.846   0.117
 1158SOL    HW1 3490   0.712   3.824   0.124
 1158SOL    HW2 3491   0.583   3.829   0.024
 1159SOL     OW 3492   0.781   3.988   1.749
 1159SOL    HW1 3493   0.848   3.927   1.792
 1159SOL    HW2 3494   0.708   4.007   1.814
 1160SOL     OW 3495   1.351   4.314   1.433
 1160SOL    HW1 3496   1.379   4.271   1.518
 1160SOL    HW2 3497   1.376   4.410   1.434
 1161SOL     OW 3498   0.922   4.227   0.899
 1161SOL    HW1 3499   0.897   4.218   0.803
 1161SOL    HW2 3500   0.970   4.145   0.930
 1162SOL     OW 3501   0.539   3.788   0.512
 1162SOL    HW1 3502   0.458   3.789   0.570
 1162SOL    HW2 3503   0.542   3.871   0.457
 1163SOL     OW 3504   0.297   3.759   0.171
 1163SOL    HW1 3505   0.346   3.843   0.150
 1163SOL    HW2 3506   0.359   3.694   0.216
 1164SOL     OW 3507   0.935   3.960   0.480
 1164SOL    HW1 3508   0.887   4.001   0.402
 1164SOL    HW2 3509   1.034   3.958   0.461
 1165SOL     OW 3510   1.076   4.407   1.464
 1165SOL    HW1 3511   0.996   4.346   1.467
 1165SOL    HW2 3512   1.157   4.354   1.440
 1166SOL     OW 3513   0.459   4.876   0.741
 1166SOL    HW1 3514   0.388   4.849   0.806
 1166SOL    HW2 3515   0.433   4.848   0.648
 1167SOL     OW 3516   1.032   4.273   0.016
 1167SOL    HW1 3517   0.991   4.355  -0.023
 1167SOL    HW2 3518   1.096   4.299   0.089
 1168SOL     OW 3519   0.078   4.280   1.386
 1168SOL    HW1 3520   0.170   4.279   1.345
 1168SOL    HW2 3521   0.072   4.354   1.453
 1169SOL     OW 3522   0.561   3.946   1.147
 1169SOL    HW1 3523   0.599   3.862   1.184
 1169SOL    HW2 3524   0.473   3.965   1.191
 1170SOL     OW 3525   0.866   4.178   0.642
 1170SOL    HW1 3526   0.834   4.250   0.580
 1170SOL    HW2 3527   0.890   4.097   0.589
 1171SOL     OW 3528   1.017   3.763   0.753
 1171SOL    HW1 3529   0.945   3.768   0.684
 1171SOL    HW2 3530   0.993   3.694   0.822
 1172SOL     OW 3531   1.429   4.897   0.867
 1172SOL    HW1 3532   1.374   4.813   0.860
 1172SOL    HW2 3533   1.455   4.926   0.775
 1173SOL     OW 3534   1.466   4.314   0.992
 1173SOL    HW1 3535   1.436   4.219   0.999
 1173SOL    HW2 3536   1.539   4.330   1.058
 1174SOL     OW 3537   1.857   4.557   0.377
 1174SOL    HW1 3538   1.899   4.493   0.441
 1174SOL    HW2 3539   1.819   4.506   0.299
 1175SOL     OW 3540   1.390   4.299   0.078
 1175SOL    HW1 3541   1.336   4.278   0.159
 1175SOL    HW2 3542   1.481   4.258   0.087
 1176SOL     OW 3543   0.527   3.980   0.328
 1176SOL    HW1 3544   0.554   3.921   0.253
 1176SOL    HW2 3545   0.527   4.075   0.297
 1177SOL     OW 3546   1.754   4.947   1.588
 1177SOL    HW1 3547   1.845   4.908   1.575
 1177SOL    HW2 3548   1.762   5.043   1.612
 1178SOL     OW 3549   1.638   4.823   1.079
 1178SOL    HW1 3550   1.643   4.904   1.138
 1178SOL    HW2 3551   1.552   4.825   1.028
 1179SOL     OW 3552   0.915   3.813   1.402
 1179SOL    HW1 3553   0.940   3.793   1.307
 1179SOL    HW2 3554   0.987   3.869   1.444
 1180SOL     OW 3555   0.705   4.774   0.368
 1180SOL    HW1 3556   0.691   4.781   0.467
 1180SOL    HW2 3557   0.789   4.723   0.350
 1181SOL     OW 3558   0.410   4.537   1.251
 1181SOL    HW1 3559   0.496   4.549   1.301
 1181SOL    HW2 3560   0.368   4.450   1.278
 1182SOL     OW 3561   1.274   4.110   1.262
 1182SOL    HW1 3562   1.295   4.184   1.326
 1182SOL    HW2 3563   1.185   4.127   1.219
 1183SOL     OW 3564   0.367   4.824   0.501
 1183SOL    HW1 3565   0.360   4.907   0.445
 1183SOL    HW2 3566   0.371   4.744   0.441
 1184SOL     OW 3567   0.566   4.261   0.865
 1184SOL    HW1 3568   0.578   4.327   0.791
 1184SOL    HW2 3569   0.612   4.295   0.948
 1185SOL     OW 3570   1.582   4.363   0.472
 1185SOL    HW1 3571   1.551   4.424   0.545
 1185SOL    HW2 3572   1.632   4.415   0.403
 1186SOL     OW 3573   0.402   4.475   1.598
 1186SOL    HW1 3574   0.470   4.530   1.551
 1186SOL    HW2 3575   0.442   4.387   1.625
 1187SOL     OW 3576   1.587   4.503   1.670
 1187SOL    HW1 3577   1.495   4.541   1.665
 1187SOL    HW2 3578   1.647   4.550   1.605
 1188SOL     OW 3579   1.013   3.829   1.770
 1188SOL    HW1 3580   1.019   3.914   1.718
 1188SOL    HW2 3581   1.045   3.753   1.713
 1189SOL     OW 3582   0.504   3.774   1.740
 1189SOL    HW1 3583   0.462   3.717   1.670
 1189SOL    HW2 3584   0.438   3.843   1.772
 1190SOL     OW 3585   0.573   4.594   1.029
 1190SOL    HW1 3586   0.617   4.683   1.020
 1190SOL    HW2 3587   0.510   4.594   1.106
 1191SOL     OW 3588   1.360   4.586   1.045
 1191SOL    HW1 3589   1.285   4.586   0.979
 1191SOL    HW2 3590   1.397   4.494   1.054
 1192SOL     OW 3591   1.209   4.249   0.275
 1192SOL    HW1 3592   1.222   4.165   0.329
 1192SOL    HW2 3593   1.180   4.323   0.335
 1193SOL     OW 3594   0.307   3.937   1.231
 1193SOL    HW1 3595   0.284   3.974   1.321
 1193SOL    HW2 3596   0.277   3.842   1.225
 1194SOL     OW 3597   0.037   5.034   1.282
 1194SOL    HW1 3598   0.090   4.985   1.350
 1194SOL    HW2 3599   0.059   5.132   1.287
 1195SOL     OW 3600   0.732   4.358   1.064
 1195SOL    HW1 3601   0.791   4.332   0.988
 1195SOL    HW2 3602   0.704   4.454   1.053
 1196SOL     OW 3603   1.728   4.659   1.854
 1196SOL    HW1 3604   1.682   4.652   1.765
 1196SOL    HW2 3605   1.666   4.703   1.920
 1197SOL     OW 3606   0.307   3.787   0.618
 1197SOL    HW1 3607   0.296   3.881   0.651
 1197SOL    HW2 3608   0.302   3.724   0.695
 1198SOL     OW 3609   1.622   4.091   0.374
 1198SOL    HW1 3610   1.624   4.015   0.438
 1198SOL    HW2 3611   1.574   4.168   0.414
 1199SOL     OW 3612   1.023   4.490   0.966
 1199SOL    HW1 3613   1.038   4.511   1.062
 1199SOL    HW2 3614   0.993   4.395   0.957
 1200SOL     OW 3615   0.350   4.622   1.804
 1200SOL    HW1 3616   0.426   4.666   1.852
 1200SOL    HW2 3617   0.385   4.575   1.722
 1201SOL     OW 3618   1.540   3.998   0.125
 1201SOL    HW1 3619   1.479   3.923   0.148
 1201SOL    HW2 3620   1.562   4.050   0.208
 1202SOL     OW 3621   1.303   4.562   0.042
 1202SOL    HW1 3622   1.337   4.469   0.057
 1202SOL    HW2 3623   1.321   4.589  -0.053
 1203SOL     OW 3624   0.319   4.534   0.949
 1203SOL    HW1 3625   0.412   4.570   0.954
 1203SOL    HW2 3626   0.313   4.449   1.001
 1204SOL     OW 3627   0.339   4.233   1.006
 1204SOL    HW1 3628   0.287   4.150   0.989
 1204SOL    HW2 3629   0.416   4.238   0.942
 1205SOL     OW 3630   1.138   4.104   1.678
 1205SOL    HW1 3631   1.093   4.167   1.742
 1205SOL    HW2 3632   1.231   4.135   1.661
 1206SOL     OW 3633   1.160   3.931   1.477
 1206SOL    HW1 3634   1.160   3.995   1.554
 1206SOL    HW2 3635   1.188   3.979   1.394
 1207SOL     OW 3636   1.002   4.520   1.238
 1207SOL    HW1 3637   1.043   4.488   1.324
 1207SOL    HW2 3638   0.906   4.493   1.235
 1208SOL     OW 3639   0.040   4.268   1.114
 1208SOL    HW1 3640   0.125   4.235   1.073
 1208SOL    HW2 3641   0.053   4.283   1.212
 1209SOL     OW 3642   0.189   4.244   1.722
 1209SOL    HW1 3643   0.248   4.204   1.652
 1209SOL    HW2 3644   0.131   4.315   1.681
 1210SOL     OW 3645   1.369   4.674   1.660
 1210SOL    HW1 3646   1.408   4.763   1.680
 1210SOL    HW2 3647   1.379   4.654   1.563
 1211SOL     OW 3648   0.815   4.296   0.325
 1211SOL    HW1 3649   0.822   4.207   0.279
 1211SOL    HW2 3650   0.721   4.330   0.317
 1212SOL     OW 3651   1.657   4.328   1.206
 1212SOL    HW1 3652   1.619   4.259   1.268
 1212SOL    HW2 3653   1.739   4.292   1.162
 1213SOL     OW 3654   0.671   4.188   1.269
 1213SOL    HW1 3655   0.637   4.099   1.239
 1213SOL    HW2 3656   0.697   4.242   1.189
 1214SOL     OW 3657   0.473   4.224   0.191
 1214SOL    HW1 3658   0.534   4.304   0.195
 1214SOL    HW2 3659   0.378   4.255   0.198
 1215SOL     OW 3660   0.159   4.861   1.466
 1215SOL    HW1 3661   0.181   4.800   1.542
 1215SOL    HW2 3662   0.169   4.812   1.380
 1216SOL     OW 3663   1.347   4.783   1.234
 1216SOL    HW1 3664   1.371   4.720   1.160
 1216SOL    HW2 3665   1.257   4.823   1.216
 1217SOL     OW 3666   1.302   4.579   0.309
 1217SOL    HW1 3667   1.216   4.548   0.351
 1217SOL    HW2 3668   1.298   4.565   0.210
 1218SOL     OW 3669   0.083   4.982   1.022
 1218SOL    HW1 3670   0.078   4.981   1.122
 1218SOL    HW2 3671   0.000   4.941   0.984
 1219SOL     OW 3672   0.903   3.810   0.133
 1219SOL    HW1 3673   0.954   3.811   0.047
 1219SOL    HW2 3674   0.959   3.768   0.204
 1220SOL     OW 3675   1.726   3.859   0.523
 1220SOL    HW1 3676   1.799   3.842   0.456
 1220SOL    HW2 3677   1.695   3.772   0.561
 1221SOL     OW 3678   1.280   4.651   0.672
 1221SOL    HW1 3679   1.340   4.570   0.674
 1221SOL    HW2 3680   1.320   4.720   0.612
 1222SOL     OW 3681   1.841   3.899   0.963
 1222SOL    HW1 3682   1.880   3.814   0.927
 1222SOL    HW2 3683   1.743   3.901   0.944
 1223SOL     OW 3684   0.263   4.050   0.720
 1223SOL    HW1 3685   0.184   4.101   0.686
 1223SOL    HW2 3686   0.254   4.035   0.818
 1224SOL     OW 3687   0.822   4.726   1.372
 1224SOL    HW1 3688   0.862   4.725   1.280
 1224SOL    HW2 3689   0.832   4.818   1.412
 1225SOL     OW 3690   0.916   4.634   0.291
 1225SOL    HW1 3691   0.979   4.672   0.223
 1225SOL    HW2 3692   0.956   4.551   0.330
 1226SOL     OW 3693   0.372   5.012   1.490
 1226SOL    HW1 3694   0.359   5.105   1.456
 1226SOL    HW2 3695   0.288   4.960   1.477
 1227SOL     OW 3696   1.014   3.960   0.971
 1227SOL    HW1 3697   1.006   3.924   0.878
 1227SOL    HW2 3698   1.012   3.884   1.036
 1228SOL     OW 3699   1.709   4.109   1.381
 1228SOL    HW1 3700   1.782   4.178   1.385
 1228SOL    HW2 3701   1.737   4.034   1.322
 1229SOL     OW 3702   0.105   4.737   1.726
 1229SOL    HW1 3703   0.028   4.704   1.780
 1229SOL    HW2 3704   0.190   4.707   1.768
 1230SOL     OW 3705   0.672   3.927   1.489
 1230SOL    HW1 3706   0.762   3.911   1.449
 1230SOL    HW2 3707   0.680   3.932   1.588
 1231SOL     OW 3708   0.075   4.069   0.033
 1231SOL    HW1 3709  -0.017   4.041   0.004
 1231SOL    HW2 3710   0.106   4.146  -0.023
 1232SOL     OW 3711   1.440   4.580   1.398
 1232SOL    HW1 3712   1.383   4.632   1.335
 1232SOL    HW2 3713   1.536   4.592   1.374
 1233SOL     OW 3714   0.072   3.890   0.318
 1233SOL    HW1 3715   0.055   3.973   0.264
 1233SOL    HW2 3716   0.162   3.853   0.296
 1234SOL     OW 3717   1.183   5.059   0.119
 1234SOL    HW1 3718   1.084   5.048   0.121
 1234SOL    HW2 3719   1.217   5.074   0.212
 1235SOL     OW 3720   0.613   4.566   1.431
 1235SOL    HW1 3721   0.669   4.647   1.414
 1235SOL    HW2 3722   0.672   4.486   1.434
 1236SOL     OW 3723   0.716   4.289   1.708
 1236SOL    HW1 3724   0.735   4.354   1.782
 1236SOL    HW2 3725   0.776   4.209   1.717
 1237SOL     OW 3726   1.450   4.944   1.633
 1237SOL    HW1 3727   1.441   4.934   1.732
 1237SOL    HW2 3728   1.546   4.937   1.607
 1238SOL     OW 3729   1.674   4.607   1.254
 1238SOL    HW1 3730   1.647   4.518   1.217
 1238SOL    HW2 3731   1.675   4.675   1.181
 1239SOL     OW 3732   1.225   4.049   0.449
 1239SOL    HW1 3733   1.290   3.975   0.438
 1239SOL    HW2 3734   1.245   4.099   0.533
 1240SOL     OW 3735   0.594   4.469   0.652
 1240SOL    HW1 3736   0.644   4.554   0.633
 1240SOL    HW2 3737   0.506   4.471   0.604
 1241SOL     OW 3738   1.777   4.066   1.642
 1241SOL    HW1 3739   1.760   4.097   1.548
 1241SOL    HW2 3740   1.693   4.029   1.680
 1242SOL     OW 3741   1.730   4.658   1.517
 1242SOL    HW1 3742   1.768   4.749   1.532
 1242SOL    HW2 3743   1.722   4.641   1.418
 1243SOL     OW 3744   0.859   4.680   0.861
 1243SOL    HW1 3745   0.913   4.611   0.909
 1243SOL    HW2 3746   0.827   4.749   0.927
 1244SOL     OW 3747   1.083   4.708   0.087
 1244SOL    HW1 3748   1.060   4.761   0.005
 1244SOL    HW2 3749   1.164   4.652   0.068
 1245SOL     OW 3750   1.824   3.916   1.227
 1245SOL    HW1 3751   1.820   3.826   1.271
 1245SOL    HW2 3752   1.827   3.905   1.128
 1246SOL     OW 3753   0.428   4.148   0.520
 1246SOL    HW1 3754   0.458   4.076   0.458
 1246SOL    HW2 3755   0.389   4.108   0.603
 1247SOL     OW 3756   0.317   4.271   1.280
 1247SOL    HW1 3757   0.355   4.212   1.352
 1247SOL    HW2 3758   0.357   4.245   1.192
 1248SOL     OW 3759   1.424   3.938   1.112
 1248SOL    HW1 3760   1.476   3.873   1.167
 1248SOL    HW2 3761   1.375   4.001   1.173
 1249SOL     OW 3762   1.001   3.758   1.154
 1249SOL    HW1 3763   0.938   3.686   1.123
 1249SOL    HW2 3764   1.094   3.722   1.154
 1250SOL     OW 3765   0.770   5.054   0.301
 1250SOL    HW1 3766   0.724   4.967   0.318
 1250SOL    HW2 3767   0.861   5.051   0.342
 1251SOL     OW 3768   1.352   3.776   0.168
 1251SOL    HW1 3769   1.387   3.735   0.084
 1251SOL    HW2 3770   1.262   3.738   0.188
 1252SOL     OW 3771   1.300   4.177   0.691
 1252SOL    HW1 3772   1.241   4.257   0.695
 1252SOL    HW2 3773   1.315   4.142   0.784
 1253SOL     OW 3774   1.593   3.945   0.882
 1253SOL    HW1 3775   1.509   3.944   0.936
 1253SOL    HW2 3776   1.595   4.028   0.826
 1254SOL     OW 3777   0.039   4.801   0.300
 1254SOL    HW1 3778   0.138   4.790   0.291
 1254SOL    HW2 3779  -0.001   4.715   0.332
 1255SOL     OW 3780   0.230   4.352   1.975
 1255SOL    HW1 3781   0.137   4.350   2.012
 1255SOL    HW2 3782   0.231   4.313   1.883
 1256SOL     OW 3783   0.225   3.999   2.858
 1256SOL    HW1 3784   0.260   3.982   2.950
 1256SOL    HW2 3785   0.137   3.954   2.846
 1257SOL     OW 3786   0.019   4.092   2.509
 1257SOL    HW1 3787  -0.063   4.135   2.548
 1257SOL    HW2 3788  -0.009   4.019   2.446
 1258SOL     OW 3789   1.135   4.427   2.579
 1258SOL    HW1 3790   1.192   4.505   2.554
 1258SOL    HW2 3791   1.075   4.453   2.655
 1259SOL     OW 3792   1.755   4.331   2.093
 1259SOL    HW1 3793   1.743   4.318   1.994
 1259SOL    HW2 3794   1.725   4.250   2.142
 1260SOL     OW 3795   0.768   4.868   2.885
 1260SOL    HW1 3796   0.690   4.885   2.945
 1260SOL    HW2 3797   0.802   4.955   2.849
 1261SOL     OW 3798   0.850   4.522   3.685
 1261SOL    HW1 3799   0.846   4.598   3.750
 1261SOL    HW2 3800   0.872   4.558   3.594
 1262SOL     OW 3801   0.685   4.736   2.527
 1262SOL    HW1 3802   0.754   4.720   2.597
 1262SOL    HW2 3803   0.612   4.793   2.565
 1263SOL     OW 3804   1.460   5.229   3.201
 1263SOL    HW1 3805   1.484   5.323   3.227
 1263SOL    HW2 3806   1.444   5.175   3.283
 1264SOL     OW 3807   0.438   4.116   3.361
 1264SOL    HW1 3808   0.520   4.060   3.370
 1264SOL    HW2 3809   0.357   4.058   3.365
 1265SOL     OW 3810   1.603   4.171   2.599
 1265SOL    HW1 3811   1.529   4.217   2.549
 1265SOL    HW2 3812   1.654   4.239   2.652
 1266SOL     OW 3813   0.240   4.815   2.748
 1266SOL    HW1 3814   0.254   4.731   2.800
 1266SOL    HW2 3815   0.185   4.879   2.803
 1267SOL     OW 3816   0.606   4.688   1.985
 1267SOL    HW1 3817   0.613   4.772   1.931
 1267SOL    HW2 3818   0.652   4.701   2.073
 1268SOL     OW 3819   1.594   3.838   3.342
 1268SOL    HW1 3820   1.576   3.905   3.270
 1268SOL    HW2 3821   1.591   3.884   3.431
 1269SOL     OW 3822   0.122   4.367   2.425
 1269SOL    HW1 3823   0.077   4.279   2.442
 1269SOL    HW2 3824   0.121   4.421   2.509
 1270SOL     OW 3825   1.689   4.646   2.474
 1270SOL    HW1 3826   1.784   4.617   2.482
 1270SOL    HW2 3827   1.681   4.711   2.399
 1271SOL     OW 3828   0.113   4.461   3.459
 1271SOL    HW1 3829   0.201   4.448   3.504
 1271SOL    HW2 3830   0.100   4.558   3.437
 1272SOL     OW 3831   1.293   4.952   3.285
 1272SOL    HW1 3832   1.330   4.879   3.227
 1272SOL    HW2 3833   1.345   4.957   3.370
 1273SOL     OW 3834   0.809   3.728   2.364
 1273SOL    HW1 3835   0.849   3.819   2.355
 1273SOL    HW2 3836   0.709   3.736   2.370
 1274SOL     OW 3837   0.197   4.700   3.126
 1274SOL    HW1 3838   0.286   4.655   3.112
 1274SOL    HW2 3839   0.124   4.635   3.107
 1275SOL     OW 3840   1.525   4.723   2.052
 1275SOL    HW1 3841   1.462   4.647   2.065
 1275SOL    HW2 3842   1.573   4.741   2.138
 1276SOL     OW 3843   0.317   3.975   3.663
 1276SOL    HW1 3844   0.388   4.046   3.669
 1276SOL    HW2 3845   0.229   4.014   3.691
 1277SOL     OW 3846   0.598   4.453   2.132
 1277SOL    HW1 3847   0.622   4.522   2.064
 1277SOL    HW2 3848   0.520   4.486   2.186
 1278SOL     OW 3849   1.281   4.069   2.806
 1278SOL    HW1 3850   1.195   4.019   2.793
 1278SOL    HW2 3851   1.343   4.015   2.862
 1279SOL     OW 3852   0.807   4.329   3.327
 1279SOL    HW1 3853   0.760   4.326   3.416
 1279SOL    HW2 3854   0.756   4.274   3.261
 1280SOL     OW 3855   1.394   4.193   3.536
 1280SOL    HW1 3856   1.374   4.236   3.624
 1280SOL    HW2 3857   1.472   4.131   3.545
 1281SOL     OW 3858   0.973   4.614   3.434
 1281SOL    HW1 3859   1.019   4.530   3.405
 1281SOL    HW2 3860   0.917   4.648   3.359
 1282SOL     OW 3861   0.991   4.134   3.104
 1282SOL    HW1 3862   0.914   4.168   3.158
 1282SOL    HW2 3863   0.957   4.083   3.025
 1283SOL     OW 3864   1.041   4.425   2.291
 1283SOL    HW1 3865   1.067   4.421   2.387
 1283SOL    HW2 3866   0.956   4.374   2.277
 1284SOL     OW 3867   0.076   4.535   2.651
 1284SOL    HW1 3868   0.175   4.523   2.660
 1284SOL    HW2 3869   0.052   4.630   2.672
 1285SOL     OW 3870   0.865   4.072   2.057
 1285SOL    HW1 3871   0.924   4.135   2.008
 1285SOL    HW2 3872   0.884   3.978   2.028
 1286SOL     OW 3873   1.719   4.309   3.693
 1286SOL    HW1 3874   1.693   4.398   3.657
 1286SOL    HW2 3875   1.717   4.241   3.620
 1287SOL     OW 3876   0.550   3.920   2.747
 1287SOL    HW1 3877   0.545   3.915   2.847
 1287SOL    HW2 3878   0.552   4.016   2.718
 1288SOL     OW 3879   1.795   4.790   2.735
 1288SOL    HW1 3880   1.733   4.775   2.659
 1288SOL    HW2 3881   1.743   4.801   2.820
 1289SOL     OW 3882   0.321   4.667   2.104
 1289SOL    HW1 3883   0.403   4.706   2.062
 1289SOL    HW2 3884   0.294   4.585   2.055
 1290SOL     OW 3885   1.458   4.459   2.590
 1290SOL    HW1 3886   1.453   4.394   2.665
 1290SOL    HW2 3887   1.538   4.518   2.603
 1291SOL     OW 3888   0.202   4.009   3.360
 1291SOL    HW1 3889   0.122   4.069   3.347
 1291SOL    HW2 3890   0.192   3.960   3.446
 1292SOL     OW 3891   1.400   3.831   2.288
 1292SOL    HW1 3892   1.376   3.794   2.198
 1292SOL    HW2 3893   1.499   3.847   2.292
 1293SOL     OW 3894   0.382   4.424   2.342
 1293SOL    HW1 3895   0.427   4.334   2.339
 1293SOL    HW2 3896   0.288   4.413   2.375
 1294SOL     OW 3897   1.547   3.946   3.591
 1294SOL    HW1 3898   1.542   3.983   3.683
 1294SOL    HW2 3899   1.475   3.877   3.579
 1295SOL     OW 3900   0.614   3.846   1.979
 1295SOL    HW1 3901   0.712   3.824   1.986
 1295SOL    HW2 3902   0.583   3.829   1.886
 1296SOL     OW 3903   0.781   3.988   3.611
 1296SOL    HW1 3904   0.848   3.927   3.654
 1296SOL    HW2 3905   0.708   4.007   3.676
 1297SOL     OW 3906   1.351   4.314   3.295
 1297SOL    HW1 3907   1.379   4.271   3.380
 1297SOL    HW2 3908   1.376   4.410   3.296
 1298SOL     OW 3909   0.922   4.227   2.761
 1298SOL    HW1 3910   0.897   4.218   2.665
 1298SOL    HW2 3911   0.970   4.145   2.792
 1299SOL     OW 3912   0.539   3.788   2.374
 1299SOL    HW1 3913   0.458   3.789   2.432
 1299SOL    HW2 3914   0.542   3.871   2.319
 1300SOL     OW 3915   0.297   3.759   2.033
 1300SOL    HW1 3916   0.346   3.843   2.012
 1300SOL    HW2 3917   0.359   3.694   2.078
 1301SOL     OW 3918   0.935   3.960   2.342
 1301SOL    HW1 3919   0.887   4.001   2.264
 1301SOL    HW2 3920   1.034   3.958   2.323
 1302SOL     OW 3921   1.076   4.407   3.326
 1302SOL    HW1 3922   0.996   4.346   3.329
 1302SOL    HW2 3923   1.157   4.354   3.302
 1303SOL     OW 3924   0.459   4.876   2.603
 1303SOL    HW1 3925   0.388   4.849   2.668
 1303SOL    HW2 3926   0.433   4.848   2.510
 1304SOL     OW 3927   1.032   4.273   1.878
 1304SOL    HW1 3928   0.991   4.355   1.839
 1304SOL    HW2 3929   1.096   4.299   1.951
 1305SOL     OW 3930   0.078   4.280   3.248
 1305SOL    HW1 3931   0.170   4.279   3.207
 1305SOL    HW2 3932   0.072   4.354   3.315
 1306SOL     OW 3933   0.561   3.946   3.009
 1306SOL    HW1 3934   0.599   3.862   3.046
 1306SOL    HW2 3935   0.473   3.965   3.053
 1307SOL     OW 3936   0.866   4.178   2.504
 1307SOL    HW1 3937   0.834   4.250   2.442
 1307SOL    HW2 3938   0.890   4.097   2.451
 1308SOL     OW 3939   1.017   3.763   2.615
 1308SOL    HW1 3940   0.945   3.768   2.546
 1308SOL    HW2 3941   0.993   3.694   2.684
 1309SOL     OW 3942   1.429   4.897   2.729
 1309SOL    HW1 3943   1.374   4.813   2.722
 1309SOL    HW2 3944   1.455   4.926   2.637
 1310SOL     OW 3945   1.466   4.314   2.854
 1310SOL    HW1 3946   1.436   4.219   2.861
 1310SOL    HW2 3947   1.539   4.330   2.920
 1311SOL     OW 3948   1.857   4.557   2.239
 1311SOL    HW1 3949   1.899   4.493   2.303
 1311SOL    HW2 3950   1.819   4.506   2.161
 1312SOL     OW 3951   1.390   4.299   1.940
 1312SOL    HW1 3952   1.336   4.278   2.021
 1312SOL    HW2 3953   1.481   4.258   1.949
 1313SOL     OW 3954   0.527   3.980   2.190
 1313SOL    HW1 3955   0.554   3.921   2.115
 1313SOL    HW2 3956   0.527   4.075   2.159
 1314SOL     OW 3957   1.754   4.947   3.450
 1314SOL    HW1 3958   1.845   4.908   3.437
 1314SOL    HW2 3959   1.762   5.043   3.474
 1315SOL     OW 3960   1.638   4.823   2.941
 1315SOL    HW1 3961   1.643   4.904   3.000
 1315SOL    HW2 3962   1.552   4.825   2.890
 1316SOL     OW 3963   0.915   3.813   3.264
 1316SOL    HW1 3964   0.940   3.793   3.169
 1316SOL    HW2 3965   0.987   3.869   3.306
 1317SOL     OW 3966   0.705   4.774   2.230
 1317SOL    HW1 3967   0.691   4.781   2.329
 1317SOL    HW2 3968   0.789   4.723   2.212
 1318SOL     OW 3969   0.410   4.537   3.113
 1318SOL    HW1 3970   0.496   4.549   3.163
 1318SOL    HW2 3971   0.368   4.450   3.140
 1319SOL     OW 3972   1.274   4.110   3.124
 1319SOL    HW1 3973   1.295   4.184   3.188
 1319SOL    HW2 3974   1.185   4.127   3.081
 1320SOL     OW 3975   0.367   4.824   2.363
 1320SOL    HW1 3976   0.360   4.907   2.307
 1320SOL    HW2 3977   0.371   4.744   2.303
 1321SOL     OW 3978   0.566   4.261   2.727
 1321SOL    HW1 3979   0.578   4.327   2.653
 1321SOL    HW2 3980   0.612   4.295   2.810
 1322SOL     OW 3981   1.582   4.363   2.334
 1322SOL    HW1 3982   1.551   4.424   2.407
 1322SOL    HW2 3983   1.632   4.415   2.265
 1323SOL     OW 3984   0.402   4.475   3.460
 1323SOL    HW1 3985   0.470   4.530   3.413
 1323SOL    HW2 3986   0.442   4.387   3.487
 1324SOL     OW 3987   1.587   4.503   3.532
 1324SOL    HW1 3988   1.495   4.541   3.527
 1324SOL    HW2 3989   1.647   4.550   3.467
 1325SOL     OW 3990   1.013   3.829   3.632
 1325SOL    HW1 3991   1.019   3.914   3.580
 1325SOL    HW2 3992   1.045   3.753   3.575
 1326SOL     OW 3993   0.504   3.774   3.602
 1326SOL    HW1 3994   0.462   3.717   3.532
 1326SOL    HW2 3995   0.438   3.843   3.634
 1327SOL     OW 3996   0.573   4.594   2.891
 1327SOL    HW1 3997   0.617   4.683   2.882
 1327SOL    HW2 3998   0.510   4.594   2.968
 1328SOL     OW 3999   1.360   4.586   2.907
 1328SOL    HW1 4000   1.285   4.586   2.841
 1328SOL    HW2 4001   1.397   4.494   2.916
 1329SOL     OW 4002   1.209   4.249   2.137
 1329SOL    HW1 4003   1.222   4.165   2.191
 1329SOL    HW2 4004   1.180   4.323   2.197
 1330SOL     OW 4005   0.307   3.937   3.093
 1330SOL    HW1 4006   0.284   3.974   3.183
 1330SOL    HW2 4007   0.277   3.842   3.087
 1331SOL     OW 4008   0.037   5.034   3.144
 1331SOL    HW1 4009   0.090   4.985   3.212
 1331SOL    HW2 4010   0.059   5.132   3.149
 1332SOL     OW 4011   0.732   4.358   2.926
 1332SOL    HW1 4012   0.791   4.332   2.850
 1332SOL    HW2 4013   0.704   4.454   2.915
 1333SOL     OW 4014   1.728   4.659   3.716
 1333SOL    HW1 4015   1.682   4.652   3.627
 1333SOL    HW2 4016   1.666   4.703   3.782
 1334SOL     OW 4017   0.307   3.787   2.480
 1334SOL    HW1 4018   0.296   3.881   2.513
 1334SOL    HW2 4019   0.302   3.724   2.557
 1335SOL     OW 4020   1.622   4.091   2.236
 1335SOL    HW1 4021   1.624   4.015   2.300
 1335SOL    HW2 4022   1.574   4.168   2.276
 1336SOL     OW 4023   1.023   4.490   2.828
 1336SOL    HW1 4024   1.038   4.511   2.924
 1336SOL    HW2 4025   0.993   4.395   2.819
 1337SOL     OW 4026   0.350   4.622   3.666
 1337SOL    HW1 4027   0.426   4.666   3.714
 1337SOL    HW2 4028   0.385   4.575   3.584
 1338SOL     OW 4029   1.540   3.998   1.987
 1338SOL    HW1 4030   1.479   3.923   2.010
 1338SOL    HW2 4031   1.562   4.050   2.070
 1339SOL     OW 4032   1.303   4.562   1.904
 1339SOL    HW1 4033   1.337   4.469   1.919
 1339SOL    HW2 4034   1.321   4.589   1.809
 1340SOL     OW 4035   0.319   4.534   2.811
 1340SOL    HW1 4036   0.412   4.570   2.816
 1340SOL    HW2 4037   0.313   4.449   2.863
 1341SOL     OW 4038   0.339   4.233   2.868
 1341SOL    HW1 4039   0.287   4.150   2.851
 1341SOL    HW2 4040   0.416   4.238   2.804
 1342SOL     OW 4041   1.138   4.104   3.540
 1342SOL    HW1 4042   1.093   4.167   3.604
 1342SOL    HW2 4043   1.231   4.135   3.523
 1343SOL     OW 4044   1.160   3.931   3.339
 1343SOL    HW1 4045   1.160   3.995   3.416
 1343SOL    HW2 4046   1.188   3.979   3.256
 1344SOL     OW 4047   1.002   4.520   3.100
 1344SOL    HW1 4048   1.043   4.488   3.186
 1344SOL    HW2 4049   0.906   4.493   3.097
 1345SOL     OW 4050   0.040   4.268   2.976
 1345SOL    HW1 4051   0.125   4.235   2.935
 1345SOL    HW2 4052   0.053   4.283   3.074
 1346SOL     OW 4053   0.189   4.244   3.584
 1346SOL    HW1 4054   0.248   4.204   3.514
 1346SOL    HW2 4055   0.131   4.315   3.543
 1347SOL     OW 4056   1.369   4.674   3.522
 1347SOL    HW1 4057   1.408   4.763   3.542
 1347SOL    HW2 4058   1.379   4.654   3.425
 1348SOL     OW 4059   0.815   4.296   2.187
 1348SOL    HW1 4060   0.822   4.207   2.141
 1348SOL    HW2 4061   0.721   4.330   2.179
 1349SOL     OW 4062   1.657   4.328   3.068
 1349SOL    HW1 4063   1.619   4.259   3.130
 1349SOL    HW2 4064   1.739   4.292   3.024
 1350SOL     OW 4065   0.671   4.188   3.131
 1350SOL    HW1 4066   0.637   4.099   3.101
 1350SOL    HW2 4067   0.697   4.242   3.051
 1351SOL     OW 4068   0.473   4.224   2.053
 1351SOL    HW1 4069   0.534   4.304   2.057
 1351SOL    HW2 4070   0.378   4.255   2.060
 1352SOL     OW 4071   0.159   4.861   3.328
 1352SOL    HW1 4072   0.181   4.800   3.404
 1352SOL    HW2 4073   0.169   4.812   3.242
 1353SOL     OW 4074   1.347   4.783   3.096
 1353SOL    HW1 4075   1.371   4.720   3.022
 1353SOL    HW2 4076   1.257   4.823   3.078
 1354SOL     OW 4077   1.302   4.579   2.171
 1354SOL    HW1 4078   1.216   4.548   2.213
 1354SOL    HW2 4079   1.298   4.565   2.072
 1355SOL     OW 4080   0.083   4.982   2.884
 1355SOL    HW1 4081   0.078   4.981   2.984
 1355SOL    HW2 4082   0.000   4.941   2.846
 1356SOL     OW 4083   1.726   3.859   2.385
 1356SOL    HW1 4084   1.799   3.842   2.318
 1356SOL    HW2 4085   1.695   3.772   2.423
 1357SOL     OW 4086   1.280   4.651   2.534
 1357SOL    HW1 4087   1.340   4.570   2.536
 1357SOL    HW2 4088   1.320   4.720   2.474
 1358SOL     OW 4089   1.841   3.899   2.825
 1358SOL    HW1 4090   1.880   3.814   2.789
 1358SOL    HW2 4091   1.743   3.901   2.806
 1359SOL     OW 4092   0.263   4.050   2.582
 1359SOL    HW1 4093   0.184   4.101   2.548
 1359SOL    HW2 4094   0.254   4.035   2.680
 1360SOL     OW 4095   0.822   4.726   3.234
 1360SOL    HW1 4096   0.862   4.725   3.142
 1360SOL    HW2 4097   0.832   4.818   3.274
 1361SOL     OW 4098   0.916   4.634   2.153
 1361SOL    HW1 4099   0.979   4.672   2.085
 1361SOL    HW2 4100   0.956   4.551   2.192
 1362SOL     OW 4101   0.372   5.012   3.352
 1362SOL    HW1 4102   0.359   5.105   3.318
 1362SOL    HW2 4103   0.288   4.960   3.339
 1363SOL     OW 4104   1.014   3.960   2.833
 1363SOL    HW1 4105   1.006   3.924   2.740
 1363SOL    HW2 4106   1.012   3.884   2.898
 1364SOL     OW 4107   1.709   4.109   3.243
 1364SOL    HW1 4108   1.782   4.178   3.247
 1364SOL    HW2 4109   1.737   4.034   3.184
 1365SOL     OW 4110   0.105   4.737   3.588
 1365SOL    HW1 4111   0.028   4.704   3.642
 1365SOL    HW2 4112   0.190   4.707   3.630
 1366SOL     OW 4113   0.672   3.927   3.351
 1366SOL    HW1 4114   0.762   3.911   3.311
 1366SOL    HW2 4115   0.680   3.932   3.450
 1367SOL     OW 4116   0.075   4.069   1.895
 1367SOL    HW1 4117  -0.017   4.041   1.866
 1367SOL    HW2 4118   0.106   4.146   1.839
 1368SOL     OW 4119   1.440   4.580   3.260
 1368SOL    HW1 4120   1.383   4.632   3.197
 1368SOL    HW2 4121   1.536   4.592   3.236
 1369SOL     OW 4122   0.072   3.890   2.180
 1369SOL    HW1 4123   0.055   3.973   2.126
 1369SOL    HW2 4124   0.162   3.853   2.158
 1370SOL     OW 4125   1.183   5.059   1.981
 1370SOL    HW1 4126   1.084   5.048   1.983
 1370SOL    HW2 4127   1.217   5.074   2.074
 1371SOL     OW 4128   0.613   4.566   3.293
 1371SOL    HW1 4129   0.669   4.647   3.276
 1371SOL    HW2 4130   0.672   4.486   3.296
 1372SOL     OW 4131   0.716   4.289   3.570
 1372SOL    HW1 4132   0.735   4.354   3.644
 1372SOL    HW2 4133   0.776   4.209   3.579
 1373SOL     OW 4134   1.450   4.944   3.495
 1373SOL    HW1 4135   1.441   4.934   3.594
 1373SOL    HW2 4136   1.546   4.937   3.469
 1374SOL     OW 4137   1.674   4.607   3.116
 1374SOL    HW1 4138   1.647   4.518   3.079
 1374SOL    HW2 4139   1.675   4.675   3.043
 1375SOL     OW 4140   1.225   4.049   2.311
 1375SOL    HW1 4141   1.290   3.975   2.300
 1375SOL    HW2 4142   1.245   4.099   2.395
 1376SOL     OW 4143   0.594   4.469   2.514
 1376SOL    HW1 4144   0.644   4.554   2.495
 1376SOL    HW2 4145   0.506   4.471   2.466
 1377SOL     OW 4146   1.777   4.066   3.504
 1377SOL    HW1 4147   1.760   4.097   3.410
 1377SOL    HW2 4148   1.693   4.029   3.542
 1378SOL     OW 4149   1.730   4.658   3.379
 1378SOL    HW1 4150   1.768   4.749   3.394
 1378SOL    HW2 4151   1.722   4.641   3.280
 1379SOL     OW 4152   0.859   4.680   2.723
 1379SOL    HW1 4153   0.913   4.611   2.771
 1379SOL    HW2 4154   0.827   4.749   2.789
 1380SOL     OW 4155   1.083   4.708   1.949
 1380SOL    HW1 4156   1.060   4.761   1.867
 1380SOL    HW2 4157   1.164   4.652   1.930
 1381SOL     OW 4158   1.824   3.916   3.089
 1381SOL    HW1 4159   1.820   3.826   3.133
 1381SOL    HW2 4160   1.827   3.905   2.990
 1382SOL     OW 4161   0.428   4.148   2.382
 1382SOL    HW1 4162   0.458   4.076   2.320
 1382SOL    HW2 4163   0.389   4.108   2.465
 1383SOL     OW 4164   0.317   4.271   3.142
 1383SOL    HW1 4165   0.355   4.212   3.214
 1383SOL    HW2 4166   0.357   4.245   3.054
 1384SOL     OW 4167   1.424   3.938   2.974
 1384SOL    HW1 4168   1.476   3.873   3.029
 1384SOL    HW2 4169   1.375   4.001   3.035
 1385SOL     OW 4170   1.001   3.758   3.016
 1385SOL    HW1 4171   0.938   3.686   2.985
 1385SOL    HW2 4172   1.094   3.722   3.016
 1386SOL     OW 4173   0.770   5.054   2.163
 1386SOL    HW1 4174   0.724   4.967   2.180
 1386SOL    HW2 4175   0.861   5.051   2.204
 1387SOL     OW 4176   1.352   3.776   2.030
 1387SOL    HW1 4177   1.387   3.735   1.946
 1387SOL    HW2 4178   1.262   3.738   2.050
 1388SOL     OW 4179   1.300   4.177   2.553
 1388SOL    HW1 4180   1.241   4.257   2.557
 1388SOL    HW2 4181   1.315   4.142   2.646
 1389SOL     OW 4182   1.593   3.945   2.744
 1389SOL    HW1 4183   1.509   3.944   2.798
 1389SOL    HW2 4184   1.595   4.028   2.688
 1390SOL     OW 4185   0.039   4.801   2.162
 1390SOL    HW1 4186   0.138   4.790   2.153
 1390SOL    HW2 4187  -0.001   4.715   2.194
 1391SOL     OW 4188   0.230   4.352   3.837
 1391SOL    HW1 4189   0.137   4.350   3.874
 1391SOL    HW2 4190   0.231   4.313   3.745
 1392SOL     OW 4191   0.225   3.999   4.720
 1392SOL    HW1 4192   0.260   3.982   4.812
 1392SOL    HW2 4193   0.137   3.954   4.708
 1393SOL     OW 4194   0.019   4.092   4.371
 1393SOL    HW1 4195  -0.063   4.135   4.410
 1393SOL    HW2 4196  -0.009   4.019   4.308
 1394SOL     OW 4197   1.135   4.427   4.441
 1394SOL    HW1 4198   1.192   4.505   4.416
 1394SOL    HW2 4199   1.075   4.453   4.517
 1395SOL     OW 4200   1.755   4.331   3.955
 1395SOL    HW1 4201   1.743   4.318   3.856
 1395SOL    HW2 4202   1.725   4.250   4.004
 1396SOL     OW 4203   0.768   4.868   4.747
 1396SOL    HW1 4204   0.690   4.885   4.807
 1396SOL    HW2 4205   0.802   4.955   4.711
 1397SOL     OW 4206   0.685   4.736   4.389
 1397SOL    HW1 4207   0.754   4.720   4.459
 1397SOL    HW2 4208   0.612   4.793   4.427
 1398SOL     OW 4209   1.603   4.171   4.461
 1398SOL    HW1 4210   1.529   4.217   4.411
 1398SOL    HW2 4211   1.654   4.239   4.514
 1399SOL     OW 4212   0.240   4.815   4.610
 1399SOL    HW1 4213   0.254   4.731   4.662
 1399SOL    HW2 4214   0.185   4.879   4.665
 1400SOL     OW 4215   0.606   4.688   3.847
 1400SOL    HW1 4216   0.613   4.772   3.793
 1400SOL    HW2 4217   0.652   4.701   3.935
 1401SOL     OW 4218   0.122   4.367   4.287
 1401SOL    HW1 4219   0.077   4.279   4.304
 1401SOL    HW2 4220   0.121   4.421   4.371
 1402SOL     OW 4221   1.689   4.646   4.336
 1402SOL    HW1 4222   1.784   4.617   4.344
 1402SOL    HW2 4223   1.681   4.711   4.261
 1403SOL     OW 4224   0.809   3.728   4.226
 1403SOL    HW1 4225   0.849   3.819   4.217
 1403SOL    HW2 4226   0.709   3.736   4.232
 1404SOL     OW 4227   0.197   4.700   4.988
 1404SOL    HW1 4228   0.286   4.655   4.974
 1404SOL    HW2 4229   0.124   4.635   4.969
 1405SOL     OW 4230   1.525   4.723   3.914
 1405SOL    HW1 4231   1.462   4.647   3.927
 1405SOL    HW2 4232   1.573   4.741   4.000
 1406SOL     OW 4233   0.598   4.453   3.994
 1406SOL    HW1 4234   0.622   4.522   3.926
 1406SOL    HW2 4235   0.520   4.486   4.048
 1407SOL     OW 4236   1.281   4.069   4.668
 1407SOL    HW1 4237   1.195   4.019   4.655
 1407SOL    HW2 4238   1.343   4.015   4.724
 1408SOL     OW 4239   1.041   4.425   4.153
 1408SOL    HW1 4240   1.067   4.421   4.249
 1408SOL    HW2 4241   0.956   4.374   4.139
 1409SOL     OW 4242   0.076   4.535   4.513
 1409SOL    HW1 4243   0.175   4.523   4.522
 1409SOL    HW2 4244   0.052   4.630   4.534
 1410SOL     OW 4245   0.865   4.072   3.919
 1410SOL    HW1 4246   0.924   4.135   3.870
 1410SOL    HW2 4247   0.884   3.978   3.890
 1411SOL     OW 4248   0.550   3.920   4.609
 1411SOL    HW1 4249   0.545   3.915   4.709
 1411SOL    HW2 4250   0.552   4.016   4.580
 1412SOL     OW 4251   1.795   4.790   4.597
 1412SOL    HW1 4252   1.733   4.775   4.521
 1412SOL    HW2 4253   1.743   4.801   4.682
 1413SOL     OW 4254   0.321   4.667   3.966
 1413SOL    HW1 4255   0.403   4.706   3.924
 1413SOL    HW2 4256   0.294   4.585   3.917
 1414SOL     OW 4257   1.458   4.459   4.452
 1414SOL    HW1 4258   1.453   4.394   4.527
 1414SOL    HW2 4259   1.538   4.518   4.465
 1415SOL     OW 4260   1.400   3.831   4.150
 1415SOL    HW1 4261   1.376   3.794   4.060
 1415SOL    HW2 4262   1.499   3.847   4.154
 1416SOL     OW 4263   0.382   4.424   4.204
 1416SOL    HW1 4264   0.427   4.334   4.201
 1416SOL    HW2 4265   0.288   4.413   4.237
 1417SOL     OW 4266   0.614   3.846   3.841
 1417SOL    HW1 4267   0.712   3.824   3.848
 1417SOL    HW2 4268   0.583   3.829   3.748
 1418SOL     OW 4269   0.888   5.238   4.919
 1418SOL    HW1 4270   0.865   5.213   4.825
 1418SOL    HW2 4271   0.949   5.169   4.958
 1419SOL     OW 4272   0.922   4.227   4.623
 1419SOL    HW1 4273   0.897   4.218   4.527
 1419SOL    HW2 4274   0.970   4.145   4.654
 1420SOL     OW 4275   0.539   3.788   4.236
 1420SOL    HW1 4276   0.458   3.789   4.294
 1420SOL    HW2 4277   0.542   3.871   4.181
 1421SOL     OW 4278   0.297   3.759   3.895
 1421SOL    HW1 4279   0.346   3.843   3.874
 1421SOL    HW2 4280   0.359   3.694   3.940
 1422SOL     OW 4281   0.935   3.960   4.204
 1422SOL    HW1 4282   0.887   4.001   4.126
 1422SOL    HW2 4283   1.034   3.958   4.185
 1423SOL     OW 4284   0.459   4.876   4.465
 1423SOL    HW1 4285   0.388   4.849   4.530
 1423SOL    HW2 4286   0.433   4.848   4.372
 1424SOL     OW 4287   1.032   4.273   3.740
 1424SOL    HW1 4288   0.991   4.355   3.701
 1424SOL    HW2 4289   1.096   4.299   3.813
 1425SOL     OW 4290   0.866   4.178   4.366
 1425SOL    HW1 4291   0.834   4.250   4.304
 1425SOL    HW2 4292   0.890   4.097   4.313
 1426SOL     OW 4293   1.017   3.763   4.477
 1426SOL    HW1 4294   0.945   3.768   4.408
 1426SOL    HW2 4295   0.993   3.694   4.546
 1427SOL     OW 4296   1.429   4.897   4.591
 1427SOL    HW1 4297   1.374   4.813   4.584
 1427SOL    HW2 4298   1.455   4.926   4.499
 1428SOL     OW 4299   1.466   4.314   4.716
 1428SOL    HW1 4300   1.436   4.219   4.723
 1428SOL    HW2 4301   1.539   4.330   4.782
 1429SOL     OW 4302   1.857   4.557   4.101
 1429SOL    HW1 4303   1.899   4.493   4.165
 1429SOL    HW2 4304   1.819   4.506   4.023
 1430SOL     OW 4305   1.390   4.299   3.802
 1430SOL    HW1 4306   1.336   4.278   3.883
 1430SOL    HW2 4307   1.481   4.258   3.811
 1431SOL     OW 4308   0.527   3.980   4.052
 1431SOL    HW1 4309   0.554   3.921   3.977
 1431SOL    HW2 4310   0.527   4.075   4.021
 1432SOL     OW 4311   1.111   4.919   4.824
 1432SOL    HW1 4312   1.071   4.963   4.905
 1432SOL    HW2 4313   1.070   4.956   4.741
 1433SOL     OW 4314   1.638   4.823   4.803
 1433SOL    HW1 4315   1.643   4.904   4.862
 1433SOL    HW2 4316   1.552   4.825   4.752
 1434SOL     OW 4317   0.705   4.774   4.092
 1434SOL    HW1 4318   0.691   4.781   4.191
 1434SOL    HW2 4319   0.789   4.723   4.074
 1435SOL     OW 4320   0.410   4.537   4.975
 1435SOL    HW1 4321   0.496   4.549   5.025
 1435SOL    HW2 4322   0.368   4.450   5.002
 1436SOL     OW 4323   0.367   4.824   4.225
 1436SOL    HW1 4324   0.360   4.907   4.169
 1436SOL    HW2 4325   0.371   4.744   4.165
 1437SOL     OW 4326   0.566   4.261   4.589
 1437SOL    HW1 4327   0.578   4.327   4.515
 1437SOL    HW2 4328   0.612   4.295   4.672
 1438SOL     OW 4329   1.582   4.363   4.196
 1438SOL    HW1 4330   1.551   4.424   4.269
 1438SOL    HW2 4331   1.632   4.415   4.127
 1439SOL     OW 4332   0.573   4.594   4.753
 1439SOL    HW1 4333   0.617   4.683   4.744
 1439SOL    HW2 4334   0.510   4.594   4.830
 1440SOL     OW 4335   1.209   4.249   3.999
 1440SOL    HW1 4336   1.222   4.165   4.053
 1440SOL    HW2 4337   1.180   4.323   4.059
 1441SOL     OW 4338   0.732   4.358   4.788
 1441SOL    HW1 4339   0.791   4.332   4.712
 1441SOL    HW2 4340   0.704   4.454   4.777
 1442SOL     OW 4341   0.307   3.787   4.342
 1442SOL    HW1 4342   0.296   3.881   4.375
 1442SOL    HW2 4343   0.302   3.724   4.419
 1443SOL     OW 4344   1.622   4.091   4.098
 1443SOL    HW1 4345   1.624   4.015   4.162
 1443SOL    HW2 4346   1.574   4.168   4.138
 1444SOL     OW 4347   1.023   4.490   4.690
 1444SOL    HW1 4348   1.038   4.511   4.786
 1444SOL    HW2 4349   0.993   4.395   4.681
 1445SOL     OW 4350   1.540   3.998   3.849
 1445SOL    HW1 4351   1.479   3.923   3.872
 1445SOL    HW2 4352   1.562   4.050   3.932
 1446SOL     OW 4353   1.303   4.562   3.766
 1446SOL    HW1 4354   1.337   4.469   3.781
 1446SOL    HW2 4355   1.321   4.589   3.671
 1447SOL     OW 4356   0.319   4.534   4.673
 1447SOL    HW1 4357   0.412   4.570   4.678
 1447SOL    HW2 4358   0.313   4.449   4.725
 1448SOL     OW 4359   0.339   4.233   4.730
 1448SOL    HW1 4360   0.287   4.150   4.713
 1448SOL    HW2 4361   0.416   4.238   4.666
 1449SOL     OW 4362   1.002   4.520   4.962
 1449SOL    HW1 4363   1.043   4.488   5.048
 1449SOL    HW2 4364   0.906   4.493   4.959
 1450SOL     OW 4365   0.815   4.296   4.049
 1450SOL    HW1 4366   0.822   4.207   4.003
 1450SOL    HW2 4367   0.721   4.330   4.041
 1451SOL     OW 4368   0.671   4.188   4.993
 1451SOL    HW1 4369   0.637   4.099   4.963
 1451SOL    HW2 4370   0.697   4.242   4.913
 1452SOL     OW 4371   0.473   4.224   3.915
 1452SOL    HW1 4372   0.534   4.304   3.919
 1452SOL    HW2 4373   0.378   4.255   3.922
 1453SOL     OW 4374   1.347   4.783   4.958
 1453SOL    HW1 4375   1.371   4.720   4.884
 1453SOL    HW2 4376   1.257   4.823   4.940
 1454SOL     OW 4377   1.302   4.579   4.033
 1454SOL    HW1 4378   1.216   4.548   4.075
 1454SOL    HW2 4379   1.298   4.565   3.934
 1455SOL     OW 4380   0.083   4.982   4.746
 1455SOL    HW1 4381   0.078   4.981   4.846
 1455SOL    HW2 4382   0.000   4.941   4.708
 1456SOL     OW 4383   1.726   3.859   4.247
 1456SOL    HW1 4384   1.799   3.842   4.180
 1456SOL    HW2 4385   1.695   3.772   4.285
 1457SOL     OW 4386   1.280   4.651   4.396
 1457SOL    HW1 4387   1.340   4.570   4.398
 1457SOL    HW2 4388   1.320   4.720   4.336
 1458SOL     OW 4389   1.841   3.899   4.687
 1458SOL    HW1 4390   1.880   3.814   4.651
 1458SOL    HW2 4391   1.743   3.901   4.668
 1459SOL     OW 4392   0.263   4.050   4.444
 1459SOL    HW1 4393   0.184   4.101   4.410
 1459SOL    HW2 4394   0.254   4.035   4.542
 1460SOL     OW 4395   0.822   4.726   5.096
 1460SOL    HW1 4396   0.862   4.725   5.004
 1460SOL    HW2 4397   0.832   4.818   5.136
 1461SOL     OW 4398   0.916   4.634   4.015
 1461SOL    HW1 4399   0.979   4.672   3.947
 1461SOL    HW2 4400   0.956   4.551   4.054
 1462SOL     OW 4401   1.014   3.960   4.695
 1462SOL    HW1 4402   1.006   3.924   4.602
 1462SOL    HW2 4403   1.012   3.884   4.760
 1463SOL     OW 4404   0.075   4.069   3.757
 1463SOL    HW1 4405  -0.017   4.041   3.728
 1463SOL    HW2 4406   0.106   4.146   3.701
 1464SOL     OW 4407   0.072   3.890   4.042
 1464SOL    HW1 4408   0.055   3.973   3.988
 1464SOL    HW2 4409   0.162   3.853   4.020
 1465SOL     OW 4410   1.183   5.059   3.843
 1465SOL    HW1 4411   1.084   5.048   3.845
 1465SOL    HW2 4412   1.217   5.074   3.936
 1466SOL     OW 4413   1.674   4.607   4.978
 1466SOL    HW1 4414   1.647   4.518   4.941
 1466SOL    HW2 4415   1.675   4.675   4.905
 1467SOL     OW 4416   1.225   4.049   4.173
 1467SOL    HW1 4417   1.290   3.975   4.162
 1467SOL    HW2 4418   1.245   4.099   4.257
 1468SOL     OW 4419   0.594   4.469   4.376
 1468SOL    HW1 4420   0.644   4.554   4.357
 1468SOL    HW2 4421   0.506   4.471   4.328
 1469SOL     OW 4422   0.859   4.680   4.585
 1469SOL    HW1 4423   0.913   4.611   4.633
 1469SOL    HW2 4424   0.827   4.749   4.651
 1470SOL     OW 4425   1.083   4.708   3.811
 1470SOL    HW1 4426   1.060   4.761   3.729
 1470SOL    HW2 4427   1.164   4.652   3.792
 1471SOL     OW 4428   1.824   3.916   4.951
 1471SOL    HW1 4429   1.820   3.826   4.995
 1471SOL    HW2 4430   1.827   3.905   4.852
 1472SOL     OW 4431   0.428   4.148   4.244
 1472SOL    HW1 4432   0.458   4.076   4.182
 1472SOL    HW2 4433   0.389   4.108   4.327
 1473SOL     OW 4434   1.424   3.938   4.836
 1473SOL    HW1 4435   1.476   3.873   4.891
 1473SOL    HW2 4436   1.375   4.001   4.897
 1474SOL     OW 4437   0.770   5.054   4.025
 1474SOL    HW1 4438   0.724   4.967   4.042
 1474SOL    HW2 4439   0.861   5.051   4.066
 1475SOL     OW 4440   1.352   3.776   3.892
 1475SOL    HW1 4441   1.387   3.735   3.808
 1475SOL    HW2 4442   1.262   3.738   3.912
 1476SOL     OW 4443   1.300   4.177   4.415
 1476SOL    HW1 4444   1.241   4.257   4.419
 1476SOL    HW2 4445   1.315   4.142   4.508
 1477SOL     OW 4446   1.593   3.945   4.606
 1477SOL    HW1 4447   1.509   3.944   4.660
 1477SOL    HW2 4448   1.595   4.028   4.550
 1478SOL     OW 4449   0.039   4.801   4.024
 1478SOL    HW1 4450   0.138   4.790   4.015
 1478SOL    HW2 4451  -0.001   4.715   4.056
 1479SOL     OW 4452   2.092   0.628   0.113
 1479SOL    HW1 4453   1.999   0.626   0.150
 1479SOL    HW2 4454   2.093   0.589   0.021
 1480SOL     OW 4455   2.087   0.275   0.996
 1480SOL    HW1 4456   2.122   0.258   1.088
 1480SOL    HW2 4457   1.999   0.230   0.984
 1481SOL     OW 4458   1.881   0.368   0.647
 1481SOL    HW1 4459   1.799   0.411   0.686
 1481SOL    HW2 4460   1.853   0.295   0.584
 1482SOL     OW 4461   2.431   1.275   1.165
 1482SOL    HW1 4462   2.338   1.268   1.128
 1482SOL    HW2 4463   2.442   1.364   1.209
 1483SOL     OW 4464   3.417   1.511   0.703
 1483SOL    HW1 4465   3.360   1.495   0.784
 1483SOL    HW2 4466   3.358   1.521   0.623
 1484SOL     OW 4467   2.997   0.703   0.717
 1484SOL    HW1 4468   3.054   0.781   0.692
 1484SOL    HW2 4469   2.937   0.729   0.793
 1485SOL     OW 4470   3.617   0.607   0.231
 1485SOL    HW1 4471   3.605   0.594   0.132
 1485SOL    HW2 4472   3.587   0.526   0.280
 1486SOL     OW 4473   2.630   1.144   1.023
 1486SOL    HW1 4474   2.552   1.161   1.083
 1486SOL    HW2 4475   2.664   1.231   0.987
 1487SOL     OW 4476   2.712   0.798   1.823
 1487SOL    HW1 4477   2.708   0.874   1.888
 1487SOL    HW2 4478   2.734   0.834   1.732
 1488SOL     OW 4479   2.547   1.012   0.665
 1488SOL    HW1 4480   2.616   0.996   0.735
 1488SOL    HW2 4481   2.474   1.069   0.703
 1489SOL     OW 4482   2.548   1.161   1.803
 1489SOL    HW1 4483   2.608   1.240   1.817
 1489SOL    HW2 4484   2.462   1.192   1.762
 1490SOL     OW 4485   2.197   1.435   1.061
 1490SOL    HW1 4486   2.119   1.404   1.008
 1490SOL    HW2 4487   2.255   1.493   1.004
 1491SOL     OW 4488   3.322   1.505   1.339
 1491SOL    HW1 4489   3.346   1.599   1.365
 1491SOL    HW2 4490   3.306   1.451   1.421
 1492SOL     OW 4491   2.300   0.392   1.499
 1492SOL    HW1 4492   2.382   0.336   1.508
 1492SOL    HW2 4493   2.219   0.334   1.503
 1493SOL     OW 4494   3.465   0.447   0.737
 1493SOL    HW1 4495   3.391   0.493   0.687
 1493SOL    HW2 4496   3.516   0.515   0.790
 1494SOL     OW 4497   2.093   1.713   0.483
 1494SOL    HW1 4498   2.127   1.790   0.537
 1494SOL    HW2 4499   2.137   1.713   0.393
 1495SOL     OW 4500   2.989   1.341   1.690
 1495SOL    HW1 4501   3.036   1.341   1.778
 1495SOL    HW2 4502   2.941   1.254   1.679
 1496SOL     OW 4503   2.092   1.434   0.538
 1496SOL    HW1 4504   2.066   1.530   0.538
 1496SOL    HW2 4505   2.021   1.380   0.583
 1497SOL     OW 4506   2.102   1.091   0.886
 1497SOL    HW1 4507   2.116   1.007   0.938
 1497SOL    HW2 4508   2.047   1.155   0.941
 1498SOL     OW 4509   2.482   1.786   1.439
 1498SOL    HW1 4510   2.390   1.769   1.474
 1498SOL    HW2 4511   2.510   1.878   1.465
 1499SOL     OW 4512   2.468   0.964   0.123
 1499SOL    HW1 4513   2.475   1.048   0.069
 1499SOL    HW2 4514   2.514   0.977   0.211
 1500SOL     OW 4515   3.456   0.114   1.480
 1500SOL    HW1 4516   3.438   0.181   1.408
 1500SOL    HW2 4517   3.453   0.160   1.569
 1501SOL     OW 4518   1.984   0.643   0.563
 1501SOL    HW1 4519   1.939   0.555   0.580
 1501SOL    HW2 4520   1.983   0.697   0.647
 1502SOL     OW 4521   3.704   1.767   0.359
 1502SOL    HW1 4522   3.758   1.738   0.439
 1502SOL    HW2 4523   3.734   1.857   0.330
 1503SOL     OW 4524   1.889   1.596   0.117
 1503SOL    HW1 4525   1.870   1.500   0.138
 1503SOL    HW2 4526   1.856   1.654   0.192
 1504SOL     OW 4527   3.551   0.922   0.612
 1504SOL    HW1 4528   3.646   0.893   0.620
 1504SOL    HW2 4529   3.543   0.987   0.537
 1505SOL     OW 4530   3.503   1.108   0.432
 1505SOL    HW1 4531   3.589   1.110   0.380
 1505SOL    HW2 4532   3.517   1.155   0.520
 1506SOL     OW 4533   1.975   0.737   1.597
 1506SOL    HW1 4534   2.063   0.724   1.642
 1506SOL    HW2 4535   1.962   0.834   1.575
 1507SOL     OW 4536   2.475   1.365   0.726
 1507SOL    HW1 4537   2.426   1.278   0.735
 1507SOL    HW2 4538   2.452   1.408   0.639
 1508SOL     OW 4539   3.155   1.228   1.423
 1508SOL    HW1 4540   3.192   1.155   1.365
 1508SOL    HW2 4541   3.207   1.233   1.508
 1509SOL     OW 4542   2.671   0.004   0.502
 1509SOL    HW1 4543   2.711   0.095   0.493
 1509SOL    HW2 4544   2.571   0.012   0.508
 1510SOL     OW 4545   2.059   0.976   1.264
 1510SOL    HW1 4546   2.148   0.931   1.250
 1510SOL    HW2 4547   1.986   0.911   1.245
 1511SOL     OW 4548   3.387   0.999   0.190
 1511SOL    HW1 4549   3.324   0.923   0.203
 1511SOL    HW2 4550   3.435   1.017   0.276
 1512SOL     OW 4551   3.049   1.792   1.616
 1512SOL    HW1 4552   3.073   1.852   1.540
 1512SOL    HW2 4553   3.056   1.697   1.586
 1513SOL     OW 4554   2.179   0.251   1.801
 1513SOL    HW1 4555   2.250   0.322   1.807
 1513SOL    HW2 4556   2.091   0.290   1.829
 1514SOL     OW 4557   3.328   1.417   0.953
 1514SOL    HW1 4558   3.269   1.423   1.033
 1514SOL    HW2 4559   3.313   1.329   0.907
 1515SOL     OW 4560   3.529   1.714   0.572
 1515SOL    HW1 4561   3.488   1.691   0.484
 1515SOL    HW2 4562   3.511   1.640   0.637
 1516SOL     OW 4563   2.460   0.729   0.270
 1516SOL    HW1 4564   2.484   0.798   0.202
 1516SOL    HW2 4565   2.382   0.762   0.324
 1517SOL     OW 4566   3.143   0.345   0.944
 1517SOL    HW1 4567   3.057   0.295   0.931
 1517SOL    HW2 4568   3.205   0.291   1.000
 1518SOL     OW 4569   3.438   1.662   0.307
 1518SOL    HW1 4570   3.527   1.708   0.310
 1518SOL    HW2 4571   3.417   1.638   0.212
 1519SOL     OW 4572   2.669   0.605   1.465
 1519SOL    HW1 4573   2.622   0.602   1.554
 1519SOL    HW2 4574   2.618   0.550   1.399
 1520SOL     OW 4575   3.256   0.469   1.674
 1520SOL    HW1 4576   3.236   0.512   1.762
 1520SOL    HW2 4577   3.334   0.407   1.683
 1521SOL     OW 4578   2.835   0.890   1.572
 1521SOL    HW1 4579   2.881   0.806   1.543
 1521SOL    HW2 4580   2.779   0.924   1.497
 1522SOL     OW 4581   2.853   0.410   1.242
 1522SOL    HW1 4582   2.776   0.444   1.296
 1522SOL    HW2 4583   2.819   0.359   1.163
 1523SOL     OW 4584   2.903   0.701   0.429
 1523SOL    HW1 4585   2.929   0.697   0.525
 1523SOL    HW2 4586   2.818   0.650   0.415
 1524SOL     OW 4587   1.938   0.811   0.789
 1524SOL    HW1 4588   2.037   0.799   0.798
 1524SOL    HW2 4589   1.914   0.906   0.810
 1525SOL     OW 4590   1.992   1.821   1.571
 1525SOL    HW1 4591   1.982   1.806   1.670
 1525SOL    HW2 4592   1.906   1.857   1.535
 1526SOL     OW 4593   2.727   0.348   0.195
 1526SOL    HW1 4594   2.786   0.411   0.146
 1526SOL    HW2 4595   2.746   0.254   0.166
 1527SOL     OW 4596   3.581   0.585   1.831
 1527SOL    HW1 4597   3.555   0.674   1.795
 1527SOL    HW2 4598   3.579   0.517   1.758
 1528SOL     OW 4599   3.224   1.144   0.545
 1528SOL    HW1 4600   3.307   1.115   0.497
 1528SOL    HW2 4601   3.175   1.211   0.489
 1529SOL     OW 4602   2.412   0.196   0.885
 1529SOL    HW1 4603   2.407   0.191   0.985
 1529SOL    HW2 4604   2.414   0.292   0.856
 1530SOL     OW 4605   2.870   1.456   0.477
 1530SOL    HW1 4606   2.824   1.528   0.425
 1530SOL    HW2 4607   2.866   1.476   0.575
 1531SOL     OW 4608   2.213   1.801   0.853
 1531SOL    HW1 4609   2.263   1.715   0.859
 1531SOL    HW2 4610   2.278   1.878   0.850
 1532SOL     OW 4611   3.657   1.066   0.873
 1532SOL    HW1 4612   3.595   1.051   0.797
 1532SOL    HW2 4613   3.605   1.077   0.958
 1533SOL     OW 4614   3.089   1.550   1.506
 1533SOL    HW1 4615   3.095   1.473   1.570
 1533SOL    HW2 4616   3.037   1.524   1.426
 1534SOL     OW 4617   2.183   0.943   0.242
 1534SOL    HW1 4618   2.265   0.982   0.200
 1534SOL    HW2 4619   2.156   0.861   0.193
 1535SOL     OW 4620   3.320   0.735   0.728
 1535SOL    HW1 4621   3.315   0.670   0.803
 1535SOL    HW2 4622   3.400   0.794   0.741
 1536SOL     OW 4623   2.323   1.266   1.727
 1536SOL    HW1 4624   2.273   1.267   1.641
 1536SOL    HW2 4625   2.260   1.248   1.803
 1537SOL     OW 4626   2.973   1.776   0.237
 1537SOL    HW1 4627   2.913   1.714   0.287
 1537SOL    HW2 4628   3.004   1.732   0.152
 1538SOL     OW 4629   2.064   0.285   1.498
 1538SOL    HW1 4630   1.984   0.345   1.485
 1538SOL    HW2 4631   2.054   0.236   1.584
 1539SOL     OW 4632   3.494   1.377   0.081
 1539SOL    HW1 4633   3.462   1.471   0.071
 1539SOL    HW2 4634   3.418   1.314   0.069
 1540SOL     OW 4635   2.326   1.743   0.323
 1540SOL    HW1 4636   2.359   1.782   0.409
 1540SOL    HW2 4637   2.402   1.736   0.258
 1541SOL     OW 4638   3.262   0.107   0.426
 1541SOL    HW1 4639   3.238   0.070   0.336
 1541SOL    HW2 4640   3.361   0.123   0.430
 1542SOL     OW 4641   2.111   1.785   1.241
 1542SOL    HW1 4642   2.168   1.720   1.291
 1542SOL    HW2 4643   2.095   1.752   1.148
 1543SOL     OW 4644   2.802   1.698   0.904
 1543SOL    HW1 4645   2.882   1.641   0.925
 1543SOL    HW2 4646   2.753   1.658   0.827
 1544SOL     OW 4647   2.244   0.700   0.480
 1544SOL    HW1 4648   2.289   0.610   0.477
 1544SOL    HW2 4649   2.150   0.689   0.513
 1545SOL     OW 4650   3.409   0.222   1.729
 1545SOL    HW1 4651   3.404   0.259   1.821
 1545SOL    HW2 4652   3.337   0.153   1.717
 1546SOL     OW 4653   2.476   0.122   0.117
 1546SOL    HW1 4654   2.574   0.100   0.124
 1546SOL    HW2 4655   2.445   0.105   0.024
 1547SOL     OW 4656   2.643   0.264   1.749
 1547SOL    HW1 4657   2.710   0.203   1.792
 1547SOL    HW2 4658   2.570   0.283   1.814
 1548SOL     OW 4659   2.750   1.514   1.195
 1548SOL    HW1 4660   2.727   1.489   1.101
 1548SOL    HW2 4661   2.811   1.445   1.234
 1549SOL     OW 4662   3.213   0.590   1.433
 1549SOL    HW1 4663   3.241   0.547   1.518
 1549SOL    HW2 4664   3.238   0.686   1.434
 1550SOL     OW 4665   2.665   1.402   0.924
 1550SOL    HW1 4666   2.755   1.416   0.882
 1550SOL    HW2 4667   2.594   1.404   0.853
 1551SOL     OW 4668   2.784   0.503   0.899
 1551SOL    HW1 4669   2.759   0.494   0.803
 1551SOL    HW2 4670   2.832   0.421   0.930
 1552SOL     OW 4671   2.401   0.064   0.512
 1552SOL    HW1 4672   2.320   0.065   0.570
 1552SOL    HW2 4673   2.404   0.147   0.457
 1553SOL     OW 4674   3.296   1.188   0.041
 1553SOL    HW1 4675   3.328   1.112   0.098
 1553SOL    HW2 4676   3.204   1.215   0.071
 1554SOL     OW 4677   2.159   0.035   0.171
 1554SOL    HW1 4678   2.208   0.119   0.150
 1554SOL    HW2 4679   2.221  -0.030   0.216
 1555SOL     OW 4680   2.797   0.236   0.480
 1555SOL    HW1 4681   2.749   0.277   0.402
 1555SOL    HW2 4682   2.896   0.234   0.461
 1556SOL     OW 4683   2.938   0.683   1.464
 1556SOL    HW1 4684   2.858   0.622   1.467
 1556SOL    HW2 4685   3.019   0.630   1.440
 1557SOL     OW 4686   3.089   1.570   0.793
 1557SOL    HW1 4687   3.110   1.644   0.728
 1557SOL    HW2 4688   3.157   1.570   0.866
 1558SOL     OW 4689   2.321   1.152   0.741
 1558SOL    HW1 4690   2.250   1.125   0.806
 1558SOL    HW2 4691   2.295   1.124   0.648
 1559SOL     OW 4692   3.133   1.797   0.591
 1559SOL    HW1 4693   3.177   1.861   0.527
 1559SOL    HW2 4694   3.083   1.849   0.661
 1560SOL     OW 4695   2.894   0.549   0.016
 1560SOL    HW1 4696   2.853   0.631  -0.023
 1560SOL    HW2 4697   2.958   0.575   0.089
 1561SOL     OW 4698   1.940   0.556   1.386
 1561SOL    HW1 4699   2.032   0.555   1.345
 1561SOL    HW2 4700   1.934   0.630   1.453
 1562SOL     OW 4701   2.423   0.222   1.147
 1562SOL    HW1 4702   2.461   0.138   1.184
 1562SOL    HW2 4703   2.335   0.241   1.191
 1563SOL     OW 4704   2.728   0.454   0.642
 1563SOL    HW1 4705   2.696   0.526   0.580
 1563SOL    HW2 4706   2.752   0.373   0.589
 1564SOL     OW 4707   2.879   0.039   0.753
 1564SOL    HW1 4708   2.807   0.044   0.684
 1564SOL    HW2 4709   2.855  -0.030   0.822
 1565SOL     OW 4710   3.291   1.173   0.867
 1565SOL    HW1 4711   3.236   1.089   0.860
 1565SOL    HW2 4712   3.317   1.202   0.775
 1566SOL     OW 4713   3.328   0.590   0.992
 1566SOL    HW1 4714   3.298   0.495   0.999
 1566SOL    HW2 4715   3.401   0.606   1.058
 1567SOL     OW 4716   3.719   0.833   0.377
 1567SOL    HW1 4717   3.761   0.769   0.441
 1567SOL    HW2 4718   3.681   0.782   0.299
 1568SOL     OW 4719   2.350   1.385   0.174
 1568SOL    HW1 4720   2.263   1.370   0.221
 1568SOL    HW2 4721   2.333   1.411   0.079
 1569SOL     OW 4722   3.526   1.280   0.657
 1569SOL    HW1 4723   3.625   1.288   0.671
 1569SOL    HW2 4724   3.481   1.364   0.688
 1570SOL     OW 4725   3.252   0.575   0.078
 1570SOL    HW1 4726   3.198   0.554   0.159
 1570SOL    HW2 4727   3.343   0.534   0.087
 1571SOL     OW 4728   2.389   0.256   0.328
 1571SOL    HW1 4729   2.416   0.197   0.253
 1571SOL    HW2 4730   2.389   0.351   0.297
 1572SOL     OW 4731   3.616   1.223   1.588
 1572SOL    HW1 4732   3.707   1.184   1.575
 1572SOL    HW2 4733   3.624   1.319   1.612
 1573SOL     OW 4734   2.926   1.347   1.340
 1573SOL    HW1 4735   2.846   1.324   1.395
 1573SOL    HW2 4736   3.009   1.321   1.389
 1574SOL     OW 4737   3.454   1.629   1.625
 1574SOL    HW1 4738   3.481   1.663   1.535
 1574SOL    HW2 4739   3.533   1.591   1.671
 1575SOL     OW 4740   2.973   1.195   1.100
 1575SOL    HW1 4741   2.933   1.239   1.181
 1575SOL    HW2 4742   2.932   1.232   1.017
 1576SOL     OW 4743   3.500   1.099   1.079
 1576SOL    HW1 4744   3.505   1.180   1.138
 1576SOL    HW2 4745   3.414   1.101   1.028
 1577SOL     OW 4746   2.777   0.089   1.402
 1577SOL    HW1 4747   2.802   0.069   1.307
 1577SOL    HW2 4748   2.849   0.145   1.444
 1578SOL     OW 4749   2.842   1.116   1.719
 1578SOL    HW1 4750   2.743   1.122   1.729
 1578SOL    HW2 4751   2.865   1.036   1.663
 1579SOL     OW 4752   2.567   1.050   0.368
 1579SOL    HW1 4753   2.553   1.057   0.467
 1579SOL    HW2 4754   2.651   0.999   0.350
 1580SOL     OW 4755   2.272   0.813   1.251
 1580SOL    HW1 4756   2.358   0.825   1.301
 1580SOL    HW2 4757   2.230   0.726   1.278
 1581SOL     OW 4758   3.136   0.386   1.262
 1581SOL    HW1 4759   3.157   0.460   1.326
 1581SOL    HW2 4760   3.047   0.403   1.219
 1582SOL     OW 4761   1.926   1.564   1.331
 1582SOL    HW1 4762   1.880   1.646   1.297
 1582SOL    HW2 4763   2.024   1.583   1.340
 1583SOL     OW 4764   2.229   1.100   0.501
 1583SOL    HW1 4765   2.222   1.183   0.445
 1583SOL    HW2 4766   2.233   1.020   0.441
 1584SOL     OW 4767   2.428   0.537   0.865
 1584SOL    HW1 4768   2.440   0.603   0.791
 1584SOL    HW2 4769   2.474   0.571   0.948
 1585SOL     OW 4770   3.114   1.348   0.388
 1585SOL    HW1 4771   3.164   1.425   0.428
 1585SOL    HW2 4772   3.019   1.350   0.420
 1586SOL     OW 4773   3.134   1.445   1.142
 1586SOL    HW1 4774   3.181   1.458   1.229
 1586SOL    HW2 4775   3.068   1.371   1.151
 1587SOL     OW 4776   3.444   0.639   0.472
 1587SOL    HW1 4777   3.413   0.700   0.545
 1587SOL    HW2 4778   3.494   0.691   0.403
 1588SOL     OW 4779   2.216   1.510   1.329
 1588SOL    HW1 4780   2.195   1.466   1.242
 1588SOL    HW2 4781   2.313   1.536   1.332
 1589SOL     OW 4782   2.264   0.751   1.598
 1589SOL    HW1 4783   2.332   0.806   1.551
 1589SOL    HW2 4784   2.304   0.663   1.625
 1590SOL     OW 4785   3.449   0.779   1.670
 1590SOL    HW1 4786   3.357   0.817   1.665
 1590SOL    HW2 4787   3.509   0.826   1.605
 1591SOL     OW 4788   2.875   0.105   1.770
 1591SOL    HW1 4789   2.881   0.190   1.718
 1591SOL    HW2 4790   2.907   0.029   1.713
 1592SOL     OW 4791   2.366   0.050   1.740
 1592SOL    HW1 4792   2.324  -0.007   1.670
 1592SOL    HW2 4793   2.300   0.119   1.772
 1593SOL     OW 4794   2.435   0.870   1.029
 1593SOL    HW1 4795   2.479   0.959   1.020
 1593SOL    HW2 4796   2.372   0.870   1.106
 1594SOL     OW 4797   3.222   0.862   1.045
 1594SOL    HW1 4798   3.147   0.862   0.979
 1594SOL    HW2 4799   3.259   0.770   1.054
 1595SOL     OW 4800   3.071   0.525   0.275
 1595SOL    HW1 4801   3.084   0.441   0.329
 1595SOL    HW2 4802   3.042   0.599   0.335
 1596SOL     OW 4803   2.169   0.213   1.231
 1596SOL    HW1 4804   2.146   0.250   1.321
 1596SOL    HW2 4805   2.139   0.118   1.225
 1597SOL     OW 4806   1.899   1.310   1.282
 1597SOL    HW1 4807   1.952   1.261   1.350
 1597SOL    HW2 4808   1.921   1.408   1.287
 1598SOL     OW 4809   2.594   0.634   1.064
 1598SOL    HW1 4810   2.653   0.608   0.988
 1598SOL    HW2 4811   2.566   0.730   1.053
 1599SOL     OW 4812   3.590   0.935   1.854
 1599SOL    HW1 4813   3.544   0.928   1.765
 1599SOL    HW2 4814   3.528   0.979   1.920
 1600SOL     OW 4815   2.169   0.063   0.618
 1600SOL    HW1 4816   2.158   0.157   0.651
 1600SOL    HW2 4817   2.164   0.000   0.695
 1601SOL     OW 4818   3.484   0.367   0.374
 1601SOL    HW1 4819   3.486   0.291   0.438
 1601SOL    HW2 4820   3.436   0.444   0.414
 1602SOL     OW 4821   2.885   0.766   0.966
 1602SOL    HW1 4822   2.900   0.787   1.062
 1602SOL    HW2 4823   2.855   0.671   0.957
 1603SOL     OW 4824   2.842   1.573   1.700
 1603SOL    HW1 4825   2.822   1.617   1.612
 1603SOL    HW2 4826   2.881   1.482   1.684
 1604SOL     OW 4827   3.721   1.518   1.605
 1604SOL    HW1 4828   3.735   1.545   1.510
 1604SOL    HW2 4829   3.804   1.540   1.658
 1605SOL     OW 4830   2.212   0.898   1.804
 1605SOL    HW1 4831   2.288   0.942   1.852
 1605SOL    HW2 4832   2.247   0.851   1.722
 1606SOL     OW 4833   3.402   0.274   0.125
 1606SOL    HW1 4834   3.341   0.199   0.148
 1606SOL    HW2 4835   3.424   0.326   0.208
 1607SOL     OW 4836   3.165   0.838   0.042
 1607SOL    HW1 4837   3.199   0.745   0.057
 1607SOL    HW2 4838   3.183   0.865  -0.053
 1608SOL     OW 4839   2.930   1.333   0.849
 1608SOL    HW1 4840   2.937   1.249   0.794
 1608SOL    HW2 4841   2.992   1.402   0.813
 1609SOL     OW 4842   2.181   0.810   0.949
 1609SOL    HW1 4843   2.274   0.846   0.954
 1609SOL    HW2 4844   2.175   0.725   1.001
 1610SOL     OW 4845   2.201   0.509   1.006
 1610SOL    HW1 4846   2.149   0.426   0.989
 1610SOL    HW2 4847   2.278   0.514   0.942
 1611SOL     OW 4848   3.000   0.380   1.678
 1611SOL    HW1 4849   2.955   0.443   1.742
 1611SOL    HW2 4850   3.093   0.411   1.661
 1612SOL     OW 4851   3.022   0.207   1.477
 1612SOL    HW1 4852   3.022   0.271   1.554
 1612SOL    HW2 4853   3.050   0.255   1.394
 1613SOL     OW 4854   1.870   1.326   0.200
 1613SOL    HW1 4855   1.777   1.347   0.169
 1613SOL    HW2 4856   1.880   1.227   0.213
 1614SOL     OW 4857   1.950   1.801   0.927
 1614SOL    HW1 4858   1.908   1.715   0.900
 1614SOL    HW2 4859   2.044   1.804   0.893
 1615SOL     OW 4860   2.366   1.568   0.910
 1615SOL    HW1 4861   2.432   1.642   0.919
 1615SOL    HW2 4862   2.410   1.489   0.868
 1616SOL     OW 4863   2.864   0.796   1.238
 1616SOL    HW1 4864   2.905   0.764   1.324
 1616SOL    HW2 4865   2.768   0.769   1.235
 1617SOL     OW 4866   1.902   0.544   1.114
 1617SOL    HW1 4867   1.987   0.511   1.073
 1617SOL    HW2 4868   1.915   0.559   1.212
 1618SOL     OW 4869   2.051   0.520   1.722
 1618SOL    HW1 4870   2.110   0.480   1.652
 1618SOL    HW2 4871   1.993   0.591   1.681
 1619SOL     OW 4872   3.231   0.950   1.660
 1619SOL    HW1 4873   3.270   1.039   1.680
 1619SOL    HW2 4874   3.241   0.930   1.563
 1620SOL     OW 4875   2.677   0.572   0.325
 1620SOL    HW1 4876   2.684   0.483   0.279
 1620SOL    HW2 4877   2.583   0.606   0.317
 1621SOL     OW 4878   3.519   0.604   1.206
 1621SOL    HW1 4879   3.481   0.535   1.268
 1621SOL    HW2 4880   3.601   0.568   1.162
 1622SOL     OW 4881   2.114   1.564   1.744
 1622SOL    HW1 4882   2.084   1.621   1.820
 1622SOL    HW2 4883   2.107   1.467   1.770
 1623SOL     OW 4884   2.533   0.464   1.269
 1623SOL    HW1 4885   2.499   0.375   1.239
 1623SOL    HW2 4886   2.559   0.518   1.189
 1624SOL     OW 4887   2.792   1.678   1.465
 1624SOL    HW1 4888   2.768   1.660   1.370
 1624SOL    HW2 4889   2.822   1.772   1.475
 1625SOL     OW 4890   2.335   0.500   0.191
 1625SOL    HW1 4891   2.396   0.580   0.195
 1625SOL    HW2 4892   2.240   0.531   0.198
 1626SOL     OW 4893   2.021   1.137   1.466
 1626SOL    HW1 4894   2.043   1.076   1.542
 1626SOL    HW2 4895   2.031   1.088   1.380
 1627SOL     OW 4896   3.209   1.059   1.234
 1627SOL    HW1 4897   3.233   0.996   1.160
 1627SOL    HW2 4898   3.119   1.099   1.216
 1628SOL     OW 4899   3.164   0.855   0.309
 1628SOL    HW1 4900   3.078   0.824   0.351
 1628SOL    HW2 4901   3.160   0.841   0.210
 1629SOL     OW 4902   3.621   1.747   1.154
 1629SOL    HW1 4903   3.682   1.777   1.081
 1629SOL    HW2 4904   3.583   1.658   1.132
 1630SOL     OW 4905   3.114   1.731   1.128
 1630SOL    HW1 4906   3.198   1.736   1.074
 1630SOL    HW2 4907   3.091   1.635   1.146
 1631SOL     OW 4908   1.945   1.258   1.022
 1631SOL    HW1 4909   1.940   1.257   1.122
 1631SOL    HW2 4910   1.862   1.217   0.984
 1632SOL     OW 4911   2.550   1.662   1.716
 1632SOL    HW1 4912   2.494   1.743   1.725
 1632SOL    HW2 4913   2.602   1.666   1.630
 1633SOL     OW 4914   2.765   0.086   0.133
 1633SOL    HW1 4915   2.816   0.087   0.047
 1633SOL    HW2 4916   2.821   0.044   0.204
 1634SOL     OW 4917   3.588   0.135   0.523
 1634SOL    HW1 4918   3.661   0.118   0.456
 1634SOL    HW2 4919   3.557   0.048   0.561
 1635SOL     OW 4920   3.250   1.573   0.477
 1635SOL    HW1 4921   3.317   1.585   0.403
 1635SOL    HW2 4922   3.210   1.662   0.500
 1636SOL     OW 4923   1.992   1.794   1.851
 1636SOL    HW1 4924   1.951   1.720   1.904
 1636SOL    HW2 4925   2.056   1.845   1.909
 1637SOL     OW 4926   3.142   0.927   0.672
 1637SOL    HW1 4927   3.202   0.846   0.674
 1637SOL    HW2 4928   3.182   0.996   0.612
 1638SOL     OW 4929   2.692   1.273   1.422
 1638SOL    HW1 4930   2.687   1.306   1.517
 1638SOL    HW2 4931   2.606   1.292   1.376
 1639SOL     OW 4932   2.534   1.616   0.154
 1639SOL    HW1 4933   2.543   1.626   0.055
 1639SOL    HW2 4934   2.494   1.527   0.175
 1640SOL     OW 4935   3.512   1.720   1.394
 1640SOL    HW1 4936   3.565   1.730   1.310
 1640SOL    HW2 4937   3.485   1.810   1.428
 1641SOL     OW 4938   3.703   0.175   0.963
 1641SOL    HW1 4939   3.742   0.090   0.927
 1641SOL    HW2 4940   3.605   0.177   0.944
 1642SOL     OW 4941   2.125   0.326   0.720
 1642SOL    HW1 4942   2.046   0.377   0.686
 1642SOL    HW2 4943   2.116   0.311   0.818
 1643SOL     OW 4944   3.056   1.612   0.031
 1643SOL    HW1 4945   3.062   1.519   0.068
 1643SOL    HW2 4946   2.997   1.612  -0.049
 1644SOL     OW 4947   2.684   1.002   1.372
 1644SOL    HW1 4948   2.724   1.001   1.280
 1644SOL    HW2 4949   2.694   1.094   1.412
 1645SOL     OW 4950   2.778   0.910   0.291
 1645SOL    HW1 4951   2.841   0.948   0.223
 1645SOL    HW2 4952   2.818   0.827   0.330
 1646SOL     OW 4953   3.366   1.607   0.044
 1646SOL    HW1 4954   3.274   1.644   0.051
 1646SOL    HW2 4955   3.404   1.627  -0.046
 1647SOL     OW 4956   2.234   1.288   1.490
 1647SOL    HW1 4957   2.221   1.381   1.456
 1647SOL    HW2 4958   2.150   1.236   1.477
 1648SOL     OW 4959   3.476   1.292   1.289
 1648SOL    HW1 4960   3.536   1.295   1.369
 1648SOL    HW2 4961   3.401   1.356   1.302
 1649SOL     OW 4962   2.901   1.098   0.696
 1649SOL    HW1 4963   2.831   1.051   0.750
 1649SOL    HW2 4964   2.960   1.030   0.653
 1650SOL     OW 4965   2.876   0.236   0.971
 1650SOL    HW1 4966   2.868   0.200   0.878
 1650SOL    HW2 4967   2.874   0.160   1.036
 1651SOL     OW 4968   2.452   1.487   0.491
 1651SOL    HW1 4969   2.494   1.429   0.421
 1651SOL    HW2 4970   2.408   1.566   0.447
 1652SOL     OW 4971   3.571   0.385   1.381
 1652SOL    HW1 4972   3.644   0.454   1.385
 1652SOL    HW2 4973   3.599   0.310   1.322
 1653SOL     OW 4974   2.117   1.348   0.290
 1653SOL    HW1 4975   2.021   1.349   0.263
 1653SOL    HW2 4976   2.129   1.401   0.374
 1654SOL     OW 4977   1.967   1.013   1.726
 1654SOL    HW1 4978   1.890   0.980   1.780
 1654SOL    HW2 4979   2.052   0.983   1.768
 1655SOL     OW 4980   2.534   0.203   1.489
 1655SOL    HW1 4981   2.624   0.187   1.449
 1655SOL    HW2 4982   2.542   0.208   1.588
 1656SOL     OW 4983   3.302   0.856   1.398
 1656SOL    HW1 4984   3.245   0.908   1.335
 1656SOL    HW2 4985   3.398   0.868   1.374
 1657SOL     OW 4986   1.934   0.166   0.318
 1657SOL    HW1 4987   1.917   0.249   0.264
 1657SOL    HW2 4988   2.024   0.129   0.296
 1658SOL     OW 4989   3.045   1.335   0.119
 1658SOL    HW1 4990   2.946   1.324   0.121
 1658SOL    HW2 4991   3.079   1.350   0.212
 1659SOL     OW 4992   2.475   0.842   1.431
 1659SOL    HW1 4993   2.531   0.923   1.414
 1659SOL    HW2 4994   2.534   0.762   1.434
 1660SOL     OW 4995   3.355   1.767   0.959
 1660SOL    HW1 4996   3.388   1.831   0.890
 1660SOL    HW2 4997   3.421   1.761   1.034
 1661SOL     OW 4998   2.578   0.565   1.708
 1661SOL    HW1 4999   2.597   0.630   1.782
 1661SOL    HW2 5000   2.638   0.485   1.717
 1662SOL     OW 5001   3.312   1.220   1.633
 1662SOL    HW1 5002   3.303   1.210   1.732
 1662SOL    HW2 5003   3.408   1.213   1.607
 1663SOL     OW 5004   2.252   1.741   1.560
 1663SOL    HW1 5005   2.161   1.782   1.558
 1663SOL    HW2 5006   2.245   1.647   1.592
 1664SOL     OW 5007   3.536   0.883   1.254
 1664SOL    HW1 5008   3.509   0.794   1.217
 1664SOL    HW2 5009   3.537   0.951   1.181
 1665SOL     OW 5010   3.087   0.325   0.449
 1665SOL    HW1 5011   3.152   0.251   0.438
 1665SOL    HW2 5012   3.107   0.375   0.533
 1666SOL     OW 5013   2.456   0.745   0.652
 1666SOL    HW1 5014   2.506   0.830   0.633
 1666SOL    HW2 5015   2.368   0.747   0.604
 1667SOL     OW 5016   3.639   0.342   1.642
 1667SOL    HW1 5017   3.622   0.373   1.548
 1667SOL    HW2 5018   3.555   0.305   1.680
 1668SOL     OW 5019   3.592   0.934   1.517
 1668SOL    HW1 5020   3.630   1.025   1.532
 1668SOL    HW2 5021   3.584   0.917   1.418
 1669SOL     OW 5022   2.721   1.374   0.016
 1669SOL    HW1 5023   2.675   1.389   0.104
 1669SOL    HW2 5024   2.765   1.459  -0.014
 1670SOL     OW 5025   2.523   1.790   0.953
 1670SOL    HW1 5026   2.477   1.878   0.940
 1670SOL    HW2 5027   2.622   1.802   0.946
 1671SOL     OW 5028   2.721   0.956   0.861
 1671SOL    HW1 5029   2.775   0.887   0.909
 1671SOL    HW2 5030   2.689   1.025   0.927
 1672SOL     OW 5031   2.945   0.984   0.087
 1672SOL    HW1 5032   2.922   1.037   0.005
 1672SOL    HW2 5033   3.026   0.928   0.068
 1673SOL     OW 5034   3.723   1.569   0.851
 1673SOL    HW1 5035   3.652   1.557   0.781
 1673SOL    HW2 5036   3.724   1.490   0.911
 1674SOL     OW 5037   2.083   1.314   1.844
 1674SOL    HW1 5038   2.018   1.241   1.823
 1674SOL    HW2 5039   2.087   1.328   1.942
 1675SOL     OW 5040   1.941   1.240   0.653
 1675SOL    HW1 5041   1.940   1.193   0.741
 1675SOL    HW2 5042   2.023   1.212   0.602
 1676SOL     OW 5043   2.534   1.391   1.624
 1676SOL    HW1 5044   2.456   1.341   1.662
 1676SOL    HW2 5045   2.531   1.486   1.655
 1677SOL     OW 5046   3.686   0.192   1.227
 1677SOL    HW1 5047   3.682   0.102   1.271
 1677SOL    HW2 5048   3.689   0.181   1.128
 1678SOL     OW 5049   2.290   0.424   0.520
 1678SOL    HW1 5050   2.320   0.352   0.458
 1678SOL    HW2 5051   2.251   0.384   0.603
 1679SOL     OW 5052   3.567   1.487   1.104
 1679SOL    HW1 5053   3.474   1.462   1.077
 1679SOL    HW2 5054   3.593   1.437   1.186
 1680SOL     OW 5055   2.179   0.547   1.280
 1680SOL    HW1 5056   2.217   0.488   1.352
 1680SOL    HW2 5057   2.219   0.521   1.192
 1681SOL     OW 5058   2.674   1.586   0.687
 1681SOL    HW1 5059   2.706   1.596   0.593
 1681SOL    HW2 5060   2.595   1.524   0.689
 1682SOL     OW 5061   3.286   0.214   1.112
 1682SOL    HW1 5062   3.338   0.149   1.167
 1682SOL    HW2 5063   3.237   0.277   1.173
 1683SOL     OW 5064   2.863   0.034   1.154
 1683SOL    HW1 5065   2.800  -0.038   1.123
 1683SOL    HW2 5066   2.956  -0.002   1.154
 1684SOL     OW 5067   2.632   1.330   0.301
 1684SOL    HW1 5068   2.586   1.243   0.318
 1684SOL    HW2 5069   2.723   1.327   0.342
 1685SOL     OW 5070   2.480   1.567   1.284
 1685SOL    HW1 5071   2.475   1.649   1.341
 1685SOL    HW2 5072   2.569   1.564   1.239
 1686SOL     OW 5073   3.214   0.052   0.168
 1686SOL    HW1 5074   3.249   0.011   0.084
 1686SOL    HW2 5075   3.124   0.014   0.188
 1687SOL     OW 5076   3.162   0.453   0.691
 1687SOL    HW1 5077   3.103   0.533   0.695
 1687SOL    HW2 5078   3.177   0.418   0.784
 1688SOL     OW 5079   3.455   0.221   0.882
 1688SOL    HW1 5080   3.371   0.220   0.936
 1688SOL    HW2 5081   3.457   0.304   0.826
 1689SOL     OW 5082   1.901   1.077   0.300
 1689SOL    HW1 5083   2.000   1.066   0.291
 1689SOL    HW2 5084   1.861   0.991   0.332
 1690SOL     OW 5085   2.737   1.646   0.337
 1690SOL    HW1 5086   2.660   1.611   0.283
 1690SOL    HW2 5087   2.705   1.717   0.399
 1691SOL     OW 5088   2.092   0.628   1.975
 1691SOL    HW1 5089   1.999   0.626   2.012
 1691SOL    HW2 5090   2.093   0.589   1.883
 1692SOL     OW 5091   2.087   0.275   2.858
 1692SOL    HW1 5092   2.122   0.258   2.950
 1692SOL    HW2 5093   1.999   0.230   2.846
 1693SOL     OW 5094   1.881   0.368   2.509
 1693SOL    HW1 5095   1.799   0.411   2.548
 1693SOL    HW2 5096   1.853   0.295   2.446
 1694SOL     OW 5097   2.431   1.275   3.027
 1694SOL    HW1 5098   2.338   1.268   2.990
 1694SOL    HW2 5099   2.442   1.364   3.071
 1695SOL     OW 5100   3.417   1.511   2.565
 1695SOL    HW1 5101   3.360   1.495   2.646
 1695SOL    HW2 5102   3.358   1.521   2.485
 1696SOL     OW 5103   2.997   0.703   2.579
 1696SOL    HW1 5104   3.054   0.781   2.554
 1696SOL    HW2 5105   2.937   0.729   2.655
 1697SOL     OW 5106   3.617   0.607   2.093
 1697SOL    HW1 5107   3.605   0.594   1.994
 1697SOL    HW2 5108   3.587   0.526   2.142
 1698SOL     OW 5109   2.630   1.144   2.885
 1698SOL    HW1 5110   2.552   1.161   2.945
 1698SOL    HW2 5111   2.664   1.231   2.849
 1699SOL     OW 5112   2.712   0.798   3.685
 1699SOL    HW1 5113   2.708   0.874   3.750
 1699SOL    HW2 5114   2.734   0.834   3.594
 1700SOL     OW 5115   2.547   1.012   2.527
 1700SOL    HW1 5116   2.616   0.996   2.597
 1700SOL    HW2 5117   2.474   1.069   2.565
 1701SOL     OW 5118   2.548   1.161   3.665
 1701SOL    HW1 5119   2.608   1.240   3.679
 1701SOL    HW2 5120   2.462   1.192   3.624
 1702SOL     OW 5121   2.197   1.435   2.923
 1702SOL    HW1 5122   2.119   1.404   2.870
 1702SOL    HW2 5123   2.255   1.493   2.866
 1703SOL     OW 5124   3.322   1.505   3.201
 1703SOL    HW1 5125   3.346   1.599   3.227
 1703SOL    HW2 5126   3.306   1.451   3.283
 1704SOL     OW 5127   2.300   0.392   3.361
 1704SOL    HW1 5128   2.382   0.336   3.370
 1704SOL    HW2 5129   2.219   0.334   3.365
 1705SOL     OW 5130   3.465   0.447   2.599
 1705SOL    HW1 5131   3.391   0.493   2.549
 1705SOL    HW2 5132   3.516   0.515   2.652
 1706SOL     OW 5133   2.093   1.713   2.345
 1706SOL    HW1 5134   2.127   1.790   2.399
 1706SOL    HW2 5135   2.137   1.713   2.255
 1707SOL     OW 5136   2.989   1.341   3.552
 1707SOL    HW1 5137   3.036   1.341   3.640
 1707SOL    HW2 5138   2.941   1.254   3.541
 1708SOL     OW 5139   2.092   1.434   2.400
 1708SOL    HW1 5140   2.066   1.530   2.400
 1708SOL    HW2 5141   2.021   1.380   2.445
 1709SOL     OW 5142   2.102   1.091   2.748
 1709SOL    HW1 5143   2.116   1.007   2.800
 1709SOL    HW2 5144   2.047   1.155   2.803
 1710SOL     OW 5145   2.482   1.786   3.301
 1710SOL    HW1 5146   2.390   1.769   3.336
 1710SOL    HW2 5147   2.510   1.878   3.327
 1711SOL     OW 5148   2.468   0.964   1.985
 1711SOL    HW1 5149   2.475   1.048   1.931
 1711SOL    HW2 5150   2.514   0.977   2.073
 1712SOL     OW 5151   3.456   0.114   3.342
 1712SOL    HW1 5152   3.438   0.181   3.270
 1712SOL    HW2 5153   3.453   0.160   3.431
 1713SOL     OW 5154   1.984   0.643   2.425
 1713SOL    HW1 5155   1.939   0.555   2.442
 1713SOL    HW2 5156   1.983   0.697   2.509
 1714SOL     OW 5157   3.704   1.767   2.221
 1714SOL    HW1 5158   3.758   1.738   2.301
 1714SOL    HW2 5159   3.734   1.857   2.192
 1715SOL     OW 5160   1.889   1.596   1.979
 1715SOL    HW1 5161   1.870   1.500   2.000
 1715SOL    HW2 5162   1.856   1.654   2.054
 1716SOL     OW 5163   3.551   0.922   2.474
 1716SOL    HW1 5164   3.646   0.893   2.482
 1716SOL    HW2 5165   3.543   0.987   2.399
 1717SOL     OW 5166   3.503   1.108   2.294
 1717SOL    HW1 5167   3.589   1.110   2.242
 1717SOL    HW2 5168   3.517   1.155   2.382
 1718SOL     OW 5169   1.975   0.737   3.459
 1718SOL    HW1 5170   2.063   0.724   3.504
 1718SOL    HW2 5171   1.962   0.834   3.437
 1719SOL     OW 5172   2.475   1.365   2.588
 1719SOL    HW1 5173   2.426   1.278   2.597
 1719SOL    HW2 5174   2.452   1.408   2.501
 1720SOL     OW 5175   3.155   1.228   3.285
 1720SOL    HW1 5176   3.192   1.155   3.227
 1720SOL    HW2 5177   3.207   1.233   3.370
 1721SOL     OW 5178   2.671   0.004   2.364
 1721SOL    HW1 5179   2.711   0.095   2.355
 1721SOL    HW2 5180   2.571   0.012   2.370
 1722SOL     OW 5181   2.059   0.976   3.126
 1722SOL    HW1 5182   2.148   0.931   3.112
 1722SOL    HW2 5183   1.986   0.911   3.107
 1723SOL     OW 5184   3.387   0.999   2.052
 1723SOL    HW1 5185   3.324   0.923   2.065
 1723SOL    HW2 5186   3.435   1.017   2.138
 1724SOL     OW 5187   3.049   1.792   3.478
 1724SOL    HW1 5188   3.073   1.852   3.402
 1724SOL    HW2 5189   3.056   1.697   3.448
 1725SOL     OW 5190   2.179   0.251   3.663
 1725SOL    HW1 5191   2.250   0.322   3.669
 1725SOL    HW2 5192   2.091   0.290   3.691
 1726SOL     OW 5193   3.328   1.417   2.815
 1726SOL    HW1 5194   3.269   1.423   2.895
 1726SOL    HW2 5195   3.313   1.329   2.769
 1727SOL     OW 5196   3.529   1.714   2.434
 1727SOL    HW1 5197   3.488   1.691   2.346
 1727SOL    HW2 5198   3.511   1.640   2.499
 1728SOL     OW 5199   2.460   0.729   2.132
 1728SOL    HW1 5200   2.484   0.798   2.064
 1728SOL    HW2 5201   2.382   0.762   2.186
 1729SOL     OW 5202   3.143   0.345   2.806
 1729SOL    HW1 5203   3.057   0.295   2.793
 1729SOL    HW2 5204   3.205   0.291   2.862
 1730SOL     OW 5205   3.438   1.662   2.169
 1730SOL    HW1 5206   3.527   1.708   2.172
 1730SOL    HW2 5207   3.417   1.638   2.074
 1731SOL     OW 5208   2.669   0.605   3.327
 1731SOL    HW1 5209   2.622   0.602   3.416
 1731SOL    HW2 5210   2.618   0.550   3.261
 1732SOL     OW 5211   3.256   0.469   3.536
 1732SOL    HW1 5212   3.236   0.512   3.624
 1732SOL    HW2 5213   3.334   0.407   3.545
 1733SOL     OW 5214   2.835   0.890   3.434
 1733SOL    HW1 5215   2.881   0.806   3.405
 1733SOL    HW2 5216   2.779   0.924   3.359
 1734SOL     OW 5217   2.853   0.410   3.104
 1734SOL    HW1 5218   2.776   0.444   3.158
 1734SOL    HW2 5219   2.819   0.359   3.025
 1735SOL     OW 5220   2.903   0.701   2.291
 1735SOL    HW1 5221   2.929   0.697   2.387
 1735SOL    HW2 5222   2.818   0.650   2.277
 1736SOL     OW 5223   1.938   0.811   2.651
 1736SOL    HW1 5224   2.037   0.799   2.660
 1736SOL    HW2 5225   1.914   0.906   2.672
 1737SOL     OW 5226   1.992   1.821   3.433
 1737SOL    HW1 5227   1.982   1.806   3.532
 1737SOL    HW2 5228   1.906   1.857   3.397
 1738SOL     OW 5229   2.727   0.348   2.057
 1738SOL    HW1 5230   2.786   0.411   2.008
 1738SOL    HW2 5231   2.746   0.254   2.028
 1739SOL     OW 5232   3.581   0.585   3.693
 1739SOL    HW1 5233   3.555   0.674   3.657
 1739SOL    HW2 5234   3.579   0.517   3.620
 1740SOL     OW 5235   3.224   1.144   2.407
 1740SOL    HW1 5236   3.307   1.115   2.359
 1740SOL    HW2 5237   3.175   1.211   2.351
 1741SOL     OW 5238   2.412   0.196   2.747
 1741SOL    HW1 5239   2.407   0.191   2.847
 1741SOL    HW2 5240   2.414   0.292   2.718
 1742SOL     OW 5241   2.870   1.456   2.339
 1742SOL    HW1 5242   2.824   1.528   2.287
 1742SOL    HW2 5243   2.866   1.476   2.437
 1743SOL     OW 5244   2.213   1.801   2.715
 1743SOL    HW1 5245   2.263   1.715   2.721
 1743SOL    HW2 5246   2.278   1.878   2.712
 1744SOL     OW 5247   3.657   1.066   2.735
 1744SOL    HW1 5248   3.595   1.051   2.659
 1744SOL    HW2 5249   3.605   1.077   2.820
 1745SOL     OW 5250   3.089   1.550   3.368
 1745SOL    HW1 5251   3.095   1.473   3.432
 1745SOL    HW2 5252   3.037   1.524   3.288
 1746SOL     OW 5253   2.183   0.943   2.104
 1746SOL    HW1 5254   2.265   0.982   2.062
 1746SOL    HW2 5255   2.156   0.861   2.055
 1747SOL     OW 5256   3.320   0.735   2.590
 1747SOL    HW1 5257   3.315   0.670   2.665
 1747SOL    HW2 5258   3.400   0.794   2.603
 1748SOL     OW 5259   2.323   1.266   3.589
 1748SOL    HW1 5260   2.273   1.267   3.503
 1748SOL    HW2 5261   2.260   1.248   3.665
 1749SOL     OW 5262   2.973   1.776   2.099
 1749SOL    HW1 5263   2.913   1.714   2.149
 1749SOL    HW2 5264   3.004   1.732   2.014
 1750SOL     OW 5265   2.064   0.285   3.360
 1750SOL    HW1 5266   1.984   0.345   3.347
 1750SOL    HW2 5267   2.054   0.236   3.446
 1751SOL     OW 5268   3.494   1.377   1.943
 1751SOL    HW1 5269   3.462   1.471   1.933
 1751SOL    HW2 5270   3.418   1.314   1.931
 1752SOL     OW 5271   2.326   1.743   2.185
 1752SOL    HW1 5272   2.359   1.782   2.271
 1752SOL    HW2 5273   2.402   1.736   2.120
 1753SOL     OW 5274   3.262   0.107   2.288
 1753SOL    HW1 5275   3.238   0.070   2.198
 1753SOL    HW2 5276   3.361   0.123   2.292
 1754SOL     OW 5277   2.111   1.785   3.103
 1754SOL    HW1 5278   2.168   1.720   3.153
 1754SOL    HW2 5279   2.095   1.752   3.010
 1755SOL     OW 5280   2.802   1.698   2.766
 1755SOL    HW1 5281   2.882   1.641   2.787
 1755SOL    HW2 5282   2.753   1.658   2.689
 1756SOL     OW 5283   2.244   0.700   2.342
 1756SOL    HW1 5284   2.289   0.610   2.339
 1756SOL    HW2 5285   2.150   0.689   2.375
 1757SOL     OW 5286   3.409   0.222   3.591
 1757SOL    HW1 5287   3.404   0.259   3.683
 1757SOL    HW2 5288   3.337   0.153   3.579
 1758SOL     OW 5289   2.476   0.122   1.979
 1758SOL    HW1 5290   2.574   0.100   1.986
 1758SOL    HW2 5291   2.445   0.105   1.886
 1759SOL     OW 5292   2.643   0.264   3.611
 1759SOL    HW1 5293   2.710   0.203   3.654
 1759SOL    HW2 5294   2.570   0.283   3.676
 1760SOL     OW 5295   2.750   1.514   3.057
 1760SOL    HW1 5296   2.727   1.489   2.963
 1760SOL    HW2 5297   2.811   1.445   3.096
 1761SOL     OW 5298   3.213   0.590   3.295
 1761SOL    HW1 5299   3.241   0.547   3.380
 1761SOL    HW2 5300   3.238   0.686   3.296
 1762SOL     OW 5301   2.665   1.402   2.786
 1762SOL    HW1 5302   2.755   1.416   2.744
 1762SOL    HW2 5303   2.594   1.404   2.715
 1763SOL     OW 5304   2.784   0.503   2.761
 1763SOL    HW1 5305   2.759   0.494   2.665
 1763SOL    HW2 5306   2.832   0.421   2.792
 1764SOL     OW 5307   2.401   0.064   2.374
 1764SOL    HW1 5308   2.320   0.065   2.432
 1764SOL    HW2 5309   2.404   0.147   2.319
 1765SOL     OW 5310   3.296   1.188   1.903
 1765SOL    HW1 5311   3.328   1.112   1.960
 1765SOL    HW2 5312   3.204   1.215   1.933
 1766SOL     OW 5313   2.159   0.035   2.033
 1766SOL    HW1 5314   2.208   0.119   2.012
 1766SOL    HW2 5315   2.221  -0.030   2.078
 1767SOL     OW 5316   2.797   0.236   2.342
 1767SOL    HW1 5317   2.749   0.277   2.264
 1767SOL    HW2 5318   2.896   0.234   2.323
 1768SOL     OW 5319   2.938   0.683   3.326
 1768SOL    HW1 5320   2.858   0.622   3.329
 1768SOL    HW2 5321   3.019   0.630   3.302
 1769SOL     OW 5322   3.089   1.570   2.655
 1769SOL    HW1 5323   3.110   1.644   2.590
 1769SOL    HW2 5324   3.157   1.570   2.728
 1770SOL     OW 5325   2.321   1.152   2.603
 1770SOL    HW1 5326   2.250   1.125   2.668
 1770SOL    HW2 5327   2.295   1.124   2.510
 1771SOL     OW 5328   3.133   1.797   2.453
 1771SOL    HW1 5329   3.177   1.861   2.389
 1771SOL    HW2 5330   3.083   1.849   2.523
 1772SOL     OW 5331   2.894   0.549   1.878
 1772SOL    HW1 5332   2.853   0.631   1.839
 1772SOL    HW2 5333   2.958   0.575   1.951
 1773SOL     OW 5334   1.940   0.556   3.248
 1773SOL    HW1 5335   2.032   0.555   3.207
 1773SOL    HW2 5336   1.934   0.630   3.315
 1774SOL     OW 5337   2.423   0.222   3.009
 1774SOL    HW1 5338   2.461   0.138   3.046
 1774SOL    HW2 5339   2.335   0.241   3.053
 1775SOL     OW 5340   2.728   0.454   2.504
 1775SOL    HW1 5341   2.696   0.526   2.442
 1775SOL    HW2 5342   2.752   0.373   2.451
 1776SOL     OW 5343   2.879   0.039   2.615
 1776SOL    HW1 5344   2.807   0.044   2.546
 1776SOL    HW2 5345   2.855  -0.030   2.684
 1777SOL     OW 5346   3.291   1.173   2.729
 1777SOL    HW1 5347   3.236   1.089   2.722
 1777SOL    HW2 5348   3.317   1.202   2.637
 1778SOL     OW 5349   3.328   0.590   2.854
 1778SOL    HW1 5350   3.298   0.495   2.861
 1778SOL    HW2 5351   3.401   0.606   2.920
 1779SOL     OW 5352   3.719   0.833   2.239
 1779SOL    HW1 5353   3.761   0.769   2.303
 1779SOL    HW2 5354   3.681   0.782   2.161
 1780SOL     OW 5355   2.350   1.385   2.036
 1780SOL    HW1 5356   2.263   1.370   2.083
 1780SOL    HW2 5357   2.333   1.411   1.941
 1781SOL     OW 5358   3.526   1.280   2.519
 1781SOL    HW1 5359   3.625   1.288   2.533
 1781SOL    HW2 5360   3.481   1.364   2.550
 1782SOL     OW 5361   3.252   0.575   1.940
 1782SOL    HW1 5362   3.198   0.554   2.021
 1782SOL    HW2 5363   3.343   0.534   1.949
 1783SOL     OW 5364   2.389   0.256   2.190
 1783SOL    HW1 5365   2.416   0.197   2.115
 1783SOL    HW2 5366   2.389   0.351   2.159
 1784SOL     OW 5367   3.616   1.223   3.450
 1784SOL    HW1 5368   3.707   1.184   3.437
 1784SOL    HW2 5369   3.624   1.319   3.474
 1785SOL     OW 5370   2.926   1.347   3.202
 1785SOL    HW1 5371   2.846   1.324   3.257
 1785SOL    HW2 5372   3.009   1.321   3.251
 1786SOL     OW 5373   3.454   1.629   3.487
 1786SOL    HW1 5374   3.481   1.663   3.397
 1786SOL    HW2 5375   3.533   1.591   3.533
 1787SOL     OW 5376   2.973   1.195   2.962
 1787SOL    HW1 5377   2.933   1.239   3.043
 1787SOL    HW2 5378   2.932   1.232   2.879
 1788SOL     OW 5379   3.500   1.099   2.941
 1788SOL    HW1 5380   3.505   1.180   3.000
 1788SOL    HW2 5381   3.414   1.101   2.890
 1789SOL     OW 5382   2.777   0.089   3.264
 1789SOL    HW1 5383   2.802   0.069   3.169
 1789SOL    HW2 5384   2.849   0.145   3.306
 1790SOL     OW 5385   2.842   1.116   3.581
 1790SOL    HW1 5386   2.743   1.122   3.591
 1790SOL    HW2 5387   2.865   1.036   3.525
 1791SOL     OW 5388   2.567   1.050   2.230
 1791SOL    HW1 5389   2.553   1.057   2.329
 1791SOL    HW2 5390   2.651   0.999   2.212
 1792SOL     OW 5391   2.272   0.813   3.113
 1792SOL    HW1 5392   2.358   0.825   3.163
 1792SOL    HW2 5393   2.230   0.726   3.140
 1793SOL     OW 5394   3.136   0.386   3.124
 1793SOL    HW1 5395   3.157   0.460   3.188
 1793SOL    HW2 5396   3.047   0.403   3.081
 1794SOL     OW 5397   1.926   1.564   3.193
 1794SOL    HW1 5398   1.880   1.646   3.159
 1794SOL    HW2 5399   2.024   1.583   3.202
 1795SOL     OW 5400   2.229   1.100   2.363
 1795SOL    HW1 5401   2.222   1.183   2.307
 1795SOL    HW2 5402   2.233   1.020   2.303
 1796SOL     OW 5403   2.428   0.537   2.727
 1796SOL    HW1 5404   2.440   0.603   2.653
 1796SOL    HW2 5405   2.474   0.571   2.810
 1797SOL     OW 5406   3.114   1.348   2.250
 1797SOL    HW1 5407   3.164   1.425   2.290
 1797SOL    HW2 5408   3.019   1.350   2.282
 1798SOL     OW 5409   3.134   1.445   3.004
 1798SOL    HW1 5410   3.181   1.458   3.091
 1798SOL    HW2 5411   3.068   1.371   3.013
 1799SOL     OW 5412   3.444   0.639   2.334
 1799SOL    HW1 5413   3.413   0.700   2.407
 1799SOL    HW2 5414   3.494   0.691   2.265
 1800SOL     OW 5415   2.216   1.510   3.191
 1800SOL    HW1 5416   2.195   1.466   3.104
 1800SOL    HW2 5417   2.313   1.536   3.194
 1801SOL     OW 5418   2.264   0.751   3.460
 1801SOL    HW1 5419   2.332   0.806   3.413
 1801SOL    HW2 5420   2.304   0.663   3.487
 1802SOL     OW 5421   3.449   0.779   3.532
 1802SOL    HW1 5422   3.357   0.817   3.527
 1802SOL    HW2 5423   3.509   0.826   3.467
 1803SOL     OW 5424   2.875   0.105   3.632
 1803SOL    HW1 5425   2.881   0.190   3.580
 1803SOL    HW2 5426   2.907   0.029   3.575
 1804SOL     OW 5427   2.366   0.050   3.602
 1804SOL    HW1 5428   2.324  -0.007   3.532
 1804SOL    HW2 5429   2.300   0.119   3.634
 1805SOL     OW 5430   2.435   0.870   2.891
 1805SOL    HW1 5431   2.479   0.959   2.882
 1805SOL    HW2 5432   2.372   0.870   2.968
 1806SOL     OW 5433   3.222   0.862   2.907
 1806SOL    HW1 5434   3.147   0.862   2.841
 1806SOL    HW2 5435   3.259   0.770   2.916
 1807SOL     OW 5436   3.071   0.525   2.137
 1807SOL    HW1 5437   3.084   0.441   2.191
 1807SOL    HW2 5438   3.042   0.599   2.197
 1808SOL     OW 5439   2.169   0.213   3.093
 1808SOL    HW1 5440   2.146   0.250   3.183
 1808SOL    HW2 5441   2.139   0.118   3.087
 1809SOL     OW 5442   1.899   1.310   3.144
 1809SOL    HW1 5443   1.952   1.261   3.212
 1809SOL    HW2 5444   1.921   1.408   3.149
 1810SOL     OW 5445   2.594   0.634   2.926
 1810SOL    HW1 5446   2.653   0.608   2.850
 1810SOL    HW2 5447   2.566   0.730   2.915
 1811SOL     OW 5448   3.590   0.935   3.716
 1811SOL    HW1 5449   3.544   0.928   3.627
 1811SOL    HW2 5450   3.528   0.979   3.782
 1812SOL     OW 5451   2.169   0.063   2.480
 1812SOL    HW1 5452   2.158   0.157   2.513
 1812SOL    HW2 5453   2.164   0.000   2.557
 1813SOL     OW 5454   3.484   0.367   2.236
 1813SOL    HW1 5455   3.486   0.291   2.300
 1813SOL    HW2 5456   3.436   0.444   2.276
 1814SOL     OW 5457   2.885   0.766   2.828
 1814SOL    HW1 5458   2.900   0.787   2.924
 1814SOL    HW2 5459   2.855   0.671   2.819
 1815SOL     OW 5460   2.842   1.573   3.562
 1815SOL    HW1 5461   2.822   1.617   3.474
 1815SOL    HW2 5462   2.881   1.482   3.546
 1816SOL     OW 5463   3.721   1.518   3.467
 1816SOL    HW1 5464   3.735   1.545   3.372
 1816SOL    HW2 5465   3.804   1.540   3.520
 1817SOL     OW 5466   2.212   0.898   3.666
 1817SOL    HW1 5467   2.288   0.942   3.714
 1817SOL    HW2 5468   2.247   0.851   3.584
 1818SOL     OW 5469   3.402   0.274   1.987
 1818SOL    HW1 5470   3.341   0.199   2.010
 1818SOL    HW2 5471   3.424   0.326   2.070
 1819SOL     OW 5472   3.165   0.838   1.904
 1819SOL    HW1 5473   3.199   0.745   1.919
 1819SOL    HW2 5474   3.183   0.865   1.809
 1820SOL     OW 5475   2.930   1.333   2.711
 1820SOL    HW1 5476   2.937   1.249   2.656
 1820SOL    HW2 5477   2.992   1.402   2.675
 1821SOL     OW 5478   2.181   0.810   2.811
 1821SOL    HW1 5479   2.274   0.846   2.816
 1821SOL    HW2 5480   2.175   0.725   2.863
 1822SOL     OW 5481   2.201   0.509   2.868
 1822SOL    HW1 5482   2.149   0.426   2.851
 1822SOL    HW2 5483   2.278   0.514   2.804
 1823SOL     OW 5484   3.000   0.380   3.540
 1823SOL    HW1 5485   2.955   0.443   3.604
 1823SOL    HW2 5486   3.093   0.411   3.523
 1824SOL     OW 5487   3.022   0.207   3.339
 1824SOL    HW1 5488   3.022   0.271   3.416
 1824SOL    HW2 5489   3.050   0.255   3.256
 1825SOL     OW 5490   1.870   1.326   2.062
 1825SOL    HW1 5491   1.777   1.347   2.031
 1825SOL    HW2 5492   1.880   1.227   2.075
 1826SOL     OW 5493   1.950   1.801   2.789
 1826SOL    HW1 5494   1.908   1.715   2.762
 1826SOL    HW2 5495   2.044   1.804   2.755
 1827SOL     OW 5496   2.366   1.568   2.772
 1827SOL    HW1 5497   2.432   1.642   2.781
 1827SOL    HW2 5498   2.410   1.489   2.730
 1828SOL     OW 5499   2.864   0.796   3.100
 1828SOL    HW1 5500   2.905   0.764   3.186
 1828SOL    HW2 5501   2.768   0.769   3.097
 1829SOL     OW 5502   1.902   0.544   2.976
 1829SOL    HW1 5503   1.987   0.511   2.935
 1829SOL    HW2 5504   1.915   0.559   3.074
 1830SOL     OW 5505   2.051   0.520   3.584
 1830SOL    HW1 5506   2.110   0.480   3.514
 1830SOL    HW2 5507   1.993   0.591   3.543
 1831SOL     OW 5508   3.231   0.950   3.522
 1831SOL    HW1 5509   3.270   1.039   3.542
 1831SOL    HW2 5510   3.241   0.930   3.425
 1832SOL     OW 5511   2.677   0.572   2.187
 1832SOL    HW1 5512   2.684   0.483   2.141
 1832SOL    HW2 5513   2.583   0.606   2.179
 1833SOL     OW 5514   3.519   0.604   3.068
 1833SOL    HW1 5515   3.481   0.535   3.130
 1833SOL    HW2 5516   3.601   0.568   3.024
 1834SOL     OW 5517   2.114   1.564   3.606
 1834SOL    HW1 5518   2.084   1.621   3.682
 1834SOL    HW2 5519   2.107   1.467   3.632
 1835SOL     OW 5520   2.533   0.464   3.131
 1835SOL    HW1 5521   2.499   0.375   3.101
 1835SOL    HW2 5522   2.559   0.518   3.051
 1836SOL     OW 5523   2.792   1.678   3.327
 1836SOL    HW1 5524   2.768   1.660   3.232
 1836SOL    HW2 5525   2.822   1.772   3.337
 1837SOL     OW 5526   2.335   0.500   2.053
 1837SOL    HW1 5527   2.396   0.580   2.057
 1837SOL    HW2 5528   2.240   0.531   2.060
 1838SOL     OW 5529   2.021   1.137   3.328
 1838SOL    HW1 5530   2.043   1.076   3.404
 1838SOL    HW2 5531   2.031   1.088   3.242
 1839SOL     OW 5532   3.209   1.059   3.096
 1839SOL    HW1 5533   3.233   0.996   3.022
 1839SOL    HW2 5534   3.119   1.099   3.078
 1840SOL     OW 5535   3.164   0.855   2.171
 1840SOL    HW1 5536   3.078   0.824   2.213
 1840SOL    HW2 5537   3.160   0.841   2.072
 1841SOL     OW 5538   3.621   1.747   3.016
 1841SOL    HW1 5539   3.682   1.777   2.943
 1841SOL    HW2 5540   3.583   1.658   2.994
 1842SOL     OW 5541   3.114   1.731   2.990
 1842SOL    HW1 5542   3.198   1.736   2.936
 1842SOL    HW2 5543   3.091   1.635   3.008
 1843SOL     OW 5544   1.945   1.258   2.884
 1843SOL    HW1 5545   1.940   1.257   2.984
 1843SOL    HW2 5546   1.862   1.217   2.846
 1844SOL     OW 5547   2.550   1.662   3.578
 1844SOL    HW1 5548   2.494   1.743   3.587
 1844SOL    HW2 5549   2.602   1.666   3.492
 1845SOL     OW 5550   3.588   0.135   2.385
 1845SOL    HW1 5551   3.661   0.118   2.318
 1845SOL    HW2 5552   3.557   0.048   2.423
 1846SOL     OW 5553   3.250   1.573   2.339
 1846SOL    HW1 5554   3.317   1.585   2.265
 1846SOL    HW2 5555   3.210   1.662   2.362
 1847SOL     OW 5556   1.992   1.794   3.713
 1847SOL    HW1 5557   1.951   1.720   3.766
 1847SOL    HW2 5558   2.056   1.845   3.771
 1848SOL     OW 5559   3.142   0.927   2.534
 1848SOL    HW1 5560   3.202   0.846   2.536
 1848SOL    HW2 5561   3.182   0.996   2.474
 1849SOL     OW 5562   2.692   1.273   3.284
 1849SOL    HW1 5563   2.687   1.306   3.379
 1849SOL    HW2 5564   2.606   1.292   3.238
 1850SOL     OW 5565   2.534   1.616   2.016
 1850SOL    HW1 5566   2.543   1.626   1.917
 1850SOL    HW2 5567   2.494   1.527   2.037
 1851SOL     OW 5568   3.512   1.720   3.256
 1851SOL    HW1 5569   3.565   1.730   3.172
 1851SOL    HW2 5570   3.485   1.810   3.290
 1852SOL     OW 5571   3.703   0.175   2.825
 1852SOL    HW1 5572   3.742   0.090   2.789
 1852SOL    HW2 5573   3.605   0.177   2.806
 1853SOL     OW 5574   2.125   0.326   2.582
 1853SOL    HW1 5575   2.046   0.377   2.548
 1853SOL    HW2 5576   2.116   0.311   2.680
 1854SOL     OW 5577   3.056   1.612   1.893
 1854SOL    HW1 5578   3.062   1.519   1.930
 1854SOL    HW2 5579   2.997   1.612   1.813
 1855SOL     OW 5580   2.684   1.002   3.234
 1855SOL    HW1 5581   2.724   1.001   3.142
 1855SOL    HW2 5582   2.694   1.094   3.274
 1856SOL     OW 5583   2.778   0.910   2.153
 1856SOL    HW1 5584   2.841   0.948   2.085
 1856SOL    HW2 5585   2.818   0.827   2.192
 1857SOL     OW 5586   3.366   1.607   1.906
 1857SOL    HW1 5587   3.274   1.644   1.913
 1857SOL    HW2 5588   3.404   1.627   1.816
 1858SOL     OW 5589   2.234   1.288   3.352
 1858SOL    HW1 5590   2.221   1.381   3.318
 1858SOL    HW2 5591   2.150   1.236   3.339
 1859SOL     OW 5592   3.476   1.292   3.151
 1859SOL    HW1 5593   3.536   1.295   3.231
 1859SOL    HW2 5594   3.401   1.356   3.164
 1860SOL     OW 5595   2.901   1.098   2.558
 1860SOL    HW1 5596   2.831   1.051   2.612
 1860SOL    HW2 5597   2.960   1.030   2.515
 1861SOL     OW 5598   2.876   0.236   2.833
 1861SOL    HW1 5599   2.868   0.200   2.740
 1861SOL    HW2 5600   2.874   0.160   2.898
 1862SOL     OW 5601   2.452   1.487   2.353
 1862SOL    HW1 5602   2.494   1.429   2.283
 1862SOL    HW2 5603   2.408   1.566   2.309
 1863SOL     OW 5604   3.571   0.385   3.243
 1863SOL    HW1 5605   3.644   0.454   3.247
 1863SOL    HW2 5606   3.599   0.310   3.184
 1864SOL     OW 5607   2.117   1.348   2.152
 1864SOL    HW1 5608   2.021   1.349   2.125
 1864SOL    HW2 5609   2.129   1.401   2.236
 1865SOL     OW 5610   1.967   1.013   3.588
 1865SOL    HW1 5611   1.890   0.980   3.642
 1865SOL    HW2 5612   2.052   0.983   3.630
 1866SOL     OW 5613   2.534   0.203   3.351
 1866SOL    HW1 5614   2.624   0.187   3.311
 1866SOL    HW2 5615   2.542   0.208   3.450
 1867SOL     OW 5616   1.937   0.345   1.895
 1867SOL    HW1 5617   1.845   0.317   1.866
 1867SOL    HW2 5618   1.968   0.422   1.839
 1868SOL     OW 5619   3.302   0.856   3.260
 1868SOL    HW1 5620   3.245   0.908   3.197
 1868SOL    HW2 5621   3.398   0.868   3.236
 1869SOL     OW 5622   1.934   0.166   2.180
 1869SOL    HW1 5623   1.917   0.249   2.126
 1869SOL    HW2 5624   2.024   0.129   2.158
 1870SOL     OW 5625   3.045   1.335   1.981
 1870SOL    HW1 5626   2.946   1.324   1.983
 1870SOL    HW2 5627   3.079   1.350   2.074
 1871SOL     OW 5628   2.475   0.842   3.293
 1871SOL    HW1 5629   2.531   0.923   3.276
 1871SOL    HW2 5630   2.534   0.762   3.296
 1872SOL     OW 5631   3.355   1.767   2.821
 1872SOL    HW1 5632   3.388   1.831   2.752
 1872SOL    HW2 5633   3.421   1.761   2.896
 1873SOL     OW 5634   2.578   0.565   3.570
 1873SOL    HW1 5635   2.597   0.630   3.644
 1873SOL    HW2 5636   2.638   0.485   3.579
 1874SOL     OW 5637   3.312   1.220   3.495
 1874SOL    HW1 5638   3.303   1.210   3.594
 1874SOL    HW2 5639   3.408   1.213   3.469
 1875SOL     OW 5640   2.252   1.741   3.422
 1875SOL    HW1 5641   2.161   1.782   3.420
 1875SOL    HW2 5642   2.245   1.647   3.454
 1876SOL     OW 5643   3.536   0.883   3.116
 1876SOL    HW1 5644   3.509   0.794   3.079
 1876SOL    HW2 5645   3.537   0.951   3.043
 1877SOL     OW 5646   3.087   0.325   2.311
 1877SOL    HW1 5647   3.152   0.251   2.300
 1877SOL    HW2 5648   3.107   0.375   2.395
 1878SOL     OW 5649   2.456   0.745   2.514
 1878SOL    HW1 5650   2.506   0.830   2.495
 1878SOL    HW2 5651   2.368   0.747   2.466
 1879SOL     OW 5652   3.639   0.342   3.504
 1879SOL    HW1 5653   3.622   0.373   3.410
 1879SOL    HW2 5654   3.555   0.305   3.542
 1880SOL     OW 5655   3.592   0.934   3.379
 1880SOL    HW1 5656   3.630   1.025   3.394
 1880SOL    HW2 5657   3.584   0.917   3.280
 1881SOL     OW 5658   2.721   1.374   1.878
 1881SOL    HW1 5659   2.675   1.389   1.966
 1881SOL    HW2 5660   2.765   1.459   1.848
 1882SOL     OW 5661   2.523   1.790   2.815
 1882SOL    HW1 5662   2.477   1.878   2.802
 1882SOL    HW2 5663   2.622   1.802   2.808
 1883SOL     OW 5664   2.721   0.956   2.723
 1883SOL    HW1 5665   2.775   0.887   2.771
 1883SOL    HW2 5666   2.689   1.025   2.789
 1884SOL     OW 5667   2.945   0.984   1.949
 1884SOL    HW1 5668   2.922   1.037   1.867
 1884SOL    HW2 5669   3.026   0.928   1.930
 1885SOL     OW 5670   3.723   1.569   2.713
 1885SOL    HW1 5671   3.652   1.557   2.643
 1885SOL    HW2 5672   3.724   1.490   2.773
 1886SOL     OW 5673   2.083   1.314   3.706
 1886SOL    HW1 5674   2.018   1.241   3.685
 1886SOL    HW2 5675   2.087   1.328   3.804
 1887SOL     OW 5676   1.941   1.240   2.515
 1887SOL    HW1 5677   1.940   1.193   2.603
 1887SOL    HW2 5678   2.023   1.212   2.464
 1888SOL     OW 5679   2.534   1.391   3.486
 1888SOL    HW1 5680   2.456   1.341   3.524
 1888SOL    HW2 5681   2.531   1.486   3.517
 1889SOL     OW 5682   3.686   0.192   3.089
 1889SOL    HW1 5683   3.682   0.102   3.133
 1889SOL    HW2 5684   3.689   0.181   2.990
 1890SOL     OW 5685   2.290   0.424   2.382
 1890SOL    HW1 5686   2.320   0.352   2.320
 1890SOL    HW2 5687   2.251   0.384   2.465
 1891SOL     OW 5688   3.567   1.487   2.966
 1891SOL    HW1 5689   3.474   1.462   2.939
 1891SOL    HW2 5690   3.593   1.437   3.048
 1892SOL     OW 5691   2.179   0.547   3.142
 1892SOL    HW1 5692   2.217   0.488   3.214
 1892SOL    HW2 5693   2.219   0.521   3.054
 1893SOL     OW 5694   2.674   1.586   2.549
 1893SOL    HW1 5695   2.706   1.596   2.455
 1893SOL    HW2 5696   2.595   1.524   2.551
 1894SOL     OW 5697   3.286   0.214   2.974
 1894SOL    HW1 5698   3.338   0.149   3.029
 1894SOL    HW2 5699   3.237   0.277   3.035
 1895SOL     OW 5700   2.863   0.034   3.016
 1895SOL    HW1 5701   2.800  -0.038   2.985
 1895SOL    HW2 5702   2.956  -0.002   3.016
 1896SOL     OW 5703   2.632   1.330   2.163
 1896SOL    HW1 5704   2.586   1.243   2.180
 1896SOL    HW2 5705   2.723   1.327   2.204
 1897SOL     OW 5706   2.480   1.567   3.146
 1897SOL    HW1 5707   2.475   1.649   3.203
 1897SOL    HW2 5708   2.569   1.564   3.101
 1898SOL     OW 5709   3.214   0.052   2.030
 1898SOL    HW1 5710   3.249   0.011   1.946
 1898SOL    HW2 5711   3.124   0.014   2.050
 1899SOL     OW 5712   3.162   0.453   2.553
 1899SOL    HW1 5713   3.103   0.533   2.557
 1899SOL    HW2 5714   3.177   0.418   2.646
 1900SOL     OW 5715   3.455   0.221   2.744
 1900SOL    HW1 5716   3.371   0.220   2.798
 1900SOL    HW2 5717   3.457   0.304   2.688
 1901SOL     OW 5718   1.901   1.077   2.162
 1901SOL    HW1 5719   2.000   1.066   2.153
 1901SOL    HW2 5720   1.861   0.991   2.194
 1902SOL     OW 5721   2.737   1.646   2.199
 1902SOL    HW1 5722   2.660   1.611   2.145
 1902SOL    HW2 5723   2.705   1.717   2.261
 1903SOL     OW 5724   2.092   0.628   3.837
 1903SOL    HW1 5725   1.999   0.626   3.874
 1903SOL    HW2 5726   2.093   0.589   3.745
 1904SOL     OW 5727   2.087   0.275   4.720
 1904SOL    HW1 5728   2.122   0.258   4.812
 1904SOL    HW2 5729   1.999   0.230   4.708
 1905SOL     OW 5730   1.881   0.368   4.371
 1905SOL    HW1 5731   1.799   0.411   4.410
 1905SOL    HW2 5732   1.853   0.295   4.308
 1906SOL     OW 5733   3.417   1.511   4.427
 1906SOL    HW1 5734   3.360   1.495   4.508
 1906SOL    HW2 5735   3.358   1.521   4.347
 1907SOL     OW 5736   2.997   0.703   4.441
 1907SOL    HW1 5737   3.054   0.781   4.416
 1907SOL    HW2 5738   2.937   0.729   4.517
 1908SOL     OW 5739   3.617   0.607   3.955
 1908SOL    HW1 5740   3.605   0.594   3.856
 1908SOL    HW2 5741   3.587   0.526   4.004
 1909SOL     OW 5742   2.630   1.144   4.747
 1909SOL    HW1 5743   2.552   1.161   4.807
 1909SOL    HW2 5744   2.664   1.231   4.711
 1910SOL     OW 5745   2.547   1.012   4.389
 1910SOL    HW1 5746   2.616   0.996   4.459
 1910SOL    HW2 5747   2.474   1.069   4.427
 1911SOL     OW 5748   2.197   1.435   4.785
 1911SOL    HW1 5749   2.119   1.404   4.732
 1911SOL    HW2 5750   2.255   1.493   4.728
 1912SOL     OW 5751   3.465   0.447   4.461
 1912SOL    HW1 5752   3.391   0.493   4.411
 1912SOL    HW2 5753   3.516   0.515   4.514
 1913SOL     OW 5754   2.093   1.713   4.207
 1913SOL    HW1 5755   2.127   1.790   4.261
 1913SOL    HW2 5756   2.137   1.713   4.117
 1914SOL     OW 5757   2.092   1.434   4.262
 1914SOL    HW1 5758   2.066   1.530   4.262
 1914SOL    HW2 5759   2.021   1.380   4.307
 1915SOL     OW 5760   2.102   1.091   4.610
 1915SOL    HW1 5761   2.116   1.007   4.662
 1915SOL    HW2 5762   2.047   1.155   4.665
 1916SOL     OW 5763   2.468   0.964   3.847
 1916SOL    HW1 5764   2.475   1.048   3.793
 1916SOL    HW2 5765   2.514   0.977   3.935
 1917SOL     OW 5766   1.984   0.643   4.287
 1917SOL    HW1 5767   1.939   0.555   4.304
 1917SOL    HW2 5768   1.983   0.697   4.371
 1918SOL     OW 5769   3.704   1.767   4.083
 1918SOL    HW1 5770   3.758   1.738   4.163
 1918SOL    HW2 5771   3.734   1.857   4.054
 1919SOL     OW 5772   1.889   1.596   3.841
 1919SOL    HW1 5773   1.870   1.500   3.862
 1919SOL    HW2 5774   1.856   1.654   3.916
 1920SOL     OW 5775   3.551   0.922   4.336
 1920SOL    HW1 5776   3.646   0.893   4.344
 1920SOL    HW2 5777   3.543   0.987   4.261
 1921SOL     OW 5778   3.503   1.108   4.156
 1921SOL    HW1 5779   3.589   1.110   4.104
 1921SOL    HW2 5780   3.517   1.155   4.244
 1922SOL     OW 5781   2.475   1.365   4.450
 1922SOL    HW1 5782   2.426   1.278   4.459
 1922SOL    HW2 5783   2.452   1.408   4.363
 1923SOL     OW 5784   2.671   0.004   4.226
 1923SOL    HW1 5785   2.711   0.095   4.217
 1923SOL    HW2 5786   2.571   0.012   4.232
 1924SOL     OW 5787   2.059   0.976   4.988
 1924SOL    HW1 5788   2.148   0.931   4.974
 1924SOL    HW2 5789   1.986   0.911   4.969
 1925SOL     OW 5790   3.387   0.999   3.914
 1925SOL    HW1 5791   3.324   0.923   3.927
 1925SOL    HW2 5792   3.435   1.017   4.000
 1926SOL     OW 5793   3.328   1.417   4.677
 1926SOL    HW1 5794   3.269   1.423   4.757
 1926SOL    HW2 5795   3.313   1.329   4.631
 1927SOL     OW 5796   3.529   1.714   4.296
 1927SOL    HW1 5797   3.488   1.691   4.208
 1927SOL    HW2 5798   3.511   1.640   4.361
 1928SOL     OW 5799   2.460   0.729   3.994
 1928SOL    HW1 5800   2.484   0.798   3.926
 1928SOL    HW2 5801   2.382   0.762   4.048
 1929SOL     OW 5802   3.143   0.345   4.668
 1929SOL    HW1 5803   3.057   0.295   4.655
 1929SOL    HW2 5804   3.205   0.291   4.724
 1930SOL     OW 5805   3.438   1.662   4.031
 1930SOL    HW1 5806   3.527   1.708   4.034
 1930SOL    HW2 5807   3.417   1.638   3.936
 1931SOL     OW 5808   2.903   0.701   4.153
 1931SOL    HW1 5809   2.929   0.697   4.249
 1931SOL    HW2 5810   2.818   0.650   4.139
 1932SOL     OW 5811   1.938   0.811   4.513
 1932SOL    HW1 5812   2.037   0.799   4.522
 1932SOL    HW2 5813   1.914   0.906   4.534
 1933SOL     OW 5814   2.727   0.348   3.919
 1933SOL    HW1 5815   2.786   0.411   3.870
 1933SOL    HW2 5816   2.746   0.254   3.890
 1934SOL     OW 5817   3.224   1.144   4.269
 1934SOL    HW1 5818   3.307   1.115   4.221
 1934SOL    HW2 5819   3.175   1.211   4.213
 1935SOL     OW 5820   2.412   0.196   4.609
 1935SOL    HW1 5821   2.407   0.191   4.709
 1935SOL    HW2 5822   2.414   0.292   4.580
 1936SOL     OW 5823   2.870   1.456   4.201
 1936SOL    HW1 5824   2.824   1.528   4.149
 1936SOL    HW2 5825   2.866   1.476   4.299
 1937SOL     OW 5826   2.213   1.801   4.577
 1937SOL    HW1 5827   2.263   1.715   4.583
 1937SOL    HW2 5828   2.278   1.878   4.574
 1938SOL     OW 5829   3.657   1.066   4.597
 1938SOL    HW1 5830   3.595   1.051   4.521
 1938SOL    HW2 5831   3.605   1.077   4.682
 1939SOL     OW 5832   2.183   0.943   3.966
 1939SOL    HW1 5833   2.265   0.982   3.924
 1939SOL    HW2 5834   2.156   0.861   3.917
 1940SOL     OW 5835   3.320   0.735   4.452
 1940SOL    HW1 5836   3.315   0.670   4.527
 1940SOL    HW2 5837   3.400   0.794   4.465
 1941SOL     OW 5838   2.973   1.776   3.961
 1941SOL    HW1 5839   2.913   1.714   4.011
 1941SOL    HW2 5840   3.004   1.732   3.876
 1942SOL     OW 5841   3.494   1.377   3.805
 1942SOL    HW1 5842   3.462   1.471   3.795
 1942SOL    HW2 5843   3.418   1.314   3.793
 1943SOL     OW 5844   2.326   1.743   4.047
 1943SOL    HW1 5845   2.359   1.782   4.133
 1943SOL    HW2 5846   2.402   1.736   3.982
 1944SOL     OW 5847   3.262   0.107   4.150
 1944SOL    HW1 5848   3.238   0.070   4.060
 1944SOL    HW2 5849   3.361   0.123   4.154
 1945SOL     OW 5850   2.111   1.785   4.965
 1945SOL    HW1 5851   2.168   1.720   5.015
 1945SOL    HW2 5852   2.095   1.752   4.872
 1946SOL     OW 5853   2.802   1.698   4.628
 1946SOL    HW1 5854   2.882   1.641   4.649
 1946SOL    HW2 5855   2.753   1.658   4.551
 1947SOL     OW 5856   2.244   0.700   4.204
 1947SOL    HW1 5857   2.289   0.610   4.201
 1947SOL    HW2 5858   2.150   0.689   4.237
 1948SOL     OW 5859   2.476   0.122   3.841
 1948SOL    HW1 5860   2.574   0.100   3.848
 1948SOL    HW2 5861   2.445   0.105   3.748
 1949SOL     OW 5862   2.665   1.402   4.648
 1949SOL    HW1 5863   2.755   1.416   4.606
 1949SOL    HW2 5864   2.594   1.404   4.577
 1950SOL     OW 5865   2.784   0.503   4.623
 1950SOL    HW1 5866   2.759   0.494   4.527
 1950SOL    HW2 5867   2.832   0.421   4.654
 1951SOL     OW 5868   2.401   0.064   4.236
 1951SOL    HW1 5869   2.320   0.065   4.294
 1951SOL    HW2 5870   2.404   0.147   4.181
 1952SOL     OW 5871   3.296   1.188   3.765
 1952SOL    HW1 5872   3.328   1.112   3.822
 1952SOL    HW2 5873   3.204   1.215   3.795
 1953SOL     OW 5874   2.159   0.035   3.895
 1953SOL    HW1 5875   2.208   0.119   3.874
 1953SOL    HW2 5876   2.221  -0.030   3.940
 1954SOL     OW 5877   2.797   0.236   4.204
 1954SOL    HW1 5878   2.749   0.277   4.126
 1954SOL    HW2 5879   2.896   0.234   4.185
 1955SOL     OW 5880   3.089   1.570   4.517
 1955SOL    HW1 5881   3.110   1.644   4.452
 1955SOL    HW2 5882   3.157   1.570   4.590
 1956SOL     OW 5883   2.321   1.152   4.465
 1956SOL    HW1 5884   2.250   1.125   4.530
 1956SOL    HW2 5885   2.295   1.124   4.372
 1957SOL     OW 5886   3.133   1.797   4.315
 1957SOL    HW1 5887   3.177   1.861   4.251
 1957SOL    HW2 5888   3.083   1.849   4.385
 1958SOL     OW 5889   2.894   0.549   3.740
 1958SOL    HW1 5890   2.853   0.631   3.701
 1958SOL    HW2 5891   2.958   0.575   3.813
 1959SOL     OW 5892   2.728   0.454   4.366
 1959SOL    HW1 5893   2.696   0.526   4.304
 1959SOL    HW2 5894   2.752   0.373   4.313
 1960SOL     OW 5895   2.879   0.039   4.477
 1960SOL    HW1 5896   2.807   0.044   4.408
 1960SOL    HW2 5897   2.855  -0.030   4.546
 1961SOL     OW 5898   3.291   1.173   4.591
 1961SOL    HW1 5899   3.236   1.089   4.584
 1961SOL    HW2 5900   3.317   1.202   4.499
 1962SOL     OW 5901   3.328   0.590   4.716
 1962SOL    HW1 5902   3.298   0.495   4.723
 1962SOL    HW2 5903   3.401   0.606   4.782
 1963SOL     OW 5904   3.719   0.833   4.101
 1963SOL    HW1 5905   3.761   0.769   4.165
 1963SOL    HW2 5906   3.681   0.782   4.023
 1964SOL     OW 5907   2.350   1.385   3.898
 1964SOL    HW1 5908   2.263   1.370   3.945
 1964SOL    HW2 5909   2.333   1.411   3.803
 1965SOL     OW 5910   3.526   1.280   4.381
 1965SOL    HW1 5911   3.625   1.288   4.395
 1965SOL    HW2 5912   3.481   1.364   4.412
 1966SOL     OW 5913   3.252   0.575   3.802
 1966SOL    HW1 5914   3.198   0.554   3.883
 1966SOL    HW2 5915   3.343   0.534   3.811
 1967SOL     OW 5916   2.389   0.256   4.052
 1967SOL    HW1 5917   2.416   0.197   3.977
 1967SOL    HW2 5918   2.389   0.351   4.021
 1968SOL     OW 5919   2.973   1.195   4.824
 1968SOL    HW1 5920   2.933   1.239   4.905
 1968SOL    HW2 5921   2.932   1.232   4.741
 1969SOL     OW 5922   3.500   1.099   4.803
 1969SOL    HW1 5923   3.505   1.180   4.862
 1969SOL    HW2 5924   3.414   1.101   4.752
 1970SOL     OW 5925   2.567   1.050   4.092
 1970SOL    HW1 5926   2.553   1.057   4.191
 1970SOL    HW2 5927   2.651   0.999   4.074
 1971SOL     OW 5928   2.272   0.813   4.975
 1971SOL    HW1 5929   2.358   0.825   5.025
 1971SOL    HW2 5930   2.230   0.726   5.002
 1972SOL     OW 5931   2.229   1.100   4.225
 1972SOL    HW1 5932   2.222   1.183   4.169
 1972SOL    HW2 5933   2.233   1.020   4.165
 1973SOL     OW 5934   2.428   0.537   4.589
 1973SOL    HW1 5935   2.440   0.603   4.515
 1973SOL    HW2 5936   2.474   0.571   4.672
 1974SOL     OW 5937   3.114   1.348   4.112
 1974SOL    HW1 5938   3.164   1.425   4.152
 1974SOL    HW2 5939   3.019   1.350   4.144
 1975SOL     OW 5940   3.134   1.445   4.866
 1975SOL    HW1 5941   3.181   1.458   4.953
 1975SOL    HW2 5942   3.068   1.371   4.875
 1976SOL     OW 5943   3.444   0.639   4.196
 1976SOL    HW1 5944   3.413   0.700   4.269
 1976SOL    HW2 5945   3.494   0.691   4.127
 1977SOL     OW 5946   2.216   1.510   5.053
 1977SOL    HW1 5947   2.195   1.466   4.966
 1977SOL    HW2 5948   2.313   1.536   5.056
 1978SOL     OW 5949   2.435   0.870   4.753
 1978SOL    HW1 5950   2.479   0.959   4.744
 1978SOL    HW2 5951   2.372   0.870   4.830
 1979SOL     OW 5952   3.071   0.525   3.999
 1979SOL    HW1 5953   3.084   0.441   4.053
 1979SOL    HW2 5954   3.042   0.599   4.059
 1980SOL     OW 5955   2.594   0.634   4.788
 1980SOL    HW1 5956   2.653   0.608   4.712
 1980SOL    HW2 5957   2.566   0.730   4.777
 1981SOL     OW 5958   2.169   0.063   4.342
 1981SOL    HW1 5959   2.158   0.157   4.375
 1981SOL    HW2 5960   2.164   0.000   4.419
 1982SOL     OW 5961   3.484   0.367   4.098
 1982SOL    HW1 5962   3.486   0.291   4.162
 1982SOL    HW2 5963   3.436   0.444   4.138
 1983SOL     OW 5964   2.885   0.766   4.690
 1983SOL    HW1 5965   2.900   0.787   4.786
 1983SOL    HW2 5966   2.855   0.671   4.681
 1984SOL     OW 5967   3.402   0.274   3.849
 1984SOL    HW1 5968   3.341   0.199   3.872
 1984SOL    HW2 5969   3.424   0.326   3.932
 1985SOL     OW 5970   3.165   0.838   3.766
 1985SOL    HW1 5971   3.199   0.745   3.781
 1985SOL    HW2 5972   3.183   0.865   3.671
 1986SOL     OW 5973   2.930   1.333   4.573
 1986SOL    HW1 5974   2.937   1.249   4.518
 1986SOL    HW2 5975   2.992   1.402   4.537
 1987SOL     OW 5976   2.181   0.810   4.673
 1987SOL    HW1 5977   2.274   0.846   4.678
 1987SOL    HW2 5978   2.175   0.725   4.725
 1988SOL     OW 5979   2.201   0.509   4.730
 1988SOL    HW1 5980   2.149   0.426   4.713
 1988SOL    HW2 5981   2.278   0.514   4.666
 1989SOL     OW 5982   1.870   1.326   3.924
 1989SOL    HW1 5983   1.777   1.347   3.893
 1989SOL    HW2 5984   1.880   1.227   3.937
 1990SOL     OW 5985   1.950   1.801   4.651
 1990SOL    HW1 5986   1.908   1.715   4.624
 1990SOL    HW2 5987   2.044   1.804   4.617
 1991SOL     OW 5988   2.366   1.568   4.634
 1991SOL    HW1 5989   2.432   1.642   4.643
 1991SOL    HW2 5990   2.410   1.489   4.592
 1992SOL     OW 5991   2.864   0.796   4.962
 1992SOL    HW1 5992   2.905   0.764   5.048
 1992SOL    HW2 5993   2.768   0.769   4.959
 1993SOL     OW 5994   1.902   0.544   4.838
 1993SOL    HW1 5995   1.987   0.511   4.797
 1993SOL    HW2 5996   1.915   0.559   4.936
 1994SOL     OW 5997   2.677   0.572   4.049
 1994SOL    HW1 5998   2.684   0.483   4.003
 1994SOL    HW2 5999   2.583   0.606   4.041
 1995SOL     OW 6000   2.533   0.464   4.993
 1995SOL    HW1 6001   2.499   0.375   4.963
 1995SOL    HW2 6002   2.559   0.518   4.913
 1996SOL     OW 6003   2.335   0.500   3.915
 1996SOL    HW1 6004   2.396   0.580   3.919
 1996SOL    HW2 6005   2.240   0.531   3.922
 1997SOL     OW 6006   3.164   0.855   4.033
 1997SOL    HW1 6007   3.078   0.824   4.075
 1997SOL    HW2 6008   3.160   0.841   3.934
 1998SOL     OW 6009   3.621   1.747   4.878
 1998SOL    HW1 6010   3.682   1.777   4.805
 1998SOL    HW2 6011   3.583   1.658   4.856
 1999SOL     OW 6012   1.945   1.258   4.746
 1999SOL    HW1 6013   1.940   1.257   4.846
 1999SOL    HW2 6014   1.862   1.217   4.708
 2000SOL     OW 6015   3.588   0.135   4.247
 2000SOL    HW1 6016   3.661   0.118   4.180
 2000SOL    HW2 6017   3.557   0.048   4.285
 2001SOL     OW 6018   3.250   1.573   4.201
 2001SOL    HW1 6019   3.317   1.585   4.127
 2001SOL    HW2 6020   3.210   1.662   4.224
 2002SOL     OW 6021   3.142   0.927   4.396
 2002SOL    HW1 6022   3.202   0.846   4.398
 2002SOL    HW2 6023   3.182   0.996   4.336
 2003SOL     OW 6024   2.534   1.616   3.878
 2003SOL    HW1 6025   2.543   1.626   3.779
 2003SOL    HW2 6026   2.494   1.527   3.899
 2004SOL     OW 6027   3.703   0.175   4.687
 2004SOL    HW1 6028   3.742   0.090   4.651
 2004SOL    HW2 6029   3.605   0.177   4.668
 2005SOL     OW 6030   2.125   0.326   4.444
 2005SOL    HW1 6031   2.046   0.377   4.410
 2005SOL    HW2 6032   2.116   0.311   4.542
 2006SOL     OW 6033   3.056   1.612   3.755
 2006SOL    HW1 6034   3.062   1.519   3.792
 2006SOL    HW2 6035   2.997   1.612   3.675
 2007SOL     OW 6036   2.684   1.002   5.096
 2007SOL    HW1 6037   2.724   1.001   5.004
 2007SOL    HW2 6038   2.694   1.094   5.136
 2008SOL     OW 6039   2.778   0.910   4.015
 2008SOL    HW1 6040   2.841   0.948   3.947
 2008SOL    HW2 6041   2.818   0.827   4.054
 2009SOL     OW 6042   3.366   1.607   3.768
 2009SOL    HW1 6043   3.274   1.644   3.775
 2009SOL    HW2 6044   3.404   1.627   3.678
 2010SOL     OW 6045   2.901   1.098   4.420
 2010SOL    HW1 6046   2.831   1.051   4.474
 2010SOL    HW2 6047   2.960   1.030   4.377
 2011SOL     OW 6048   2.876   0.236   4.695
 2011SOL    HW1 6049   2.868   0.200   4.602
 2011SOL    HW2 6050   2.874   0.160   4.760
 2012SOL     OW 6051   2.452   1.487   4.215
 2012SOL    HW1 6052   2.494   1.429   4.145
 2012SOL    HW2 6053   2.408   1.566   4.171
 2013SOL     OW 6054   2.117   1.348   4.014
 2013SOL    HW1 6055   2.021   1.349   3.987
 2013SOL    HW2 6056   2.129   1.401   4.098
 2014SOL     OW 6057   1.937   0.345   3.757
 2014SOL    HW1 6058   1.845   0.317   3.728
 2014SOL    HW2 6059   1.968   0.422   3.701
 2015SOL     OW 6060   1.934   0.166   4.042
 2015SOL    HW1 6061   1.917   0.249   3.988
 2015SOL    HW2 6062   2.024   0.129   4.020
 2016SOL     OW 6063   3.045   1.335   3.843
 2016SOL    HW1 6064   2.946   1.324   3.845
 2016SOL    HW2 6065   3.079   1.350   3.936
 2017SOL     OW 6066   3.355   1.767   4.683
 2017SOL    HW1 6067   3.388   1.831   4.614
 2017SOL    HW2 6068   3.421   1.761   4.758
 2018SOL     OW 6069   3.536   0.883   4.978
 2018SOL    HW1 6070   3.509   0.794   4.941
 2018SOL    HW2 6071   3.537   0.951   4.905
 2019SOL     OW 6072   3.087   0.325   4.173
 2019SOL    HW1 6073   3.152   0.251   4.162
 2019SOL    HW2 6074   3.107   0.375   4.257
 2020SOL     OW 6075   2.456   0.745   4.376
 2020SOL    HW1 6076   2.506   0.830   4.357
 2020SOL    HW2 6077   2.368   0.747   4.328
 2021SOL     OW 6078   2.721   1.374   3.740
 2021SOL    HW1 6079   2.675   1.389   3.828
 2021SOL    HW2 6080   2.765   1.459   3.710
 2022SOL     OW 6081   2.523   1.790   4.677
 2022SOL    HW1 6082   2.477   1.878   4.664
 2022SOL    HW2 6083   2.622   1.802   4.670
 2023SOL     OW 6084   2.721   0.956   4.585
 2023SOL    HW1 6085   2.775   0.887   4.633
 2023SOL    HW2 6086   2.689   1.025   4.651
 2024SOL     OW 6087   2.945   0.984   3.811
 2024SOL    HW1 6088   2.922   1.037   3.729
 2024SOL    HW2 6089   3.026   0.928   3.792
 2025SOL     OW 6090   3.723   1.569   4.575
 2025SOL    HW1 6091   3.652   1.557   4.505
 2025SOL    HW2 6092   3.724   1.490   4.635
 2026SOL     OW 6093   1.941   1.240   4.377
 2026SOL    HW1 6094   1.940   1.193   4.465
 2026SOL    HW2 6095   2.023   1.212   4.326
 2027SOL     OW 6096   3.686   0.192   4.951
 2027SOL    HW1 6097   3.682   0.102   4.995
 2027SOL    HW2 6098   3.689   0.181   4.852
 2028SOL     OW 6099   2.290   0.424   4.244
 2028SOL    HW1 6100   2.320   0.352   4.182
 2028SOL    HW2 6101   2.251   0.384   4.327
 2029SOL     OW 6102   2.674   1.586   4.411
 2029SOL    HW1 6103   2.706   1.596   4.317
 2029SOL    HW2 6104   2.595   1.524   4.413
 2030SOL     OW 6105   3.286   0.214   4.836
 2030SOL    HW1 6106   3.338   0.149   4.891
 2030SOL    HW2 6107   3.237   0.277   4.897
 2031SOL     OW 6108   2.632   1.330   4.025
 2031SOL    HW1 6109   2.586   1.243   4.042
 2031SOL    HW2 6110   2.723   1.327   4.066
 2032SOL     OW 6111   3.214   0.052   3.892
 2032SOL    HW1 6112   3.249   0.011   3.808
 2032SOL    HW2 6113   3.124   0.014   3.912
 2033SOL     OW 6114   3.162   0.453   4.415
 2033SOL    HW1 6115   3.103   0.533   4.419
 2033SOL    HW2 6116   3.177   0.418   4.508
 2034SOL     OW 6117   3.455   0.221   4.606
 2034SOL    HW1 6118   3.371   0.220   4.660
 2034SOL    HW2 6119   3.457   0.304   4.550
 2035SOL     OW 6120   1.901   1.077   4.024
 2035SOL    HW1 6121   2.000   1.066   4.015
 2035SOL    HW2 6122   1.861   0.991   4.056
 2036SOL     OW 6123   2.737   1.646   4.061
 2036SOL    HW1 6124   2.660   1.611   4.007
 2036SOL    HW2 6125   2.705   1.717   4.123
 2037SOL     OW 6126   2.092   2.490   0.113
 2037SOL    HW1 6127   1.999   2.488   0.150
 2037SOL    HW2 6128   2.093   2.451   0.021
 2038SOL     OW 6129   2.087   2.137   0.996
 2038SOL    HW1 6130   2.122   2.120   1.088
 2038SOL    HW2 6131   1.999   2.092   0.984
 2039SOL     OW 6132   1.881   2.230   0.647
 2039SOL    HW1 6133   1.799   2.273   0.686
 2039SOL    HW2 6134   1.853   2.157   0.584
 2040SOL     OW 6135   2.431   3.137   1.165
 2040SOL    HW1 6136   2.338   3.130   1.128
 2040SOL    HW2 6137   2.442   3.226   1.209
 2041SOL     OW 6138   3.417   3.373   0.703
 2041SOL    HW1 6139   3.360   3.357   0.784
 2041SOL    HW2 6140   3.358   3.383   0.623
 2042SOL     OW 6141   2.997   2.565   0.717
 2042SOL    HW1 6142   3.054   2.643   0.692
 2042SOL    HW2 6143   2.937   2.591   0.793
 2043SOL     OW 6144   3.617   2.469   0.231
 2043SOL    HW1 6145   3.605   2.456   0.132
 2043SOL    HW2 6146   3.587   2.388   0.280
 2044SOL     OW 6147   2.630   3.006   1.023
 2044SOL    HW1 6148   2.552   3.023   1.083
 2044SOL    HW2 6149   2.664   3.093   0.987
 2045SOL     OW 6150   2.712   2.660   1.823
 2045SOL    HW1 6151   2.708   2.736   1.888
 2045SOL    HW2 6152   2.734   2.696   1.732
 2046SOL     OW 6153   2.547   2.874   0.665
 2046SOL    HW1 6154   2.616   2.858   0.735
 2046SOL    HW2 6155   2.474   2.931   0.703
 2047SOL     OW 6156   2.548   3.023   1.803
 2047SOL    HW1 6157   2.608   3.102   1.817
 2047SOL    HW2 6158   2.462   3.054   1.762
 2048SOL     OW 6159   2.197   3.297   1.061
 2048SOL    HW1 6160   2.119   3.266   1.008
 2048SOL    HW2 6161   2.255   3.355   1.004
 2049SOL     OW 6162   3.322   3.367   1.339
 2049SOL    HW1 6163   3.346   3.461   1.365
 2049SOL    HW2 6164   3.306   3.313   1.421
 2050SOL     OW 6165   2.300   2.254   1.499
 2050SOL    HW1 6166   2.382   2.198   1.508
 2050SOL    HW2 6167   2.219   2.196   1.503
 2051SOL     OW 6168   3.465   2.309   0.737
 2051SOL    HW1 6169   3.391   2.355   0.687
 2051SOL    HW2 6170   3.516   2.377   0.790
 2052SOL     OW 6171   2.093   3.575   0.483
 2052SOL    HW1 6172   2.127   3.652   0.537
 2052SOL    HW2 6173   2.137   3.575   0.393
 2053SOL     OW 6174   2.989   3.203   1.690
 2053SOL    HW1 6175   3.036   3.203   1.778
 2053SOL    HW2 6176   2.941   3.116   1.679
 2054SOL     OW 6177   2.092   3.296   0.538
 2054SOL    HW1 6178   2.066   3.392   0.538
 2054SOL    HW2 6179   2.021   3.242   0.583
 2055SOL     OW 6180   2.102   2.953   0.886
 2055SOL    HW1 6181   2.116   2.869   0.938
 2055SOL    HW2 6182   2.047   3.017   0.941
 2056SOL     OW 6183   2.482   3.648   1.439
 2056SOL    HW1 6184   2.390   3.631   1.474
 2056SOL    HW2 6185   2.510   3.740   1.465
 2057SOL     OW 6186   2.468   2.826   0.123
 2057SOL    HW1 6187   2.475   2.910   0.069
 2057SOL    HW2 6188   2.514   2.839   0.211
 2058SOL     OW 6189   3.456   1.976   1.480
 2058SOL    HW1 6190   3.438   2.043   1.408
 2058SOL    HW2 6191   3.453   2.022   1.569
 2059SOL     OW 6192   1.984   2.505   0.563
 2059SOL    HW1 6193   1.939   2.417   0.580
 2059SOL    HW2 6194   1.983   2.559   0.647
 2060SOL     OW 6195   3.704   3.629   0.359
 2060SOL    HW1 6196   3.758   3.600   0.439
 2060SOL    HW2 6197   3.734   3.719   0.330
 2061SOL     OW 6198   1.889   3.458   0.117
 2061SOL    HW1 6199   1.870   3.362   0.138
 2061SOL    HW2 6200   1.856   3.516   0.192
 2062SOL     OW 6201   3.551   2.784   0.612
 2062SOL    HW1 6202   3.646   2.755   0.620
 2062SOL    HW2 6203   3.543   2.849   0.537
 2063SOL     OW 6204   3.503   2.970   0.432
 2063SOL    HW1 6205   3.589   2.972   0.380
 2063SOL    HW2 6206   3.517   3.017   0.520
 2064SOL     OW 6207   1.975   2.599   1.597
 2064SOL    HW1 6208   2.063   2.586   1.642
 2064SOL    HW2 6209   1.962   2.696   1.575
 2065SOL     OW 6210   2.475   3.227   0.726
 2065SOL    HW1 6211   2.426   3.140   0.735
 2065SOL    HW2 6212   2.452   3.270   0.639
 2066SOL     OW 6213   3.155   3.090   1.423
 2066SOL    HW1 6214   3.192   3.017   1.365
 2066SOL    HW2 6215   3.207   3.095   1.508
 2067SOL     OW 6216   2.671   1.866   0.502
 2067SOL    HW1 6217   2.711   1.957   0.493
 2067SOL    HW2 6218   2.571   1.874   0.508
 2068SOL     OW 6219   2.059   2.838   1.264
 2068SOL    HW1 6220   2.148   2.793   1.250
 2068SOL    HW2 6221   1.986   2.773   1.245
 2069SOL     OW 6222   3.387   2.861   0.190
 2069SOL    HW1 6223   3.324   2.785   0.203
 2069SOL    HW2 6224   3.435   2.879   0.276
 2070SOL     OW 6225   3.049   3.654   1.616
 2070SOL    HW1 6226   3.073   3.714   1.540
 2070SOL    HW2 6227   3.056   3.559   1.586
 2071SOL     OW 6228   2.179   2.113   1.801
 2071SOL    HW1 6229   2.250   2.184   1.807
 2071SOL    HW2 6230   2.091   2.152   1.829
 2072SOL     OW 6231   3.328   3.279   0.953
 2072SOL    HW1 6232   3.269   3.285   1.033
 2072SOL    HW2 6233   3.313   3.191   0.907
 2073SOL     OW 6234   3.529   3.576   0.572
 2073SOL    HW1 6235   3.488   3.553   0.484
 2073SOL    HW2 6236   3.511   3.502   0.637
 2074SOL     OW 6237   2.460   2.591   0.270
 2074SOL    HW1 6238   2.484   2.660   0.202
 2074SOL    HW2 6239   2.382   2.624   0.324
 2075SOL     OW 6240   3.143   2.207   0.944
 2075SOL    HW1 6241   3.057   2.157   0.931
 2075SOL    HW2 6242   3.205   2.153   1.000
 2076SOL     OW 6243   3.438   3.524   0.307
 2076SOL    HW1 6244   3.527   3.570   0.310
 2076SOL    HW2 6245   3.417   3.500   0.212
 2077SOL     OW 6246   2.669   2.467   1.465
 2077SOL    HW1 6247   2.622   2.464   1.554
 2077SOL    HW2 6248   2.618   2.412   1.399
 2078SOL     OW 6249   3.256   2.331   1.674
 2078SOL    HW1 6250   3.236   2.374   1.762
 2078SOL    HW2 6251   3.334   2.269   1.683
 2079SOL     OW 6252   2.835   2.752   1.572
 2079SOL    HW1 6253   2.881   2.668   1.543
 2079SOL    HW2 6254   2.779   2.786   1.497
 2080SOL     OW 6255   2.853   2.272   1.242
 2080SOL    HW1 6256   2.776   2.306   1.296
 2080SOL    HW2 6257   2.819   2.221   1.163
 2081SOL     OW 6258   2.903   2.563   0.429
 2081SOL    HW1 6259   2.929   2.559   0.525
 2081SOL    HW2 6260   2.818   2.512   0.415
 2082SOL     OW 6261   1.938   2.673   0.789
 2082SOL    HW1 6262   2.037   2.661   0.798
 2082SOL    HW2 6263   1.914   2.768   0.810
 2083SOL     OW 6264   1.992   3.683   1.571
 2083SOL    HW1 6265   1.982   3.668   1.670
 2083SOL    HW2 6266   1.906   3.719   1.535
 2084SOL     OW 6267   2.727   2.210   0.195
 2084SOL    HW1 6268   2.786   2.273   0.146
 2084SOL    HW2 6269   2.746   2.116   0.166
 2085SOL     OW 6270   3.581   2.447   1.831
 2085SOL    HW1 6271   3.555   2.536   1.795
 2085SOL    HW2 6272   3.579   2.379   1.758
 2086SOL     OW 6273   3.224   3.006   0.545
 2086SOL    HW1 6274   3.307   2.977   0.497
 2086SOL    HW2 6275   3.175   3.073   0.489
 2087SOL     OW 6276   2.412   2.058   0.885
 2087SOL    HW1 6277   2.407   2.053   0.985
 2087SOL    HW2 6278   2.414   2.154   0.856
 2088SOL     OW 6279   2.870   3.318   0.477
 2088SOL    HW1 6280   2.824   3.390   0.425
 2088SOL    HW2 6281   2.866   3.338   0.575
 2089SOL     OW 6282   2.213   3.663   0.853
 2089SOL    HW1 6283   2.263   3.577   0.859
 2089SOL    HW2 6284   2.278   3.740   0.850
 2090SOL     OW 6285   3.657   2.928   0.873
 2090SOL    HW1 6286   3.595   2.913   0.797
 2090SOL    HW2 6287   3.605   2.939   0.958
 2091SOL     OW 6288   3.089   3.412   1.506
 2091SOL    HW1 6289   3.095   3.335   1.570
 2091SOL    HW2 6290   3.037   3.386   1.426
 2092SOL     OW 6291   2.183   2.805   0.242
 2092SOL    HW1 6292   2.265   2.844   0.200
 2092SOL    HW2 6293   2.156   2.723   0.193
 2093SOL     OW 6294   3.320   2.597   0.728
 2093SOL    HW1 6295   3.315   2.532   0.803
 2093SOL    HW2 6296   3.400   2.656   0.741
 2094SOL     OW 6297   2.323   3.128   1.727
 2094SOL    HW1 6298   2.273   3.129   1.641
 2094SOL    HW2 6299   2.260   3.110   1.803
 2095SOL     OW 6300   2.973   3.638   0.237
 2095SOL    HW1 6301   2.913   3.576   0.287
 2095SOL    HW2 6302   3.004   3.594   0.152
 2096SOL     OW 6303   2.064   2.147   1.498
 2096SOL    HW1 6304   1.984   2.207   1.485
 2096SOL    HW2 6305   2.054   2.098   1.584
 2097SOL     OW 6306   3.494   3.239   0.081
 2097SOL    HW1 6307   3.462   3.333   0.071
 2097SOL    HW2 6308   3.418   3.176   0.069
 2098SOL     OW 6309   2.326   3.605   0.323
 2098SOL    HW1 6310   2.359   3.644   0.409
 2098SOL    HW2 6311   2.402   3.598   0.258
 2099SOL     OW 6312   3.262   1.969   0.426
 2099SOL    HW1 6313   3.238   1.932   0.336
 2099SOL    HW2 6314   3.361   1.985   0.430
 2100SOL     OW 6315   2.111   3.647   1.241
 2100SOL    HW1 6316   2.168   3.582   1.291
 2100SOL    HW2 6317   2.095   3.614   1.148
 2101SOL     OW 6318   2.802   3.560   0.904
 2101SOL    HW1 6319   2.882   3.503   0.925
 2101SOL    HW2 6320   2.753   3.520   0.827
 2102SOL     OW 6321   2.244   2.562   0.480
 2102SOL    HW1 6322   2.289   2.472   0.477
 2102SOL    HW2 6323   2.150   2.551   0.513
 2103SOL     OW 6324   3.409   2.084   1.729
 2103SOL    HW1 6325   3.404   2.121   1.821
 2103SOL    HW2 6326   3.337   2.015   1.717
 2104SOL     OW 6327   2.476   1.984   0.117
 2104SOL    HW1 6328   2.574   1.962   0.124
 2104SOL    HW2 6329   2.445   1.967   0.024
 2105SOL     OW 6330   2.643   2.126   1.749
 2105SOL    HW1 6331   2.710   2.065   1.792
 2105SOL    HW2 6332   2.570   2.145   1.814
 2106SOL     OW 6333   2.750   3.376   1.195
 2106SOL    HW1 6334   2.727   3.351   1.101
 2106SOL    HW2 6335   2.811   3.307   1.234
 2107SOL     OW 6336   3.213   2.452   1.433
 2107SOL    HW1 6337   3.241   2.409   1.518
 2107SOL    HW2 6338   3.238   2.548   1.434
 2108SOL     OW 6339   2.665   3.264   0.924
 2108SOL    HW1 6340   2.755   3.278   0.882
 2108SOL    HW2 6341   2.594   3.266   0.853
 2109SOL     OW 6342   2.784   2.365   0.899
 2109SOL    HW1 6343   2.759   2.356   0.803
 2109SOL    HW2 6344   2.832   2.283   0.930
 2110SOL     OW 6345   2.401   1.926   0.512
 2110SOL    HW1 6346   2.320   1.927   0.570
 2110SOL    HW2 6347   2.404   2.009   0.457
 2111SOL     OW 6348   3.296   3.050   0.041
 2111SOL    HW1 6349   3.328   2.974   0.098
 2111SOL    HW2 6350   3.204   3.077   0.071
 2112SOL     OW 6351   2.159   1.897   0.171
 2112SOL    HW1 6352   2.208   1.981   0.150
 2112SOL    HW2 6353   2.221   1.832   0.216
 2113SOL     OW 6354   2.797   2.098   0.480
 2113SOL    HW1 6355   2.749   2.139   0.402
 2113SOL    HW2 6356   2.896   2.096   0.461
 2114SOL     OW 6357   2.938   2.545   1.464
 2114SOL    HW1 6358   2.858   2.484   1.467
 2114SOL    HW2 6359   3.019   2.492   1.440
 2115SOL     OW 6360   3.089   3.432   0.793
 2115SOL    HW1 6361   3.110   3.506   0.728
 2115SOL    HW2 6362   3.157   3.432   0.866
 2116SOL     OW 6363   2.321   3.014   0.741
 2116SOL    HW1 6364   2.250   2.987   0.806
 2116SOL    HW2 6365   2.295   2.986   0.648
 2117SOL     OW 6366   3.133   3.659   0.591
 2117SOL    HW1 6367   3.177   3.723   0.527
 2117SOL    HW2 6368   3.083   3.711   0.661
 2118SOL     OW 6369   2.894   2.411   0.016
 2118SOL    HW1 6370   2.853   2.493  -0.023
 2118SOL    HW2 6371   2.958   2.437   0.089
 2119SOL     OW 6372   1.940   2.418   1.386
 2119SOL    HW1 6373   2.032   2.417   1.345
 2119SOL    HW2 6374   1.934   2.492   1.453
 2120SOL     OW 6375   2.423   2.084   1.147
 2120SOL    HW1 6376   2.461   2.000   1.184
 2120SOL    HW2 6377   2.335   2.103   1.191
 2121SOL     OW 6378   2.728   2.316   0.642
 2121SOL    HW1 6379   2.696   2.388   0.580
 2121SOL    HW2 6380   2.752   2.235   0.589
 2122SOL     OW 6381   2.879   1.901   0.753
 2122SOL    HW1 6382   2.807   1.906   0.684
 2122SOL    HW2 6383   2.855   1.832   0.822
 2123SOL     OW 6384   3.291   3.035   0.867
 2123SOL    HW1 6385   3.236   2.951   0.860
 2123SOL    HW2 6386   3.317   3.064   0.775
 2124SOL     OW 6387   3.328   2.452   0.992
 2124SOL    HW1 6388   3.298   2.357   0.999
 2124SOL    HW2 6389   3.401   2.468   1.058
 2125SOL     OW 6390   3.719   2.695   0.377
 2125SOL    HW1 6391   3.761   2.631   0.441
 2125SOL    HW2 6392   3.681   2.644   0.299
 2126SOL     OW 6393   2.350   3.247   0.174
 2126SOL    HW1 6394   2.263   3.232   0.221
 2126SOL    HW2 6395   2.333   3.273   0.079
 2127SOL     OW 6396   3.526   3.142   0.657
 2127SOL    HW1 6397   3.625   3.150   0.671
 2127SOL    HW2 6398   3.481   3.226   0.688
 2128SOL     OW 6399   3.252   2.437   0.078
 2128SOL    HW1 6400   3.198   2.416   0.159
 2128SOL    HW2 6401   3.343   2.396   0.087
 2129SOL     OW 6402   2.389   2.118   0.328
 2129SOL    HW1 6403   2.416   2.059   0.253
 2129SOL    HW2 6404   2.389   2.213   0.297
 2130SOL     OW 6405   3.616   3.085   1.588
 2130SOL    HW1 6406   3.707   3.046   1.575
 2130SOL    HW2 6407   3.624   3.181   1.612
 2131SOL     OW 6408   2.926   3.209   1.340
 2131SOL    HW1 6409   2.846   3.186   1.395
 2131SOL    HW2 6410   3.009   3.183   1.389
 2132SOL     OW 6411   3.454   3.491   1.625
 2132SOL    HW1 6412   3.481   3.525   1.535
 2132SOL    HW2 6413   3.533   3.453   1.671
 2133SOL     OW 6414   2.973   3.057   1.100
 2133SOL    HW1 6415   2.933   3.101   1.181
 2133SOL    HW2 6416   2.932   3.094   1.017
 2134SOL     OW 6417   3.500   2.961   1.079
 2134SOL    HW1 6418   3.505   3.042   1.138
 2134SOL    HW2 6419   3.414   2.963   1.028
 2135SOL     OW 6420   2.777   1.951   1.402
 2135SOL    HW1 6421   2.802   1.931   1.307
 2135SOL    HW2 6422   2.849   2.007   1.444
 2136SOL     OW 6423   2.842   2.978   1.719
 2136SOL    HW1 6424   2.743   2.984   1.729
 2136SOL    HW2 6425   2.865   2.898   1.663
 2137SOL     OW 6426   2.567   2.912   0.368
 2137SOL    HW1 6427   2.553   2.919   0.467
 2137SOL    HW2 6428   2.651   2.861   0.350
 2138SOL     OW 6429   2.272   2.675   1.251
 2138SOL    HW1 6430   2.358   2.687   1.301
 2138SOL    HW2 6431   2.230   2.588   1.278
 2139SOL     OW 6432   3.136   2.248   1.262
 2139SOL    HW1 6433   3.157   2.322   1.326
 2139SOL    HW2 6434   3.047   2.265   1.219
 2140SOL     OW 6435   1.926   3.426   1.331
 2140SOL    HW1 6436   1.880   3.508   1.297
 2140SOL    HW2 6437   2.024   3.445   1.340
 2141SOL     OW 6438   2.229   2.962   0.501
 2141SOL    HW1 6439   2.222   3.045   0.445
 2141SOL    HW2 6440   2.233   2.882   0.441
 2142SOL     OW 6441   2.428   2.399   0.865
 2142SOL    HW1 6442   2.440   2.465   0.791
 2142SOL    HW2 6443   2.474   2.433   0.948
 2143SOL     OW 6444   3.114   3.210   0.388
 2143SOL    HW1 6445   3.164   3.287   0.428
 2143SOL    HW2 6446   3.019   3.212   0.420
 2144SOL     OW 6447   3.134   3.307   1.142
 2144SOL    HW1 6448   3.181   3.320   1.229
 2144SOL    HW2 6449   3.068   3.233   1.151
 2145SOL     OW 6450   3.444   2.501   0.472
 2145SOL    HW1 6451   3.413   2.562   0.545
 2145SOL    HW2 6452   3.494   2.553   0.403
 2146SOL     OW 6453   2.216   3.372   1.329
 2146SOL    HW1 6454   2.195   3.328   1.242
 2146SOL    HW2 6455   2.313   3.398   1.332
 2147SOL     OW 6456   2.264   2.613   1.598
 2147SOL    HW1 6457   2.332   2.668   1.551
 2147SOL    HW2 6458   2.304   2.525   1.625
 2148SOL     OW 6459   3.449   2.641   1.670
 2148SOL    HW1 6460   3.357   2.679   1.665
 2148SOL    HW2 6461   3.509   2.688   1.605
 2149SOL     OW 6462   2.875   1.967   1.770
 2149SOL    HW1 6463   2.881   2.052   1.718
 2149SOL    HW2 6464   2.907   1.891   1.713
 2150SOL     OW 6465   2.366   1.912   1.740
 2150SOL    HW1 6466   2.324   1.855   1.670
 2150SOL    HW2 6467   2.300   1.981   1.772
 2151SOL     OW 6468   2.435   2.732   1.029
 2151SOL    HW1 6469   2.479   2.821   1.020
 2151SOL    HW2 6470   2.372   2.732   1.106
 2152SOL     OW 6471   3.222   2.724   1.045
 2152SOL    HW1 6472   3.147   2.724   0.979
 2152SOL    HW2 6473   3.259   2.632   1.054
 2153SOL     OW 6474   3.071   2.387   0.275
 2153SOL    HW1 6475   3.084   2.303   0.329
 2153SOL    HW2 6476   3.042   2.461   0.335
 2154SOL     OW 6477   2.169   2.075   1.231
 2154SOL    HW1 6478   2.146   2.112   1.321
 2154SOL    HW2 6479   2.139   1.980   1.225
 2155SOL     OW 6480   1.899   3.172   1.282
 2155SOL    HW1 6481   1.952   3.123   1.350
 2155SOL    HW2 6482   1.921   3.270   1.287
 2156SOL     OW 6483   2.594   2.496   1.064
 2156SOL    HW1 6484   2.653   2.470   0.988
 2156SOL    HW2 6485   2.566   2.592   1.053
 2157SOL     OW 6486   3.590   2.797   1.854
 2157SOL    HW1 6487   3.544   2.790   1.765
 2157SOL    HW2 6488   3.528   2.841   1.920
 2158SOL     OW 6489   2.169   1.925   0.618
 2158SOL    HW1 6490   2.158   2.019   0.651
 2158SOL    HW2 6491   2.164   1.862   0.695
 2159SOL     OW 6492   3.484   2.229   0.374
 2159SOL    HW1 6493   3.486   2.153   0.438
 2159SOL    HW2 6494   3.436   2.306   0.414
 2160SOL     OW 6495   2.885   2.628   0.966
 2160SOL    HW1 6496   2.900   2.649   1.062
 2160SOL    HW2 6497   2.855   2.533   0.957
 2161SOL     OW 6498   2.842   3.435   1.700
 2161SOL    HW1 6499   2.822   3.479   1.612
 2161SOL    HW2 6500   2.881   3.344   1.684
 2162SOL     OW 6501   3.721   3.380   1.605
 2162SOL    HW1 6502   3.735   3.407   1.510
 2162SOL    HW2 6503   3.804   3.402   1.658
 2163SOL     OW 6504   2.212   2.760   1.804
 2163SOL    HW1 6505   2.288   2.804   1.852
 2163SOL    HW2 6506   2.247   2.713   1.722
 2164SOL     OW 6507   3.402   2.136   0.125
 2164SOL    HW1 6508   3.341   2.061   0.148
 2164SOL    HW2 6509   3.424   2.188   0.208
 2165SOL     OW 6510   3.165   2.700   0.042
 2165SOL    HW1 6511   3.199   2.607   0.057
 2165SOL    HW2 6512   3.183   2.727  -0.053
 2166SOL     OW 6513   2.930   3.195   0.849
 2166SOL    HW1 6514   2.937   3.111   0.794
 2166SOL    HW2 6515   2.992   3.264   0.813
 2167SOL     OW 6516   2.181   2.672   0.949
 2167SOL    HW1 6517   2.274   2.708   0.954
 2167SOL    HW2 6518   2.175   2.587   1.001
 2168SOL     OW 6519   2.201   2.371   1.006
 2168SOL    HW1 6520   2.149   2.288   0.989
 2168SOL    HW2 6521   2.278   2.376   0.942
 2169SOL     OW 6522   3.000   2.242   1.678
 2169SOL    HW1 6523   2.955   2.305   1.742
 2169SOL    HW2 6524   3.093   2.273   1.661
 2170SOL     OW 6525   3.022   2.069   1.477
 2170SOL    HW1 6526   3.022   2.133   1.554
 2170SOL    HW2 6527   3.050   2.117   1.394
 2171SOL     OW 6528   1.870   3.188   0.200
 2171SOL    HW1 6529   1.777   3.209   0.169
 2171SOL    HW2 6530   1.880   3.089   0.213
 2172SOL     OW 6531   1.950   3.663   0.927
 2172SOL    HW1 6532   1.908   3.577   0.900
 2172SOL    HW2 6533   2.044   3.666   0.893
 2173SOL     OW 6534   2.366   3.430   0.910
 2173SOL    HW1 6535   2.432   3.504   0.919
 2173SOL    HW2 6536   2.410   3.351   0.868
 2174SOL     OW 6537   2.864   2.658   1.238
 2174SOL    HW1 6538   2.905   2.626   1.324
 2174SOL    HW2 6539   2.768   2.631   1.235
 2175SOL     OW 6540   1.902   2.406   1.114
 2175SOL    HW1 6541   1.987   2.373   1.073
 2175SOL    HW2 6542   1.915   2.421   1.212
 2176SOL     OW 6543   2.051   2.382   1.722
 2176SOL    HW1 6544   2.110   2.342   1.652
 2176SOL    HW2 6545   1.993   2.453   1.681
 2177SOL     OW 6546   3.231   2.812   1.660
 2177SOL    HW1 6547   3.270   2.901   1.680
 2177SOL    HW2 6548   3.241   2.792   1.563
 2178SOL     OW 6549   2.677   2.434   0.325
 2178SOL    HW1 6550   2.684   2.345   0.279
 2178SOL    HW2 6551   2.583   2.468   0.317
 2179SOL     OW 6552   3.519   2.466   1.206
 2179SOL    HW1 6553   3.481   2.397   1.268
 2179SOL    HW2 6554   3.601   2.430   1.162
 2180SOL     OW 6555   2.114   3.426   1.744
 2180SOL    HW1 6556   2.084   3.483   1.820
 2180SOL    HW2 6557   2.107   3.329   1.770
 2181SOL     OW 6558   2.533   2.326   1.269
 2181SOL    HW1 6559   2.499   2.237   1.239
 2181SOL    HW2 6560   2.559   2.380   1.189
 2182SOL     OW 6561   2.792   3.540   1.465
 2182SOL    HW1 6562   2.768   3.522   1.370
 2182SOL    HW2 6563   2.822   3.634   1.475
 2183SOL     OW 6564   2.335   2.362   0.191
 2183SOL    HW1 6565   2.396   2.442   0.195
 2183SOL    HW2 6566   2.240   2.393   0.198
 2184SOL     OW 6567   2.021   2.999   1.466
 2184SOL    HW1 6568   2.043   2.938   1.542
 2184SOL    HW2 6569   2.031   2.950   1.380
 2185SOL     OW 6570   3.209   2.921   1.234
 2185SOL    HW1 6571   3.233   2.858   1.160
 2185SOL    HW2 6572   3.119   2.961   1.216
 2186SOL     OW 6573   3.164   2.717   0.309
 2186SOL    HW1 6574   3.078   2.686   0.351
 2186SOL    HW2 6575   3.160   2.703   0.210
 2187SOL     OW 6576   3.621   3.609   1.154
 2187SOL    HW1 6577   3.682   3.639   1.081
 2187SOL    HW2 6578   3.583   3.520   1.132
 2188SOL     OW 6579   3.114   3.593   1.128
 2188SOL    HW1 6580   3.198   3.598   1.074
 2188SOL    HW2 6581   3.091   3.497   1.146
 2189SOL     OW 6582   1.945   3.120   1.022
 2189SOL    HW1 6583   1.940   3.119   1.122
 2189SOL    HW2 6584   1.862   3.079   0.984
 2190SOL     OW 6585   2.550   3.524   1.716
 2190SOL    HW1 6586   2.494   3.605   1.725
 2190SOL    HW2 6587   2.602   3.528   1.630
 2191SOL     OW 6588   2.765   1.948   0.133
 2191SOL    HW1 6589   2.816   1.949   0.047
 2191SOL    HW2 6590   2.821   1.906   0.204
 2192SOL     OW 6591   3.588   1.997   0.523
 2192SOL    HW1 6592   3.661   1.980   0.456
 2192SOL    HW2 6593   3.557   1.910   0.561
 2193SOL     OW 6594   3.250   3.435   0.477
 2193SOL    HW1 6595   3.317   3.447   0.403
 2193SOL    HW2 6596   3.210   3.524   0.500
 2194SOL     OW 6597   1.992   3.656   1.851
 2194SOL    HW1 6598   1.951   3.582   1.904
 2194SOL    HW2 6599   2.056   3.707   1.909
 2195SOL     OW 6600   3.142   2.789   0.672
 2195SOL    HW1 6601   3.202   2.708   0.674
 2195SOL    HW2 6602   3.182   2.858   0.612
 2196SOL     OW 6603   2.692   3.135   1.422
 2196SOL    HW1 6604   2.687   3.168   1.517
 2196SOL    HW2 6605   2.606   3.154   1.376
 2197SOL     OW 6606   2.534   3.478   0.154
 2197SOL    HW1 6607   2.543   3.488   0.055
 2197SOL    HW2 6608   2.494   3.389   0.175
 2198SOL     OW 6609   3.512   3.582   1.394
 2198SOL    HW1 6610   3.565   3.592   1.310
 2198SOL    HW2 6611   3.485   3.672   1.428
 2199SOL     OW 6612   3.703   2.037   0.963
 2199SOL    HW1 6613   3.742   1.952   0.927
 2199SOL    HW2 6614   3.605   2.039   0.944
 2200SOL     OW 6615   2.125   2.188   0.720
 2200SOL    HW1 6616   2.046   2.239   0.686
 2200SOL    HW2 6617   2.116   2.173   0.818
 2201SOL     OW 6618   3.056   3.474   0.031
 2201SOL    HW1 6619   3.062   3.381   0.068
 2201SOL    HW2 6620   2.997   3.474  -0.049
 2202SOL     OW 6621   2.684   2.864   1.372
 2202SOL    HW1 6622   2.724   2.863   1.280
 2202SOL    HW2 6623   2.694   2.956   1.412
 2203SOL     OW 6624   2.778   2.772   0.291
 2203SOL    HW1 6625   2.841   2.810   0.223
 2203SOL    HW2 6626   2.818   2.689   0.330
 2204SOL     OW 6627   3.366   3.469   0.044
 2204SOL    HW1 6628   3.274   3.506   0.051
 2204SOL    HW2 6629   3.404   3.489  -0.046
 2205SOL     OW 6630   2.234   3.150   1.490
 2205SOL    HW1 6631   2.221   3.243   1.456
 2205SOL    HW2 6632   2.150   3.098   1.477
 2206SOL     OW 6633   3.476   3.154   1.289
 2206SOL    HW1 6634   3.536   3.157   1.369
 2206SOL    HW2 6635   3.401   3.218   1.302
 2207SOL     OW 6636   2.901   2.960   0.696
 2207SOL    HW1 6637   2.831   2.913   0.750
 2207SOL    HW2 6638   2.960   2.892   0.653
 2208SOL     OW 6639   2.876   2.098   0.971
 2208SOL    HW1 6640   2.868   2.062   0.878
 2208SOL    HW2 6641   2.874   2.022   1.036
 2209SOL     OW 6642   2.452   3.349   0.491
 2209SOL    HW1 6643   2.494   3.291   0.421
 2209SOL    HW2 6644   2.408   3.428   0.447
 2210SOL     OW 6645   3.571   2.247   1.381
 2210SOL    HW1 6646   3.644   2.316   1.385
 2210SOL    HW2 6647   3.599   2.172   1.322
 2211SOL     OW 6648   2.117   3.210   0.290
 2211SOL    HW1 6649   2.021   3.211   0.263
 2211SOL    HW2 6650   2.129   3.263   0.374
 2212SOL     OW 6651   1.967   2.875   1.726
 2212SOL    HW1 6652   1.890   2.842   1.780
 2212SOL    HW2 6653   2.052   2.845   1.768
 2213SOL     OW 6654   2.534   2.065   1.489
 2213SOL    HW1 6655   2.624   2.049   1.449
 2213SOL    HW2 6656   2.542   2.070   1.588
 2214SOL     OW 6657   3.302   2.718   1.398
 2214SOL    HW1 6658   3.245   2.770   1.335
 2214SOL    HW2 6659   3.398   2.730   1.374
 2215SOL     OW 6660   1.934   2.028   0.318
 2215SOL    HW1 6661   1.917   2.111   0.264
 2215SOL    HW2 6662   2.024   1.991   0.296
 2216SOL     OW 6663   3.045   3.197   0.119
 2216SOL    HW1 6664   2.946   3.186   0.121
 2216SOL    HW2 6665   3.079   3.212   0.212
 2217SOL     OW 6666   2.475   2.704   1.431
 2217SOL    HW1 6667   2.531   2.785   1.414
 2217SOL    HW2 6668   2.534   2.624   1.434
 2218SOL     OW 6669   3.355   3.629   0.959
 2218SOL    HW1 6670   3.388   3.693   0.890
 2218SOL    HW2 6671   3.421   3.623   1.034
 2219SOL     OW 6672   2.578   2.427   1.708
 2219SOL    HW1 6673   2.597   2.492   1.782
 2219SOL    HW2 6674   2.638   2.347   1.717
 2220SOL     OW 6675   3.312   3.082   1.633
 2220SOL    HW1 6676   3.303   3.072   1.732
 2220SOL    HW2 6677   3.408   3.075   1.607
 2221SOL     OW 6678   2.252   3.603   1.560
 2221SOL    HW1 6679   2.161   3.644   1.558
 2221SOL    HW2 6680   2.245   3.509   1.592
 2222SOL     OW 6681   3.536   2.745   1.254
 2222SOL    HW1 6682   3.509   2.656   1.217
 2222SOL    HW2 6683   3.537   2.813   1.181
 2223SOL     OW 6684   3.087   2.187   0.449
 2223SOL    HW1 6685   3.152   2.113   0.438
 2223SOL    HW2 6686   3.107   2.237   0.533
 2224SOL     OW 6687   2.456   2.607   0.652
 2224SOL    HW1 6688   2.506   2.692   0.633
 2224SOL    HW2 6689   2.368   2.609   0.604
 2225SOL     OW 6690   3.639   2.204   1.642
 2225SOL    HW1 6691   3.622   2.235   1.548
 2225SOL    HW2 6692   3.555   2.167   1.680
 2226SOL     OW 6693   3.592   2.796   1.517
 2226SOL    HW1 6694   3.630   2.887   1.532
 2226SOL    HW2 6695   3.584   2.779   1.418
 2227SOL     OW 6696   2.721   3.236   0.016
 2227SOL    HW1 6697   2.675   3.251   0.104
 2227SOL    HW2 6698   2.765   3.321  -0.014
 2228SOL     OW 6699   2.523   3.652   0.953
 2228SOL    HW1 6700   2.477   3.740   0.940
 2228SOL    HW2 6701   2.622   3.664   0.946
 2229SOL     OW 6702   2.721   2.818   0.861
 2229SOL    HW1 6703   2.775   2.749   0.909
 2229SOL    HW2 6704   2.689   2.887   0.927
 2230SOL     OW 6705   2.945   2.846   0.087
 2230SOL    HW1 6706   2.922   2.899   0.005
 2230SOL    HW2 6707   3.026   2.790   0.068
 2231SOL     OW 6708   3.723   3.431   0.851
 2231SOL    HW1 6709   3.652   3.419   0.781
 2231SOL    HW2 6710   3.724   3.352   0.911
 2232SOL     OW 6711   2.083   3.176   1.844
 2232SOL    HW1 6712   2.018   3.103   1.823
 2232SOL    HW2 6713   2.087   3.190   1.942
 2233SOL     OW 6714   1.941   3.102   0.653
 2233SOL    HW1 6715   1.940   3.055   0.741
 2233SOL    HW2 6716   2.023   3.074   0.602
 2234SOL     OW 6717   2.534   3.253   1.624
 2234SOL    HW1 6718   2.456   3.203   1.662
 2234SOL    HW2 6719   2.531   3.348   1.655
 2235SOL     OW 6720   3.686   2.054   1.227
 2235SOL    HW1 6721   3.682   1.964   1.271
 2235SOL    HW2 6722   3.689   2.043   1.128
 2236SOL     OW 6723   2.290   2.286   0.520
 2236SOL    HW1 6724   2.320   2.214   0.458
 2236SOL    HW2 6725   2.251   2.246   0.603
 2237SOL     OW 6726   3.567   3.349   1.104
 2237SOL    HW1 6727   3.474   3.324   1.077
 2237SOL    HW2 6728   3.593   3.299   1.186
 2238SOL     OW 6729   2.179   2.409   1.280
 2238SOL    HW1 6730   2.217   2.350   1.352
 2238SOL    HW2 6731   2.219   2.383   1.192
 2239SOL     OW 6732   2.674   3.448   0.687
 2239SOL    HW1 6733   2.706   3.458   0.593
 2239SOL    HW2 6734   2.595   3.386   0.689
 2240SOL     OW 6735   3.286   2.076   1.112
 2240SOL    HW1 6736   3.338   2.011   1.167
 2240SOL    HW2 6737   3.237   2.139   1.173
 2241SOL     OW 6738   2.863   1.896   1.154
 2241SOL    HW1 6739   2.800   1.824   1.123
 2241SOL    HW2 6740   2.956   1.860   1.154
 2242SOL     OW 6741   2.632   3.192   0.301
 2242SOL    HW1 6742   2.586   3.105   0.318
 2242SOL    HW2 6743   2.723   3.189   0.342
 2243SOL     OW 6744   2.480   3.429   1.284
 2243SOL    HW1 6745   2.475   3.511   1.341
 2243SOL    HW2 6746   2.569   3.426   1.239
 2244SOL     OW 6747   3.214   1.914   0.168
 2244SOL    HW1 6748   3.249   1.873   0.084
 2244SOL    HW2 6749   3.124   1.876   0.188
 2245SOL     OW 6750   3.162   2.315   0.691
 2245SOL    HW1 6751   3.103   2.395   0.695
 2245SOL    HW2 6752   3.177   2.280   0.784
 2246SOL     OW 6753   3.455   2.083   0.882
 2246SOL    HW1 6754   3.371   2.082   0.936
 2246SOL    HW2 6755   3.457   2.166   0.826
 2247SOL     OW 6756   1.901   2.939   0.300
 2247SOL    HW1 6757   2.000   2.928   0.291
 2247SOL    HW2 6758   1.861   2.853   0.332
 2248SOL     OW 6759   2.737   3.508   0.337
 2248SOL    HW1 6760   2.660   3.473   0.283
 2248SOL    HW2 6761   2.705   3.579   0.399
 2249SOL     OW 6762   2.092   2.490   1.975
 2249SOL    HW1 6763   1.999   2.488   2.012
 2249SOL    HW2 6764   2.093   2.451   1.883
 2250SOL     OW 6765   2.087   2.137   2.858
 2250SOL    HW1 6766   2.122   2.120   2.950
 2250SOL    HW2 6767   1.999   2.092   2.846
 2251SOL     OW 6768   1.881   2.230   2.509
 2251SOL    HW1 6769   1.799   2.273   2.548
 2251SOL    HW2 6770   1.853   2.157   2.446
 2252SOL     OW 6771   2.431   3.137   3.027
 2252SOL    HW1 6772   2.338   3.130   2.990
 2252SOL    HW2 6773   2.442   3.226   3.071
 2253SOL     OW 6774   3.417   3.373   2.565
 2253SOL    HW1 6775   3.360   3.357   2.646
 2253SOL    HW2 6776   3.358   3.383   2.485
 2254SOL     OW 6777   2.997   2.565   2.579
 2254SOL    HW1 6778   3.054   2.643   2.554
 2254SOL    HW2 6779   2.937   2.591   2.655
 2255SOL     OW 6780   3.617   2.469   2.093
 2255SOL    HW1 6781   3.605   2.456   1.994
 2255SOL    HW2 6782   3.587   2.388   2.142
 2256SOL     OW 6783   2.630   3.006   2.885
 2256SOL    HW1 6784   2.552   3.023   2.945
 2256SOL    HW2 6785   2.664   3.093   2.849
 2257SOL     OW 6786   2.712   2.660   3.685
 2257SOL    HW1 6787   2.708   2.736   3.750
 2257SOL    HW2 6788   2.734   2.696   3.594
 2258SOL     OW 6789   2.547   2.874   2.527
 2258SOL    HW1 6790   2.616   2.858   2.597
 2258SOL    HW2 6791   2.474   2.931   2.565
 2259SOL     OW 6792   2.548   3.023   3.665
 2259SOL    HW1 6793   2.608   3.102   3.679
 2259SOL    HW2 6794   2.462   3.054   3.624
 2260SOL     OW 6795   2.197   3.297   2.923
 2260SOL    HW1 6796   2.119   3.266   2.870
 2260SOL    HW2 6797   2.255   3.355   2.866
 2261SOL     OW 6798   3.322   3.367   3.201
 2261SOL    HW1 6799   3.346   3.461   3.227
 2261SOL    HW2 6800   3.306   3.313   3.283
 2262SOL     OW 6801   2.300   2.254   3.361
 2262SOL    HW1 6802   2.382   2.198   3.370
 2262SOL    HW2 6803   2.219   2.196   3.365
 2263SOL     OW 6804   3.465   2.309   2.599
 2263SOL    HW1 6805   3.391   2.355   2.549
 2263SOL    HW2 6806   3.516   2.377   2.652
 2264SOL     OW 6807   2.093   3.575   2.345
 2264SOL    HW1 6808   2.127   3.652   2.399
 2264SOL    HW2 6809   2.137   3.575   2.255
 2265SOL     OW 6810   2.989   3.203   3.552
 2265SOL    HW1 6811   3.036   3.203   3.640
 2265SOL    HW2 6812   2.941   3.116   3.541
 2266SOL     OW 6813   2.092   3.296   2.400
 2266SOL    HW1 6814   2.066   3.392   2.400
 2266SOL    HW2 6815   2.021   3.242   2.445
 2267SOL     OW 6816   2.102   2.953   2.748
 2267SOL    HW1 6817   2.116   2.869   2.800
 2267SOL    HW2 6818   2.047   3.017   2.803
 2268SOL     OW 6819   2.482   3.648   3.301
 2268SOL    HW1 6820   2.390   3.631   3.336
 2268SOL    HW2 6821   2.510   3.740   3.327
 2269SOL     OW 6822   2.468   2.826   1.985
 2269SOL    HW1 6823   2.475   2.910   1.931
 2269SOL    HW2 6824   2.514   2.839   2.073
 2270SOL     OW 6825   3.456   1.976   3.342
 2270SOL    HW1 6826   3.438   2.043   3.270
 2270SOL    HW2 6827   3.453   2.022   3.431
 2271SOL     OW 6828   1.984   2.505   2.425
 2271SOL    HW1 6829   1.939   2.417   2.442
 2271SOL    HW2 6830   1.983   2.559   2.509
 2272SOL     OW 6831   3.704   3.629   2.221
 2272SOL    HW1 6832   3.758   3.600   2.301
 2272SOL    HW2 6833   3.734   3.719   2.192
 2273SOL     OW 6834   1.889   3.458   1.979
 2273SOL    HW1 6835   1.870   3.362   2.000
 2273SOL    HW2 6836   1.856   3.516   2.054
 2274SOL     OW 6837   3.551   2.784   2.474
 2274SOL    HW1 6838   3.646   2.755   2.482
 2274SOL    HW2 6839   3.543   2.849   2.399
 2275SOL     OW 6840   3.503   2.970   2.294
 2275SOL    HW1 6841   3.589   2.972   2.242
 2275SOL    HW2 6842   3.517   3.017   2.382
 2276SOL     OW 6843   1.975   2.599   3.459
 2276SOL    HW1 6844   2.063   2.586   3.504
 2276SOL    HW2 6845   1.962   2.696   3.437
 2277SOL     OW 6846   2.475   3.227   2.588
 2277SOL    HW1 6847   2.426   3.140   2.597
 2277SOL    HW2 6848   2.452   3.270   2.501
 2278SOL     OW 6849   3.155   3.090   3.285
 2278SOL    HW1 6850   3.192   3.017   3.227
 2278SOL    HW2 6851   3.207   3.095   3.370
 2279SOL     OW 6852   2.671   1.866   2.364
 2279SOL    HW1 6853   2.711   1.957   2.355
 2279SOL    HW2 6854   2.571   1.874   2.370
 2280SOL     OW 6855   2.059   2.838   3.126
 2280SOL    HW1 6856   2.148   2.793   3.112
 2280SOL    HW2 6857   1.986   2.773   3.107
 2281SOL     OW 6858   3.387   2.861   2.052
 2281SOL    HW1 6859   3.324   2.785   2.065
 2281SOL    HW2 6860   3.435   2.879   2.138
 2282SOL     OW 6861   3.049   3.654   3.478
 2282SOL    HW1 6862   3.073   3.714   3.402
 2282SOL    HW2 6863   3.056   3.559   3.448
 2283SOL     OW 6864   2.179   2.113   3.663
 2283SOL    HW1 6865   2.250   2.184   3.669
 2283SOL    HW2 6866   2.091   2.152   3.691
 2284SOL     OW 6867   3.328   3.279   2.815
 2284SOL    HW1 6868   3.269   3.285   2.895
 2284SOL    HW2 6869   3.313   3.191   2.769
 2285SOL     OW 6870   3.529   3.576   2.434
 2285SOL    HW1 6871   3.488   3.553   2.346
 2285SOL    HW2 6872   3.511   3.502   2.499
 2286SOL     OW 6873   3.143   2.207   2.806
 2286SOL    HW1 6874   3.057   2.157   2.793
 2286SOL    HW2 6875   3.205   2.153   2.862
 2287SOL     OW 6876   3.438   3.524   2.169
 2287SOL    HW1 6877   3.527   3.570   2.172
 2287SOL    HW2 6878   3.417   3.500   2.074
 2288SOL     OW 6879   2.669   2.467   3.327
 2288SOL    HW1 6880   2.622   2.464   3.416
 2288SOL    HW2 6881   2.618   2.412   3.261
 2289SOL     OW 6882   3.256   2.331   3.536
 2289SOL    HW1 6883   3.236   2.374   3.624
 2289SOL    HW2 6884   3.334   2.269   3.545
 2290SOL     OW 6885   2.835   2.752   3.434
 2290SOL    HW1 6886   2.881   2.668   3.405
 2290SOL    HW2 6887   2.779   2.786   3.359
 2291SOL     OW 6888   2.853   2.272   3.104
 2291SOL    HW1 6889   2.776   2.306   3.158
 2291SOL    HW2 6890   2.819   2.221   3.025
 2292SOL     OW 6891   2.903   2.563   2.291
 2292SOL    HW1 6892   2.929   2.559   2.387
 2292SOL    HW2 6893   2.818   2.512   2.277
 2293SOL     OW 6894   1.938   2.673   2.651
 2293SOL    HW1 6895   2.037   2.661   2.660
 2293SOL    HW2 6896   1.914   2.768   2.672
 2294SOL     OW 6897   1.992   3.683   3.433
 2294SOL    HW1 6898   1.982   3.668   3.532
 2294SOL    HW2 6899   1.906   3.719   3.397
 2295SOL     OW 6900   3.581   2.447   3.693
 2295SOL    HW1 6901   3.555   2.536   3.657
 2295SOL    HW2 6902   3.579   2.379   3.620
 2296SOL     OW 6903   3.224   3.006   2.407
 2296SOL    HW1 6904   3.307   2.977   2.359
 2296SOL    HW2 6905   3.175   3.073   2.351
 2297SOL     OW 6906   2.412   2.058   2.747
 2297SOL    HW1 6907   2.407   2.053   2.847
 2297SOL    HW2 6908   2.414   2.154   2.718
 2298SOL     OW 6909   2.870   3.318   2.339
 2298SOL    HW1 6910   2.824   3.390   2.287
 2298SOL    HW2 6911   2.866   3.338   2.437
 2299SOL     OW 6912   2.213   3.663   2.715
 2299SOL    HW1 6913   2.263   3.577   2.721
 2299SOL    HW2 6914   2.278   3.740   2.712
 2300SOL     OW 6915   3.657   2.928   2.735
 2300SOL    HW1 6916   3.595   2.913   2.659
 2300SOL    HW2 6917   3.605   2.939   2.820
 2301SOL     OW 6918   3.089   3.412   3.368
 2301SOL    HW1 6919   3.095   3.335   3.432
 2301SOL    HW2 6920   3.037   3.386   3.288
 2302SOL     OW 6921   2.183   2.805   2.104
 2302SOL    HW1 6922   2.265   2.844   2.062
 2302SOL    HW2 6923   2.156   2.723   2.055
 2303SOL     OW 6924   3.320   2.597   2.590
 2303SOL    HW1 6925   3.315   2.532   2.665
 2303SOL    HW2 6926   3.400   2.656   2.603
 2304SOL     OW 6927   2.323   3.128   3.589
 2304SOL    HW1 6928   2.273   3.129   3.503
 2304SOL    HW2 6929   2.260   3.110   3.665
 2305SOL     OW 6930   2.973   3.638   2.099
 2305SOL    HW1 6931   2.913   3.576   2.149
 2305SOL    HW2 6932   3.004   3.594   2.014
 2306SOL     OW 6933   2.064   2.147   3.360
 2306SOL    HW1 6934   1.984   2.207   3.347
 2306SOL    HW2 6935   2.054   2.098   3.446
 2307SOL     OW 6936   3.494   3.239   1.943
 2307SOL    HW1 6937   3.462   3.333   1.933
 2307SOL    HW2 6938   3.418   3.176   1.931
 2308SOL     OW 6939   2.326   3.605   2.185
 2308SOL    HW1 6940   2.359   3.644   2.271
 2308SOL    HW2 6941   2.402   3.598   2.120
 2309SOL     OW 6942   3.262   1.969   2.288
 2309SOL    HW1 6943   3.238   1.932   2.198
 2309SOL    HW2 6944   3.361   1.985   2.292
 2310SOL     OW 6945   2.111   3.647   3.103
 2310SOL    HW1 6946   2.168   3.582   3.153
 2310SOL    HW2 6947   2.095   3.614   3.010
 2311SOL     OW 6948   2.802   3.560   2.766
 2311SOL    HW1 6949   2.882   3.503   2.787
 2311SOL    HW2 6950   2.753   3.520   2.689
 2312SOL     OW 6951   3.409   2.084   3.591
 2312SOL    HW1 6952   3.404   2.121   3.683
 2312SOL    HW2 6953   3.337   2.015   3.579
 2313SOL     OW 6954   2.476   1.984   1.979
 2313SOL    HW1 6955   2.574   1.962   1.986
 2313SOL    HW2 6956   2.445   1.967   1.886
 2314SOL     OW 6957   2.643   2.126   3.611
 2314SOL    HW1 6958   2.710   2.065   3.654
 2314SOL    HW2 6959   2.570   2.145   3.676
 2315SOL     OW 6960   2.750   3.376   3.057
 2315SOL    HW1 6961   2.727   3.351   2.963
 2315SOL    HW2 6962   2.811   3.307   3.096
 2316SOL     OW 6963   3.213   2.452   3.295
 2316SOL    HW1 6964   3.241   2.409   3.380
 2316SOL    HW2 6965   3.238   2.548   3.296
 2317SOL     OW 6966   2.665   3.264   2.786
 2317SOL    HW1 6967   2.755   3.278   2.744
 2317SOL    HW2 6968   2.594   3.266   2.715
 2318SOL     OW 6969   2.784   2.365   2.761
 2318SOL    HW1 6970   2.759   2.356   2.665
 2318SOL    HW2 6971   2.832   2.283   2.792
 2319SOL     OW 6972   2.401   1.926   2.374
 2319SOL    HW1 6973   2.320   1.927   2.432
 2319SOL    HW2 6974   2.404   2.009   2.319
 2320SOL     OW 6975   3.296   3.050   1.903
 2320SOL    HW1 6976   3.328   2.974   1.960
 2320SOL    HW2 6977   3.204   3.077   1.933
 2321SOL     OW 6978   2.159   1.897   2.033
 2321SOL    HW1 6979   2.208   1.981   2.012
 2321SOL    HW2 6980   2.221   1.832   2.078
 2322SOL     OW 6981   2.797   2.098   2.342
 2322SOL    HW1 6982   2.749   2.139   2.264
 2322SOL    HW2 6983   2.896   2.096   2.323
 2323SOL     OW 6984   2.938   2.545   3.326
 2323SOL    HW1 6985   2.858   2.484   3.329
 2323SOL    HW2 6986   3.019   2.492   3.302
 2324SOL     OW 6987   3.089   3.432   2.655
 2324SOL    HW1 6988   3.110   3.506   2.590
 2324SOL    HW2 6989   3.157   3.432   2.728
 2325SOL     OW 6990   2.321   3.014   2.603
 2325SOL    HW1 6991   2.250   2.987   2.668
 2325SOL    HW2 6992   2.295   2.986   2.510
 2326SOL     OW 6993   3.133   3.659   2.453
 2326SOL    HW1 6994   3.177   3.723   2.389
 2326SOL    HW2 6995   3.083   3.711   2.523
 2327SOL     OW 6996   2.894   2.411   1.878
 2327SOL    HW1 6997   2.853   2.493   1.839
 2327SOL    HW2 6998   2.958   2.437   1.951
 2328SOL     OW 6999   1.940   2.418   3.248
 2328SOL    HW1 7000   2.032   2.417   3.207
 2328SOL    HW2 7001   1.934   2.492   3.315
 2329SOL     OW 7002   2.423   2.084   3.009
 2329SOL    HW1 7003   2.461   2.000   3.046
 2329SOL    HW2 7004   2.335   2.103   3.053
 2330SOL     OW 7005   2.879   1.901   2.615
 2330SOL    HW1 7006   2.807   1.906   2.546
 2330SOL    HW2 7007   2.855   1.832   2.684
 2331SOL     OW 7008   3.291   3.035   2.729
 2331SOL    HW1 7009   3.236   2.951   2.722
 2331SOL    HW2 7010   3.317   3.064   2.637
 2332SOL     OW 7011   3.328   2.452   2.854
 2332SOL    HW1 7012   3.298   2.357   2.861
 2332SOL    HW2 7013   3.401   2.468   2.920
 2333SOL     OW 7014   3.719   2.695   2.239
 2333SOL    HW1 7015   3.761   2.631   2.303
 2333SOL    HW2 7016   3.681   2.644   2.161
 2334SOL     OW 7017   2.350   3.247   2.036
 2334SOL    HW1 7018   2.263   3.232   2.083
 2334SOL    HW2 7019   2.333   3.273   1.941
 2335SOL     OW 7020   3.526   3.142   2.519
 2335SOL    HW1 7021   3.625   3.150   2.533
 2335SOL    HW2 7022   3.481   3.226   2.550
 2336SOL     OW 7023   3.252   2.437   1.940
 2336SOL    HW1 7024   3.198   2.416   2.021
 2336SOL    HW2 7025   3.343   2.396   1.949
 2337SOL     OW 7026   2.389   2.118   2.190
 2337SOL    HW1 7027   2.416   2.059   2.115
 2337SOL    HW2 7028   2.389   2.213   2.159
 2338SOL     OW 7029   3.616   3.085   3.450
 2338SOL    HW1 7030   3.707   3.046   3.437
 2338SOL    HW2 7031   3.624   3.181   3.474
 2339SOL     OW 7032   2.926   3.209   3.202
 2339SOL    HW1 7033   2.846   3.186   3.257
 2339SOL    HW2 7034   3.009   3.183   3.251
 2340SOL     OW 7035   3.454   3.491   3.487
 2340SOL    HW1 7036   3.481   3.525   3.397
 2340SOL    HW2 7037   3.533   3.453   3.533
 2341SOL     OW 7038   2.973   3.057   2.962
 2341SOL    HW1 7039   2.933   3.101   3.043
 2341SOL    HW2 7040   2.932   3.094   2.879
 2342SOL     OW 7041   3.500   2.961   2.941
 2342SOL    HW1 7042   3.505   3.042   3.000
 2342SOL    HW2 7043   3.414   2.963   2.890
 2343SOL     OW 7044   2.777   1.951   3.264
 2343SOL    HW1 7045   2.802   1.931   3.169
 2343SOL    HW2 7046   2.849   2.007   3.306
 2344SOL     OW 7047   2.842   2.978   3.581
 2344SOL    HW1 7048   2.743   2.984   3.591
 2344SOL    HW2 7049   2.865   2.898   3.525
 2345SOL     OW 7050   2.567   2.912   2.230
 2345SOL    HW1 7051   2.553   2.919   2.329
 2345SOL    HW2 7052   2.651   2.861   2.212
 2346SOL     OW 7053   2.272   2.675   3.113
 2346SOL    HW1 7054   2.358   2.687   3.163
 2346SOL    HW2 7055   2.230   2.588   3.140
 2347SOL     OW 7056   3.136   2.248   3.124
 2347SOL    HW1 7057   3.157   2.322   3.188
 2347SOL    HW2 7058   3.047   2.265   3.081
 2348SOL     OW 7059   1.926   3.426   3.193
 2348SOL    HW1 7060   1.880   3.508   3.159
 2348SOL    HW2 7061   2.024   3.445   3.202
 2349SOL     OW 7062   2.229   2.962   2.363
 2349SOL    HW1 7063   2.222   3.045   2.307
 2349SOL    HW2 7064   2.233   2.882   2.303
 2350SOL     OW 7065   3.114   3.210   2.250
 2350SOL    HW1 7066   3.164   3.287   2.290
 2350SOL    HW2 7067   3.019   3.212   2.282
 2351SOL     OW 7068   3.134   3.307   3.004
 2351SOL    HW1 7069   3.181   3.320   3.091
 2351SOL    HW2 7070   3.068   3.233   3.013
 2352SOL     OW 7071   3.444   2.501   2.334
 2352SOL    HW1 7072   3.413   2.562   2.407
 2352SOL    HW2 7073   3.494   2.553   2.265
 2353SOL     OW 7074   2.216   3.372   3.191
 2353SOL    HW1 7075   2.195   3.328   3.104
 2353SOL    HW2 7076   2.313   3.398   3.194
 2354SOL     OW 7077   2.264   2.613   3.460
 2354SOL    HW1 7078   2.332   2.668   3.413
 2354SOL    HW2 7079   2.304   2.525   3.487
 2355SOL     OW 7080   3.449   2.641   3.532
 2355SOL    HW1 7081   3.357   2.679   3.527
 2355SOL    HW2 7082   3.509   2.688   3.467
 2356SOL     OW 7083   2.875   1.967   3.632
 2356SOL    HW1 7084   2.881   2.052   3.580
 2356SOL    HW2 7085   2.907   1.891   3.575
 2357SOL     OW 7086   2.366   1.912   3.602
 2357SOL    HW1 7087   2.324   1.855   3.532
 2357SOL    HW2 7088   2.300   1.981   3.634
 2358SOL     OW 7089   2.435   2.732   2.891
 2358SOL    HW1 7090   2.479   2.821   2.882
 2358SOL    HW2 7091   2.372   2.732   2.968
 2359SOL     OW 7092   3.222   2.724   2.907
 2359SOL    HW1 7093   3.147   2.724   2.841
 2359SOL    HW2 7094   3.259   2.632   2.916
 2360SOL     OW 7095   3.071   2.387   2.137
 2360SOL    HW1 7096   3.084   2.303   2.191
 2360SOL    HW2 7097   3.042   2.461   2.197
 2361SOL     OW 7098   2.169   2.075   3.093
 2361SOL    HW1 7099   2.146   2.112   3.183
 2361SOL    HW2 7100   2.139   1.980   3.087
 2362SOL     OW 7101   1.899   3.172   3.144
 2362SOL    HW1 7102   1.952   3.123   3.212
 2362SOL    HW2 7103   1.921   3.270   3.149
 2363SOL     OW 7104   3.590   2.797   3.716
 2363SOL    HW1 7105   3.544   2.790   3.627
 2363SOL    HW2 7106   3.528   2.841   3.782
 2364SOL     OW 7107   2.169   1.925   2.480
 2364SOL    HW1 7108   2.158   2.019   2.513
 2364SOL    HW2 7109   2.164   1.862   2.557
 2365SOL     OW 7110   3.484   2.229   2.236
 2365SOL    HW1 7111   3.486   2.153   2.300
 2365SOL    HW2 7112   3.436   2.306   2.276
 2366SOL     OW 7113   2.885   2.628   2.828
 2366SOL    HW1 7114   2.900   2.649   2.924
 2366SOL    HW2 7115   2.855   2.533   2.819
 2367SOL     OW 7116   2.842   3.435   3.562
 2367SOL    HW1 7117   2.822   3.479   3.474
 2367SOL    HW2 7118   2.881   3.344   3.546
 2368SOL     OW 7119   3.721   3.380   3.467
 2368SOL    HW1 7120   3.735   3.407   3.372
 2368SOL    HW2 7121   3.804   3.402   3.520
 2369SOL     OW 7122   2.212   2.760   3.666
 2369SOL    HW1 7123   2.288   2.804   3.714
 2369SOL    HW2 7124   2.247   2.713   3.584
 2370SOL     OW 7125   3.402   2.136   1.987
 2370SOL    HW1 7126   3.341   2.061   2.010
 2370SOL    HW2 7127   3.424   2.188   2.070
 2371SOL     OW 7128   3.165   2.700   1.904
 2371SOL    HW1 7129   3.199   2.607   1.919
 2371SOL    HW2 7130   3.183   2.727   1.809
 2372SOL     OW 7131   2.930   3.195   2.711
 2372SOL    HW1 7132   2.937   3.111   2.656
 2372SOL    HW2 7133   2.992   3.264   2.675
 2373SOL     OW 7134   2.181   2.672   2.811
 2373SOL    HW1 7135   2.274   2.708   2.816
 2373SOL    HW2 7136   2.175   2.587   2.863
 2374SOL     OW 7137   2.201   2.371   2.868
 2374SOL    HW1 7138   2.149   2.288   2.851
 2374SOL    HW2 7139   2.278   2.376   2.804
 2375SOL     OW 7140   3.000   2.242   3.540
 2375SOL    HW1 7141   2.955   2.305   3.604
 2375SOL    HW2 7142   3.093   2.273   3.523
 2376SOL     OW 7143   3.022   2.069   3.339
 2376SOL    HW1 7144   3.022   2.133   3.416
 2376SOL    HW2 7145   3.050   2.117   3.256
 2377SOL     OW 7146   1.870   3.188   2.062
 2377SOL    HW1 7147   1.777   3.209   2.031
 2377SOL    HW2 7148   1.880   3.089   2.075
 2378SOL     OW 7149   1.950   3.663   2.789
 2378SOL    HW1 7150   1.908   3.577   2.762
 2378SOL    HW2 7151   2.044   3.666   2.755
 2379SOL     OW 7152   2.366   3.430   2.772
 2379SOL    HW1 7153   2.432   3.504   2.781
 2379SOL    HW2 7154   2.410   3.351   2.730
 2380SOL     OW 7155   2.864   2.658   3.100
 2380SOL    HW1 7156   2.905   2.626   3.186
 2380SOL    HW2 7157   2.768   2.631   3.097
 2381SOL     OW 7158   1.902   2.406   2.976
 2381SOL    HW1 7159   1.987   2.373   2.935
 2381SOL    HW2 7160   1.915   2.421   3.074
 2382SOL     OW 7161   2.051   2.382   3.584
 2382SOL    HW1 7162   2.110   2.342   3.514
 2382SOL    HW2 7163   1.993   2.453   3.543
 2383SOL     OW 7164   3.231   2.812   3.522
 2383SOL    HW1 7165   3.270   2.901   3.542
 2383SOL    HW2 7166   3.241   2.792   3.425
 2384SOL     OW 7167   3.519   2.466   3.068
 2384SOL    HW1 7168   3.481   2.397   3.130
 2384SOL    HW2 7169   3.601   2.430   3.024
 2385SOL     OW 7170   2.114   3.426   3.606
 2385SOL    HW1 7171   2.084   3.483   3.682
 2385SOL    HW2 7172   2.107   3.329   3.632
 2386SOL     OW 7173   2.533   2.326   3.131
 2386SOL    HW1 7174   2.499   2.237   3.101
 2386SOL    HW2 7175   2.559   2.380   3.051
 2387SOL     OW 7176   2.792   3.540   3.327
 2387SOL    HW1 7177   2.768   3.522   3.232
 2387SOL    HW2 7178   2.822   3.634   3.337
 2388SOL     OW 7179   2.021   2.999   3.328
 2388SOL    HW1 7180   2.043   2.938   3.404
 2388SOL    HW2 7181   2.031   2.950   3.242
 2389SOL     OW 7182   3.209   2.921   3.096
 2389SOL    HW1 7183   3.233   2.858   3.022
 2389SOL    HW2 7184   3.119   2.961   3.078
 2390SOL     OW 7185   3.164   2.717   2.171
 2390SOL    HW1 7186   3.078   2.686   2.213
 2390SOL    HW2 7187   3.160   2.703   2.072
 2391SOL     OW 7188   3.621   3.609   3.016
 2391SOL    HW1 7189   3.682   3.639   2.943
 2391SOL    HW2 7190   3.583   3.520   2.994
 2392SOL     OW 7191   3.114   3.593   2.990
 2392SOL    HW1 7192   3.198   3.598   2.936
 2392SOL    HW2 7193   3.091   3.497   3.008
 2393SOL     OW 7194   1.945   3.120   2.884
 2393SOL    HW1 7195   1.940   3.119   2.984
 2393SOL    HW2 7196   1.862   3.079   2.846
 2394SOL     OW 7197   2.550   3.524   3.578
 2394SOL    HW1 7198   2.494   3.605   3.587
 2394SOL    HW2 7199   2.602   3.528   3.492
 2395SOL     OW 7200   3.588   1.997   2.385
 2395SOL    HW1 7201   3.661   1.980   2.318
 2395SOL    HW2 7202   3.557   1.910   2.423
 2396SOL     OW 7203   3.250   3.435   2.339
 2396SOL    HW1 7204   3.317   3.447   2.265
 2396SOL    HW2 7205   3.210   3.524   2.362
 2397SOL     OW 7206   1.992   3.656   3.713
 2397SOL    HW1 7207   1.951   3.582   3.766
 2397SOL    HW2 7208   2.056   3.707   3.771
 2398SOL     OW 7209   3.142   2.789   2.534
 2398SOL    HW1 7210   3.202   2.708   2.536
 2398SOL    HW2 7211   3.182   2.858   2.474
 2399SOL     OW 7212   2.692   3.135   3.284
 2399SOL    HW1 7213   2.687   3.168   3.379
 2399SOL    HW2 7214   2.606   3.154   3.238
 2400SOL     OW 7215   2.534   3.478   2.016
 2400SOL    HW1 7216   2.543   3.488   1.917
 2400SOL    HW2 7217   2.494   3.389   2.037
 2401SOL     OW 7218   3.512   3.582   3.256
 2401SOL    HW1 7219   3.565   3.592   3.172
 2401SOL    HW2 7220   3.485   3.672   3.290
 2402SOL     OW 7221   3.703   2.037   2.825
 2402SOL    HW1 7222   3.742   1.952   2.789
 2402SOL    HW2 7223   3.605   2.039   2.806
 2403SOL     OW 7224   2.125   2.188   2.582
 2403SOL    HW1 7225   2.046   2.239   2.548
 2403SOL    HW2 7226   2.116   2.173   2.680
 2404SOL     OW 7227   3.056   3.474   1.893
 2404SOL    HW1 7228   3.062   3.381   1.930
 2404SOL    HW2 7229   2.997   3.474   1.813
 2405SOL     OW 7230   2.684   2.864   3.234
 2405SOL    HW1 7231   2.724   2.863   3.142
 2405SOL    HW2 7232   2.694   2.956   3.274
 2406SOL     OW 7233   2.778   2.772   2.153
 2406SOL    HW1 7234   2.841   2.810   2.085
 2406SOL    HW2 7235   2.818   2.689   2.192
 2407SOL     OW 7236   3.366   3.469   1.906
 2407SOL    HW1 7237   3.274   3.506   1.913
 2407SOL    HW2 7238   3.404   3.489   1.816
 2408SOL     OW 7239   2.234   3.150   3.352
 2408SOL    HW1 7240   2.221   3.243   3.318
 2408SOL    HW2 7241   2.150   3.098   3.339
 2409SOL     OW 7242   3.476   3.154   3.151
 2409SOL    HW1 7243   3.536   3.157   3.231
 2409SOL    HW2 7244   3.401   3.218   3.164
 2410SOL     OW 7245   2.901   2.960   2.558
 2410SOL    HW1 7246   2.831   2.913   2.612
 2410SOL    HW2 7247   2.960   2.892   2.515
 2411SOL     OW 7248   2.876   2.098   2.833
 2411SOL    HW1 7249   2.868   2.062   2.740
 2411SOL    HW2 7250   2.874   2.022   2.898
 2412SOL     OW 7251   2.452   3.349   2.353
 2412SOL    HW1 7252   2.494   3.291   2.283
 2412SOL    HW2 7253   2.408   3.428   2.309
 2413SOL     OW 7254   3.571   2.247   3.243
 2413SOL    HW1 7255   3.644   2.316   3.247
 2413SOL    HW2 7256   3.599   2.172   3.184
 2414SOL     OW 7257   2.117   3.210   2.152
 2414SOL    HW1 7258   2.021   3.211   2.125
 2414SOL    HW2 7259   2.129   3.263   2.236
 2415SOL     OW 7260   1.967   2.875   3.588
 2415SOL    HW1 7261   1.890   2.842   3.642
 2415SOL    HW2 7262   2.052   2.845   3.630
 2416SOL     OW 7263   2.534   2.065   3.351
 2416SOL    HW1 7264   2.624   2.049   3.311
 2416SOL    HW2 7265   2.542   2.070   3.450
 2417SOL     OW 7266   1.937   2.207   1.895
 2417SOL    HW1 7267   1.845   2.179   1.866
 2417SOL    HW2 7268   1.968   2.284   1.839
 2418SOL     OW 7269   3.302   2.718   3.260
 2418SOL    HW1 7270   3.245   2.770   3.197
 2418SOL    HW2 7271   3.398   2.730   3.236
 2419SOL     OW 7272   1.934   2.028   2.180
 2419SOL    HW1 7273   1.917   2.111   2.126
 2419SOL    HW2 7274   2.024   1.991   2.158
 2420SOL     OW 7275   3.045   3.197   1.981
 2420SOL    HW1 7276   2.946   3.186   1.983
 2420SOL    HW2 7277   3.079   3.212   2.074
 2421SOL     OW 7278   2.475   2.704   3.293
 2421SOL    HW1 7279   2.531   2.785   3.276
 2421SOL    HW2 7280   2.534   2.624   3.296
 2422SOL     OW 7281   3.355   3.629   2.821
 2422SOL    HW1 7282   3.388   3.693   2.752
 2422SOL    HW2 7283   3.421   3.623   2.896
 2423SOL     OW 7284   2.578   2.427   3.570
 2423SOL    HW1 7285   2.597   2.492   3.644
 2423SOL    HW2 7286   2.638   2.347   3.579
 2424SOL     OW 7287   3.312   3.082   3.495
 2424SOL    HW1 7288   3.303   3.072   3.594
 2424SOL    HW2 7289   3.408   3.075   3.469
 2425SOL     OW 7290   2.252   3.603   3.422
 2425SOL    HW1 7291   2.161   3.644   3.420
 2425SOL    HW2 7292   2.245   3.509   3.454
 2426SOL     OW 7293   3.536   2.745   3.116
 2426SOL    HW1 7294   3.509   2.656   3.079
 2426SOL    HW2 7295   3.537   2.813   3.043
 2427SOL     OW 7296   3.087   2.187   2.311
 2427SOL    HW1 7297   3.152   2.113   2.300
 2427SOL    HW2 7298   3.107   2.237   2.395
 2428SOL     OW 7299   3.639   2.204   3.504
 2428SOL    HW1 7300   3.622   2.235   3.410
 2428SOL    HW2 7301   3.555   2.167   3.542
 2429SOL     OW 7302   3.592   2.796   3.379
 2429SOL    HW1 7303   3.630   2.887   3.394
 2429SOL    HW2 7304   3.584   2.779   3.280
 2430SOL     OW 7305   2.721   3.236   1.878
 2430SOL    HW1 7306   2.675   3.251   1.966
 2430SOL    HW2 7307   2.765   3.321   1.848
 2431SOL     OW 7308   2.523   3.652   2.815
 2431SOL    HW1 7309   2.477   3.740   2.802
 2431SOL    HW2 7310   2.622   3.664   2.808
 2432SOL     OW 7311   2.721   2.818   2.723
 2432SOL    HW1 7312   2.775   2.749   2.771
 2432SOL    HW2 7313   2.689   2.887   2.789
 2433SOL     OW 7314   2.945   2.846   1.949
 2433SOL    HW1 7315   2.922   2.899   1.867
 2433SOL    HW2 7316   3.026   2.790   1.930
 2434SOL     OW 7317   3.723   3.431   2.713
 2434SOL    HW1 7318   3.652   3.419   2.643
 2434SOL    HW2 7319   3.724   3.352   2.773
 2435SOL     OW 7320   2.083   3.176   3.706
 2435SOL    HW1 7321   2.018   3.103   3.685
 2435SOL    HW2 7322   2.087   3.190   3.804
 2436SOL     OW 7323   1.941   3.102   2.515
 2436SOL    HW1 7324   1.940   3.055   2.603
 2436SOL    HW2 7325   2.023   3.074   2.464
 2437SOL     OW 7326   2.534   3.253   3.486
 2437SOL    HW1 7327   2.456   3.203   3.524
 2437SOL    HW2 7328   2.531   3.348   3.517
 2438SOL     OW 7329   3.686   2.054   3.089
 2438SOL    HW1 7330   3.682   1.964   3.133
 2438SOL    HW2 7331   3.689   2.043   2.990
 2439SOL     OW 7332   2.290   2.286   2.382
 2439SOL    HW1 7333   2.320   2.214   2.320
 2439SOL    HW2 7334   2.251   2.246   2.465
 2440SOL     OW 7335   3.567   3.349   2.966
 2440SOL    HW1 7336   3.474   3.324   2.939
 2440SOL    HW2 7337   3.593   3.299   3.048
 2441SOL     OW 7338   2.179   2.409   3.142
 2441SOL    HW1 7339   2.217   2.350   3.214
 2441SOL    HW2 7340   2.219   2.383   3.054
 2442SOL     OW 7341   2.674   3.448   2.549
 2442SOL    HW1 7342   2.706   3.458   2.455
 2442SOL    HW2 7343   2.595   3.386   2.551
 2443SOL     OW 7344   3.286   2.076   2.974
 2443SOL    HW1 7345   3.338   2.011   3.029
 2443SOL    HW2 7346   3.237   2.139   3.035
 2444SOL     OW 7347   2.863   1.896   3.016
 2444SOL    HW1 7348   2.800   1.824   2.985
 2444SOL    HW2 7349   2.956   1.860   3.016
 2445SOL     OW 7350   2.632   3.192   2.163
 2445SOL    HW1 7351   2.586   3.105   2.180
 2445SOL    HW2 7352   2.723   3.189   2.204
 2446SOL     OW 7353   2.480   3.429   3.146
 2446SOL    HW1 7354   2.475   3.511   3.203
 2446SOL    HW2 7355   2.569   3.426   3.101
 2447SOL     OW 7356   3.214   1.914   2.030
 2447SOL    HW1 7357   3.249   1.873   1.946
 2447SOL    HW2 7358   3.124   1.876   2.050
 2448SOL     OW 7359   3.162   2.315   2.553
 2448SOL    HW1 7360   3.103   2.395   2.557
 2448SOL    HW2 7361   3.177   2.280   2.646
 2449SOL     OW 7362   3.455   2.083   2.744
 2449SOL    HW1 7363   3.371   2.082   2.798
 2449SOL    HW2 7364   3.457   2.166   2.688
 2450SOL     OW 7365   1.901   2.939   2.162
 2450SOL    HW1 7366   2.000   2.928   2.153
 2450SOL    HW2 7367   1.861   2.853   2.194
 2451SOL     OW 7368   2.737   3.508   2.199
 2451SOL    HW1 7369   2.660   3.473   2.145
 2451SOL    HW2 7370   2.705   3.579   2.261
 2452SOL     OW 7371   2.092   2.490   3.837
 2452SOL    HW1 7372   1.999   2.488   3.874
 2452SOL    HW2 7373   2.093   2.451   3.745
 2453SOL     OW 7374   2.087   2.137   4.720
 2453SOL    HW1 7375   2.122   2.120   4.812
 2453SOL    HW2 7376   1.999   2.092   4.708
 2454SOL     OW 7377   1.881   2.230   4.371
 2454SOL    HW1 7378   1.799   2.273   4.410
 2454SOL    HW2 7379   1.853   2.157   4.308
 2455SOL     OW 7380   3.417   3.373   4.427
 2455SOL    HW1 7381   3.360   3.357   4.508
 2455SOL    HW2 7382   3.358   3.383   4.347
 2456SOL     OW 7383   2.997   2.565   4.441
 2456SOL    HW1 7384   3.054   2.643   4.416
 2456SOL    HW2 7385   2.937   2.591   4.517
 2457SOL     OW 7386   3.617   2.469   3.955
 2457SOL    HW1 7387   3.605   2.456   3.856
 2457SOL    HW2 7388   3.587   2.388   4.004
 2458SOL     OW 7389   2.630   3.006   4.747
 2458SOL    HW1 7390   2.552   3.023   4.807
 2458SOL    HW2 7391   2.664   3.093   4.711
 2459SOL     OW 7392   2.547   2.874   4.389
 2459SOL    HW1 7393   2.616   2.858   4.459
 2459SOL    HW2 7394   2.474   2.931   4.427
 2460SOL     OW 7395   2.197   3.297   4.785
 2460SOL    HW1 7396   2.119   3.266   4.732
 2460SOL    HW2 7397   2.255   3.355   4.728
 2461SOL     OW 7398   3.465   2.309   4.461
 2461SOL    HW1 7399   3.391   2.355   4.411
 2461SOL    HW2 7400   3.516   2.377   4.514
 2462SOL     OW 7401   2.093   3.575   4.207
 2462SOL    HW1 7402   2.127   3.652   4.261
 2462SOL    HW2 7403   2.137   3.575   4.117
 2463SOL     OW 7404   2.092   3.296   4.262
 2463SOL    HW1 7405   2.066   3.392   4.262
 2463SOL    HW2 7406   2.021   3.242   4.307
 2464SOL     OW 7407   2.102   2.953   4.610
 2464SOL    HW1 7408   2.116   2.869   4.662
 2464SOL    HW2 7409   2.047   3.017   4.665
 2465SOL     OW 7410   2.468   2.826   3.847
 2465SOL    HW1 7411   2.475   2.910   3.793
 2465SOL    HW2 7412   2.514   2.839   3.935
 2466SOL     OW 7413   1.984   2.505   4.287
 2466SOL    HW1 7414   1.939   2.417   4.304
 2466SOL    HW2 7415   1.983   2.559   4.371
 2467SOL     OW 7416   3.704   3.629   4.083
 2467SOL    HW1 7417   3.758   3.600   4.163
 2467SOL    HW2 7418   3.734   3.719   4.054
 2468SOL     OW 7419   1.889   3.458   3.841
 2468SOL    HW1 7420   1.870   3.362   3.862
 2468SOL    HW2 7421   1.856   3.516   3.916
 2469SOL     OW 7422   3.551   2.784   4.336
 2469SOL    HW1 7423   3.646   2.755   4.344
 2469SOL    HW2 7424   3.543   2.849   4.261
 2470SOL     OW 7425   3.503   2.970   4.156
 2470SOL    HW1 7426   3.589   2.972   4.104
 2470SOL    HW2 7427   3.517   3.017   4.244
 2471SOL     OW 7428   2.475   3.227   4.450
 2471SOL    HW1 7429   2.426   3.140   4.459
 2471SOL    HW2 7430   2.452   3.270   4.363
 2472SOL     OW 7431   2.671   1.866   4.226
 2472SOL    HW1 7432   2.711   1.957   4.217
 2472SOL    HW2 7433   2.571   1.874   4.232
 2473SOL     OW 7434   2.059   2.838   4.988
 2473SOL    HW1 7435   2.148   2.793   4.974
 2473SOL    HW2 7436   1.986   2.773   4.969
 2474SOL     OW 7437   3.387   2.861   3.914
 2474SOL    HW1 7438   3.324   2.785   3.927
 2474SOL    HW2 7439   3.435   2.879   4.000
 2475SOL     OW 7440   3.328   3.279   4.677
 2475SOL    HW1 7441   3.269   3.285   4.757
 2475SOL    HW2 7442   3.313   3.191   4.631
 2476SOL     OW 7443   3.529   3.576   4.296
 2476SOL    HW1 7444   3.488   3.553   4.208
 2476SOL    HW2 7445   3.511   3.502   4.361
 2477SOL     OW 7446   2.460   2.591   3.994
 2477SOL    HW1 7447   2.484   2.660   3.926
 2477SOL    HW2 7448   2.382   2.624   4.048
 2478SOL     OW 7449   3.143   2.207   4.668
 2478SOL    HW1 7450   3.057   2.157   4.655
 2478SOL    HW2 7451   3.205   2.153   4.724
 2479SOL     OW 7452   3.438   3.524   4.031
 2479SOL    HW1 7453   3.527   3.570   4.034
 2479SOL    HW2 7454   3.417   3.500   3.936
 2480SOL     OW 7455   2.903   2.563   4.153
 2480SOL    HW1 7456   2.929   2.559   4.249
 2480SOL    HW2 7457   2.818   2.512   4.139
 2481SOL     OW 7458   1.938   2.673   4.513
 2481SOL    HW1 7459   2.037   2.661   4.522
 2481SOL    HW2 7460   1.914   2.768   4.534
 2482SOL     OW 7461   2.727   2.210   3.919
 2482SOL    HW1 7462   2.786   2.273   3.870
 2482SOL    HW2 7463   2.746   2.116   3.890
 2483SOL     OW 7464   3.224   3.006   4.269
 2483SOL    HW1 7465   3.307   2.977   4.221
 2483SOL    HW2 7466   3.175   3.073   4.213
 2484SOL     OW 7467   2.412   2.058   4.609
 2484SOL    HW1 7468   2.407   2.053   4.709
 2484SOL    HW2 7469   2.414   2.154   4.580
 2485SOL     OW 7470   2.870   3.318   4.201
 2485SOL    HW1 7471   2.824   3.390   4.149
 2485SOL    HW2 7472   2.866   3.338   4.299
 2486SOL     OW 7473   2.213   3.663   4.577
 2486SOL    HW1 7474   2.263   3.577   4.583
 2486SOL    HW2 7475   2.278   3.740   4.574
 2487SOL     OW 7476   3.657   2.928   4.597
 2487SOL    HW1 7477   3.595   2.913   4.521
 2487SOL    HW2 7478   3.605   2.939   4.682
 2488SOL     OW 7479   2.183   2.805   3.966
 2488SOL    HW1 7480   2.265   2.844   3.924
 2488SOL    HW2 7481   2.156   2.723   3.917
 2489SOL     OW 7482   3.320   2.597   4.452
 2489SOL    HW1 7483   3.315   2.532   4.527
 2489SOL    HW2 7484   3.400   2.656   4.465
 2490SOL     OW 7485   2.973   3.638   3.961
 2490SOL    HW1 7486   2.913   3.576   4.011
 2490SOL    HW2 7487   3.004   3.594   3.876
 2491SOL     OW 7488   3.494   3.239   3.805
 2491SOL    HW1 7489   3.462   3.333   3.795
 2491SOL    HW2 7490   3.418   3.176   3.793
 2492SOL     OW 7491   2.326   3.605   4.047
 2492SOL    HW1 7492   2.359   3.644   4.133
 2492SOL    HW2 7493   2.402   3.598   3.982
 2493SOL     OW 7494   3.262   1.969   4.150
 2493SOL    HW1 7495   3.238   1.932   4.060
 2493SOL    HW2 7496   3.361   1.985   4.154
 2494SOL     OW 7497   2.111   3.647   4.965
 2494SOL    HW1 7498   2.168   3.582   5.015
 2494SOL    HW2 7499   2.095   3.614   4.872
 2495SOL     OW 7500   2.802   3.560   4.628
 2495SOL    HW1 7501   2.882   3.503   4.649
 2495SOL    HW2 7502   2.753   3.520   4.551
 2496SOL     OW 7503   2.244   2.562   4.204
 2496SOL    HW1 7504   2.289   2.472   4.201
 2496SOL    HW2 7505   2.150   2.551   4.237
 2497SOL     OW 7506   2.476   1.984   3.841
 2497SOL    HW1 7507   2.574   1.962   3.848
 2497SOL    HW2 7508   2.445   1.967   3.748
 2498SOL     OW 7509   2.665   3.264   4.648
 2498SOL    HW1 7510   2.755   3.278   4.606
 2498SOL    HW2 7511   2.594   3.266   4.577
 2499SOL     OW 7512   2.784   2.365   4.623
 2499SOL    HW1 7513   2.759   2.356   4.527
 2499SOL    HW2 7514   2.832   2.283   4.654
 2500SOL     OW 7515   2.401   1.926   4.236
 2500SOL    HW1 7516   2.320   1.927   4.294
 2500SOL    HW2 7517   2.404   2.009   4.181
 2501SOL     OW 7518   3.296   3.050   3.765
 2501SOL    HW1 7519   3.328   2.974   3.822
 2501SOL    HW2 7520   3.204   3.077   3.795
 2502SOL     OW 7521   2.159   1.897   3.895
 2502SOL    HW1 7522   2.208   1.981   3.874
 2502SOL    HW2 7523   2.221   1.832   3.940
 2503SOL     OW 7524   2.797   2.098   4.204
 2503SOL    HW1 7525   2.749   2.139   4.126
 2503SOL    HW2 7526   2.896   2.096   4.185
 2504SOL     OW 7527   3.089   3.432   4.517
 2504SOL    HW1 7528   3.110   3.506   4.452
 2504SOL    HW2 7529   3.157   3.432   4.590
 2505SOL     OW 7530   2.321   3.014   4.465
 2505SOL    HW1 7531   2.250   2.987   4.530
 2505SOL    HW2 7532   2.295   2.986   4.372
 2506SOL     OW 7533   3.133   3.659   4.315
 2506SOL    HW1 7534   3.177   3.723   4.251
 2506SOL    HW2 7535   3.083   3.711   4.385
 2507SOL     OW 7536   2.894   2.411   3.740
 2507SOL    HW1 7537   2.853   2.493   3.701
 2507SOL    HW2 7538   2.958   2.437   3.813
 2508SOL     OW 7539   2.728   2.316   4.366
 2508SOL    HW1 7540   2.696   2.388   4.304
 2508SOL    HW2 7541   2.752   2.235   4.313
 2509SOL     OW 7542   2.879   1.901   4.477
 2509SOL    HW1 7543   2.807   1.906   4.408
 2509SOL    HW2 7544   2.855   1.832   4.546
 2510SOL     OW 7545   3.291   3.035   4.591
 2510SOL    HW1 7546   3.236   2.951   4.584
 2510SOL    HW2 7547   3.317   3.064   4.499
 2511SOL     OW 7548   3.328   2.452   4.716
 2511SOL    HW1 7549   3.298   2.357   4.723
 2511SOL    HW2 7550   3.401   2.468   4.782
 2512SOL     OW 7551   3.719   2.695   4.101
 2512SOL    HW1 7552   3.761   2.631   4.165
 2512SOL    HW2 7553   3.681   2.644   4.023
 2513SOL     OW 7554   2.350   3.247   3.898
 2513SOL    HW1 7555   2.263   3.232   3.945
 2513SOL    HW2 7556   2.333   3.273   3.803
 2514SOL     OW 7557   3.526   3.142   4.381
 2514SOL    HW1 7558   3.625   3.150   4.395
 2514SOL    HW2 7559   3.481   3.226   4.412
 2515SOL     OW 7560   3.252   2.437   3.802
 2515SOL    HW1 7561   3.198   2.416   3.883
 2515SOL    HW2 7562   3.343   2.396   3.811
 2516SOL     OW 7563   2.389   2.118   4.052
 2516SOL    HW1 7564   2.416   2.059   3.977
 2516SOL    HW2 7565   2.389   2.213   4.021
 2517SOL     OW 7566   2.973   3.057   4.824
 2517SOL    HW1 7567   2.933   3.101   4.905
 2517SOL    HW2 7568   2.932   3.094   4.741
 2518SOL     OW 7569   3.500   2.961   4.803
 2518SOL    HW1 7570   3.505   3.042   4.862
 2518SOL    HW2 7571   3.414   2.963   4.752
 2519SOL     OW 7572   2.567   2.912   4.092
 2519SOL    HW1 7573   2.553   2.919   4.191
 2519SOL    HW2 7574   2.651   2.861   4.074
 2520SOL     OW 7575   2.272   2.675   4.975
 2520SOL    HW1 7576   2.358   2.687   5.025
 2520SOL    HW2 7577   2.230   2.588   5.002
 2521SOL     OW 7578   2.229   2.962   4.225
 2521SOL    HW1 7579   2.222   3.045   4.169
 2521SOL    HW2 7580   2.233   2.882   4.165
 2522SOL     OW 7581   2.428   2.399   4.589
 2522SOL    HW1 7582   2.440   2.465   4.515
 2522SOL    HW2 7583   2.474   2.433   4.672
 2523SOL     OW 7584   3.114   3.210   4.112
 2523SOL    HW1 7585   3.164   3.287   4.152
 2523SOL    HW2 7586   3.019   3.212   4.144
 2524SOL     OW 7587   3.134   3.307   4.866
 2524SOL    HW1 7588   3.181   3.320   4.953
 2524SOL    HW2 7589   3.068   3.233   4.875
 2525SOL     OW 7590   3.444   2.501   4.196
 2525SOL    HW1 7591   3.413   2.562   4.269
 2525SOL    HW2 7592   3.494   2.553   4.127
 2526SOL     OW 7593   2.216   3.372   5.053
 2526SOL    HW1 7594   2.195   3.328   4.966
 2526SOL    HW2 7595   2.313   3.398   5.056
 2527SOL     OW 7596   2.435   2.732   4.753
 2527SOL    HW1 7597   2.479   2.821   4.744
 2527SOL    HW2 7598   2.372   2.732   4.830
 2528SOL     OW 7599   3.071   2.387   3.999
 2528SOL    HW1 7600   3.084   2.303   4.053
 2528SOL    HW2 7601   3.042   2.461   4.059
 2529SOL     OW 7602   2.594   2.496   4.788
 2529SOL    HW1 7603   2.653   2.470   4.712
 2529SOL    HW2 7604   2.566   2.592   4.777
 2530SOL     OW 7605   2.169   1.925   4.342
 2530SOL    HW1 7606   2.158   2.019   4.375
 2530SOL    HW2 7607   2.164   1.862   4.419
 2531SOL     OW 7608   3.484   2.229   4.098
 2531SOL    HW1 7609   3.486   2.153   4.162
 2531SOL    HW2 7610   3.436   2.306   4.138
 2532SOL     OW 7611   2.885   2.628   4.690
 2532SOL    HW1 7612   2.900   2.649   4.786
 2532SOL    HW2 7613   2.855   2.533   4.681
 2533SOL     OW 7614   3.402   2.136   3.849
 2533SOL    HW1 7615   3.341   2.061   3.872
 2533SOL    HW2 7616   3.424   2.188   3.932
 2534SOL     OW 7617   3.165   2.700   3.766
 2534SOL    HW1 7618   3.199   2.607   3.781
 2534SOL    HW2 7619   3.183   2.727   3.671
 2535SOL     OW 7620   2.930   3.195   4.573
 2535SOL    HW1 7621   2.937   3.111   4.518
 2535SOL    HW2 7622   2.992   3.264   4.537
 2536SOL     OW 7623   2.181   2.672   4.673
 2536SOL    HW1 7624   2.274   2.708   4.678
 2536SOL    HW2 7625   2.175   2.587   4.725
 2537SOL     OW 7626   2.201   2.371   4.730
 2537SOL    HW1 7627   2.149   2.288   4.713
 2537SOL    HW2 7628   2.278   2.376   4.666
 2538SOL     OW 7629   1.870   3.188   3.924
 2538SOL    HW1 7630   1.777   3.209   3.893
 2538SOL    HW2 7631   1.880   3.089   3.937
 2539SOL     OW 7632   1.950   3.663   4.651
 2539SOL    HW1 7633   1.908   3.577   4.624
 2539SOL    HW2 7634   2.044   3.666   4.617
 2540SOL     OW 7635   2.366   3.430   4.634
 2540SOL    HW1 7636   2.432   3.504   4.643
 2540SOL    HW2 7637   2.410   3.351   4.592
 2541SOL     OW 7638   2.864   2.658   4.962
 2541SOL    HW1 7639   2.905   2.626   5.048
 2541SOL    HW2 7640   2.768   2.631   4.959
 2542SOL     OW 7641   1.902   2.406   4.838
 2542SOL    HW1 7642   1.987   2.373   4.797
 2542SOL    HW2 7643   1.915   2.421   4.936
 2543SOL     OW 7644   2.677   2.434   4.049
 2543SOL    HW1 7645   2.684   2.345   4.003
 2543SOL    HW2 7646   2.583   2.468   4.041
 2544SOL     OW 7647   2.533   2.326   4.993
 2544SOL    HW1 7648   2.499   2.237   4.963
 2544SOL    HW2 7649   2.559   2.380   4.913
 2545SOL     OW 7650   2.335   2.362   3.915
 2545SOL    HW1 7651   2.396   2.442   3.919
 2545SOL    HW2 7652   2.240   2.393   3.922
 2546SOL     OW 7653   3.164   2.717   4.033
 2546SOL    HW1 7654   3.078   2.686   4.075
 2546SOL    HW2 7655   3.160   2.703   3.934
 2547SOL     OW 7656   3.621   3.609   4.878
 2547SOL    HW1 7657   3.682   3.639   4.805
 2547SOL    HW2 7658   3.583   3.520   4.856
 2548SOL     OW 7659   1.945   3.120   4.746
 2548SOL    HW1 7660   1.940   3.119   4.846
 2548SOL    HW2 7661   1.862   3.079   4.708
 2549SOL     OW 7662   3.588   1.997   4.247
 2549SOL    HW1 7663   3.661   1.980   4.180
 2549SOL    HW2 7664   3.557   1.910   4.285
 2550SOL     OW 7665   3.250   3.435   4.201
 2550SOL    HW1 7666   3.317   3.447   4.127
 2550SOL    HW2 7667   3.210   3.524   4.224
 2551SOL     OW 7668   3.142   2.789   4.396
 2551SOL    HW1 7669   3.202   2.708   4.398
 2551SOL    HW2 7670   3.182   2.858   4.336
 2552SOL     OW 7671   2.534   3.478   3.878
 2552SOL    HW1 7672   2.543   3.488   3.779
 2552SOL    HW2 7673   2.494   3.389   3.899
 2553SOL     OW 7674   3.703   2.037   4.687
 2553SOL    HW1 7675   3.742   1.952   4.651
 2553SOL    HW2 7676   3.605   2.039   4.668
 2554SOL     OW 7677   2.125   2.188   4.444
 2554SOL    HW1 7678   2.046   2.239   4.410
 2554SOL    HW2 7679   2.116   2.173   4.542
 2555SOL     OW 7680   3.056   3.474   3.755
 2555SOL    HW1 7681   3.062   3.381   3.792
 2555SOL    HW2 7682   2.997   3.474   3.675
 2556SOL     OW 7683   2.684   2.864   5.096
 2556SOL    HW1 7684   2.724   2.863   5.004
 2556SOL    HW2 7685   2.694   2.956   5.136
 2557SOL     OW 7686   2.778   2.772   4.015
 2557SOL    HW1 7687   2.841   2.810   3.947
 2557SOL    HW2 7688   2.818   2.689   4.054
 2558SOL     OW 7689   3.366   3.469   3.768
 2558SOL    HW1 7690   3.274   3.506   3.775
 2558SOL    HW2 7691   3.404   3.489   3.678
 2559SOL     OW 7692   2.901   2.960   4.420
 2559SOL    HW1 7693   2.831   2.913   4.474
 2559SOL    HW2 7694   2.960   2.892   4.377
 2560SOL     OW 7695   2.876   2.098   4.695
 2560SOL    HW1 7696   2.868   2.062   4.602
 2560SOL    HW2 7697   2.874   2.022   4.760
 2561SOL     OW 7698   2.452   3.349   4.215
 2561SOL    HW1 7699   2.494   3.291   4.145
 2561SOL    HW2 7700   2.408   3.428   4.171
 2562SOL     OW 7701   2.117   3.210   4.014
 2562SOL    HW1 7702   2.021   3.211   3.987
 2562SOL    HW2 7703   2.129   3.263   4.098
 2563SOL     OW 7704   1.937   2.207   3.757
 2563SOL    HW1 7705   1.845   2.179   3.728
 2563SOL    HW2 7706   1.968   2.284   3.701
 2564SOL     OW 7707   1.934   2.028   4.042
 2564SOL    HW1 7708   1.917   2.111   3.988
 2564SOL    HW2 7709   2.024   1.991   4.020
 2565SOL     OW 7710   3.045   3.197   3.843
 2565SOL    HW1 7711   2.946   3.186   3.845
 2565SOL    HW2 7712   3.079   3.212   3.936
 2566SOL     OW 7713   3.355   3.629   4.683
 2566SOL    HW1 7714   3.388   3.693   4.614
 2566SOL    HW2 7715   3.421   3.623   4.758
 2567SOL     OW 7716   3.536   2.745   4.978
 2567SOL    HW1 7717   3.509   2.656   4.941
 2567SOL    HW2 7718   3.537   2.813   4.905
 2568SOL     OW 7719   3.087   2.187   4.173
 2568SOL    HW1 7720   3.152   2.113   4.162
 2568SOL    HW2 7721   3.107   2.237   4.257
 2569SOL     OW 7722   2.456   2.607   4.376
 2569SOL    HW1 7723   2.506   2.692   4.357
 2569SOL    HW2 7724   2.368   2.609   4.328
 2570SOL     OW 7725   2.721   3.236   3.740
 2570SOL    HW1 7726   2.675   3.251   3.828
 2570SOL    HW2 7727   2.765   3.321   3.710
 2571SOL     OW 7728   2.523   3.652   4.677
 2571SOL    HW1 7729   2.477   3.740   4.664
 2571SOL    HW2 7730   2.622   3.664   4.670
 2572SOL     OW 7731   2.721   2.818   4.585
 2572SOL    HW1 7732   2.775   2.749   4.633
 2572SOL    HW2 7733   2.689   2.887   4.651
 2573SOL     OW 7734   2.945   2.846   3.811
 2573SOL    HW1 7735   2.922   2.899   3.729
 2573SOL    HW2 7736   3.026   2.790   3.792
 2574SOL     OW 7737   3.723   3.431   4.575
 2574SOL    HW1 7738   3.652   3.419   4.505
 2574SOL    HW2 7739   3.724   3.352   4.635
 2575SOL     OW 7740   1.941   3.102   4.377
 2575SOL    HW1 7741   1.940   3.055   4.465
 2575SOL    HW2 7742   2.023   3.074   4.326
 2576SOL     OW 7743   3.686   2.054   4.951
 2576SOL    HW1 7744   3.682   1.964   4.995
 2576SOL    HW2 7745   3.689   2.043   4.852
 2577SOL     OW 7746   2.290   2.286   4.244
 2577SOL    HW1 7747   2.320   2.214   4.182
 2577SOL    HW2 7748   2.251   2.246   4.327
 2578SOL     OW 7749   2.674   3.448   4.411
 2578SOL    HW1 7750   2.706   3.458   4.317
 2578SOL    HW2 7751   2.595   3.386   4.413
 2579SOL     OW 7752   3.286   2.076   4.836
 2579SOL    HW1 7753   3.338   2.011   4.891
 2579SOL    HW2 7754   3.237   2.139   4.897
 2580SOL     OW 7755   2.632   3.192   4.025
 2580SOL    HW1 7756   2.586   3.105   4.042
 2580SOL    HW2 7757   2.723   3.189   4.066
 2581SOL     OW 7758   3.214   1.914   3.892
 2581SOL    HW1 7759   3.249   1.873   3.808
 2581SOL    HW2 7760   3.124   1.876   3.912
 2582SOL     OW 7761   3.162   2.315   4.415
 2582SOL    HW1 7762   3.103   2.395   4.419
 2582SOL    HW2 7763   3.177   2.280   4.508
 2583SOL     OW 7764   3.455   2.083   4.606
 2583SOL    HW1 7765   3.371   2.082   4.660
 2583SOL    HW2 7766   3.457   2.166   4.550
 2584SOL     OW 7767   1.901   2.939   4.024
 2584SOL    HW1 7768   2.000   2.928   4.015
 2584SOL    HW2 7769   1.861   2.853   4.056
 2585SOL     OW 7770   2.737   3.508   4.061
 2585SOL    HW1 7771   2.660   3.473   4.007
 2585SOL    HW2 7772   2.705   3.579   4.123
 2586SOL     OW 7773   2.092   4.352   0.113
 2586SOL    HW1 7774   1.999   4.350   0.150
 2586SOL    HW2 7775   2.093   4.313   0.021
 2587SOL     OW 7776   2.087   3.999   0.996
 2587SOL    HW1 7777   2.122   3.982   1.088
 2587SOL    HW2 7778   1.999   3.954   0.984
 2588SOL     OW 7779   1.881   4.092   0.647
 2588SOL    HW1 7780   1.799   4.135   0.686
 2588SOL    HW2 7781   1.853   4.019   0.584
 2589SOL     OW 7782   2.997   4.427   0.717
 2589SOL    HW1 7783   3.054   4.505   0.692
 2589SOL    HW2 7784   2.937   4.453   0.793
 2590SOL     OW 7785   3.617   4.331   0.231
 2590SOL    HW1 7786   3.605   4.318   0.132
 2590SOL    HW2 7787   3.587   4.250   0.280
 2591SOL     OW 7788   2.630   4.868   1.023
 2591SOL    HW1 7789   2.552   4.885   1.083
 2591SOL    HW2 7790   2.664   4.955   0.987
 2592SOL     OW 7791   2.712   4.522   1.823
 2592SOL    HW1 7792   2.708   4.598   1.888
 2592SOL    HW2 7793   2.734   4.558   1.732
 2593SOL     OW 7794   2.547   4.736   0.665
 2593SOL    HW1 7795   2.616   4.720   0.735
 2593SOL    HW2 7796   2.474   4.793   0.703
 2594SOL     OW 7797   3.322   5.229   1.339
 2594SOL    HW1 7798   3.346   5.323   1.365
 2594SOL    HW2 7799   3.306   5.175   1.421
 2595SOL     OW 7800   2.300   4.116   1.499
 2595SOL    HW1 7801   2.382   4.060   1.508
 2595SOL    HW2 7802   2.219   4.058   1.503
 2596SOL     OW 7803   3.465   4.171   0.737
 2596SOL    HW1 7804   3.391   4.217   0.687
 2596SOL    HW2 7805   3.516   4.239   0.790
 2597SOL     OW 7806   2.102   4.815   0.886
 2597SOL    HW1 7807   2.116   4.731   0.938
 2597SOL    HW2 7808   2.047   4.879   0.941
 2598SOL     OW 7809   2.468   4.688   0.123
 2598SOL    HW1 7810   2.475   4.772   0.069
 2598SOL    HW2 7811   2.514   4.701   0.211
 2599SOL     OW 7812   3.456   3.838   1.480
 2599SOL    HW1 7813   3.438   3.905   1.408
 2599SOL    HW2 7814   3.453   3.884   1.569
 2600SOL     OW 7815   1.984   4.367   0.563
 2600SOL    HW1 7816   1.939   4.279   0.580
 2600SOL    HW2 7817   1.983   4.421   0.647
 2601SOL     OW 7818   3.551   4.646   0.612
 2601SOL    HW1 7819   3.646   4.617   0.620
 2601SOL    HW2 7820   3.543   4.711   0.537
 2602SOL     OW 7821   1.975   4.461   1.597
 2602SOL    HW1 7822   2.063   4.448   1.642
 2602SOL    HW2 7823   1.962   4.558   1.575
 2603SOL     OW 7824   3.155   4.952   1.423
 2603SOL    HW1 7825   3.192   4.879   1.365
 2603SOL    HW2 7826   3.207   4.957   1.508
 2604SOL     OW 7827   2.671   3.728   0.502
 2604SOL    HW1 7828   2.711   3.819   0.493
 2604SOL    HW2 7829   2.571   3.736   0.508
 2605SOL     OW 7830   2.059   4.700   1.264
 2605SOL    HW1 7831   2.148   4.655   1.250
 2605SOL    HW2 7832   1.986   4.635   1.245
 2606SOL     OW 7833   3.387   4.723   0.190
 2606SOL    HW1 7834   3.324   4.647   0.203
 2606SOL    HW2 7835   3.435   4.741   0.276
 2607SOL     OW 7836   2.179   3.975   1.801
 2607SOL    HW1 7837   2.250   4.046   1.807
 2607SOL    HW2 7838   2.091   4.014   1.829
 2608SOL     OW 7839   2.460   4.453   0.270
 2608SOL    HW1 7840   2.484   4.522   0.202
 2608SOL    HW2 7841   2.382   4.486   0.324
 2609SOL     OW 7842   3.143   4.069   0.944
 2609SOL    HW1 7843   3.057   4.019   0.931
 2609SOL    HW2 7844   3.205   4.015   1.000
 2610SOL     OW 7845   2.669   4.329   1.465
 2610SOL    HW1 7846   2.622   4.326   1.554
 2610SOL    HW2 7847   2.618   4.274   1.399
 2611SOL     OW 7848   3.256   4.193   1.674
 2611SOL    HW1 7849   3.236   4.236   1.762
 2611SOL    HW2 7850   3.334   4.131   1.683
 2612SOL     OW 7851   2.835   4.614   1.572
 2612SOL    HW1 7852   2.881   4.530   1.543
 2612SOL    HW2 7853   2.779   4.648   1.497
 2613SOL     OW 7854   2.853   4.134   1.242
 2613SOL    HW1 7855   2.776   4.168   1.296
 2613SOL    HW2 7856   2.819   4.083   1.163
 2614SOL     OW 7857   2.903   4.425   0.429
 2614SOL    HW1 7858   2.929   4.421   0.525
 2614SOL    HW2 7859   2.818   4.374   0.415
 2615SOL     OW 7860   1.938   4.535   0.789
 2615SOL    HW1 7861   2.037   4.523   0.798
 2615SOL    HW2 7862   1.914   4.630   0.810
 2616SOL     OW 7863   2.727   4.072   0.195
 2616SOL    HW1 7864   2.786   4.135   0.146
 2616SOL    HW2 7865   2.746   3.978   0.166
 2617SOL     OW 7866   3.581   4.309   1.831
 2617SOL    HW1 7867   3.555   4.398   1.795
 2617SOL    HW2 7868   3.579   4.241   1.758
 2618SOL     OW 7869   2.412   3.920   0.885
 2618SOL    HW1 7870   2.407   3.915   0.985
 2618SOL    HW2 7871   2.414   4.016   0.856
 2619SOL     OW 7872   3.657   4.790   0.873
 2619SOL    HW1 7873   3.595   4.775   0.797
 2619SOL    HW2 7874   3.605   4.801   0.958
 2620SOL     OW 7875   2.183   4.667   0.242
 2620SOL    HW1 7876   2.265   4.706   0.200
 2620SOL    HW2 7877   2.156   4.585   0.193
 2621SOL     OW 7878   3.320   4.459   0.728
 2621SOL    HW1 7879   3.315   4.394   0.803
 2621SOL    HW2 7880   3.400   4.518   0.741
 2622SOL     OW 7881   2.064   4.009   1.498
 2622SOL    HW1 7882   1.984   4.069   1.485
 2622SOL    HW2 7883   2.054   3.960   1.584
 2623SOL     OW 7884   3.262   3.831   0.426
 2623SOL    HW1 7885   3.238   3.794   0.336
 2623SOL    HW2 7886   3.361   3.847   0.430
 2624SOL     OW 7887   2.244   4.424   0.480
 2624SOL    HW1 7888   2.289   4.334   0.477
 2624SOL    HW2 7889   2.150   4.413   0.513
 2625SOL     OW 7890   3.409   3.946   1.729
 2625SOL    HW1 7891   3.404   3.983   1.821
 2625SOL    HW2 7892   3.337   3.877   1.717
 2626SOL     OW 7893   2.476   3.846   0.117
 2626SOL    HW1 7894   2.574   3.824   0.124
 2626SOL    HW2 7895   2.445   3.829   0.024
 2627SOL     OW 7896   2.643   3.988   1.749
 2627SOL    HW1 7897   2.710   3.927   1.792
 2627SOL    HW2 7898   2.570   4.007   1.814
 2628SOL     OW 7899   3.213   4.314   1.433
 2628SOL    HW1 7900   3.241   4.271   1.518
 2628SOL    HW2 7901   3.238   4.410   1.434
 2629SOL     OW 7902   2.784   4.227   0.899
 2629SOL    HW1 7903   2.759   4.218   0.803
 2629SOL    HW2 7904   2.832   4.145   0.930
 2630SOL     OW 7905   2.401   3.788   0.512
 2630SOL    HW1 7906   2.320   3.789   0.570
 2630SOL    HW2 7907   2.404   3.871   0.457
 2631SOL     OW 7908   2.159   3.759   0.171
 2631SOL    HW1 7909   2.208   3.843   0.150
 2631SOL    HW2 7910   2.221   3.694   0.216
 2632SOL     OW 7911   2.797   3.960   0.480
 2632SOL    HW1 7912   2.749   4.001   0.402
 2632SOL    HW2 7913   2.896   3.958   0.461
 2633SOL     OW 7914   2.938   4.407   1.464
 2633SOL    HW1 7915   2.858   4.346   1.467
 2633SOL    HW2 7916   3.019   4.354   1.440
 2634SOL     OW 7917   2.321   4.876   0.741
 2634SOL    HW1 7918   2.250   4.849   0.806
 2634SOL    HW2 7919   2.295   4.848   0.648
 2635SOL     OW 7920   2.894   4.273   0.016
 2635SOL    HW1 7921   2.853   4.355  -0.023
 2635SOL    HW2 7922   2.958   4.299   0.089
 2636SOL     OW 7923   1.940   4.280   1.386
 2636SOL    HW1 7924   2.032   4.279   1.345
 2636SOL    HW2 7925   1.934   4.354   1.453
 2637SOL     OW 7926   2.423   3.946   1.147
 2637SOL    HW1 7927   2.461   3.862   1.184
 2637SOL    HW2 7928   2.335   3.965   1.191
 2638SOL     OW 7929   2.728   4.178   0.642
 2638SOL    HW1 7930   2.696   4.250   0.580
 2638SOL    HW2 7931   2.752   4.097   0.589
 2639SOL     OW 7932   2.879   3.763   0.753
 2639SOL    HW1 7933   2.807   3.768   0.684
 2639SOL    HW2 7934   2.855   3.694   0.822
 2640SOL     OW 7935   3.291   4.897   0.867
 2640SOL    HW1 7936   3.236   4.813   0.860
 2640SOL    HW2 7937   3.317   4.926   0.775
 2641SOL     OW 7938   3.328   4.314   0.992
 2641SOL    HW1 7939   3.298   4.219   0.999
 2641SOL    HW2 7940   3.401   4.330   1.058
 2642SOL     OW 7941   3.719   4.557   0.377
 2642SOL    HW1 7942   3.761   4.493   0.441
 2642SOL    HW2 7943   3.681   4.506   0.299
 2643SOL     OW 7944   3.252   4.299   0.078
 2643SOL    HW1 7945   3.198   4.278   0.159
 2643SOL    HW2 7946   3.343   4.258   0.087
 2644SOL     OW 7947   2.389   3.980   0.328
 2644SOL    HW1 7948   2.416   3.921   0.253
 2644SOL    HW2 7949   2.389   4.075   0.297
 2645SOL     OW 7950   3.616   4.947   1.588
 2645SOL    HW1 7951   3.707   4.908   1.575
 2645SOL    HW2 7952   3.624   5.043   1.612
 2646SOL     OW 7953   3.500   4.823   1.079
 2646SOL    HW1 7954   3.505   4.904   1.138
 2646SOL    HW2 7955   3.414   4.825   1.028
 2647SOL     OW 7956   2.777   3.813   1.402
 2647SOL    HW1 7957   2.802   3.793   1.307
 2647SOL    HW2 7958   2.849   3.869   1.444
 2648SOL     OW 7959   2.567   4.774   0.368
 2648SOL    HW1 7960   2.553   4.781   0.467
 2648SOL    HW2 7961   2.651   4.723   0.350
 2649SOL     OW 7962   2.272   4.537   1.251
 2649SOL    HW1 7963   2.358   4.549   1.301
 2649SOL    HW2 7964   2.230   4.450   1.278
 2650SOL     OW 7965   3.136   4.110   1.262
 2650SOL    HW1 7966   3.157   4.184   1.326
 2650SOL    HW2 7967   3.047   4.127   1.219
 2651SOL     OW 7968   2.229   4.824   0.501
 2651SOL    HW1 7969   2.222   4.907   0.445
 2651SOL    HW2 7970   2.233   4.744   0.441
 2652SOL     OW 7971   2.428   4.261   0.865
 2652SOL    HW1 7972   2.440   4.327   0.791
 2652SOL    HW2 7973   2.474   4.295   0.948
 2653SOL     OW 7974   3.444   4.363   0.472
 2653SOL    HW1 7975   3.413   4.424   0.545
 2653SOL    HW2 7976   3.494   4.415   0.403
 2654SOL     OW 7977   2.264   4.475   1.598
 2654SOL    HW1 7978   2.332   4.530   1.551
 2654SOL    HW2 7979   2.304   4.387   1.625
 2655SOL     OW 7980   3.449   4.503   1.670
 2655SOL    HW1 7981   3.357   4.541   1.665
 2655SOL    HW2 7982   3.509   4.550   1.605
 2656SOL     OW 7983   2.875   3.829   1.770
 2656SOL    HW1 7984   2.881   3.914   1.718
 2656SOL    HW2 7985   2.907   3.753   1.713
 2657SOL     OW 7986   2.366   3.774   1.740
 2657SOL    HW1 7987   2.324   3.717   1.670
 2657SOL    HW2 7988   2.300   3.843   1.772
 2658SOL     OW 7989   2.435   4.594   1.029
 2658SOL    HW1 7990   2.479   4.683   1.020
 2658SOL    HW2 7991   2.372   4.594   1.106
 2659SOL     OW 7992   3.222   4.586   1.045
 2659SOL    HW1 7993   3.147   4.586   0.979
 2659SOL    HW2 7994   3.259   4.494   1.054
 2660SOL     OW 7995   3.071   4.249   0.275
 2660SOL    HW1 7996   3.084   4.165   0.329
 2660SOL    HW2 7997   3.042   4.323   0.335
 2661SOL     OW 7998   2.169   3.937   1.231
 2661SOL    HW1 7999   2.146   3.974   1.321
 2661SOL    HW2 8000   2.139   3.842   1.225
 2662SOL     OW 8001   2.594   4.358   1.064
 2662SOL    HW1 8002   2.653   4.332   0.988
 2662SOL    HW2 8003   2.566   4.454   1.053
 2663SOL     OW 8004   3.590   4.659   1.854
 2663SOL    HW1 8005   3.544   4.652   1.765
 2663SOL    HW2 8006   3.528   4.703   1.920
 2664SOL     OW 8007   2.169   3.787   0.618
 2664SOL    HW1 8008   2.158   3.881   0.651
 2664SOL    HW2 8009   2.164   3.724   0.695
 2665SOL     OW 8010   3.484   4.091   0.374
 2665SOL    HW1 8011   3.486   4.015   0.438
 2665SOL    HW2 8012   3.436   4.168   0.414
 2666SOL     OW 8013   2.885   4.490   0.966
 2666SOL    HW1 8014   2.900   4.511   1.062
 2666SOL    HW2 8015   2.855   4.395   0.957
 2667SOL     OW 8016   2.212   4.622   1.804
 2667SOL    HW1 8017   2.288   4.666   1.852
 2667SOL    HW2 8018   2.247   4.575   1.722
 2668SOL     OW 8019   3.402   3.998   0.125
 2668SOL    HW1 8020   3.341   3.923   0.148
 2668SOL    HW2 8021   3.424   4.050   0.208
 2669SOL     OW 8022   3.165   4.562   0.042
 2669SOL    HW1 8023   3.199   4.469   0.057
 2669SOL    HW2 8024   3.183   4.589  -0.053
 2670SOL     OW 8025   2.181   4.534   0.949
 2670SOL    HW1 8026   2.274   4.570   0.954
 2670SOL    HW2 8027   2.175   4.449   1.001
 2671SOL     OW 8028   2.201   4.233   1.006
 2671SOL    HW1 8029   2.149   4.150   0.989
 2671SOL    HW2 8030   2.278   4.238   0.942
 2672SOL     OW 8031   3.000   4.104   1.678
 2672SOL    HW1 8032   2.955   4.167   1.742
 2672SOL    HW2 8033   3.093   4.135   1.661
 2673SOL     OW 8034   3.022   3.931   1.477
 2673SOL    HW1 8035   3.022   3.995   1.554
 2673SOL    HW2 8036   3.050   3.979   1.394
 2674SOL     OW 8037   2.864   4.520   1.238
 2674SOL    HW1 8038   2.905   4.488   1.324
 2674SOL    HW2 8039   2.768   4.493   1.235
 2675SOL     OW 8040   1.902   4.268   1.114
 2675SOL    HW1 8041   1.987   4.235   1.073
 2675SOL    HW2 8042   1.915   4.283   1.212
 2676SOL     OW 8043   2.051   4.244   1.722
 2676SOL    HW1 8044   2.110   4.204   1.652
 2676SOL    HW2 8045   1.993   4.315   1.681
 2677SOL     OW 8046   3.231   4.674   1.660
 2677SOL    HW1 8047   3.270   4.763   1.680
 2677SOL    HW2 8048   3.241   4.654   1.563
 2678SOL     OW 8049   2.677   4.296   0.325
 2678SOL    HW1 8050   2.684   4.207   0.279
 2678SOL    HW2 8051   2.583   4.330   0.317
 2679SOL     OW 8052   3.519   4.328   1.206
 2679SOL    HW1 8053   3.481   4.259   1.268
 2679SOL    HW2 8054   3.601   4.292   1.162
 2680SOL     OW 8055   2.533   4.188   1.269
 2680SOL    HW1 8056   2.499   4.099   1.239
 2680SOL    HW2 8057   2.559   4.242   1.189
 2681SOL     OW 8058   2.335   4.224   0.191
 2681SOL    HW1 8059   2.396   4.304   0.195
 2681SOL    HW2 8060   2.240   4.255   0.198
 2682SOL     OW 8061   2.021   4.861   1.466
 2682SOL    HW1 8062   2.043   4.800   1.542
 2682SOL    HW2 8063   2.031   4.812   1.380
 2683SOL     OW 8064   3.209   4.783   1.234
 2683SOL    HW1 8065   3.233   4.720   1.160
 2683SOL    HW2 8066   3.119   4.823   1.216
 2684SOL     OW 8067   3.164   4.579   0.309
 2684SOL    HW1 8068   3.078   4.548   0.351
 2684SOL    HW2 8069   3.160   4.565   0.210
 2685SOL     OW 8070   2.765   3.810   0.133
 2685SOL    HW1 8071   2.816   3.811   0.047
 2685SOL    HW2 8072   2.821   3.768   0.204
 2686SOL     OW 8073   3.588   3.859   0.523
 2686SOL    HW1 8074   3.661   3.842   0.456
 2686SOL    HW2 8075   3.557   3.772   0.561
 2687SOL     OW 8076   3.142   4.651   0.672
 2687SOL    HW1 8077   3.202   4.570   0.674
 2687SOL    HW2 8078   3.182   4.720   0.612
 2688SOL     OW 8079   3.703   3.899   0.963
 2688SOL    HW1 8080   3.742   3.814   0.927
 2688SOL    HW2 8081   3.605   3.901   0.944
 2689SOL     OW 8082   2.125   4.050   0.720
 2689SOL    HW1 8083   2.046   4.101   0.686
 2689SOL    HW2 8084   2.116   4.035   0.818
 2690SOL     OW 8085   2.684   4.726   1.372
 2690SOL    HW1 8086   2.724   4.725   1.280
 2690SOL    HW2 8087   2.694   4.818   1.412
 2691SOL     OW 8088   2.778   4.634   0.291
 2691SOL    HW1 8089   2.841   4.672   0.223
 2691SOL    HW2 8090   2.818   4.551   0.330
 2692SOL     OW 8091   2.234   5.012   1.490
 2692SOL    HW1 8092   2.221   5.105   1.456
 2692SOL    HW2 8093   2.150   4.960   1.477
 2693SOL     OW 8094   2.876   3.960   0.971
 2693SOL    HW1 8095   2.868   3.924   0.878
 2693SOL    HW2 8096   2.874   3.884   1.036
 2694SOL     OW 8097   3.571   4.109   1.381
 2694SOL    HW1 8098   3.644   4.178   1.385
 2694SOL    HW2 8099   3.599   4.034   1.322
 2695SOL     OW 8100   1.967   4.737   1.726
 2695SOL    HW1 8101   1.890   4.704   1.780
 2695SOL    HW2 8102   2.052   4.707   1.768
 2696SOL     OW 8103   2.534   3.927   1.489
 2696SOL    HW1 8104   2.624   3.911   1.449
 2696SOL    HW2 8105   2.542   3.932   1.588
 2697SOL     OW 8106   3.302   4.580   1.398
 2697SOL    HW1 8107   3.245   4.632   1.335
 2697SOL    HW2 8108   3.398   4.592   1.374
 2698SOL     OW 8109   1.934   3.890   0.318
 2698SOL    HW1 8110   1.917   3.973   0.264
 2698SOL    HW2 8111   2.024   3.853   0.296
 2699SOL     OW 8112   3.045   5.059   0.119
 2699SOL    HW1 8113   2.946   5.048   0.121
 2699SOL    HW2 8114   3.079   5.074   0.212
 2700SOL     OW 8115   2.475   4.566   1.431
 2700SOL    HW1 8116   2.531   4.647   1.414
 2700SOL    HW2 8117   2.534   4.486   1.434
 2701SOL     OW 8118   2.578   4.289   1.708
 2701SOL    HW1 8119   2.597   4.354   1.782
 2701SOL    HW2 8120   2.638   4.209   1.717
 2702SOL     OW 8121   3.312   4.944   1.633
 2702SOL    HW1 8122   3.303   4.934   1.732
 2702SOL    HW2 8123   3.408   4.937   1.607
 2703SOL     OW 8124   3.536   4.607   1.254
 2703SOL    HW1 8125   3.509   4.518   1.217
 2703SOL    HW2 8126   3.537   4.675   1.181
 2704SOL     OW 8127   3.087   4.049   0.449
 2704SOL    HW1 8128   3.152   3.975   0.438
 2704SOL    HW2 8129   3.107   4.099   0.533
 2705SOL     OW 8130   2.456   4.469   0.652
 2705SOL    HW1 8131   2.506   4.554   0.633
 2705SOL    HW2 8132   2.368   4.471   0.604
 2706SOL     OW 8133   3.639   4.066   1.642
 2706SOL    HW1 8134   3.622   4.097   1.548
 2706SOL    HW2 8135   3.555   4.029   1.680
 2707SOL     OW 8136   3.592   4.658   1.517
 2707SOL    HW1 8137   3.630   4.749   1.532
 2707SOL    HW2 8138   3.584   4.641   1.418
 2708SOL     OW 8139   2.721   4.680   0.861
 2708SOL    HW1 8140   2.775   4.611   0.909
 2708SOL    HW2 8141   2.689   4.749   0.927
 2709SOL     OW 8142   2.945   4.708   0.087
 2709SOL    HW1 8143   2.922   4.761   0.005
 2709SOL    HW2 8144   3.026   4.652   0.068
 2710SOL     OW 8145   3.686   3.916   1.227
 2710SOL    HW1 8146   3.682   3.826   1.271
 2710SOL    HW2 8147   3.689   3.905   1.128
 2711SOL     OW 8148   2.290   4.148   0.520
 2711SOL    HW1 8149   2.320   4.076   0.458
 2711SOL    HW2 8150   2.251   4.108   0.603
 2712SOL     OW 8151   2.179   4.271   1.280
 2712SOL    HW1 8152   2.217   4.212   1.352
 2712SOL    HW2 8153   2.219   4.245   1.192
 2713SOL     OW 8154   3.286   3.938   1.112
 2713SOL    HW1 8155   3.338   3.873   1.167
 2713SOL    HW2 8156   3.237   4.001   1.173
 2714SOL     OW 8157   2.863   3.758   1.154
 2714SOL    HW1 8158   2.800   3.686   1.123
 2714SOL    HW2 8159   2.956   3.722   1.154
 2715SOL     OW 8160   2.632   5.054   0.301
 2715SOL    HW1 8161   2.586   4.967   0.318
 2715SOL    HW2 8162   2.723   5.051   0.342
 2716SOL     OW 8163   3.214   3.776   0.168
 2716SOL    HW1 8164   3.249   3.735   0.084
 2716SOL    HW2 8165   3.124   3.738   0.188
 2717SOL     OW 8166   3.162   4.177   0.691
 2717SOL    HW1 8167   3.103   4.257   0.695
 2717SOL    HW2 8168   3.177   4.142   0.784
 2718SOL     OW 8169   3.455   3.945   0.882
 2718SOL    HW1 8170   3.371   3.944   0.936
 2718SOL    HW2 8171   3.457   4.028   0.826
 2719SOL     OW 8172   1.901   4.801   0.300
 2719SOL    HW1 8173   2.000   4.790   0.291
 2719SOL    HW2 8174   1.861   4.715   0.332
 2720SOL     OW 8175   2.092   4.352   1.975
 2720SOL    HW1 8176   1.999   4.350   2.012
 2720SOL    HW2 8177   2.093   4.313   1.883
 2721SOL     OW 8178   2.087   3.999   2.858
 2721SOL    HW1 8179   2.122   3.982   2.950
 2721SOL    HW2 8180   1.999   3.954   2.846
 2722SOL     OW 8181   1.881   4.092   2.509
 2722SOL    HW1 8182   1.799   4.135   2.548
 2722SOL    HW2 8183   1.853   4.019   2.446
 2723SOL     OW 8184   2.997   4.427   2.579
 2723SOL    HW1 8185   3.054   4.505   2.554
 2723SOL    HW2 8186   2.937   4.453   2.655
 2724SOL     OW 8187   3.617   4.331   2.093
 2724SOL    HW1 8188   3.605   4.318   1.994
 2724SOL    HW2 8189   3.587   4.250   2.142
 2725SOL     OW 8190   2.630   4.868   2.885
 2725SOL    HW1 8191   2.552   4.885   2.945
 2725SOL    HW2 8192   2.664   4.955   2.849
 2726SOL     OW 8193   2.712   4.522   3.685
 2726SOL    HW1 8194   2.708   4.598   3.750
 2726SOL    HW2 8195   2.734   4.558   3.594
 2727SOL     OW 8196   2.547   4.736   2.527
 2727SOL    HW1 8197   2.616   4.720   2.597
 2727SOL    HW2 8198   2.474   4.793   2.565
 2728SOL     OW 8199   3.322   5.229   3.201
 2728SOL    HW1 8200   3.346   5.323   3.227
 2728SOL    HW2 8201   3.306   5.175   3.283
 2729SOL     OW 8202   2.300   4.116   3.361
 2729SOL    HW1 8203   2.382   4.060   3.370
 2729SOL    HW2 8204   2.219   4.058   3.365
 2730SOL     OW 8205   3.465   4.171   2.599
 2730SOL    HW1 8206   3.391   4.217   2.549
 2730SOL    HW2 8207   3.516   4.239   2.652
 2731SOL     OW 8208   2.102   4.815   2.748
 2731SOL    HW1 8209   2.116   4.731   2.800
 2731SOL    HW2 8210   2.047   4.879   2.803
 2732SOL     OW 8211   2.468   4.688   1.985
 2732SOL    HW1 8212   2.475   4.772   1.931
 2732SOL    HW2 8213   2.514   4.701   2.073
 2733SOL     OW 8214   3.456   3.838   3.342
 2733SOL    HW1 8215   3.438   3.905   3.270
 2733SOL    HW2 8216   3.453   3.884   3.431
 2734SOL     OW 8217   1.984   4.367   2.425
 2734SOL    HW1 8218   1.939   4.279   2.442
 2734SOL    HW2 8219   1.983   4.421   2.509
 2735SOL     OW 8220   3.551   4.646   2.474
 2735SOL    HW1 8221   3.646   4.617   2.482
 2735SOL    HW2 8222   3.543   4.711   2.399
 2736SOL     OW 8223   1.975   4.461   3.459
 2736SOL    HW1 8224   2.063   4.448   3.504
 2736SOL    HW2 8225   1.962   4.558   3.437
 2737SOL     OW 8226   3.155   4.952   3.285
 2737SOL    HW1 8227   3.192   4.879   3.227
 2737SOL    HW2 8228   3.207   4.957   3.370
 2738SOL     OW 8229   2.671   3.728   2.364
 2738SOL    HW1 8230   2.711   3.819   2.355
 2738SOL    HW2 8231   2.571   3.736   2.370
 2739SOL     OW 8232   2.059   4.700   3.126
 2739SOL    HW1 8233   2.148   4.655   3.112
 2739SOL    HW2 8234   1.986   4.635   3.107
 2740SOL     OW 8235   3.387   4.723   2.052
 2740SOL    HW1 8236   3.324   4.647   2.065
 2740SOL    HW2 8237   3.435   4.741   2.138
 2741SOL     OW 8238   2.179   3.975   3.663
 2741SOL    HW1 8239   2.250   4.046   3.669
 2741SOL    HW2 8240   2.091   4.014   3.691
 2742SOL     OW 8241   2.460   4.453   2.132
 2742SOL    HW1 8242   2.484   4.522   2.064
 2742SOL    HW2 8243   2.382   4.486   2.186
 2743SOL     OW 8244   3.143   4.069   2.806
 2743SOL    HW1 8245   3.057   4.019   2.793
 2743SOL    HW2 8246   3.205   4.015   2.862
 2744SOL     OW 8247   2.669   4.329   3.327
 2744SOL    HW1 8248   2.622   4.326   3.416
 2744SOL    HW2 8249   2.618   4.274   3.261
 2745SOL     OW 8250   3.256   4.193   3.536
 2745SOL    HW1 8251   3.236   4.236   3.624
 2745SOL    HW2 8252   3.334   4.131   3.545
 2746SOL     OW 8253   2.835   4.614   3.434
 2746SOL    HW1 8254   2.881   4.530   3.405
 2746SOL    HW2 8255   2.779   4.648   3.359
 2747SOL     OW 8256   2.853   4.134   3.104
 2747SOL    HW1 8257   2.776   4.168   3.158
 2747SOL    HW2 8258   2.819   4.083   3.025
 2748SOL     OW 8259   2.903   4.425   2.291
 2748SOL    HW1 8260   2.929   4.421   2.387
 2748SOL    HW2 8261   2.818   4.374   2.277
 2749SOL     OW 8262   1.938   4.535   2.651
 2749SOL    HW1 8263   2.037   4.523   2.660
 2749SOL    HW2 8264   1.914   4.630   2.672
 2750SOL     OW 8265   2.727   4.072   2.057
 2750SOL    HW1 8266   2.786   4.135   2.008
 2750SOL    HW2 8267   2.746   3.978   2.028
 2751SOL     OW 8268   3.581   4.309   3.693
 2751SOL    HW1 8269   3.555   4.398   3.657
 2751SOL    HW2 8270   3.579   4.241   3.620
 2752SOL     OW 8271   2.412   3.920   2.747
 2752SOL    HW1 8272   2.407   3.915   2.847
 2752SOL    HW2 8273   2.414   4.016   2.718
 2753SOL     OW 8274   3.657   4.790   2.735
 2753SOL    HW1 8275   3.595   4.775   2.659
 2753SOL    HW2 8276   3.605   4.801   2.820
 2754SOL     OW 8277   2.183   4.667   2.104
 2754SOL    HW1 8278   2.265   4.706   2.062
 2754SOL    HW2 8279   2.156   4.585   2.055
 2755SOL     OW 8280   3.320   4.459   2.590
 2755SOL    HW1 8281   3.315   4.394   2.665
 2755SOL    HW2 8282   3.400   4.518   2.603
 2756SOL     OW 8283   2.064   4.009   3.360
 2756SOL    HW1 8284   1.984   4.069   3.347
 2756SOL    HW2 8285   2.054   3.960   3.446
 2757SOL     OW 8286   3.262   3.831   2.288
 2757SOL    HW1 8287   3.238   3.794   2.198
 2757SOL    HW2 8288   3.361   3.847   2.292
 2758SOL     OW 8289   2.244   4.424   2.342
 2758SOL    HW1 8290   2.289   4.334   2.339
 2758SOL    HW2 8291   2.150   4.413   2.375
 2759SOL     OW 8292   3.409   3.946   3.591
 2759SOL    HW1 8293   3.404   3.983   3.683
 2759SOL    HW2 8294   3.337   3.877   3.579
 2760SOL     OW 8295   2.476   3.846   1.979
 2760SOL    HW1 8296   2.574   3.824   1.986
 2760SOL    HW2 8297   2.445   3.829   1.886
 2761SOL     OW 8298   2.643   3.988   3.611
 2761SOL    HW1 8299   2.710   3.927   3.654
 2761SOL    HW2 8300   2.570   4.007   3.676
 2762SOL     OW 8301   3.213   4.314   3.295
 2762SOL    HW1 8302   3.241   4.271   3.380
 2762SOL    HW2 8303   3.238   4.410   3.296
 2763SOL     OW 8304   2.784   4.227   2.761
 2763SOL    HW1 8305   2.759   4.218   2.665
 2763SOL    HW2 8306   2.832   4.145   2.792
 2764SOL     OW 8307   2.401   3.788   2.374
 2764SOL    HW1 8308   2.320   3.789   2.432
 2764SOL    HW2 8309   2.404   3.871   2.319
 2765SOL     OW 8310   2.159   3.759   2.033
 2765SOL    HW1 8311   2.208   3.843   2.012
 2765SOL    HW2 8312   2.221   3.694   2.078
 2766SOL     OW 8313   2.797   3.960   2.342
 2766SOL    HW1 8314   2.749   4.001   2.264
 2766SOL    HW2 8315   2.896   3.958   2.323
 2767SOL     OW 8316   2.938   4.407   3.326
 2767SOL    HW1 8317   2.858   4.346   3.329
 2767SOL    HW2 8318   3.019   4.354   3.302
 2768SOL     OW 8319   2.321   4.876   2.603
 2768SOL    HW1 8320   2.250   4.849   2.668
 2768SOL    HW2 8321   2.295   4.848   2.510
 2769SOL     OW 8322   2.894   4.273   1.878
 2769SOL    HW1 8323   2.853   4.355   1.839
 2769SOL    HW2 8324   2.958   4.299   1.951
 2770SOL     OW 8325   1.940   4.280   3.248
 2770SOL    HW1 8326   2.032   4.279   3.207
 2770SOL    HW2 8327   1.934   4.354   3.315
 2771SOL     OW 8328   2.423   3.946   3.009
 2771SOL    HW1 8329   2.461   3.862   3.046
 2771SOL    HW2 8330   2.335   3.965   3.053
 2772SOL     OW 8331   2.728   4.178   2.504
 2772SOL    HW1 8332   2.696   4.250   2.442
 2772SOL    HW2 8333   2.752   4.097   2.451
 2773SOL     OW 8334   2.879   3.763   2.615
 2773SOL    HW1 8335   2.807   3.768   2.546
 2773SOL    HW2 8336   2.855   3.694   2.684
 2774SOL     OW 8337   3.291   4.897   2.729
 2774SOL    HW1 8338   3.236   4.813   2.722
 2774SOL    HW2 8339   3.317   4.926   2.637
 2775SOL     OW 8340   3.328   4.314   2.854
 2775SOL    HW1 8341   3.298   4.219   2.861
 2775SOL    HW2 8342   3.401   4.330   2.920
 2776SOL     OW 8343   3.719   4.557   2.239
 2776SOL    HW1 8344   3.761   4.493   2.303
 2776SOL    HW2 8345   3.681   4.506   2.161
 2777SOL     OW 8346   3.252   4.299   1.940
 2777SOL    HW1 8347   3.198   4.278   2.021
 2777SOL    HW2 8348   3.343   4.258   1.949
 2778SOL     OW 8349   2.389   3.980   2.190
 2778SOL    HW1 8350   2.416   3.921   2.115
 2778SOL    HW2 8351   2.389   4.075   2.159
 2779SOL     OW 8352   3.616   4.947   3.450
 2779SOL    HW1 8353   3.707   4.908   3.437
 2779SOL    HW2 8354   3.624   5.043   3.474
 2780SOL     OW 8355   3.500   4.823   2.941
 2780SOL    HW1 8356   3.505   4.904   3.000
 2780SOL    HW2 8357   3.414   4.825   2.890
 2781SOL     OW 8358   2.777   3.813   3.264
 2781SOL    HW1 8359   2.802   3.793   3.169
 2781SOL    HW2 8360   2.849   3.869   3.306
 2782SOL     OW 8361   2.567   4.774   2.230
 2782SOL    HW1 8362   2.553   4.781   2.329
 2782SOL    HW2 8363   2.651   4.723   2.212
 2783SOL     OW 8364   2.272   4.537   3.113
 2783SOL    HW1 8365   2.358   4.549   3.163
 2783SOL    HW2 8366   2.230   4.450   3.140
 2784SOL     OW 8367   3.136   4.110   3.124
 2784SOL    HW1 8368   3.157   4.184   3.188
 2784SOL    HW2 8369   3.047   4.127   3.081
 2785SOL     OW 8370   2.229   4.824   2.363
 2785SOL    HW1 8371   2.222   4.907   2.307
 2785SOL    HW2 8372   2.233   4.744   2.303
 2786SOL     OW 8373   2.428   4.261   2.727
 2786SOL    HW1 8374   2.440   4.327   2.653
 2786SOL    HW2 8375   2.474   4.295   2.810
 2787SOL     OW 8376   3.444   4.363   2.334
 2787SOL    HW1 8377   3.413   4.424   2.407
 2787SOL    HW2 8378   3.494   4.415   2.265
 2788SOL     OW 8379   2.264   4.475   3.460
 2788SOL    HW1 8380   2.332   4.530   3.413
 2788SOL    HW2 8381   2.304   4.387   3.487
 2789SOL     OW 8382   3.449   4.503   3.532
 2789SOL    HW1 8383   3.357   4.541   3.527
 2789SOL    HW2 8384   3.509   4.550   3.467
 2790SOL     OW 8385   2.875   3.829   3.632
 2790SOL    HW1 8386   2.881   3.914   3.580
 2790SOL    HW2 8387   2.907   3.753   3.575
 2791SOL     OW 8388   2.366   3.774   3.602
 2791SOL    HW1 8389   2.324   3.717   3.532
 2791SOL    HW2 8390   2.300   3.843   3.634
 2792SOL     OW 8391   2.435   4.594   2.891
 2792SOL    HW1 8392   2.479   4.683   2.882
 2792SOL    HW2 8393   2.372   4.594   2.968
 2793SOL     OW 8394   3.222   4.586   2.907
 2793SOL    HW1 8395   3.147   4.586   2.841
 2793SOL    HW2 8396   3.259   4.494   2.916
 2794SOL     OW 8397   3.071   4.249   2.137
 2794SOL    HW1 8398   3.084   4.165   2.191
 2794SOL    HW2 8399   3.042   4.323   2.197
 2795SOL     OW 8400   2.169   3.937   3.093
 2795SOL    HW1 8401   2.146   3.974   3.183
 2795SOL    HW2 8402   2.139   3.842   3.087
 2796SOL     OW 8403   2.594   4.358   2.926
 2796SOL    HW1 8404   2.653   4.332   2.850
 2796SOL    HW2 8405   2.566   4.454   2.915
 2797SOL     OW 8406   3.590   4.659   3.716
 2797SOL    HW1 8407   3.544   4.652   3.627
 2797SOL    HW2 8408   3.528   4.703   3.782
 2798SOL     OW 8409   2.169   3.787   2.480
 2798SOL    HW1 8410   2.158   3.881   2.513
 2798SOL    HW2 8411   2.164   3.724   2.557
 2799SOL     OW 8412   3.484   4.091   2.236
 2799SOL    HW1 8413   3.486   4.015   2.300
 2799SOL    HW2 8414   3.436   4.168   2.276
 2800SOL     OW 8415   2.885   4.490   2.828
 2800SOL    HW1 8416   2.900   4.511   2.924
 2800SOL    HW2 8417   2.855   4.395   2.819
 2801SOL     OW 8418   2.212   4.622   3.666
 2801SOL    HW1 8419   2.288   4.666   3.714
 2801SOL    HW2 8420   2.247   4.575   3.584
 2802SOL     OW 8421   3.402   3.998   1.987
 2802SOL    HW1 8422   3.341   3.923   2.010
 2802SOL    HW2 8423   3.424   4.050   2.070
 2803SOL     OW 8424   3.165   4.562   1.904
 2803SOL    HW1 8425   3.199   4.469   1.919
 2803SOL    HW2 8426   3.183   4.589   1.809
 2804SOL     OW 8427   2.181   4.534   2.811
 2804SOL    HW1 8428   2.274   4.570   2.816
 2804SOL    HW2 8429   2.175   4.449   2.863
 2805SOL     OW 8430   2.201   4.233   2.868
 2805SOL    HW1 8431   2.149   4.150   2.851
 2805SOL    HW2 8432   2.278   4.238   2.804
 2806SOL     OW 8433   3.000   4.104   3.540
 2806SOL    HW1 8434   2.955   4.167   3.604
 2806SOL    HW2 8435   3.093   4.135   3.523
 2807SOL     OW 8436   3.022   3.931   3.339
 2807SOL    HW1 8437   3.022   3.995   3.416
 2807SOL    HW2 8438   3.050   3.979   3.256
 2808SOL     OW 8439   2.864   4.520   3.100
 2808SOL    HW1 8440   2.905   4.488   3.186
 2808SOL    HW2 8441   2.768   4.493   3.097
 2809SOL     OW 8442   1.902   4.268   2.976
 2809SOL    HW1 8443   1.987   4.235   2.935
 2809SOL    HW2 8444   1.915   4.283   3.074
 2810SOL     OW 8445   2.051   4.244   3.584
 2810SOL    HW1 8446   2.110   4.204   3.514
 2810SOL    HW2 8447   1.993   4.315   3.543
 2811SOL     OW 8448   3.231   4.674   3.522
 2811SOL    HW1 8449   3.270   4.763   3.542
 2811SOL    HW2 8450   3.241   4.654   3.425
 2812SOL     OW 8451   2.677   4.296   2.187
 2812SOL    HW1 8452   2.684   4.207   2.141
 2812SOL    HW2 8453   2.583   4.330   2.179
 2813SOL     OW 8454   3.519   4.328   3.068
 2813SOL    HW1 8455   3.481   4.259   3.130
 2813SOL    HW2 8456   3.601   4.292   3.024
 2814SOL     OW 8457   2.533   4.188   3.131
 2814SOL    HW1 8458   2.499   4.099   3.101
 2814SOL    HW2 8459   2.559   4.242   3.051
 2815SOL     OW 8460   2.335   4.224   2.053
 2815SOL    HW1 8461   2.396   4.304   2.057
 2815SOL    HW2 8462   2.240   4.255   2.060
 2816SOL     OW 8463   2.021   4.861   3.328
 2816SOL    HW1 8464   2.043   4.800   3.404
 2816SOL    HW2 8465   2.031   4.812   3.242
 2817SOL     OW 8466   3.209   4.783   3.096
 2817SOL    HW1 8467   3.233   4.720   3.022
 2817SOL    HW2 8468   3.119   4.823   3.078
 2818SOL     OW 8469   3.164   4.579   2.171
 2818SOL    HW1 8470   3.078   4.548   2.213
 2818SOL    HW2 8471   3.160   4.565   2.072
 2819SOL     OW 8472   3.588   3.859   2.385
 2819SOL    HW1 8473   3.661   3.842   2.318
 2819SOL    HW2 8474   3.557   3.772   2.423
 2820SOL     OW 8475   3.142   4.651   2.534
 2820SOL    HW1 8476   3.202   4.570   2.536
 2820SOL    HW2 8477   3.182   4.720   2.474
 2821SOL     OW 8478   3.703   3.899   2.825
 2821SOL    HW1 8479   3.742   3.814   2.789
 2821SOL    HW2 8480   3.605   3.901   2.806
 2822SOL     OW 8481   2.125   4.050   2.582
 2822SOL    HW1 8482   2.046   4.101   2.548
 2822SOL    HW2 8483   2.116   4.035   2.680
 2823SOL     OW 8484   2.684   4.726   3.234
 2823SOL    HW1 8485   2.724   4.725   3.142
 2823SOL    HW2 8486   2.694   4.818   3.274
 2824SOL     OW 8487   2.778   4.634   2.153
 2824SOL    HW1 8488   2.841   4.672   2.085
 2824SOL    HW2 8489   2.818   4.551   2.192
 2825SOL     OW 8490   2.234   5.012   3.352
 2825SOL    HW1 8491   2.221   5.105   3.318
 2825SOL    HW2 8492   2.150   4.960   3.339
 2826SOL     OW 8493   2.876   3.960   2.833
 2826SOL    HW1 8494   2.868   3.924   2.740
 2826SOL    HW2 8495   2.874   3.884   2.898
 2827SOL     OW 8496   3.571   4.109   3.243
 2827SOL    HW1 8497   3.644   4.178   3.247
 2827SOL    HW2 8498   3.599   4.034   3.184
 2828SOL     OW 8499   1.967   4.737   3.588
 2828SOL    HW1 8500   1.890   4.704   3.642
 2828SOL    HW2 8501   2.052   4.707   3.630
 2829SOL     OW 8502   2.534   3.927   3.351
 2829SOL    HW1 8503   2.624   3.911   3.311
 2829SOL    HW2 8504   2.542   3.932   3.450
 2830SOL     OW 8505   1.937   4.069   1.895
 2830SOL    HW1 8506   1.845   4.041   1.866
 2830SOL    HW2 8507   1.968   4.146   1.839
 2831SOL     OW 8508   3.302   4.580   3.260
 2831SOL    HW1 8509   3.245   4.632   3.197
 2831SOL    HW2 8510   3.398   4.592   3.236
 2832SOL     OW 8511   1.934   3.890   2.180
 2832SOL    HW1 8512   1.917   3.973   2.126
 2832SOL    HW2 8513   2.024   3.853   2.158
 2833SOL     OW 8514   3.045   5.059   1.981
 2833SOL    HW1 8515   2.946   5.048   1.983
 2833SOL    HW2 8516   3.079   5.074   2.074
 2834SOL     OW 8517   2.475   4.566   3.293
 2834SOL    HW1 8518   2.531   4.647   3.276
 2834SOL    HW2 8519   2.534   4.486   3.296
 2835SOL     OW 8520   2.578   4.289   3.570
 2835SOL    HW1 8521   2.597   4.354   3.644
 2835SOL    HW2 8522   2.638   4.209   3.579
 2836SOL     OW 8523   3.312   4.944   3.495
 2836SOL    HW1 8524   3.303   4.934   3.594
 2836SOL    HW2 8525   3.408   4.937   3.469
 2837SOL     OW 8526   3.536   4.607   3.116
 2837SOL    HW1 8527   3.509   4.518   3.079
 2837SOL    HW2 8528   3.537   4.675   3.043
 2838SOL     OW 8529   3.087   4.049   2.311
 2838SOL    HW1 8530   3.152   3.975   2.300
 2838SOL    HW2 8531   3.107   4.099   2.395
 2839SOL     OW 8532   2.456   4.469   2.514
 2839SOL    HW1 8533   2.506   4.554   2.495
 2839SOL    HW2 8534   2.368   4.471   2.466
 2840SOL     OW 8535   3.639   4.066   3.504
 2840SOL    HW1 8536   3.622   4.097   3.410
 2840SOL    HW2 8537   3.555   4.029   3.542
 2841SOL     OW 8538   3.592   4.658   3.379
 2841SOL    HW1 8539   3.630   4.749   3.394
 2841SOL    HW2 8540   3.584   4.641   3.280
 2842SOL     OW 8541   2.721   4.680   2.723
 2842SOL    HW1 8542   2.775   4.611   2.771
 2842SOL    HW2 8543   2.689   4.749   2.789
 2843SOL     OW 8544   2.945   4.708   1.949
 2843SOL    HW1 8545   2.922   4.761   1.867
 2843SOL    HW2 8546   3.026   4.652   1.930
 2844SOL     OW 8547   3.686   3.916   3.089
 2844SOL    HW1 8548   3.682   3.826   3.133
 2844SOL    HW2 8549   3.689   3.905   2.990
 2845SOL     OW 8550   2.290   4.148   2.382
 2845SOL    HW1 8551   2.320   4.076   2.320
 2845SOL    HW2 8552   2.251   4.108   2.465
 2846SOL     OW 8553   2.179   4.271   3.142
 2846SOL    HW1 8554   2.217   4.212   3.214
 2846SOL    HW2 8555   2.219   4.245   3.054
 2847SOL     OW 8556   3.286   3.938   2.974
 2847SOL    HW1 8557   3.338   3.873   3.029
 2847SOL    HW2 8558   3.237   4.001   3.035
 2848SOL     OW 8559   2.863   3.758   3.016
 2848SOL    HW1 8560   2.800   3.686   2.985
 2848SOL    HW2 8561   2.956   3.722   3.016
 2849SOL     OW 8562   2.632   5.054   2.163
 2849SOL    HW1 8563   2.586   4.967   2.180
 2849SOL    HW2 8564   2.723   5.051   2.204
 2850SOL     OW 8565   3.214   3.776   2.030
 2850SOL    HW1 8566   3.249   3.735   1.946
 2850SOL    HW2 8567   3.124   3.738   2.050
 2851SOL     OW 8568   3.162   4.177   2.553
 2851SOL    HW1 8569   3.103   4.257   2.557
 2851SOL    HW2 8570   3.177   4.142   2.646
 2852SOL     OW 8571   3.455   3.945   2.744
 2852SOL    HW1 8572   3.371   3.944   2.798
 2852SOL    HW2 8573   3.457   4.028   2.688
 2853SOL     OW 8574   1.901   4.801   2.162
 2853SOL    HW1 8575   2.000   4.790   2.153
 2853SOL    HW2 8576   1.861   4.715   2.194
 2854SOL     OW 8577   2.092   4.352   3.837
 2854SOL    HW1 8578   1.999   4.350   3.874
 2854SOL    HW2 8579   2.093   4.313   3.745
 2855SOL     OW 8580   2.087   3.999   4.720
 2855SOL    HW1 8581   2.122   3.982   4.812
 2855SOL    HW2 8582   1.999   3.954   4.708
 2856SOL     OW 8583   1.881   4.092   4.371
 2856SOL    HW1 8584   1.799   4.135   4.410
 2856SOL    HW2 8585   1.853   4.019   4.308
 2857SOL     OW 8586   2.997   4.427   4.441
 2857SOL    HW1 8587   3.054   4.505   4.416
 2857SOL    HW2 8588   2.937   4.453   4.517
 2858SOL     OW 8589   3.617   4.331   3.955
 2858SOL    HW1 8590   3.605   4.318   3.856
 2858SOL    HW2 8591   3.587   4.250   4.004
 2859SOL     OW 8592   2.630   4.868   4.747
 2859SOL    HW1 8593   2.552   4.885   4.807
 2859SOL    HW2 8594   2.664   4.955   4.711
 2860SOL     OW 8595   2.547   4.736   4.389
 2860SOL    HW1 8596   2.616   4.720   4.459
 2860SOL    HW2 8597   2.474   4.793   4.427
 2861SOL     OW 8598   3.465   4.171   4.461
 2861SOL    HW1 8599   3.391   4.217   4.411
 2861SOL    HW2 8600   3.516   4.239   4.514
 2862SOL     OW 8601   2.102   4.815   4.610
 2862SOL    HW1 8602   2.116   4.731   4.662
 2862SOL    HW2 8603   2.047   4.879   4.665
 2863SOL     OW 8604   2.468   4.688   3.847
 2863SOL    HW1 8605   2.475   4.772   3.793
 2863SOL    HW2 8606   2.514   4.701   3.935
 2864SOL     OW 8607   1.984   4.367   4.287
 2864SOL    HW1 8608   1.939   4.279   4.304
 2864SOL    HW2 8609   1.983   4.421   4.371
 2865SOL     OW 8610   3.551   4.646   4.336
 2865SOL    HW1 8611   3.646   4.617   4.344
 2865SOL    HW2 8612   3.543   4.711   4.261
 2866SOL     OW 8613   2.671   3.728   4.226
 2866SOL    HW1 8614   2.711   3.819   4.217
 2866SOL    HW2 8615   2.571   3.736   4.232
 2867SOL     OW 8616   2.059   4.700   4.988
 2867SOL    HW1 8617   2.148   4.655   4.974
 2867SOL    HW2 8618   1.986   4.635   4.969
 2868SOL     OW 8619   3.387   4.723   3.914
 2868SOL    HW1 8620   3.324   4.647   3.927
 2868SOL    HW2 8621   3.435   4.741   4.000
 2869SOL     OW 8622   2.460   4.453   3.994
 2869SOL    HW1 8623   2.484   4.522   3.926
 2869SOL    HW2 8624   2.382   4.486   4.048
 2870SOL     OW 8625   3.143   4.069   4.668
 2870SOL    HW1 8626   3.057   4.019   4.655
 2870SOL    HW2 8627   3.205   4.015   4.724
 2871SOL     OW 8628   2.903   4.425   4.153
 2871SOL    HW1 8629   2.929   4.421   4.249
 2871SOL    HW2 8630   2.818   4.374   4.139
 2872SOL     OW 8631   1.938   4.535   4.513
 2872SOL    HW1 8632   2.037   4.523   4.522
 2872SOL    HW2 8633   1.914   4.630   4.534
 2873SOL     OW 8634   2.727   4.072   3.919
 2873SOL    HW1 8635   2.786   4.135   3.870
 2873SOL    HW2 8636   2.746   3.978   3.890
 2874SOL     OW 8637   2.412   3.920   4.609
 2874SOL    HW1 8638   2.407   3.915   4.709
 2874SOL    HW2 8639   2.414   4.016   4.580
 2875SOL     OW 8640   3.657   4.790   4.597
 2875SOL    HW1 8641   3.595   4.775   4.521
 2875SOL    HW2 8642   3.605   4.801   4.682
 2876SOL     OW 8643   2.183   4.667   3.966
 2876SOL    HW1 8644   2.265   4.706   3.924
 2876SOL    HW2 8645   2.156   4.585   3.917
 2877SOL     OW 8646   3.320   4.459   4.452
 2877SOL    HW1 8647   3.315   4.394   4.527
 2877SOL    HW2 8648   3.400   4.518   4.465
 2878SOL     OW 8649   3.262   3.831   4.150
 2878SOL    HW1 8650   3.238   3.794   4.060
 2878SOL    HW2 8651   3.361   3.847   4.154
 2879SOL     OW 8652   2.244   4.424   4.204
 2879SOL    HW1 8653   2.289   4.334   4.201
 2879SOL    HW2 8654   2.150   4.413   4.237
 2880SOL     OW 8655   2.476   3.846   3.841
 2880SOL    HW1 8656   2.574   3.824   3.848
 2880SOL    HW2 8657   2.445   3.829   3.748
 2881SOL     OW 8658   2.750   5.238   4.919
 2881SOL    HW1 8659   2.727   5.213   4.825
 2881SOL    HW2 8660   2.811   5.169   4.958
 2882SOL     OW 8661   2.784   4.227   4.623
 2882SOL    HW1 8662   2.759   4.218   4.527
 2882SOL    HW2 8663   2.832   4.145   4.654
 2883SOL     OW 8664   2.401   3.788   4.236
 2883SOL    HW1 8665   2.320   3.789   4.294
 2883SOL    HW2 8666   2.404   3.871   4.181
 2884SOL     OW 8667   2.159   3.759   3.895
 2884SOL    HW1 8668   2.208   3.843   3.874
 2884SOL    HW2 8669   2.221   3.694   3.940
 2885SOL     OW 8670   2.797   3.960   4.204
 2885SOL    HW1 8671   2.749   4.001   4.126
 2885SOL    HW2 8672   2.896   3.958   4.185
 2886SOL     OW 8673   2.321   4.876   4.465
 2886SOL    HW1 8674   2.250   4.849   4.530
 2886SOL    HW2 8675   2.295   4.848   4.372
 2887SOL     OW 8676   2.894   4.273   3.740
 2887SOL    HW1 8677   2.853   4.355   3.701
 2887SOL    HW2 8678   2.958   4.299   3.813
 2888SOL     OW 8679   2.728   4.178   4.366
 2888SOL    HW1 8680   2.696   4.250   4.304
 2888SOL    HW2 8681   2.752   4.097   4.313
 2889SOL     OW 8682   2.879   3.763   4.477
 2889SOL    HW1 8683   2.807   3.768   4.408
 2889SOL    HW2 8684   2.855   3.694   4.546
 2890SOL     OW 8685   3.291   4.897   4.591
 2890SOL    HW1 8686   3.236   4.813   4.584
 2890SOL    HW2 8687   3.317   4.926   4.499
 2891SOL     OW 8688   3.328   4.314   4.716
 2891SOL    HW1 8689   3.298   4.219   4.723
 2891SOL    HW2 8690   3.401   4.330   4.782
 2892SOL     OW 8691   3.719   4.557   4.101
 2892SOL    HW1 8692   3.761   4.493   4.165
 2892SOL    HW2 8693   3.681   4.506   4.023
 2893SOL     OW 8694   3.252   4.299   3.802
 2893SOL    HW1 8695   3.198   4.278   3.883
 2893SOL    HW2 8696   3.343   4.258   3.811
 2894SOL     OW 8697   2.389   3.980   4.052
 2894SOL    HW1 8698   2.416   3.921   3.977
 2894SOL    HW2 8699   2.389   4.075   4.021
 2895SOL     OW 8700   2.973   4.919   4.824
 2895SOL    HW1 8701   2.933   4.963   4.905
 2895SOL    HW2 8702   2.932   4.956   4.741
 2896SOL     OW 8703   3.500   4.823   4.803
 2896SOL    HW1 8704   3.505   4.904   4.862
 2896SOL    HW2 8705   3.414   4.825   4.752
 2897SOL     OW 8706   2.567   4.774   4.092
 2897SOL    HW1 8707   2.553   4.781   4.191
 2897SOL    HW2 8708   2.651   4.723   4.074
 2898SOL     OW 8709   2.272   4.537   4.975
 2898SOL    HW1 8710   2.358   4.549   5.025
 2898SOL    HW2 8711   2.230   4.450   5.002
 2899SOL     OW 8712   2.229   4.824   4.225
 2899SOL    HW1 8713   2.222   4.907   4.169
 2899SOL    HW2 8714   2.233   4.744   4.165
 2900SOL     OW 8715   2.428   4.261   4.589
 2900SOL    HW1 8716   2.440   4.327   4.515
 2900SOL    HW2 8717   2.474   4.295   4.672
 2901SOL     OW 8718   3.444   4.363   4.196
 2901SOL    HW1 8719   3.413   4.424   4.269
 2901SOL    HW2 8720   3.494   4.415   4.127
 2902SOL     OW 8721   2.435   4.594   4.753
 2902SOL    HW1 8722   2.479   4.683   4.744
 2902SOL    HW2 8723   2.372   4.594   4.830
 2903SOL     OW 8724   3.071   4.249   3.999
 2903SOL    HW1 8725   3.084   4.165   4.053
 2903SOL    HW2 8726   3.042   4.323   4.059
 2904SOL     OW 8727   2.594   4.358   4.788
 2904SOL    HW1 8728   2.653   4.332   4.712
 2904SOL    HW2 8729   2.566   4.454   4.777
 2905SOL     OW 8730   2.169   3.787   4.342
 2905SOL    HW1 8731   2.158   3.881   4.375
 2905SOL    HW2 8732   2.164   3.724   4.419
 2906SOL     OW 8733   3.484   4.091   4.098
 2906SOL    HW1 8734   3.486   4.015   4.162
 2906SOL    HW2 8735   3.436   4.168   4.138
 2907SOL     OW 8736   2.885   4.490   4.690
 2907SOL    HW1 8737   2.900   4.511   4.786
 2907SOL    HW2 8738   2.855   4.395   4.681
 2908SOL     OW 8739   3.402   3.998   3.849
 2908SOL    HW1 8740   3.341   3.923   3.872
 2908SOL    HW2 8741   3.424   4.050   3.932
 2909SOL     OW 8742   3.165   4.562   3.766
 2909SOL    HW1 8743   3.199   4.469   3.781
 2909SOL    HW2 8744   3.183   4.589   3.671
 2910SOL     OW 8745   2.181   4.534   4.673
 2910SOL    HW1 8746   2.274   4.570   4.678
 2910SOL    HW2 8747   2.175   4.449   4.725
 2911SOL     OW 8748   2.201   4.233   4.730
 2911SOL    HW1 8749   2.149   4.150   4.713
 2911SOL    HW2 8750   2.278   4.238   4.666
 2912SOL     OW 8751   2.864   4.520   4.962
 2912SOL    HW1 8752   2.905   4.488   5.048
 2912SOL    HW2 8753   2.768   4.493   4.959
 2913SOL     OW 8754   1.902   4.268   4.838
 2913SOL    HW1 8755   1.987   4.235   4.797
 2913SOL    HW2 8756   1.915   4.283   4.936
 2914SOL     OW 8757   2.677   4.296   4.049
 2914SOL    HW1 8758   2.684   4.207   4.003
 2914SOL    HW2 8759   2.583   4.330   4.041
 2915SOL     OW 8760   2.533   4.188   4.993
 2915SOL    HW1 8761   2.499   4.099   4.963
 2915SOL    HW2 8762   2.559   4.242   4.913
 2916SOL     OW 8763   2.335   4.224   3.915
 2916SOL    HW1 8764   2.396   4.304   3.919
 2916SOL    HW2 8765   2.240   4.255   3.922
 2917SOL     OW 8766   3.209   4.783   4.958
 2917SOL    HW1 8767   3.233   4.720   4.884
 2917SOL    HW2 8768   3.119   4.823   4.940
 2918SOL     OW 8769   3.164   4.579   4.033
 2918SOL    HW1 8770   3.078   4.548   4.075
 2918SOL    HW2 8771   3.160   4.565   3.934
 2919SOL     OW 8772   3.588   3.859   4.247
 2919SOL    HW1 8773   3.661   3.842   4.180
 2919SOL    HW2 8774   3.557   3.772   4.285
 2920SOL     OW 8775   3.142   4.651   4.396
 2920SOL    HW1 8776   3.202   4.570   4.398
 2920SOL    HW2 8777   3.182   4.720   4.336
 2921SOL     OW 8778   3.703   3.899   4.687
 2921SOL    HW1 8779   3.742   3.814   4.651
 2921SOL    HW2 8780   3.605   3.901   4.668
 2922SOL     OW 8781   2.125   4.050   4.444
 2922SOL    HW1 8782   2.046   4.101   4.410
 2922SOL    HW2 8783   2.116   4.035   4.542
 2923SOL     OW 8784   2.684   4.726   5.096
 2923SOL    HW1 8785   2.724   4.725   5.004
 2923SOL    HW2 8786   2.694   4.818   5.136
 2924SOL     OW 8787   2.778   4.634   4.015
 2924SOL    HW1 8788   2.841   4.672   3.947
 2924SOL    HW2 8789   2.818   4.551   4.054
 2925SOL     OW 8790   2.876   3.960   4.695
 2925SOL    HW1 8791   2.868   3.924   4.602
 2925SOL    HW2 8792   2.874   3.884   4.760
 2926SOL     OW 8793   1.937   4.069   3.757
 2926SOL    HW1 8794   1.845   4.041   3.728
 2926SOL    HW2 8795   1.968   4.146   3.701
 2927SOL     OW 8796   1.934   3.890   4.042
 2927SOL    HW1 8797   1.917   3.973   3.988
 2927SOL    HW2 8798   2.024   3.853   4.020
 2928SOL     OW 8799   3.045   5.059   3.843
 2928SOL    HW1 8800   2.946   5.048   3.845
 2928SOL    HW2 8801   3.079   5.074   3.936
 2929SOL     OW 8802   3.536   4.607   4.978
 2929SOL    HW1 8803   3.509   4.518   4.941
 2929SOL    HW2 8804   3.537   4.675   4.905
 2930SOL     OW 8805   3.087   4.049   4.173
 2930SOL    HW1 8806   3.152   3.975   4.162
 2930SOL    HW2 8807   3.107   4.099   4.257
 2931SOL     OW 8808   2.456   4.469   4.376
 2931SOL    HW1 8809   2.506   4.554   4.357
 2931SOL    HW2 8810   2.368   4.471   4.328
 2932SOL     OW 8811   2.721   4.680   4.585
 2932SOL    HW1 8812   2.775   4.611   4.633
 2932SOL    HW2 8813   2.689   4.749   4.651
 2933SOL     OW 8814   2.945   4.708   3.811
 2933SOL    HW1 8815   2.922   4.761   3.729
 2933SOL    HW2 8816   3.026   4.652   3.792
 2934SOL     OW 8817   3.686   3.916   4.951
 2934SOL    HW1 8818   3.682   3.826   4.995
 2934SOL    HW2 8819   3.689   3.905   4.852
 2935SOL     OW 8820   2.290   4.148   4.244
 2935SOL    HW1 8821   2.320   4.076   4.182
 2935SOL    HW2 8822   2.251   4.108   4.327
 2936SOL     OW 8823   3.286   3.938   4.836
 2936SOL    HW1 8824   3.338   3.873   4.891
 2936SOL    HW2 8825   3.237   4.001   4.897
 2937SOL     OW 8826   2.632   5.054   4.025
 2937SOL    HW1 8827   2.586   4.967   4.042
 2937SOL    HW2 8828   2.723   5.051   4.066
 2938SOL     OW 8829   3.214   3.776   3.892
 2938SOL    HW1 8830   3.249   3.735   3.808
 2938SOL    HW2 8831   3.124   3.738   3.912
 2939SOL     OW 8832   3.162   4.177   4.415
 2939SOL    HW1 8833   3.103   4.257   4.419
 2939SOL    HW2 8834   3.177   4.142   4.508
 2940SOL     OW 8835   3.455   3.945   4.606
 2940SOL    HW1 8836   3.371   3.944   4.660
 2940SOL    HW2 8837   3.457   4.028   4.550
 2941SOL     OW 8838   1.901   4.801   4.024
 2941SOL    HW1 8839   2.000   4.790   4.015
 2941SOL    HW2 8840   1.861   4.715   4.056
 2942SOL     OW 8841   3.954   0.628   0.113
 2942SOL    HW1 8842   3.861   0.626   0.150
 2942SOL    HW2 8843   3.955   0.589   0.021
 2943SOL     OW 8844   3.949   0.275   0.996
 2943SOL    HW1 8845   3.984   0.258   1.088
 2943SOL    HW2 8846   3.861   0.230   0.984
 2944SOL     OW 8847   3.743   0.368   0.647
 2944SOL    HW1 8848   3.661   0.411   0.686
 2944SOL    HW2 8849   3.715   0.295   0.584
 2945SOL     OW 8850   4.293   1.275   1.165
 2945SOL    HW1 8851   4.200   1.268   1.128
 2945SOL    HW2 8852   4.304   1.364   1.209
 2946SOL     OW 8853   4.492   1.144   1.023
 2946SOL    HW1 8854   4.414   1.161   1.083
 2946SOL    HW2 8855   4.526   1.231   0.987
 2947SOL     OW 8856   4.574   0.798   1.823
 2947SOL    HW1 8857   4.570   0.874   1.888
 2947SOL    HW2 8858   4.596   0.834   1.732
 2948SOL     OW 8859   4.409   1.012   0.665
 2948SOL    HW1 8860   4.478   0.996   0.735
 2948SOL    HW2 8861   4.336   1.069   0.703
 2949SOL     OW 8862   4.410   1.161   1.803
 2949SOL    HW1 8863   4.470   1.240   1.817
 2949SOL    HW2 8864   4.324   1.192   1.762
 2950SOL     OW 8865   4.059   1.435   1.061
 2950SOL    HW1 8866   3.981   1.404   1.008
 2950SOL    HW2 8867   4.117   1.493   1.004
 2951SOL     OW 8868   4.162   0.392   1.499
 2951SOL    HW1 8869   4.244   0.336   1.508
 2951SOL    HW2 8870   4.081   0.334   1.503
 2952SOL     OW 8871   3.955   1.713   0.483
 2952SOL    HW1 8872   3.989   1.790   0.537
 2952SOL    HW2 8873   3.999   1.713   0.393
 2953SOL     OW 8874   4.851   1.341   1.690
 2953SOL    HW1 8875   4.898   1.341   1.778
 2953SOL    HW2 8876   4.803   1.254   1.679
 2954SOL     OW 8877   3.954   1.434   0.538
 2954SOL    HW1 8878   3.928   1.530   0.538
 2954SOL    HW2 8879   3.883   1.380   0.583
 2955SOL     OW 8880   3.964   1.091   0.886
 2955SOL    HW1 8881   3.978   1.007   0.938
 2955SOL    HW2 8882   3.909   1.155   0.941
 2956SOL     OW 8883   4.344   1.786   1.439
 2956SOL    HW1 8884   4.252   1.769   1.474
 2956SOL    HW2 8885   4.372   1.878   1.465
 2957SOL     OW 8886   4.330   0.964   0.123
 2957SOL    HW1 8887   4.337   1.048   0.069
 2957SOL    HW2 8888   4.376   0.977   0.211
 2958SOL     OW 8889   3.846   0.643   0.563
 2958SOL    HW1 8890   3.801   0.555   0.580
 2958SOL    HW2 8891   3.845   0.697   0.647
 2959SOL     OW 8892   3.751   1.596   0.117
 2959SOL    HW1 8893   3.732   1.500   0.138
 2959SOL    HW2 8894   3.718   1.654   0.192
 2960SOL     OW 8895   3.837   0.737   1.597
 2960SOL    HW1 8896   3.925   0.724   1.642
 2960SOL    HW2 8897   3.824   0.834   1.575
 2961SOL     OW 8898   4.337   1.365   0.726
 2961SOL    HW1 8899   4.288   1.278   0.735
 2961SOL    HW2 8900   4.314   1.408   0.639
 2962SOL     OW 8901   4.533   0.004   0.502
 2962SOL    HW1 8902   4.573   0.095   0.493
 2962SOL    HW2 8903   4.433   0.012   0.508
 2963SOL     OW 8904   3.921   0.976   1.264
 2963SOL    HW1 8905   4.010   0.931   1.250
 2963SOL    HW2 8906   3.848   0.911   1.245
 2964SOL     OW 8907   4.041   0.251   1.801
 2964SOL    HW1 8908   4.112   0.322   1.807
 2964SOL    HW2 8909   3.953   0.290   1.829
 2965SOL     OW 8910   4.322   0.729   0.270
 2965SOL    HW1 8911   4.346   0.798   0.202
 2965SOL    HW2 8912   4.244   0.762   0.324
 2966SOL     OW 8913   4.531   0.605   1.465
 2966SOL    HW1 8914   4.484   0.602   1.554
 2966SOL    HW2 8915   4.480   0.550   1.399
 2967SOL     OW 8916   4.697   0.890   1.572
 2967SOL    HW1 8917   4.743   0.806   1.543
 2967SOL    HW2 8918   4.641   0.924   1.497
 2968SOL     OW 8919   4.715   0.410   1.242
 2968SOL    HW1 8920   4.638   0.444   1.296
 2968SOL    HW2 8921   4.681   0.359   1.163
 2969SOL     OW 8922   4.765   0.701   0.429
 2969SOL    HW1 8923   4.791   0.697   0.525
 2969SOL    HW2 8924   4.680   0.650   0.415
 2970SOL     OW 8925   3.800   0.811   0.789
 2970SOL    HW1 8926   3.899   0.799   0.798
 2970SOL    HW2 8927   3.776   0.906   0.810
 2971SOL     OW 8928   3.854   1.821   1.571
 2971SOL    HW1 8929   3.844   1.806   1.670
 2971SOL    HW2 8930   3.768   1.857   1.535
 2972SOL     OW 8931   4.589   0.348   0.195
 2972SOL    HW1 8932   4.648   0.411   0.146
 2972SOL    HW2 8933   4.608   0.254   0.166
 2973SOL     OW 8934   4.274   0.196   0.885
 2973SOL    HW1 8935   4.269   0.191   0.985
 2973SOL    HW2 8936   4.276   0.292   0.856
 2974SOL     OW 8937   4.732   1.456   0.477
 2974SOL    HW1 8938   4.686   1.528   0.425
 2974SOL    HW2 8939   4.728   1.476   0.575
 2975SOL     OW 8940   4.075   1.801   0.853
 2975SOL    HW1 8941   4.125   1.715   0.859
 2975SOL    HW2 8942   4.140   1.878   0.850
 2976SOL     OW 8943   4.045   0.943   0.242
 2976SOL    HW1 8944   4.127   0.982   0.200
 2976SOL    HW2 8945   4.018   0.861   0.193
 2977SOL     OW 8946   4.185   1.266   1.727
 2977SOL    HW1 8947   4.135   1.267   1.641
 2977SOL    HW2 8948   4.122   1.248   1.803
 2978SOL     OW 8949   3.926   0.285   1.498
 2978SOL    HW1 8950   3.846   0.345   1.485
 2978SOL    HW2 8951   3.916   0.236   1.584
 2979SOL     OW 8952   4.188   1.743   0.323
 2979SOL    HW1 8953   4.221   1.782   0.409
 2979SOL    HW2 8954   4.264   1.736   0.258
 2980SOL     OW 8955   3.973   1.785   1.241
 2980SOL    HW1 8956   4.030   1.720   1.291
 2980SOL    HW2 8957   3.957   1.752   1.148
 2981SOL     OW 8958   4.664   1.698   0.904
 2981SOL    HW1 8959   4.744   1.641   0.925
 2981SOL    HW2 8960   4.615   1.658   0.827
 2982SOL     OW 8961   4.106   0.700   0.480
 2982SOL    HW1 8962   4.151   0.610   0.477
 2982SOL    HW2 8963   4.012   0.689   0.513
 2983SOL     OW 8964   4.338   0.122   0.117
 2983SOL    HW1 8965   4.436   0.100   0.124
 2983SOL    HW2 8966   4.307   0.105   0.024
 2984SOL     OW 8967   4.505   0.264   1.749
 2984SOL    HW1 8968   4.572   0.203   1.792
 2984SOL    HW2 8969   4.432   0.283   1.814
 2985SOL     OW 8970   4.612   1.514   1.195
 2985SOL    HW1 8971   4.589   1.489   1.101
 2985SOL    HW2 8972   4.673   1.445   1.234
 2986SOL     OW 8973   4.527   1.402   0.924
 2986SOL    HW1 8974   4.617   1.416   0.882
 2986SOL    HW2 8975   4.456   1.404   0.853
 2987SOL     OW 8976   4.646   0.503   0.899
 2987SOL    HW1 8977   4.621   0.494   0.803
 2987SOL    HW2 8978   4.694   0.421   0.930
 2988SOL     OW 8979   4.263   0.064   0.512
 2988SOL    HW1 8980   4.182   0.065   0.570
 2988SOL    HW2 8981   4.266   0.147   0.457
 2989SOL     OW 8982   5.158   1.188   0.041
 2989SOL    HW1 8983   5.190   1.112   0.098
 2989SOL    HW2 8984   5.066   1.215   0.071
 2990SOL     OW 8985   4.021   0.035   0.171
 2990SOL    HW1 8986   4.070   0.119   0.150
 2990SOL    HW2 8987   4.083  -0.030   0.216
 2991SOL     OW 8988   4.659   0.236   0.480
 2991SOL    HW1 8989   4.611   0.277   0.402
 2991SOL    HW2 8990   4.758   0.234   0.461
 2992SOL     OW 8991   4.951   1.570   0.793
 2992SOL    HW1 8992   4.972   1.644   0.728
 2992SOL    HW2 8993   5.019   1.570   0.866
 2993SOL     OW 8994   4.183   1.152   0.741
 2993SOL    HW1 8995   4.112   1.125   0.806
 2993SOL    HW2 8996   4.157   1.124   0.648
 2994SOL     OW 8997   4.995   1.797   0.591
 2994SOL    HW1 8998   5.039   1.861   0.527
 2994SOL    HW2 8999   4.945   1.849   0.661
 2995SOL     OW 9000   4.756   0.549   0.016
 2995SOL    HW1 9001   4.715   0.631  -0.023
 2995SOL    HW2 9002   4.820   0.575   0.089
 2996SOL     OW 9003   3.802   0.556   1.386
 2996SOL    HW1 9004   3.894   0.555   1.345
 2996SOL    HW2 9005   3.796   0.630   1.453
 2997SOL     OW 9006   4.285   0.222   1.147
 2997SOL    HW1 9007   4.323   0.138   1.184
 2997SOL    HW2 9008   4.197   0.241   1.191
 2998SOL     OW 9009   4.590   0.454   0.642
 2998SOL    HW1 9010   4.558   0.526   0.580
 2998SOL    HW2 9011   4.614   0.373   0.589
 2999SOL     OW 9012   4.741   0.039   0.753
 2999SOL    HW1 9013   4.669   0.044   0.684
 2999SOL    HW2 9014   4.717  -0.030   0.822
 3000SOL     OW 9015   4.212   1.385   0.174
 3000SOL    HW1 9016   4.125   1.370   0.221
 3000SOL    HW2 9017   4.195   1.411   0.079
 3001SOL     OW 9018   4.251   0.256   0.328
 3001SOL    HW1 9019   4.278   0.197   0.253
 3001SOL    HW2 9020   4.251   0.351   0.297
 3002SOL     OW 9021   4.639   0.089   1.402
 3002SOL    HW1 9022   4.664   0.069   1.307
 3002SOL    HW2 9023   4.711   0.145   1.444
 3003SOL     OW 9024   4.704   1.116   1.719
 3003SOL    HW1 9025   4.605   1.122   1.729
 3003SOL    HW2 9026   4.727   1.036   1.663
 3004SOL     OW 9027   4.429   1.050   0.368
 3004SOL    HW1 9028   4.415   1.057   0.467
 3004SOL    HW2 9029   4.513   0.999   0.350
 3005SOL     OW 9030   4.134   0.813   1.251
 3005SOL    HW1 9031   4.220   0.825   1.301
 3005SOL    HW2 9032   4.092   0.726   1.278
 3006SOL     OW 9033   3.788   1.564   1.331
 3006SOL    HW1 9034   3.742   1.646   1.297
 3006SOL    HW2 9035   3.886   1.583   1.340
 3007SOL     OW 9036   4.091   1.100   0.501
 3007SOL    HW1 9037   4.084   1.183   0.445
 3007SOL    HW2 9038   4.095   1.020   0.441
 3008SOL     OW 9039   4.290   0.537   0.865
 3008SOL    HW1 9040   4.302   0.603   0.791
 3008SOL    HW2 9041   4.336   0.571   0.948
 3009SOL     OW 9042   4.976   1.348   0.388
 3009SOL    HW1 9043   5.026   1.425   0.428
 3009SOL    HW2 9044   4.881   1.350   0.420
 3010SOL     OW 9045   4.078   1.510   1.329
 3010SOL    HW1 9046   4.057   1.466   1.242
 3010SOL    HW2 9047   4.175   1.536   1.332
 3011SOL     OW 9048   4.126   0.751   1.598
 3011SOL    HW1 9049   4.194   0.806   1.551
 3011SOL    HW2 9050   4.166   0.663   1.625
 3012SOL     OW 9051   4.737   0.105   1.770
 3012SOL    HW1 9052   4.743   0.190   1.718
 3012SOL    HW2 9053   4.769   0.029   1.713
 3013SOL     OW 9054   4.228   0.050   1.740
 3013SOL    HW1 9055   4.186  -0.007   1.670
 3013SOL    HW2 9056   4.162   0.119   1.772
 3014SOL     OW 9057   4.297   0.870   1.029
 3014SOL    HW1 9058   4.341   0.959   1.020
 3014SOL    HW2 9059   4.234   0.870   1.106
 3015SOL     OW 9060   4.933   0.525   0.275
 3015SOL    HW1 9061   4.946   0.441   0.329
 3015SOL    HW2 9062   4.904   0.599   0.335
 3016SOL     OW 9063   4.031   0.213   1.231
 3016SOL    HW1 9064   4.008   0.250   1.321
 3016SOL    HW2 9065   4.001   0.118   1.225
 3017SOL     OW 9066   3.761   1.310   1.282
 3017SOL    HW1 9067   3.814   1.261   1.350
 3017SOL    HW2 9068   3.783   1.408   1.287
 3018SOL     OW 9069   4.456   0.634   1.064
 3018SOL    HW1 9070   4.515   0.608   0.988
 3018SOL    HW2 9071   4.428   0.730   1.053
 3019SOL     OW 9072   4.031   0.063   0.618
 3019SOL    HW1 9073   4.020   0.157   0.651
 3019SOL    HW2 9074   4.026   0.000   0.695
 3020SOL     OW 9075   4.747   0.766   0.966
 3020SOL    HW1 9076   4.762   0.787   1.062
 3020SOL    HW2 9077   4.717   0.671   0.957
 3021SOL     OW 9078   4.704   1.573   1.700
 3021SOL    HW1 9079   4.684   1.617   1.612
 3021SOL    HW2 9080   4.743   1.482   1.684
 3022SOL     OW 9081   4.074   0.898   1.804
 3022SOL    HW1 9082   4.150   0.942   1.852
 3022SOL    HW2 9083   4.109   0.851   1.722
 3023SOL     OW 9084   4.792   1.333   0.849
 3023SOL    HW1 9085   4.799   1.249   0.794
 3023SOL    HW2 9086   4.854   1.402   0.813
 3024SOL     OW 9087   4.043   0.810   0.949
 3024SOL    HW1 9088   4.136   0.846   0.954
 3024SOL    HW2 9089   4.037   0.725   1.001
 3025SOL     OW 9090   4.063   0.509   1.006
 3025SOL    HW1 9091   4.011   0.426   0.989
 3025SOL    HW2 9092   4.140   0.514   0.942
 3026SOL     OW 9093   4.862   0.380   1.678
 3026SOL    HW1 9094   4.817   0.443   1.742
 3026SOL    HW2 9095   4.955   0.411   1.661
 3027SOL     OW 9096   3.732   1.326   0.200
 3027SOL    HW1 9097   3.639   1.347   0.169
 3027SOL    HW2 9098   3.742   1.227   0.213
 3028SOL     OW 9099   3.812   1.801   0.927
 3028SOL    HW1 9100   3.770   1.715   0.900
 3028SOL    HW2 9101   3.906   1.804   0.893
 3029SOL     OW 9102   4.228   1.568   0.910
 3029SOL    HW1 9103   4.294   1.642   0.919
 3029SOL    HW2 9104   4.272   1.489   0.868
 3030SOL     OW 9105   4.726   0.796   1.238
 3030SOL    HW1 9106   4.767   0.764   1.324
 3030SOL    HW2 9107   4.630   0.769   1.235
 3031SOL     OW 9108   3.764   0.544   1.114
 3031SOL    HW1 9109   3.849   0.511   1.073
 3031SOL    HW2 9110   3.777   0.559   1.212
 3032SOL     OW 9111   3.913   0.520   1.722
 3032SOL    HW1 9112   3.972   0.480   1.652
 3032SOL    HW2 9113   3.855   0.591   1.681
 3033SOL     OW 9114   4.539   0.572   0.325
 3033SOL    HW1 9115   4.546   0.483   0.279
 3033SOL    HW2 9116   4.445   0.606   0.317
 3034SOL     OW 9117   3.976   1.564   1.744
 3034SOL    HW1 9118   3.946   1.621   1.820
 3034SOL    HW2 9119   3.969   1.467   1.770
 3035SOL     OW 9120   4.395   0.464   1.269
 3035SOL    HW1 9121   4.361   0.375   1.239
 3035SOL    HW2 9122   4.421   0.518   1.189
 3036SOL     OW 9123   4.654   1.678   1.465
 3036SOL    HW1 9124   4.630   1.660   1.370
 3036SOL    HW2 9125   4.684   1.772   1.475
 3037SOL     OW 9126   4.197   0.500   0.191
 3037SOL    HW1 9127   4.258   0.580   0.195
 3037SOL    HW2 9128   4.102   0.531   0.198
 3038SOL     OW 9129   3.883   1.137   1.466
 3038SOL    HW1 9130   3.905   1.076   1.542
 3038SOL    HW2 9131   3.893   1.088   1.380
 3039SOL     OW 9132   5.026   0.855   0.309
 3039SOL    HW1 9133   4.940   0.824   0.351
 3039SOL    HW2 9134   5.022   0.841   0.210
 3040SOL     OW 9135   3.807   1.258   1.022
 3040SOL    HW1 9136   3.802   1.257   1.122
 3040SOL    HW2 9137   3.724   1.217   0.984
 3041SOL     OW 9138   4.412   1.662   1.716
 3041SOL    HW1 9139   4.356   1.743   1.725
 3041SOL    HW2 9140   4.464   1.666   1.630
 3042SOL     OW 9141   4.627   0.086   0.133
 3042SOL    HW1 9142   4.678   0.087   0.047
 3042SOL    HW2 9143   4.683   0.044   0.204
 3043SOL     OW 9144   3.854   1.794   1.851
 3043SOL    HW1 9145   3.813   1.720   1.904
 3043SOL    HW2 9146   3.918   1.845   1.909
 3044SOL     OW 9147   4.554   1.273   1.422
 3044SOL    HW1 9148   4.549   1.306   1.517
 3044SOL    HW2 9149   4.468   1.292   1.376
 3045SOL     OW 9150   4.396   1.616   0.154
 3045SOL    HW1 9151   4.405   1.626   0.055
 3045SOL    HW2 9152   4.356   1.527   0.175
 3046SOL     OW 9153   3.987   0.326   0.720
 3046SOL    HW1 9154   3.908   0.377   0.686
 3046SOL    HW2 9155   3.978   0.311   0.818
 3047SOL     OW 9156   4.546   1.002   1.372
 3047SOL    HW1 9157   4.586   1.001   1.280
 3047SOL    HW2 9158   4.556   1.094   1.412
 3048SOL     OW 9159   4.640   0.910   0.291
 3048SOL    HW1 9160   4.703   0.948   0.223
 3048SOL    HW2 9161   4.680   0.827   0.330
 3049SOL     OW 9162   4.096   1.288   1.490
 3049SOL    HW1 9163   4.083   1.381   1.456
 3049SOL    HW2 9164   4.012   1.236   1.477
 3050SOL     OW 9165   4.763   1.098   0.696
 3050SOL    HW1 9166   4.693   1.051   0.750
 3050SOL    HW2 9167   4.822   1.030   0.653
 3051SOL     OW 9168   4.738   0.236   0.971
 3051SOL    HW1 9169   4.730   0.200   0.878
 3051SOL    HW2 9170   4.736   0.160   1.036
 3052SOL     OW 9171   4.314   1.487   0.491
 3052SOL    HW1 9172   4.356   1.429   0.421
 3052SOL    HW2 9173   4.270   1.566   0.447
 3053SOL     OW 9174   3.979   1.348   0.290
 3053SOL    HW1 9175   3.883   1.349   0.263
 3053SOL    HW2 9176   3.991   1.401   0.374
 3054SOL     OW 9177   3.829   1.013   1.726
 3054SOL    HW1 9178   3.752   0.980   1.780
 3054SOL    HW2 9179   3.914   0.983   1.768
 3055SOL     OW 9180   4.396   0.203   1.489
 3055SOL    HW1 9181   4.486   0.187   1.449
 3055SOL    HW2 9182   4.404   0.208   1.588
 3056SOL     OW 9183   3.796   0.166   0.318
 3056SOL    HW1 9184   3.779   0.249   0.264
 3056SOL    HW2 9185   3.886   0.129   0.296
 3057SOL     OW 9186   4.337   0.842   1.431
 3057SOL    HW1 9187   4.393   0.923   1.414
 3057SOL    HW2 9188   4.396   0.762   1.434
 3058SOL     OW 9189   4.440   0.565   1.708
 3058SOL    HW1 9190   4.459   0.630   1.782
 3058SOL    HW2 9191   4.500   0.485   1.717
 3059SOL     OW 9192   4.114   1.741   1.560
 3059SOL    HW1 9193   4.023   1.782   1.558
 3059SOL    HW2 9194   4.107   1.647   1.592
 3060SOL     OW 9195   4.318   0.745   0.652
 3060SOL    HW1 9196   4.368   0.830   0.633
 3060SOL    HW2 9197   4.230   0.747   0.604
 3061SOL     OW 9198   4.583   1.374   0.016
 3061SOL    HW1 9199   4.537   1.389   0.104
 3061SOL    HW2 9200   4.627   1.459  -0.014
 3062SOL     OW 9201   4.385   1.790   0.953
 3062SOL    HW1 9202   4.339   1.878   0.940
 3062SOL    HW2 9203   4.484   1.802   0.946
 3063SOL     OW 9204   4.583   0.956   0.861
 3063SOL    HW1 9205   4.637   0.887   0.909
 3063SOL    HW2 9206   4.551   1.025   0.927
 3064SOL     OW 9207   4.807   0.984   0.087
 3064SOL    HW1 9208   4.784   1.037   0.005
 3064SOL    HW2 9209   4.888   0.928   0.068
 3065SOL     OW 9210   3.945   1.314   1.844
 3065SOL    HW1 9211   3.880   1.241   1.823
 3065SOL    HW2 9212   3.949   1.328   1.942
 3066SOL     OW 9213   3.803   1.240   0.653
 3066SOL    HW1 9214   3.802   1.193   0.741
 3066SOL    HW2 9215   3.885   1.212   0.602
 3067SOL     OW 9216   4.396   1.391   1.624
 3067SOL    HW1 9217   4.318   1.341   1.662
 3067SOL    HW2 9218   4.393   1.486   1.655
 3068SOL     OW 9219   4.152   0.424   0.520
 3068SOL    HW1 9220   4.182   0.352   0.458
 3068SOL    HW2 9221   4.113   0.384   0.603
 3069SOL     OW 9222   4.041   0.547   1.280
 3069SOL    HW1 9223   4.079   0.488   1.352
 3069SOL    HW2 9224   4.081   0.521   1.192
 3070SOL     OW 9225   4.536   1.586   0.687
 3070SOL    HW1 9226   4.568   1.596   0.593
 3070SOL    HW2 9227   4.457   1.524   0.689
 3071SOL     OW 9228   4.725   0.034   1.154
 3071SOL    HW1 9229   4.662  -0.038   1.123
 3071SOL    HW2 9230   4.818  -0.002   1.154
 3072SOL     OW 9231   4.494   1.330   0.301
 3072SOL    HW1 9232   4.448   1.243   0.318
 3072SOL    HW2 9233   4.585   1.327   0.342
 3073SOL     OW 9234   4.342   1.567   1.284
 3073SOL    HW1 9235   4.337   1.649   1.341
 3073SOL    HW2 9236   4.431   1.564   1.239
 3074SOL     OW 9237   3.763   1.077   0.300
 3074SOL    HW1 9238   3.862   1.066   0.291
 3074SOL    HW2 9239   3.723   0.991   0.332
 3075SOL     OW 9240   4.599   1.646   0.337
 3075SOL    HW1 9241   4.522   1.611   0.283
 3075SOL    HW2 9242   4.567   1.717   0.399
 3076SOL     OW 9243   3.954   0.628   1.975
 3076SOL    HW1 9244   3.861   0.626   2.012
 3076SOL    HW2 9245   3.955   0.589   1.883
 3077SOL     OW 9246   3.949   0.275   2.858
 3077SOL    HW1 9247   3.984   0.258   2.950
 3077SOL    HW2 9248   3.861   0.230   2.846
 3078SOL     OW 9249   3.743   0.368   2.509
 3078SOL    HW1 9250   3.661   0.411   2.548
 3078SOL    HW2 9251   3.715   0.295   2.446
 3079SOL     OW 9252   4.293   1.275   3.027
 3079SOL    HW1 9253   4.200   1.268   2.990
 3079SOL    HW2 9254   4.304   1.364   3.071
 3080SOL     OW 9255   4.492   1.144   2.885
 3080SOL    HW1 9256   4.414   1.161   2.945
 3080SOL    HW2 9257   4.526   1.231   2.849
 3081SOL     OW 9258   4.574   0.798   3.685
 3081SOL    HW1 9259   4.570   0.874   3.750
 3081SOL    HW2 9260   4.596   0.834   3.594
 3082SOL     OW 9261   4.409   1.012   2.527
 3082SOL    HW1 9262   4.478   0.996   2.597
 3082SOL    HW2 9263   4.336   1.069   2.565
 3083SOL     OW 9264   4.410   1.161   3.665
 3083SOL    HW1 9265   4.470   1.240   3.679
 3083SOL    HW2 9266   4.324   1.192   3.624
 3084SOL     OW 9267   4.059   1.435   2.923
 3084SOL    HW1 9268   3.981   1.404   2.870
 3084SOL    HW2 9269   4.117   1.493   2.866
 3085SOL     OW 9270   4.162   0.392   3.361
 3085SOL    HW1 9271   4.244   0.336   3.370
 3085SOL    HW2 9272   4.081   0.334   3.365
 3086SOL     OW 9273   3.955   1.713   2.345
 3086SOL    HW1 9274   3.989   1.790   2.399
 3086SOL    HW2 9275   3.999   1.713   2.255
 3087SOL     OW 9276   4.851   1.341   3.552
 3087SOL    HW1 9277   4.898   1.341   3.640
 3087SOL    HW2 9278   4.803   1.254   3.541
 3088SOL     OW 9279   3.954   1.434   2.400
 3088SOL    HW1 9280   3.928   1.530   2.400
 3088SOL    HW2 9281   3.883   1.380   2.445
 3089SOL     OW 9282   3.964   1.091   2.748
 3089SOL    HW1 9283   3.978   1.007   2.800
 3089SOL    HW2 9284   3.909   1.155   2.803
 3090SOL     OW 9285   4.344   1.786   3.301
 3090SOL    HW1 9286   4.252   1.769   3.336
 3090SOL    HW2 9287   4.372   1.878   3.327
 3091SOL     OW 9288   4.330   0.964   1.985
 3091SOL    HW1 9289   4.337   1.048   1.931
 3091SOL    HW2 9290   4.376   0.977   2.073
 3092SOL     OW 9291   3.846   0.643   2.425
 3092SOL    HW1 9292   3.801   0.555   2.442
 3092SOL    HW2 9293   3.845   0.697   2.509
 3093SOL     OW 9294   3.751   1.596   1.979
 3093SOL    HW1 9295   3.732   1.500   2.000
 3093SOL    HW2 9296   3.718   1.654   2.054
 3094SOL     OW 9297   3.837   0.737   3.459
 3094SOL    HW1 9298   3.925   0.724   3.504
 3094SOL    HW2 9299   3.824   0.834   3.437
 3095SOL     OW 9300   4.337   1.365   2.588
 3095SOL    HW1 9301   4.288   1.278   2.597
 3095SOL    HW2 9302   4.314   1.408   2.501
 3096SOL     OW 9303   4.533   0.004   2.364
 3096SOL    HW1 9304   4.573   0.095   2.355
 3096SOL    HW2 9305   4.433   0.012   2.370
 3097SOL     OW 9306   3.921   0.976   3.126
 3097SOL    HW1 9307   4.010   0.931   3.112
 3097SOL    HW2 9308   3.848   0.911   3.107
 3098SOL     OW 9309   4.041   0.251   3.663
 3098SOL    HW1 9310   4.112   0.322   3.669
 3098SOL    HW2 9311   3.953   0.290   3.691
 3099SOL     OW 9312   4.322   0.729   2.132
 3099SOL    HW1 9313   4.346   0.798   2.064
 3099SOL    HW2 9314   4.244   0.762   2.186
 3100SOL     OW 9315   4.531   0.605   3.327
 3100SOL    HW1 9316   4.484   0.602   3.416
 3100SOL    HW2 9317   4.480   0.550   3.261
 3101SOL     OW 9318   4.697   0.890   3.434
 3101SOL    HW1 9319   4.743   0.806   3.405
 3101SOL    HW2 9320   4.641   0.924   3.359
 3102SOL     OW 9321   4.715   0.410   3.104
 3102SOL    HW1 9322   4.638   0.444   3.158
 3102SOL    HW2 9323   4.681   0.359   3.025
 3103SOL     OW 9324   4.765   0.701   2.291
 3103SOL    HW1 9325   4.791   0.697   2.387
 3103SOL    HW2 9326   4.680   0.650   2.277
 3104SOL     OW 9327   3.800   0.811   2.651
 3104SOL    HW1 9328   3.899   0.799   2.660
 3104SOL    HW2 9329   3.776   0.906   2.672
 3105SOL     OW 9330   3.854   1.821   3.433
 3105SOL    HW1 9331   3.844   1.806   3.532
 3105SOL    HW2 9332   3.768   1.857   3.397
 3106SOL     OW 9333   4.589   0.348   2.057
 3106SOL    HW1 9334   4.648   0.411   2.008
 3106SOL    HW2 9335   4.608   0.254   2.028
 3107SOL     OW 9336   4.274   0.196   2.747
 3107SOL    HW1 9337   4.269   0.191   2.847
 3107SOL    HW2 9338   4.276   0.292   2.718
 3108SOL     OW 9339   4.732   1.456   2.339
 3108SOL    HW1 9340   4.686   1.528   2.287
 3108SOL    HW2 9341   4.728   1.476   2.437
 3109SOL     OW 9342   4.075   1.801   2.715
 3109SOL    HW1 9343   4.125   1.715   2.721
 3109SOL    HW2 9344   4.140   1.878   2.712
 3110SOL     OW 9345   4.045   0.943   2.104
 3110SOL    HW1 9346   4.127   0.982   2.062
 3110SOL    HW2 9347   4.018   0.861   2.055
 3111SOL     OW 9348   4.185   1.266   3.589
 3111SOL    HW1 9349   4.135   1.267   3.503
 3111SOL    HW2 9350   4.122   1.248   3.665
 3112SOL     OW 9351   3.926   0.285   3.360
 3112SOL    HW1 9352   3.846   0.345   3.347
 3112SOL    HW2 9353   3.916   0.236   3.446
 3113SOL     OW 9354   4.188   1.743   2.185
 3113SOL    HW1 9355   4.221   1.782   2.271
 3113SOL    HW2 9356   4.264   1.736   2.120
 3114SOL     OW 9357   3.973   1.785   3.103
 3114SOL    HW1 9358   4.030   1.720   3.153
 3114SOL    HW2 9359   3.957   1.752   3.010
 3115SOL     OW 9360   4.664   1.698   2.766
 3115SOL    HW1 9361   4.744   1.641   2.787
 3115SOL    HW2 9362   4.615   1.658   2.689
 3116SOL     OW 9363   4.106   0.700   2.342
 3116SOL    HW1 9364   4.151   0.610   2.339
 3116SOL    HW2 9365   4.012   0.689   2.375
 3117SOL     OW 9366   4.338   0.122   1.979
 3117SOL    HW1 9367   4.436   0.100   1.986
 3117SOL    HW2 9368   4.307   0.105   1.886
 3118SOL     OW 9369   4.505   0.264   3.611
 3118SOL    HW1 9370   4.572   0.203   3.654
 3118SOL    HW2 9371   4.432   0.283   3.676
 3119SOL     OW 9372   4.612   1.514   3.057
 3119SOL    HW1 9373   4.589   1.489   2.963
 3119SOL    HW2 9374   4.673   1.445   3.096
 3120SOL     OW 9375   4.527   1.402   2.786
 3120SOL    HW1 9376   4.617   1.416   2.744
 3120SOL    HW2 9377   4.456   1.404   2.715
 3121SOL     OW 9378   4.646   0.503   2.761
 3121SOL    HW1 9379   4.621   0.494   2.665
 3121SOL    HW2 9380   4.694   0.421   2.792
 3122SOL     OW 9381   4.263   0.064   2.374
 3122SOL    HW1 9382   4.182   0.065   2.432
 3122SOL    HW2 9383   4.266   0.147   2.319
 3123SOL     OW 9384   4.021   0.035   2.033
 3123SOL    HW1 9385   4.070   0.119   2.012
 3123SOL    HW2 9386   4.083  -0.030   2.078
 3124SOL     OW 9387   4.659   0.236   2.342
 3124SOL    HW1 9388   4.611   0.277   2.264
 3124SOL    HW2 9389   4.758   0.234   2.323
 3125SOL     OW 9390   4.951   1.570   2.655
 3125SOL    HW1 9391   4.972   1.644   2.590
 3125SOL    HW2 9392   5.019   1.570   2.728
 3126SOL     OW 9393   4.183   1.152   2.603
 3126SOL    HW1 9394   4.112   1.125   2.668
 3126SOL    HW2 9395   4.157   1.124   2.510
 3127SOL     OW 9396   4.995   1.797   2.453
 3127SOL    HW1 9397   5.039   1.861   2.389
 3127SOL    HW2 9398   4.945   1.849   2.523
 3128SOL     OW 9399   4.756   0.549   1.878
 3128SOL    HW1 9400   4.715   0.631   1.839
 3128SOL    HW2 9401   4.820   0.575   1.951
 3129SOL     OW 9402   3.802   0.556   3.248
 3129SOL    HW1 9403   3.894   0.555   3.207
 3129SOL    HW2 9404   3.796   0.630   3.315
 3130SOL     OW 9405   4.285   0.222   3.009
 3130SOL    HW1 9406   4.323   0.138   3.046
 3130SOL    HW2 9407   4.197   0.241   3.053
 3131SOL     OW 9408   4.590   0.454   2.504
 3131SOL    HW1 9409   4.558   0.526   2.442
 3131SOL    HW2 9410   4.614   0.373   2.451
 3132SOL     OW 9411   4.741   0.039   2.615
 3132SOL    HW1 9412   4.669   0.044   2.546
 3132SOL    HW2 9413   4.717  -0.030   2.684
 3133SOL     OW 9414   4.212   1.385   2.036
 3133SOL    HW1 9415   4.125   1.370   2.083
 3133SOL    HW2 9416   4.195   1.411   1.941
 3134SOL     OW 9417   4.251   0.256   2.190
 3134SOL    HW1 9418   4.278   0.197   2.115
 3134SOL    HW2 9419   4.251   0.351   2.159
 3135SOL     OW 9420   4.639   0.089   3.264
 3135SOL    HW1 9421   4.664   0.069   3.169
 3135SOL    HW2 9422   4.711   0.145   3.306
 3136SOL     OW 9423   4.704   1.116   3.581
 3136SOL    HW1 9424   4.605   1.122   3.591
 3136SOL    HW2 9425   4.727   1.036   3.525
 3137SOL     OW 9426   4.429   1.050   2.230
 3137SOL    HW1 9427   4.415   1.057   2.329
 3137SOL    HW2 9428   4.513   0.999   2.212
 3138SOL     OW 9429   4.134   0.813   3.113
 3138SOL    HW1 9430   4.220   0.825   3.163
 3138SOL    HW2 9431   4.092   0.726   3.140
 3139SOL     OW 9432   3.788   1.564   3.193
 3139SOL    HW1 9433   3.742   1.646   3.159
 3139SOL    HW2 9434   3.886   1.583   3.202
 3140SOL     OW 9435   4.091   1.100   2.363
 3140SOL    HW1 9436   4.084   1.183   2.307
 3140SOL    HW2 9437   4.095   1.020   2.303
 3141SOL     OW 9438   4.290   0.537   2.727
 3141SOL    HW1 9439   4.302   0.603   2.653
 3141SOL    HW2 9440   4.336   0.571   2.810
 3142SOL     OW 9441   4.976   1.348   2.250
 3142SOL    HW1 9442   5.026   1.425   2.290
 3142SOL    HW2 9443   4.881   1.350   2.282
 3143SOL     OW 9444   4.078   1.510   3.191
 3143SOL    HW1 9445   4.057   1.466   3.104
 3143SOL    HW2 9446   4.175   1.536   3.194
 3144SOL     OW 9447   4.126   0.751   3.460
 3144SOL    HW1 9448   4.194   0.806   3.413
 3144SOL    HW2 9449   4.166   0.663   3.487
 3145SOL     OW 9450   4.737   0.105   3.632
 3145SOL    HW1 9451   4.743   0.190   3.580
 3145SOL    HW2 9452   4.769   0.029   3.575
 3146SOL     OW 9453   4.228   0.050   3.602
 3146SOL    HW1 9454   4.186  -0.007   3.532
 3146SOL    HW2 9455   4.162   0.119   3.634
 3147SOL     OW 9456   4.297   0.870   2.891
 3147SOL    HW1 9457   4.341   0.959   2.882
 3147SOL    HW2 9458   4.234   0.870   2.968
 3148SOL     OW 9459   4.933   0.525   2.137
 3148SOL    HW1 9460   4.946   0.441   2.191
 3148SOL    HW2 9461   4.904   0.599   2.197
 3149SOL     OW 9462   4.031   0.213   3.093
 3149SOL    HW1 9463   4.008   0.250   3.183
 3149SOL    HW2 9464   4.001   0.118   3.087
 3150SOL     OW 9465   3.761   1.310   3.144
 3150SOL    HW1 9466   3.814   1.261   3.212
 3150SOL    HW2 9467   3.783   1.408   3.149
 3151SOL     OW 9468   4.456   0.634   2.926
 3151SOL    HW1 9469   4.515   0.608   2.850
 3151SOL    HW2 9470   4.428   0.730   2.915
 3152SOL     OW 9471   4.031   0.063   2.480
 3152SOL    HW1 9472   4.020   0.157   2.513
 3152SOL    HW2 9473   4.026   0.000   2.557
 3153SOL     OW 9474   4.747   0.766   2.828
 3153SOL    HW1 9475   4.762   0.787   2.924
 3153SOL    HW2 9476   4.717   0.671   2.819
 3154SOL     OW 9477   4.704   1.573   3.562
 3154SOL    HW1 9478   4.684   1.617   3.474
 3154SOL    HW2 9479   4.743   1.482   3.546
 3155SOL     OW 9480   4.074   0.898   3.666
 3155SOL    HW1 9481   4.150   0.942   3.714
 3155SOL    HW2 9482   4.109   0.851   3.584
 3156SOL     OW 9483   5.027   0.838   1.904
 3156SOL    HW1 9484   5.061   0.745   1.919
 3156SOL    HW2 9485   5.045   0.865   1.809
 3157SOL     OW 9486   4.792   1.333   2.711
 3157SOL    HW1 9487   4.799   1.249   2.656
 3157SOL    HW2 9488   4.854   1.402   2.675
 3158SOL     OW 9489   4.043   0.810   2.811
 3158SOL    HW1 9490   4.136   0.846   2.816
 3158SOL    HW2 9491   4.037   0.725   2.863
 3159SOL     OW 9492   4.063   0.509   2.868
 3159SOL    HW1 9493   4.011   0.426   2.851
 3159SOL    HW2 9494   4.140   0.514   2.804
 3160SOL     OW 9495   4.862   0.380   3.540
 3160SOL    HW1 9496   4.817   0.443   3.604
 3160SOL    HW2 9497   4.955   0.411   3.523
 3161SOL     OW 9498   3.732   1.326   2.062
 3161SOL    HW1 9499   3.639   1.347   2.031
 3161SOL    HW2 9500   3.742   1.227   2.075
 3162SOL     OW 9501   3.812   1.801   2.789
 3162SOL    HW1 9502   3.770   1.715   2.762
 3162SOL    HW2 9503   3.906   1.804   2.755
 3163SOL     OW 9504   4.228   1.568   2.772
 3163SOL    HW1 9505   4.294   1.642   2.781
 3163SOL    HW2 9506   4.272   1.489   2.730
 3164SOL     OW 9507   4.726   0.796   3.100
 3164SOL    HW1 9508   4.767   0.764   3.186
 3164SOL    HW2 9509   4.630   0.769   3.097
 3165SOL     OW 9510   3.764   0.544   2.976
 3165SOL    HW1 9511   3.849   0.511   2.935
 3165SOL    HW2 9512   3.777   0.559   3.074
 3166SOL     OW 9513   3.913   0.520   3.584
 3166SOL    HW1 9514   3.972   0.480   3.514
 3166SOL    HW2 9515   3.855   0.591   3.543
 3167SOL     OW 9516   4.539   0.572   2.187
 3167SOL    HW1 9517   4.546   0.483   2.141
 3167SOL    HW2 9518   4.445   0.606   2.179
 3168SOL     OW 9519   3.976   1.564   3.606
 3168SOL    HW1 9520   3.946   1.621   3.682
 3168SOL    HW2 9521   3.969   1.467   3.632
 3169SOL     OW 9522   4.395   0.464   3.131
 3169SOL    HW1 9523   4.361   0.375   3.101
 3169SOL    HW2 9524   4.421   0.518   3.051
 3170SOL     OW 9525   4.654   1.678   3.327
 3170SOL    HW1 9526   4.630   1.660   3.232
 3170SOL    HW2 9527   4.684   1.772   3.337
 3171SOL     OW 9528   4.197   0.500   2.053
 3171SOL    HW1 9529   4.258   0.580   2.057
 3171SOL    HW2 9530   4.102   0.531   2.060
 3172SOL     OW 9531   3.883   1.137   3.328
 3172SOL    HW1 9532   3.905   1.076   3.404
 3172SOL    HW2 9533   3.893   1.088   3.242
 3173SOL     OW 9534   5.026   0.855   2.171
 3173SOL    HW1 9535   4.940   0.824   2.213
 3173SOL    HW2 9536   5.022   0.841   2.072
 3174SOL     OW 9537   3.807   1.258   2.884
 3174SOL    HW1 9538   3.802   1.257   2.984
 3174SOL    HW2 9539   3.724   1.217   2.846
 3175SOL     OW 9540   4.412   1.662   3.578
 3175SOL    HW1 9541   4.356   1.743   3.587
 3175SOL    HW2 9542   4.464   1.666   3.492
 3176SOL     OW 9543   3.854   1.794   3.713
 3176SOL    HW1 9544   3.813   1.720   3.766
 3176SOL    HW2 9545   3.918   1.845   3.771
 3177SOL     OW 9546   4.554   1.273   3.284
 3177SOL    HW1 9547   4.549   1.306   3.379
 3177SOL    HW2 9548   4.468   1.292   3.238
 3178SOL     OW 9549   4.396   1.616   2.016
 3178SOL    HW1 9550   4.405   1.626   1.917
 3178SOL    HW2 9551   4.356   1.527   2.037
 3179SOL     OW 9552   3.987   0.326   2.582
 3179SOL    HW1 9553   3.908   0.377   2.548
 3179SOL    HW2 9554   3.978   0.311   2.680
 3180SOL     OW 9555   4.546   1.002   3.234
 3180SOL    HW1 9556   4.586   1.001   3.142
 3180SOL    HW2 9557   4.556   1.094   3.274
 3181SOL     OW 9558   4.640   0.910   2.153
 3181SOL    HW1 9559   4.703   0.948   2.085
 3181SOL    HW2 9560   4.680   0.827   2.192
 3182SOL     OW 9561   4.096   1.288   3.352
 3182SOL    HW1 9562   4.083   1.381   3.318
 3182SOL    HW2 9563   4.012   1.236   3.339
 3183SOL     OW 9564   4.763   1.098   2.558
 3183SOL    HW1 9565   4.693   1.051   2.612
 3183SOL    HW2 9566   4.822   1.030   2.515
 3184SOL     OW 9567   4.738   0.236   2.833
 3184SOL    HW1 9568   4.730   0.200   2.740
 3184SOL    HW2 9569   4.736   0.160   2.898
 3185SOL     OW 9570   4.314   1.487   2.353
 3185SOL    HW1 9571   4.356   1.429   2.283
 3185SOL    HW2 9572   4.270   1.566   2.309
 3186SOL     OW 9573   3.979   1.348   2.152
 3186SOL    HW1 9574   3.883   1.349   2.125
 3186SOL    HW2 9575   3.991   1.401   2.236
 3187SOL     OW 9576   3.829   1.013   3.588
 3187SOL    HW1 9577   3.752   0.980   3.642
 3187SOL    HW2 9578   3.914   0.983   3.630
 3188SOL     OW 9579   4.396   0.203   3.351
 3188SOL    HW1 9580   4.486   0.187   3.311
 3188SOL    HW2 9581   4.404   0.208   3.450
 3189SOL     OW 9582   3.799   0.345   1.895
 3189SOL    HW1 9583   3.707   0.317   1.866
 3189SOL    HW2 9584   3.830   0.422   1.839
 3190SOL     OW 9585   3.796   0.166   2.180
 3190SOL    HW1 9586   3.779   0.249   2.126
 3190SOL    HW2 9587   3.886   0.129   2.158
 3191SOL     OW 9588   4.337   0.842   3.293
 3191SOL    HW1 9589   4.393   0.923   3.276
 3191SOL    HW2 9590   4.396   0.762   3.296
 3192SOL     OW 9591   4.440   0.565   3.570
 3192SOL    HW1 9592   4.459   0.630   3.644
 3192SOL    HW2 9593   4.500   0.485   3.579
 3193SOL     OW 9594   4.114   1.741   3.422
 3193SOL    HW1 9595   4.023   1.782   3.420
 3193SOL    HW2 9596   4.107   1.647   3.454
 3194SOL     OW 9597   4.318   0.745   2.514
 3194SOL    HW1 9598   4.368   0.830   2.495
 3194SOL    HW2 9599   4.230   0.747   2.466
 3195SOL     OW 9600   4.583   1.374   1.878
 3195SOL    HW1 9601   4.537   1.389   1.966
 3195SOL    HW2 9602   4.627   1.459   1.848
 3196SOL     OW 9603   4.385   1.790   2.815
 3196SOL    HW1 9604   4.339   1.878   2.802
 3196SOL    HW2 9605   4.484   1.802   2.808
 3197SOL     OW 9606   4.583   0.956   2.723
 3197SOL    HW1 9607   4.637   0.887   2.771
 3197SOL    HW2 9608   4.551   1.025   2.789
 3198SOL     OW 9609   4.807   0.984   1.949
 3198SOL    HW1 9610   4.784   1.037   1.867
 3198SOL    HW2 9611   4.888   0.928   1.930
 3199SOL     OW 9612   3.945   1.314   3.706
 3199SOL    HW1 9613   3.880   1.241   3.685
 3199SOL    HW2 9614   3.949   1.328   3.804
 3200SOL     OW 9615   3.803   1.240   2.515
 3200SOL    HW1 9616   3.802   1.193   2.603
 3200SOL    HW2 9617   3.885   1.212   2.464
 3201SOL     OW 9618   4.396   1.391   3.486
 3201SOL    HW1 9619   4.318   1.341   3.524
 3201SOL    HW2 9620   4.393   1.486   3.517
 3202SOL     OW 9621   4.152   0.424   2.382
 3202SOL    HW1 9622   4.182   0.352   2.320
 3202SOL    HW2 9623   4.113   0.384   2.465
 3203SOL     OW 9624   4.041   0.547   3.142
 3203SOL    HW1 9625   4.079   0.488   3.214
 3203SOL    HW2 9626   4.081   0.521   3.054
 3204SOL     OW 9627   4.536   1.586   2.549
 3204SOL    HW1 9628   4.568   1.596   2.455
 3204SOL    HW2 9629   4.457   1.524   2.551
 3205SOL     OW 9630   4.725   0.034   3.016
 3205SOL    HW1 9631   4.662  -0.038   2.985
 3205SOL    HW2 9632   4.818  -0.002   3.016
 3206SOL     OW 9633   4.494   1.330   2.163
 3206SOL    HW1 9634   4.448   1.243   2.180
 3206SOL    HW2 9635   4.585   1.327   2.204
 3207SOL     OW 9636   4.342   1.567   3.146
 3207SOL    HW1 9637   4.337   1.649   3.203
 3207SOL    HW2 9638   4.431   1.564   3.101
 3208SOL     OW 9639   3.763   1.077   2.162
 3208SOL    HW1 9640   3.862   1.066   2.153
 3208SOL    HW2 9641   3.723   0.991   2.194
 3209SOL     OW 9642   4.599   1.646   2.199
 3209SOL    HW1 9643   4.522   1.611   2.145
 3209SOL    HW2 9644   4.567   1.717   2.261
 3210SOL     OW 9645   3.954   0.628   3.837
 3210SOL    HW1 9646   3.861   0.626   3.874
 3210SOL    HW2 9647   3.955   0.589   3.745
 3211SOL     OW 9648   3.949   0.275   4.720
 3211SOL    HW1 9649   3.984   0.258   4.812
 3211SOL    HW2 9650   3.861   0.230   4.708
 3212SOL     OW 9651   3.743   0.368   4.371
 3212SOL    HW1 9652   3.661   0.411   4.410
 3212SOL    HW2 9653   3.715   0.295   4.308
 3213SOL     OW 9654   4.492   1.144   4.747
 3213SOL    HW1 9655   4.414   1.161   4.807
 3213SOL    HW2 9656   4.526   1.231   4.711
 3214SOL     OW 9657   4.409   1.012   4.389
 3214SOL    HW1 9658   4.478   0.996   4.459
 3214SOL    HW2 9659   4.336   1.069   4.427
 3215SOL     OW 9660   4.059   1.435   4.785
 3215SOL    HW1 9661   3.981   1.404   4.732
 3215SOL    HW2 9662   4.117   1.493   4.728
 3216SOL     OW 9663   3.955   1.713   4.207
 3216SOL    HW1 9664   3.989   1.790   4.261
 3216SOL    HW2 9665   3.999   1.713   4.117
 3217SOL     OW 9666   3.954   1.434   4.262
 3217SOL    HW1 9667   3.928   1.530   4.262
 3217SOL    HW2 9668   3.883   1.380   4.307
 3218SOL     OW 9669   3.964   1.091   4.610
 3218SOL    HW1 9670   3.978   1.007   4.662
 3218SOL    HW2 9671   3.909   1.155   4.665
 3219SOL     OW 9672   4.330   0.964   3.847
 3219SOL    HW1 9673   4.337   1.048   3.793
 3219SOL    HW2 9674   4.376   0.977   3.935
 3220SOL     OW 9675   3.846   0.643   4.287
 3220SOL    HW1 9676   3.801   0.555   4.304
 3220SOL    HW2 9677   3.845   0.697   4.371
 3221SOL     OW 9678   3.751   1.596   3.841
 3221SOL    HW1 9679   3.732   1.500   3.862
 3221SOL    HW2 9680   3.718   1.654   3.916
 3222SOL     OW 9681   4.337   1.365   4.450
 3222SOL    HW1 9682   4.288   1.278   4.459
 3222SOL    HW2 9683   4.314   1.408   4.363
 3223SOL     OW 9684   4.533   0.004   4.226
 3223SOL    HW1 9685   4.573   0.095   4.217
 3223SOL    HW2 9686   4.433   0.012   4.232
 3224SOL     OW 9687   3.921   0.976   4.988
 3224SOL    HW1 9688   4.010   0.931   4.974
 3224SOL    HW2 9689   3.848   0.911   4.969
 3225SOL     OW 9690   4.322   0.729   3.994
 3225SOL    HW1 9691   4.346   0.798   3.926
 3225SOL    HW2 9692   4.244   0.762   4.048
 3226SOL     OW 9693   4.765   0.701   4.153
 3226SOL    HW1 9694   4.791   0.697   4.249
 3226SOL    HW2 9695   4.680   0.650   4.139
 3227SOL     OW 9696   3.800   0.811   4.513
 3227SOL    HW1 9697   3.899   0.799   4.522
 3227SOL    HW2 9698   3.776   0.906   4.534
 3228SOL     OW 9699   4.589   0.348   3.919
 3228SOL    HW1 9700   4.648   0.411   3.870
 3228SOL    HW2 9701   4.608   0.254   3.890
 3229SOL     OW 9702   4.274   0.196   4.609
 3229SOL    HW1 9703   4.269   0.191   4.709
 3229SOL    HW2 9704   4.276   0.292   4.580
 3230SOL     OW 9705   4.732   1.456   4.201
 3230SOL    HW1 9706   4.686   1.528   4.149
 3230SOL    HW2 9707   4.728   1.476   4.299
 3231SOL     OW 9708   4.075   1.801   4.577
 3231SOL    HW1 9709   4.125   1.715   4.583
 3231SOL    HW2 9710   4.140   1.878   4.574
 3232SOL     OW 9711   4.045   0.943   3.966
 3232SOL    HW1 9712   4.127   0.982   3.924
 3232SOL    HW2 9713   4.018   0.861   3.917
 3233SOL     OW 9714   4.188   1.743   4.047
 3233SOL    HW1 9715   4.221   1.782   4.133
 3233SOL    HW2 9716   4.264   1.736   3.982
 3234SOL     OW 9717   3.973   1.785   4.965
 3234SOL    HW1 9718   4.030   1.720   5.015
 3234SOL    HW2 9719   3.957   1.752   4.872
 3235SOL     OW 9720   4.664   1.698   4.628
 3235SOL    HW1 9721   4.744   1.641   4.649
 3235SOL    HW2 9722   4.615   1.658   4.551
 3236SOL     OW 9723   4.106   0.700   4.204
 3236SOL    HW1 9724   4.151   0.610   4.201
 3236SOL    HW2 9725   4.012   0.689   4.237
 3237SOL     OW 9726   4.338   0.122   3.841
 3237SOL    HW1 9727   4.436   0.100   3.848
 3237SOL    HW2 9728   4.307   0.105   3.748
 3238SOL     OW 9729   4.527   1.402   4.648
 3238SOL    HW1 9730   4.617   1.416   4.606
 3238SOL    HW2 9731   4.456   1.404   4.577
 3239SOL     OW 9732   4.646   0.503   4.623
 3239SOL    HW1 9733   4.621   0.494   4.527
 3239SOL    HW2 9734   4.694   0.421   4.654
 3240SOL     OW 9735   4.263   0.064   4.236
 3240SOL    HW1 9736   4.182   0.065   4.294
 3240SOL    HW2 9737   4.266   0.147   4.181
 3241SOL     OW 9738   4.021   0.035   3.895
 3241SOL    HW1 9739   4.070   0.119   3.874
 3241SOL    HW2 9740   4.083  -0.030   3.940
 3242SOL     OW 9741   4.659   0.236   4.204
 3242SOL    HW1 9742   4.611   0.277   4.126
 3242SOL    HW2 9743   4.758   0.234   4.185
 3243SOL     OW 9744   4.951   1.570   4.517
 3243SOL    HW1 9745   4.972   1.644   4.452
 3243SOL    HW2 9746   5.019   1.570   4.590
 3244SOL     OW 9747   4.183   1.152   4.465
 3244SOL    HW1 9748   4.112   1.125   4.530
 3244SOL    HW2 9749   4.157   1.124   4.372
 3245SOL     OW 9750   4.995   1.797   4.315
 3245SOL    HW1 9751   5.039   1.861   4.251
 3245SOL    HW2 9752   4.945   1.849   4.385
 3246SOL     OW 9753   4.756   0.549   3.740
 3246SOL    HW1 9754   4.715   0.631   3.701
 3246SOL    HW2 9755   4.820   0.575   3.813
 3247SOL     OW 9756   4.590   0.454   4.366
 3247SOL    HW1 9757   4.558   0.526   4.304
 3247SOL    HW2 9758   4.614   0.373   4.313
 3248SOL     OW 9759   4.741   0.039   4.477
 3248SOL    HW1 9760   4.669   0.044   4.408
 3248SOL    HW2 9761   4.717  -0.030   4.546
 3249SOL     OW 9762   4.212   1.385   3.898
 3249SOL    HW1 9763   4.125   1.370   3.945
 3249SOL    HW2 9764   4.195   1.411   3.803
 3250SOL     OW 9765   4.251   0.256   4.052
 3250SOL    HW1 9766   4.278   0.197   3.977
 3250SOL    HW2 9767   4.251   0.351   4.021
 3251SOL     OW 9768   4.429   1.050   4.092
 3251SOL    HW1 9769   4.415   1.057   4.191
 3251SOL    HW2 9770   4.513   0.999   4.074
 3252SOL     OW 9771   4.134   0.813   4.975
 3252SOL    HW1 9772   4.220   0.825   5.025
 3252SOL    HW2 9773   4.092   0.726   5.002
 3253SOL     OW 9774   4.091   1.100   4.225
 3253SOL    HW1 9775   4.084   1.183   4.169
 3253SOL    HW2 9776   4.095   1.020   4.165
 3254SOL     OW 9777   4.290   0.537   4.589
 3254SOL    HW1 9778   4.302   0.603   4.515
 3254SOL    HW2 9779   4.336   0.571   4.672
 3255SOL     OW 9780   4.976   1.348   4.112
 3255SOL    HW1 9781   5.026   1.425   4.152
 3255SOL    HW2 9782   4.881   1.350   4.144
 3256SOL     OW 9783   4.078   1.510   5.053
 3256SOL    HW1 9784   4.057   1.466   4.966
 3256SOL    HW2 9785   4.175   1.536   5.056
 3257SOL     OW 9786   4.297   0.870   4.753
 3257SOL    HW1 9787   4.341   0.959   4.744
 3257SOL    HW2 9788   4.234   0.870   4.830
 3258SOL     OW 9789   4.933   0.525   3.999
 3258SOL    HW1 9790   4.946   0.441   4.053
 3258SOL    HW2 9791   4.904   0.599   4.059
 3259SOL     OW 9792   4.456   0.634   4.788
 3259SOL    HW1 9793   4.515   0.608   4.712
 3259SOL    HW2 9794   4.428   0.730   4.777
 3260SOL     OW 9795   4.031   0.063   4.342
 3260SOL    HW1 9796   4.020   0.157   4.375
 3260SOL    HW2 9797   4.026   0.000   4.419
 3261SOL     OW 9798   4.747   0.766   4.690
 3261SOL    HW1 9799   4.762   0.787   4.786
 3261SOL    HW2 9800   4.717   0.671   4.681
 3262SOL     OW 9801   5.027   0.838   3.766
 3262SOL    HW1 9802   5.061   0.745   3.781
 3262SOL    HW2 9803   5.045   0.865   3.671
 3263SOL     OW 9804   4.792   1.333   4.573
 3263SOL    HW1 9805   4.799   1.249   4.518
 3263SOL    HW2 9806   4.854   1.402   4.537
 3264SOL     OW 9807   4.043   0.810   4.673
 3264SOL    HW1 9808   4.136   0.846   4.678
 3264SOL    HW2 9809   4.037   0.725   4.725
 3265SOL     OW 9810   4.063   0.509   4.730
 3265SOL    HW1 9811   4.011   0.426   4.713
 3265SOL    HW2 9812   4.140   0.514   4.666
 3266SOL     OW 9813   3.732   1.326   3.924
 3266SOL    HW1 9814   3.639   1.347   3.893
 3266SOL    HW2 9815   3.742   1.227   3.937
 3267SOL     OW 9816   3.812   1.801   4.651
 3267SOL    HW1 9817   3.770   1.715   4.624
 3267SOL    HW2 9818   3.906   1.804   4.617
 3268SOL     OW 9819   4.228   1.568   4.634
 3268SOL    HW1 9820   4.294   1.642   4.643
 3268SOL    HW2 9821   4.272   1.489   4.592
 3269SOL     OW 9822   4.726   0.796   4.962
 3269SOL    HW1 9823   4.767   0.764   5.048
 3269SOL    HW2 9824   4.630   0.769   4.959
 3270SOL     OW 9825   3.764   0.544   4.838
 3270SOL    HW1 9826   3.849   0.511   4.797
 3270SOL    HW2 9827   3.777   0.559   4.936
 3271SOL     OW 9828   4.539   0.572   4.049
 3271SOL    HW1 9829   4.546   0.483   4.003
 3271SOL    HW2 9830   4.445   0.606   4.041
 3272SOL     OW 9831   4.395   0.464   4.993
 3272SOL    HW1 9832   4.361   0.375   4.963
 3272SOL    HW2 9833   4.421   0.518   4.913
 3273SOL     OW 9834   4.197   0.500   3.915
 3273SOL    HW1 9835   4.258   0.580   3.919
 3273SOL    HW2 9836   4.102   0.531   3.922
 3274SOL     OW 9837   5.026   0.855   4.033
 3274SOL    HW1 9838   4.940   0.824   4.075
 3274SOL    HW2 9839   5.022   0.841   3.934
 3275SOL     OW 9840   3.807   1.258   4.746
 3275SOL    HW1 9841   3.802   1.257   4.846
 3275SOL    HW2 9842   3.724   1.217   4.708
 3276SOL     OW 9843   4.396   1.616   3.878
 3276SOL    HW1 9844   4.405   1.626   3.779
 3276SOL    HW2 9845   4.356   1.527   3.899
 3277SOL     OW 9846   3.987   0.326   4.444
 3277SOL    HW1 9847   3.908   0.377   4.410
 3277SOL    HW2 9848   3.978   0.311   4.542
 3278SOL     OW 9849   4.546   1.002   5.096
 3278SOL    HW1 9850   4.586   1.001   5.004
 3278SOL    HW2 9851   4.556   1.094   5.136
 3279SOL     OW 9852   4.640   0.910   4.015
 3279SOL    HW1 9853   4.703   0.948   3.947
 3279SOL    HW2 9854   4.680   0.827   4.054
 3280SOL     OW 9855   4.763   1.098   4.420
 3280SOL    HW1 9856   4.693   1.051   4.474
 3280SOL    HW2 9857   4.822   1.030   4.377
 3281SOL     OW 9858   4.738   0.236   4.695
 3281SOL    HW1 9859   4.730   0.200   4.602
 3281SOL    HW2 9860   4.736   0.160   4.760
 3282SOL     OW 9861   4.314   1.487   4.215
 3282SOL    HW1 9862   4.356   1.429   4.145
 3282SOL    HW2 9863   4.270   1.566   4.171
 3283SOL     OW 9864   3.979   1.348   4.014
 3283SOL    HW1 9865   3.883   1.349   3.987
 3283SOL    HW2 9866   3.991   1.401   4.098
 3284SOL     OW 9867   3.799   0.345   3.757
 3284SOL    HW1 9868   3.707   0.317   3.728
 3284SOL    HW2 9869   3.830   0.422   3.701
 3285SOL     OW 9870   3.796   0.166   4.042
 3285SOL    HW1 9871   3.779   0.249   3.988
 3285SOL    HW2 9872   3.886   0.129   4.020
 3286SOL     OW 9873   4.318   0.745   4.376
 3286SOL    HW1 9874   4.368   0.830   4.357
 3286SOL    HW2 9875   4.230   0.747   4.328
 3287SOL     OW 9876   4.583   1.374   3.740
 3287SOL    HW1 9877   4.537   1.389   3.828
 3287SOL    HW2 9878   4.627   1.459   3.710
 3288SOL     OW 9879   4.385   1.790   4.677
 3288SOL    HW1 9880   4.339   1.878   4.664
 3288SOL    HW2 9881   4.484   1.802   4.670
 3289SOL     OW 9882   4.583   0.956   4.585
 3289SOL    HW1 9883   4.637   0.887   4.633
 3289SOL    HW2 9884   4.551   1.025   4.651
 3290SOL     OW 9885   4.807   0.984   3.811
 3290SOL    HW1 9886   4.784   1.037   3.729
 3290SOL    HW2 9887   4.888   0.928   3.792
 3291SOL     OW 9888   3.803   1.240   4.377
 3291SOL    HW1 9889   3.802   1.193   4.465
 3291SOL    HW2 9890   3.885   1.212   4.326
 3292SOL     OW 9891   4.152   0.424   4.244
 3292SOL    HW1 9892   4.182   0.352   4.182
 3292SOL    HW2 9893   4.113   0.384   4.327
 3293SOL     OW 9894   4.536   1.586   4.411
 3293SOL    HW1 9895   4.568   1.596   4.317
 3293SOL    HW2 9896   4.457   1.524   4.413
 3294SOL     OW 9897   4.494   1.330   4.025
 3294SOL    HW1 9898   4.448   1.243   4.042
 3294SOL    HW2 9899   4.585   1.327   4.066
 3295SOL     OW 9900   3.763   1.077   4.024
 3295SOL    HW1 9901   3.862   1.066   4.015
 3295SOL    HW2 9902   3.723   0.991   4.056
 3296SOL     OW 9903   4.599   1.646   4.061
 3296SOL    HW1 9904   4.522   1.611   4.007
 3296SOL    HW2 9905   4.567   1.717   4.123
 3297SOL     OW 9906   3.954   2.490   0.113
 3297SOL    HW1 9907   3.861   2.488   0.150
 3297SOL    HW2 9908   3.955   2.451   0.021
 3298SOL     OW 9909   3.949   2.137   0.996
 3298SOL    HW1 9910   3.984   2.120   1.088
 3298SOL    HW2 9911   3.861   2.092   0.984
 3299SOL     OW 9912   3.743   2.230   0.647
 3299SOL    HW1 9913   3.661   2.273   0.686
 3299SOL    HW2 9914   3.715   2.157   0.584
 3300SOL     OW 9915   4.293   3.137   1.165
 3300SOL    HW1 9916   4.200   3.130   1.128
 3300SOL    HW2 9917   4.304   3.226   1.209
 3301SOL     OW 9918   4.492   3.006   1.023
 3301SOL    HW1 9919   4.414   3.023   1.083
 3301SOL    HW2 9920   4.526   3.093   0.987
 3302SOL     OW 9921   4.574   2.660   1.823
 3302SOL    HW1 9922   4.570   2.736   1.888
 3302SOL    HW2 9923   4.596   2.696   1.732
 3303SOL     OW 9924   4.409   2.874   0.665
 3303SOL    HW1 9925   4.478   2.858   0.735
 3303SOL    HW2 9926   4.336   2.931   0.703
 3304SOL     OW 9927   4.410   3.023   1.803
 3304SOL    HW1 9928   4.470   3.102   1.817
 3304SOL    HW2 9929   4.324   3.054   1.762
 3305SOL     OW 9930   4.059   3.297   1.061
 3305SOL    HW1 9931   3.981   3.266   1.008
 3305SOL    HW2 9932   4.117   3.355   1.004
 3306SOL     OW 9933   4.162   2.254   1.499
 3306SOL    HW1 9934   4.244   2.198   1.508
 3306SOL    HW2 9935   4.081   2.196   1.503
 3307SOL     OW 9936   3.955   3.575   0.483
 3307SOL    HW1 9937   3.989   3.652   0.537
 3307SOL    HW2 9938   3.999   3.575   0.393
 3308SOL     OW 9939   4.851   3.203   1.690
 3308SOL    HW1 9940   4.898   3.203   1.778
 3308SOL    HW2 9941   4.803   3.116   1.679
 3309SOL     OW 9942   3.954   3.296   0.538
 3309SOL    HW1 9943   3.928   3.392   0.538
 3309SOL    HW2 9944   3.883   3.242   0.583
 3310SOL     OW 9945   3.964   2.953   0.886
 3310SOL    HW1 9946   3.978   2.869   0.938
 3310SOL    HW2 9947   3.909   3.017   0.941
 3311SOL     OW 9948   4.344   3.648   1.439
 3311SOL    HW1 9949   4.252   3.631   1.474
 3311SOL    HW2 9950   4.372   3.740   1.465
 3312SOL     OW 9951   4.330   2.826   0.123
 3312SOL    HW1 9952   4.337   2.910   0.069
 3312SOL    HW2 9953   4.376   2.839   0.211
 3313SOL     OW 9954   3.846   2.505   0.563
 3313SOL    HW1 9955   3.801   2.417   0.580
 3313SOL    HW2 9956   3.845   2.559   0.647
 3314SOL     OW 9957   3.751   3.458   0.117
 3314SOL    HW1 9958   3.732   3.362   0.138
 3314SOL    HW2 9959   3.718   3.516   0.192
 3315SOL     OW 9960   3.837   2.599   1.597
 3315SOL    HW1 9961   3.925   2.586   1.642
 3315SOL    HW2 9962   3.824   2.696   1.575
 3316SOL     OW 9963   4.337   3.227   0.726
 3316SOL    HW1 9964   4.288   3.140   0.735
 3316SOL    HW2 9965   4.314   3.270   0.639
 3317SOL     OW 9966   4.533   1.866   0.502
 3317SOL    HW1 9967   4.573   1.957   0.493
 3317SOL    HW2 9968   4.433   1.874   0.508
 3318SOL     OW 9969   3.921   2.838   1.264
 3318SOL    HW1 9970   4.010   2.793   1.250
 3318SOL    HW2 9971   3.848   2.773   1.245
 3319SOL     OW 9972   4.041   2.113   1.801
 3319SOL    HW1 9973   4.112   2.184   1.807
 3319SOL    HW2 9974   3.953   2.152   1.829
 3320SOL     OW 9975   4.322   2.591   0.270
 3320SOL    HW1 9976   4.346   2.660   0.202
 3320SOL    HW2 9977   4.244   2.624   0.324
 3321SOL     OW 9978   4.531   2.467   1.465
 3321SOL    HW1 9979   4.484   2.464   1.554
 3321SOL    HW2 9980   4.480   2.412   1.399
 3322SOL     OW 9981   4.697   2.752   1.572
 3322SOL    HW1 9982   4.743   2.668   1.543
 3322SOL    HW2 9983   4.641   2.786   1.497
 3323SOL     OW 9984   4.715   2.272   1.242
 3323SOL    HW1 9985   4.638   2.306   1.296
 3323SOL    HW2 9986   4.681   2.221   1.163
 3324SOL     OW 9987   4.765   2.563   0.429
 3324SOL    HW1 9988   4.791   2.559   0.525
 3324SOL    HW2 9989   4.680   2.512   0.415
 3325SOL     OW 9990   3.800   2.673   0.789
 3325SOL    HW1 9991   3.899   2.661   0.798
 3325SOL    HW2 9992   3.776   2.768   0.810
 3326SOL     OW 9993   3.854   3.683   1.571
 3326SOL    HW1 9994   3.844   3.668   1.670
 3326SOL    HW2 9995   3.768   3.719   1.535
 3327SOL     OW 9996   4.589   2.210   0.195
 3327SOL    HW1 9997   4.648   2.273   0.146
 3327SOL    HW2 9998   4.608   2.116   0.166
 3328SOL     OW 9999   4.274   2.058   0.885
 3328SOL    HW110000   4.269   2.053   0.985
 3328SOL    HW210001   4.276   2.154   0.856
 3329SOL     OW10002   4.732   3.318   0.477
 3329SOL    HW110003   4.686   3.390   0.425
 3329SOL    HW210004   4.728   3.338   0.575
 3330SOL     OW10005   4.075   3.663   0.853
 3330SOL    HW110006   4.125   3.577   0.859
 3330SOL    HW210007   4.140   3.740   0.850
 3331SOL     OW10008   4.045   2.805   0.242
 3331SOL    HW110009   4.127   2.844   0.200
 3331SOL    HW210010   4.018   2.723   0.193
 3332SOL     OW10011   4.185   3.128   1.727
 3332SOL    HW110012   4.135   3.129   1.641
 3332SOL    HW210013   4.122   3.110   1.803
 3333SOL     OW10014   3.926   2.147   1.498
 3333SOL    HW110015   3.846   2.207   1.485
 3333SOL    HW210016   3.916   2.098   1.584
 3334SOL     OW10017   4.188   3.605   0.323
 3334SOL    HW110018   4.221   3.644   0.409
 3334SOL    HW210019   4.264   3.598   0.258
 3335SOL     OW10020   3.973   3.647   1.241
 3335SOL    HW110021   4.030   3.582   1.291
 3335SOL    HW210022   3.957   3.614   1.148
 3336SOL     OW10023   4.664   3.560   0.904
 3336SOL    HW110024   4.744   3.503   0.925
 3336SOL    HW210025   4.615   3.520   0.827
 3337SOL     OW10026   4.106   2.562   0.480
 3337SOL    HW110027   4.151   2.472   0.477
 3337SOL    HW210028   4.012   2.551   0.513
 3338SOL     OW10029   4.338   1.984   0.117
 3338SOL    HW110030   4.436   1.962   0.124
 3338SOL    HW210031   4.307   1.967   0.024
 3339SOL     OW10032   4.505   2.126   1.749
 3339SOL    HW110033   4.572   2.065   1.792
 3339SOL    HW210034   4.432   2.145   1.814
 3340SOL     OW10035   4.612   3.376   1.195
 3340SOL    HW110036   4.589   3.351   1.101
 3340SOL    HW210037   4.673   3.307   1.234
 3341SOL     OW10038   4.527   3.264   0.924
 3341SOL    HW110039   4.617   3.278   0.882
 3341SOL    HW210040   4.456   3.266   0.853
 3342SOL     OW10041   4.646   2.365   0.899
 3342SOL    HW110042   4.621   2.356   0.803
 3342SOL    HW210043   4.694   2.283   0.930
 3343SOL     OW10044   4.263   1.926   0.512
 3343SOL    HW110045   4.182   1.927   0.570
 3343SOL    HW210046   4.266   2.009   0.457
 3344SOL     OW10047   5.158   3.050   0.041
 3344SOL    HW110048   5.190   2.974   0.098
 3344SOL    HW210049   5.066   3.077   0.071
 3345SOL     OW10050   4.021   1.897   0.171
 3345SOL    HW110051   4.070   1.981   0.150
 3345SOL    HW210052   4.083   1.832   0.216
 3346SOL     OW10053   4.659   2.098   0.480
 3346SOL    HW110054   4.611   2.139   0.402
 3346SOL    HW210055   4.758   2.096   0.461
 3347SOL     OW10056   4.951   3.432   0.793
 3347SOL    HW110057   4.972   3.506   0.728
 3347SOL    HW210058   5.019   3.432   0.866
 3348SOL     OW10059   4.183   3.014   0.741
 3348SOL    HW110060   4.112   2.987   0.806
 3348SOL    HW210061   4.157   2.986   0.648
 3349SOL     OW10062   4.995   3.659   0.591
 3349SOL    HW110063   5.039   3.723   0.527
 3349SOL    HW210064   4.945   3.711   0.661
 3350SOL     OW10065   4.756   2.411   0.016
 3350SOL    HW110066   4.715   2.493  -0.023
 3350SOL    HW210067   4.820   2.437   0.089
 3351SOL     OW10068   3.802   2.418   1.386
 3351SOL    HW110069   3.894   2.417   1.345
 3351SOL    HW210070   3.796   2.492   1.453
 3352SOL     OW10071   4.285   2.084   1.147
 3352SOL    HW110072   4.323   2.000   1.184
 3352SOL    HW210073   4.197   2.103   1.191
 3353SOL     OW10074   4.590   2.316   0.642
 3353SOL    HW110075   4.558   2.388   0.580
 3353SOL    HW210076   4.614   2.235   0.589
 3354SOL     OW10077   4.741   1.901   0.753
 3354SOL    HW110078   4.669   1.906   0.684
 3354SOL    HW210079   4.717   1.832   0.822
 3355SOL     OW10080   4.212   3.247   0.174
 3355SOL    HW110081   4.125   3.232   0.221
 3355SOL    HW210082   4.195   3.273   0.079
 3356SOL     OW10083   4.251   2.118   0.328
 3356SOL    HW110084   4.278   2.059   0.253
 3356SOL    HW210085   4.251   2.213   0.297
 3357SOL     OW10086   4.639   1.951   1.402
 3357SOL    HW110087   4.664   1.931   1.307
 3357SOL    HW210088   4.711   2.007   1.444
 3358SOL     OW10089   4.704   2.978   1.719
 3358SOL    HW110090   4.605   2.984   1.729
 3358SOL    HW210091   4.727   2.898   1.663
 3359SOL     OW10092   4.429   2.912   0.368
 3359SOL    HW110093   4.415   2.919   0.467
 3359SOL    HW210094   4.513   2.861   0.350
 3360SOL     OW10095   4.134   2.675   1.251
 3360SOL    HW110096   4.220   2.687   1.301
 3360SOL    HW210097   4.092   2.588   1.278
 3361SOL     OW10098   3.788   3.426   1.331
 3361SOL    HW110099   3.742   3.508   1.297
 3361SOL    HW210100   3.886   3.445   1.340
 3362SOL     OW10101   4.091   2.962   0.501
 3362SOL    HW110102   4.084   3.045   0.445
 3362SOL    HW210103   4.095   2.882   0.441
 3363SOL     OW10104   4.290   2.399   0.865
 3363SOL    HW110105   4.302   2.465   0.791
 3363SOL    HW210106   4.336   2.433   0.948
 3364SOL     OW10107   4.976   3.210   0.388
 3364SOL    HW110108   5.026   3.287   0.428
 3364SOL    HW210109   4.881   3.212   0.420
 3365SOL     OW10110   4.078   3.372   1.329
 3365SOL    HW110111   4.057   3.328   1.242
 3365SOL    HW210112   4.175   3.398   1.332
 3366SOL     OW10113   4.126   2.613   1.598
 3366SOL    HW110114   4.194   2.668   1.551
 3366SOL    HW210115   4.166   2.525   1.625
 3367SOL     OW10116   4.737   1.967   1.770
 3367SOL    HW110117   4.743   2.052   1.718
 3367SOL    HW210118   4.769   1.891   1.713
 3368SOL     OW10119   4.228   1.912   1.740
 3368SOL    HW110120   4.186   1.855   1.670
 3368SOL    HW210121   4.162   1.981   1.772
 3369SOL     OW10122   4.297   2.732   1.029
 3369SOL    HW110123   4.341   2.821   1.020
 3369SOL    HW210124   4.234   2.732   1.106
 3370SOL     OW10125   4.933   2.387   0.275
 3370SOL    HW110126   4.946   2.303   0.329
 3370SOL    HW210127   4.904   2.461   0.335
 3371SOL     OW10128   4.031   2.075   1.231
 3371SOL    HW110129   4.008   2.112   1.321
 3371SOL    HW210130   4.001   1.980   1.225
 3372SOL     OW10131   3.761   3.172   1.282
 3372SOL    HW110132   3.814   3.123   1.350
 3372SOL    HW210133   3.783   3.270   1.287
 3373SOL     OW10134   4.456   2.496   1.064
 3373SOL    HW110135   4.515   2.470   0.988
 3373SOL    HW210136   4.428   2.592   1.053
 3374SOL     OW10137   4.031   1.925   0.618
 3374SOL    HW110138   4.020   2.019   0.651
 3374SOL    HW210139   4.026   1.862   0.695
 3375SOL     OW10140   4.747   2.628   0.966
 3375SOL    HW110141   4.762   2.649   1.062
 3375SOL    HW210142   4.717   2.533   0.957
 3376SOL     OW10143   4.704   3.435   1.700
 3376SOL    HW110144   4.684   3.479   1.612
 3376SOL    HW210145   4.743   3.344   1.684
 3377SOL     OW10146   4.074   2.760   1.804
 3377SOL    HW110147   4.150   2.804   1.852
 3377SOL    HW210148   4.109   2.713   1.722
 3378SOL     OW10149   4.792   3.195   0.849
 3378SOL    HW110150   4.799   3.111   0.794
 3378SOL    HW210151   4.854   3.264   0.813
 3379SOL     OW10152   4.043   2.672   0.949
 3379SOL    HW110153   4.136   2.708   0.954
 3379SOL    HW210154   4.037   2.587   1.001
 3380SOL     OW10155   4.063   2.371   1.006
 3380SOL    HW110156   4.011   2.288   0.989
 3380SOL    HW210157   4.140   2.376   0.942
 3381SOL     OW10158   4.862   2.242   1.678
 3381SOL    HW110159   4.817   2.305   1.742
 3381SOL    HW210160   4.955   2.273   1.661
 3382SOL     OW10161   4.884   2.069   1.477
 3382SOL    HW110162   4.884   2.133   1.554
 3382SOL    HW210163   4.912   2.117   1.394
 3383SOL     OW10164   3.732   3.188   0.200
 3383SOL    HW110165   3.639   3.209   0.169
 3383SOL    HW210166   3.742   3.089   0.213
 3384SOL     OW10167   3.812   3.663   0.927
 3384SOL    HW110168   3.770   3.577   0.900
 3384SOL    HW210169   3.906   3.666   0.893
 3385SOL     OW10170   4.228   3.430   0.910
 3385SOL    HW110171   4.294   3.504   0.919
 3385SOL    HW210172   4.272   3.351   0.868
 3386SOL     OW10173   4.726   2.658   1.238
 3386SOL    HW110174   4.767   2.626   1.324
 3386SOL    HW210175   4.630   2.631   1.235
 3387SOL     OW10176   3.764   2.406   1.114
 3387SOL    HW110177   3.849   2.373   1.073
 3387SOL    HW210178   3.777   2.421   1.212
 3388SOL     OW10179   3.913   2.382   1.722
 3388SOL    HW110180   3.972   2.342   1.652
 3388SOL    HW210181   3.855   2.453   1.681
 3389SOL     OW10182   4.539   2.434   0.325
 3389SOL    HW110183   4.546   2.345   0.279
 3389SOL    HW210184   4.445   2.468   0.317
 3390SOL     OW10185   3.976   3.426   1.744
 3390SOL    HW110186   3.946   3.483   1.820
 3390SOL    HW210187   3.969   3.329   1.770
 3391SOL     OW10188   4.395   2.326   1.269
 3391SOL    HW110189   4.361   2.237   1.239
 3391SOL    HW210190   4.421   2.380   1.189
 3392SOL     OW10191   4.654   3.540   1.465
 3392SOL    HW110192   4.630   3.522   1.370
 3392SOL    HW210193   4.684   3.634   1.475
 3393SOL     OW10194   4.197   2.362   0.191
 3393SOL    HW110195   4.258   2.442   0.195
 3393SOL    HW210196   4.102   2.393   0.198
 3394SOL     OW10197   3.883   2.999   1.466
 3394SOL    HW110198   3.905   2.938   1.542
 3394SOL    HW210199   3.893   2.950   1.380
 3395SOL     OW10200   5.026   2.717   0.309
 3395SOL    HW110201   4.940   2.686   0.351
 3395SOL    HW210202   5.022   2.703   0.210
 3396SOL     OW10203   3.807   3.120   1.022
 3396SOL    HW110204   3.802   3.119   1.122
 3396SOL    HW210205   3.724   3.079   0.984
 3397SOL     OW10206   4.412   3.524   1.716
 3397SOL    HW110207   4.356   3.605   1.725
 3397SOL    HW210208   4.464   3.528   1.630
 3398SOL     OW10209   4.627   1.948   0.133
 3398SOL    HW110210   4.678   1.949   0.047
 3398SOL    HW210211   4.683   1.906   0.204
 3399SOL     OW10212   3.854   3.656   1.851
 3399SOL    HW110213   3.813   3.582   1.904
 3399SOL    HW210214   3.918   3.707   1.909
 3400SOL     OW10215   4.554   3.135   1.422
 3400SOL    HW110216   4.549   3.168   1.517
 3400SOL    HW210217   4.468   3.154   1.376
 3401SOL     OW10218   4.396   3.478   0.154
 3401SOL    HW110219   4.405   3.488   0.055
 3401SOL    HW210220   4.356   3.389   0.175
 3402SOL     OW10221   3.987   2.188   0.720
 3402SOL    HW110222   3.908   2.239   0.686
 3402SOL    HW210223   3.978   2.173   0.818
 3403SOL     OW10224   4.546   2.864   1.372
 3403SOL    HW110225   4.586   2.863   1.280
 3403SOL    HW210226   4.556   2.956   1.412
 3404SOL     OW10227   4.640   2.772   0.291
 3404SOL    HW110228   4.703   2.810   0.223
 3404SOL    HW210229   4.680   2.689   0.330
 3405SOL     OW10230   4.096   3.150   1.490
 3405SOL    HW110231   4.083   3.243   1.456
 3405SOL    HW210232   4.012   3.098   1.477
 3406SOL     OW10233   4.763   2.960   0.696
 3406SOL    HW110234   4.693   2.913   0.750
 3406SOL    HW210235   4.822   2.892   0.653
 3407SOL     OW10236   4.738   2.098   0.971
 3407SOL    HW110237   4.730   2.062   0.878
 3407SOL    HW210238   4.736   2.022   1.036
 3408SOL     OW10239   4.314   3.349   0.491
 3408SOL    HW110240   4.356   3.291   0.421
 3408SOL    HW210241   4.270   3.428   0.447
 3409SOL     OW10242   3.979   3.210   0.290
 3409SOL    HW110243   3.883   3.211   0.263
 3409SOL    HW210244   3.991   3.263   0.374
 3410SOL     OW10245   3.829   2.875   1.726
 3410SOL    HW110246   3.752   2.842   1.780
 3410SOL    HW210247   3.914   2.845   1.768
 3411SOL     OW10248   4.396   2.065   1.489
 3411SOL    HW110249   4.486   2.049   1.449
 3411SOL    HW210250   4.404   2.070   1.588
 3412SOL     OW10251   3.796   2.028   0.318
 3412SOL    HW110252   3.779   2.111   0.264
 3412SOL    HW210253   3.886   1.991   0.296
 3413SOL     OW10254   4.337   2.704   1.431
 3413SOL    HW110255   4.393   2.785   1.414
 3413SOL    HW210256   4.396   2.624   1.434
 3414SOL     OW10257   4.440   2.427   1.708
 3414SOL    HW110258   4.459   2.492   1.782
 3414SOL    HW210259   4.500   2.347   1.717
 3415SOL     OW10260   4.114   3.603   1.560
 3415SOL    HW110261   4.023   3.644   1.558
 3415SOL    HW210262   4.107   3.509   1.592
 3416SOL     OW10263   4.318   2.607   0.652
 3416SOL    HW110264   4.368   2.692   0.633
 3416SOL    HW210265   4.230   2.609   0.604
 3417SOL     OW10266   4.583   3.236   0.016
 3417SOL    HW110267   4.537   3.251   0.104
 3417SOL    HW210268   4.627   3.321  -0.014
 3418SOL     OW10269   4.385   3.652   0.953
 3418SOL    HW110270   4.339   3.740   0.940
 3418SOL    HW210271   4.484   3.664   0.946
 3419SOL     OW10272   4.583   2.818   0.861
 3419SOL    HW110273   4.637   2.749   0.909
 3419SOL    HW210274   4.551   2.887   0.927
 3420SOL     OW10275   4.807   2.846   0.087
 3420SOL    HW110276   4.784   2.899   0.005
 3420SOL    HW210277   4.888   2.790   0.068
 3421SOL     OW10278   3.945   3.176   1.844
 3421SOL    HW110279   3.880   3.103   1.823
 3421SOL    HW210280   3.949   3.190   1.942
 3422SOL     OW10281   3.803   3.102   0.653
 3422SOL    HW110282   3.802   3.055   0.741
 3422SOL    HW210283   3.885   3.074   0.602
 3423SOL     OW10284   4.396   3.253   1.624
 3423SOL    HW110285   4.318   3.203   1.662
 3423SOL    HW210286   4.393   3.348   1.655
 3424SOL     OW10287   4.152   2.286   0.520
 3424SOL    HW110288   4.182   2.214   0.458
 3424SOL    HW210289   4.113   2.246   0.603
 3425SOL     OW10290   4.041   2.409   1.280
 3425SOL    HW110291   4.079   2.350   1.352
 3425SOL    HW210292   4.081   2.383   1.192
 3426SOL     OW10293   4.536   3.448   0.687
 3426SOL    HW110294   4.568   3.458   0.593
 3426SOL    HW210295   4.457   3.386   0.689
 3427SOL     OW10296   4.725   1.896   1.154
 3427SOL    HW110297   4.662   1.824   1.123
 3427SOL    HW210298   4.818   1.860   1.154
 3428SOL     OW10299   4.494   3.192   0.301
 3428SOL    HW110300   4.448   3.105   0.318
 3428SOL    HW210301   4.585   3.189   0.342
 3429SOL     OW10302   4.342   3.429   1.284
 3429SOL    HW110303   4.337   3.511   1.341
 3429SOL    HW210304   4.431   3.426   1.239
 3430SOL     OW10305   3.763   2.939   0.300
 3430SOL    HW110306   3.862   2.928   0.291
 3430SOL    HW210307   3.723   2.853   0.332
 3431SOL     OW10308   4.599   3.508   0.337
 3431SOL    HW110309   4.522   3.473   0.283
 3431SOL    HW210310   4.567   3.579   0.399
 3432SOL     OW10311   3.954   2.490   1.975
 3432SOL    HW110312   3.861   2.488   2.012
 3432SOL    HW210313   3.955   2.451   1.883
 3433SOL     OW10314   3.949   2.137   2.858
 3433SOL    HW110315   3.984   2.120   2.950
 3433SOL    HW210316   3.861   2.092   2.846
 3434SOL     OW10317   3.743   2.230   2.509
 3434SOL    HW110318   3.661   2.273   2.548
 3434SOL    HW210319   3.715   2.157   2.446
 3435SOL     OW10320   4.293   3.137   3.027
 3435SOL    HW110321   4.200   3.130   2.990
 3435SOL    HW210322   4.304   3.226   3.071
 3436SOL     OW10323   4.492   3.006   2.885
 3436SOL    HW110324   4.414   3.023   2.945
 3436SOL    HW210325   4.526   3.093   2.849
 3437SOL     OW10326   4.574   2.660   3.685
 3437SOL    HW110327   4.570   2.736   3.750
 3437SOL    HW210328   4.596   2.696   3.594
 3438SOL     OW10329   4.409   2.874   2.527
 3438SOL    HW110330   4.478   2.858   2.597
 3438SOL    HW210331   4.336   2.931   2.565
 3439SOL     OW10332   4.410   3.023   3.665
 3439SOL    HW110333   4.470   3.102   3.679
 3439SOL    HW210334   4.324   3.054   3.624
 3440SOL     OW10335   4.059   3.297   2.923
 3440SOL    HW110336   3.981   3.266   2.870
 3440SOL    HW210337   4.117   3.355   2.866
 3441SOL     OW10338   4.162   2.254   3.361
 3441SOL    HW110339   4.244   2.198   3.370
 3441SOL    HW210340   4.081   2.196   3.365
 3442SOL     OW10341   3.955   3.575   2.345
 3442SOL    HW110342   3.989   3.652   2.399
 3442SOL    HW210343   3.999   3.575   2.255
 3443SOL     OW10344   4.851   3.203   3.552
 3443SOL    HW110345   4.898   3.203   3.640
 3443SOL    HW210346   4.803   3.116   3.541
 3444SOL     OW10347   3.954   3.296   2.400
 3444SOL    HW110348   3.928   3.392   2.400
 3444SOL    HW210349   3.883   3.242   2.445
 3445SOL     OW10350   3.964   2.953   2.748
 3445SOL    HW110351   3.978   2.869   2.800
 3445SOL    HW210352   3.909   3.017   2.803
 3446SOL     OW10353   4.344   3.648   3.301
 3446SOL    HW110354   4.252   3.631   3.336
 3446SOL    HW210355   4.372   3.740   3.327
 3447SOL     OW10356   4.330   2.826   1.985
 3447SOL    HW110357   4.337   2.910   1.931
 3447SOL    HW210358   4.376   2.839   2.073
 3448SOL     OW10359   3.846   2.505   2.425
 3448SOL    HW110360   3.801   2.417   2.442
 3448SOL    HW210361   3.845   2.559   2.509
 3449SOL     OW10362   3.751   3.458   1.979
 3449SOL    HW110363   3.732   3.362   2.000
 3449SOL    HW210364   3.718   3.516   2.054
 3450SOL     OW10365   3.837   2.599   3.459
 3450SOL    HW110366   3.925   2.586   3.504
 3450SOL    HW210367   3.824   2.696   3.437
 3451SOL     OW10368   4.337   3.227   2.588
 3451SOL    HW110369   4.288   3.140   2.597
 3451SOL    HW210370   4.314   3.270   2.501
 3452SOL     OW10371   4.533   1.866   2.364
 3452SOL    HW110372   4.573   1.957   2.355
 3452SOL    HW210373   4.433   1.874   2.370
 3453SOL     OW10374   3.921   2.838   3.126
 3453SOL    HW110375   4.010   2.793   3.112
 3453SOL    HW210376   3.848   2.773   3.107
 3454SOL     OW10377   4.041   2.113   3.663
 3454SOL    HW110378   4.112   2.184   3.669
 3454SOL    HW210379   3.953   2.152   3.691
 3455SOL     OW10380   4.322   2.591   2.132
 3455SOL    HW110381   4.346   2.660   2.064
 3455SOL    HW210382   4.244   2.624   2.186
 3456SOL     OW10383   4.531   2.467   3.327
 3456SOL    HW110384   4.484   2.464   3.416
 3456SOL    HW210385   4.480   2.412   3.261
 3457SOL     OW10386   4.697   2.752   3.434
 3457SOL    HW110387   4.743   2.668   3.405
 3457SOL    HW210388   4.641   2.786   3.359
 3458SOL     OW10389   4.715   2.272   3.104
 3458SOL    HW110390   4.638   2.306   3.158
 3458SOL    HW210391   4.681   2.221   3.025
 3459SOL     OW10392   4.765   2.563   2.291
 3459SOL    HW110393   4.791   2.559   2.387
 3459SOL    HW210394   4.680   2.512   2.277
 3460SOL     OW10395   3.800   2.673   2.651
 3460SOL    HW110396   3.899   2.661   2.660
 3460SOL    HW210397   3.776   2.768   2.672
 3461SOL     OW10398   3.854   3.683   3.433
 3461SOL    HW110399   3.844   3.668   3.532
 3461SOL    HW210400   3.768   3.719   3.397
 3462SOL     OW10401   4.589   2.210   2.057
 3462SOL    HW110402   4.648   2.273   2.008
 3462SOL    HW210403   4.608   2.116   2.028
 3463SOL     OW10404   4.274   2.058   2.747
 3463SOL    HW110405   4.269   2.053   2.847
 3463SOL    HW210406   4.276   2.154   2.718
 3464SOL     OW10407   4.732   3.318   2.339
 3464SOL    HW110408   4.686   3.390   2.287
 3464SOL    HW210409   4.728   3.338   2.437
 3465SOL     OW10410   4.075   3.663   2.715
 3465SOL    HW110411   4.125   3.577   2.721
 3465SOL    HW210412   4.140   3.740   2.712
 3466SOL     OW10413   4.045   2.805   2.104
 3466SOL    HW110414   4.127   2.844   2.062
 3466SOL    HW210415   4.018   2.723   2.055
 3467SOL     OW10416   4.185   3.128   3.589
 3467SOL    HW110417   4.135   3.129   3.503
 3467SOL    HW210418   4.122   3.110   3.665
 3468SOL     OW10419   3.926   2.147   3.360
 3468SOL    HW110420   3.846   2.207   3.347
 3468SOL    HW210421   3.916   2.098   3.446
 3469SOL     OW10422   4.188   3.605   2.185
 3469SOL    HW110423   4.221   3.644   2.271
 3469SOL    HW210424   4.264   3.598   2.120
 3470SOL     OW10425   3.973   3.647   3.103
 3470SOL    HW110426   4.030   3.582   3.153
 3470SOL    HW210427   3.957   3.614   3.010
 3471SOL     OW10428   4.664   3.560   2.766
 3471SOL    HW110429   4.744   3.503   2.787
 3471SOL    HW210430   4.615   3.520   2.689
 3472SOL     OW10431   4.106   2.562   2.342
 3472SOL    HW110432   4.151   2.472   2.339
 3472SOL    HW210433   4.012   2.551   2.375
 3473SOL     OW10434   4.338   1.984   1.979
 3473SOL    HW110435   4.436   1.962   1.986
 3473SOL    HW210436   4.307   1.967   1.886
 3474SOL     OW10437   4.505   2.126   3.611
 3474SOL    HW110438   4.572   2.065   3.654
 3474SOL    HW210439   4.432   2.145   3.676
 3475SOL     OW10440   4.612   3.376   3.057
 3475SOL    HW110441   4.589   3.351   2.963
 3475SOL    HW210442   4.673   3.307   3.096
 3476SOL     OW10443   4.527   3.264   2.786
 3476SOL    HW110444   4.617   3.278   2.744
 3476SOL    HW210445   4.456   3.266   2.715
 3477SOL     OW10446   4.646   2.365   2.761
 3477SOL    HW110447   4.621   2.356   2.665
 3477SOL    HW210448   4.694   2.283   2.792
 3478SOL     OW10449   4.263   1.926   2.374
 3478SOL    HW110450   4.182   1.927   2.432
 3478SOL    HW210451   4.266   2.009   2.319
 3479SOL     OW10452   4.021   1.897   2.033
 3479SOL    HW110453   4.070   1.981   2.012
 3479SOL    HW210454   4.083   1.832   2.078
 3480SOL     OW10455   4.659   2.098   2.342
 3480SOL    HW110456   4.611   2.139   2.264
 3480SOL    HW210457   4.758   2.096   2.323
 3481SOL     OW10458   4.951   3.432   2.655
 3481SOL    HW110459   4.972   3.506   2.590
 3481SOL    HW210460   5.019   3.432   2.728
 3482SOL     OW10461   4.183   3.014   2.603
 3482SOL    HW110462   4.112   2.987   2.668
 3482SOL    HW210463   4.157   2.986   2.510
 3483SOL     OW10464   4.995   3.659   2.453
 3483SOL    HW110465   5.039   3.723   2.389
 3483SOL    HW210466   4.945   3.711   2.523
 3484SOL     OW10467   4.756   2.411   1.878
 3484SOL    HW110468   4.715   2.493   1.839
 3484SOL    HW210469   4.820   2.437   1.951
 3485SOL     OW10470   3.802   2.418   3.248
 3485SOL    HW110471   3.894   2.417   3.207
 3485SOL    HW210472   3.796   2.492   3.315
 3486SOL     OW10473   4.285   2.084   3.009
 3486SOL    HW110474   4.323   2.000   3.046
 3486SOL    HW210475   4.197   2.103   3.053
 3487SOL     OW10476   4.590   2.316   2.504
 3487SOL    HW110477   4.558   2.388   2.442
 3487SOL    HW210478   4.614   2.235   2.451
 3488SOL     OW10479   4.741   1.901   2.615
 3488SOL    HW110480   4.669   1.906   2.546
 3488SOL    HW210481   4.717   1.832   2.684
 3489SOL     OW10482   4.212   3.247   2.036
 3489SOL    HW110483   4.125   3.232   2.083
 3489SOL    HW210484   4.195   3.273   1.941
 3490SOL     OW10485   4.251   2.118   2.190
 3490SOL    HW110486   4.278   2.059   2.115
 3490SOL    HW210487   4.251   2.213   2.159
 3491SOL     OW10488   4.639   1.951   3.264
 3491SOL    HW110489   4.664   1.931   3.169
 3491SOL    HW210490   4.711   2.007   3.306
 3492SOL     OW10491   4.704   2.978   3.581
 3492SOL    HW110492   4.605   2.984   3.591
 3492SOL    HW210493   4.727   2.898   3.525
 3493SOL     OW10494   4.429   2.912   2.230
 3493SOL    HW110495   4.415   2.919   2.329
 3493SOL    HW210496   4.513   2.861   2.212
 3494SOL     OW10497   4.134   2.675   3.113
 3494SOL    HW110498   4.220   2.687   3.163
 3494SOL    HW210499   4.092   2.588   3.140
 3495SOL     OW10500   3.788   3.426   3.193
 3495SOL    HW110501   3.742   3.508   3.159
 3495SOL    HW210502   3.886   3.445   3.202
 3496SOL     OW10503   4.091   2.962   2.363
 3496SOL    HW110504   4.084   3.045   2.307
 3496SOL    HW210505   4.095   2.882   2.303
 3497SOL     OW10506   4.290   2.399   2.727
 3497SOL    HW110507   4.302   2.465   2.653
 3497SOL    HW210508   4.336   2.433   2.810
 3498SOL     OW10509   4.976   3.210   2.250
 3498SOL    HW110510   5.026   3.287   2.290
 3498SOL    HW210511   4.881   3.212   2.282
 3499SOL     OW10512   4.078   3.372   3.191
 3499SOL    HW110513   4.057   3.328   3.104
 3499SOL    HW210514   4.175   3.398   3.194
 3500SOL     OW10515   4.126   2.613   3.460
 3500SOL    HW110516   4.194   2.668   3.413
 3500SOL    HW210517   4.166   2.525   3.487
 3501SOL     OW10518   4.737   1.967   3.632
 3501SOL    HW110519   4.743   2.052   3.580
 3501SOL    HW210520   4.769   1.891   3.575
 3502SOL     OW10521   4.228   1.912   3.602
 3502SOL    HW110522   4.186   1.855   3.532
 3502SOL    HW210523   4.162   1.981   3.634
 3503SOL     OW10524   4.297   2.732   2.891
 3503SOL    HW110525   4.341   2.821   2.882
 3503SOL    HW210526   4.234   2.732   2.968
 3504SOL     OW10527   4.933   2.387   2.137
 3504SOL    HW110528   4.946   2.303   2.191
 3504SOL    HW210529   4.904   2.461   2.197
 3505SOL     OW10530   4.031   2.075   3.093
 3505SOL    HW110531   4.008   2.112   3.183
 3505SOL    HW210532   4.001   1.980   3.087
 3506SOL     OW10533   3.761   3.172   3.144
 3506SOL    HW110534   3.814   3.123   3.212
 3506SOL    HW210535   3.783   3.270   3.149
 3507SOL     OW10536   4.456   2.496   2.926
 3507SOL    HW110537   4.515   2.470   2.850
 3507SOL    HW210538   4.428   2.592   2.915
 3508SOL     OW10539   4.031   1.925   2.480
 3508SOL    HW110540   4.020   2.019   2.513
 3508SOL    HW210541   4.026   1.862   2.557
 3509SOL     OW10542   4.747   2.628   2.828
 3509SOL    HW110543   4.762   2.649   2.924
 3509SOL    HW210544   4.717   2.533   2.819
 3510SOL     OW10545   4.704   3.435   3.562
 3510SOL    HW110546   4.684   3.479   3.474
 3510SOL    HW210547   4.743   3.344   3.546
 3511SOL     OW10548   4.074   2.760   3.666
 3511SOL    HW110549   4.150   2.804   3.714
 3511SOL    HW210550   4.109   2.713   3.584
 3512SOL     OW10551   5.027   2.700   1.904
 3512SOL    HW110552   5.061   2.607   1.919
 3512SOL    HW210553   5.045   2.727   1.809
 3513SOL     OW10554   4.792   3.195   2.711
 3513SOL    HW110555   4.799   3.111   2.656
 3513SOL    HW210556   4.854   3.264   2.675
 3514SOL     OW10557   4.043   2.672   2.811
 3514SOL    HW110558   4.136   2.708   2.816
 3514SOL    HW210559   4.037   2.587   2.863
 3515SOL     OW10560   4.063   2.371   2.868
 3515SOL    HW110561   4.011   2.288   2.851
 3515SOL    HW210562   4.140   2.376   2.804
 3516SOL     OW10563   4.862   2.242   3.540
 3516SOL    HW110564   4.817   2.305   3.604
 3516SOL    HW210565   4.955   2.273   3.523
 3517SOL     OW10566   4.884   2.069   3.339
 3517SOL    HW110567   4.884   2.133   3.416
 3517SOL    HW210568   4.912   2.117   3.256
 3518SOL     OW10569   3.732   3.188   2.062
 3518SOL    HW110570   3.639   3.209   2.031
 3518SOL    HW210571   3.742   3.089   2.075
 3519SOL     OW10572   3.812   3.663   2.789
 3519SOL    HW110573   3.770   3.577   2.762
 3519SOL    HW210574   3.906   3.666   2.755
 3520SOL     OW10575   4.228   3.430   2.772
 3520SOL    HW110576   4.294   3.504   2.781
 3520SOL    HW210577   4.272   3.351   2.730
 3521SOL     OW10578   4.726   2.658   3.100
 3521SOL    HW110579   4.767   2.626   3.186
 3521SOL    HW210580   4.630   2.631   3.097
 3522SOL     OW10581   3.764   2.406   2.976
 3522SOL    HW110582   3.849   2.373   2.935
 3522SOL    HW210583   3.777   2.421   3.074
 3523SOL     OW10584   3.913   2.382   3.584
 3523SOL    HW110585   3.972   2.342   3.514
 3523SOL    HW210586   3.855   2.453   3.543
 3524SOL     OW10587   4.539   2.434   2.187
 3524SOL    HW110588   4.546   2.345   2.141
 3524SOL    HW210589   4.445   2.468   2.179
 3525SOL     OW10590   3.976   3.426   3.606
 3525SOL    HW110591   3.946   3.483   3.682
 3525SOL    HW210592   3.969   3.329   3.632
 3526SOL     OW10593   4.395   2.326   3.131
 3526SOL    HW110594   4.361   2.237   3.101
 3526SOL    HW210595   4.421   2.380   3.051
 3527SOL     OW10596   4.654   3.540   3.327
 3527SOL    HW110597   4.630   3.522   3.232
 3527SOL    HW210598   4.684   3.634   3.337
 3528SOL     OW10599   4.197   2.362   2.053
 3528SOL    HW110600   4.258   2.442   2.057
 3528SOL    HW210601   4.102   2.393   2.060
 3529SOL     OW10602   3.883   2.999   3.328
 3529SOL    HW110603   3.905   2.938   3.404
 3529SOL    HW210604   3.893   2.950   3.242
 3530SOL     OW10605   5.026   2.717   2.171
 3530SOL    HW110606   4.940   2.686   2.213
 3530SOL    HW210607   5.022   2.703   2.072
 3531SOL     OW10608   3.807   3.120   2.884
 3531SOL    HW110609   3.802   3.119   2.984
 3531SOL    HW210610   3.724   3.079   2.846
 3532SOL     OW10611   4.412   3.524   3.578
 3532SOL    HW110612   4.356   3.605   3.587
 3532SOL    HW210613   4.464   3.528   3.492
 3533SOL     OW10614   3.854   3.656   3.713
 3533SOL    HW110615   3.813   3.582   3.766
 3533SOL    HW210616   3.918   3.707   3.771
 3534SOL     OW10617   4.554   3.135   3.284
 3534SOL    HW110618   4.549   3.168   3.379
 3534SOL    HW210619   4.468   3.154   3.238
 3535SOL     OW10620   4.396   3.478   2.016
 3535SOL    HW110621   4.405   3.488   1.917
 3535SOL    HW210622   4.356   3.389   2.037
 3536SOL     OW10623   3.987   2.188   2.582
 3536SOL    HW110624   3.908   2.239   2.548
 3536SOL    HW210625   3.978   2.173   2.680
 3537SOL     OW10626   4.546   2.864   3.234
 3537SOL    HW110627   4.586   2.863   3.142
 3537SOL    HW210628   4.556   2.956   3.274
 3538SOL     OW10629   4.640   2.772   2.153
 3538SOL    HW110630   4.703   2.810   2.085
 3538SOL    HW210631   4.680   2.689   2.192
 3539SOL     OW10632   4.096   3.150   3.352
 3539SOL    HW110633   4.083   3.243   3.318
 3539SOL    HW210634   4.012   3.098   3.339
 3540SOL     OW10635   4.763   2.960   2.558
 3540SOL    HW110636   4.693   2.913   2.612
 3540SOL    HW210637   4.822   2.892   2.515
 3541SOL     OW10638   4.738   2.098   2.833
 3541SOL    HW110639   4.730   2.062   2.740
 3541SOL    HW210640   4.736   2.022   2.898
 3542SOL     OW10641   4.314   3.349   2.353
 3542SOL    HW110642   4.356   3.291   2.283
 3542SOL    HW210643   4.270   3.428   2.309
 3543SOL     OW10644   3.979   3.210   2.152
 3543SOL    HW110645   3.883   3.211   2.125
 3543SOL    HW210646   3.991   3.263   2.236
 3544SOL     OW10647   3.829   2.875   3.588
 3544SOL    HW110648   3.752   2.842   3.642
 3544SOL    HW210649   3.914   2.845   3.630
 3545SOL     OW10650   4.396   2.065   3.351
 3545SOL    HW110651   4.486   2.049   3.311
 3545SOL    HW210652   4.404   2.070   3.450
 3546SOL     OW10653   3.799   2.207   1.895
 3546SOL    HW110654   3.707   2.179   1.866
 3546SOL    HW210655   3.830   2.284   1.839
 3547SOL     OW10656   3.796   2.028   2.180
 3547SOL    HW110657   3.779   2.111   2.126
 3547SOL    HW210658   3.886   1.991   2.158
 3548SOL     OW10659   4.337   2.704   3.293
 3548SOL    HW110660   4.393   2.785   3.276
 3548SOL    HW210661   4.396   2.624   3.296
 3549SOL     OW10662   4.440   2.427   3.570
 3549SOL    HW110663   4.459   2.492   3.644
 3549SOL    HW210664   4.500   2.347   3.579
 3550SOL     OW10665   4.114   3.603   3.422
 3550SOL    HW110666   4.023   3.644   3.420
 3550SOL    HW210667   4.107   3.509   3.454
 3551SOL     OW10668   4.318   2.607   2.514
 3551SOL    HW110669   4.368   2.692   2.495
 3551SOL    HW210670   4.230   2.609   2.466
 3552SOL     OW10671   4.583   3.236   1.878
 3552SOL    HW110672   4.537   3.251   1.966
 3552SOL    HW210673   4.627   3.321   1.848
 3553SOL     OW10674   4.385   3.652   2.815
 3553SOL    HW110675   4.339   3.740   2.802
 3553SOL    HW210676   4.484   3.664   2.808
 3554SOL     OW10677   4.583   2.818   2.723
 3554SOL    HW110678   4.637   2.749   2.771
 3554SOL    HW210679   4.551   2.887   2.789
 3555SOL     OW10680   4.807   2.846   1.949
 3555SOL    HW110681   4.784   2.899   1.867
 3555SOL    HW210682   4.888   2.790   1.930
 3556SOL     OW10683   3.945   3.176   3.706
 3556SOL    HW110684   3.880   3.103   3.685
 3556SOL    HW210685   3.949   3.190   3.804
 3557SOL     OW10686   3.803   3.102   2.515
 3557SOL    HW110687   3.802   3.055   2.603
 3557SOL    HW210688   3.885   3.074   2.464
 3558SOL     OW10689   4.396   3.253   3.486
 3558SOL    HW110690   4.318   3.203   3.524
 3558SOL    HW210691   4.393   3.348   3.517
 3559SOL     OW10692   4.152   2.286   2.382
 3559SOL    HW110693   4.182   2.214   2.320
 3559SOL    HW210694   4.113   2.246   2.465
 3560SOL     OW10695   4.041   2.409   3.142
 3560SOL    HW110696   4.079   2.350   3.214
 3560SOL    HW210697   4.081   2.383   3.054
 3561SOL     OW10698   4.536   3.448   2.549
 3561SOL    HW110699   4.568   3.458   2.455
 3561SOL    HW210700   4.457   3.386   2.551
 3562SOL     OW10701   4.725   1.896   3.016
 3562SOL    HW110702   4.662   1.824   2.985
 3562SOL    HW210703   4.818   1.860   3.016
 3563SOL     OW10704   4.494   3.192   2.163
 3563SOL    HW110705   4.448   3.105   2.180
 3563SOL    HW210706   4.585   3.189   2.204
 3564SOL     OW10707   4.342   3.429   3.146
 3564SOL    HW110708   4.337   3.511   3.203
 3564SOL    HW210709   4.431   3.426   3.101
 3565SOL     OW10710   3.763   2.939   2.162
 3565SOL    HW110711   3.862   2.928   2.153
 3565SOL    HW210712   3.723   2.853   2.194
 3566SOL     OW10713   4.599   3.508   2.199
 3566SOL    HW110714   4.522   3.473   2.145
 3566SOL    HW210715   4.567   3.579   2.261
 3567SOL     OW10716   3.954   2.490   3.837
 3567SOL    HW110717   3.861   2.488   3.874
 3567SOL    HW210718   3.955   2.451   3.745
 3568SOL     OW10719   3.949   2.137   4.720
 3568SOL    HW110720   3.984   2.120   4.812
 3568SOL    HW210721   3.861   2.092   4.708
 3569SOL     OW10722   3.743   2.230   4.371
 3569SOL    HW110723   3.661   2.273   4.410
 3569SOL    HW210724   3.715   2.157   4.308
 3570SOL     OW10725   4.492   3.006   4.747
 3570SOL    HW110726   4.414   3.023   4.807
 3570SOL    HW210727   4.526   3.093   4.711
 3571SOL     OW10728   4.409   2.874   4.389
 3571SOL    HW110729   4.478   2.858   4.459
 3571SOL    HW210730   4.336   2.931   4.427
 3572SOL     OW10731   4.059   3.297   4.785
 3572SOL    HW110732   3.981   3.266   4.732
 3572SOL    HW210733   4.117   3.355   4.728
 3573SOL     OW10734   3.955   3.575   4.207
 3573SOL    HW110735   3.989   3.652   4.261
 3573SOL    HW210736   3.999   3.575   4.117
 3574SOL     OW10737   3.954   3.296   4.262
 3574SOL    HW110738   3.928   3.392   4.262
 3574SOL    HW210739   3.883   3.242   4.307
 3575SOL     OW10740   3.964   2.953   4.610
 3575SOL    HW110741   3.978   2.869   4.662
 3575SOL    HW210742   3.909   3.017   4.665
 3576SOL     OW10743   4.330   2.826   3.847
 3576SOL    HW110744   4.337   2.910   3.793
 3576SOL    HW210745   4.376   2.839   3.935
 3577SOL     OW10746   3.846   2.505   4.287
 3577SOL    HW110747   3.801   2.417   4.304
 3577SOL    HW210748   3.845   2.559   4.371
 3578SOL     OW10749   3.751   3.458   3.841
 3578SOL    HW110750   3.732   3.362   3.862
 3578SOL    HW210751   3.718   3.516   3.916
 3579SOL     OW10752   4.337   3.227   4.450
 3579SOL    HW110753   4.288   3.140   4.459
 3579SOL    HW210754   4.314   3.270   4.363
 3580SOL     OW10755   4.533   1.866   4.226
 3580SOL    HW110756   4.573   1.957   4.217
 3580SOL    HW210757   4.433   1.874   4.232
 3581SOL     OW10758   3.921   2.838   4.988
 3581SOL    HW110759   4.010   2.793   4.974
 3581SOL    HW210760   3.848   2.773   4.969
 3582SOL     OW10761   4.322   2.591   3.994
 3582SOL    HW110762   4.346   2.660   3.926
 3582SOL    HW210763   4.244   2.624   4.048
 3583SOL     OW10764   4.765   2.563   4.153
 3583SOL    HW110765   4.791   2.559   4.249
 3583SOL    HW210766   4.680   2.512   4.139
 3584SOL     OW10767   3.800   2.673   4.513
 3584SOL    HW110768   3.899   2.661   4.522
 3584SOL    HW210769   3.776   2.768   4.534
 3585SOL     OW10770   4.589   2.210   3.919
 3585SOL    HW110771   4.648   2.273   3.870
 3585SOL    HW210772   4.608   2.116   3.890
 3586SOL     OW10773   4.274   2.058   4.609
 3586SOL    HW110774   4.269   2.053   4.709
 3586SOL    HW210775   4.276   2.154   4.580
 3587SOL     OW10776   4.732   3.318   4.201
 3587SOL    HW110777   4.686   3.390   4.149
 3587SOL    HW210778   4.728   3.338   4.299
 3588SOL     OW10779   4.075   3.663   4.577
 3588SOL    HW110780   4.125   3.577   4.583
 3588SOL    HW210781   4.140   3.740   4.574
 3589SOL     OW10782   4.045   2.805   3.966
 3589SOL    HW110783   4.127   2.844   3.924
 3589SOL    HW210784   4.018   2.723   3.917
 3590SOL     OW10785   4.188   3.605   4.047
 3590SOL    HW110786   4.221   3.644   4.133
 3590SOL    HW210787   4.264   3.598   3.982
 3591SOL     OW10788   3.973   3.647   4.965
 3591SOL    HW110789   4.030   3.582   5.015
 3591SOL    HW210790   3.957   3.614   4.872
 3592SOL     OW10791   4.664   3.560   4.628
 3592SOL    HW110792   4.744   3.503   4.649
 3592SOL    HW210793   4.615   3.520   4.551
 3593SOL     OW10794   4.106   2.562   4.204
 3593SOL    HW110795   4.151   2.472   4.201
 3593SOL    HW210796   4.012   2.551   4.237
 3594SOL     OW10797   4.338   1.984   3.841
 3594SOL    HW110798   4.436   1.962   3.848
 3594SOL    HW210799   4.307   1.967   3.748
 3595SOL     OW10800   4.527   3.264   4.648
 3595SOL    HW110801   4.617   3.278   4.606
 3595SOL    HW210802   4.456   3.266   4.577
 3596SOL     OW10803   4.646   2.365   4.623
 3596SOL    HW110804   4.621   2.356   4.527
 3596SOL    HW210805   4.694   2.283   4.654
 3597SOL     OW10806   4.263   1.926   4.236
 3597SOL    HW110807   4.182   1.927   4.294
 3597SOL    HW210808   4.266   2.009   4.181
 3598SOL     OW10809   4.021   1.897   3.895
 3598SOL    HW110810   4.070   1.981   3.874
 3598SOL    HW210811   4.083   1.832   3.940
 3599SOL     OW10812   4.659   2.098   4.204
 3599SOL    HW110813   4.611   2.139   4.126
 3599SOL    HW210814   4.758   2.096   4.185
 3600SOL     OW10815   4.951   3.432   4.517
 3600SOL    HW110816   4.972   3.506   4.452
 3600SOL    HW210817   5.019   3.432   4.590
 3601SOL     OW10818   4.183   3.014   4.465
 3601SOL    HW110819   4.112   2.987   4.530
 3601SOL    HW210820   4.157   2.986   4.372
 3602SOL     OW10821   4.995   3.659   4.315
 3602SOL    HW110822   5.039   3.723   4.251
 3602SOL    HW210823   4.945   3.711   4.385
 3603SOL     OW10824   4.756   2.411   3.740
 3603SOL    HW110825   4.715   2.493   3.701
 3603SOL    HW210826   4.820   2.437   3.813
 3604SOL     OW10827   4.590   2.316   4.366
 3604SOL    HW110828   4.558   2.388   4.304
 3604SOL    HW210829   4.614   2.235   4.313
 3605SOL     OW10830   4.741   1.901   4.477
 3605SOL    HW110831   4.669   1.906   4.408
 3605SOL    HW210832   4.717   1.832   4.546
 3606SOL     OW10833   4.212   3.247   3.898
 3606SOL    HW110834   4.125   3.232   3.945
 3606SOL    HW210835   4.195   3.273   3.803
 3607SOL     OW10836   4.251   2.118   4.052
 3607SOL    HW110837   4.278   2.059   3.977
 3607SOL    HW210838   4.251   2.213   4.021
 3608SOL     OW10839   4.429   2.912   4.092
 3608SOL    HW110840   4.415   2.919   4.191
 3608SOL    HW210841   4.513   2.861   4.074
 3609SOL     OW10842   4.134   2.675   4.975
 3609SOL    HW110843   4.220   2.687   5.025
 3609SOL    HW210844   4.092   2.588   5.002
 3610SOL     OW10845   4.091   2.962   4.225
 3610SOL    HW110846   4.084   3.045   4.169
 3610SOL    HW210847   4.095   2.882   4.165
 3611SOL     OW10848   4.290   2.399   4.589
 3611SOL    HW110849   4.302   2.465   4.515
 3611SOL    HW210850   4.336   2.433   4.672
 3612SOL     OW10851   4.976   3.210   4.112
 3612SOL    HW110852   5.026   3.287   4.152
 3612SOL    HW210853   4.881   3.212   4.144
 3613SOL     OW10854   4.078   3.372   5.053
 3613SOL    HW110855   4.057   3.328   4.966
 3613SOL    HW210856   4.175   3.398   5.056
 3614SOL     OW10857   4.297   2.732   4.753
 3614SOL    HW110858   4.341   2.821   4.744
 3614SOL    HW210859   4.234   2.732   4.830
 3615SOL     OW10860   4.933   2.387   3.999
 3615SOL    HW110861   4.946   2.303   4.053
 3615SOL    HW210862   4.904   2.461   4.059
 3616SOL     OW10863   4.456   2.496   4.788
 3616SOL    HW110864   4.515   2.470   4.712
 3616SOL    HW210865   4.428   2.592   4.777
 3617SOL     OW10866   4.031   1.925   4.342
 3617SOL    HW110867   4.020   2.019   4.375
 3617SOL    HW210868   4.026   1.862   4.419
 3618SOL     OW10869   4.747   2.628   4.690
 3618SOL    HW110870   4.762   2.649   4.786
 3618SOL    HW210871   4.717   2.533   4.681
 3619SOL     OW10872   5.027   2.700   3.766
 3619SOL    HW110873   5.061   2.607   3.781
 3619SOL    HW210874   5.045   2.727   3.671
 3620SOL     OW10875   4.792   3.195   4.573
 3620SOL    HW110876   4.799   3.111   4.518
 3620SOL    HW210877   4.854   3.264   4.537
 3621SOL     OW10878   4.043   2.672   4.673
 3621SOL    HW110879   4.136   2.708   4.678
 3621SOL    HW210880   4.037   2.587   4.725
 3622SOL     OW10881   4.063   2.371   4.730
 3622SOL    HW110882   4.011   2.288   4.713
 3622SOL    HW210883   4.140   2.376   4.666
 3623SOL     OW10884   3.732   3.188   3.924
 3623SOL    HW110885   3.639   3.209   3.893
 3623SOL    HW210886   3.742   3.089   3.937
 3624SOL     OW10887   3.812   3.663   4.651
 3624SOL    HW110888   3.770   3.577   4.624
 3624SOL    HW210889   3.906   3.666   4.617
 3625SOL     OW10890   4.228   3.430   4.634
 3625SOL    HW110891   4.294   3.504   4.643
 3625SOL    HW210892   4.272   3.351   4.592
 3626SOL     OW10893   4.726   2.658   4.962
 3626SOL    HW110894   4.767   2.626   5.048
 3626SOL    HW210895   4.630   2.631   4.959
 3627SOL     OW10896   3.764   2.406   4.838
 3627SOL    HW110897   3.849   2.373   4.797
 3627SOL    HW210898   3.777   2.421   4.936
 3628SOL     OW10899   4.539   2.434   4.049
 3628SOL    HW110900   4.546   2.345   4.003
 3628SOL    HW210901   4.445   2.468   4.041
 3629SOL     OW10902   4.395   2.326   4.993
 3629SOL    HW110903   4.361   2.237   4.963
 3629SOL    HW210904   4.421   2.380   4.913
 3630SOL     OW10905   4.197   2.362   3.915
 3630SOL    HW110906   4.258   2.442   3.919
 3630SOL    HW210907   4.102   2.393   3.922
 3631SOL     OW10908   5.026   2.717   4.033
 3631SOL    HW110909   4.940   2.686   4.075
 3631SOL    HW210910   5.022   2.703   3.934
 3632SOL     OW10911   3.807   3.120   4.746
 3632SOL    HW110912   3.802   3.119   4.846
 3632SOL    HW210913   3.724   3.079   4.708
 3633SOL     OW10914   4.396   3.478   3.878
 3633SOL    HW110915   4.405   3.488   3.779
 3633SOL    HW210916   4.356   3.389   3.899
 3634SOL     OW10917   3.987   2.188   4.444
 3634SOL    HW110918   3.908   2.239   4.410
 3634SOL    HW210919   3.978   2.173   4.542
 3635SOL     OW10920   4.546   2.864   5.096
 3635SOL    HW110921   4.586   2.863   5.004
 3635SOL    HW210922   4.556   2.956   5.136
 3636SOL     OW10923   4.640   2.772   4.015
 3636SOL    HW110924   4.703   2.810   3.947
 3636SOL    HW210925   4.680   2.689   4.054
 3637SOL     OW10926   4.763   2.960   4.420
 3637SOL    HW110927   4.693   2.913   4.474
 3637SOL    HW210928   4.822   2.892   4.377
 3638SOL     OW10929   4.738   2.098   4.695
 3638SOL    HW110930   4.730   2.062   4.602
 3638SOL    HW210931   4.736   2.022   4.760
 3639SOL     OW10932   4.314   3.349   4.215
 3639SOL    HW110933   4.356   3.291   4.145
 3639SOL    HW210934   4.270   3.428   4.171
 3640SOL     OW10935   3.979   3.210   4.014
 3640SOL    HW110936   3.883   3.211   3.987
 3640SOL    HW210937   3.991   3.263   4.098
 3641SOL     OW10938   3.799   2.207   3.757
 3641SOL    HW110939   3.707   2.179   3.728
 3641SOL    HW210940   3.830   2.284   3.701
 3642SOL     OW10941   3.796   2.028   4.042
 3642SOL    HW110942   3.779   2.111   3.988
 3642SOL    HW210943   3.886   1.991   4.020
 3643SOL     OW10944   4.318   2.607   4.376
 3643SOL    HW110945   4.368   2.692   4.357
 3643SOL    HW210946   4.230   2.609   4.328
 3644SOL     OW10947   4.583   3.236   3.740
 3644SOL    HW110948   4.537   3.251   3.828
 3644SOL    HW210949   4.627   3.321   3.710
 3645SOL     OW10950   4.385   3.652   4.677
 3645SOL    HW110951   4.339   3.740   4.664
 3645SOL    HW210952   4.484   3.664   4.670
 3646SOL     OW10953   4.583   2.818   4.585
 3646SOL    HW110954   4.637   2.749   4.633
 3646SOL    HW210955   4.551   2.887   4.651
 3647SOL     OW10956   4.807   2.846   3.811
 3647SOL    HW110957   4.784   2.899   3.729
 3647SOL    HW210958   4.888   2.790   3.792
 3648SOL     OW10959   3.803   3.102   4.377
 3648SOL    HW110960   3.802   3.055   4.465
 3648SOL    HW210961   3.885   3.074   4.326
 3649SOL     OW10962   4.152   2.286   4.244
 3649SOL    HW110963   4.182   2.214   4.182
 3649SOL    HW210964   4.113   2.246   4.327
 3650SOL     OW10965   4.536   3.448   4.411
 3650SOL    HW110966   4.568   3.458   4.317
 3650SOL    HW210967   4.457   3.386   4.413
 3651SOL     OW10968   4.494   3.192   4.025
 3651SOL    HW110969   4.448   3.105   4.042
 3651SOL    HW210970   4.585   3.189   4.066
 3652SOL     OW10971   3.763   2.939   4.024
 3652SOL    HW110972   3.862   2.928   4.015
 3652SOL    HW210973   3.723   2.853   4.056
 3653SOL     OW10974   4.599   3.508   4.061
 3653SOL    HW110975   4.522   3.473   4.007
 3653SOL    HW210976   4.567   3.579   4.123
 3654SOL     OW10977   3.954   4.352   0.113
 3654SOL    HW110978   3.861   4.350   0.150
 3654SOL    HW210979   3.955   4.313   0.021
 3655SOL     OW10980   3.949   3.999   0.996
 3655SOL    HW110981   3.984   3.982   1.088
 3655SOL    HW210982   3.861   3.954   0.984
 3656SOL     OW10983   3.743   4.092   0.647
 3656SOL    HW110984   3.661   4.135   0.686
 3656SOL    HW210985   3.715   4.019   0.584
 3657SOL     OW10986   4.492   4.868   1.023
 3657SOL    HW110987   4.414   4.885   1.083
 3657SOL    HW210988   4.526   4.955   0.987
 3658SOL     OW10989   4.574   4.522   1.823
 3658SOL    HW110990   4.570   4.598   1.888
 3658SOL    HW210991   4.596   4.558   1.732
 3659SOL     OW10992   4.409   4.736   0.665
 3659SOL    HW110993   4.478   4.720   0.735
 3659SOL    HW210994   4.336   4.793   0.703
 3660SOL     OW10995   4.162   4.116   1.499
 3660SOL    HW110996   4.244   4.060   1.508
 3660SOL    HW210997   4.081   4.058   1.503
 3661SOL     OW10998   3.964   4.815   0.886
 3661SOL    HW110999   3.978   4.731   0.938
 3661SOL    HW211000   3.909   4.879   0.941
 3662SOL     OW11001   4.330   4.688   0.123
 3662SOL    HW111002   4.337   4.772   0.069
 3662SOL    HW211003   4.376   4.701   0.211
 3663SOL     OW11004   3.846   4.367   0.563
 3663SOL    HW111005   3.801   4.279   0.580
 3663SOL    HW211006   3.845   4.421   0.647
 3664SOL     OW11007   3.837   4.461   1.597
 3664SOL    HW111008   3.925   4.448   1.642
 3664SOL    HW211009   3.824   4.558   1.575
 3665SOL     OW11010   4.533   3.728   0.502
 3665SOL    HW111011   4.573   3.819   0.493
 3665SOL    HW211012   4.433   3.736   0.508
 3666SOL     OW11013   3.921   4.700   1.264
 3666SOL    HW111014   4.010   4.655   1.250
 3666SOL    HW211015   3.848   4.635   1.245
 3667SOL     OW11016   4.041   3.975   1.801
 3667SOL    HW111017   4.112   4.046   1.807
 3667SOL    HW211018   3.953   4.014   1.829
 3668SOL     OW11019   4.322   4.453   0.270
 3668SOL    HW111020   4.346   4.522   0.202
 3668SOL    HW211021   4.244   4.486   0.324
 3669SOL     OW11022   4.531   4.329   1.465
 3669SOL    HW111023   4.484   4.326   1.554
 3669SOL    HW211024   4.480   4.274   1.399
 3670SOL     OW11025   4.697   4.614   1.572
 3670SOL    HW111026   4.743   4.530   1.543
 3670SOL    HW211027   4.641   4.648   1.497
 3671SOL     OW11028   4.715   4.134   1.242
 3671SOL    HW111029   4.638   4.168   1.296
 3671SOL    HW211030   4.681   4.083   1.163
 3672SOL     OW11031   4.765   4.425   0.429
 3672SOL    HW111032   4.791   4.421   0.525
 3672SOL    HW211033   4.680   4.374   0.415
 3673SOL     OW11034   3.800   4.535   0.789
 3673SOL    HW111035   3.899   4.523   0.798
 3673SOL    HW211036   3.776   4.630   0.810
 3674SOL     OW11037   4.589   4.072   0.195
 3674SOL    HW111038   4.648   4.135   0.146
 3674SOL    HW211039   4.608   3.978   0.166
 3675SOL     OW11040   4.274   3.920   0.885
 3675SOL    HW111041   4.269   3.915   0.985
 3675SOL    HW211042   4.276   4.016   0.856
 3676SOL     OW11043   4.045   4.667   0.242
 3676SOL    HW111044   4.127   4.706   0.200
 3676SOL    HW211045   4.018   4.585   0.193
 3677SOL     OW11046   3.926   4.009   1.498
 3677SOL    HW111047   3.846   4.069   1.485
 3677SOL    HW211048   3.916   3.960   1.584
 3678SOL     OW11049   4.106   4.424   0.480
 3678SOL    HW111050   4.151   4.334   0.477
 3678SOL    HW211051   4.012   4.413   0.513
 3679SOL     OW11052   4.338   3.846   0.117
 3679SOL    HW111053   4.436   3.824   0.124
 3679SOL    HW211054   4.307   3.829   0.024
 3680SOL     OW11055   4.505   3.988   1.749
 3680SOL    HW111056   4.572   3.927   1.792
 3680SOL    HW211057   4.432   4.007   1.814
 3681SOL     OW11058   4.646   4.227   0.899
 3681SOL    HW111059   4.621   4.218   0.803
 3681SOL    HW211060   4.694   4.145   0.930
 3682SOL     OW11061   4.263   3.788   0.512
 3682SOL    HW111062   4.182   3.789   0.570
 3682SOL    HW211063   4.266   3.871   0.457
 3683SOL     OW11064   4.021   3.759   0.171
 3683SOL    HW111065   4.070   3.843   0.150
 3683SOL    HW211066   4.083   3.694   0.216
 3684SOL     OW11067   4.659   3.960   0.480
 3684SOL    HW111068   4.611   4.001   0.402
 3684SOL    HW211069   4.758   3.958   0.461
 3685SOL     OW11070   4.183   4.876   0.741
 3685SOL    HW111071   4.112   4.849   0.806
 3685SOL    HW211072   4.157   4.848   0.648
 3686SOL     OW11073   4.756   4.273   0.016
 3686SOL    HW111074   4.715   4.355  -0.023
 3686SOL    HW211075   4.820   4.299   0.089
 3687SOL     OW11076   3.802   4.280   1.386
 3687SOL    HW111077   3.894   4.279   1.345
 3687SOL    HW211078   3.796   4.354   1.453
 3688SOL     OW11079   4.285   3.946   1.147
 3688SOL    HW111080   4.323   3.862   1.184
 3688SOL    HW211081   4.197   3.965   1.191
 3689SOL     OW11082   4.590   4.178   0.642
 3689SOL    HW111083   4.558   4.250   0.580
 3689SOL    HW211084   4.614   4.097   0.589
 3690SOL     OW11085   4.741   3.763   0.753
 3690SOL    HW111086   4.669   3.768   0.684
 3690SOL    HW211087   4.717   3.694   0.822
 3691SOL     OW11088   4.251   3.980   0.328
 3691SOL    HW111089   4.278   3.921   0.253
 3691SOL    HW211090   4.251   4.075   0.297
 3692SOL     OW11091   4.639   3.813   1.402
 3692SOL    HW111092   4.664   3.793   1.307
 3692SOL    HW211093   4.711   3.869   1.444
 3693SOL     OW11094   4.429   4.774   0.368
 3693SOL    HW111095   4.415   4.781   0.467
 3693SOL    HW211096   4.513   4.723   0.350
 3694SOL     OW11097   4.134   4.537   1.251
 3694SOL    HW111098   4.220   4.549   1.301
 3694SOL    HW211099   4.092   4.450   1.278
 3695SOL     OW11100   4.091   4.824   0.501
 3695SOL    HW111101   4.084   4.907   0.445
 3695SOL    HW211102   4.095   4.744   0.441
 3696SOL     OW11103   4.290   4.261   0.865
 3696SOL    HW111104   4.302   4.327   0.791
 3696SOL    HW211105   4.336   4.295   0.948
 3697SOL     OW11106   4.126   4.475   1.598
 3697SOL    HW111107   4.194   4.530   1.551
 3697SOL    HW211108   4.166   4.387   1.625
 3698SOL     OW11109   4.737   3.829   1.770
 3698SOL    HW111110   4.743   3.914   1.718
 3698SOL    HW211111   4.769   3.753   1.713
 3699SOL     OW11112   4.228   3.774   1.740
 3699SOL    HW111113   4.186   3.717   1.670
 3699SOL    HW211114   4.162   3.843   1.772
 3700SOL     OW11115   4.297   4.594   1.029
 3700SOL    HW111116   4.341   4.683   1.020
 3700SOL    HW211117   4.234   4.594   1.106
 3701SOL     OW11118   4.933   4.249   0.275
 3701SOL    HW111119   4.946   4.165   0.329
 3701SOL    HW211120   4.904   4.323   0.335
 3702SOL     OW11121   4.031   3.937   1.231
 3702SOL    HW111122   4.008   3.974   1.321
 3702SOL    HW211123   4.001   3.842   1.225
 3703SOL     OW11124   4.456   4.358   1.064
 3703SOL    HW111125   4.515   4.332   0.988
 3703SOL    HW211126   4.428   4.454   1.053
 3704SOL     OW11127   4.031   3.787   0.618
 3704SOL    HW111128   4.020   3.881   0.651
 3704SOL    HW211129   4.026   3.724   0.695
 3705SOL     OW11130   4.747   4.490   0.966
 3705SOL    HW111131   4.762   4.511   1.062
 3705SOL    HW211132   4.717   4.395   0.957
 3706SOL     OW11133   4.074   4.622   1.804
 3706SOL    HW111134   4.150   4.666   1.852
 3706SOL    HW211135   4.109   4.575   1.722
 3707SOL     OW11136   4.043   4.534   0.949
 3707SOL    HW111137   4.136   4.570   0.954
 3707SOL    HW211138   4.037   4.449   1.001
 3708SOL     OW11139   4.063   4.233   1.006
 3708SOL    HW111140   4.011   4.150   0.989
 3708SOL    HW211141   4.140   4.238   0.942
 3709SOL     OW11142   4.862   4.104   1.678
 3709SOL    HW111143   4.817   4.167   1.742
 3709SOL    HW211144   4.955   4.135   1.661
 3710SOL     OW11145   4.884   3.931   1.477
 3710SOL    HW111146   4.884   3.995   1.554
 3710SOL    HW211147   4.912   3.979   1.394
 3711SOL     OW11148   4.726   4.520   1.238
 3711SOL    HW111149   4.767   4.488   1.324
 3711SOL    HW211150   4.630   4.493   1.235
 3712SOL     OW11151   3.764   4.268   1.114
 3712SOL    HW111152   3.849   4.235   1.073
 3712SOL    HW211153   3.777   4.283   1.212
 3713SOL     OW11154   3.913   4.244   1.722
 3713SOL    HW111155   3.972   4.204   1.652
 3713SOL    HW211156   3.855   4.315   1.681
 3714SOL     OW11157   4.539   4.296   0.325
 3714SOL    HW111158   4.546   4.207   0.279
 3714SOL    HW211159   4.445   4.330   0.317
 3715SOL     OW11160   4.395   4.188   1.269
 3715SOL    HW111161   4.361   4.099   1.239
 3715SOL    HW211162   4.421   4.242   1.189
 3716SOL     OW11163   4.197   4.224   0.191
 3716SOL    HW111164   4.258   4.304   0.195
 3716SOL    HW211165   4.102   4.255   0.198
 3717SOL     OW11166   3.883   4.861   1.466
 3717SOL    HW111167   3.905   4.800   1.542
 3717SOL    HW211168   3.893   4.812   1.380
 3718SOL     OW11169   5.026   4.579   0.309
 3718SOL    HW111170   4.940   4.548   0.351
 3718SOL    HW211171   5.022   4.565   0.210
 3719SOL     OW11172   4.627   3.810   0.133
 3719SOL    HW111173   4.678   3.811   0.047
 3719SOL    HW211174   4.683   3.768   0.204
 3720SOL     OW11175   3.987   4.050   0.720
 3720SOL    HW111176   3.908   4.101   0.686
 3720SOL    HW211177   3.978   4.035   0.818
 3721SOL     OW11178   4.546   4.726   1.372
 3721SOL    HW111179   4.586   4.725   1.280
 3721SOL    HW211180   4.556   4.818   1.412
 3722SOL     OW11181   4.640   4.634   0.291
 3722SOL    HW111182   4.703   4.672   0.223
 3722SOL    HW211183   4.680   4.551   0.330
 3723SOL     OW11184   4.096   5.012   1.490
 3723SOL    HW111185   4.083   5.105   1.456
 3723SOL    HW211186   4.012   4.960   1.477
 3724SOL     OW11187   4.738   3.960   0.971
 3724SOL    HW111188   4.730   3.924   0.878
 3724SOL    HW211189   4.736   3.884   1.036
 3725SOL     OW11190   3.829   4.737   1.726
 3725SOL    HW111191   3.752   4.704   1.780
 3725SOL    HW211192   3.914   4.707   1.768
 3726SOL     OW11193   4.396   3.927   1.489
 3726SOL    HW111194   4.486   3.911   1.449
 3726SOL    HW211195   4.404   3.932   1.588
 3727SOL     OW11196   3.796   3.890   0.318
 3727SOL    HW111197   3.779   3.973   0.264
 3727SOL    HW211198   3.886   3.853   0.296
 3728SOL     OW11199   4.337   4.566   1.431
 3728SOL    HW111200   4.393   4.647   1.414
 3728SOL    HW211201   4.396   4.486   1.434
 3729SOL     OW11202   4.440   4.289   1.708
 3729SOL    HW111203   4.459   4.354   1.782
 3729SOL    HW211204   4.500   4.209   1.717
 3730SOL     OW11205   4.318   4.469   0.652
 3730SOL    HW111206   4.368   4.554   0.633
 3730SOL    HW211207   4.230   4.471   0.604
 3731SOL     OW11208   4.583   4.680   0.861
 3731SOL    HW111209   4.637   4.611   0.909
 3731SOL    HW211210   4.551   4.749   0.927
 3732SOL     OW11211   4.807   4.708   0.087
 3732SOL    HW111212   4.784   4.761   0.005
 3732SOL    HW211213   4.888   4.652   0.068
 3733SOL     OW11214   4.152   4.148   0.520
 3733SOL    HW111215   4.182   4.076   0.458
 3733SOL    HW211216   4.113   4.108   0.603
 3734SOL     OW11217   4.041   4.271   1.280
 3734SOL    HW111218   4.079   4.212   1.352
 3734SOL    HW211219   4.081   4.245   1.192
 3735SOL     OW11220   4.725   3.758   1.154
 3735SOL    HW111221   4.662   3.686   1.123
 3735SOL    HW211222   4.818   3.722   1.154
 3736SOL     OW11223   4.494   5.054   0.301
 3736SOL    HW111224   4.448   4.967   0.318
 3736SOL    HW211225   4.585   5.051   0.342
 3737SOL     OW11226   3.763   4.801   0.300
 3737SOL    HW111227   3.862   4.790   0.291
 3737SOL    HW211228   3.723   4.715   0.332
 3738SOL     OW11229   3.954   4.352   1.975
 3738SOL    HW111230   3.861   4.350   2.012
 3738SOL    HW211231   3.955   4.313   1.883
 3739SOL     OW11232   3.949   3.999   2.858
 3739SOL    HW111233   3.984   3.982   2.950
 3739SOL    HW211234   3.861   3.954   2.846
 3740SOL     OW11235   3.743   4.092   2.509
 3740SOL    HW111236   3.661   4.135   2.548
 3740SOL    HW211237   3.715   4.019   2.446
 3741SOL     OW11238   4.492   4.868   2.885
 3741SOL    HW111239   4.414   4.885   2.945
 3741SOL    HW211240   4.526   4.955   2.849
 3742SOL     OW11241   4.574   4.522   3.685
 3742SOL    HW111242   4.570   4.598   3.750
 3742SOL    HW211243   4.596   4.558   3.594
 3743SOL     OW11244   4.409   4.736   2.527
 3743SOL    HW111245   4.478   4.720   2.597
 3743SOL    HW211246   4.336   4.793   2.565
 3744SOL     OW11247   4.162   4.116   3.361
 3744SOL    HW111248   4.244   4.060   3.370
 3744SOL    HW211249   4.081   4.058   3.365
 3745SOL     OW11250   3.964   4.815   2.748
 3745SOL    HW111251   3.978   4.731   2.800
 3745SOL    HW211252   3.909   4.879   2.803
 3746SOL     OW11253   4.330   4.688   1.985
 3746SOL    HW111254   4.337   4.772   1.931
 3746SOL    HW211255   4.376   4.701   2.073
 3747SOL     OW11256   3.846   4.367   2.425
 3747SOL    HW111257   3.801   4.279   2.442
 3747SOL    HW211258   3.845   4.421   2.509
 3748SOL     OW11259   3.837   4.461   3.459
 3748SOL    HW111260   3.925   4.448   3.504
 3748SOL    HW211261   3.824   4.558   3.437
 3749SOL     OW11262   4.533   3.728   2.364
 3749SOL    HW111263   4.573   3.819   2.355
 3749SOL    HW211264   4.433   3.736   2.370
 3750SOL     OW11265   3.921   4.700   3.126
 3750SOL    HW111266   4.010   4.655   3.112
 3750SOL    HW211267   3.848   4.635   3.107
 3751SOL     OW11268   4.041   3.975   3.663
 3751SOL    HW111269   4.112   4.046   3.669
 3751SOL    HW211270   3.953   4.014   3.691
 3752SOL     OW11271   4.322   4.453   2.132
 3752SOL    HW111272   4.346   4.522   2.064
 3752SOL    HW211273   4.244   4.486   2.186
 3753SOL     OW11274   4.531   4.329   3.327
 3753SOL    HW111275   4.484   4.326   3.416
 3753SOL    HW211276   4.480   4.274   3.261
 3754SOL     OW11277   4.697   4.614   3.434
 3754SOL    HW111278   4.743   4.530   3.405
 3754SOL    HW211279   4.641   4.648   3.359
 3755SOL     OW11280   4.715   4.134   3.104
 3755SOL    HW111281   4.638   4.168   3.158
 3755SOL    HW211282   4.681   4.083   3.025
 3756SOL     OW11283   4.765   4.425   2.291
 3756SOL    HW111284   4.791   4.421   2.387
 3756SOL    HW211285   4.680   4.374   2.277
 3757SOL     OW11286   3.800   4.535   2.651
 3757SOL    HW111287   3.899   4.523   2.660
 3757SOL    HW211288   3.776   4.630   2.672
 3758SOL     OW11289   4.589   4.072   2.057
 3758SOL    HW111290   4.648   4.135   2.008
 3758SOL    HW211291   4.608   3.978   2.028
 3759SOL     OW11292   4.274   3.920   2.747
 3759SOL    HW111293   4.269   3.915   2.847
 3759SOL    HW211294   4.276   4.016   2.718
 3760SOL     OW11295   4.045   4.667   2.104
 3760SOL    HW111296   4.127   4.706   2.062
 3760SOL    HW211297   4.018   4.585   2.055
 3761SOL     OW11298   3.926   4.009   3.360
 3761SOL    HW111299   3.846   4.069   3.347
 3761SOL    HW211300   3.916   3.960   3.446
 3762SOL     OW11301   4.106   4.424   2.342
 3762SOL    HW111302   4.151   4.334   2.339
 3762SOL    HW211303   4.012   4.413   2.375
 3763SOL     OW11304   4.338   3.846   1.979
 3763SOL    HW111305   4.436   3.824   1.986
 3763SOL    HW211306   4.307   3.829   1.886
 3764SOL     OW11307   4.505   3.988   3.611
 3764SOL    HW111308   4.572   3.927   3.654
 3764SOL    HW211309   4.432   4.007   3.676
 3765SOL     OW11310   4.646   4.227   2.761
 3765SOL    HW111311   4.621   4.218   2.665
 3765SOL    HW211312   4.694   4.145   2.792
 3766SOL     OW11313   4.263   3.788   2.374
 3766SOL    HW111314   4.182   3.789   2.432
 3766SOL    HW211315   4.266   3.871   2.319
 3767SOL     OW11316   4.021   3.759   2.033
 3767SOL    HW111317   4.070   3.843   2.012
 3767SOL    HW211318   4.083   3.694   2.078
 3768SOL     OW11319   4.659   3.960   2.342
 3768SOL    HW111320   4.611   4.001   2.264
 3768SOL    HW211321   4.758   3.958   2.323
 3769SOL     OW11322   4.183   4.876   2.603
 3769SOL    HW111323   4.112   4.849   2.668
 3769SOL    HW211324   4.157   4.848   2.510
 3770SOL     OW11325   4.756   4.273   1.878
 3770SOL    HW111326   4.715   4.355   1.839
 3770SOL    HW211327   4.820   4.299   1.951
 3771SOL     OW11328   3.802   4.280   3.248
 3771SOL    HW111329   3.894   4.279   3.207
 3771SOL    HW211330   3.796   4.354   3.315
 3772SOL     OW11331   4.285   3.946   3.009
 3772SOL    HW111332   4.323   3.862   3.046
 3772SOL    HW211333   4.197   3.965   3.053
 3773SOL     OW11334   4.590   4.178   2.504
 3773SOL    HW111335   4.558   4.250   2.442
 3773SOL    HW211336   4.614   4.097   2.451
 3774SOL     OW11337   4.741   3.763   2.615
 3774SOL    HW111338   4.669   3.768   2.546
 3774SOL    HW211339   4.717   3.694   2.684
 3775SOL     OW11340   4.251   3.980   2.190
 3775SOL    HW111341   4.278   3.921   2.115
 3775SOL    HW211342   4.251   4.075   2.159
 3776SOL     OW11343   4.639   3.813   3.264
 3776SOL    HW111344   4.664   3.793   3.169
 3776SOL    HW211345   4.711   3.869   3.306
 3777SOL     OW11346   4.429   4.774   2.230
 3777SOL    HW111347   4.415   4.781   2.329
 3777SOL    HW211348   4.513   4.723   2.212
 3778SOL     OW11349   4.134   4.537   3.113
 3778SOL    HW111350   4.220   4.549   3.163
 3778SOL    HW211351   4.092   4.450   3.140
 3779SOL     OW11352   4.091   4.824   2.363
 3779SOL    HW111353   4.084   4.907   2.307
 3779SOL    HW211354   4.095   4.744   2.303
 3780SOL     OW11355   4.290   4.261   2.727
 3780SOL    HW111356   4.302   4.327   2.653
 3780SOL    HW211357   4.336   4.295   2.810
 3781SOL     OW11358   4.126   4.475   3.460
 3781SOL    HW111359   4.194   4.530   3.413
 3781SOL    HW211360   4.166   4.387   3.487
 3782SOL     OW11361   4.737   3.829   3.632
 3782SOL    HW111362   4.743   3.914   3.580
 3782SOL    HW211363   4.769   3.753   3.575
 3783SOL     OW11364   4.228   3.774   3.602
 3783SOL    HW111365   4.186   3.717   3.532
 3783SOL    HW211366   4.162   3.843   3.634
 3784SOL     OW11367   4.297   4.594   2.891
 3784SOL    HW111368   4.341   4.683   2.882
 3784SOL    HW211369   4.234   4.594   2.968
 3785SOL     OW11370   4.933   4.249   2.137
 3785SOL    HW111371   4.946   4.165   2.191
 3785SOL    HW211372   4.904   4.323   2.197
 3786SOL     OW11373   4.031   3.937   3.093
 3786SOL    HW111374   4.008   3.974   3.183
 3786SOL    HW211375   4.001   3.842   3.087
 3787SOL     OW11376   4.456   4.358   2.926
 3787SOL    HW111377   4.515   4.332   2.850
 3787SOL    HW211378   4.428   4.454   2.915
 3788SOL     OW11379   4.031   3.787   2.480
 3788SOL    HW111380   4.020   3.881   2.513
 3788SOL    HW211381   4.026   3.724   2.557
 3789SOL     OW11382   4.747   4.490   2.828
 3789SOL    HW111383   4.762   4.511   2.924
 3789SOL    HW211384   4.717   4.395   2.819
 3790SOL     OW11385   4.074   4.622   3.666
 3790SOL    HW111386   4.150   4.666   3.714
 3790SOL    HW211387   4.109   4.575   3.584
 3791SOL     OW11388   5.027   4.562   1.904
 3791SOL    HW111389   5.061   4.469   1.919
 3791SOL    HW211390   5.045   4.589   1.809
 3792SOL     OW11391   4.043   4.534   2.811
 3792SOL    HW111392   4.136   4.570   2.816
 3792SOL    HW211393   4.037   4.449   2.863
 3793SOL     OW11394   4.063   4.233   2.868
 3793SOL    HW111395   4.011   4.150   2.851
 3793SOL    HW211396   4.140   4.238   2.804
 3794SOL     OW11397   4.862   4.104   3.540
 3794SOL    HW111398   4.817   4.167   3.604
 3794SOL    HW211399   4.955   4.135   3.523
 3795SOL     OW11400   4.884   3.931   3.339
 3795SOL    HW111401   4.884   3.995   3.416
 3795SOL    HW211402   4.912   3.979   3.256
 3796SOL     OW11403   4.726   4.520   3.100
 3796SOL    HW111404   4.767   4.488   3.186
 3796SOL    HW211405   4.630   4.493   3.097
 3797SOL     OW11406   3.764   4.268   2.976
 3797SOL    HW111407   3.849   4.235   2.935
 3797SOL    HW211408   3.777   4.283   3.074
 3798SOL     OW11409   3.913   4.244   3.584
 3798SOL    HW111410   3.972   4.204   3.514
 3798SOL    HW211411   3.855   4.315   3.543
 3799SOL     OW11412   4.539   4.296   2.187
 3799SOL    HW111413   4.546   4.207   2.141
 3799SOL    HW211414   4.445   4.330   2.179
 3800SOL     OW11415   4.395   4.188   3.131
 3800SOL    HW111416   4.361   4.099   3.101
 3800SOL    HW211417   4.421   4.242   3.051
 3801SOL     OW11418   4.197   4.224   2.053
 3801SOL    HW111419   4.258   4.304   2.057
 3801SOL    HW211420   4.102   4.255   2.060
 3802SOL     OW11421   3.883   4.861   3.328
 3802SOL    HW111422   3.905   4.800   3.404
 3802SOL    HW211423   3.893   4.812   3.242
 3803SOL     OW11424   5.026   4.579   2.171
 3803SOL    HW111425   4.940   4.548   2.213
 3803SOL    HW211426   5.022   4.565   2.072
 3804SOL     OW11427   3.987   4.050   2.582
 3804SOL    HW111428   3.908   4.101   2.548
 3804SOL    HW211429   3.978   4.035   2.680
 3805SOL     OW11430   4.546   4.726   3.234
 3805SOL    HW111431   4.586   4.725   3.142
 3805SOL    HW211432   4.556   4.818   3.274
 3806SOL     OW11433   4.640   4.634   2.153
 3806SOL    HW111434   4.703   4.672   2.085
 3806SOL    HW211435   4.680   4.551   2.192
 3807SOL     OW11436   4.096   5.012   3.352
 3807SOL    HW111437   4.083   5.105   3.318
 3807SOL    HW211438   4.012   4.960   3.339
 3808SOL     OW11439   4.738   3.960   2.833
 3808SOL    HW111440   4.730   3.924   2.740
 3808SOL    HW211441   4.736   3.884   2.898
 3809SOL     OW11442   3.829   4.737   3.588
 3809SOL    HW111443   3.752   4.704   3.642
 3809SOL    HW211444   3.914   4.707   3.630
 3810SOL     OW11445   4.396   3.927   3.351
 3810SOL    HW111446   4.486   3.911   3.311
 3810SOL    HW211447   4.404   3.932   3.450
 3811SOL     OW11448   3.799   4.069   1.895
 3811SOL    HW111449   3.707   4.041   1.866
 3811SOL    HW211450   3.830   4.146   1.839
 3812SOL     OW11451   3.796   3.890   2.180
 3812SOL    HW111452   3.779   3.973   2.126
 3812SOL    HW211453   3.886   3.853   2.158
 3813SOL     OW11454   4.337   4.566   3.293
 3813SOL    HW111455   4.393   4.647   3.276
 3813SOL    HW211456   4.396   4.486   3.296
 3814SOL     OW11457   4.440   4.289   3.570
 3814SOL    HW111458   4.459   4.354   3.644
 3814SOL    HW211459   4.500   4.209   3.579
 3815SOL     OW11460   4.318   4.469   2.514
 3815SOL    HW111461   4.368   4.554   2.495
 3815SOL    HW211462   4.230   4.471   2.466
 3816SOL     OW11463   4.583   4.680   2.723
 3816SOL    HW111464   4.637   4.611   2.771
 3816SOL    HW211465   4.551   4.749   2.789
 3817SOL     OW11466   4.807   4.708   1.949
 3817SOL    HW111467   4.784   4.761   1.867
 3817SOL    HW211468   4.888   4.652   1.930
 3818SOL     OW11469   4.152   4.148   2.382
 3818SOL    HW111470   4.182   4.076   2.320
 3818SOL    HW211471   4.113   4.108   2.465
 3819SOL     OW11472   4.041   4.271   3.142
 3819SOL    HW111473   4.079   4.212   3.214
 3819SOL    HW211474   4.081   4.245   3.054
 3820SOL     OW11475   4.725   3.758   3.016
 3820SOL    HW111476   4.662   3.686   2.985
 3820SOL    HW211477   4.818   3.722   3.016
 3821SOL     OW11478   4.494   5.054   2.163
 3821SOL    HW111479   4.448   4.967   2.180
 3821SOL    HW211480   4.585   5.051   2.204
 3822SOL     OW11481   3.763   4.801   2.162
 3822SOL    HW111482   3.862   4.790   2.153
 3822SOL    HW211483   3.723   4.715   2.194
 3823SOL     OW11484   3.954   4.352   3.837
 3823SOL    HW111485   3.861   4.350   3.874
 3823SOL    HW211486   3.955   4.313   3.745
 3824SOL     OW11487   3.949   3.999   4.720
 3824SOL    HW111488   3.984   3.982   4.812
 3824SOL    HW211489   3.861   3.954   4.708
 3825SOL     OW11490   3.743   4.092   4.371
 3825SOL    HW111491   3.661   4.135   4.410
 3825SOL    HW211492   3.715   4.019   4.308
 3826SOL     OW11493   4.492   4.868   4.747
 3826SOL    HW111494   4.414   4.885   4.807
 3826SOL    HW211495   4.526   4.955   4.711
 3827SOL     OW11496   4.409   4.736   4.389
 3827SOL    HW111497   4.478   4.720   4.459
 3827SOL    HW211498   4.336   4.793   4.427
 3828SOL     OW11499   5.184   5.229   5.063
 3828SOL    HW111500   5.208   5.323   5.089
 3828SOL    HW211501   5.168   5.175   5.145
 3829SOL     OW11502   3.964   4.815   4.610
 3829SOL    HW111503   3.978   4.731   4.662
 3829SOL    HW211504   3.909   4.879   4.665
 3830SOL     OW11505   4.330   4.688   3.847
 3830SOL    HW111506   4.337   4.772   3.793
 3830SOL    HW211507   4.376   4.701   3.935
 3831SOL     OW11508   3.846   4.367   4.287
 3831SOL    HW111509   3.801   4.279   4.304
 3831SOL    HW211510   3.845   4.421   4.371
 3832SOL     OW11511   4.533   3.728   4.226
 3832SOL    HW111512   4.573   3.819   4.217
 3832SOL    HW211513   4.433   3.736   4.232
 3833SOL     OW11514   3.921   4.700   4.988
 3833SOL    HW111515   4.010   4.655   4.974
 3833SOL    HW211516   3.848   4.635   4.969
 3834SOL     OW11517   4.322   4.453   3.994
 3834SOL    HW111518   4.346   4.522   3.926
 3834SOL    HW211519   4.244   4.486   4.048
 3835SOL     OW11520   4.765   4.425   4.153
 3835SOL    HW111521   4.791   4.421   4.249
 3835SOL    HW211522   4.680   4.374   4.139
 3836SOL     OW11523   3.800   4.535   4.513
 3836SOL    HW111524   3.899   4.523   4.522
 3836SOL    HW211525   3.776   4.630   4.534
 3837SOL     OW11526   4.589   4.072   3.919
 3837SOL    HW111527   4.648   4.135   3.870
 3837SOL    HW211528   4.608   3.978   3.890
 3838SOL     OW11529   4.274   3.920   4.609
 3838SOL    HW111530   4.269   3.915   4.709
 3838SOL    HW211531   4.276   4.016   4.580
 3839SOL     OW11532   4.045   4.667   3.966
 3839SOL    HW111533   4.127   4.706   3.924
 3839SOL    HW211534   4.018   4.585   3.917
 3840SOL     OW11535   4.106   4.424   4.204
 3840SOL    HW111536   4.151   4.334   4.201
 3840SOL    HW211537   4.012   4.413   4.237
 3841SOL     OW11538   4.338   3.846   3.841
 3841SOL    HW111539   4.436   3.824   3.848
 3841SOL    HW211540   4.307   3.829   3.748
 3842SOL     OW11541   4.612   5.238   4.919
 3842SOL    HW111542   4.589   5.213   4.825
 3842SOL    HW211543   4.673   5.169   4.958
 3843SOL     OW11544   4.646   4.227   4.623
 3843SOL    HW111545   4.621   4.218   4.527
 3843SOL    HW211546   4.694   4.145   4.654
 3844SOL     OW11547   4.263   3.788   4.236
 3844SOL    HW111548   4.182   3.789   4.294
 3844SOL    HW211549   4.266   3.871   4.181
 3845SOL     OW11550   4.021   3.759   3.895
 3845SOL    HW111551   4.070   3.843   3.874
 3845SOL    HW211552   4.083   3.694   3.940
 3846SOL     OW11553   4.659   3.960   4.204
 3846SOL    HW111554   4.611   4.001   4.126
 3846SOL    HW211555   4.758   3.958   4.185
 3847SOL     OW11556   4.183   4.876   4.465
 3847SOL    HW111557   4.112   4.849   4.530
 3847SOL    HW211558   4.157   4.848   4.372
 3848SOL     OW11559   4.756   4.273   3.740
 3848SOL    HW111560   4.715   4.355   3.701
 3848SOL    HW211561   4.820   4.299   3.813
 3849SOL     OW11562   4.590   4.178   4.366
 3849SOL    HW111563   4.558   4.250   4.304
 3849SOL    HW211564   4.614   4.097   4.313
 3850SOL     OW11565   4.741   3.763   4.477
 3850SOL    HW111566   4.669   3.768   4.408
 3850SOL    HW211567   4.717   3.694   4.546
 3851SOL     OW11568   4.251   3.980   4.052
 3851SOL    HW111569   4.278   3.921   3.977
 3851SOL    HW211570   4.251   4.075   4.021
 3852SOL     OW11571   4.429   4.774   4.092
 3852SOL    HW111572   4.415   4.781   4.191
 3852SOL    HW211573   4.513   4.723   4.074
 3853SOL     OW11574   4.134   4.537   4.975
 3853SOL    HW111575   4.220   4.549   5.025
 3853SOL    HW211576   4.092   4.450   5.002
 3854SOL     OW11577   4.091   4.824   4.225
 3854SOL    HW111578   4.084   4.907   4.169
 3854SOL    HW211579   4.095   4.744   4.165
 3855SOL     OW11580   4.290   4.261   4.589
 3855SOL    HW111581   4.302   4.327   4.515
 3855SOL    HW211582   4.336   4.295   4.672
 3856SOL     OW11583   4.297   4.594   4.753
 3856SOL    HW111584   4.341   4.683   4.744
 3856SOL    HW211585   4.234   4.594   4.830
 3857SOL     OW11586   4.933   4.249   3.999
 3857SOL    HW111587   4.946   4.165   4.053
 3857SOL    HW211588   4.904   4.323   4.059
 3858SOL     OW11589   4.456   4.358   4.788
 3858SOL    HW111590   4.515   4.332   4.712
 3858SOL    HW211591   4.428   4.454   4.777
 3859SOL     OW11592   4.031   3.787   4.342
 3859SOL    HW111593   4.020   3.881   4.375
 3859SOL    HW211594   4.026   3.724   4.419
 3860SOL     OW11595   4.747   4.490   4.690
 3860SOL    HW111596   4.762   4.511   4.786
 3860SOL    HW211597   4.717   4.395   4.681
 3861SOL     OW11598   5.027   4.562   3.766
 3861SOL    HW111599   5.061   4.469   3.781
 3861SOL    HW211600   5.045   4.589   3.671
 3862SOL     OW11601   4.043   4.534   4.673
 3862SOL    HW111602   4.136   4.570   4.678
 3862SOL    HW211603   4.037   4.449   4.725
 3863SOL     OW11604   4.063   4.233   4.730
 3863SOL    HW111605   4.011   4.150   4.713
 3863SOL    HW211606   4.140   4.238   4.666
 3864SOL     OW11607   4.726   4.520   4.962
 3864SOL    HW111608   4.767   4.488   5.048
 3864SOL    HW211609   4.630   4.493   4.959
 3865SOL     OW11610   3.764   4.268   4.838
 3865SOL    HW111611   3.849   4.235   4.797
 3865SOL    HW211612   3.777   4.283   4.936
 3866SOL     OW11613   4.539   4.296   4.049
 3866SOL    HW111614   4.546   4.207   4.003
 3866SOL    HW211615   4.445   4.330   4.041
 3867SOL     OW11616   4.395   4.188   4.993
 3867SOL    HW111617   4.361   4.099   4.963
 3867SOL    HW211618   4.421   4.242   4.913
 3868SOL     OW11619   4.197   4.224   3.915
 3868SOL    HW111620   4.258   4.304   3.919
 3868SOL    HW211621   4.102   4.255   3.922
 3869SOL     OW11622   5.026   4.579   4.033
 3869SOL    HW111623   4.940   4.548   4.075
 3869SOL    HW211624   5.022   4.565   3.934
 3870SOL     OW11625   3.987   4.050   4.444
 3870SOL    HW111626   3.908   4.101   4.410
 3870SOL    HW211627   3.978   4.035   4.542
 3871SOL     OW11628   4.546   4.726   5.096
 3871SOL    HW111629   4.586   4.725   5.004
 3871SOL    HW211630   4.556   4.818   5.136
 3872SOL     OW11631   4.640   4.634   4.015
 3872SOL    HW111632   4.703   4.672   3.947
 3872SOL    HW211633   4.680   4.551   4.054
 3873SOL     OW11634   4.738   3.960   4.695
 3873SOL    HW111635   4.730   3.924   4.602
 3873SOL    HW211636   4.736   3.884   4.760
 3874SOL     OW11637   3.799   4.069   3.757
 3874SOL    HW111638   3.707   4.041   3.728
 3874SOL    HW211639   3.830   4.146   3.701
 3875SOL     OW11640   3.796   3.890   4.042
 3875SOL    HW111641   3.779   3.973   3.988
 3875SOL    HW211642   3.886   3.853   4.020
 3876SOL     OW11643   4.318   4.469   4.376
 3876SOL    HW111644   4.368   4.554   4.357
 3876SOL    HW211645   4.230   4.471   4.328
 3877SOL     OW11646   4.583   4.680   4.585
 3877SOL    HW111647   4.637   4.611   4.633
 3877SOL    HW211648   4.551   4.749   4.651
 3878SOL     OW11649   4.807   4.708   3.811
 3878SOL    HW111650   4.784   4.761   3.729
 3878SOL    HW211651   4.888   4.652   3.792
 3879SOL     OW11652   4.152   4.148   4.244
 3879SOL    HW111653   4.182   4.076   4.182
 3879SOL    HW211654   4.113   4.108   4.327
 3880SOL     OW11655   4.494   5.054   4.025
 3880SOL    HW111656   4.448   4.967   4.042
 3880SOL    HW211657   4.585   5.051   4.066
 3881SOL     OW11658   3.763   4.801   4.024
 3881SOL    HW111659   3.862   4.790   4.015
 3881SOL    HW211660   3.723   4.715   4.056
   4.91931   4.91931   4.91931
