; mobley_8208692_GMX_OPLS.top created by acpype (v: 2023.10.27) on Wed May 20 23:51:30 2026

; Include forcefield parameters
#include "ffoplsaa.itp"

; Include mobley_8208692_GMX.itp topology
#include "mobley_8208692_GMX.itp"

; Ligand position restraints
#ifdef POSRES_LIG
#include "posre_mobley_8208692.itp"
#endif

[ system ]
 mobley_8208692

[ molecules ]
; Compound        nmols
 mobley_8208692   1     
