mobley_8208692_GMX.gro created by acpype (v: 2023.10.27) on Wed May 20 23:51:30 2026
 22
    1  MOL   C1    1   0.189  -0.104  -0.011
    1  MOL   C2    2  -0.234  -0.006  -0.142
    1  MOL   C3    3   0.081  -0.046   0.056
    1  MOL   C4    4  -0.025   0.014  -0.024
    1  MOL   C5    5   0.292  -0.163   0.061
    1  MOL   C6    6  -0.133  -0.063  -0.065
    1  MOL   C7    7  -0.228   0.128  -0.177
    1  MOL   C8    8   0.076  -0.048   0.196
    1  MOL   C9    9  -0.018   0.149  -0.059
    1  MOL  C10   10   0.288  -0.165   0.200
    1  MOL  C11   11  -0.119   0.206  -0.136
    1  MOL  C12   12   0.180  -0.108   0.268
    1  MOL  CL1   13   0.422  -0.232  -0.030
    1  MOL  CL2   14  -0.147  -0.231  -0.024
    1  MOL  CL3   15  -0.357   0.192  -0.273
    1  MOL  CL4   16  -0.059   0.024   0.278
    1  MOL  CL5   17   0.118   0.245  -0.007
    1  MOL  CL6   18   0.418  -0.240   0.289
    1  MOL  CL7   19  -0.112   0.374  -0.181
    1  MOL  CL8   20   0.175  -0.110   0.442
    1  MOL   H1   21   0.192  -0.102  -0.120
    1  MOL   H2   22  -0.319  -0.067  -0.174
   15.59200    12.27600    14.28800
