%VERSION  VERSION_STAMP = V0001.000  DATE = 05/20/26  23:51:35                  
%FLAG TITLE                                                                     
%FORMAT(20a4)                                                                   
1,2,3,4-tetrachloro-5-(2,3,4,6-                                                 
%FLAG POINTERS                                                                  
%FORMAT(10I8)                                                                   
      22       3       2      21       4      32      10      54       0       0
     109       1      21      32      54       5       8       3       4       0
       0       0       0       0       0       0       0       0      22       0
       0
%FLAG ATOM_NAME                                                                 
%FORMAT(20a4)                                                                   
C1  C2  C3  C4  C5  C6  C7  C8  C9  C10 C11 C12 Cl1 Cl2 Cl3 Cl4 Cl5 Cl6 Cl7 Cl8 
H1  H2  
%FLAG CHARGE                                                                    
%FORMAT(5E16.8)                                                                 
 -1.54889550E+00 -2.18667600E+00 -4.92002100E-01 -6.01335900E-01  3.35290320E-01
  8.81959320E-01  6.99736320E-01  8.45514720E-01  9.00181620E-01  5.72180220E-01
  1.71289620E-01  3.35290320E-01 -9.18403920E-01 -9.91293120E-01 -8.45514720E-01
 -7.36180920E-01 -6.99736320E-01 -6.08624820E-01 -6.08624820E-01 -6.26847120E-01
  3.02490180E+00  3.13423560E+00
%FLAG ATOMIC_NUMBER                                                             
%FORMAT(10I8)                                                                   
       6       6       6       6       6       6       6       6       6       6
       6       6      17      17      17      17      17      17      17      17
       1       1
%FLAG MASS                                                                      
%FORMAT(5E16.8)                                                                 
  1.20100000E+01  1.20100000E+01  1.20100000E+01  1.20100000E+01  1.20100000E+01
  1.20100000E+01  1.20100000E+01  1.20100000E+01  1.20100000E+01  1.20100000E+01
  1.20100000E+01  1.20100000E+01  3.54500000E+01  3.54500000E+01  3.54500000E+01
  3.54500000E+01  3.54500000E+01  3.54500000E+01  3.54500000E+01  3.54500000E+01
  1.00800000E+00  1.00800000E+00
%FLAG ATOM_TYPE_INDEX                                                           
%FORMAT(10I8)                                                                   
       1       1       1       1       1       1       1       1       1       1
       1       1       2       2       2       2       2       2       2       2
       3       3
%FLAG NUMBER_EXCLUDED_ATOMS                                                     
%FORMAT(10I8)                                                                   
      12      10      14      13       7       8       7       7       5       6
       4       4       2       1       2       1       1       1       1       1
       1       1
%FLAG NONBONDED_PARM_INDEX                                                      
%FORMAT(10I8)                                                                   
       1       2       4       2       3       5       4       5       6
%FLAG RESIDUE_LABEL                                                             
%FORMAT(20a4)                                                                   
MOL 
%FLAG RESIDUE_POINTER                                                           
%FORMAT(10I8)                                                                   
       1
%FLAG BOND_FORCE_CONSTANT                                                       
%FORMAT(5E16.8)                                                                 
  3.46070000E+02  3.54250000E+02  3.60690000E+02  2.69370000E+02  1.87980000E+02
%FLAG BOND_EQUIL_VALUE                                                          
%FORMAT(5E16.8)                                                                 
  1.40560000E+00  1.39860000E+00  1.08600000E+00  1.48290000E+00  1.75720000E+00
%FLAG ANGLE_FORCE_CONSTANT                                                      
%FORMAT(5E16.8)                                                                 
  6.13000000E+01  6.37900000E+01  6.36700000E+01  6.40600000E+01  6.33300000E+01
  4.47300000E+01  6.37000000E+01  4.49000000E+01
%FLAG ANGLE_EQUIL_VALUE                                                         
%FORMAT(5E16.8)                                                                 
  2.11359463E+00  2.06664525E+00  2.09474507E+00  2.08357495E+00  2.10713691E+00
  2.09125441E+00  2.10207545E+00  2.09230160E+00
%FLAG DIHEDRAL_FORCE_CONSTANT                                                   
%FORMAT(5E16.8)                                                                 
  7.65000000E-01  3.62500000E+00  1.10000000E+00
%FLAG DIHEDRAL_PERIODICITY                                                      
%FORMAT(5E16.8)                                                                 
  2.00000000E+00  2.00000000E+00  2.00000000E+00
%FLAG DIHEDRAL_PHASE                                                            
%FORMAT(5E16.8)                                                                 
  3.14159400E+00  3.14159400E+00  3.14159400E+00
%FLAG SCEE_SCALE_FACTOR                                                         
%FORMAT(5E16.8)                                                                 
  1.20000000E+00  1.20000000E+00  0.00000000E+00
%FLAG SCNB_SCALE_FACTOR                                                         
%FORMAT(5E16.8)                                                                 
  2.00000000E+00  2.00000000E+00  0.00000000E+00
%FLAG SOLTY                                                                     
%FORMAT(5E16.8)                                                                 
  0.00000000E+00  0.00000000E+00  0.00000000E+00  0.00000000E+00
%FLAG LENNARD_JONES_ACOEF                                                       
%FORMAT(5E16.8)                                                                 
  6.96551276E+05  1.49062160E+06  3.17107030E+06  7.52549148E+04  1.66104821E+05
  6.90855956E+03
%FLAG LENNARD_JONES_BCOEF                                                       
%FORMAT(5E16.8)                                                                 
  5.24668528E+02  9.81118883E+02  1.82923847E+03  1.09570372E+02  2.08087638E+02
  2.10929191E+01
%FLAG BONDS_INC_HYDROGEN                                                        
%FORMAT(10I8)                                                                   
       0      60       3       3      63       3
%FLAG BONDS_WITHOUT_HYDROGEN                                                    
%FORMAT(10I8)                                                                   
       0       6       1       0      12       2       3      15       2       3
      18       2       6       9       4       6      21       1       9      15
       1       9      24       1      12      27       2      12      36       5
      15      39       5      18      30       2      18      42       5      21
      33       2      21      45       5      24      30       2      24      48
       5      27      33       2      27      51       5      30      54       5
      33      57       5
%FLAG ANGLES_INC_HYDROGEN                                                       
%FORMAT(10I8)                                                                   
       6       0      60       6      12       0      60       8      15       3
      63       8      18       3      63       8
%FLAG ANGLES_WITHOUT_HYDROGEN                                                   
%FORMAT(10I8)                                                                   
       0       6       9       1       0       6      21       2       0      12
      27       3       0      12      36       4       3      15       9       5
       3      15      39       4       3      18      30       3       3      18
      42       4       6       0      12       5       6       9      15       1
       6       9      24       1       6      21      33       5       6      21
      45       7       9       6      21       1       9      15      39       7
       9      24      30       5       9      24      48       7      12      27
      33       3      12      27      51       4      15       3      18       3
      15       9      24       2      18      30      24       3      18      30
      54       4      21      33      27       3      21      33      57       4
      24      30      54       4      27      12      36       4      27      33
      57       4      30      18      42       4      30      24      48       4
      33      21      45       4      33      27      51       4
%FLAG DIHEDRALS_INC_HYDROGEN                                                    
%FORMAT(10I8)                                                                   
      60       0       6       9       2       9      15       3      63       2
      60       0       6      21       2      60       0      12      27       2
      30      18       3      63       2      60       0      12      36       2
      39      15       3      63       2      42      18       3      63       2
      60       0      -6     -12       3      15      18      -3     -63       3
%FLAG DIHEDRALS_WITHOUT_HYDROGEN                                                
%FORMAT(10I8)                                                                   
       0       6       9      15       1       0       6       9      24       1
       0       6      21      33       2       0       6      21      45       2
       0      12     -27      33       2       0      12      27      51       2
       3      15       9       6       2       3      15       9      24       2
       3      18     -30      24       2       3      18      30      54       2
       6       0      12      27       2       6       0      12      36       2
       6       9      15      39       2       6       9      24      30       2
       6       9      24      48       2       6      21     -33      27       2
       6      21      33      57       2      12       0       6       9       2
       9       6      21      33       2       9       6      21      45       2
       9      15       3      18       2       9      24     -30      18       2
       9      24      30      54       2      12       0       6      21       2
      12      27     -33      21       2      12      27      33      57       2
      15       3      18      30       2      15       3      18      42       2
      15       9       6      21       1      15       9     -24      30       2
      15       9      24      48       2      18       3      15      39       2
      18      30      24      48       2      21       6       9      24       1
      21      33      27      51       2      24       9      15      39       2
      24      30      18      42       2      27      33      21      45       2
      33      27      12      36       2      36      12      27      51       2
      42      18      30      54       2      45      21      33      57       2
      48      24      30      54       2      51      27      33      57       2
       0      21      -6      -9       3      15      24      -9      -6       3
       0      27     -12     -36       3       3      39     -15      -9       3
       3      30     -18     -42       3      33      45     -21      -6       3
      30      48     -24      -9       3      12      33     -27     -51       3
      18      24     -30     -54       3      21      27     -33     -57       3
%FLAG EXCLUDED_ATOMS_LIST                                                       
%FORMAT(10I8)                                                                   
       3       4       5       6       8       9      10      12      13      16
      18      21       3       4       6       7       9      11      14      15
      19      22       4       5       6       8       9      10      11      12
      13      14      16      17      20      21       5       6       7       8
       9      11      12      14      16      17      19      21      22       8
      10      12      13      18      20      21       7       8       9      11
      14      15      17      22       9      11      14      15      17      19
      22       9      10      12      16      18      20      21      11      14
      15      17      19      12      13      16      18      20      21      15
      17      19      22      13      16      18      20      18      21      22
      19      22      20      19      20       0       0       0       0
%FLAG HBOND_ACOEF                                                               
%FORMAT(5E16.8)                                                                 

%FLAG HBOND_BCOEF                                                               
%FORMAT(5E16.8)                                                                 

%FLAG HBCUT                                                                     
%FORMAT(5E16.8)                                                                 

%FLAG AMBER_ATOM_TYPE                                                           
%FORMAT(20a4)                                                                   
ca  ca  cp  cp  ca  ca  ca  ca  ca  ca  ca  ca  cl  cl  cl  cl  cl  cl  cl  cl  
ha  ha  
%FLAG TREE_CHAIN_CLASSIFICATION                                                 
%FORMAT(20a4)                                                                   
BLA BLA BLA BLA BLA BLA BLA BLA BLA BLA BLA BLA BLA BLA BLA BLA BLA BLA BLA BLA 
BLA BLA 
%FLAG JOIN_ARRAY                                                                
%FORMAT(10I8)                                                                   
       0       0       0       0       0       0       0       0       0       0
       0       0       0       0       0       0       0       0       0       0
       0       0
%FLAG IROTAT                                                                    
%FORMAT(10I8)                                                                   
       0       0       0       0       0       0       0       0       0       0
       0       0       0       0       0       0       0       0       0       0
       0       0
%FLAG RADIUS_SET                                                                
%FORMAT(1a80)                                                                   
modified Bondi radii (mbondi)                                                   
%FLAG RADII                                                                     
%FORMAT(5E16.8)                                                                 
  1.70000000E+00  1.70000000E+00  1.70000000E+00  1.70000000E+00  1.70000000E+00
  1.70000000E+00  1.70000000E+00  1.70000000E+00  1.70000000E+00  1.70000000E+00
  1.70000000E+00  1.70000000E+00  1.70000000E+00  1.70000000E+00  1.70000000E+00
  1.70000000E+00  1.70000000E+00  1.70000000E+00  1.70000000E+00  1.70000000E+00
  1.30000000E+00  1.30000000E+00
%FLAG SCREEN                                                                    
%FORMAT(5E16.8)                                                                 
  7.20000000E-01  7.20000000E-01  7.20000000E-01  7.20000000E-01  7.20000000E-01
  7.20000000E-01  7.20000000E-01  7.20000000E-01  7.20000000E-01  7.20000000E-01
  7.20000000E-01  7.20000000E-01  8.00000000E-01  8.00000000E-01  8.00000000E-01
  8.00000000E-01  8.00000000E-01  8.00000000E-01  8.00000000E-01  8.00000000E-01
  8.50000000E-01  8.50000000E-01
%FLAG IPOL                                                                      
%FORMAT(1I8)                                                                    
       0
