1,2,3,4-tetrachloro-5-(2,3,4,6-
    22
   1.8850000  -1.0360000  -0.1120000  -2.3430000  -0.0640000  -1.4170000
   0.8070000  -0.4630000   0.5610000  -0.2450000   0.1410000  -0.2380000
   2.9210000  -1.6310000   0.6080000  -1.3280000  -0.6340000  -0.6500000
  -2.2750000   1.2840000  -1.7730000   0.7640000  -0.4840000   1.9550000
  -0.1760000   1.4890000  -0.5940000   2.8780000  -1.6520000   2.0020000
  -1.1910000   2.0590000  -1.3610000   1.8000000  -1.0790000   2.6760000
   4.2240000  -2.3210000  -0.2990000  -1.4740000  -2.3110000  -0.2430000
  -3.5720000   1.9190000  -2.7270000  -0.5920000   0.2390000   2.7760000
   1.1820000   2.4490000  -0.0740000   4.1780000  -2.3990000   2.8880000
  -1.1180000   3.7390000  -1.8120000   1.7450000  -1.1030000   4.4170000
   1.9180000  -1.0200000  -1.2010000  -3.1880000  -0.6700000  -1.7380000
