mobley_820789_GMX.gro created by acpype (v: 2023.10.27) on Wed May 20 23:52:33 2026
   14
    1MOL     C1    1   2.411   2.434   2.456
    1MOL     C2    2   2.252   2.210   2.183
    1MOL     C3    3   2.303   2.374   2.369
    1MOL     C4    4   2.359   2.271   2.271
    1MOL     O1    5   2.530   2.411   2.441
    1MOL     O2    6   2.362   2.519   2.549
    1MOL     H1    7   2.206   2.285   2.118
    1MOL     H2    8   2.173   2.163   2.243
    1MOL     H3    9   2.296   2.133   2.118
    1MOL     H4   10   2.246   2.452   2.318
    1MOL     H5   11   2.231   2.325   2.437
    1MOL     H6   12   2.407   2.191   2.328
    1MOL     H7   13   2.436   2.317   2.208
    1MOL     H8   14   2.430   2.562   2.606
   4.66343   4.66343   4.66343
