E_hept_2_ene
    21
   1.4390000   1.3910000  -0.6400000   1.0590000   0.2350000  -0.0760000
   0.4860000   2.3970000  -1.1950000   2.5670000  -2.2830000   4.0330000
   2.0180000  -0.7780000   0.4790000   2.8010000  -2.0580000   2.5470000
   1.8090000  -1.0430000   1.9740000   2.4960000   1.6330000  -0.7070000
   0.0010000  -0.0070000  -0.0130000   0.6880000   2.5540000  -2.2590000
   0.6110000   3.3530000  -0.6770000  -0.5570000   2.0840000  -1.0890000
   2.6830000  -1.3500000   4.5940000   1.5610000  -2.6720000   4.2180000
   3.2880000  -3.0070000   4.4250000   1.8700000  -1.7170000  -0.0680000
   3.0570000  -0.4740000   0.3030000   2.7020000  -3.0140000   2.0200000
   3.8300000  -1.7110000   2.4010000   0.7880000  -1.4200000   2.1160000
   1.8790000  -0.1020000   2.5330000
