; mobley_8467917_GMX_OPLS.itp created by acpype (v: 2023.10.27) on Wed May 20 23:42:17 2026

; For OPLS atomtypes manual fine tuning
; AC_at:OPLS_at:OPLScode: Possible_Alternatives (see ffoplsaa.atp and ffoplsaanb.itp)
; c2:CR:opls_509: ['510']
; c3:CT:opls_135: ['136', '137', '149', '157', '158', '206', '209', '210', '223B', '224B', '245', '246', '274', '283', '284', '285', '292', '292B', '293B', '296', '307', '308', '505']
; ha:HA:opls_146: []
; hc:HC:opls_140: []

[ moleculetype ]
;name            nrexcl
 mobley_8467917   3

[ atoms ]
;   nr  type  resi  res  atom  cgnr     charge      mass       ; qtot   bond_type
     1 opls_509     1   MOL    C1    1    -0.175199     12.01100 ; qtot -0.175  CR  
     2 opls_509     1   MOL    C2    2    -0.171200     12.01100 ; qtot -0.346  CR  
     3 opls_135     1   MOL    C3    3    -0.062900     12.01100 ; qtot -0.409  CT  
     4 opls_135     1   MOL    C4    4    -0.092100     12.01100 ; qtot -0.501  CT  
     5 opls_135     1   MOL    C5    5    -0.048200     12.01100 ; qtot -0.550  CT  
     6 opls_135     1   MOL    C6    6    -0.080400     12.01100 ; qtot -0.630  CT  
     7 opls_135     1   MOL    C7    7    -0.076400     12.01100 ; qtot -0.706  CT  
     8 opls_146     1   MOL    H1    8     0.118000      1.00800 ; qtot -0.588  HA  
     9 opls_146     1   MOL    H2    9     0.120000      1.00800 ; qtot -0.468  HA  
    10 opls_140     1   MOL    H3   10     0.040033      1.00800 ; qtot -0.428  HC  
    11 opls_140     1   MOL    H4   11     0.040033      1.00800 ; qtot -0.388  HC  
    12 opls_140     1   MOL    H5   12     0.040033      1.00800 ; qtot -0.348  HC  
    13 opls_140     1   MOL    H6   13     0.032700      1.00800 ; qtot -0.316  HC  
    14 opls_140     1   MOL    H7   14     0.032700      1.00800 ; qtot -0.283  HC  
    15 opls_140     1   MOL    H8   15     0.032700      1.00800 ; qtot -0.250  HC  
    16 opls_140     1   MOL    H9   16     0.045200      1.00800 ; qtot -0.205  HC  
    17 opls_140     1   MOL   H10   17     0.045200      1.00800 ; qtot -0.160  HC  
    18 opls_140     1   MOL   H11   18     0.038200      1.00800 ; qtot -0.122  HC  
    19 opls_140     1   MOL   H12   19     0.038200      1.00800 ; qtot -0.083  HC  
    20 opls_140     1   MOL   H13   20     0.041700      1.00800 ; qtot -0.042  HC  
    21 opls_140     1   MOL   H14   21     0.041700      1.00800 ; qtot -0.000  HC  

[ bonds ]
;   ai     aj funct   r             k
     1      2   1 ;    1.3379e-01    3.6484e+05 ;     C1 - C2         CR - CR    
     1      3   1 ;    1.5088e-01    2.0786e+05 ;     C1 - C3         CR - CT    
     1      8   1 ;    1.0882e-01    2.9898e+05 ;     C1 - H1         CR - HA    
     2      5   1 ;    1.5088e-01    2.0786e+05 ;     C2 - C5         CR - CT    
     2      9   1 ;    1.0882e-01    2.9898e+05 ;     C2 - H2         CR - HA    
     3     10   1 ;    1.0962e-01    2.8891e+05 ;     C3 - H3         CT - HC    
     3     11   1 ;    1.0962e-01    2.8891e+05 ;     C3 - H4         CT - HC    
     3     12   1 ;    1.0962e-01    2.8891e+05 ;     C3 - H5         CT - HC    
     4      6   1 ;    1.5354e-01    1.9154e+05 ;     C4 - C6         CT - CT    
     4     13   1 ;    1.0962e-01    2.8891e+05 ;     C4 - H6         CT - HC    
     4     14   1 ;    1.0962e-01    2.8891e+05 ;     C4 - H7         CT - HC    
     4     15   1 ;    1.0962e-01    2.8891e+05 ;     C4 - H8         CT - HC    
     5      7   1 ;    1.5354e-01    1.9154e+05 ;     C5 - C7         CT - CT    
     5     16   1 ;    1.0962e-01    2.8891e+05 ;     C5 - H9         CT - HC    
     5     17   1 ;    1.0962e-01    2.8891e+05 ;     C5 - H10        CT - HC    
     6      7   1 ;    1.5354e-01    1.9154e+05 ;     C6 - C7         CT - CT    
     6     18   1 ;    1.0962e-01    2.8891e+05 ;     C6 - H11        CT - HC    
     6     19   1 ;    1.0962e-01    2.8891e+05 ;     C6 - H12        CT - HC    
     7     20   1 ;    1.0962e-01    2.8891e+05 ;     C7 - H13        CT - HC    
     7     21   1 ;    1.0962e-01    2.8891e+05 ;     C7 - H14        CT - HC    

[ pairs ]
;   ai     aj    funct
     1      7      1 ;     C1 - C7    
     1     16      1 ;     C1 - H9    
     1     17      1 ;     C1 - H10   
     2      6      1 ;     C2 - C6    
     2     10      1 ;     C2 - H3    
     2     11      1 ;     C2 - H4    
     2     12      1 ;     C2 - H5    
     2     20      1 ;     C2 - H13   
     2     21      1 ;     C2 - H14   
     3      5      1 ;     C3 - C5    
     3      9      1 ;     C3 - H2    
     4      5      1 ;     C4 - C5    
     4     20      1 ;     C4 - H13   
     4     21      1 ;     C4 - H14   
     5     18      1 ;     C5 - H11   
     5     19      1 ;     C5 - H12   
     6     16      1 ;     C6 - H9    
     6     17      1 ;     C6 - H10   
     7      9      1 ;     C7 - H2    
     7     13      1 ;     C7 - H6    
     7     14      1 ;     C7 - H7    
     7     15      1 ;     C7 - H8    
     8      5      1 ;     H1 - C5    
     8      9      1 ;     H1 - H2    
     8     10      1 ;     H1 - H3    
     8     11      1 ;     H1 - H4    
     8     12      1 ;     H1 - H5    
     9     16      1 ;     H2 - H9    
     9     17      1 ;     H2 - H10   
    13     18      1 ;     H6 - H11   
    13     19      1 ;     H6 - H12   
    14     18      1 ;     H7 - H11   
    14     19      1 ;     H7 - H12   
    15     18      1 ;     H8 - H11   
    15     19      1 ;     H8 - H12   
    16     20      1 ;     H9 - H13   
    16     21      1 ;     H9 - H14   
    17     20      1 ;    H10 - H13   
    17     21      1 ;    H10 - H14   
    18     20      1 ;    H11 - H13   
    18     21      1 ;    H11 - H14   
    19     20      1 ;    H12 - H13   
    19     21      1 ;    H12 - H14   

[ angles ]
;   ai     aj     ak    funct   theta         cth
     1      2      5      1 ;    1.2495e+02    5.0944e+02 ;     C1 - C2   - C5       CR -   CR - CT  
     1      2      9      1 ;    1.2039e+02    3.8802e+02 ;     C1 - C2   - H2       CR -   CR - HA  
     1      3     10      1 ;    1.1065e+02    3.6618e+02 ;     C1 - C3   - H3       CR -   CT - HC  
     1      3     11      1 ;    1.1065e+02    3.6618e+02 ;     C1 - C3   - H4       CR -   CT - HC  
     1      3     12      1 ;    1.1065e+02    3.6618e+02 ;     C1 - C3   - H5       CR -   CT - HC  
     2      1      3      1 ;    1.2495e+02    5.0944e+02 ;     C2 - C1   - C3       CR -   CR - CT  
     2      1      8      1 ;    1.2039e+02    3.8802e+02 ;     C2 - C1   - H1       CR -   CR - HA  
     2      5      7      1 ;    1.1258e+02    5.0543e+02 ;     C2 - C5   - C7       CR -   CT - CT  
     2      5     16      1 ;    1.1065e+02    3.6618e+02 ;     C2 - C5   - H9       CR -   CT - HC  
     2      5     17      1 ;    1.1065e+02    3.6618e+02 ;     C2 - C5   - H10      CR -   CT - HC  
     3      1      8      1 ;    1.1505e+02    3.5941e+02 ;     C3 - C1   - H1       CT -   CR - HA  
     4      6      7      1 ;    1.1263e+02    5.0099e+02 ;     C4 - C6   - C7       CT -   CT - CT  
     4      6     18      1 ;    1.0968e+02    3.6208e+02 ;     C4 - C6   - H11      CT -   CT - HC  
     4      6     19      1 ;    1.0968e+02    3.6208e+02 ;     C4 - C6   - H12      CT -   CT - HC  
     5      2      9      1 ;    1.1505e+02    3.5941e+02 ;     C5 - C2   - H2       CT -   CR - HA  
     5      7      6      1 ;    1.1263e+02    5.0099e+02 ;     C5 - C7   - C6       CT -   CT - CT  
     5      7     20      1 ;    1.0968e+02    3.6208e+02 ;     C5 - C7   - H13      CT -   CT - HC  
     5      7     21      1 ;    1.0968e+02    3.6208e+02 ;     C5 - C7   - H14      CT -   CT - HC  
     6      4     13      1 ;    1.0968e+02    3.6208e+02 ;     C6 - C4   - H6       CT -   CT - HC  
     6      4     14      1 ;    1.0968e+02    3.6208e+02 ;     C6 - C4   - H7       CT -   CT - HC  
     6      4     15      1 ;    1.0968e+02    3.6208e+02 ;     C6 - C4   - H8       CT -   CT - HC  
     6      7     20      1 ;    1.0968e+02    3.6208e+02 ;     C6 - C7   - H13      CT -   CT - HC  
     6      7     21      1 ;    1.0968e+02    3.6208e+02 ;     C6 - C7   - H14      CT -   CT - HC  
     7      5     16      1 ;    1.0968e+02    3.6208e+02 ;     C7 - C5   - H9       CT -   CT - HC  
     7      5     17      1 ;    1.0968e+02    3.6208e+02 ;     C7 - C5   - H10      CT -   CT - HC  
     7      6     18      1 ;    1.0968e+02    3.6208e+02 ;     C7 - C6   - H11      CT -   CT - HC  
     7      6     19      1 ;    1.0968e+02    3.6208e+02 ;     C7 - C6   - H12      CT -   CT - HC  
    10      3     11      1 ;    1.0773e+02    2.9957e+02 ;     H3 - C3   - H4       HC -   CT - HC  
    10      3     12      1 ;    1.0773e+02    2.9957e+02 ;     H3 - C3   - H5       HC -   CT - HC  
    11      3     12      1 ;    1.0773e+02    2.9957e+02 ;     H4 - C3   - H5       HC -   CT - HC  
    13      4     14      1 ;    1.0773e+02    2.9957e+02 ;     H6 - C4   - H7       HC -   CT - HC  
    13      4     15      1 ;    1.0773e+02    2.9957e+02 ;     H6 - C4   - H8       HC -   CT - HC  
    14      4     15      1 ;    1.0773e+02    2.9957e+02 ;     H7 - C4   - H8       HC -   CT - HC  
    16      5     17      1 ;    1.0773e+02    2.9957e+02 ;     H9 - C5   - H10      HC -   CT - HC  
    18      6     19      1 ;    1.0773e+02    2.9957e+02 ;    H11 - C6   - H12      HC -   CT - HC  
    20      7     21      1 ;    1.0773e+02    2.9957e+02 ;    H13 - C7   - H14      HC -   CT - HC  

[ dihedrals ] ; propers
; for gromacs 4.5 or higher, using funct 9
;    i      j      k      l   func   phase     kd      pn
     1      2      5      7      9 ;     0.00   0.00000   0 ;     C1-    C2-    C5-    C7
     1      2      5     16      9 ;   180.00   1.08784   3 ;     C1-    C2-    C5-    H9
     1      2      5     17      9 ;   180.00   1.08784   3 ;     C1-    C2-    C5-   H10
     2      1      3     10      9 ;   180.00   1.08784   3 ;     C2-    C1-    C3-    H3
     2      1      3     11      9 ;   180.00   1.08784   3 ;     C2-    C1-    C3-    H4
     2      1      3     12      9 ;   180.00   1.08784   3 ;     C2-    C1-    C3-    H5
     2      5      7      6      9 ;     0.00   0.65084   3 ;     C2-    C5-    C7-    C6
     2      5      7     20      9 ;     0.00   0.65084   3 ;     C2-    C5-    C7-   H13
     2      5      7     21      9 ;     0.00   0.65084   3 ;     C2-    C5-    C7-   H14
     3      1      2      5      9 ;     0.00   0.62760   1 ;     C3-    C1-    C2-    C5
     3      1      2      5      9 ;   180.00   5.56472   3 ;     C3-    C1-    C2-    C5
     3      1      2      5      9 ;   180.00  24.18352   2 ;     C3-    C1-    C2-    C5
     3      1      2      9      9 ;   180.00  27.82360   2 ;     C3-    C1-    C2-    H2
     4      6      7      5      9 ;     0.00   2.17568   3 ;     C4-    C6-    C7-    C5
     4      6      7     20      9 ;     0.00   0.54392   3 ;     C4-    C6-    C7-   H13
     4      6      7     21      9 ;     0.00   0.54392   3 ;     C4-    C6-    C7-   H14
     5      7      6     18      9 ;     0.00   0.54392   3 ;     C5-    C7-    C6-   H11
     5      7      6     19      9 ;     0.00   0.54392   3 ;     C5-    C7-    C6-   H12
     6      7      5     16      9 ;     0.00   0.54392   3 ;     C6-    C7-    C5-    H9
     6      7      5     17      9 ;     0.00   0.54392   3 ;     C6-    C7-    C5-   H10
     7      5      2      9      9 ;     0.00   0.00000   0 ;     C7-    C5-    C2-    H2
     7      6      4     13      9 ;     0.00   0.54392   3 ;     C7-    C6-    C4-    H6
     7      6      4     14      9 ;     0.00   0.54392   3 ;     C7-    C6-    C4-    H7
     7      6      4     15      9 ;     0.00   0.54392   3 ;     C7-    C6-    C4-    H8
     8      1      2      5      9 ;   180.00  27.82360   2 ;     H1-    C1-    C2-    C5
     8      1      2      9      9 ;   180.00  27.82360   2 ;     H1-    C1-    C2-    H2
     8      1      3     10      9 ;     0.00   0.00000   0 ;     H1-    C1-    C3-    H3
     8      1      3     11      9 ;     0.00   0.00000   0 ;     H1-    C1-    C3-    H4
     8      1      3     12      9 ;     0.00   0.00000   0 ;     H1-    C1-    C3-    H5
     9      2      5     16      9 ;     0.00   0.00000   0 ;     H2-    C2-    C5-    H9
     9      2      5     17      9 ;     0.00   0.00000   0 ;     H2-    C2-    C5-   H10
    13      4      6     18      9 ;     0.00   0.50208   3 ;     H6-    C4-    C6-   H11
    13      4      6     19      9 ;     0.00   0.50208   3 ;     H6-    C4-    C6-   H12
    14      4      6     18      9 ;     0.00   0.50208   3 ;     H7-    C4-    C6-   H11
    14      4      6     19      9 ;     0.00   0.50208   3 ;     H7-    C4-    C6-   H12
    15      4      6     18      9 ;     0.00   0.50208   3 ;     H8-    C4-    C6-   H11
    15      4      6     19      9 ;     0.00   0.50208   3 ;     H8-    C4-    C6-   H12
    16      5      7     20      9 ;     0.00   0.50208   3 ;     H9-    C5-    C7-   H13
    16      5      7     21      9 ;     0.00   0.50208   3 ;     H9-    C5-    C7-   H14
    17      5      7     20      9 ;     0.00   0.50208   3 ;    H10-    C5-    C7-   H13
    17      5      7     21      9 ;     0.00   0.50208   3 ;    H10-    C5-    C7-   H14
    18      6      7     20      9 ;     0.00   0.50208   3 ;    H11-    C6-    C7-   H13
    18      6      7     21      9 ;     0.00   0.50208   3 ;    H11-    C6-    C7-   H14
    19      6      7     20      9 ;     0.00   0.50208   3 ;    H12-    C6-    C7-   H13
    19      6      7     21      9 ;     0.00   0.50208   3 ;    H12-    C6-    C7-   H14

[ dihedrals ] ; impropers
; treated as propers in GROMACS to use correct AMBER analytical function
;    i      j      k      l   func   phase     kd      pn
     1      5      2      9      4 ;   180.00   4.60240   2 ;     C1-    C5-    C2-    H2
     8      1      3      2      4 ;   180.00   4.60240   2 ;     H1-    C1-    C3-    C2
