mobley_8467917_GMX.gro created by acpype (v: 2023.10.27) on Wed May 20 23:42:17 2026
 21
    1  MOL   C1    1   0.144   0.139  -0.064
    1  MOL   C2    2   0.106   0.024  -0.008
    1  MOL   C3    3   0.049   0.240  -0.120
    1  MOL   C4    4   0.257  -0.228   0.403
    1  MOL   C5    5   0.202  -0.078   0.048
    1  MOL   C6    6   0.280  -0.206   0.255
    1  MOL   C7    7   0.181  -0.104   0.197
    1  MOL   H1    8   0.250   0.163  -0.071
    1  MOL   H2    9   0.000  -0.001  -0.001
    1  MOL   H3   10   0.069   0.255  -0.226
    1  MOL   H4   11   0.061   0.335  -0.068
    1  MOL   H5   12  -0.056   0.208  -0.109
    1  MOL   H6   13   0.268  -0.135   0.459
    1  MOL   H7   14   0.156  -0.267   0.422
    1  MOL   H8   15   0.329  -0.301   0.443
    1  MOL   H9   16   0.187  -0.172  -0.007
    1  MOL  H10   17   0.306  -0.047   0.030
    1  MOL  H11   18   0.270  -0.301   0.202
    1  MOL  H12   19   0.383  -0.171   0.240
    1  MOL  H13   20   0.079  -0.142   0.212
    1  MOL  H14   21   0.188  -0.010   0.253
    8.77400    12.73400    13.70600
