; mobley_8467917_GMX_OPLS.top created by acpype (v: 2023.10.27) on Wed May 20 23:42:17 2026

; Include forcefield parameters
#include "ffoplsaa.itp"

; Include mobley_8467917_GMX.itp topology
#include "mobley_8467917_GMX.itp"

; Ligand position restraints
#ifdef POSRES_LIG
#include "posre_mobley_8467917.itp"
#endif

[ system ]
 mobley_8467917

[ molecules ]
; Compound        nmols
 mobley_8467917   1     
