; mobley_9733743_GMX_OPLS.top created by acpype (v: 2023.10.27) on Wed May 20 23:44:04 2026

; Include forcefield parameters
#include "ffoplsaa.itp"

; Include mobley_9733743_GMX.itp topology
#include "mobley_9733743_GMX.itp"

; Ligand position restraints
#ifdef POSRES_LIG
#include "posre_mobley_9733743.itp"
#endif

[ system ]
 mobley_9733743

[ molecules ]
; Compound        nmols
 mobley_9733743   1     
