mobley_9733743_GMX.gro created by acpype (v: 2023.10.27) on Wed May 20 23:44:04 2026
 16
    1  MOL   C1    1   0.100  -0.002  -0.036
    1  MOL   C2    2   0.142   0.129  -0.102
    1  MOL   C3    3   0.050   0.164  -0.219
    1  MOL   C4    4   0.090   0.298  -0.282
    1  MOL   N1    5   0.002   0.329  -0.395
    1  MOL   H1    6   0.167  -0.026   0.047
    1  MOL   H2    7  -0.002   0.004   0.003
    1  MOL   H3    8   0.104  -0.085  -0.108
    1  MOL   H4    9   0.139   0.209  -0.027
    1  MOL   H5   10   0.245   0.120  -0.137
    1  MOL   H6   11   0.054   0.085  -0.294
    1  MOL   H7   12  -0.054   0.170  -0.183
    1  MOL   H8   13   0.084   0.378  -0.208
    1  MOL   H9   14   0.193   0.293  -0.318
    1  MOL  H10   15  -0.021   0.428  -0.393
    1  MOL  H11   16  -0.086   0.279  -0.383
    6.61200    10.25200     8.82800
