mobley_4218209_GMX.gro created by acpype (v: 2023.10.27) on Wed May 20 23:53:47 2026
10980
    1MOL     C1    1   2.324   2.438   2.285
    1MOL     C2    2   2.536   2.322   2.291
    1MOL     C3    3   2.322   2.441   2.425
    1MOL     C4    4   2.534   2.325   2.430
    1MOL     C5    5   2.431   2.379   2.218
    1MOL     C6    6   2.427   2.385   2.497
    1MOL     C7    7   2.313   2.451   2.695
    1MOL     N1    8   2.433   2.375   2.078
    1MOL     O1    9   2.425   2.388   2.633
    1MOL     H1   10   2.241   2.482   2.230
    1MOL     H2   11   2.620   2.276   2.240
    1MOL     H3   12   2.238   2.488   2.477
    1MOL     H4   13   2.616   2.282   2.486
    1MOL     H5   14   2.231   2.379   2.704
    1MOL     H6   15   2.281   2.537   2.636
    1MOL     H7   16   2.342   2.485   2.795
    1MOL     H8   17   2.359   2.421   2.027
    1MOL     H9   18   2.501   2.320   2.031
    2SOL     OW   19   0.230   0.628   0.113
    2SOL    HW1   20   0.137   0.626   0.150
    2SOL    HW2   21   0.231   0.589   0.021
    3SOL     OW   22   0.225   0.275   0.996
    3SOL    HW1   23   0.260   0.258   1.088
    3SOL    HW2   24   0.137   0.230   0.984
    4SOL     OW   25   0.019   0.368   0.647
    4SOL    HW1   26  -0.063   0.411   0.686
    4SOL    HW2   27  -0.009   0.295   0.584
    5SOL     OW   28   0.569   1.275   1.165
    5SOL    HW1   29   0.476   1.268   1.128
    5SOL    HW2   30   0.580   1.364   1.209
    6SOL     OW   31   1.555   1.511   0.703
    6SOL    HW1   32   1.498   1.495   0.784
    6SOL    HW2   33   1.496   1.521   0.623
    7SOL     OW   34   1.135   0.703   0.717
    7SOL    HW1   35   1.192   0.781   0.692
    7SOL    HW2   36   1.075   0.729   0.793
    8SOL     OW   37   1.755   0.607   0.231
    8SOL    HW1   38   1.743   0.594   0.132
    8SOL    HW2   39   1.725   0.526   0.280
    9SOL     OW   40   0.768   1.144   1.023
    9SOL    HW1   41   0.690   1.161   1.083
    9SOL    HW2   42   0.802   1.231   0.987
   10SOL     OW   43   0.850   0.798   1.823
   10SOL    HW1   44   0.846   0.874   1.888
   10SOL    HW2   45   0.872   0.834   1.732
   11SOL     OW   46   0.685   1.012   0.665
   11SOL    HW1   47   0.754   0.996   0.735
   11SOL    HW2   48   0.612   1.069   0.703
   12SOL     OW   49   0.686   1.161   1.803
   12SOL    HW1   50   0.746   1.240   1.817
   12SOL    HW2   51   0.600   1.192   1.762
   13SOL     OW   52   0.335   1.435   1.061
   13SOL    HW1   53   0.257   1.404   1.008
   13SOL    HW2   54   0.393   1.493   1.004
   14SOL     OW   55   1.460   1.505   1.339
   14SOL    HW1   56   1.484   1.599   1.365
   14SOL    HW2   57   1.444   1.451   1.421
   15SOL     OW   58   0.438   0.392   1.499
   15SOL    HW1   59   0.520   0.336   1.508
   15SOL    HW2   60   0.357   0.334   1.503
   16SOL     OW   61   1.603   0.447   0.737
   16SOL    HW1   62   1.529   0.493   0.687
   16SOL    HW2   63   1.654   0.515   0.790
   17SOL     OW   64   0.231   1.713   0.483
   17SOL    HW1   65   0.265   1.790   0.537
   17SOL    HW2   66   0.275   1.713   0.393
   18SOL     OW   67   1.127   1.341   1.690
   18SOL    HW1   68   1.174   1.341   1.778
   18SOL    HW2   69   1.079   1.254   1.679
   19SOL     OW   70   0.230   1.434   0.538
   19SOL    HW1   71   0.204   1.530   0.538
   19SOL    HW2   72   0.159   1.380   0.583
   20SOL     OW   73   0.240   1.091   0.886
   20SOL    HW1   74   0.254   1.007   0.938
   20SOL    HW2   75   0.185   1.155   0.941
   21SOL     OW   76   0.620   1.786   1.439
   21SOL    HW1   77   0.528   1.769   1.474
   21SOL    HW2   78   0.648   1.878   1.465
   22SOL     OW   79   0.606   0.964   0.123
   22SOL    HW1   80   0.613   1.048   0.069
   22SOL    HW2   81   0.652   0.977   0.211
   23SOL     OW   82   1.594   0.114   1.480
   23SOL    HW1   83   1.576   0.181   1.408
   23SOL    HW2   84   1.591   0.160   1.569
   24SOL     OW   85   0.122   0.643   0.563
   24SOL    HW1   86   0.077   0.555   0.580
   24SOL    HW2   87   0.121   0.697   0.647
   25SOL     OW   88   1.842   1.767   0.359
   25SOL    HW1   89   1.896   1.738   0.439
   25SOL    HW2   90   1.872   1.857   0.330
   26SOL     OW   91   0.027   1.596   0.117
   26SOL    HW1   92   0.008   1.500   0.138
   26SOL    HW2   93  -0.006   1.654   0.192
   27SOL     OW   94   1.689   0.922   0.612
   27SOL    HW1   95   1.784   0.893   0.620
   27SOL    HW2   96   1.681   0.987   0.537
   28SOL     OW   97   1.641   1.108   0.432
   28SOL    HW1   98   1.727   1.110   0.380
   28SOL    HW2   99   1.655   1.155   0.520
   29SOL     OW  100   0.113   0.737   1.597
   29SOL    HW1  101   0.201   0.724   1.642
   29SOL    HW2  102   0.100   0.834   1.575
   30SOL     OW  103   0.613   1.365   0.726
   30SOL    HW1  104   0.564   1.278   0.735
   30SOL    HW2  105   0.590   1.408   0.639
   31SOL     OW  106   1.293   1.228   1.423
   31SOL    HW1  107   1.330   1.155   1.365
   31SOL    HW2  108   1.345   1.233   1.508
   32SOL     OW  109   0.809   0.004   0.502
   32SOL    HW1  110   0.849   0.095   0.493
   32SOL    HW2  111   0.709   0.012   0.508
   33SOL     OW  112   0.197   0.976   1.264
   33SOL    HW1  113   0.286   0.931   1.250
   33SOL    HW2  114   0.124   0.911   1.245
   34SOL     OW  115   1.525   0.999   0.190
   34SOL    HW1  116   1.462   0.923   0.203
   34SOL    HW2  117   1.573   1.017   0.276
   35SOL     OW  118   1.187   1.792   1.616
   35SOL    HW1  119   1.211   1.852   1.540
   35SOL    HW2  120   1.194   1.697   1.586
   36SOL     OW  121   0.317   0.251   1.801
   36SOL    HW1  122   0.388   0.322   1.807
   36SOL    HW2  123   0.229   0.290   1.829
   37SOL     OW  124   1.466   1.417   0.953
   37SOL    HW1  125   1.407   1.423   1.033
   37SOL    HW2  126   1.451   1.329   0.907
   38SOL     OW  127   1.667   1.714   0.572
   38SOL    HW1  128   1.626   1.691   0.484
   38SOL    HW2  129   1.649   1.640   0.637
   39SOL     OW  130   0.598   0.729   0.270
   39SOL    HW1  131   0.622   0.798   0.202
   39SOL    HW2  132   0.520   0.762   0.324
   40SOL     OW  133   1.281   0.345   0.944
   40SOL    HW1  134   1.195   0.295   0.931
   40SOL    HW2  135   1.343   0.291   1.000
   41SOL     OW  136   1.576   1.662   0.307
   41SOL    HW1  137   1.665   1.708   0.310
   41SOL    HW2  138   1.555   1.638   0.212
   42SOL     OW  139   0.807   0.605   1.465
   42SOL    HW1  140   0.760   0.602   1.554
   42SOL    HW2  141   0.756   0.550   1.399
   43SOL     OW  142   1.394   0.469   1.674
   43SOL    HW1  143   1.374   0.512   1.762
   43SOL    HW2  144   1.472   0.407   1.683
   44SOL     OW  145   0.973   0.890   1.572
   44SOL    HW1  146   1.019   0.806   1.543
   44SOL    HW2  147   0.917   0.924   1.497
   45SOL     OW  148   0.991   0.410   1.242
   45SOL    HW1  149   0.914   0.444   1.296
   45SOL    HW2  150   0.957   0.359   1.163
   46SOL     OW  151   1.041   0.701   0.429
   46SOL    HW1  152   1.067   0.697   0.525
   46SOL    HW2  153   0.956   0.650   0.415
   47SOL     OW  154   0.076   0.811   0.789
   47SOL    HW1  155   0.175   0.799   0.798
   47SOL    HW2  156   0.052   0.906   0.810
   48SOL     OW  157   0.130   1.821   1.571
   48SOL    HW1  158   0.120   1.806   1.670
   48SOL    HW2  159   0.044   1.857   1.535
   49SOL     OW  160   0.865   0.348   0.195
   49SOL    HW1  161   0.924   0.411   0.146
   49SOL    HW2  162   0.884   0.254   0.166
   50SOL     OW  163   1.719   0.585   1.831
   50SOL    HW1  164   1.693   0.674   1.795
   50SOL    HW2  165   1.717   0.517   1.758
   51SOL     OW  166   1.362   1.144   0.545
   51SOL    HW1  167   1.445   1.115   0.497
   51SOL    HW2  168   1.313   1.211   0.489
   52SOL     OW  169   0.550   0.196   0.885
   52SOL    HW1  170   0.545   0.191   0.985
   52SOL    HW2  171   0.552   0.292   0.856
   53SOL     OW  172   1.008   1.456   0.477
   53SOL    HW1  173   0.962   1.528   0.425
   53SOL    HW2  174   1.004   1.476   0.575
   54SOL     OW  175   0.351   1.801   0.853
   54SOL    HW1  176   0.401   1.715   0.859
   54SOL    HW2  177   0.416   1.878   0.850
   55SOL     OW  178   1.795   1.066   0.873
   55SOL    HW1  179   1.733   1.051   0.797
   55SOL    HW2  180   1.743   1.077   0.958
   56SOL     OW  181   1.227   1.550   1.506
   56SOL    HW1  182   1.233   1.473   1.570
   56SOL    HW2  183   1.175   1.524   1.426
   57SOL     OW  184   0.321   0.943   0.242
   57SOL    HW1  185   0.403   0.982   0.200
   57SOL    HW2  186   0.294   0.861   0.193
   58SOL     OW  187   1.458   0.735   0.728
   58SOL    HW1  188   1.453   0.670   0.803
   58SOL    HW2  189   1.538   0.794   0.741
   59SOL     OW  190   0.461   1.266   1.727
   59SOL    HW1  191   0.411   1.267   1.641
   59SOL    HW2  192   0.398   1.248   1.803
   60SOL     OW  193   1.111   1.776   0.237
   60SOL    HW1  194   1.051   1.714   0.287
   60SOL    HW2  195   1.142   1.732   0.152
   61SOL     OW  196   0.202   0.285   1.498
   61SOL    HW1  197   0.122   0.345   1.485
   61SOL    HW2  198   0.192   0.236   1.584
   62SOL     OW  199   1.632   1.377   0.081
   62SOL    HW1  200   1.600   1.471   0.071
   62SOL    HW2  201   1.556   1.314   0.069
   63SOL     OW  202   0.464   1.743   0.323
   63SOL    HW1  203   0.497   1.782   0.409
   63SOL    HW2  204   0.540   1.736   0.258
   64SOL     OW  205   1.400   0.107   0.426
   64SOL    HW1  206   1.376   0.070   0.336
   64SOL    HW2  207   1.499   0.123   0.430
   65SOL     OW  208   0.249   1.785   1.241
   65SOL    HW1  209   0.306   1.720   1.291
   65SOL    HW2  210   0.233   1.752   1.148
   66SOL     OW  211   0.940   1.698   0.904
   66SOL    HW1  212   1.020   1.641   0.925
   66SOL    HW2  213   0.891   1.658   0.827
   67SOL     OW  214   0.382   0.700   0.480
   67SOL    HW1  215   0.427   0.610   0.477
   67SOL    HW2  216   0.288   0.689   0.513
   68SOL     OW  217   1.547   0.222   1.729
   68SOL    HW1  218   1.542   0.259   1.821
   68SOL    HW2  219   1.475   0.153   1.717
   69SOL     OW  220   0.614   0.122   0.117
   69SOL    HW1  221   0.712   0.100   0.124
   69SOL    HW2  222   0.583   0.105   0.024
   70SOL     OW  223   0.781   0.264   1.749
   70SOL    HW1  224   0.848   0.203   1.792
   70SOL    HW2  225   0.708   0.283   1.814
   71SOL     OW  226   0.888   1.514   1.195
   71SOL    HW1  227   0.865   1.489   1.101
   71SOL    HW2  228   0.949   1.445   1.234
   72SOL     OW  229   1.351   0.590   1.433
   72SOL    HW1  230   1.379   0.547   1.518
   72SOL    HW2  231   1.376   0.686   1.434
   73SOL     OW  232   0.803   1.402   0.924
   73SOL    HW1  233   0.893   1.416   0.882
   73SOL    HW2  234   0.732   1.404   0.853
   74SOL     OW  235   0.922   0.503   0.899
   74SOL    HW1  236   0.897   0.494   0.803
   74SOL    HW2  237   0.970   0.421   0.930
   75SOL     OW  238   0.539   0.064   0.512
   75SOL    HW1  239   0.458   0.065   0.570
   75SOL    HW2  240   0.542   0.147   0.457
   76SOL     OW  241   1.434   1.188   0.041
   76SOL    HW1  242   1.466   1.112   0.098
   76SOL    HW2  243   1.342   1.215   0.071
   77SOL     OW  244   0.297   0.035   0.171
   77SOL    HW1  245   0.346   0.119   0.150
   77SOL    HW2  246   0.359  -0.030   0.216
   78SOL     OW  247   0.935   0.236   0.480
   78SOL    HW1  248   0.887   0.277   0.402
   78SOL    HW2  249   1.034   0.234   0.461
   79SOL     OW  250   1.076   0.683   1.464
   79SOL    HW1  251   0.996   0.622   1.467
   79SOL    HW2  252   1.157   0.630   1.440
   80SOL     OW  253   1.227   1.570   0.793
   80SOL    HW1  254   1.248   1.644   0.728
   80SOL    HW2  255   1.295   1.570   0.866
   81SOL     OW  256   0.459   1.152   0.741
   81SOL    HW1  257   0.388   1.125   0.806
   81SOL    HW2  258   0.433   1.124   0.648
   82SOL     OW  259   1.271   1.797   0.591
   82SOL    HW1  260   1.315   1.861   0.527
   82SOL    HW2  261   1.221   1.849   0.661
   83SOL     OW  262   1.032   0.549   0.016
   83SOL    HW1  263   0.991   0.631  -0.023
   83SOL    HW2  264   1.096   0.575   0.089
   84SOL     OW  265   0.078   0.556   1.386
   84SOL    HW1  266   0.170   0.555   1.345
   84SOL    HW2  267   0.072   0.630   1.453
   85SOL     OW  268   0.561   0.222   1.147
   85SOL    HW1  269   0.599   0.138   1.184
   85SOL    HW2  270   0.473   0.241   1.191
   86SOL     OW  271   0.866   0.454   0.642
   86SOL    HW1  272   0.834   0.526   0.580
   86SOL    HW2  273   0.890   0.373   0.589
   87SOL     OW  274   1.017   0.039   0.753
   87SOL    HW1  275   0.945   0.044   0.684
   87SOL    HW2  276   0.993  -0.030   0.822
   88SOL     OW  277   1.429   1.173   0.867
   88SOL    HW1  278   1.374   1.089   0.860
   88SOL    HW2  279   1.455   1.202   0.775
   89SOL     OW  280   1.466   0.590   0.992
   89SOL    HW1  281   1.436   0.495   0.999
   89SOL    HW2  282   1.539   0.606   1.058
   90SOL     OW  283   1.857   0.833   0.377
   90SOL    HW1  284   1.899   0.769   0.441
   90SOL    HW2  285   1.819   0.782   0.299
   91SOL     OW  286   0.488   1.385   0.174
   91SOL    HW1  287   0.401   1.370   0.221
   91SOL    HW2  288   0.471   1.411   0.079
   92SOL     OW  289   1.664   1.280   0.657
   92SOL    HW1  290   1.763   1.288   0.671
   92SOL    HW2  291   1.619   1.364   0.688
   93SOL     OW  292   1.390   0.575   0.078
   93SOL    HW1  293   1.336   0.554   0.159
   93SOL    HW2  294   1.481   0.534   0.087
   94SOL     OW  295   0.527   0.256   0.328
   94SOL    HW1  296   0.554   0.197   0.253
   94SOL    HW2  297   0.527   0.351   0.297
   95SOL     OW  298   1.754   1.223   1.588
   95SOL    HW1  299   1.845   1.184   1.575
   95SOL    HW2  300   1.762   1.319   1.612
   96SOL     OW  301   1.064   1.347   1.340
   96SOL    HW1  302   0.984   1.324   1.395
   96SOL    HW2  303   1.147   1.321   1.389
   97SOL     OW  304   1.592   1.629   1.625
   97SOL    HW1  305   1.619   1.663   1.535
   97SOL    HW2  306   1.671   1.591   1.671
   98SOL     OW  307   1.111   1.195   1.100
   98SOL    HW1  308   1.071   1.239   1.181
   98SOL    HW2  309   1.070   1.232   1.017
   99SOL     OW  310   1.638   1.099   1.079
   99SOL    HW1  311   1.643   1.180   1.138
   99SOL    HW2  312   1.552   1.101   1.028
  100SOL     OW  313   0.915   0.089   1.402
  100SOL    HW1  314   0.940   0.069   1.307
  100SOL    HW2  315   0.987   0.145   1.444
  101SOL     OW  316   0.980   1.116   1.719
  101SOL    HW1  317   0.881   1.122   1.729
  101SOL    HW2  318   1.003   1.036   1.663
  102SOL     OW  319   0.705   1.050   0.368
  102SOL    HW1  320   0.691   1.057   0.467
  102SOL    HW2  321   0.789   0.999   0.350
  103SOL     OW  322   0.410   0.813   1.251
  103SOL    HW1  323   0.496   0.825   1.301
  103SOL    HW2  324   0.368   0.726   1.278
  104SOL     OW  325   1.274   0.386   1.262
  104SOL    HW1  326   1.295   0.460   1.326
  104SOL    HW2  327   1.185   0.403   1.219
  105SOL     OW  328   0.064   1.564   1.331
  105SOL    HW1  329   0.018   1.646   1.297
  105SOL    HW2  330   0.162   1.583   1.340
  106SOL     OW  331   0.367   1.100   0.501
  106SOL    HW1  332   0.360   1.183   0.445
  106SOL    HW2  333   0.371   1.020   0.441
  107SOL     OW  334   0.566   0.537   0.865
  107SOL    HW1  335   0.578   0.603   0.791
  107SOL    HW2  336   0.612   0.571   0.948
  108SOL     OW  337   1.252   1.348   0.388
  108SOL    HW1  338   1.302   1.425   0.428
  108SOL    HW2  339   1.157   1.350   0.420
  109SOL     OW  340   1.272   1.445   1.142
  109SOL    HW1  341   1.319   1.458   1.229
  109SOL    HW2  342   1.206   1.371   1.151
  110SOL     OW  343   1.582   0.639   0.472
  110SOL    HW1  344   1.551   0.700   0.545
  110SOL    HW2  345   1.632   0.691   0.403
  111SOL     OW  346   0.354   1.510   1.329
  111SOL    HW1  347   0.333   1.466   1.242
  111SOL    HW2  348   0.451   1.536   1.332
  112SOL     OW  349   0.402   0.751   1.598
  112SOL    HW1  350   0.470   0.806   1.551
  112SOL    HW2  351   0.442   0.663   1.625
  113SOL     OW  352   1.587   0.779   1.670
  113SOL    HW1  353   1.495   0.817   1.665
  113SOL    HW2  354   1.647   0.826   1.605
  114SOL     OW  355   1.013   0.105   1.770
  114SOL    HW1  356   1.019   0.190   1.718
  114SOL    HW2  357   1.045   0.029   1.713
  115SOL     OW  358   0.504   0.050   1.740
  115SOL    HW1  359   0.462  -0.007   1.670
  115SOL    HW2  360   0.438   0.119   1.772
  116SOL     OW  361   0.573   0.870   1.029
  116SOL    HW1  362   0.617   0.959   1.020
  116SOL    HW2  363   0.510   0.870   1.106
  117SOL     OW  364   1.360   0.862   1.045
  117SOL    HW1  365   1.285   0.862   0.979
  117SOL    HW2  366   1.397   0.770   1.054
  118SOL     OW  367   1.209   0.525   0.275
  118SOL    HW1  368   1.222   0.441   0.329
  118SOL    HW2  369   1.180   0.599   0.335
  119SOL     OW  370   0.307   0.213   1.231
  119SOL    HW1  371   0.284   0.250   1.321
  119SOL    HW2  372   0.277   0.118   1.225
  120SOL     OW  373   0.037   1.310   1.282
  120SOL    HW1  374   0.090   1.261   1.350
  120SOL    HW2  375   0.059   1.408   1.287
  121SOL     OW  376   0.732   0.634   1.064
  121SOL    HW1  377   0.791   0.608   0.988
  121SOL    HW2  378   0.704   0.730   1.053
  122SOL     OW  379   1.728   0.935   1.854
  122SOL    HW1  380   1.682   0.928   1.765
  122SOL    HW2  381   1.666   0.979   1.920
  123SOL     OW  382   0.307   0.063   0.618
  123SOL    HW1  383   0.296   0.157   0.651
  123SOL    HW2  384   0.302   0.000   0.695
  124SOL     OW  385   1.622   0.367   0.374
  124SOL    HW1  386   1.624   0.291   0.438
  124SOL    HW2  387   1.574   0.444   0.414
  125SOL     OW  388   1.023   0.766   0.966
  125SOL    HW1  389   1.038   0.787   1.062
  125SOL    HW2  390   0.993   0.671   0.957
  126SOL     OW  391   0.980   1.573   1.700
  126SOL    HW1  392   0.960   1.617   1.612
  126SOL    HW2  393   1.019   1.482   1.684
  127SOL     OW  394   1.859   1.518   1.605
  127SOL    HW1  395   1.873   1.545   1.510
  127SOL    HW2  396   1.942   1.540   1.658
  128SOL     OW  397   0.350   0.898   1.804
  128SOL    HW1  398   0.426   0.942   1.852
  128SOL    HW2  399   0.385   0.851   1.722
  129SOL     OW  400   1.540   0.274   0.125
  129SOL    HW1  401   1.479   0.199   0.148
  129SOL    HW2  402   1.562   0.326   0.208
  130SOL     OW  403   1.303   0.838   0.042
  130SOL    HW1  404   1.337   0.745   0.057
  130SOL    HW2  405   1.321   0.865  -0.053
  131SOL     OW  406   1.068   1.333   0.849
  131SOL    HW1  407   1.075   1.249   0.794
  131SOL    HW2  408   1.130   1.402   0.813
  132SOL     OW  409   0.319   0.810   0.949
  132SOL    HW1  410   0.412   0.846   0.954
  132SOL    HW2  411   0.313   0.725   1.001
  133SOL     OW  412   0.339   0.509   1.006
  133SOL    HW1  413   0.287   0.426   0.989
  133SOL    HW2  414   0.416   0.514   0.942
  134SOL     OW  415   1.138   0.380   1.678
  134SOL    HW1  416   1.093   0.443   1.742
  134SOL    HW2  417   1.231   0.411   1.661
  135SOL     OW  418   1.160   0.207   1.477
  135SOL    HW1  419   1.160   0.271   1.554
  135SOL    HW2  420   1.188   0.255   1.394
  136SOL     OW  421   0.008   1.326   0.200
  136SOL    HW1  422  -0.085   1.347   0.169
  136SOL    HW2  423   0.018   1.227   0.213
  137SOL     OW  424   0.088   1.801   0.927
  137SOL    HW1  425   0.046   1.715   0.900
  137SOL    HW2  426   0.182   1.804   0.893
  138SOL     OW  427   0.504   1.568   0.910
  138SOL    HW1  428   0.570   1.642   0.919
  138SOL    HW2  429   0.548   1.489   0.868
  139SOL     OW  430   1.002   0.796   1.238
  139SOL    HW1  431   1.043   0.764   1.324
  139SOL    HW2  432   0.906   0.769   1.235
  140SOL     OW  433   0.040   0.544   1.114
  140SOL    HW1  434   0.125   0.511   1.073
  140SOL    HW2  435   0.053   0.559   1.212
  141SOL     OW  436   0.189   0.520   1.722
  141SOL    HW1  437   0.248   0.480   1.652
  141SOL    HW2  438   0.131   0.591   1.681
  142SOL     OW  439   1.369   0.950   1.660
  142SOL    HW1  440   1.408   1.039   1.680
  142SOL    HW2  441   1.379   0.930   1.563
  143SOL     OW  442   0.815   0.572   0.325
  143SOL    HW1  443   0.822   0.483   0.279
  143SOL    HW2  444   0.721   0.606   0.317
  144SOL     OW  445   1.657   0.604   1.206
  144SOL    HW1  446   1.619   0.535   1.268
  144SOL    HW2  447   1.739   0.568   1.162
  145SOL     OW  448   0.252   1.564   1.744
  145SOL    HW1  449   0.222   1.621   1.820
  145SOL    HW2  450   0.245   1.467   1.770
  146SOL     OW  451   0.671   0.464   1.269
  146SOL    HW1  452   0.637   0.375   1.239
  146SOL    HW2  453   0.697   0.518   1.189
  147SOL     OW  454   0.930   1.678   1.465
  147SOL    HW1  455   0.906   1.660   1.370
  147SOL    HW2  456   0.960   1.772   1.475
  148SOL     OW  457   0.473   0.500   0.191
  148SOL    HW1  458   0.534   0.580   0.195
  148SOL    HW2  459   0.378   0.531   0.198
  149SOL     OW  460   0.159   1.137   1.466
  149SOL    HW1  461   0.181   1.076   1.542
  149SOL    HW2  462   0.169   1.088   1.380
  150SOL     OW  463   1.347   1.059   1.234
  150SOL    HW1  464   1.371   0.996   1.160
  150SOL    HW2  465   1.257   1.099   1.216
  151SOL     OW  466   1.302   0.855   0.309
  151SOL    HW1  467   1.216   0.824   0.351
  151SOL    HW2  468   1.298   0.841   0.210
  152SOL     OW  469   1.759   1.747   1.154
  152SOL    HW1  470   1.820   1.777   1.081
  152SOL    HW2  471   1.721   1.658   1.132
  153SOL     OW  472   1.252   1.731   1.128
  153SOL    HW1  473   1.336   1.736   1.074
  153SOL    HW2  474   1.229   1.635   1.146
  154SOL     OW  475   0.083   1.258   1.022
  154SOL    HW1  476   0.078   1.257   1.122
  154SOL    HW2  477   0.000   1.217   0.984
  155SOL     OW  478   0.688   1.662   1.716
  155SOL    HW1  479   0.632   1.743   1.725
  155SOL    HW2  480   0.740   1.666   1.630
  156SOL     OW  481   0.903   0.086   0.133
  156SOL    HW1  482   0.954   0.087   0.047
  156SOL    HW2  483   0.959   0.044   0.204
  157SOL     OW  484   1.726   0.135   0.523
  157SOL    HW1  485   1.799   0.118   0.456
  157SOL    HW2  486   1.695   0.048   0.561
  158SOL     OW  487   1.388   1.573   0.477
  158SOL    HW1  488   1.455   1.585   0.403
  158SOL    HW2  489   1.348   1.662   0.500
  159SOL     OW  490   0.130   1.794   1.851
  159SOL    HW1  491   0.089   1.720   1.904
  159SOL    HW2  492   0.194   1.845   1.909
  160SOL     OW  493   1.280   0.927   0.672
  160SOL    HW1  494   1.340   0.846   0.674
  160SOL    HW2  495   1.320   0.996   0.612
  161SOL     OW  496   0.830   1.273   1.422
  161SOL    HW1  497   0.825   1.306   1.517
  161SOL    HW2  498   0.744   1.292   1.376
  162SOL     OW  499   0.672   1.616   0.154
  162SOL    HW1  500   0.681   1.626   0.055
  162SOL    HW2  501   0.632   1.527   0.175
  163SOL     OW  502   1.650   1.720   1.394
  163SOL    HW1  503   1.703   1.730   1.310
  163SOL    HW2  504   1.623   1.810   1.428
  164SOL     OW  505   1.841   0.175   0.963
  164SOL    HW1  506   1.880   0.090   0.927
  164SOL    HW2  507   1.743   0.177   0.944
  165SOL     OW  508   0.263   0.326   0.720
  165SOL    HW1  509   0.184   0.377   0.686
  165SOL    HW2  510   0.254   0.311   0.818
  166SOL     OW  511   1.194   1.612   0.031
  166SOL    HW1  512   1.200   1.519   0.068
  166SOL    HW2  513   1.135   1.612  -0.049
  167SOL     OW  514   0.822   1.002   1.372
  167SOL    HW1  515   0.862   1.001   1.280
  167SOL    HW2  516   0.832   1.094   1.412
  168SOL     OW  517   0.916   0.910   0.291
  168SOL    HW1  518   0.979   0.948   0.223
  168SOL    HW2  519   0.956   0.827   0.330
  169SOL     OW  520   1.504   1.607   0.044
  169SOL    HW1  521   1.412   1.644   0.051
  169SOL    HW2  522   1.542   1.627  -0.046
  170SOL     OW  523   0.372   1.288   1.490
  170SOL    HW1  524   0.359   1.381   1.456
  170SOL    HW2  525   0.288   1.236   1.477
  171SOL     OW  526   1.614   1.292   1.289
  171SOL    HW1  527   1.674   1.295   1.369
  171SOL    HW2  528   1.539   1.356   1.302
  172SOL     OW  529   1.039   1.098   0.696
  172SOL    HW1  530   0.969   1.051   0.750
  172SOL    HW2  531   1.098   1.030   0.653
  173SOL     OW  532   1.014   0.236   0.971
  173SOL    HW1  533   1.006   0.200   0.878
  173SOL    HW2  534   1.012   0.160   1.036
  174SOL     OW  535   0.590   1.487   0.491
  174SOL    HW1  536   0.632   1.429   0.421
  174SOL    HW2  537   0.546   1.566   0.447
  175SOL     OW  538   1.709   0.385   1.381
  175SOL    HW1  539   1.782   0.454   1.385
  175SOL    HW2  540   1.737   0.310   1.322
  176SOL     OW  541   0.255   1.348   0.290
  176SOL    HW1  542   0.159   1.349   0.263
  176SOL    HW2  543   0.267   1.401   0.374
  177SOL     OW  544   0.105   1.013   1.726
  177SOL    HW1  545   0.028   0.980   1.780
  177SOL    HW2  546   0.190   0.983   1.768
  178SOL     OW  547   0.672   0.203   1.489
  178SOL    HW1  548   0.762   0.187   1.449
  178SOL    HW2  549   0.680   0.208   1.588
  179SOL     OW  550   0.075   0.345   0.033
  179SOL    HW1  551  -0.017   0.317   0.004
  179SOL    HW2  552   0.106   0.422  -0.023
  180SOL     OW  553   1.440   0.856   1.398
  180SOL    HW1  554   1.383   0.908   1.335
  180SOL    HW2  555   1.536   0.868   1.374
  181SOL     OW  556   0.072   0.166   0.318
  181SOL    HW1  557   0.055   0.249   0.264
  181SOL    HW2  558   0.162   0.129   0.296
  182SOL     OW  559   1.183   1.335   0.119
  182SOL    HW1  560   1.084   1.324   0.121
  182SOL    HW2  561   1.217   1.350   0.212
  183SOL     OW  562   0.613   0.842   1.431
  183SOL    HW1  563   0.669   0.923   1.414
  183SOL    HW2  564   0.672   0.762   1.434
  184SOL     OW  565   1.493   1.767   0.959
  184SOL    HW1  566   1.526   1.831   0.890
  184SOL    HW2  567   1.559   1.761   1.034
  185SOL     OW  568   0.716   0.565   1.708
  185SOL    HW1  569   0.735   0.630   1.782
  185SOL    HW2  570   0.776   0.485   1.717
  186SOL     OW  571   1.450   1.220   1.633
  186SOL    HW1  572   1.441   1.210   1.732
  186SOL    HW2  573   1.546   1.213   1.607
  187SOL     OW  574   0.390   1.741   1.560
  187SOL    HW1  575   0.299   1.782   1.558
  187SOL    HW2  576   0.383   1.647   1.592
  188SOL     OW  577   1.674   0.883   1.254
  188SOL    HW1  578   1.647   0.794   1.217
  188SOL    HW2  579   1.675   0.951   1.181
  189SOL     OW  580   1.225   0.325   0.449
  189SOL    HW1  581   1.290   0.251   0.438
  189SOL    HW2  582   1.245   0.375   0.533
  190SOL     OW  583   0.594   0.745   0.652
  190SOL    HW1  584   0.644   0.830   0.633
  190SOL    HW2  585   0.506   0.747   0.604
  191SOL     OW  586   1.777   0.342   1.642
  191SOL    HW1  587   1.760   0.373   1.548
  191SOL    HW2  588   1.693   0.305   1.680
  192SOL     OW  589   1.730   0.934   1.517
  192SOL    HW1  590   1.768   1.025   1.532
  192SOL    HW2  591   1.722   0.917   1.418
  193SOL     OW  592   0.859   1.374   0.016
  193SOL    HW1  593   0.813   1.389   0.104
  193SOL    HW2  594   0.903   1.459  -0.014
  194SOL     OW  595   0.661   1.790   0.953
  194SOL    HW1  596   0.615   1.878   0.940
  194SOL    HW2  597   0.760   1.802   0.946
  195SOL     OW  598   0.859   0.956   0.861
  195SOL    HW1  599   0.913   0.887   0.909
  195SOL    HW2  600   0.827   1.025   0.927
  196SOL     OW  601   1.083   0.984   0.087
  196SOL    HW1  602   1.060   1.037   0.005
  196SOL    HW2  603   1.164   0.928   0.068
  197SOL     OW  604   1.861   1.569   0.851
  197SOL    HW1  605   1.790   1.557   0.781
  197SOL    HW2  606   1.862   1.490   0.911
  198SOL     OW  607   0.221   1.314   1.844
  198SOL    HW1  608   0.156   1.241   1.823
  198SOL    HW2  609   0.225   1.328   1.942
  199SOL     OW  610   0.079   1.240   0.653
  199SOL    HW1  611   0.078   1.193   0.741
  199SOL    HW2  612   0.161   1.212   0.602
  200SOL     OW  613   0.672   1.391   1.624
  200SOL    HW1  614   0.594   1.341   1.662
  200SOL    HW2  615   0.669   1.486   1.655
  201SOL     OW  616   1.824   0.192   1.227
  201SOL    HW1  617   1.820   0.102   1.271
  201SOL    HW2  618   1.827   0.181   1.128
  202SOL     OW  619   0.428   0.424   0.520
  202SOL    HW1  620   0.458   0.352   0.458
  202SOL    HW2  621   0.389   0.384   0.603
  203SOL     OW  622   1.705   1.487   1.104
  203SOL    HW1  623   1.612   1.462   1.077
  203SOL    HW2  624   1.731   1.437   1.186
  204SOL     OW  625   0.317   0.547   1.280
  204SOL    HW1  626   0.355   0.488   1.352
  204SOL    HW2  627   0.357   0.521   1.192
  205SOL     OW  628   0.812   1.586   0.687
  205SOL    HW1  629   0.844   1.596   0.593
  205SOL    HW2  630   0.733   1.524   0.689
  206SOL     OW  631   1.424   0.214   1.112
  206SOL    HW1  632   1.476   0.149   1.167
  206SOL    HW2  633   1.375   0.277   1.173
  207SOL     OW  634   1.001   0.034   1.154
  207SOL    HW1  635   0.938  -0.038   1.123
  207SOL    HW2  636   1.094  -0.002   1.154
  208SOL     OW  637   0.770   1.330   0.301
  208SOL    HW1  638   0.724   1.243   0.318
  208SOL    HW2  639   0.861   1.327   0.342
  209SOL     OW  640   0.618   1.567   1.284
  209SOL    HW1  641   0.613   1.649   1.341
  209SOL    HW2  642   0.707   1.564   1.239
  210SOL     OW  643   1.352   0.052   0.168
  210SOL    HW1  644   1.387   0.011   0.084
  210SOL    HW2  645   1.262   0.014   0.188
  211SOL     OW  646   1.300   0.453   0.691
  211SOL    HW1  647   1.241   0.533   0.695
  211SOL    HW2  648   1.315   0.418   0.784
  212SOL     OW  649   1.593   0.221   0.882
  212SOL    HW1  650   1.509   0.220   0.936
  212SOL    HW2  651   1.595   0.304   0.826
  213SOL     OW  652   0.039   1.077   0.300
  213SOL    HW1  653   0.138   1.066   0.291
  213SOL    HW2  654  -0.001   0.991   0.332
  214SOL     OW  655   0.875   1.646   0.337
  214SOL    HW1  656   0.798   1.611   0.283
  214SOL    HW2  657   0.843   1.717   0.399
  215SOL     OW  658   0.230   0.628   1.975
  215SOL    HW1  659   0.137   0.626   2.012
  215SOL    HW2  660   0.231   0.589   1.883
  216SOL     OW  661   0.225   0.275   2.858
  216SOL    HW1  662   0.260   0.258   2.950
  216SOL    HW2  663   0.137   0.230   2.846
  217SOL     OW  664   0.019   0.368   2.509
  217SOL    HW1  665  -0.063   0.411   2.548
  217SOL    HW2  666  -0.009   0.295   2.446
  218SOL     OW  667   0.569   1.275   3.027
  218SOL    HW1  668   0.476   1.268   2.990
  218SOL    HW2  669   0.580   1.364   3.071
  219SOL     OW  670   1.555   1.511   2.565
  219SOL    HW1  671   1.498   1.495   2.646
  219SOL    HW2  672   1.496   1.521   2.485
  220SOL     OW  673   1.135   0.703   2.579
  220SOL    HW1  674   1.192   0.781   2.554
  220SOL    HW2  675   1.075   0.729   2.655
  221SOL     OW  676   1.755   0.607   2.093
  221SOL    HW1  677   1.743   0.594   1.994
  221SOL    HW2  678   1.725   0.526   2.142
  222SOL     OW  679   0.768   1.144   2.885
  222SOL    HW1  680   0.690   1.161   2.945
  222SOL    HW2  681   0.802   1.231   2.849
  223SOL     OW  682   0.850   0.798   3.685
  223SOL    HW1  683   0.846   0.874   3.750
  223SOL    HW2  684   0.872   0.834   3.594
  224SOL     OW  685   0.685   1.012   2.527
  224SOL    HW1  686   0.754   0.996   2.597
  224SOL    HW2  687   0.612   1.069   2.565
  225SOL     OW  688   0.686   1.161   3.665
  225SOL    HW1  689   0.746   1.240   3.679
  225SOL    HW2  690   0.600   1.192   3.624
  226SOL     OW  691   0.335   1.435   2.923
  226SOL    HW1  692   0.257   1.404   2.870
  226SOL    HW2  693   0.393   1.493   2.866
  227SOL     OW  694   1.460   1.505   3.201
  227SOL    HW1  695   1.484   1.599   3.227
  227SOL    HW2  696   1.444   1.451   3.283
  228SOL     OW  697   0.438   0.392   3.361
  228SOL    HW1  698   0.520   0.336   3.370
  228SOL    HW2  699   0.357   0.334   3.365
  229SOL     OW  700   1.603   0.447   2.599
  229SOL    HW1  701   1.529   0.493   2.549
  229SOL    HW2  702   1.654   0.515   2.652
  230SOL     OW  703   0.231   1.713   2.345
  230SOL    HW1  704   0.265   1.790   2.399
  230SOL    HW2  705   0.275   1.713   2.255
  231SOL     OW  706   1.127   1.341   3.552
  231SOL    HW1  707   1.174   1.341   3.640
  231SOL    HW2  708   1.079   1.254   3.541
  232SOL     OW  709   0.230   1.434   2.400
  232SOL    HW1  710   0.204   1.530   2.400
  232SOL    HW2  711   0.159   1.380   2.445
  233SOL     OW  712   0.240   1.091   2.748
  233SOL    HW1  713   0.254   1.007   2.800
  233SOL    HW2  714   0.185   1.155   2.803
  234SOL     OW  715   0.620   1.786   3.301
  234SOL    HW1  716   0.528   1.769   3.336
  234SOL    HW2  717   0.648   1.878   3.327
  235SOL     OW  718   0.606   0.964   1.985
  235SOL    HW1  719   0.613   1.048   1.931
  235SOL    HW2  720   0.652   0.977   2.073
  236SOL     OW  721   1.594   0.114   3.342
  236SOL    HW1  722   1.576   0.181   3.270
  236SOL    HW2  723   1.591   0.160   3.431
  237SOL     OW  724   0.122   0.643   2.425
  237SOL    HW1  725   0.077   0.555   2.442
  237SOL    HW2  726   0.121   0.697   2.509
  238SOL     OW  727   1.842   1.767   2.221
  238SOL    HW1  728   1.896   1.738   2.301
  238SOL    HW2  729   1.872   1.857   2.192
  239SOL     OW  730   0.027   1.596   1.979
  239SOL    HW1  731   0.008   1.500   2.000
  239SOL    HW2  732  -0.006   1.654   2.054
  240SOL     OW  733   1.689   0.922   2.474
  240SOL    HW1  734   1.784   0.893   2.482
  240SOL    HW2  735   1.681   0.987   2.399
  241SOL     OW  736   1.641   1.108   2.294
  241SOL    HW1  737   1.727   1.110   2.242
  241SOL    HW2  738   1.655   1.155   2.382
  242SOL     OW  739   0.113   0.737   3.459
  242SOL    HW1  740   0.201   0.724   3.504
  242SOL    HW2  741   0.100   0.834   3.437
  243SOL     OW  742   0.613   1.365   2.588
  243SOL    HW1  743   0.564   1.278   2.597
  243SOL    HW2  744   0.590   1.408   2.501
  244SOL     OW  745   1.293   1.228   3.285
  244SOL    HW1  746   1.330   1.155   3.227
  244SOL    HW2  747   1.345   1.233   3.370
  245SOL     OW  748   0.809   0.004   2.364
  245SOL    HW1  749   0.849   0.095   2.355
  245SOL    HW2  750   0.709   0.012   2.370
  246SOL     OW  751   0.197   0.976   3.126
  246SOL    HW1  752   0.286   0.931   3.112
  246SOL    HW2  753   0.124   0.911   3.107
  247SOL     OW  754   1.525   0.999   2.052
  247SOL    HW1  755   1.462   0.923   2.065
  247SOL    HW2  756   1.573   1.017   2.138
  248SOL     OW  757   1.187   1.792   3.478
  248SOL    HW1  758   1.211   1.852   3.402
  248SOL    HW2  759   1.194   1.697   3.448
  249SOL     OW  760   0.317   0.251   3.663
  249SOL    HW1  761   0.388   0.322   3.669
  249SOL    HW2  762   0.229   0.290   3.691
  250SOL     OW  763   1.466   1.417   2.815
  250SOL    HW1  764   1.407   1.423   2.895
  250SOL    HW2  765   1.451   1.329   2.769
  251SOL     OW  766   1.667   1.714   2.434
  251SOL    HW1  767   1.626   1.691   2.346
  251SOL    HW2  768   1.649   1.640   2.499
  252SOL     OW  769   0.598   0.729   2.132
  252SOL    HW1  770   0.622   0.798   2.064
  252SOL    HW2  771   0.520   0.762   2.186
  253SOL     OW  772   1.281   0.345   2.806
  253SOL    HW1  773   1.195   0.295   2.793
  253SOL    HW2  774   1.343   0.291   2.862
  254SOL     OW  775   1.576   1.662   2.169
  254SOL    HW1  776   1.665   1.708   2.172
  254SOL    HW2  777   1.555   1.638   2.074
  255SOL     OW  778   0.807   0.605   3.327
  255SOL    HW1  779   0.760   0.602   3.416
  255SOL    HW2  780   0.756   0.550   3.261
  256SOL     OW  781   1.394   0.469   3.536
  256SOL    HW1  782   1.374   0.512   3.624
  256SOL    HW2  783   1.472   0.407   3.545
  257SOL     OW  784   0.973   0.890   3.434
  257SOL    HW1  785   1.019   0.806   3.405
  257SOL    HW2  786   0.917   0.924   3.359
  258SOL     OW  787   0.991   0.410   3.104
  258SOL    HW1  788   0.914   0.444   3.158
  258SOL    HW2  789   0.957   0.359   3.025
  259SOL     OW  790   1.041   0.701   2.291
  259SOL    HW1  791   1.067   0.697   2.387
  259SOL    HW2  792   0.956   0.650   2.277
  260SOL     OW  793   0.076   0.811   2.651
  260SOL    HW1  794   0.175   0.799   2.660
  260SOL    HW2  795   0.052   0.906   2.672
  261SOL     OW  796   0.130   1.821   3.433
  261SOL    HW1  797   0.120   1.806   3.532
  261SOL    HW2  798   0.044   1.857   3.397
  262SOL     OW  799   0.865   0.348   2.057
  262SOL    HW1  800   0.924   0.411   2.008
  262SOL    HW2  801   0.884   0.254   2.028
  263SOL     OW  802   1.719   0.585   3.693
  263SOL    HW1  803   1.693   0.674   3.657
  263SOL    HW2  804   1.717   0.517   3.620
  264SOL     OW  805   1.362   1.144   2.407
  264SOL    HW1  806   1.445   1.115   2.359
  264SOL    HW2  807   1.313   1.211   2.351
  265SOL     OW  808   0.550   0.196   2.747
  265SOL    HW1  809   0.545   0.191   2.847
  265SOL    HW2  810   0.552   0.292   2.718
  266SOL     OW  811   1.008   1.456   2.339
  266SOL    HW1  812   0.962   1.528   2.287
  266SOL    HW2  813   1.004   1.476   2.437
  267SOL     OW  814   0.351   1.801   2.715
  267SOL    HW1  815   0.401   1.715   2.721
  267SOL    HW2  816   0.416   1.878   2.712
  268SOL     OW  817   1.795   1.066   2.735
  268SOL    HW1  818   1.733   1.051   2.659
  268SOL    HW2  819   1.743   1.077   2.820
  269SOL     OW  820   1.227   1.550   3.368
  269SOL    HW1  821   1.233   1.473   3.432
  269SOL    HW2  822   1.175   1.524   3.288
  270SOL     OW  823   0.321   0.943   2.104
  270SOL    HW1  824   0.403   0.982   2.062
  270SOL    HW2  825   0.294   0.861   2.055
  271SOL     OW  826   1.458   0.735   2.590
  271SOL    HW1  827   1.453   0.670   2.665
  271SOL    HW2  828   1.538   0.794   2.603
  272SOL     OW  829   0.461   1.266   3.589
  272SOL    HW1  830   0.411   1.267   3.503
  272SOL    HW2  831   0.398   1.248   3.665
  273SOL     OW  832   1.111   1.776   2.099
  273SOL    HW1  833   1.051   1.714   2.149
  273SOL    HW2  834   1.142   1.732   2.014
  274SOL     OW  835   0.202   0.285   3.360
  274SOL    HW1  836   0.122   0.345   3.347
  274SOL    HW2  837   0.192   0.236   3.446
  275SOL     OW  838   1.632   1.377   1.943
  275SOL    HW1  839   1.600   1.471   1.933
  275SOL    HW2  840   1.556   1.314   1.931
  276SOL     OW  841   0.464   1.743   2.185
  276SOL    HW1  842   0.497   1.782   2.271
  276SOL    HW2  843   0.540   1.736   2.120
  277SOL     OW  844   1.400   0.107   2.288
  277SOL    HW1  845   1.376   0.070   2.198
  277SOL    HW2  846   1.499   0.123   2.292
  278SOL     OW  847   0.249   1.785   3.103
  278SOL    HW1  848   0.306   1.720   3.153
  278SOL    HW2  849   0.233   1.752   3.010
  279SOL     OW  850   0.940   1.698   2.766
  279SOL    HW1  851   1.020   1.641   2.787
  279SOL    HW2  852   0.891   1.658   2.689
  280SOL     OW  853   0.382   0.700   2.342
  280SOL    HW1  854   0.427   0.610   2.339
  280SOL    HW2  855   0.288   0.689   2.375
  281SOL     OW  856   1.547   0.222   3.591
  281SOL    HW1  857   1.542   0.259   3.683
  281SOL    HW2  858   1.475   0.153   3.579
  282SOL     OW  859   0.614   0.122   1.979
  282SOL    HW1  860   0.712   0.100   1.986
  282SOL    HW2  861   0.583   0.105   1.886
  283SOL     OW  862   0.781   0.264   3.611
  283SOL    HW1  863   0.848   0.203   3.654
  283SOL    HW2  864   0.708   0.283   3.676
  284SOL     OW  865   0.888   1.514   3.057
  284SOL    HW1  866   0.865   1.489   2.963
  284SOL    HW2  867   0.949   1.445   3.096
  285SOL     OW  868   1.351   0.590   3.295
  285SOL    HW1  869   1.379   0.547   3.380
  285SOL    HW2  870   1.376   0.686   3.296
  286SOL     OW  871   0.803   1.402   2.786
  286SOL    HW1  872   0.893   1.416   2.744
  286SOL    HW2  873   0.732   1.404   2.715
  287SOL     OW  874   0.922   0.503   2.761
  287SOL    HW1  875   0.897   0.494   2.665
  287SOL    HW2  876   0.970   0.421   2.792
  288SOL     OW  877   0.539   0.064   2.374
  288SOL    HW1  878   0.458   0.065   2.432
  288SOL    HW2  879   0.542   0.147   2.319
  289SOL     OW  880   1.434   1.188   1.903
  289SOL    HW1  881   1.466   1.112   1.960
  289SOL    HW2  882   1.342   1.215   1.933
  290SOL     OW  883   0.297   0.035   2.033
  290SOL    HW1  884   0.346   0.119   2.012
  290SOL    HW2  885   0.359  -0.030   2.078
  291SOL     OW  886   0.935   0.236   2.342
  291SOL    HW1  887   0.887   0.277   2.264
  291SOL    HW2  888   1.034   0.234   2.323
  292SOL     OW  889   1.076   0.683   3.326
  292SOL    HW1  890   0.996   0.622   3.329
  292SOL    HW2  891   1.157   0.630   3.302
  293SOL     OW  892   1.227   1.570   2.655
  293SOL    HW1  893   1.248   1.644   2.590
  293SOL    HW2  894   1.295   1.570   2.728
  294SOL     OW  895   0.459   1.152   2.603
  294SOL    HW1  896   0.388   1.125   2.668
  294SOL    HW2  897   0.433   1.124   2.510
  295SOL     OW  898   1.271   1.797   2.453
  295SOL    HW1  899   1.315   1.861   2.389
  295SOL    HW2  900   1.221   1.849   2.523
  296SOL     OW  901   1.032   0.549   1.878
  296SOL    HW1  902   0.991   0.631   1.839
  296SOL    HW2  903   1.096   0.575   1.951
  297SOL     OW  904   0.078   0.556   3.248
  297SOL    HW1  905   0.170   0.555   3.207
  297SOL    HW2  906   0.072   0.630   3.315
  298SOL     OW  907   0.561   0.222   3.009
  298SOL    HW1  908   0.599   0.138   3.046
  298SOL    HW2  909   0.473   0.241   3.053
  299SOL     OW  910   0.866   0.454   2.504
  299SOL    HW1  911   0.834   0.526   2.442
  299SOL    HW2  912   0.890   0.373   2.451
  300SOL     OW  913   1.017   0.039   2.615
  300SOL    HW1  914   0.945   0.044   2.546
  300SOL    HW2  915   0.993  -0.030   2.684
  301SOL     OW  916   1.429   1.173   2.729
  301SOL    HW1  917   1.374   1.089   2.722
  301SOL    HW2  918   1.455   1.202   2.637
  302SOL     OW  919   1.466   0.590   2.854
  302SOL    HW1  920   1.436   0.495   2.861
  302SOL    HW2  921   1.539   0.606   2.920
  303SOL     OW  922   1.857   0.833   2.239
  303SOL    HW1  923   1.899   0.769   2.303
  303SOL    HW2  924   1.819   0.782   2.161
  304SOL     OW  925   0.488   1.385   2.036
  304SOL    HW1  926   0.401   1.370   2.083
  304SOL    HW2  927   0.471   1.411   1.941
  305SOL     OW  928   1.664   1.280   2.519
  305SOL    HW1  929   1.763   1.288   2.533
  305SOL    HW2  930   1.619   1.364   2.550
  306SOL     OW  931   1.390   0.575   1.940
  306SOL    HW1  932   1.336   0.554   2.021
  306SOL    HW2  933   1.481   0.534   1.949
  307SOL     OW  934   0.527   0.256   2.190
  307SOL    HW1  935   0.554   0.197   2.115
  307SOL    HW2  936   0.527   0.351   2.159
  308SOL     OW  937   1.754   1.223   3.450
  308SOL    HW1  938   1.845   1.184   3.437
  308SOL    HW2  939   1.762   1.319   3.474
  309SOL     OW  940   1.064   1.347   3.202
  309SOL    HW1  941   0.984   1.324   3.257
  309SOL    HW2  942   1.147   1.321   3.251
  310SOL     OW  943   1.592   1.629   3.487
  310SOL    HW1  944   1.619   1.663   3.397
  310SOL    HW2  945   1.671   1.591   3.533
  311SOL     OW  946   1.111   1.195   2.962
  311SOL    HW1  947   1.071   1.239   3.043
  311SOL    HW2  948   1.070   1.232   2.879
  312SOL     OW  949   1.638   1.099   2.941
  312SOL    HW1  950   1.643   1.180   3.000
  312SOL    HW2  951   1.552   1.101   2.890
  313SOL     OW  952   0.915   0.089   3.264
  313SOL    HW1  953   0.940   0.069   3.169
  313SOL    HW2  954   0.987   0.145   3.306
  314SOL     OW  955   0.980   1.116   3.581
  314SOL    HW1  956   0.881   1.122   3.591
  314SOL    HW2  957   1.003   1.036   3.525
  315SOL     OW  958   0.705   1.050   2.230
  315SOL    HW1  959   0.691   1.057   2.329
  315SOL    HW2  960   0.789   0.999   2.212
  316SOL     OW  961   0.410   0.813   3.113
  316SOL    HW1  962   0.496   0.825   3.163
  316SOL    HW2  963   0.368   0.726   3.140
  317SOL     OW  964   1.274   0.386   3.124
  317SOL    HW1  965   1.295   0.460   3.188
  317SOL    HW2  966   1.185   0.403   3.081
  318SOL     OW  967   0.064   1.564   3.193
  318SOL    HW1  968   0.018   1.646   3.159
  318SOL    HW2  969   0.162   1.583   3.202
  319SOL     OW  970   0.367   1.100   2.363
  319SOL    HW1  971   0.360   1.183   2.307
  319SOL    HW2  972   0.371   1.020   2.303
  320SOL     OW  973   0.566   0.537   2.727
  320SOL    HW1  974   0.578   0.603   2.653
  320SOL    HW2  975   0.612   0.571   2.810
  321SOL     OW  976   1.252   1.348   2.250
  321SOL    HW1  977   1.302   1.425   2.290
  321SOL    HW2  978   1.157   1.350   2.282
  322SOL     OW  979   1.272   1.445   3.004
  322SOL    HW1  980   1.319   1.458   3.091
  322SOL    HW2  981   1.206   1.371   3.013
  323SOL     OW  982   1.582   0.639   2.334
  323SOL    HW1  983   1.551   0.700   2.407
  323SOL    HW2  984   1.632   0.691   2.265
  324SOL     OW  985   0.354   1.510   3.191
  324SOL    HW1  986   0.333   1.466   3.104
  324SOL    HW2  987   0.451   1.536   3.194
  325SOL     OW  988   0.402   0.751   3.460
  325SOL    HW1  989   0.470   0.806   3.413
  325SOL    HW2  990   0.442   0.663   3.487
  326SOL     OW  991   1.587   0.779   3.532
  326SOL    HW1  992   1.495   0.817   3.527
  326SOL    HW2  993   1.647   0.826   3.467
  327SOL     OW  994   1.013   0.105   3.632
  327SOL    HW1  995   1.019   0.190   3.580
  327SOL    HW2  996   1.045   0.029   3.575
  328SOL     OW  997   0.504   0.050   3.602
  328SOL    HW1  998   0.462  -0.007   3.532
  328SOL    HW2  999   0.438   0.119   3.634
  329SOL     OW 1000   0.573   0.870   2.891
  329SOL    HW1 1001   0.617   0.959   2.882
  329SOL    HW2 1002   0.510   0.870   2.968
  330SOL     OW 1003   1.360   0.862   2.907
  330SOL    HW1 1004   1.285   0.862   2.841
  330SOL    HW2 1005   1.397   0.770   2.916
  331SOL     OW 1006   1.209   0.525   2.137
  331SOL    HW1 1007   1.222   0.441   2.191
  331SOL    HW2 1008   1.180   0.599   2.197
  332SOL     OW 1009   0.307   0.213   3.093
  332SOL    HW1 1010   0.284   0.250   3.183
  332SOL    HW2 1011   0.277   0.118   3.087
  333SOL     OW 1012   0.037   1.310   3.144
  333SOL    HW1 1013   0.090   1.261   3.212
  333SOL    HW2 1014   0.059   1.408   3.149
  334SOL     OW 1015   0.732   0.634   2.926
  334SOL    HW1 1016   0.791   0.608   2.850
  334SOL    HW2 1017   0.704   0.730   2.915
  335SOL     OW 1018   1.728   0.935   3.716
  335SOL    HW1 1019   1.682   0.928   3.627
  335SOL    HW2 1020   1.666   0.979   3.782
  336SOL     OW 1021   0.307   0.063   2.480
  336SOL    HW1 1022   0.296   0.157   2.513
  336SOL    HW2 1023   0.302   0.000   2.557
  337SOL     OW 1024   1.622   0.367   2.236
  337SOL    HW1 1025   1.624   0.291   2.300
  337SOL    HW2 1026   1.574   0.444   2.276
  338SOL     OW 1027   1.023   0.766   2.828
  338SOL    HW1 1028   1.038   0.787   2.924
  338SOL    HW2 1029   0.993   0.671   2.819
  339SOL     OW 1030   0.980   1.573   3.562
  339SOL    HW1 1031   0.960   1.617   3.474
  339SOL    HW2 1032   1.019   1.482   3.546
  340SOL     OW 1033   1.859   1.518   3.467
  340SOL    HW1 1034   1.873   1.545   3.372
  340SOL    HW2 1035   1.942   1.540   3.520
  341SOL     OW 1036   0.350   0.898   3.666
  341SOL    HW1 1037   0.426   0.942   3.714
  341SOL    HW2 1038   0.385   0.851   3.584
  342SOL     OW 1039   1.540   0.274   1.987
  342SOL    HW1 1040   1.479   0.199   2.010
  342SOL    HW2 1041   1.562   0.326   2.070
  343SOL     OW 1042   1.303   0.838   1.904
  343SOL    HW1 1043   1.337   0.745   1.919
  343SOL    HW2 1044   1.321   0.865   1.809
  344SOL     OW 1045   1.068   1.333   2.711
  344SOL    HW1 1046   1.075   1.249   2.656
  344SOL    HW2 1047   1.130   1.402   2.675
  345SOL     OW 1048   0.319   0.810   2.811
  345SOL    HW1 1049   0.412   0.846   2.816
  345SOL    HW2 1050   0.313   0.725   2.863
  346SOL     OW 1051   0.339   0.509   2.868
  346SOL    HW1 1052   0.287   0.426   2.851
  346SOL    HW2 1053   0.416   0.514   2.804
  347SOL     OW 1054   1.138   0.380   3.540
  347SOL    HW1 1055   1.093   0.443   3.604
  347SOL    HW2 1056   1.231   0.411   3.523
  348SOL     OW 1057   1.160   0.207   3.339
  348SOL    HW1 1058   1.160   0.271   3.416
  348SOL    HW2 1059   1.188   0.255   3.256
  349SOL     OW 1060   0.008   1.326   2.062
  349SOL    HW1 1061  -0.085   1.347   2.031
  349SOL    HW2 1062   0.018   1.227   2.075
  350SOL     OW 1063   0.088   1.801   2.789
  350SOL    HW1 1064   0.046   1.715   2.762
  350SOL    HW2 1065   0.182   1.804   2.755
  351SOL     OW 1066   0.504   1.568   2.772
  351SOL    HW1 1067   0.570   1.642   2.781
  351SOL    HW2 1068   0.548   1.489   2.730
  352SOL     OW 1069   1.002   0.796   3.100
  352SOL    HW1 1070   1.043   0.764   3.186
  352SOL    HW2 1071   0.906   0.769   3.097
  353SOL     OW 1072   0.040   0.544   2.976
  353SOL    HW1 1073   0.125   0.511   2.935
  353SOL    HW2 1074   0.053   0.559   3.074
  354SOL     OW 1075   0.189   0.520   3.584
  354SOL    HW1 1076   0.248   0.480   3.514
  354SOL    HW2 1077   0.131   0.591   3.543
  355SOL     OW 1078   1.369   0.950   3.522
  355SOL    HW1 1079   1.408   1.039   3.542
  355SOL    HW2 1080   1.379   0.930   3.425
  356SOL     OW 1081   0.815   0.572   2.187
  356SOL    HW1 1082   0.822   0.483   2.141
  356SOL    HW2 1083   0.721   0.606   2.179
  357SOL     OW 1084   1.657   0.604   3.068
  357SOL    HW1 1085   1.619   0.535   3.130
  357SOL    HW2 1086   1.739   0.568   3.024
  358SOL     OW 1087   0.252   1.564   3.606
  358SOL    HW1 1088   0.222   1.621   3.682
  358SOL    HW2 1089   0.245   1.467   3.632
  359SOL     OW 1090   0.671   0.464   3.131
  359SOL    HW1 1091   0.637   0.375   3.101
  359SOL    HW2 1092   0.697   0.518   3.051
  360SOL     OW 1093   0.930   1.678   3.327
  360SOL    HW1 1094   0.906   1.660   3.232
  360SOL    HW2 1095   0.960   1.772   3.337
  361SOL     OW 1096   0.473   0.500   2.053
  361SOL    HW1 1097   0.534   0.580   2.057
  361SOL    HW2 1098   0.378   0.531   2.060
  362SOL     OW 1099   0.159   1.137   3.328
  362SOL    HW1 1100   0.181   1.076   3.404
  362SOL    HW2 1101   0.169   1.088   3.242
  363SOL     OW 1102   1.347   1.059   3.096
  363SOL    HW1 1103   1.371   0.996   3.022
  363SOL    HW2 1104   1.257   1.099   3.078
  364SOL     OW 1105   1.302   0.855   2.171
  364SOL    HW1 1106   1.216   0.824   2.213
  364SOL    HW2 1107   1.298   0.841   2.072
  365SOL     OW 1108   1.759   1.747   3.016
  365SOL    HW1 1109   1.820   1.777   2.943
  365SOL    HW2 1110   1.721   1.658   2.994
  366SOL     OW 1111   1.252   1.731   2.990
  366SOL    HW1 1112   1.336   1.736   2.936
  366SOL    HW2 1113   1.229   1.635   3.008
  367SOL     OW 1114   0.083   1.258   2.884
  367SOL    HW1 1115   0.078   1.257   2.984
  367SOL    HW2 1116   0.000   1.217   2.846
  368SOL     OW 1117   0.688   1.662   3.578
  368SOL    HW1 1118   0.632   1.743   3.587
  368SOL    HW2 1119   0.740   1.666   3.492
  369SOL     OW 1120   1.726   0.135   2.385
  369SOL    HW1 1121   1.799   0.118   2.318
  369SOL    HW2 1122   1.695   0.048   2.423
  370SOL     OW 1123   1.388   1.573   2.339
  370SOL    HW1 1124   1.455   1.585   2.265
  370SOL    HW2 1125   1.348   1.662   2.362
  371SOL     OW 1126   0.130   1.794   3.713
  371SOL    HW1 1127   0.089   1.720   3.766
  371SOL    HW2 1128   0.194   1.845   3.771
  372SOL     OW 1129   1.280   0.927   2.534
  372SOL    HW1 1130   1.340   0.846   2.536
  372SOL    HW2 1131   1.320   0.996   2.474
  373SOL     OW 1132   0.830   1.273   3.284
  373SOL    HW1 1133   0.825   1.306   3.379
  373SOL    HW2 1134   0.744   1.292   3.238
  374SOL     OW 1135   0.672   1.616   2.016
  374SOL    HW1 1136   0.681   1.626   1.917
  374SOL    HW2 1137   0.632   1.527   2.037
  375SOL     OW 1138   1.650   1.720   3.256
  375SOL    HW1 1139   1.703   1.730   3.172
  375SOL    HW2 1140   1.623   1.810   3.290
  376SOL     OW 1141   1.841   0.175   2.825
  376SOL    HW1 1142   1.880   0.090   2.789
  376SOL    HW2 1143   1.743   0.177   2.806
  377SOL     OW 1144   0.263   0.326   2.582
  377SOL    HW1 1145   0.184   0.377   2.548
  377SOL    HW2 1146   0.254   0.311   2.680
  378SOL     OW 1147   1.194   1.612   1.893
  378SOL    HW1 1148   1.200   1.519   1.930
  378SOL    HW2 1149   1.135   1.612   1.813
  379SOL     OW 1150   0.822   1.002   3.234
  379SOL    HW1 1151   0.862   1.001   3.142
  379SOL    HW2 1152   0.832   1.094   3.274
  380SOL     OW 1153   0.916   0.910   2.153
  380SOL    HW1 1154   0.979   0.948   2.085
  380SOL    HW2 1155   0.956   0.827   2.192
  381SOL     OW 1156   1.504   1.607   1.906
  381SOL    HW1 1157   1.412   1.644   1.913
  381SOL    HW2 1158   1.542   1.627   1.816
  382SOL     OW 1159   0.372   1.288   3.352
  382SOL    HW1 1160   0.359   1.381   3.318
  382SOL    HW2 1161   0.288   1.236   3.339
  383SOL     OW 1162   1.614   1.292   3.151
  383SOL    HW1 1163   1.674   1.295   3.231
  383SOL    HW2 1164   1.539   1.356   3.164
  384SOL     OW 1165   1.039   1.098   2.558
  384SOL    HW1 1166   0.969   1.051   2.612
  384SOL    HW2 1167   1.098   1.030   2.515
  385SOL     OW 1168   1.014   0.236   2.833
  385SOL    HW1 1169   1.006   0.200   2.740
  385SOL    HW2 1170   1.012   0.160   2.898
  386SOL     OW 1171   0.590   1.487   2.353
  386SOL    HW1 1172   0.632   1.429   2.283
  386SOL    HW2 1173   0.546   1.566   2.309
  387SOL     OW 1174   1.709   0.385   3.243
  387SOL    HW1 1175   1.782   0.454   3.247
  387SOL    HW2 1176   1.737   0.310   3.184
  388SOL     OW 1177   0.255   1.348   2.152
  388SOL    HW1 1178   0.159   1.349   2.125
  388SOL    HW2 1179   0.267   1.401   2.236
  389SOL     OW 1180   0.105   1.013   3.588
  389SOL    HW1 1181   0.028   0.980   3.642
  389SOL    HW2 1182   0.190   0.983   3.630
  390SOL     OW 1183   0.672   0.203   3.351
  390SOL    HW1 1184   0.762   0.187   3.311
  390SOL    HW2 1185   0.680   0.208   3.450
  391SOL     OW 1186   0.075   0.345   1.895
  391SOL    HW1 1187  -0.017   0.317   1.866
  391SOL    HW2 1188   0.106   0.422   1.839
  392SOL     OW 1189   1.440   0.856   3.260
  392SOL    HW1 1190   1.383   0.908   3.197
  392SOL    HW2 1191   1.536   0.868   3.236
  393SOL     OW 1192   0.072   0.166   2.180
  393SOL    HW1 1193   0.055   0.249   2.126
  393SOL    HW2 1194   0.162   0.129   2.158
  394SOL     OW 1195   1.183   1.335   1.981
  394SOL    HW1 1196   1.084   1.324   1.983
  394SOL    HW2 1197   1.217   1.350   2.074
  395SOL     OW 1198   0.613   0.842   3.293
  395SOL    HW1 1199   0.669   0.923   3.276
  395SOL    HW2 1200   0.672   0.762   3.296
  396SOL     OW 1201   1.493   1.767   2.821
  396SOL    HW1 1202   1.526   1.831   2.752
  396SOL    HW2 1203   1.559   1.761   2.896
  397SOL     OW 1204   0.716   0.565   3.570
  397SOL    HW1 1205   0.735   0.630   3.644
  397SOL    HW2 1206   0.776   0.485   3.579
  398SOL     OW 1207   1.450   1.220   3.495
  398SOL    HW1 1208   1.441   1.210   3.594
  398SOL    HW2 1209   1.546   1.213   3.469
  399SOL     OW 1210   0.390   1.741   3.422
  399SOL    HW1 1211   0.299   1.782   3.420
  399SOL    HW2 1212   0.383   1.647   3.454
  400SOL     OW 1213   1.674   0.883   3.116
  400SOL    HW1 1214   1.647   0.794   3.079
  400SOL    HW2 1215   1.675   0.951   3.043
  401SOL     OW 1216   1.225   0.325   2.311
  401SOL    HW1 1217   1.290   0.251   2.300
  401SOL    HW2 1218   1.245   0.375   2.395
  402SOL     OW 1219   0.594   0.745   2.514
  402SOL    HW1 1220   0.644   0.830   2.495
  402SOL    HW2 1221   0.506   0.747   2.466
  403SOL     OW 1222   1.777   0.342   3.504
  403SOL    HW1 1223   1.760   0.373   3.410
  403SOL    HW2 1224   1.693   0.305   3.542
  404SOL     OW 1225   1.730   0.934   3.379
  404SOL    HW1 1226   1.768   1.025   3.394
  404SOL    HW2 1227   1.722   0.917   3.280
  405SOL     OW 1228   0.859   1.374   1.878
  405SOL    HW1 1229   0.813   1.389   1.966
  405SOL    HW2 1230   0.903   1.459   1.848
  406SOL     OW 1231   0.661   1.790   2.815
  406SOL    HW1 1232   0.615   1.878   2.802
  406SOL    HW2 1233   0.760   1.802   2.808
  407SOL     OW 1234   0.859   0.956   2.723
  407SOL    HW1 1235   0.913   0.887   2.771
  407SOL    HW2 1236   0.827   1.025   2.789
  408SOL     OW 1237   1.083   0.984   1.949
  408SOL    HW1 1238   1.060   1.037   1.867
  408SOL    HW2 1239   1.164   0.928   1.930
  409SOL     OW 1240   1.861   1.569   2.713
  409SOL    HW1 1241   1.790   1.557   2.643
  409SOL    HW2 1242   1.862   1.490   2.773
  410SOL     OW 1243   0.221   1.314   3.706
  410SOL    HW1 1244   0.156   1.241   3.685
  410SOL    HW2 1245   0.225   1.328   3.804
  411SOL     OW 1246   0.079   1.240   2.515
  411SOL    HW1 1247   0.078   1.193   2.603
  411SOL    HW2 1248   0.161   1.212   2.464
  412SOL     OW 1249   0.672   1.391   3.486
  412SOL    HW1 1250   0.594   1.341   3.524
  412SOL    HW2 1251   0.669   1.486   3.517
  413SOL     OW 1252   1.824   0.192   3.089
  413SOL    HW1 1253   1.820   0.102   3.133
  413SOL    HW2 1254   1.827   0.181   2.990
  414SOL     OW 1255   0.428   0.424   2.382
  414SOL    HW1 1256   0.458   0.352   2.320
  414SOL    HW2 1257   0.389   0.384   2.465
  415SOL     OW 1258   1.705   1.487   2.966
  415SOL    HW1 1259   1.612   1.462   2.939
  415SOL    HW2 1260   1.731   1.437   3.048
  416SOL     OW 1261   0.317   0.547   3.142
  416SOL    HW1 1262   0.355   0.488   3.214
  416SOL    HW2 1263   0.357   0.521   3.054
  417SOL     OW 1264   0.812   1.586   2.549
  417SOL    HW1 1265   0.844   1.596   2.455
  417SOL    HW2 1266   0.733   1.524   2.551
  418SOL     OW 1267   1.424   0.214   2.974
  418SOL    HW1 1268   1.476   0.149   3.029
  418SOL    HW2 1269   1.375   0.277   3.035
  419SOL     OW 1270   1.001   0.034   3.016
  419SOL    HW1 1271   0.938  -0.038   2.985
  419SOL    HW2 1272   1.094  -0.002   3.016
  420SOL     OW 1273   0.770   1.330   2.163
  420SOL    HW1 1274   0.724   1.243   2.180
  420SOL    HW2 1275   0.861   1.327   2.204
  421SOL     OW 1276   0.618   1.567   3.146
  421SOL    HW1 1277   0.613   1.649   3.203
  421SOL    HW2 1278   0.707   1.564   3.101
  422SOL     OW 1279   1.352   0.052   2.030
  422SOL    HW1 1280   1.387   0.011   1.946
  422SOL    HW2 1281   1.262   0.014   2.050
  423SOL     OW 1282   1.300   0.453   2.553
  423SOL    HW1 1283   1.241   0.533   2.557
  423SOL    HW2 1284   1.315   0.418   2.646
  424SOL     OW 1285   1.593   0.221   2.744
  424SOL    HW1 1286   1.509   0.220   2.798
  424SOL    HW2 1287   1.595   0.304   2.688
  425SOL     OW 1288   0.039   1.077   2.162
  425SOL    HW1 1289   0.138   1.066   2.153
  425SOL    HW2 1290  -0.001   0.991   2.194
  426SOL     OW 1291   0.875   1.646   2.199
  426SOL    HW1 1292   0.798   1.611   2.145
  426SOL    HW2 1293   0.843   1.717   2.261
  427SOL     OW 1294   0.230   0.628   3.837
  427SOL    HW1 1295   0.137   0.626   3.874
  427SOL    HW2 1296   0.231   0.589   3.745
  428SOL     OW 1297   0.225   0.275   4.720
  428SOL    HW1 1298   0.260   0.258   4.812
  428SOL    HW2 1299   0.137   0.230   4.708
  429SOL     OW 1300   0.019   0.368   4.371
  429SOL    HW1 1301  -0.063   0.411   4.410
  429SOL    HW2 1302  -0.009   0.295   4.308
  430SOL     OW 1303   1.555   1.511   4.427
  430SOL    HW1 1304   1.498   1.495   4.508
  430SOL    HW2 1305   1.496   1.521   4.347
  431SOL     OW 1306   1.135   0.703   4.441
  431SOL    HW1 1307   1.192   0.781   4.416
  431SOL    HW2 1308   1.075   0.729   4.517
  432SOL     OW 1309   1.755   0.607   3.955
  432SOL    HW1 1310   1.743   0.594   3.856
  432SOL    HW2 1311   1.725   0.526   4.004
  433SOL     OW 1312   0.768   1.144   4.747
  433SOL    HW1 1313   0.690   1.161   4.807
  433SOL    HW2 1314   0.802   1.231   4.711
  434SOL     OW 1315   0.685   1.012   4.389
  434SOL    HW1 1316   0.754   0.996   4.459
  434SOL    HW2 1317   0.612   1.069   4.427
  435SOL     OW 1318   0.335   1.435   4.785
  435SOL    HW1 1319   0.257   1.404   4.732
  435SOL    HW2 1320   0.393   1.493   4.728
  436SOL     OW 1321   1.603   0.447   4.461
  436SOL    HW1 1322   1.529   0.493   4.411
  436SOL    HW2 1323   1.654   0.515   4.514
  437SOL     OW 1324   0.231   1.713   4.207
  437SOL    HW1 1325   0.265   1.790   4.261
  437SOL    HW2 1326   0.275   1.713   4.117
  438SOL     OW 1327   0.230   1.434   4.262
  438SOL    HW1 1328   0.204   1.530   4.262
  438SOL    HW2 1329   0.159   1.380   4.307
  439SOL     OW 1330   0.240   1.091   4.610
  439SOL    HW1 1331   0.254   1.007   4.662
  439SOL    HW2 1332   0.185   1.155   4.665
  440SOL     OW 1333   0.606   0.964   3.847
  440SOL    HW1 1334   0.613   1.048   3.793
  440SOL    HW2 1335   0.652   0.977   3.935
  441SOL     OW 1336   0.122   0.643   4.287
  441SOL    HW1 1337   0.077   0.555   4.304
  441SOL    HW2 1338   0.121   0.697   4.371
  442SOL     OW 1339   1.842   1.767   4.083
  442SOL    HW1 1340   1.896   1.738   4.163
  442SOL    HW2 1341   1.872   1.857   4.054
  443SOL     OW 1342   0.027   1.596   3.841
  443SOL    HW1 1343   0.008   1.500   3.862
  443SOL    HW2 1344  -0.006   1.654   3.916
  444SOL     OW 1345   1.689   0.922   4.336
  444SOL    HW1 1346   1.784   0.893   4.344
  444SOL    HW2 1347   1.681   0.987   4.261
  445SOL     OW 1348   1.641   1.108   4.156
  445SOL    HW1 1349   1.727   1.110   4.104
  445SOL    HW2 1350   1.655   1.155   4.244
  446SOL     OW 1351   0.613   1.365   4.450
  446SOL    HW1 1352   0.564   1.278   4.459
  446SOL    HW2 1353   0.590   1.408   4.363
  447SOL     OW 1354   0.809   0.004   4.226
  447SOL    HW1 1355   0.849   0.095   4.217
  447SOL    HW2 1356   0.709   0.012   4.232
  448SOL     OW 1357   1.525   0.999   3.914
  448SOL    HW1 1358   1.462   0.923   3.927
  448SOL    HW2 1359   1.573   1.017   4.000
  449SOL     OW 1360   1.466   1.417   4.677
  449SOL    HW1 1361   1.407   1.423   4.757
  449SOL    HW2 1362   1.451   1.329   4.631
  450SOL     OW 1363   1.667   1.714   4.296
  450SOL    HW1 1364   1.626   1.691   4.208
  450SOL    HW2 1365   1.649   1.640   4.361
  451SOL     OW 1366   0.598   0.729   3.994
  451SOL    HW1 1367   0.622   0.798   3.926
  451SOL    HW2 1368   0.520   0.762   4.048
  452SOL     OW 1369   1.281   0.345   4.668
  452SOL    HW1 1370   1.195   0.295   4.655
  452SOL    HW2 1371   1.343   0.291   4.724
  453SOL     OW 1372   1.576   1.662   4.031
  453SOL    HW1 1373   1.665   1.708   4.034
  453SOL    HW2 1374   1.555   1.638   3.936
  454SOL     OW 1375   1.041   0.701   4.153
  454SOL    HW1 1376   1.067   0.697   4.249
  454SOL    HW2 1377   0.956   0.650   4.139
  455SOL     OW 1378   0.076   0.811   4.513
  455SOL    HW1 1379   0.175   0.799   4.522
  455SOL    HW2 1380   0.052   0.906   4.534
  456SOL     OW 1381   0.865   0.348   3.919
  456SOL    HW1 1382   0.924   0.411   3.870
  456SOL    HW2 1383   0.884   0.254   3.890
  457SOL     OW 1384   1.362   1.144   4.269
  457SOL    HW1 1385   1.445   1.115   4.221
  457SOL    HW2 1386   1.313   1.211   4.213
  458SOL     OW 1387   0.550   0.196   4.609
  458SOL    HW1 1388   0.545   0.191   4.709
  458SOL    HW2 1389   0.552   0.292   4.580
  459SOL     OW 1390   1.008   1.456   4.201
  459SOL    HW1 1391   0.962   1.528   4.149
  459SOL    HW2 1392   1.004   1.476   4.299
  460SOL     OW 1393   0.351   1.801   4.577
  460SOL    HW1 1394   0.401   1.715   4.583
  460SOL    HW2 1395   0.416   1.878   4.574
  461SOL     OW 1396   1.795   1.066   4.597
  461SOL    HW1 1397   1.733   1.051   4.521
  461SOL    HW2 1398   1.743   1.077   4.682
  462SOL     OW 1399   0.321   0.943   3.966
  462SOL    HW1 1400   0.403   0.982   3.924
  462SOL    HW2 1401   0.294   0.861   3.917
  463SOL     OW 1402   1.458   0.735   4.452
  463SOL    HW1 1403   1.453   0.670   4.527
  463SOL    HW2 1404   1.538   0.794   4.465
  464SOL     OW 1405   1.111   1.776   3.961
  464SOL    HW1 1406   1.051   1.714   4.011
  464SOL    HW2 1407   1.142   1.732   3.876
  465SOL     OW 1408   1.632   1.377   3.805
  465SOL    HW1 1409   1.600   1.471   3.795
  465SOL    HW2 1410   1.556   1.314   3.793
  466SOL     OW 1411   0.464   1.743   4.047
  466SOL    HW1 1412   0.497   1.782   4.133
  466SOL    HW2 1413   0.540   1.736   3.982
  467SOL     OW 1414   1.400   0.107   4.150
  467SOL    HW1 1415   1.376   0.070   4.060
  467SOL    HW2 1416   1.499   0.123   4.154
  468SOL     OW 1417   0.249   1.785   4.965
  468SOL    HW1 1418   0.306   1.720   5.015
  468SOL    HW2 1419   0.233   1.752   4.872
  469SOL     OW 1420   0.940   1.698   4.628
  469SOL    HW1 1421   1.020   1.641   4.649
  469SOL    HW2 1422   0.891   1.658   4.551
  470SOL     OW 1423   0.382   0.700   4.204
  470SOL    HW1 1424   0.427   0.610   4.201
  470SOL    HW2 1425   0.288   0.689   4.237
  471SOL     OW 1426   0.614   0.122   3.841
  471SOL    HW1 1427   0.712   0.100   3.848
  471SOL    HW2 1428   0.583   0.105   3.748
  472SOL     OW 1429   0.803   1.402   4.648
  472SOL    HW1 1430   0.893   1.416   4.606
  472SOL    HW2 1431   0.732   1.404   4.577
  473SOL     OW 1432   0.922   0.503   4.623
  473SOL    HW1 1433   0.897   0.494   4.527
  473SOL    HW2 1434   0.970   0.421   4.654
  474SOL     OW 1435   0.539   0.064   4.236
  474SOL    HW1 1436   0.458   0.065   4.294
  474SOL    HW2 1437   0.542   0.147   4.181
  475SOL     OW 1438   1.434   1.188   3.765
  475SOL    HW1 1439   1.466   1.112   3.822
  475SOL    HW2 1440   1.342   1.215   3.795
  476SOL     OW 1441   0.297   0.035   3.895
  476SOL    HW1 1442   0.346   0.119   3.874
  476SOL    HW2 1443   0.359  -0.030   3.940
  477SOL     OW 1444   0.935   0.236   4.204
  477SOL    HW1 1445   0.887   0.277   4.126
  477SOL    HW2 1446   1.034   0.234   4.185
  478SOL     OW 1447   1.227   1.570   4.517
  478SOL    HW1 1448   1.248   1.644   4.452
  478SOL    HW2 1449   1.295   1.570   4.590
  479SOL     OW 1450   0.459   1.152   4.465
  479SOL    HW1 1451   0.388   1.125   4.530
  479SOL    HW2 1452   0.433   1.124   4.372
  480SOL     OW 1453   1.271   1.797   4.315
  480SOL    HW1 1454   1.315   1.861   4.251
  480SOL    HW2 1455   1.221   1.849   4.385
  481SOL     OW 1456   1.032   0.549   3.740
  481SOL    HW1 1457   0.991   0.631   3.701
  481SOL    HW2 1458   1.096   0.575   3.813
  482SOL     OW 1459   0.866   0.454   4.366
  482SOL    HW1 1460   0.834   0.526   4.304
  482SOL    HW2 1461   0.890   0.373   4.313
  483SOL     OW 1462   1.017   0.039   4.477
  483SOL    HW1 1463   0.945   0.044   4.408
  483SOL    HW2 1464   0.993  -0.030   4.546
  484SOL     OW 1465   1.429   1.173   4.591
  484SOL    HW1 1466   1.374   1.089   4.584
  484SOL    HW2 1467   1.455   1.202   4.499
  485SOL     OW 1468   1.466   0.590   4.716
  485SOL    HW1 1469   1.436   0.495   4.723
  485SOL    HW2 1470   1.539   0.606   4.782
  486SOL     OW 1471   1.857   0.833   4.101
  486SOL    HW1 1472   1.899   0.769   4.165
  486SOL    HW2 1473   1.819   0.782   4.023
  487SOL     OW 1474   0.488   1.385   3.898
  487SOL    HW1 1475   0.401   1.370   3.945
  487SOL    HW2 1476   0.471   1.411   3.803
  488SOL     OW 1477   1.664   1.280   4.381
  488SOL    HW1 1478   1.763   1.288   4.395
  488SOL    HW2 1479   1.619   1.364   4.412
  489SOL     OW 1480   1.390   0.575   3.802
  489SOL    HW1 1481   1.336   0.554   3.883
  489SOL    HW2 1482   1.481   0.534   3.811
  490SOL     OW 1483   0.527   0.256   4.052
  490SOL    HW1 1484   0.554   0.197   3.977
  490SOL    HW2 1485   0.527   0.351   4.021
  491SOL     OW 1486   1.638   1.099   4.803
  491SOL    HW1 1487   1.643   1.180   4.862
  491SOL    HW2 1488   1.552   1.101   4.752
  492SOL     OW 1489   0.705   1.050   4.092
  492SOL    HW1 1490   0.691   1.057   4.191
  492SOL    HW2 1491   0.789   0.999   4.074
  493SOL     OW 1492   0.367   1.100   4.225
  493SOL    HW1 1493   0.360   1.183   4.169
  493SOL    HW2 1494   0.371   1.020   4.165
  494SOL     OW 1495   0.566   0.537   4.589
  494SOL    HW1 1496   0.578   0.603   4.515
  494SOL    HW2 1497   0.612   0.571   4.672
  495SOL     OW 1498   1.252   1.348   4.112
  495SOL    HW1 1499   1.302   1.425   4.152
  495SOL    HW2 1500   1.157   1.350   4.144
  496SOL     OW 1501   1.582   0.639   4.196
  496SOL    HW1 1502   1.551   0.700   4.269
  496SOL    HW2 1503   1.632   0.691   4.127
  497SOL     OW 1504   0.573   0.870   4.753
  497SOL    HW1 1505   0.617   0.959   4.744
  497SOL    HW2 1506   0.510   0.870   4.830
  498SOL     OW 1507   1.209   0.525   3.999
  498SOL    HW1 1508   1.222   0.441   4.053
  498SOL    HW2 1509   1.180   0.599   4.059
  499SOL     OW 1510   0.732   0.634   4.788
  499SOL    HW1 1511   0.791   0.608   4.712
  499SOL    HW2 1512   0.704   0.730   4.777
  500SOL     OW 1513   0.307   0.063   4.342
  500SOL    HW1 1514   0.296   0.157   4.375
  500SOL    HW2 1515   0.302   0.000   4.419
  501SOL     OW 1516   1.622   0.367   4.098
  501SOL    HW1 1517   1.624   0.291   4.162
  501SOL    HW2 1518   1.574   0.444   4.138
  502SOL     OW 1519   1.540   0.274   3.849
  502SOL    HW1 1520   1.479   0.199   3.872
  502SOL    HW2 1521   1.562   0.326   3.932
  503SOL     OW 1522   1.303   0.838   3.766
  503SOL    HW1 1523   1.337   0.745   3.781
  503SOL    HW2 1524   1.321   0.865   3.671
  504SOL     OW 1525   1.068   1.333   4.573
  504SOL    HW1 1526   1.075   1.249   4.518
  504SOL    HW2 1527   1.130   1.402   4.537
  505SOL     OW 1528   0.319   0.810   4.673
  505SOL    HW1 1529   0.412   0.846   4.678
  505SOL    HW2 1530   0.313   0.725   4.725
  506SOL     OW 1531   0.339   0.509   4.730
  506SOL    HW1 1532   0.287   0.426   4.713
  506SOL    HW2 1533   0.416   0.514   4.666
  507SOL     OW 1534   0.008   1.326   3.924
  507SOL    HW1 1535  -0.085   1.347   3.893
  507SOL    HW2 1536   0.018   1.227   3.937
  508SOL     OW 1537   0.088   1.801   4.651
  508SOL    HW1 1538   0.046   1.715   4.624
  508SOL    HW2 1539   0.182   1.804   4.617
  509SOL     OW 1540   0.504   1.568   4.634
  509SOL    HW1 1541   0.570   1.642   4.643
  509SOL    HW2 1542   0.548   1.489   4.592
  510SOL     OW 1543   0.815   0.572   4.049
  510SOL    HW1 1544   0.822   0.483   4.003
  510SOL    HW2 1545   0.721   0.606   4.041
  511SOL     OW 1546   0.671   0.464   4.993
  511SOL    HW1 1547   0.637   0.375   4.963
  511SOL    HW2 1548   0.697   0.518   4.913
  512SOL     OW 1549   0.473   0.500   3.915
  512SOL    HW1 1550   0.534   0.580   3.919
  512SOL    HW2 1551   0.378   0.531   3.922
  513SOL     OW 1552   1.302   0.855   4.033
  513SOL    HW1 1553   1.216   0.824   4.075
  513SOL    HW2 1554   1.298   0.841   3.934
  514SOL     OW 1555   1.759   1.747   4.878
  514SOL    HW1 1556   1.820   1.777   4.805
  514SOL    HW2 1557   1.721   1.658   4.856
  515SOL     OW 1558   0.083   1.258   4.746
  515SOL    HW1 1559   0.078   1.257   4.846
  515SOL    HW2 1560   0.000   1.217   4.708
  516SOL     OW 1561   1.726   0.135   4.247
  516SOL    HW1 1562   1.799   0.118   4.180
  516SOL    HW2 1563   1.695   0.048   4.285
  517SOL     OW 1564   1.388   1.573   4.201
  517SOL    HW1 1565   1.455   1.585   4.127
  517SOL    HW2 1566   1.348   1.662   4.224
  518SOL     OW 1567   1.280   0.927   4.396
  518SOL    HW1 1568   1.340   0.846   4.398
  518SOL    HW2 1569   1.320   0.996   4.336
  519SOL     OW 1570   0.672   1.616   3.878
  519SOL    HW1 1571   0.681   1.626   3.779
  519SOL    HW2 1572   0.632   1.527   3.899
  520SOL     OW 1573   1.841   0.175   4.687
  520SOL    HW1 1574   1.880   0.090   4.651
  520SOL    HW2 1575   1.743   0.177   4.668
  521SOL     OW 1576   0.263   0.326   4.444
  521SOL    HW1 1577   0.184   0.377   4.410
  521SOL    HW2 1578   0.254   0.311   4.542
  522SOL     OW 1579   1.194   1.612   3.755
  522SOL    HW1 1580   1.200   1.519   3.792
  522SOL    HW2 1581   1.135   1.612   3.675
  523SOL     OW 1582   0.916   0.910   4.015
  523SOL    HW1 1583   0.979   0.948   3.947
  523SOL    HW2 1584   0.956   0.827   4.054
  524SOL     OW 1585   1.504   1.607   3.768
  524SOL    HW1 1586   1.412   1.644   3.775
  524SOL    HW2 1587   1.542   1.627   3.678
  525SOL     OW 1588   1.039   1.098   4.420
  525SOL    HW1 1589   0.969   1.051   4.474
  525SOL    HW2 1590   1.098   1.030   4.377
  526SOL     OW 1591   0.590   1.487   4.215
  526SOL    HW1 1592   0.632   1.429   4.145
  526SOL    HW2 1593   0.546   1.566   4.171
  527SOL     OW 1594   0.255   1.348   4.014
  527SOL    HW1 1595   0.159   1.349   3.987
  527SOL    HW2 1596   0.267   1.401   4.098
  528SOL     OW 1597   0.075   0.345   3.757
  528SOL    HW1 1598  -0.017   0.317   3.728
  528SOL    HW2 1599   0.106   0.422   3.701
  529SOL     OW 1600   0.072   0.166   4.042
  529SOL    HW1 1601   0.055   0.249   3.988
  529SOL    HW2 1602   0.162   0.129   4.020
  530SOL     OW 1603   1.183   1.335   3.843
  530SOL    HW1 1604   1.084   1.324   3.845
  530SOL    HW2 1605   1.217   1.350   3.936
  531SOL     OW 1606   1.674   0.883   4.978
  531SOL    HW1 1607   1.647   0.794   4.941
  531SOL    HW2 1608   1.675   0.951   4.905
  532SOL     OW 1609   1.225   0.325   4.173
  532SOL    HW1 1610   1.290   0.251   4.162
  532SOL    HW2 1611   1.245   0.375   4.257
  533SOL     OW 1612   0.594   0.745   4.376
  533SOL    HW1 1613   0.644   0.830   4.357
  533SOL    HW2 1614   0.506   0.747   4.328
  534SOL     OW 1615   0.859   1.374   3.740
  534SOL    HW1 1616   0.813   1.389   3.828
  534SOL    HW2 1617   0.903   1.459   3.710
  535SOL     OW 1618   0.661   1.790   4.677
  535SOL    HW1 1619   0.615   1.878   4.664
  535SOL    HW2 1620   0.760   1.802   4.670
  536SOL     OW 1621   0.859   0.956   4.585
  536SOL    HW1 1622   0.913   0.887   4.633
  536SOL    HW2 1623   0.827   1.025   4.651
  537SOL     OW 1624   1.083   0.984   3.811
  537SOL    HW1 1625   1.060   1.037   3.729
  537SOL    HW2 1626   1.164   0.928   3.792
  538SOL     OW 1627   1.861   1.569   4.575
  538SOL    HW1 1628   1.790   1.557   4.505
  538SOL    HW2 1629   1.862   1.490   4.635
  539SOL     OW 1630   0.079   1.240   4.377
  539SOL    HW1 1631   0.078   1.193   4.465
  539SOL    HW2 1632   0.161   1.212   4.326
  540SOL     OW 1633   1.824   0.192   4.951
  540SOL    HW1 1634   1.820   0.102   4.995
  540SOL    HW2 1635   1.827   0.181   4.852
  541SOL     OW 1636   0.428   0.424   4.244
  541SOL    HW1 1637   0.458   0.352   4.182
  541SOL    HW2 1638   0.389   0.384   4.327
  542SOL     OW 1639   0.812   1.586   4.411
  542SOL    HW1 1640   0.844   1.596   4.317
  542SOL    HW2 1641   0.733   1.524   4.413
  543SOL     OW 1642   0.770   1.330   4.025
  543SOL    HW1 1643   0.724   1.243   4.042
  543SOL    HW2 1644   0.861   1.327   4.066
  544SOL     OW 1645   1.352   0.052   3.892
  544SOL    HW1 1646   1.387   0.011   3.808
  544SOL    HW2 1647   1.262   0.014   3.912
  545SOL     OW 1648   1.300   0.453   4.415
  545SOL    HW1 1649   1.241   0.533   4.419
  545SOL    HW2 1650   1.315   0.418   4.508
  546SOL     OW 1651   1.593   0.221   4.606
  546SOL    HW1 1652   1.509   0.220   4.660
  546SOL    HW2 1653   1.595   0.304   4.550
  547SOL     OW 1654   0.039   1.077   4.024
  547SOL    HW1 1655   0.138   1.066   4.015
  547SOL    HW2 1656  -0.001   0.991   4.056
  548SOL     OW 1657   0.875   1.646   4.061
  548SOL    HW1 1658   0.798   1.611   4.007
  548SOL    HW2 1659   0.843   1.717   4.123
  549SOL     OW 1660   0.230   2.490   0.113
  549SOL    HW1 1661   0.137   2.488   0.150
  549SOL    HW2 1662   0.231   2.451   0.021
  550SOL     OW 1663   0.225   2.137   0.996
  550SOL    HW1 1664   0.260   2.120   1.088
  550SOL    HW2 1665   0.137   2.092   0.984
  551SOL     OW 1666   0.019   2.230   0.647
  551SOL    HW1 1667  -0.063   2.273   0.686
  551SOL    HW2 1668  -0.009   2.157   0.584
  552SOL     OW 1669   0.569   3.137   1.165
  552SOL    HW1 1670   0.476   3.130   1.128
  552SOL    HW2 1671   0.580   3.226   1.209
  553SOL     OW 1672   1.555   3.373   0.703
  553SOL    HW1 1673   1.498   3.357   0.784
  553SOL    HW2 1674   1.496   3.383   0.623
  554SOL     OW 1675   1.135   2.565   0.717
  554SOL    HW1 1676   1.192   2.643   0.692
  554SOL    HW2 1677   1.075   2.591   0.793
  555SOL     OW 1678   1.755   2.469   0.231
  555SOL    HW1 1679   1.743   2.456   0.132
  555SOL    HW2 1680   1.725   2.388   0.280
  556SOL     OW 1681   0.768   3.006   1.023
  556SOL    HW1 1682   0.690   3.023   1.083
  556SOL    HW2 1683   0.802   3.093   0.987
  557SOL     OW 1684   0.850   2.660   1.823
  557SOL    HW1 1685   0.846   2.736   1.888
  557SOL    HW2 1686   0.872   2.696   1.732
  558SOL     OW 1687   0.685   2.874   0.665
  558SOL    HW1 1688   0.754   2.858   0.735
  558SOL    HW2 1689   0.612   2.931   0.703
  559SOL     OW 1690   0.686   3.023   1.803
  559SOL    HW1 1691   0.746   3.102   1.817
  559SOL    HW2 1692   0.600   3.054   1.762
  560SOL     OW 1693   0.335   3.297   1.061
  560SOL    HW1 1694   0.257   3.266   1.008
  560SOL    HW2 1695   0.393   3.355   1.004
  561SOL     OW 1696   1.460   3.367   1.339
  561SOL    HW1 1697   1.484   3.461   1.365
  561SOL    HW2 1698   1.444   3.313   1.421
  562SOL     OW 1699   0.438   2.254   1.499
  562SOL    HW1 1700   0.520   2.198   1.508
  562SOL    HW2 1701   0.357   2.196   1.503
  563SOL     OW 1702   1.603   2.309   0.737
  563SOL    HW1 1703   1.529   2.355   0.687
  563SOL    HW2 1704   1.654   2.377   0.790
  564SOL     OW 1705   0.231   3.575   0.483
  564SOL    HW1 1706   0.265   3.652   0.537
  564SOL    HW2 1707   0.275   3.575   0.393
  565SOL     OW 1708   1.127   3.203   1.690
  565SOL    HW1 1709   1.174   3.203   1.778
  565SOL    HW2 1710   1.079   3.116   1.679
  566SOL     OW 1711   0.230   3.296   0.538
  566SOL    HW1 1712   0.204   3.392   0.538
  566SOL    HW2 1713   0.159   3.242   0.583
  567SOL     OW 1714   0.240   2.953   0.886
  567SOL    HW1 1715   0.254   2.869   0.938
  567SOL    HW2 1716   0.185   3.017   0.941
  568SOL     OW 1717   0.620   3.648   1.439
  568SOL    HW1 1718   0.528   3.631   1.474
  568SOL    HW2 1719   0.648   3.740   1.465
  569SOL     OW 1720   0.606   2.826   0.123
  569SOL    HW1 1721   0.613   2.910   0.069
  569SOL    HW2 1722   0.652   2.839   0.211
  570SOL     OW 1723   1.594   1.976   1.480
  570SOL    HW1 1724   1.576   2.043   1.408
  570SOL    HW2 1725   1.591   2.022   1.569
  571SOL     OW 1726   0.122   2.505   0.563
  571SOL    HW1 1727   0.077   2.417   0.580
  571SOL    HW2 1728   0.121   2.559   0.647
  572SOL     OW 1729   1.842   3.629   0.359
  572SOL    HW1 1730   1.896   3.600   0.439
  572SOL    HW2 1731   1.872   3.719   0.330
  573SOL     OW 1732   0.027   3.458   0.117
  573SOL    HW1 1733   0.008   3.362   0.138
  573SOL    HW2 1734  -0.006   3.516   0.192
  574SOL     OW 1735   1.689   2.784   0.612
  574SOL    HW1 1736   1.784   2.755   0.620
  574SOL    HW2 1737   1.681   2.849   0.537
  575SOL     OW 1738   1.641   2.970   0.432
  575SOL    HW1 1739   1.727   2.972   0.380
  575SOL    HW2 1740   1.655   3.017   0.520
  576SOL     OW 1741   0.113   2.599   1.597
  576SOL    HW1 1742   0.201   2.586   1.642
  576SOL    HW2 1743   0.100   2.696   1.575
  577SOL     OW 1744   0.613   3.227   0.726
  577SOL    HW1 1745   0.564   3.140   0.735
  577SOL    HW2 1746   0.590   3.270   0.639
  578SOL     OW 1747   1.293   3.090   1.423
  578SOL    HW1 1748   1.330   3.017   1.365
  578SOL    HW2 1749   1.345   3.095   1.508
  579SOL     OW 1750   0.809   1.866   0.502
  579SOL    HW1 1751   0.849   1.957   0.493
  579SOL    HW2 1752   0.709   1.874   0.508
  580SOL     OW 1753   0.197   2.838   1.264
  580SOL    HW1 1754   0.286   2.793   1.250
  580SOL    HW2 1755   0.124   2.773   1.245
  581SOL     OW 1756   1.525   2.861   0.190
  581SOL    HW1 1757   1.462   2.785   0.203
  581SOL    HW2 1758   1.573   2.879   0.276
  582SOL     OW 1759   1.187   3.654   1.616
  582SOL    HW1 1760   1.211   3.714   1.540
  582SOL    HW2 1761   1.194   3.559   1.586
  583SOL     OW 1762   0.317   2.113   1.801
  583SOL    HW1 1763   0.388   2.184   1.807
  583SOL    HW2 1764   0.229   2.152   1.829
  584SOL     OW 1765   1.466   3.279   0.953
  584SOL    HW1 1766   1.407   3.285   1.033
  584SOL    HW2 1767   1.451   3.191   0.907
  585SOL     OW 1768   1.667   3.576   0.572
  585SOL    HW1 1769   1.626   3.553   0.484
  585SOL    HW2 1770   1.649   3.502   0.637
  586SOL     OW 1771   0.598   2.591   0.270
  586SOL    HW1 1772   0.622   2.660   0.202
  586SOL    HW2 1773   0.520   2.624   0.324
  587SOL     OW 1774   1.281   2.207   0.944
  587SOL    HW1 1775   1.195   2.157   0.931
  587SOL    HW2 1776   1.343   2.153   1.000
  588SOL     OW 1777   1.576   3.524   0.307
  588SOL    HW1 1778   1.665   3.570   0.310
  588SOL    HW2 1779   1.555   3.500   0.212
  589SOL     OW 1780   0.807   2.467   1.465
  589SOL    HW1 1781   0.760   2.464   1.554
  589SOL    HW2 1782   0.756   2.412   1.399
  590SOL     OW 1783   1.394   2.331   1.674
  590SOL    HW1 1784   1.374   2.374   1.762
  590SOL    HW2 1785   1.472   2.269   1.683
  591SOL     OW 1786   0.973   2.752   1.572
  591SOL    HW1 1787   1.019   2.668   1.543
  591SOL    HW2 1788   0.917   2.786   1.497
  592SOL     OW 1789   0.991   2.272   1.242
  592SOL    HW1 1790   0.914   2.306   1.296
  592SOL    HW2 1791   0.957   2.221   1.163
  593SOL     OW 1792   1.041   2.563   0.429
  593SOL    HW1 1793   1.067   2.559   0.525
  593SOL    HW2 1794   0.956   2.512   0.415
  594SOL     OW 1795   0.076   2.673   0.789
  594SOL    HW1 1796   0.175   2.661   0.798
  594SOL    HW2 1797   0.052   2.768   0.810
  595SOL     OW 1798   0.130   3.683   1.571
  595SOL    HW1 1799   0.120   3.668   1.670
  595SOL    HW2 1800   0.044   3.719   1.535
  596SOL     OW 1801   0.865   2.210   0.195
  596SOL    HW1 1802   0.924   2.273   0.146
  596SOL    HW2 1803   0.884   2.116   0.166
  597SOL     OW 1804   1.719   2.447   1.831
  597SOL    HW1 1805   1.693   2.536   1.795
  597SOL    HW2 1806   1.717   2.379   1.758
  598SOL     OW 1807   1.362   3.006   0.545
  598SOL    HW1 1808   1.445   2.977   0.497
  598SOL    HW2 1809   1.313   3.073   0.489
  599SOL     OW 1810   0.550   2.058   0.885
  599SOL    HW1 1811   0.545   2.053   0.985
  599SOL    HW2 1812   0.552   2.154   0.856
  600SOL     OW 1813   1.008   3.318   0.477
  600SOL    HW1 1814   0.962   3.390   0.425
  600SOL    HW2 1815   1.004   3.338   0.575
  601SOL     OW 1816   0.351   3.663   0.853
  601SOL    HW1 1817   0.401   3.577   0.859
  601SOL    HW2 1818   0.416   3.740   0.850
  602SOL     OW 1819   1.795   2.928   0.873
  602SOL    HW1 1820   1.733   2.913   0.797
  602SOL    HW2 1821   1.743   2.939   0.958
  603SOL     OW 1822   1.227   3.412   1.506
  603SOL    HW1 1823   1.233   3.335   1.570
  603SOL    HW2 1824   1.175   3.386   1.426
  604SOL     OW 1825   0.321   2.805   0.242
  604SOL    HW1 1826   0.403   2.844   0.200
  604SOL    HW2 1827   0.294   2.723   0.193
  605SOL     OW 1828   1.458   2.597   0.728
  605SOL    HW1 1829   1.453   2.532   0.803
  605SOL    HW2 1830   1.538   2.656   0.741
  606SOL     OW 1831   0.461   3.128   1.727
  606SOL    HW1 1832   0.411   3.129   1.641
  606SOL    HW2 1833   0.398   3.110   1.803
  607SOL     OW 1834   1.111   3.638   0.237
  607SOL    HW1 1835   1.051   3.576   0.287
  607SOL    HW2 1836   1.142   3.594   0.152
  608SOL     OW 1837   0.202   2.147   1.498
  608SOL    HW1 1838   0.122   2.207   1.485
  608SOL    HW2 1839   0.192   2.098   1.584
  609SOL     OW 1840   1.632   3.239   0.081
  609SOL    HW1 1841   1.600   3.333   0.071
  609SOL    HW2 1842   1.556   3.176   0.069
  610SOL     OW 1843   0.464   3.605   0.323
  610SOL    HW1 1844   0.497   3.644   0.409
  610SOL    HW2 1845   0.540   3.598   0.258
  611SOL     OW 1846   1.400   1.969   0.426
  611SOL    HW1 1847   1.376   1.932   0.336
  611SOL    HW2 1848   1.499   1.985   0.430
  612SOL     OW 1849   0.249   3.647   1.241
  612SOL    HW1 1850   0.306   3.582   1.291
  612SOL    HW2 1851   0.233   3.614   1.148
  613SOL     OW 1852   0.940   3.560   0.904
  613SOL    HW1 1853   1.020   3.503   0.925
  613SOL    HW2 1854   0.891   3.520   0.827
  614SOL     OW 1855   0.382   2.562   0.480
  614SOL    HW1 1856   0.427   2.472   0.477
  614SOL    HW2 1857   0.288   2.551   0.513
  615SOL     OW 1858   1.547   2.084   1.729
  615SOL    HW1 1859   1.542   2.121   1.821
  615SOL    HW2 1860   1.475   2.015   1.717
  616SOL     OW 1861   0.614   1.984   0.117
  616SOL    HW1 1862   0.712   1.962   0.124
  616SOL    HW2 1863   0.583   1.967   0.024
  617SOL     OW 1864   0.781   2.126   1.749
  617SOL    HW1 1865   0.848   2.065   1.792
  617SOL    HW2 1866   0.708   2.145   1.814
  618SOL     OW 1867   0.888   3.376   1.195
  618SOL    HW1 1868   0.865   3.351   1.101
  618SOL    HW2 1869   0.949   3.307   1.234
  619SOL     OW 1870   1.351   2.452   1.433
  619SOL    HW1 1871   1.379   2.409   1.518
  619SOL    HW2 1872   1.376   2.548   1.434
  620SOL     OW 1873   0.803   3.264   0.924
  620SOL    HW1 1874   0.893   3.278   0.882
  620SOL    HW2 1875   0.732   3.266   0.853
  621SOL     OW 1876   0.922   2.365   0.899
  621SOL    HW1 1877   0.897   2.356   0.803
  621SOL    HW2 1878   0.970   2.283   0.930
  622SOL     OW 1879   0.539   1.926   0.512
  622SOL    HW1 1880   0.458   1.927   0.570
  622SOL    HW2 1881   0.542   2.009   0.457
  623SOL     OW 1882   1.434   3.050   0.041
  623SOL    HW1 1883   1.466   2.974   0.098
  623SOL    HW2 1884   1.342   3.077   0.071
  624SOL     OW 1885   0.935   2.098   0.480
  624SOL    HW1 1886   0.887   2.139   0.402
  624SOL    HW2 1887   1.034   2.096   0.461
  625SOL     OW 1888   1.076   2.545   1.464
  625SOL    HW1 1889   0.996   2.484   1.467
  625SOL    HW2 1890   1.157   2.492   1.440
  626SOL     OW 1891   1.227   3.432   0.793
  626SOL    HW1 1892   1.248   3.506   0.728
  626SOL    HW2 1893   1.295   3.432   0.866
  627SOL     OW 1894   0.459   3.014   0.741
  627SOL    HW1 1895   0.388   2.987   0.806
  627SOL    HW2 1896   0.433   2.986   0.648
  628SOL     OW 1897   1.271   3.659   0.591
  628SOL    HW1 1898   1.315   3.723   0.527
  628SOL    HW2 1899   1.221   3.711   0.661
  629SOL     OW 1900   1.032   2.411   0.016
  629SOL    HW1 1901   0.991   2.493  -0.023
  629SOL    HW2 1902   1.096   2.437   0.089
  630SOL     OW 1903   0.078   2.418   1.386
  630SOL    HW1 1904   0.170   2.417   1.345
  630SOL    HW2 1905   0.072   2.492   1.453
  631SOL     OW 1906   0.561   2.084   1.147
  631SOL    HW1 1907   0.599   2.000   1.184
  631SOL    HW2 1908   0.473   2.103   1.191
  632SOL     OW 1909   0.866   2.316   0.642
  632SOL    HW1 1910   0.834   2.388   0.580
  632SOL    HW2 1911   0.890   2.235   0.589
  633SOL     OW 1912   1.017   1.901   0.753
  633SOL    HW1 1913   0.945   1.906   0.684
  633SOL    HW2 1914   0.993   1.832   0.822
  634SOL     OW 1915   1.429   3.035   0.867
  634SOL    HW1 1916   1.374   2.951   0.860
  634SOL    HW2 1917   1.455   3.064   0.775
  635SOL     OW 1918   1.466   2.452   0.992
  635SOL    HW1 1919   1.436   2.357   0.999
  635SOL    HW2 1920   1.539   2.468   1.058
  636SOL     OW 1921   1.857   2.695   0.377
  636SOL    HW1 1922   1.899   2.631   0.441
  636SOL    HW2 1923   1.819   2.644   0.299
  637SOL     OW 1924   0.488   3.247   0.174
  637SOL    HW1 1925   0.401   3.232   0.221
  637SOL    HW2 1926   0.471   3.273   0.079
  638SOL     OW 1927   1.664   3.142   0.657
  638SOL    HW1 1928   1.763   3.150   0.671
  638SOL    HW2 1929   1.619   3.226   0.688
  639SOL     OW 1930   1.390   2.437   0.078
  639SOL    HW1 1931   1.336   2.416   0.159
  639SOL    HW2 1932   1.481   2.396   0.087
  640SOL     OW 1933   0.527   2.118   0.328
  640SOL    HW1 1934   0.554   2.059   0.253
  640SOL    HW2 1935   0.527   2.213   0.297
  641SOL     OW 1936   1.754   3.085   1.588
  641SOL    HW1 1937   1.845   3.046   1.575
  641SOL    HW2 1938   1.762   3.181   1.612
  642SOL     OW 1939   1.064   3.209   1.340
  642SOL    HW1 1940   0.984   3.186   1.395
  642SOL    HW2 1941   1.147   3.183   1.389
  643SOL     OW 1942   1.592   3.491   1.625
  643SOL    HW1 1943   1.619   3.525   1.535
  643SOL    HW2 1944   1.671   3.453   1.671
  644SOL     OW 1945   1.111   3.057   1.100
  644SOL    HW1 1946   1.071   3.101   1.181
  644SOL    HW2 1947   1.070   3.094   1.017
  645SOL     OW 1948   1.638   2.961   1.079
  645SOL    HW1 1949   1.643   3.042   1.138
  645SOL    HW2 1950   1.552   2.963   1.028
  646SOL     OW 1951   0.915   1.951   1.402
  646SOL    HW1 1952   0.940   1.931   1.307
  646SOL    HW2 1953   0.987   2.007   1.444
  647SOL     OW 1954   0.980   2.978   1.719
  647SOL    HW1 1955   0.881   2.984   1.729
  647SOL    HW2 1956   1.003   2.898   1.663
  648SOL     OW 1957   0.705   2.912   0.368
  648SOL    HW1 1958   0.691   2.919   0.467
  648SOL    HW2 1959   0.789   2.861   0.350
  649SOL     OW 1960   0.410   2.675   1.251
  649SOL    HW1 1961   0.496   2.687   1.301
  649SOL    HW2 1962   0.368   2.588   1.278
  650SOL     OW 1963   1.274   2.248   1.262
  650SOL    HW1 1964   1.295   2.322   1.326
  650SOL    HW2 1965   1.185   2.265   1.219
  651SOL     OW 1966   0.064   3.426   1.331
  651SOL    HW1 1967   0.018   3.508   1.297
  651SOL    HW2 1968   0.162   3.445   1.340
  652SOL     OW 1969   0.367   2.962   0.501
  652SOL    HW1 1970   0.360   3.045   0.445
  652SOL    HW2 1971   0.371   2.882   0.441
  653SOL     OW 1972   0.566   2.399   0.865
  653SOL    HW1 1973   0.578   2.465   0.791
  653SOL    HW2 1974   0.612   2.433   0.948
  654SOL     OW 1975   1.252   3.210   0.388
  654SOL    HW1 1976   1.302   3.287   0.428
  654SOL    HW2 1977   1.157   3.212   0.420
  655SOL     OW 1978   1.272   3.307   1.142
  655SOL    HW1 1979   1.319   3.320   1.229
  655SOL    HW2 1980   1.206   3.233   1.151
  656SOL     OW 1981   1.582   2.501   0.472
  656SOL    HW1 1982   1.551   2.562   0.545
  656SOL    HW2 1983   1.632   2.553   0.403
  657SOL     OW 1984   0.354   3.372   1.329
  657SOL    HW1 1985   0.333   3.328   1.242
  657SOL    HW2 1986   0.451   3.398   1.332
  658SOL     OW 1987   0.402   2.613   1.598
  658SOL    HW1 1988   0.470   2.668   1.551
  658SOL    HW2 1989   0.442   2.525   1.625
  659SOL     OW 1990   1.587   2.641   1.670
  659SOL    HW1 1991   1.495   2.679   1.665
  659SOL    HW2 1992   1.647   2.688   1.605
  660SOL     OW 1993   1.013   1.967   1.770
  660SOL    HW1 1994   1.019   2.052   1.718
  660SOL    HW2 1995   1.045   1.891   1.713
  661SOL     OW 1996   0.504   1.912   1.740
  661SOL    HW1 1997   0.462   1.855   1.670
  661SOL    HW2 1998   0.438   1.981   1.772
  662SOL     OW 1999   0.573   2.732   1.029
  662SOL    HW1 2000   0.617   2.821   1.020
  662SOL    HW2 2001   0.510   2.732   1.106
  663SOL     OW 2002   1.360   2.724   1.045
  663SOL    HW1 2003   1.285   2.724   0.979
  663SOL    HW2 2004   1.397   2.632   1.054
  664SOL     OW 2005   1.209   2.387   0.275
  664SOL    HW1 2006   1.222   2.303   0.329
  664SOL    HW2 2007   1.180   2.461   0.335
  665SOL     OW 2008   0.307   2.075   1.231
  665SOL    HW1 2009   0.284   2.112   1.321
  665SOL    HW2 2010   0.277   1.980   1.225
  666SOL     OW 2011   0.037   3.172   1.282
  666SOL    HW1 2012   0.090   3.123   1.350
  666SOL    HW2 2013   0.059   3.270   1.287
  667SOL     OW 2014   0.732   2.496   1.064
  667SOL    HW1 2015   0.791   2.470   0.988
  667SOL    HW2 2016   0.704   2.592   1.053
  668SOL     OW 2017   1.728   2.797   1.854
  668SOL    HW1 2018   1.682   2.790   1.765
  668SOL    HW2 2019   1.666   2.841   1.920
  669SOL     OW 2020   0.307   1.925   0.618
  669SOL    HW1 2021   0.296   2.019   0.651
  669SOL    HW2 2022   0.302   1.862   0.695
  670SOL     OW 2023   1.622   2.229   0.374
  670SOL    HW1 2024   1.624   2.153   0.438
  670SOL    HW2 2025   1.574   2.306   0.414
  671SOL     OW 2026   1.023   2.628   0.966
  671SOL    HW1 2027   1.038   2.649   1.062
  671SOL    HW2 2028   0.993   2.533   0.957
  672SOL     OW 2029   0.980   3.435   1.700
  672SOL    HW1 2030   0.960   3.479   1.612
  672SOL    HW2 2031   1.019   3.344   1.684
  673SOL     OW 2032   1.859   3.380   1.605
  673SOL    HW1 2033   1.873   3.407   1.510
  673SOL    HW2 2034   1.942   3.402   1.658
  674SOL     OW 2035   0.350   2.760   1.804
  674SOL    HW1 2036   0.426   2.804   1.852
  674SOL    HW2 2037   0.385   2.713   1.722
  675SOL     OW 2038   1.540   2.136   0.125
  675SOL    HW1 2039   1.479   2.061   0.148
  675SOL    HW2 2040   1.562   2.188   0.208
  676SOL     OW 2041   1.303   2.700   0.042
  676SOL    HW1 2042   1.337   2.607   0.057
  676SOL    HW2 2043   1.321   2.727  -0.053
  677SOL     OW 2044   1.068   3.195   0.849
  677SOL    HW1 2045   1.075   3.111   0.794
  677SOL    HW2 2046   1.130   3.264   0.813
  678SOL     OW 2047   0.319   2.672   0.949
  678SOL    HW1 2048   0.412   2.708   0.954
  678SOL    HW2 2049   0.313   2.587   1.001
  679SOL     OW 2050   0.339   2.371   1.006
  679SOL    HW1 2051   0.287   2.288   0.989
  679SOL    HW2 2052   0.416   2.376   0.942
  680SOL     OW 2053   1.138   2.242   1.678
  680SOL    HW1 2054   1.093   2.305   1.742
  680SOL    HW2 2055   1.231   2.273   1.661
  681SOL     OW 2056   1.160   2.069   1.477
  681SOL    HW1 2057   1.160   2.133   1.554
  681SOL    HW2 2058   1.188   2.117   1.394
  682SOL     OW 2059   0.008   3.188   0.200
  682SOL    HW1 2060  -0.085   3.209   0.169
  682SOL    HW2 2061   0.018   3.089   0.213
  683SOL     OW 2062   0.088   3.663   0.927
  683SOL    HW1 2063   0.046   3.577   0.900
  683SOL    HW2 2064   0.182   3.666   0.893
  684SOL     OW 2065   0.504   3.430   0.910
  684SOL    HW1 2066   0.570   3.504   0.919
  684SOL    HW2 2067   0.548   3.351   0.868
  685SOL     OW 2068   1.002   2.658   1.238
  685SOL    HW1 2069   1.043   2.626   1.324
  685SOL    HW2 2070   0.906   2.631   1.235
  686SOL     OW 2071   0.040   2.406   1.114
  686SOL    HW1 2072   0.125   2.373   1.073
  686SOL    HW2 2073   0.053   2.421   1.212
  687SOL     OW 2074   0.189   2.382   1.722
  687SOL    HW1 2075   0.248   2.342   1.652
  687SOL    HW2 2076   0.131   2.453   1.681
  688SOL     OW 2077   1.369   2.812   1.660
  688SOL    HW1 2078   1.408   2.901   1.680
  688SOL    HW2 2079   1.379   2.792   1.563
  689SOL     OW 2080   0.815   2.434   0.325
  689SOL    HW1 2081   0.822   2.345   0.279
  689SOL    HW2 2082   0.721   2.468   0.317
  690SOL     OW 2083   1.657   2.466   1.206
  690SOL    HW1 2084   1.619   2.397   1.268
  690SOL    HW2 2085   1.739   2.430   1.162
  691SOL     OW 2086   0.252   3.426   1.744
  691SOL    HW1 2087   0.222   3.483   1.820
  691SOL    HW2 2088   0.245   3.329   1.770
  692SOL     OW 2089   0.671   2.326   1.269
  692SOL    HW1 2090   0.637   2.237   1.239
  692SOL    HW2 2091   0.697   2.380   1.189
  693SOL     OW 2092   0.930   3.540   1.465
  693SOL    HW1 2093   0.906   3.522   1.370
  693SOL    HW2 2094   0.960   3.634   1.475
  694SOL     OW 2095   0.473   2.362   0.191
  694SOL    HW1 2096   0.534   2.442   0.195
  694SOL    HW2 2097   0.378   2.393   0.198
  695SOL     OW 2098   0.159   2.999   1.466
  695SOL    HW1 2099   0.181   2.938   1.542
  695SOL    HW2 2100   0.169   2.950   1.380
  696SOL     OW 2101   1.347   2.921   1.234
  696SOL    HW1 2102   1.371   2.858   1.160
  696SOL    HW2 2103   1.257   2.961   1.216
  697SOL     OW 2104   1.302   2.717   0.309
  697SOL    HW1 2105   1.216   2.686   0.351
  697SOL    HW2 2106   1.298   2.703   0.210
  698SOL     OW 2107   1.759   3.609   1.154
  698SOL    HW1 2108   1.820   3.639   1.081
  698SOL    HW2 2109   1.721   3.520   1.132
  699SOL     OW 2110   1.252   3.593   1.128
  699SOL    HW1 2111   1.336   3.598   1.074
  699SOL    HW2 2112   1.229   3.497   1.146
  700SOL     OW 2113   0.083   3.120   1.022
  700SOL    HW1 2114   0.078   3.119   1.122
  700SOL    HW2 2115   0.000   3.079   0.984
  701SOL     OW 2116   0.688   3.524   1.716
  701SOL    HW1 2117   0.632   3.605   1.725
  701SOL    HW2 2118   0.740   3.528   1.630
  702SOL     OW 2119   0.903   1.948   0.133
  702SOL    HW1 2120   0.954   1.949   0.047
  702SOL    HW2 2121   0.959   1.906   0.204
  703SOL     OW 2122   1.726   1.997   0.523
  703SOL    HW1 2123   1.799   1.980   0.456
  703SOL    HW2 2124   1.695   1.910   0.561
  704SOL     OW 2125   1.388   3.435   0.477
  704SOL    HW1 2126   1.455   3.447   0.403
  704SOL    HW2 2127   1.348   3.524   0.500
  705SOL     OW 2128   0.130   3.656   1.851
  705SOL    HW1 2129   0.089   3.582   1.904
  705SOL    HW2 2130   0.194   3.707   1.909
  706SOL     OW 2131   1.280   2.789   0.672
  706SOL    HW1 2132   1.340   2.708   0.674
  706SOL    HW2 2133   1.320   2.858   0.612
  707SOL     OW 2134   0.830   3.135   1.422
  707SOL    HW1 2135   0.825   3.168   1.517
  707SOL    HW2 2136   0.744   3.154   1.376
  708SOL     OW 2137   0.672   3.478   0.154
  708SOL    HW1 2138   0.681   3.488   0.055
  708SOL    HW2 2139   0.632   3.389   0.175
  709SOL     OW 2140   1.650   3.582   1.394
  709SOL    HW1 2141   1.703   3.592   1.310
  709SOL    HW2 2142   1.623   3.672   1.428
  710SOL     OW 2143   1.841   2.037   0.963
  710SOL    HW1 2144   1.880   1.952   0.927
  710SOL    HW2 2145   1.743   2.039   0.944
  711SOL     OW 2146   0.263   2.188   0.720
  711SOL    HW1 2147   0.184   2.239   0.686
  711SOL    HW2 2148   0.254   2.173   0.818
  712SOL     OW 2149   1.194   3.474   0.031
  712SOL    HW1 2150   1.200   3.381   0.068
  712SOL    HW2 2151   1.135   3.474  -0.049
  713SOL     OW 2152   0.822   2.864   1.372
  713SOL    HW1 2153   0.862   2.863   1.280
  713SOL    HW2 2154   0.832   2.956   1.412
  714SOL     OW 2155   0.916   2.772   0.291
  714SOL    HW1 2156   0.979   2.810   0.223
  714SOL    HW2 2157   0.956   2.689   0.330
  715SOL     OW 2158   1.504   3.469   0.044
  715SOL    HW1 2159   1.412   3.506   0.051
  715SOL    HW2 2160   1.542   3.489  -0.046
  716SOL     OW 2161   0.372   3.150   1.490
  716SOL    HW1 2162   0.359   3.243   1.456
  716SOL    HW2 2163   0.288   3.098   1.477
  717SOL     OW 2164   1.614   3.154   1.289
  717SOL    HW1 2165   1.674   3.157   1.369
  717SOL    HW2 2166   1.539   3.218   1.302
  718SOL     OW 2167   1.039   2.960   0.696
  718SOL    HW1 2168   0.969   2.913   0.750
  718SOL    HW2 2169   1.098   2.892   0.653
  719SOL     OW 2170   1.014   2.098   0.971
  719SOL    HW1 2171   1.006   2.062   0.878
  719SOL    HW2 2172   1.012   2.022   1.036
  720SOL     OW 2173   0.590   3.349   0.491
  720SOL    HW1 2174   0.632   3.291   0.421
  720SOL    HW2 2175   0.546   3.428   0.447
  721SOL     OW 2176   1.709   2.247   1.381
  721SOL    HW1 2177   1.782   2.316   1.385
  721SOL    HW2 2178   1.737   2.172   1.322
  722SOL     OW 2179   0.255   3.210   0.290
  722SOL    HW1 2180   0.159   3.211   0.263
  722SOL    HW2 2181   0.267   3.263   0.374
  723SOL     OW 2182   0.105   2.875   1.726
  723SOL    HW1 2183   0.028   2.842   1.780
  723SOL    HW2 2184   0.190   2.845   1.768
  724SOL     OW 2185   0.672   2.065   1.489
  724SOL    HW1 2186   0.762   2.049   1.449
  724SOL    HW2 2187   0.680   2.070   1.588
  725SOL     OW 2188   0.075   2.207   0.033
  725SOL    HW1 2189  -0.017   2.179   0.004
  725SOL    HW2 2190   0.106   2.284  -0.023
  726SOL     OW 2191   1.440   2.718   1.398
  726SOL    HW1 2192   1.383   2.770   1.335
  726SOL    HW2 2193   1.536   2.730   1.374
  727SOL     OW 2194   0.072   2.028   0.318
  727SOL    HW1 2195   0.055   2.111   0.264
  727SOL    HW2 2196   0.162   1.991   0.296
  728SOL     OW 2197   1.183   3.197   0.119
  728SOL    HW1 2198   1.084   3.186   0.121
  728SOL    HW2 2199   1.217   3.212   0.212
  729SOL     OW 2200   0.613   2.704   1.431
  729SOL    HW1 2201   0.669   2.785   1.414
  729SOL    HW2 2202   0.672   2.624   1.434
  730SOL     OW 2203   1.493   3.629   0.959
  730SOL    HW1 2204   1.526   3.693   0.890
  730SOL    HW2 2205   1.559   3.623   1.034
  731SOL     OW 2206   0.716   2.427   1.708
  731SOL    HW1 2207   0.735   2.492   1.782
  731SOL    HW2 2208   0.776   2.347   1.717
  732SOL     OW 2209   1.450   3.082   1.633
  732SOL    HW1 2210   1.441   3.072   1.732
  732SOL    HW2 2211   1.546   3.075   1.607
  733SOL     OW 2212   0.390   3.603   1.560
  733SOL    HW1 2213   0.299   3.644   1.558
  733SOL    HW2 2214   0.383   3.509   1.592
  734SOL     OW 2215   1.674   2.745   1.254
  734SOL    HW1 2216   1.647   2.656   1.217
  734SOL    HW2 2217   1.675   2.813   1.181
  735SOL     OW 2218   1.225   2.187   0.449
  735SOL    HW1 2219   1.290   2.113   0.438
  735SOL    HW2 2220   1.245   2.237   0.533
  736SOL     OW 2221   0.594   2.607   0.652
  736SOL    HW1 2222   0.644   2.692   0.633
  736SOL    HW2 2223   0.506   2.609   0.604
  737SOL     OW 2224   1.777   2.204   1.642
  737SOL    HW1 2225   1.760   2.235   1.548
  737SOL    HW2 2226   1.693   2.167   1.680
  738SOL     OW 2227   1.730   2.796   1.517
  738SOL    HW1 2228   1.768   2.887   1.532
  738SOL    HW2 2229   1.722   2.779   1.418
  739SOL     OW 2230   0.859   3.236   0.016
  739SOL    HW1 2231   0.813   3.251   0.104
  739SOL    HW2 2232   0.903   3.321  -0.014
  740SOL     OW 2233   0.661   3.652   0.953
  740SOL    HW1 2234   0.615   3.740   0.940
  740SOL    HW2 2235   0.760   3.664   0.946
  741SOL     OW 2236   0.859   2.818   0.861
  741SOL    HW1 2237   0.913   2.749   0.909
  741SOL    HW2 2238   0.827   2.887   0.927
  742SOL     OW 2239   1.083   2.846   0.087
  742SOL    HW1 2240   1.060   2.899   0.005
  742SOL    HW2 2241   1.164   2.790   0.068
  743SOL     OW 2242   1.861   3.431   0.851
  743SOL    HW1 2243   1.790   3.419   0.781
  743SOL    HW2 2244   1.862   3.352   0.911
  744SOL     OW 2245   0.221   3.176   1.844
  744SOL    HW1 2246   0.156   3.103   1.823
  744SOL    HW2 2247   0.225   3.190   1.942
  745SOL     OW 2248   0.079   3.102   0.653
  745SOL    HW1 2249   0.078   3.055   0.741
  745SOL    HW2 2250   0.161   3.074   0.602
  746SOL     OW 2251   0.672   3.253   1.624
  746SOL    HW1 2252   0.594   3.203   1.662
  746SOL    HW2 2253   0.669   3.348   1.655
  747SOL     OW 2254   1.824   2.054   1.227
  747SOL    HW1 2255   1.820   1.964   1.271
  747SOL    HW2 2256   1.827   2.043   1.128
  748SOL     OW 2257   0.428   2.286   0.520
  748SOL    HW1 2258   0.458   2.214   0.458
  748SOL    HW2 2259   0.389   2.246   0.603
  749SOL     OW 2260   1.705   3.349   1.104
  749SOL    HW1 2261   1.612   3.324   1.077
  749SOL    HW2 2262   1.731   3.299   1.186
  750SOL     OW 2263   0.317   2.409   1.280
  750SOL    HW1 2264   0.355   2.350   1.352
  750SOL    HW2 2265   0.357   2.383   1.192
  751SOL     OW 2266   0.812   3.448   0.687
  751SOL    HW1 2267   0.844   3.458   0.593
  751SOL    HW2 2268   0.733   3.386   0.689
  752SOL     OW 2269   1.424   2.076   1.112
  752SOL    HW1 2270   1.476   2.011   1.167
  752SOL    HW2 2271   1.375   2.139   1.173
  753SOL     OW 2272   1.001   1.896   1.154
  753SOL    HW1 2273   0.938   1.824   1.123
  753SOL    HW2 2274   1.094   1.860   1.154
  754SOL     OW 2275   0.770   3.192   0.301
  754SOL    HW1 2276   0.724   3.105   0.318
  754SOL    HW2 2277   0.861   3.189   0.342
  755SOL     OW 2278   0.618   3.429   1.284
  755SOL    HW1 2279   0.613   3.511   1.341
  755SOL    HW2 2280   0.707   3.426   1.239
  756SOL     OW 2281   1.352   1.914   0.168
  756SOL    HW1 2282   1.387   1.873   0.084
  756SOL    HW2 2283   1.262   1.876   0.188
  757SOL     OW 2284   1.300   2.315   0.691
  757SOL    HW1 2285   1.241   2.395   0.695
  757SOL    HW2 2286   1.315   2.280   0.784
  758SOL     OW 2287   1.593   2.083   0.882
  758SOL    HW1 2288   1.509   2.082   0.936
  758SOL    HW2 2289   1.595   2.166   0.826
  759SOL     OW 2290   0.039   2.939   0.300
  759SOL    HW1 2291   0.138   2.928   0.291
  759SOL    HW2 2292  -0.001   2.853   0.332
  760SOL     OW 2293   0.875   3.508   0.337
  760SOL    HW1 2294   0.798   3.473   0.283
  760SOL    HW2 2295   0.843   3.579   0.399
  761SOL     OW 2296   0.230   2.490   1.975
  761SOL    HW1 2297   0.137   2.488   2.012
  761SOL    HW2 2298   0.231   2.451   1.883
  762SOL     OW 2299   0.225   2.137   2.858
  762SOL    HW1 2300   0.260   2.120   2.950
  762SOL    HW2 2301   0.137   2.092   2.846
  763SOL     OW 2302   0.019   2.230   2.509
  763SOL    HW1 2303  -0.063   2.273   2.548
  763SOL    HW2 2304  -0.009   2.157   2.446
  764SOL     OW 2305   0.569   3.137   3.027
  764SOL    HW1 2306   0.476   3.130   2.990
  764SOL    HW2 2307   0.580   3.226   3.071
  765SOL     OW 2308   1.555   3.373   2.565
  765SOL    HW1 2309   1.498   3.357   2.646
  765SOL    HW2 2310   1.496   3.383   2.485
  766SOL     OW 2311   1.135   2.565   2.579
  766SOL    HW1 2312   1.192   2.643   2.554
  766SOL    HW2 2313   1.075   2.591   2.655
  767SOL     OW 2314   1.755   2.469   2.093
  767SOL    HW1 2315   1.743   2.456   1.994
  767SOL    HW2 2316   1.725   2.388   2.142
  768SOL     OW 2317   0.768   3.006   2.885
  768SOL    HW1 2318   0.690   3.023   2.945
  768SOL    HW2 2319   0.802   3.093   2.849
  769SOL     OW 2320   0.850   2.660   3.685
  769SOL    HW1 2321   0.846   2.736   3.750
  769SOL    HW2 2322   0.872   2.696   3.594
  770SOL     OW 2323   0.685   2.874   2.527
  770SOL    HW1 2324   0.754   2.858   2.597
  770SOL    HW2 2325   0.612   2.931   2.565
  771SOL     OW 2326   0.686   3.023   3.665
  771SOL    HW1 2327   0.746   3.102   3.679
  771SOL    HW2 2328   0.600   3.054   3.624
  772SOL     OW 2329   0.335   3.297   2.923
  772SOL    HW1 2330   0.257   3.266   2.870
  772SOL    HW2 2331   0.393   3.355   2.866
  773SOL     OW 2332   1.460   3.367   3.201
  773SOL    HW1 2333   1.484   3.461   3.227
  773SOL    HW2 2334   1.444   3.313   3.283
  774SOL     OW 2335   0.438   2.254   3.361
  774SOL    HW1 2336   0.520   2.198   3.370
  774SOL    HW2 2337   0.357   2.196   3.365
  775SOL     OW 2338   1.603   2.309   2.599
  775SOL    HW1 2339   1.529   2.355   2.549
  775SOL    HW2 2340   1.654   2.377   2.652
  776SOL     OW 2341   0.231   3.575   2.345
  776SOL    HW1 2342   0.265   3.652   2.399
  776SOL    HW2 2343   0.275   3.575   2.255
  777SOL     OW 2344   1.127   3.203   3.552
  777SOL    HW1 2345   1.174   3.203   3.640
  777SOL    HW2 2346   1.079   3.116   3.541
  778SOL     OW 2347   0.230   3.296   2.400
  778SOL    HW1 2348   0.204   3.392   2.400
  778SOL    HW2 2349   0.159   3.242   2.445
  779SOL     OW 2350   0.240   2.953   2.748
  779SOL    HW1 2351   0.254   2.869   2.800
  779SOL    HW2 2352   0.185   3.017   2.803
  780SOL     OW 2353   0.620   3.648   3.301
  780SOL    HW1 2354   0.528   3.631   3.336
  780SOL    HW2 2355   0.648   3.740   3.327
  781SOL     OW 2356   0.606   2.826   1.985
  781SOL    HW1 2357   0.613   2.910   1.931
  781SOL    HW2 2358   0.652   2.839   2.073
  782SOL     OW 2359   1.594   1.976   3.342
  782SOL    HW1 2360   1.576   2.043   3.270
  782SOL    HW2 2361   1.591   2.022   3.431
  783SOL     OW 2362   0.122   2.505   2.425
  783SOL    HW1 2363   0.077   2.417   2.442
  783SOL    HW2 2364   0.121   2.559   2.509
  784SOL     OW 2365   1.842   3.629   2.221
  784SOL    HW1 2366   1.896   3.600   2.301
  784SOL    HW2 2367   1.872   3.719   2.192
  785SOL     OW 2368   0.027   3.458   1.979
  785SOL    HW1 2369   0.008   3.362   2.000
  785SOL    HW2 2370  -0.006   3.516   2.054
  786SOL     OW 2371   1.689   2.784   2.474
  786SOL    HW1 2372   1.784   2.755   2.482
  786SOL    HW2 2373   1.681   2.849   2.399
  787SOL     OW 2374   1.641   2.970   2.294
  787SOL    HW1 2375   1.727   2.972   2.242
  787SOL    HW2 2376   1.655   3.017   2.382
  788SOL     OW 2377   0.113   2.599   3.459
  788SOL    HW1 2378   0.201   2.586   3.504
  788SOL    HW2 2379   0.100   2.696   3.437
  789SOL     OW 2380   0.613   3.227   2.588
  789SOL    HW1 2381   0.564   3.140   2.597
  789SOL    HW2 2382   0.590   3.270   2.501
  790SOL     OW 2383   1.293   3.090   3.285
  790SOL    HW1 2384   1.330   3.017   3.227
  790SOL    HW2 2385   1.345   3.095   3.370
  791SOL     OW 2386   0.809   1.866   2.364
  791SOL    HW1 2387   0.849   1.957   2.355
  791SOL    HW2 2388   0.709   1.874   2.370
  792SOL     OW 2389   0.197   2.838   3.126
  792SOL    HW1 2390   0.286   2.793   3.112
  792SOL    HW2 2391   0.124   2.773   3.107
  793SOL     OW 2392   1.525   2.861   2.052
  793SOL    HW1 2393   1.462   2.785   2.065
  793SOL    HW2 2394   1.573   2.879   2.138
  794SOL     OW 2395   1.187   3.654   3.478
  794SOL    HW1 2396   1.211   3.714   3.402
  794SOL    HW2 2397   1.194   3.559   3.448
  795SOL     OW 2398   0.317   2.113   3.663
  795SOL    HW1 2399   0.388   2.184   3.669
  795SOL    HW2 2400   0.229   2.152   3.691
  796SOL     OW 2401   1.466   3.279   2.815
  796SOL    HW1 2402   1.407   3.285   2.895
  796SOL    HW2 2403   1.451   3.191   2.769
  797SOL     OW 2404   1.667   3.576   2.434
  797SOL    HW1 2405   1.626   3.553   2.346
  797SOL    HW2 2406   1.649   3.502   2.499
  798SOL     OW 2407   0.598   2.591   2.132
  798SOL    HW1 2408   0.622   2.660   2.064
  798SOL    HW2 2409   0.520   2.624   2.186
  799SOL     OW 2410   1.281   2.207   2.806
  799SOL    HW1 2411   1.195   2.157   2.793
  799SOL    HW2 2412   1.343   2.153   2.862
  800SOL     OW 2413   1.576   3.524   2.169
  800SOL    HW1 2414   1.665   3.570   2.172
  800SOL    HW2 2415   1.555   3.500   2.074
  801SOL     OW 2416   0.807   2.467   3.327
  801SOL    HW1 2417   0.760   2.464   3.416
  801SOL    HW2 2418   0.756   2.412   3.261
  802SOL     OW 2419   1.394   2.331   3.536
  802SOL    HW1 2420   1.374   2.374   3.624
  802SOL    HW2 2421   1.472   2.269   3.545
  803SOL     OW 2422   0.973   2.752   3.434
  803SOL    HW1 2423   1.019   2.668   3.405
  803SOL    HW2 2424   0.917   2.786   3.359
  804SOL     OW 2425   0.991   2.272   3.104
  804SOL    HW1 2426   0.914   2.306   3.158
  804SOL    HW2 2427   0.957   2.221   3.025
  805SOL     OW 2428   1.041   2.563   2.291
  805SOL    HW1 2429   1.067   2.559   2.387
  805SOL    HW2 2430   0.956   2.512   2.277
  806SOL     OW 2431   0.076   2.673   2.651
  806SOL    HW1 2432   0.175   2.661   2.660
  806SOL    HW2 2433   0.052   2.768   2.672
  807SOL     OW 2434   0.130   3.683   3.433
  807SOL    HW1 2435   0.120   3.668   3.532
  807SOL    HW2 2436   0.044   3.719   3.397
  808SOL     OW 2437   0.865   2.210   2.057
  808SOL    HW1 2438   0.924   2.273   2.008
  808SOL    HW2 2439   0.884   2.116   2.028
  809SOL     OW 2440   1.719   2.447   3.693
  809SOL    HW1 2441   1.693   2.536   3.657
  809SOL    HW2 2442   1.717   2.379   3.620
  810SOL     OW 2443   1.362   3.006   2.407
  810SOL    HW1 2444   1.445   2.977   2.359
  810SOL    HW2 2445   1.313   3.073   2.351
  811SOL     OW 2446   0.550   2.058   2.747
  811SOL    HW1 2447   0.545   2.053   2.847
  811SOL    HW2 2448   0.552   2.154   2.718
  812SOL     OW 2449   1.008   3.318   2.339
  812SOL    HW1 2450   0.962   3.390   2.287
  812SOL    HW2 2451   1.004   3.338   2.437
  813SOL     OW 2452   0.351   3.663   2.715
  813SOL    HW1 2453   0.401   3.577   2.721
  813SOL    HW2 2454   0.416   3.740   2.712
  814SOL     OW 2455   1.795   2.928   2.735
  814SOL    HW1 2456   1.733   2.913   2.659
  814SOL    HW2 2457   1.743   2.939   2.820
  815SOL     OW 2458   1.227   3.412   3.368
  815SOL    HW1 2459   1.233   3.335   3.432
  815SOL    HW2 2460   1.175   3.386   3.288
  816SOL     OW 2461   0.321   2.805   2.104
  816SOL    HW1 2462   0.403   2.844   2.062
  816SOL    HW2 2463   0.294   2.723   2.055
  817SOL     OW 2464   1.458   2.597   2.590
  817SOL    HW1 2465   1.453   2.532   2.665
  817SOL    HW2 2466   1.538   2.656   2.603
  818SOL     OW 2467   0.461   3.128   3.589
  818SOL    HW1 2468   0.411   3.129   3.503
  818SOL    HW2 2469   0.398   3.110   3.665
  819SOL     OW 2470   1.111   3.638   2.099
  819SOL    HW1 2471   1.051   3.576   2.149
  819SOL    HW2 2472   1.142   3.594   2.014
  820SOL     OW 2473   0.202   2.147   3.360
  820SOL    HW1 2474   0.122   2.207   3.347
  820SOL    HW2 2475   0.192   2.098   3.446
  821SOL     OW 2476   1.632   3.239   1.943
  821SOL    HW1 2477   1.600   3.333   1.933
  821SOL    HW2 2478   1.556   3.176   1.931
  822SOL     OW 2479   0.464   3.605   2.185
  822SOL    HW1 2480   0.497   3.644   2.271
  822SOL    HW2 2481   0.540   3.598   2.120
  823SOL     OW 2482   1.400   1.969   2.288
  823SOL    HW1 2483   1.376   1.932   2.198
  823SOL    HW2 2484   1.499   1.985   2.292
  824SOL     OW 2485   0.249   3.647   3.103
  824SOL    HW1 2486   0.306   3.582   3.153
  824SOL    HW2 2487   0.233   3.614   3.010
  825SOL     OW 2488   0.940   3.560   2.766
  825SOL    HW1 2489   1.020   3.503   2.787
  825SOL    HW2 2490   0.891   3.520   2.689
  826SOL     OW 2491   0.382   2.562   2.342
  826SOL    HW1 2492   0.427   2.472   2.339
  826SOL    HW2 2493   0.288   2.551   2.375
  827SOL     OW 2494   1.547   2.084   3.591
  827SOL    HW1 2495   1.542   2.121   3.683
  827SOL    HW2 2496   1.475   2.015   3.579
  828SOL     OW 2497   0.614   1.984   1.979
  828SOL    HW1 2498   0.712   1.962   1.986
  828SOL    HW2 2499   0.583   1.967   1.886
  829SOL     OW 2500   0.781   2.126   3.611
  829SOL    HW1 2501   0.848   2.065   3.654
  829SOL    HW2 2502   0.708   2.145   3.676
  830SOL     OW 2503   0.888   3.376   3.057
  830SOL    HW1 2504   0.865   3.351   2.963
  830SOL    HW2 2505   0.949   3.307   3.096
  831SOL     OW 2506   1.351   2.452   3.295
  831SOL    HW1 2507   1.379   2.409   3.380
  831SOL    HW2 2508   1.376   2.548   3.296
  832SOL     OW 2509   0.803   3.264   2.786
  832SOL    HW1 2510   0.893   3.278   2.744
  832SOL    HW2 2511   0.732   3.266   2.715
  833SOL     OW 2512   0.922   2.365   2.761
  833SOL    HW1 2513   0.897   2.356   2.665
  833SOL    HW2 2514   0.970   2.283   2.792
  834SOL     OW 2515   0.539   1.926   2.374
  834SOL    HW1 2516   0.458   1.927   2.432
  834SOL    HW2 2517   0.542   2.009   2.319
  835SOL     OW 2518   1.434   3.050   1.903
  835SOL    HW1 2519   1.466   2.974   1.960
  835SOL    HW2 2520   1.342   3.077   1.933
  836SOL     OW 2521   0.297   1.897   2.033
  836SOL    HW1 2522   0.346   1.981   2.012
  836SOL    HW2 2523   0.359   1.832   2.078
  837SOL     OW 2524   0.935   2.098   2.342
  837SOL    HW1 2525   0.887   2.139   2.264
  837SOL    HW2 2526   1.034   2.096   2.323
  838SOL     OW 2527   1.076   2.545   3.326
  838SOL    HW1 2528   0.996   2.484   3.329
  838SOL    HW2 2529   1.157   2.492   3.302
  839SOL     OW 2530   1.227   3.432   2.655
  839SOL    HW1 2531   1.248   3.506   2.590
  839SOL    HW2 2532   1.295   3.432   2.728
  840SOL     OW 2533   0.459   3.014   2.603
  840SOL    HW1 2534   0.388   2.987   2.668
  840SOL    HW2 2535   0.433   2.986   2.510
  841SOL     OW 2536   1.271   3.659   2.453
  841SOL    HW1 2537   1.315   3.723   2.389
  841SOL    HW2 2538   1.221   3.711   2.523
  842SOL     OW 2539   1.032   2.411   1.878
  842SOL    HW1 2540   0.991   2.493   1.839
  842SOL    HW2 2541   1.096   2.437   1.951
  843SOL     OW 2542   0.078   2.418   3.248
  843SOL    HW1 2543   0.170   2.417   3.207
  843SOL    HW2 2544   0.072   2.492   3.315
  844SOL     OW 2545   0.561   2.084   3.009
  844SOL    HW1 2546   0.599   2.000   3.046
  844SOL    HW2 2547   0.473   2.103   3.053
  845SOL     OW 2548   0.866   2.316   2.504
  845SOL    HW1 2549   0.834   2.388   2.442
  845SOL    HW2 2550   0.890   2.235   2.451
  846SOL     OW 2551   1.017   1.901   2.615
  846SOL    HW1 2552   0.945   1.906   2.546
  846SOL    HW2 2553   0.993   1.832   2.684
  847SOL     OW 2554   1.429   3.035   2.729
  847SOL    HW1 2555   1.374   2.951   2.722
  847SOL    HW2 2556   1.455   3.064   2.637
  848SOL     OW 2557   1.466   2.452   2.854
  848SOL    HW1 2558   1.436   2.357   2.861
  848SOL    HW2 2559   1.539   2.468   2.920
  849SOL     OW 2560   1.857   2.695   2.239
  849SOL    HW1 2561   1.899   2.631   2.303
  849SOL    HW2 2562   1.819   2.644   2.161
  850SOL     OW 2563   0.488   3.247   2.036
  850SOL    HW1 2564   0.401   3.232   2.083
  850SOL    HW2 2565   0.471   3.273   1.941
  851SOL     OW 2566   1.664   3.142   2.519
  851SOL    HW1 2567   1.763   3.150   2.533
  851SOL    HW2 2568   1.619   3.226   2.550
  852SOL     OW 2569   1.390   2.437   1.940
  852SOL    HW1 2570   1.336   2.416   2.021
  852SOL    HW2 2571   1.481   2.396   1.949
  853SOL     OW 2572   0.527   2.118   2.190
  853SOL    HW1 2573   0.554   2.059   2.115
  853SOL    HW2 2574   0.527   2.213   2.159
  854SOL     OW 2575   1.754   3.085   3.450
  854SOL    HW1 2576   1.845   3.046   3.437
  854SOL    HW2 2577   1.762   3.181   3.474
  855SOL     OW 2578   1.064   3.209   3.202
  855SOL    HW1 2579   0.984   3.186   3.257
  855SOL    HW2 2580   1.147   3.183   3.251
  856SOL     OW 2581   1.592   3.491   3.487
  856SOL    HW1 2582   1.619   3.525   3.397
  856SOL    HW2 2583   1.671   3.453   3.533
  857SOL     OW 2584   1.111   3.057   2.962
  857SOL    HW1 2585   1.071   3.101   3.043
  857SOL    HW2 2586   1.070   3.094   2.879
  858SOL     OW 2587   1.638   2.961   2.941
  858SOL    HW1 2588   1.643   3.042   3.000
  858SOL    HW2 2589   1.552   2.963   2.890
  859SOL     OW 2590   0.915   1.951   3.264
  859SOL    HW1 2591   0.940   1.931   3.169
  859SOL    HW2 2592   0.987   2.007   3.306
  860SOL     OW 2593   0.980   2.978   3.581
  860SOL    HW1 2594   0.881   2.984   3.591
  860SOL    HW2 2595   1.003   2.898   3.525
  861SOL     OW 2596   0.705   2.912   2.230
  861SOL    HW1 2597   0.691   2.919   2.329
  861SOL    HW2 2598   0.789   2.861   2.212
  862SOL     OW 2599   0.410   2.675   3.113
  862SOL    HW1 2600   0.496   2.687   3.163
  862SOL    HW2 2601   0.368   2.588   3.140
  863SOL     OW 2602   1.274   2.248   3.124
  863SOL    HW1 2603   1.295   2.322   3.188
  863SOL    HW2 2604   1.185   2.265   3.081
  864SOL     OW 2605   0.064   3.426   3.193
  864SOL    HW1 2606   0.018   3.508   3.159
  864SOL    HW2 2607   0.162   3.445   3.202
  865SOL     OW 2608   0.367   2.962   2.363
  865SOL    HW1 2609   0.360   3.045   2.307
  865SOL    HW2 2610   0.371   2.882   2.303
  866SOL     OW 2611   0.566   2.399   2.727
  866SOL    HW1 2612   0.578   2.465   2.653
  866SOL    HW2 2613   0.612   2.433   2.810
  867SOL     OW 2614   1.252   3.210   2.250
  867SOL    HW1 2615   1.302   3.287   2.290
  867SOL    HW2 2616   1.157   3.212   2.282
  868SOL     OW 2617   1.272   3.307   3.004
  868SOL    HW1 2618   1.319   3.320   3.091
  868SOL    HW2 2619   1.206   3.233   3.013
  869SOL     OW 2620   1.582   2.501   2.334
  869SOL    HW1 2621   1.551   2.562   2.407
  869SOL    HW2 2622   1.632   2.553   2.265
  870SOL     OW 2623   0.354   3.372   3.191
  870SOL    HW1 2624   0.333   3.328   3.104
  870SOL    HW2 2625   0.451   3.398   3.194
  871SOL     OW 2626   0.402   2.613   3.460
  871SOL    HW1 2627   0.470   2.668   3.413
  871SOL    HW2 2628   0.442   2.525   3.487
  872SOL     OW 2629   1.587   2.641   3.532
  872SOL    HW1 2630   1.495   2.679   3.527
  872SOL    HW2 2631   1.647   2.688   3.467
  873SOL     OW 2632   1.013   1.967   3.632
  873SOL    HW1 2633   1.019   2.052   3.580
  873SOL    HW2 2634   1.045   1.891   3.575
  874SOL     OW 2635   0.504   1.912   3.602
  874SOL    HW1 2636   0.462   1.855   3.532
  874SOL    HW2 2637   0.438   1.981   3.634
  875SOL     OW 2638   0.573   2.732   2.891
  875SOL    HW1 2639   0.617   2.821   2.882
  875SOL    HW2 2640   0.510   2.732   2.968
  876SOL     OW 2641   1.360   2.724   2.907
  876SOL    HW1 2642   1.285   2.724   2.841
  876SOL    HW2 2643   1.397   2.632   2.916
  877SOL     OW 2644   1.209   2.387   2.137
  877SOL    HW1 2645   1.222   2.303   2.191
  877SOL    HW2 2646   1.180   2.461   2.197
  878SOL     OW 2647   0.307   2.075   3.093
  878SOL    HW1 2648   0.284   2.112   3.183
  878SOL    HW2 2649   0.277   1.980   3.087
  879SOL     OW 2650   0.037   3.172   3.144
  879SOL    HW1 2651   0.090   3.123   3.212
  879SOL    HW2 2652   0.059   3.270   3.149
  880SOL     OW 2653   0.732   2.496   2.926
  880SOL    HW1 2654   0.791   2.470   2.850
  880SOL    HW2 2655   0.704   2.592   2.915
  881SOL     OW 2656   1.728   2.797   3.716
  881SOL    HW1 2657   1.682   2.790   3.627
  881SOL    HW2 2658   1.666   2.841   3.782
  882SOL     OW 2659   0.307   1.925   2.480
  882SOL    HW1 2660   0.296   2.019   2.513
  882SOL    HW2 2661   0.302   1.862   2.557
  883SOL     OW 2662   1.622   2.229   2.236
  883SOL    HW1 2663   1.624   2.153   2.300
  883SOL    HW2 2664   1.574   2.306   2.276
  884SOL     OW 2665   1.023   2.628   2.828
  884SOL    HW1 2666   1.038   2.649   2.924
  884SOL    HW2 2667   0.993   2.533   2.819
  885SOL     OW 2668   0.980   3.435   3.562
  885SOL    HW1 2669   0.960   3.479   3.474
  885SOL    HW2 2670   1.019   3.344   3.546
  886SOL     OW 2671   1.859   3.380   3.467
  886SOL    HW1 2672   1.873   3.407   3.372
  886SOL    HW2 2673   1.942   3.402   3.520
  887SOL     OW 2674   0.350   2.760   3.666
  887SOL    HW1 2675   0.426   2.804   3.714
  887SOL    HW2 2676   0.385   2.713   3.584
  888SOL     OW 2677   1.540   2.136   1.987
  888SOL    HW1 2678   1.479   2.061   2.010
  888SOL    HW2 2679   1.562   2.188   2.070
  889SOL     OW 2680   1.303   2.700   1.904
  889SOL    HW1 2681   1.337   2.607   1.919
  889SOL    HW2 2682   1.321   2.727   1.809
  890SOL     OW 2683   1.068   3.195   2.711
  890SOL    HW1 2684   1.075   3.111   2.656
  890SOL    HW2 2685   1.130   3.264   2.675
  891SOL     OW 2686   0.319   2.672   2.811
  891SOL    HW1 2687   0.412   2.708   2.816
  891SOL    HW2 2688   0.313   2.587   2.863
  892SOL     OW 2689   0.339   2.371   2.868
  892SOL    HW1 2690   0.287   2.288   2.851
  892SOL    HW2 2691   0.416   2.376   2.804
  893SOL     OW 2692   1.138   2.242   3.540
  893SOL    HW1 2693   1.093   2.305   3.604
  893SOL    HW2 2694   1.231   2.273   3.523
  894SOL     OW 2695   1.160   2.069   3.339
  894SOL    HW1 2696   1.160   2.133   3.416
  894SOL    HW2 2697   1.188   2.117   3.256
  895SOL     OW 2698   0.008   3.188   2.062
  895SOL    HW1 2699  -0.085   3.209   2.031
  895SOL    HW2 2700   0.018   3.089   2.075
  896SOL     OW 2701   0.088   3.663   2.789
  896SOL    HW1 2702   0.046   3.577   2.762
  896SOL    HW2 2703   0.182   3.666   2.755
  897SOL     OW 2704   0.504   3.430   2.772
  897SOL    HW1 2705   0.570   3.504   2.781
  897SOL    HW2 2706   0.548   3.351   2.730
  898SOL     OW 2707   1.002   2.658   3.100
  898SOL    HW1 2708   1.043   2.626   3.186
  898SOL    HW2 2709   0.906   2.631   3.097
  899SOL     OW 2710   0.040   2.406   2.976
  899SOL    HW1 2711   0.125   2.373   2.935
  899SOL    HW2 2712   0.053   2.421   3.074
  900SOL     OW 2713   0.189   2.382   3.584
  900SOL    HW1 2714   0.248   2.342   3.514
  900SOL    HW2 2715   0.131   2.453   3.543
  901SOL     OW 2716   1.369   2.812   3.522
  901SOL    HW1 2717   1.408   2.901   3.542
  901SOL    HW2 2718   1.379   2.792   3.425
  902SOL     OW 2719   0.815   2.434   2.187
  902SOL    HW1 2720   0.822   2.345   2.141
  902SOL    HW2 2721   0.721   2.468   2.179
  903SOL     OW 2722   1.657   2.466   3.068
  903SOL    HW1 2723   1.619   2.397   3.130
  903SOL    HW2 2724   1.739   2.430   3.024
  904SOL     OW 2725   0.252   3.426   3.606
  904SOL    HW1 2726   0.222   3.483   3.682
  904SOL    HW2 2727   0.245   3.329   3.632
  905SOL     OW 2728   0.671   2.326   3.131
  905SOL    HW1 2729   0.637   2.237   3.101
  905SOL    HW2 2730   0.697   2.380   3.051
  906SOL     OW 2731   0.930   3.540   3.327
  906SOL    HW1 2732   0.906   3.522   3.232
  906SOL    HW2 2733   0.960   3.634   3.337
  907SOL     OW 2734   0.473   2.362   2.053
  907SOL    HW1 2735   0.534   2.442   2.057
  907SOL    HW2 2736   0.378   2.393   2.060
  908SOL     OW 2737   0.159   2.999   3.328
  908SOL    HW1 2738   0.181   2.938   3.404
  908SOL    HW2 2739   0.169   2.950   3.242
  909SOL     OW 2740   1.347   2.921   3.096
  909SOL    HW1 2741   1.371   2.858   3.022
  909SOL    HW2 2742   1.257   2.961   3.078
  910SOL     OW 2743   1.302   2.717   2.171
  910SOL    HW1 2744   1.216   2.686   2.213
  910SOL    HW2 2745   1.298   2.703   2.072
  911SOL     OW 2746   1.759   3.609   3.016
  911SOL    HW1 2747   1.820   3.639   2.943
  911SOL    HW2 2748   1.721   3.520   2.994
  912SOL     OW 2749   1.252   3.593   2.990
  912SOL    HW1 2750   1.336   3.598   2.936
  912SOL    HW2 2751   1.229   3.497   3.008
  913SOL     OW 2752   0.083   3.120   2.884
  913SOL    HW1 2753   0.078   3.119   2.984
  913SOL    HW2 2754   0.000   3.079   2.846
  914SOL     OW 2755   0.688   3.524   3.578
  914SOL    HW1 2756   0.632   3.605   3.587
  914SOL    HW2 2757   0.740   3.528   3.492
  915SOL     OW 2758   1.726   1.997   2.385
  915SOL    HW1 2759   1.799   1.980   2.318
  915SOL    HW2 2760   1.695   1.910   2.423
  916SOL     OW 2761   1.388   3.435   2.339
  916SOL    HW1 2762   1.455   3.447   2.265
  916SOL    HW2 2763   1.348   3.524   2.362
  917SOL     OW 2764   0.130   3.656   3.713
  917SOL    HW1 2765   0.089   3.582   3.766
  917SOL    HW2 2766   0.194   3.707   3.771
  918SOL     OW 2767   1.280   2.789   2.534
  918SOL    HW1 2768   1.340   2.708   2.536
  918SOL    HW2 2769   1.320   2.858   2.474
  919SOL     OW 2770   0.830   3.135   3.284
  919SOL    HW1 2771   0.825   3.168   3.379
  919SOL    HW2 2772   0.744   3.154   3.238
  920SOL     OW 2773   0.672   3.478   2.016
  920SOL    HW1 2774   0.681   3.488   1.917
  920SOL    HW2 2775   0.632   3.389   2.037
  921SOL     OW 2776   1.650   3.582   3.256
  921SOL    HW1 2777   1.703   3.592   3.172
  921SOL    HW2 2778   1.623   3.672   3.290
  922SOL     OW 2779   1.841   2.037   2.825
  922SOL    HW1 2780   1.880   1.952   2.789
  922SOL    HW2 2781   1.743   2.039   2.806
  923SOL     OW 2782   0.263   2.188   2.582
  923SOL    HW1 2783   0.184   2.239   2.548
  923SOL    HW2 2784   0.254   2.173   2.680
  924SOL     OW 2785   1.194   3.474   1.893
  924SOL    HW1 2786   1.200   3.381   1.930
  924SOL    HW2 2787   1.135   3.474   1.813
  925SOL     OW 2788   0.822   2.864   3.234
  925SOL    HW1 2789   0.862   2.863   3.142
  925SOL    HW2 2790   0.832   2.956   3.274
  926SOL     OW 2791   0.916   2.772   2.153
  926SOL    HW1 2792   0.979   2.810   2.085
  926SOL    HW2 2793   0.956   2.689   2.192
  927SOL     OW 2794   1.504   3.469   1.906
  927SOL    HW1 2795   1.412   3.506   1.913
  927SOL    HW2 2796   1.542   3.489   1.816
  928SOL     OW 2797   0.372   3.150   3.352
  928SOL    HW1 2798   0.359   3.243   3.318
  928SOL    HW2 2799   0.288   3.098   3.339
  929SOL     OW 2800   1.614   3.154   3.151
  929SOL    HW1 2801   1.674   3.157   3.231
  929SOL    HW2 2802   1.539   3.218   3.164
  930SOL     OW 2803   1.039   2.960   2.558
  930SOL    HW1 2804   0.969   2.913   2.612
  930SOL    HW2 2805   1.098   2.892   2.515
  931SOL     OW 2806   1.014   2.098   2.833
  931SOL    HW1 2807   1.006   2.062   2.740
  931SOL    HW2 2808   1.012   2.022   2.898
  932SOL     OW 2809   0.590   3.349   2.353
  932SOL    HW1 2810   0.632   3.291   2.283
  932SOL    HW2 2811   0.546   3.428   2.309
  933SOL     OW 2812   1.709   2.247   3.243
  933SOL    HW1 2813   1.782   2.316   3.247
  933SOL    HW2 2814   1.737   2.172   3.184
  934SOL     OW 2815   0.255   3.210   2.152
  934SOL    HW1 2816   0.159   3.211   2.125
  934SOL    HW2 2817   0.267   3.263   2.236
  935SOL     OW 2818   0.105   2.875   3.588
  935SOL    HW1 2819   0.028   2.842   3.642
  935SOL    HW2 2820   0.190   2.845   3.630
  936SOL     OW 2821   0.672   2.065   3.351
  936SOL    HW1 2822   0.762   2.049   3.311
  936SOL    HW2 2823   0.680   2.070   3.450
  937SOL     OW 2824   0.075   2.207   1.895
  937SOL    HW1 2825  -0.017   2.179   1.866
  937SOL    HW2 2826   0.106   2.284   1.839
  938SOL     OW 2827   1.440   2.718   3.260
  938SOL    HW1 2828   1.383   2.770   3.197
  938SOL    HW2 2829   1.536   2.730   3.236
  939SOL     OW 2830   0.072   2.028   2.180
  939SOL    HW1 2831   0.055   2.111   2.126
  939SOL    HW2 2832   0.162   1.991   2.158
  940SOL     OW 2833   1.183   3.197   1.981
  940SOL    HW1 2834   1.084   3.186   1.983
  940SOL    HW2 2835   1.217   3.212   2.074
  941SOL     OW 2836   0.613   2.704   3.293
  941SOL    HW1 2837   0.669   2.785   3.276
  941SOL    HW2 2838   0.672   2.624   3.296
  942SOL     OW 2839   1.493   3.629   2.821
  942SOL    HW1 2840   1.526   3.693   2.752
  942SOL    HW2 2841   1.559   3.623   2.896
  943SOL     OW 2842   0.716   2.427   3.570
  943SOL    HW1 2843   0.735   2.492   3.644
  943SOL    HW2 2844   0.776   2.347   3.579
  944SOL     OW 2845   1.450   3.082   3.495
  944SOL    HW1 2846   1.441   3.072   3.594
  944SOL    HW2 2847   1.546   3.075   3.469
  945SOL     OW 2848   0.390   3.603   3.422
  945SOL    HW1 2849   0.299   3.644   3.420
  945SOL    HW2 2850   0.383   3.509   3.454
  946SOL     OW 2851   1.674   2.745   3.116
  946SOL    HW1 2852   1.647   2.656   3.079
  946SOL    HW2 2853   1.675   2.813   3.043
  947SOL     OW 2854   1.225   2.187   2.311
  947SOL    HW1 2855   1.290   2.113   2.300
  947SOL    HW2 2856   1.245   2.237   2.395
  948SOL     OW 2857   0.594   2.607   2.514
  948SOL    HW1 2858   0.644   2.692   2.495
  948SOL    HW2 2859   0.506   2.609   2.466
  949SOL     OW 2860   1.777   2.204   3.504
  949SOL    HW1 2861   1.760   2.235   3.410
  949SOL    HW2 2862   1.693   2.167   3.542
  950SOL     OW 2863   1.730   2.796   3.379
  950SOL    HW1 2864   1.768   2.887   3.394
  950SOL    HW2 2865   1.722   2.779   3.280
  951SOL     OW 2866   0.859   3.236   1.878
  951SOL    HW1 2867   0.813   3.251   1.966
  951SOL    HW2 2868   0.903   3.321   1.848
  952SOL     OW 2869   0.661   3.652   2.815
  952SOL    HW1 2870   0.615   3.740   2.802
  952SOL    HW2 2871   0.760   3.664   2.808
  953SOL     OW 2872   0.859   2.818   2.723
  953SOL    HW1 2873   0.913   2.749   2.771
  953SOL    HW2 2874   0.827   2.887   2.789
  954SOL     OW 2875   1.083   2.846   1.949
  954SOL    HW1 2876   1.060   2.899   1.867
  954SOL    HW2 2877   1.164   2.790   1.930
  955SOL     OW 2878   1.861   3.431   2.713
  955SOL    HW1 2879   1.790   3.419   2.643
  955SOL    HW2 2880   1.862   3.352   2.773
  956SOL     OW 2881   0.221   3.176   3.706
  956SOL    HW1 2882   0.156   3.103   3.685
  956SOL    HW2 2883   0.225   3.190   3.804
  957SOL     OW 2884   0.079   3.102   2.515
  957SOL    HW1 2885   0.078   3.055   2.603
  957SOL    HW2 2886   0.161   3.074   2.464
  958SOL     OW 2887   0.672   3.253   3.486
  958SOL    HW1 2888   0.594   3.203   3.524
  958SOL    HW2 2889   0.669   3.348   3.517
  959SOL     OW 2890   1.824   2.054   3.089
  959SOL    HW1 2891   1.820   1.964   3.133
  959SOL    HW2 2892   1.827   2.043   2.990
  960SOL     OW 2893   0.428   2.286   2.382
  960SOL    HW1 2894   0.458   2.214   2.320
  960SOL    HW2 2895   0.389   2.246   2.465
  961SOL     OW 2896   1.705   3.349   2.966
  961SOL    HW1 2897   1.612   3.324   2.939
  961SOL    HW2 2898   1.731   3.299   3.048
  962SOL     OW 2899   0.317   2.409   3.142
  962SOL    HW1 2900   0.355   2.350   3.214
  962SOL    HW2 2901   0.357   2.383   3.054
  963SOL     OW 2902   0.812   3.448   2.549
  963SOL    HW1 2903   0.844   3.458   2.455
  963SOL    HW2 2904   0.733   3.386   2.551
  964SOL     OW 2905   1.424   2.076   2.974
  964SOL    HW1 2906   1.476   2.011   3.029
  964SOL    HW2 2907   1.375   2.139   3.035
  965SOL     OW 2908   1.001   1.896   3.016
  965SOL    HW1 2909   0.938   1.824   2.985
  965SOL    HW2 2910   1.094   1.860   3.016
  966SOL     OW 2911   0.770   3.192   2.163
  966SOL    HW1 2912   0.724   3.105   2.180
  966SOL    HW2 2913   0.861   3.189   2.204
  967SOL     OW 2914   0.618   3.429   3.146
  967SOL    HW1 2915   0.613   3.511   3.203
  967SOL    HW2 2916   0.707   3.426   3.101
  968SOL     OW 2917   1.352   1.914   2.030
  968SOL    HW1 2918   1.387   1.873   1.946
  968SOL    HW2 2919   1.262   1.876   2.050
  969SOL     OW 2920   1.300   2.315   2.553
  969SOL    HW1 2921   1.241   2.395   2.557
  969SOL    HW2 2922   1.315   2.280   2.646
  970SOL     OW 2923   1.593   2.083   2.744
  970SOL    HW1 2924   1.509   2.082   2.798
  970SOL    HW2 2925   1.595   2.166   2.688
  971SOL     OW 2926   0.039   2.939   2.162
  971SOL    HW1 2927   0.138   2.928   2.153
  971SOL    HW2 2928  -0.001   2.853   2.194
  972SOL     OW 2929   0.875   3.508   2.199
  972SOL    HW1 2930   0.798   3.473   2.145
  972SOL    HW2 2931   0.843   3.579   2.261
  973SOL     OW 2932   0.230   2.490   3.837
  973SOL    HW1 2933   0.137   2.488   3.874
  973SOL    HW2 2934   0.231   2.451   3.745
  974SOL     OW 2935   0.225   2.137   4.720
  974SOL    HW1 2936   0.260   2.120   4.812
  974SOL    HW2 2937   0.137   2.092   4.708
  975SOL     OW 2938   0.019   2.230   4.371
  975SOL    HW1 2939  -0.063   2.273   4.410
  975SOL    HW2 2940  -0.009   2.157   4.308
  976SOL     OW 2941   1.555   3.373   4.427
  976SOL    HW1 2942   1.498   3.357   4.508
  976SOL    HW2 2943   1.496   3.383   4.347
  977SOL     OW 2944   1.135   2.565   4.441
  977SOL    HW1 2945   1.192   2.643   4.416
  977SOL    HW2 2946   1.075   2.591   4.517
  978SOL     OW 2947   1.755   2.469   3.955
  978SOL    HW1 2948   1.743   2.456   3.856
  978SOL    HW2 2949   1.725   2.388   4.004
  979SOL     OW 2950   0.768   3.006   4.747
  979SOL    HW1 2951   0.690   3.023   4.807
  979SOL    HW2 2952   0.802   3.093   4.711
  980SOL     OW 2953   0.685   2.874   4.389
  980SOL    HW1 2954   0.754   2.858   4.459
  980SOL    HW2 2955   0.612   2.931   4.427
  981SOL     OW 2956   0.335   3.297   4.785
  981SOL    HW1 2957   0.257   3.266   4.732
  981SOL    HW2 2958   0.393   3.355   4.728
  982SOL     OW 2959   1.603   2.309   4.461
  982SOL    HW1 2960   1.529   2.355   4.411
  982SOL    HW2 2961   1.654   2.377   4.514
  983SOL     OW 2962   0.231   3.575   4.207
  983SOL    HW1 2963   0.265   3.652   4.261
  983SOL    HW2 2964   0.275   3.575   4.117
  984SOL     OW 2965   0.230   3.296   4.262
  984SOL    HW1 2966   0.204   3.392   4.262
  984SOL    HW2 2967   0.159   3.242   4.307
  985SOL     OW 2968   0.240   2.953   4.610
  985SOL    HW1 2969   0.254   2.869   4.662
  985SOL    HW2 2970   0.185   3.017   4.665
  986SOL     OW 2971   0.606   2.826   3.847
  986SOL    HW1 2972   0.613   2.910   3.793
  986SOL    HW2 2973   0.652   2.839   3.935
  987SOL     OW 2974   0.122   2.505   4.287
  987SOL    HW1 2975   0.077   2.417   4.304
  987SOL    HW2 2976   0.121   2.559   4.371
  988SOL     OW 2977   1.842   3.629   4.083
  988SOL    HW1 2978   1.896   3.600   4.163
  988SOL    HW2 2979   1.872   3.719   4.054
  989SOL     OW 2980   0.027   3.458   3.841
  989SOL    HW1 2981   0.008   3.362   3.862
  989SOL    HW2 2982  -0.006   3.516   3.916
  990SOL     OW 2983   1.689   2.784   4.336
  990SOL    HW1 2984   1.784   2.755   4.344
  990SOL    HW2 2985   1.681   2.849   4.261
  991SOL     OW 2986   1.641   2.970   4.156
  991SOL    HW1 2987   1.727   2.972   4.104
  991SOL    HW2 2988   1.655   3.017   4.244
  992SOL     OW 2989   0.613   3.227   4.450
  992SOL    HW1 2990   0.564   3.140   4.459
  992SOL    HW2 2991   0.590   3.270   4.363
  993SOL     OW 2992   0.809   1.866   4.226
  993SOL    HW1 2993   0.849   1.957   4.217
  993SOL    HW2 2994   0.709   1.874   4.232
  994SOL     OW 2995   1.525   2.861   3.914
  994SOL    HW1 2996   1.462   2.785   3.927
  994SOL    HW2 2997   1.573   2.879   4.000
  995SOL     OW 2998   1.466   3.279   4.677
  995SOL    HW1 2999   1.407   3.285   4.757
  995SOL    HW2 3000   1.451   3.191   4.631
  996SOL     OW 3001   1.667   3.576   4.296
  996SOL    HW1 3002   1.626   3.553   4.208
  996SOL    HW2 3003   1.649   3.502   4.361
  997SOL     OW 3004   0.598   2.591   3.994
  997SOL    HW1 3005   0.622   2.660   3.926
  997SOL    HW2 3006   0.520   2.624   4.048
  998SOL     OW 3007   1.281   2.207   4.668
  998SOL    HW1 3008   1.195   2.157   4.655
  998SOL    HW2 3009   1.343   2.153   4.724
  999SOL     OW 3010   1.576   3.524   4.031
  999SOL    HW1 3011   1.665   3.570   4.034
  999SOL    HW2 3012   1.555   3.500   3.936
 1000SOL     OW 3013   1.041   2.563   4.153
 1000SOL    HW1 3014   1.067   2.559   4.249
 1000SOL    HW2 3015   0.956   2.512   4.139
 1001SOL     OW 3016   0.076   2.673   4.513
 1001SOL    HW1 3017   0.175   2.661   4.522
 1001SOL    HW2 3018   0.052   2.768   4.534
 1002SOL     OW 3019   0.865   2.210   3.919
 1002SOL    HW1 3020   0.924   2.273   3.870
 1002SOL    HW2 3021   0.884   2.116   3.890
 1003SOL     OW 3022   1.362   3.006   4.269
 1003SOL    HW1 3023   1.445   2.977   4.221
 1003SOL    HW2 3024   1.313   3.073   4.213
 1004SOL     OW 3025   0.550   2.058   4.609
 1004SOL    HW1 3026   0.545   2.053   4.709
 1004SOL    HW2 3027   0.552   2.154   4.580
 1005SOL     OW 3028   1.008   3.318   4.201
 1005SOL    HW1 3029   0.962   3.390   4.149
 1005SOL    HW2 3030   1.004   3.338   4.299
 1006SOL     OW 3031   0.351   3.663   4.577
 1006SOL    HW1 3032   0.401   3.577   4.583
 1006SOL    HW2 3033   0.416   3.740   4.574
 1007SOL     OW 3034   1.795   2.928   4.597
 1007SOL    HW1 3035   1.733   2.913   4.521
 1007SOL    HW2 3036   1.743   2.939   4.682
 1008SOL     OW 3037   0.321   2.805   3.966
 1008SOL    HW1 3038   0.403   2.844   3.924
 1008SOL    HW2 3039   0.294   2.723   3.917
 1009SOL     OW 3040   1.458   2.597   4.452
 1009SOL    HW1 3041   1.453   2.532   4.527
 1009SOL    HW2 3042   1.538   2.656   4.465
 1010SOL     OW 3043   1.111   3.638   3.961
 1010SOL    HW1 3044   1.051   3.576   4.011
 1010SOL    HW2 3045   1.142   3.594   3.876
 1011SOL     OW 3046   1.632   3.239   3.805
 1011SOL    HW1 3047   1.600   3.333   3.795
 1011SOL    HW2 3048   1.556   3.176   3.793
 1012SOL     OW 3049   0.464   3.605   4.047
 1012SOL    HW1 3050   0.497   3.644   4.133
 1012SOL    HW2 3051   0.540   3.598   3.982
 1013SOL     OW 3052   1.400   1.969   4.150
 1013SOL    HW1 3053   1.376   1.932   4.060
 1013SOL    HW2 3054   1.499   1.985   4.154
 1014SOL     OW 3055   0.249   3.647   4.965
 1014SOL    HW1 3056   0.306   3.582   5.015
 1014SOL    HW2 3057   0.233   3.614   4.872
 1015SOL     OW 3058   0.940   3.560   4.628
 1015SOL    HW1 3059   1.020   3.503   4.649
 1015SOL    HW2 3060   0.891   3.520   4.551
 1016SOL     OW 3061   0.382   2.562   4.204
 1016SOL    HW1 3062   0.427   2.472   4.201
 1016SOL    HW2 3063   0.288   2.551   4.237
 1017SOL     OW 3064   0.614   1.984   3.841
 1017SOL    HW1 3065   0.712   1.962   3.848
 1017SOL    HW2 3066   0.583   1.967   3.748
 1018SOL     OW 3067   0.803   3.264   4.648
 1018SOL    HW1 3068   0.893   3.278   4.606
 1018SOL    HW2 3069   0.732   3.266   4.577
 1019SOL     OW 3070   0.922   2.365   4.623
 1019SOL    HW1 3071   0.897   2.356   4.527
 1019SOL    HW2 3072   0.970   2.283   4.654
 1020SOL     OW 3073   0.539   1.926   4.236
 1020SOL    HW1 3074   0.458   1.927   4.294
 1020SOL    HW2 3075   0.542   2.009   4.181
 1021SOL     OW 3076   1.434   3.050   3.765
 1021SOL    HW1 3077   1.466   2.974   3.822
 1021SOL    HW2 3078   1.342   3.077   3.795
 1022SOL     OW 3079   0.297   1.897   3.895
 1022SOL    HW1 3080   0.346   1.981   3.874
 1022SOL    HW2 3081   0.359   1.832   3.940
 1023SOL     OW 3082   0.935   2.098   4.204
 1023SOL    HW1 3083   0.887   2.139   4.126
 1023SOL    HW2 3084   1.034   2.096   4.185
 1024SOL     OW 3085   1.227   3.432   4.517
 1024SOL    HW1 3086   1.248   3.506   4.452
 1024SOL    HW2 3087   1.295   3.432   4.590
 1025SOL     OW 3088   0.459   3.014   4.465
 1025SOL    HW1 3089   0.388   2.987   4.530
 1025SOL    HW2 3090   0.433   2.986   4.372
 1026SOL     OW 3091   1.271   3.659   4.315
 1026SOL    HW1 3092   1.315   3.723   4.251
 1026SOL    HW2 3093   1.221   3.711   4.385
 1027SOL     OW 3094   1.032   2.411   3.740
 1027SOL    HW1 3095   0.991   2.493   3.701
 1027SOL    HW2 3096   1.096   2.437   3.813
 1028SOL     OW 3097   0.866   2.316   4.366
 1028SOL    HW1 3098   0.834   2.388   4.304
 1028SOL    HW2 3099   0.890   2.235   4.313
 1029SOL     OW 3100   1.017   1.901   4.477
 1029SOL    HW1 3101   0.945   1.906   4.408
 1029SOL    HW2 3102   0.993   1.832   4.546
 1030SOL     OW 3103   1.429   3.035   4.591
 1030SOL    HW1 3104   1.374   2.951   4.584
 1030SOL    HW2 3105   1.455   3.064   4.499
 1031SOL     OW 3106   1.466   2.452   4.716
 1031SOL    HW1 3107   1.436   2.357   4.723
 1031SOL    HW2 3108   1.539   2.468   4.782
 1032SOL     OW 3109   1.857   2.695   4.101
 1032SOL    HW1 3110   1.899   2.631   4.165
 1032SOL    HW2 3111   1.819   2.644   4.023
 1033SOL     OW 3112   0.488   3.247   3.898
 1033SOL    HW1 3113   0.401   3.232   3.945
 1033SOL    HW2 3114   0.471   3.273   3.803
 1034SOL     OW 3115   1.664   3.142   4.381
 1034SOL    HW1 3116   1.763   3.150   4.395
 1034SOL    HW2 3117   1.619   3.226   4.412
 1035SOL     OW 3118   1.390   2.437   3.802
 1035SOL    HW1 3119   1.336   2.416   3.883
 1035SOL    HW2 3120   1.481   2.396   3.811
 1036SOL     OW 3121   0.527   2.118   4.052
 1036SOL    HW1 3122   0.554   2.059   3.977
 1036SOL    HW2 3123   0.527   2.213   4.021
 1037SOL     OW 3124   1.638   2.961   4.803
 1037SOL    HW1 3125   1.643   3.042   4.862
 1037SOL    HW2 3126   1.552   2.963   4.752
 1038SOL     OW 3127   0.705   2.912   4.092
 1038SOL    HW1 3128   0.691   2.919   4.191
 1038SOL    HW2 3129   0.789   2.861   4.074
 1039SOL     OW 3130   0.367   2.962   4.225
 1039SOL    HW1 3131   0.360   3.045   4.169
 1039SOL    HW2 3132   0.371   2.882   4.165
 1040SOL     OW 3133   0.566   2.399   4.589
 1040SOL    HW1 3134   0.578   2.465   4.515
 1040SOL    HW2 3135   0.612   2.433   4.672
 1041SOL     OW 3136   1.252   3.210   4.112
 1041SOL    HW1 3137   1.302   3.287   4.152
 1041SOL    HW2 3138   1.157   3.212   4.144
 1042SOL     OW 3139   1.582   2.501   4.196
 1042SOL    HW1 3140   1.551   2.562   4.269
 1042SOL    HW2 3141   1.632   2.553   4.127
 1043SOL     OW 3142   0.573   2.732   4.753
 1043SOL    HW1 3143   0.617   2.821   4.744
 1043SOL    HW2 3144   0.510   2.732   4.830
 1044SOL     OW 3145   1.209   2.387   3.999
 1044SOL    HW1 3146   1.222   2.303   4.053
 1044SOL    HW2 3147   1.180   2.461   4.059
 1045SOL     OW 3148   0.307   2.075   4.955
 1045SOL    HW1 3149   0.284   2.112   5.045
 1045SOL    HW2 3150   0.277   1.980   4.949
 1046SOL     OW 3151   0.732   2.496   4.788
 1046SOL    HW1 3152   0.791   2.470   4.712
 1046SOL    HW2 3153   0.704   2.592   4.777
 1047SOL     OW 3154   0.307   1.925   4.342
 1047SOL    HW1 3155   0.296   2.019   4.375
 1047SOL    HW2 3156   0.302   1.862   4.419
 1048SOL     OW 3157   1.622   2.229   4.098
 1048SOL    HW1 3158   1.624   2.153   4.162
 1048SOL    HW2 3159   1.574   2.306   4.138
 1049SOL     OW 3160   1.540   2.136   3.849
 1049SOL    HW1 3161   1.479   2.061   3.872
 1049SOL    HW2 3162   1.562   2.188   3.932
 1050SOL     OW 3163   1.303   2.700   3.766
 1050SOL    HW1 3164   1.337   2.607   3.781
 1050SOL    HW2 3165   1.321   2.727   3.671
 1051SOL     OW 3166   1.068   3.195   4.573
 1051SOL    HW1 3167   1.075   3.111   4.518
 1051SOL    HW2 3168   1.130   3.264   4.537
 1052SOL     OW 3169   0.319   2.672   4.673
 1052SOL    HW1 3170   0.412   2.708   4.678
 1052SOL    HW2 3171   0.313   2.587   4.725
 1053SOL     OW 3172   0.339   2.371   4.730
 1053SOL    HW1 3173   0.287   2.288   4.713
 1053SOL    HW2 3174   0.416   2.376   4.666
 1054SOL     OW 3175   0.008   3.188   3.924
 1054SOL    HW1 3176  -0.085   3.209   3.893
 1054SOL    HW2 3177   0.018   3.089   3.937
 1055SOL     OW 3178   0.088   3.663   4.651
 1055SOL    HW1 3179   0.046   3.577   4.624
 1055SOL    HW2 3180   0.182   3.666   4.617
 1056SOL     OW 3181   0.504   3.430   4.634
 1056SOL    HW1 3182   0.570   3.504   4.643
 1056SOL    HW2 3183   0.548   3.351   4.592
 1057SOL     OW 3184   0.815   2.434   4.049
 1057SOL    HW1 3185   0.822   2.345   4.003
 1057SOL    HW2 3186   0.721   2.468   4.041
 1058SOL     OW 3187   0.671   2.326   4.993
 1058SOL    HW1 3188   0.637   2.237   4.963
 1058SOL    HW2 3189   0.697   2.380   4.913
 1059SOL     OW 3190   0.473   2.362   3.915
 1059SOL    HW1 3191   0.534   2.442   3.919
 1059SOL    HW2 3192   0.378   2.393   3.922
 1060SOL     OW 3193   1.302   2.717   4.033
 1060SOL    HW1 3194   1.216   2.686   4.075
 1060SOL    HW2 3195   1.298   2.703   3.934
 1061SOL     OW 3196   1.759   3.609   4.878
 1061SOL    HW1 3197   1.820   3.639   4.805
 1061SOL    HW2 3198   1.721   3.520   4.856
 1062SOL     OW 3199   0.083   3.120   4.746
 1062SOL    HW1 3200   0.078   3.119   4.846
 1062SOL    HW2 3201   0.000   3.079   4.708
 1063SOL     OW 3202   1.726   1.997   4.247
 1063SOL    HW1 3203   1.799   1.980   4.180
 1063SOL    HW2 3204   1.695   1.910   4.285
 1064SOL     OW 3205   1.388   3.435   4.201
 1064SOL    HW1 3206   1.455   3.447   4.127
 1064SOL    HW2 3207   1.348   3.524   4.224
 1065SOL     OW 3208   1.280   2.789   4.396
 1065SOL    HW1 3209   1.340   2.708   4.398
 1065SOL    HW2 3210   1.320   2.858   4.336
 1066SOL     OW 3211   0.672   3.478   3.878
 1066SOL    HW1 3212   0.681   3.488   3.779
 1066SOL    HW2 3213   0.632   3.389   3.899
 1067SOL     OW 3214   1.841   2.037   4.687
 1067SOL    HW1 3215   1.880   1.952   4.651
 1067SOL    HW2 3216   1.743   2.039   4.668
 1068SOL     OW 3217   0.263   2.188   4.444
 1068SOL    HW1 3218   0.184   2.239   4.410
 1068SOL    HW2 3219   0.254   2.173   4.542
 1069SOL     OW 3220   1.194   3.474   3.755
 1069SOL    HW1 3221   1.200   3.381   3.792
 1069SOL    HW2 3222   1.135   3.474   3.675
 1070SOL     OW 3223   0.916   2.772   4.015
 1070SOL    HW1 3224   0.979   2.810   3.947
 1070SOL    HW2 3225   0.956   2.689   4.054
 1071SOL     OW 3226   1.504   3.469   3.768
 1071SOL    HW1 3227   1.412   3.506   3.775
 1071SOL    HW2 3228   1.542   3.489   3.678
 1072SOL     OW 3229   1.039   2.960   4.420
 1072SOL    HW1 3230   0.969   2.913   4.474
 1072SOL    HW2 3231   1.098   2.892   4.377
 1073SOL     OW 3232   0.590   3.349   4.215
 1073SOL    HW1 3233   0.632   3.291   4.145
 1073SOL    HW2 3234   0.546   3.428   4.171
 1074SOL     OW 3235   0.255   3.210   4.014
 1074SOL    HW1 3236   0.159   3.211   3.987
 1074SOL    HW2 3237   0.267   3.263   4.098
 1075SOL     OW 3238   0.075   2.207   3.757
 1075SOL    HW1 3239  -0.017   2.179   3.728
 1075SOL    HW2 3240   0.106   2.284   3.701
 1076SOL     OW 3241   0.072   2.028   4.042
 1076SOL    HW1 3242   0.055   2.111   3.988
 1076SOL    HW2 3243   0.162   1.991   4.020
 1077SOL     OW 3244   1.183   3.197   3.843
 1077SOL    HW1 3245   1.084   3.186   3.845
 1077SOL    HW2 3246   1.217   3.212   3.936
 1078SOL     OW 3247   1.674   2.745   4.978
 1078SOL    HW1 3248   1.647   2.656   4.941
 1078SOL    HW2 3249   1.675   2.813   4.905
 1079SOL     OW 3250   1.225   2.187   4.173
 1079SOL    HW1 3251   1.290   2.113   4.162
 1079SOL    HW2 3252   1.245   2.237   4.257
 1080SOL     OW 3253   0.594   2.607   4.376
 1080SOL    HW1 3254   0.644   2.692   4.357
 1080SOL    HW2 3255   0.506   2.609   4.328
 1081SOL     OW 3256   0.859   3.236   3.740
 1081SOL    HW1 3257   0.813   3.251   3.828
 1081SOL    HW2 3258   0.903   3.321   3.710
 1082SOL     OW 3259   0.661   3.652   4.677
 1082SOL    HW1 3260   0.615   3.740   4.664
 1082SOL    HW2 3261   0.760   3.664   4.670
 1083SOL     OW 3262   0.859   2.818   4.585
 1083SOL    HW1 3263   0.913   2.749   4.633
 1083SOL    HW2 3264   0.827   2.887   4.651
 1084SOL     OW 3265   1.083   2.846   3.811
 1084SOL    HW1 3266   1.060   2.899   3.729
 1084SOL    HW2 3267   1.164   2.790   3.792
 1085SOL     OW 3268   1.861   3.431   4.575
 1085SOL    HW1 3269   1.790   3.419   4.505
 1085SOL    HW2 3270   1.862   3.352   4.635
 1086SOL     OW 3271   0.079   3.102   4.377
 1086SOL    HW1 3272   0.078   3.055   4.465
 1086SOL    HW2 3273   0.161   3.074   4.326
 1087SOL     OW 3274   1.824   2.054   4.951
 1087SOL    HW1 3275   1.820   1.964   4.995
 1087SOL    HW2 3276   1.827   2.043   4.852
 1088SOL     OW 3277   0.428   2.286   4.244
 1088SOL    HW1 3278   0.458   2.214   4.182
 1088SOL    HW2 3279   0.389   2.246   4.327
 1089SOL     OW 3280   0.812   3.448   4.411
 1089SOL    HW1 3281   0.844   3.458   4.317
 1089SOL    HW2 3282   0.733   3.386   4.413
 1090SOL     OW 3283   0.770   3.192   4.025
 1090SOL    HW1 3284   0.724   3.105   4.042
 1090SOL    HW2 3285   0.861   3.189   4.066
 1091SOL     OW 3286   1.352   1.914   3.892
 1091SOL    HW1 3287   1.387   1.873   3.808
 1091SOL    HW2 3288   1.262   1.876   3.912
 1092SOL     OW 3289   1.300   2.315   4.415
 1092SOL    HW1 3290   1.241   2.395   4.419
 1092SOL    HW2 3291   1.315   2.280   4.508
 1093SOL     OW 3292   1.593   2.083   4.606
 1093SOL    HW1 3293   1.509   2.082   4.660
 1093SOL    HW2 3294   1.595   2.166   4.550
 1094SOL     OW 3295   0.039   2.939   4.024
 1094SOL    HW1 3296   0.138   2.928   4.015
 1094SOL    HW2 3297  -0.001   2.853   4.056
 1095SOL     OW 3298   0.875   3.508   4.061
 1095SOL    HW1 3299   0.798   3.473   4.007
 1095SOL    HW2 3300   0.843   3.579   4.123
 1096SOL     OW 3301   0.230   4.352   0.113
 1096SOL    HW1 3302   0.137   4.350   0.150
 1096SOL    HW2 3303   0.231   4.313   0.021
 1097SOL     OW 3304   0.225   3.999   0.996
 1097SOL    HW1 3305   0.260   3.982   1.088
 1097SOL    HW2 3306   0.137   3.954   0.984
 1098SOL     OW 3307   0.019   4.092   0.647
 1098SOL    HW1 3308  -0.063   4.135   0.686
 1098SOL    HW2 3309  -0.009   4.019   0.584
 1099SOL     OW 3310   1.135   4.427   0.717
 1099SOL    HW1 3311   1.192   4.505   0.692
 1099SOL    HW2 3312   1.075   4.453   0.793
 1100SOL     OW 3313   1.755   4.331   0.231
 1100SOL    HW1 3314   1.743   4.318   0.132
 1100SOL    HW2 3315   1.725   4.250   0.280
 1101SOL     OW 3316   0.768   4.868   1.023
 1101SOL    HW1 3317   0.690   4.885   1.083
 1101SOL    HW2 3318   0.802   4.955   0.987
 1102SOL     OW 3319   0.850   4.522   1.823
 1102SOL    HW1 3320   0.846   4.598   1.888
 1102SOL    HW2 3321   0.872   4.558   1.732
 1103SOL     OW 3322   0.685   4.736   0.665
 1103SOL    HW1 3323   0.754   4.720   0.735
 1103SOL    HW2 3324   0.612   4.793   0.703
 1104SOL     OW 3325   0.438   4.116   1.499
 1104SOL    HW1 3326   0.520   4.060   1.508
 1104SOL    HW2 3327   0.357   4.058   1.503
 1105SOL     OW 3328   1.603   4.171   0.737
 1105SOL    HW1 3329   1.529   4.217   0.687
 1105SOL    HW2 3330   1.654   4.239   0.790
 1106SOL     OW 3331   0.240   4.815   0.886
 1106SOL    HW1 3332   0.254   4.731   0.938
 1106SOL    HW2 3333   0.185   4.879   0.941
 1107SOL     OW 3334   0.606   4.688   0.123
 1107SOL    HW1 3335   0.613   4.772   0.069
 1107SOL    HW2 3336   0.652   4.701   0.211
 1108SOL     OW 3337   1.594   3.838   1.480
 1108SOL    HW1 3338   1.576   3.905   1.408
 1108SOL    HW2 3339   1.591   3.884   1.569
 1109SOL     OW 3340   0.122   4.367   0.563
 1109SOL    HW1 3341   0.077   4.279   0.580
 1109SOL    HW2 3342   0.121   4.421   0.647
 1110SOL     OW 3343   1.689   4.646   0.612
 1110SOL    HW1 3344   1.784   4.617   0.620
 1110SOL    HW2 3345   1.681   4.711   0.537
 1111SOL     OW 3346   0.113   4.461   1.597
 1111SOL    HW1 3347   0.201   4.448   1.642
 1111SOL    HW2 3348   0.100   4.558   1.575
 1112SOL     OW 3349   0.809   3.728   0.502
 1112SOL    HW1 3350   0.849   3.819   0.493
 1112SOL    HW2 3351   0.709   3.736   0.508
 1113SOL     OW 3352   0.197   4.700   1.264
 1113SOL    HW1 3353   0.286   4.655   1.250
 1113SOL    HW2 3354   0.124   4.635   1.245
 1114SOL     OW 3355   1.525   4.723   0.190
 1114SOL    HW1 3356   1.462   4.647   0.203
 1114SOL    HW2 3357   1.573   4.741   0.276
 1115SOL     OW 3358   0.317   3.975   1.801
 1115SOL    HW1 3359   0.388   4.046   1.807
 1115SOL    HW2 3360   0.229   4.014   1.829
 1116SOL     OW 3361   0.598   4.453   0.270
 1116SOL    HW1 3362   0.622   4.522   0.202
 1116SOL    HW2 3363   0.520   4.486   0.324
 1117SOL     OW 3364   1.281   4.069   0.944
 1117SOL    HW1 3365   1.195   4.019   0.931
 1117SOL    HW2 3366   1.343   4.015   1.000
 1118SOL     OW 3367   0.807   4.329   1.465
 1118SOL    HW1 3368   0.760   4.326   1.554
 1118SOL    HW2 3369   0.756   4.274   1.399
 1119SOL     OW 3370   1.394   4.193   1.674
 1119SOL    HW1 3371   1.374   4.236   1.762
 1119SOL    HW2 3372   1.472   4.131   1.683
 1120SOL     OW 3373   0.973   4.614   1.572
 1120SOL    HW1 3374   1.019   4.530   1.543
 1120SOL    HW2 3375   0.917   4.648   1.497
 1121SOL     OW 3376   0.991   4.134   1.242
 1121SOL    HW1 3377   0.914   4.168   1.296
 1121SOL    HW2 3378   0.957   4.083   1.163
 1122SOL     OW 3379   1.041   4.425   0.429
 1122SOL    HW1 3380   1.067   4.421   0.525
 1122SOL    HW2 3381   0.956   4.374   0.415
 1123SOL     OW 3382   0.076   4.535   0.789
 1123SOL    HW1 3383   0.175   4.523   0.798
 1123SOL    HW2 3384   0.052   4.630   0.810
 1124SOL     OW 3385   0.865   4.072   0.195
 1124SOL    HW1 3386   0.924   4.135   0.146
 1124SOL    HW2 3387   0.884   3.978   0.166
 1125SOL     OW 3388   1.719   4.309   1.831
 1125SOL    HW1 3389   1.693   4.398   1.795
 1125SOL    HW2 3390   1.717   4.241   1.758
 1126SOL     OW 3391   0.550   3.920   0.885
 1126SOL    HW1 3392   0.545   3.915   0.985
 1126SOL    HW2 3393   0.552   4.016   0.856
 1127SOL     OW 3394   1.458   4.459   0.728
 1127SOL    HW1 3395   1.453   4.394   0.803
 1127SOL    HW2 3396   1.538   4.518   0.741
 1128SOL     OW 3397   0.202   4.009   1.498
 1128SOL    HW1 3398   0.122   4.069   1.485
 1128SOL    HW2 3399   0.192   3.960   1.584
 1129SOL     OW 3400   1.400   3.831   0.426
 1129SOL    HW1 3401   1.376   3.794   0.336
 1129SOL    HW2 3402   1.499   3.847   0.430
 1130SOL     OW 3403   0.382   4.424   0.480
 1130SOL    HW1 3404   0.427   4.334   0.477
 1130SOL    HW2 3405   0.288   4.413   0.513
 1131SOL     OW 3406   1.547   3.946   1.729
 1131SOL    HW1 3407   1.542   3.983   1.821
 1131SOL    HW2 3408   1.475   3.877   1.717
 1132SOL     OW 3409   0.614   3.846   0.117
 1132SOL    HW1 3410   0.712   3.824   0.124
 1132SOL    HW2 3411   0.583   3.829   0.024
 1133SOL     OW 3412   0.781   3.988   1.749
 1133SOL    HW1 3413   0.848   3.927   1.792
 1133SOL    HW2 3414   0.708   4.007   1.814
 1134SOL     OW 3415   1.351   4.314   1.433
 1134SOL    HW1 3416   1.379   4.271   1.518
 1134SOL    HW2 3417   1.376   4.410   1.434
 1135SOL     OW 3418   0.922   4.227   0.899
 1135SOL    HW1 3419   0.897   4.218   0.803
 1135SOL    HW2 3420   0.970   4.145   0.930
 1136SOL     OW 3421   0.539   3.788   0.512
 1136SOL    HW1 3422   0.458   3.789   0.570
 1136SOL    HW2 3423   0.542   3.871   0.457
 1137SOL     OW 3424   0.935   3.960   0.480
 1137SOL    HW1 3425   0.887   4.001   0.402
 1137SOL    HW2 3426   1.034   3.958   0.461
 1138SOL     OW 3427   1.076   4.407   1.464
 1138SOL    HW1 3428   0.996   4.346   1.467
 1138SOL    HW2 3429   1.157   4.354   1.440
 1139SOL     OW 3430   1.032   4.273   0.016
 1139SOL    HW1 3431   0.991   4.355  -0.023
 1139SOL    HW2 3432   1.096   4.299   0.089
 1140SOL     OW 3433   0.078   4.280   1.386
 1140SOL    HW1 3434   0.170   4.279   1.345
 1140SOL    HW2 3435   0.072   4.354   1.453
 1141SOL     OW 3436   0.561   3.946   1.147
 1141SOL    HW1 3437   0.599   3.862   1.184
 1141SOL    HW2 3438   0.473   3.965   1.191
 1142SOL     OW 3439   0.866   4.178   0.642
 1142SOL    HW1 3440   0.834   4.250   0.580
 1142SOL    HW2 3441   0.890   4.097   0.589
 1143SOL     OW 3442   1.017   3.763   0.753
 1143SOL    HW1 3443   0.945   3.768   0.684
 1143SOL    HW2 3444   0.993   3.694   0.822
 1144SOL     OW 3445   1.429   4.897   0.867
 1144SOL    HW1 3446   1.374   4.813   0.860
 1144SOL    HW2 3447   1.455   4.926   0.775
 1145SOL     OW 3448   1.466   4.314   0.992
 1145SOL    HW1 3449   1.436   4.219   0.999
 1145SOL    HW2 3450   1.539   4.330   1.058
 1146SOL     OW 3451   1.857   4.557   0.377
 1146SOL    HW1 3452   1.899   4.493   0.441
 1146SOL    HW2 3453   1.819   4.506   0.299
 1147SOL     OW 3454   1.390   4.299   0.078
 1147SOL    HW1 3455   1.336   4.278   0.159
 1147SOL    HW2 3456   1.481   4.258   0.087
 1148SOL     OW 3457   0.527   3.980   0.328
 1148SOL    HW1 3458   0.554   3.921   0.253
 1148SOL    HW2 3459   0.527   4.075   0.297
 1149SOL     OW 3460   1.638   4.823   1.079
 1149SOL    HW1 3461   1.643   4.904   1.138
 1149SOL    HW2 3462   1.552   4.825   1.028
 1150SOL     OW 3463   0.915   3.813   1.402
 1150SOL    HW1 3464   0.940   3.793   1.307
 1150SOL    HW2 3465   0.987   3.869   1.444
 1151SOL     OW 3466   0.410   4.537   1.251
 1151SOL    HW1 3467   0.496   4.549   1.301
 1151SOL    HW2 3468   0.368   4.450   1.278
 1152SOL     OW 3469   1.274   4.110   1.262
 1152SOL    HW1 3470   1.295   4.184   1.326
 1152SOL    HW2 3471   1.185   4.127   1.219
 1153SOL     OW 3472   0.566   4.261   0.865
 1153SOL    HW1 3473   0.578   4.327   0.791
 1153SOL    HW2 3474   0.612   4.295   0.948
 1154SOL     OW 3475   1.582   4.363   0.472
 1154SOL    HW1 3476   1.551   4.424   0.545
 1154SOL    HW2 3477   1.632   4.415   0.403
 1155SOL     OW 3478   0.402   4.475   1.598
 1155SOL    HW1 3479   0.470   4.530   1.551
 1155SOL    HW2 3480   0.442   4.387   1.625
 1156SOL     OW 3481   1.587   4.503   1.670
 1156SOL    HW1 3482   1.495   4.541   1.665
 1156SOL    HW2 3483   1.647   4.550   1.605
 1157SOL     OW 3484   1.013   3.829   1.770
 1157SOL    HW1 3485   1.019   3.914   1.718
 1157SOL    HW2 3486   1.045   3.753   1.713
 1158SOL     OW 3487   0.504   3.774   1.740
 1158SOL    HW1 3488   0.462   3.717   1.670
 1158SOL    HW2 3489   0.438   3.843   1.772
 1159SOL     OW 3490   0.573   4.594   1.029
 1159SOL    HW1 3491   0.617   4.683   1.020
 1159SOL    HW2 3492   0.510   4.594   1.106
 1160SOL     OW 3493   1.360   4.586   1.045
 1160SOL    HW1 3494   1.285   4.586   0.979
 1160SOL    HW2 3495   1.397   4.494   1.054
 1161SOL     OW 3496   1.209   4.249   0.275
 1161SOL    HW1 3497   1.222   4.165   0.329
 1161SOL    HW2 3498   1.180   4.323   0.335
 1162SOL     OW 3499   0.307   3.937   1.231
 1162SOL    HW1 3500   0.284   3.974   1.321
 1162SOL    HW2 3501   0.277   3.842   1.225
 1163SOL     OW 3502   0.037   5.034   1.282
 1163SOL    HW1 3503   0.090   4.985   1.350
 1163SOL    HW2 3504   0.059   5.132   1.287
 1164SOL     OW 3505   0.732   4.358   1.064
 1164SOL    HW1 3506   0.791   4.332   0.988
 1164SOL    HW2 3507   0.704   4.454   1.053
 1165SOL     OW 3508   1.728   4.659   1.854
 1165SOL    HW1 3509   1.682   4.652   1.765
 1165SOL    HW2 3510   1.666   4.703   1.920
 1166SOL     OW 3511   0.307   3.787   0.618
 1166SOL    HW1 3512   0.296   3.881   0.651
 1166SOL    HW2 3513   0.302   3.724   0.695
 1167SOL     OW 3514   1.622   4.091   0.374
 1167SOL    HW1 3515   1.624   4.015   0.438
 1167SOL    HW2 3516   1.574   4.168   0.414
 1168SOL     OW 3517   1.023   4.490   0.966
 1168SOL    HW1 3518   1.038   4.511   1.062
 1168SOL    HW2 3519   0.993   4.395   0.957
 1169SOL     OW 3520   0.350   4.622   1.804
 1169SOL    HW1 3521   0.426   4.666   1.852
 1169SOL    HW2 3522   0.385   4.575   1.722
 1170SOL     OW 3523   1.540   3.998   0.125
 1170SOL    HW1 3524   1.479   3.923   0.148
 1170SOL    HW2 3525   1.562   4.050   0.208
 1171SOL     OW 3526   1.303   4.562   0.042
 1171SOL    HW1 3527   1.337   4.469   0.057
 1171SOL    HW2 3528   1.321   4.589  -0.053
 1172SOL     OW 3529   0.319   4.534   0.949
 1172SOL    HW1 3530   0.412   4.570   0.954
 1172SOL    HW2 3531   0.313   4.449   1.001
 1173SOL     OW 3532   0.339   4.233   1.006
 1173SOL    HW1 3533   0.287   4.150   0.989
 1173SOL    HW2 3534   0.416   4.238   0.942
 1174SOL     OW 3535   1.138   4.104   1.678
 1174SOL    HW1 3536   1.093   4.167   1.742
 1174SOL    HW2 3537   1.231   4.135   1.661
 1175SOL     OW 3538   1.160   3.931   1.477
 1175SOL    HW1 3539   1.160   3.995   1.554
 1175SOL    HW2 3540   1.188   3.979   1.394
 1176SOL     OW 3541   1.002   4.520   1.238
 1176SOL    HW1 3542   1.043   4.488   1.324
 1176SOL    HW2 3543   0.906   4.493   1.235
 1177SOL     OW 3544   0.040   4.268   1.114
 1177SOL    HW1 3545   0.125   4.235   1.073
 1177SOL    HW2 3546   0.053   4.283   1.212
 1178SOL     OW 3547   0.189   4.244   1.722
 1178SOL    HW1 3548   0.248   4.204   1.652
 1178SOL    HW2 3549   0.131   4.315   1.681
 1179SOL     OW 3550   1.369   4.674   1.660
 1179SOL    HW1 3551   1.408   4.763   1.680
 1179SOL    HW2 3552   1.379   4.654   1.563
 1180SOL     OW 3553   0.815   4.296   0.325
 1180SOL    HW1 3554   0.822   4.207   0.279
 1180SOL    HW2 3555   0.721   4.330   0.317
 1181SOL     OW 3556   1.657   4.328   1.206
 1181SOL    HW1 3557   1.619   4.259   1.268
 1181SOL    HW2 3558   1.739   4.292   1.162
 1182SOL     OW 3559   0.671   4.188   1.269
 1182SOL    HW1 3560   0.637   4.099   1.239
 1182SOL    HW2 3561   0.697   4.242   1.189
 1183SOL     OW 3562   0.473   4.224   0.191
 1183SOL    HW1 3563   0.534   4.304   0.195
 1183SOL    HW2 3564   0.378   4.255   0.198
 1184SOL     OW 3565   0.159   4.861   1.466
 1184SOL    HW1 3566   0.181   4.800   1.542
 1184SOL    HW2 3567   0.169   4.812   1.380
 1185SOL     OW 3568   1.347   4.783   1.234
 1185SOL    HW1 3569   1.371   4.720   1.160
 1185SOL    HW2 3570   1.257   4.823   1.216
 1186SOL     OW 3571   1.302   4.579   0.309
 1186SOL    HW1 3572   1.216   4.548   0.351
 1186SOL    HW2 3573   1.298   4.565   0.210
 1187SOL     OW 3574   0.903   3.810   0.133
 1187SOL    HW1 3575   0.954   3.811   0.047
 1187SOL    HW2 3576   0.959   3.768   0.204
 1188SOL     OW 3577   1.726   3.859   0.523
 1188SOL    HW1 3578   1.799   3.842   0.456
 1188SOL    HW2 3579   1.695   3.772   0.561
 1189SOL     OW 3580   1.280   4.651   0.672
 1189SOL    HW1 3581   1.340   4.570   0.674
 1189SOL    HW2 3582   1.320   4.720   0.612
 1190SOL     OW 3583   1.841   3.899   0.963
 1190SOL    HW1 3584   1.880   3.814   0.927
 1190SOL    HW2 3585   1.743   3.901   0.944
 1191SOL     OW 3586   0.263   4.050   0.720
 1191SOL    HW1 3587   0.184   4.101   0.686
 1191SOL    HW2 3588   0.254   4.035   0.818
 1192SOL     OW 3589   0.916   4.634   0.291
 1192SOL    HW1 3590   0.979   4.672   0.223
 1192SOL    HW2 3591   0.956   4.551   0.330
 1193SOL     OW 3592   1.014   3.960   0.971
 1193SOL    HW1 3593   1.006   3.924   0.878
 1193SOL    HW2 3594   1.012   3.884   1.036
 1194SOL     OW 3595   1.709   4.109   1.381
 1194SOL    HW1 3596   1.782   4.178   1.385
 1194SOL    HW2 3597   1.737   4.034   1.322
 1195SOL     OW 3598   0.105   4.737   1.726
 1195SOL    HW1 3599   0.028   4.704   1.780
 1195SOL    HW2 3600   0.190   4.707   1.768
 1196SOL     OW 3601   0.672   3.927   1.489
 1196SOL    HW1 3602   0.762   3.911   1.449
 1196SOL    HW2 3603   0.680   3.932   1.588
 1197SOL     OW 3604   0.075   4.069   0.033
 1197SOL    HW1 3605  -0.017   4.041   0.004
 1197SOL    HW2 3606   0.106   4.146  -0.023
 1198SOL     OW 3607   1.440   4.580   1.398
 1198SOL    HW1 3608   1.383   4.632   1.335
 1198SOL    HW2 3609   1.536   4.592   1.374
 1199SOL     OW 3610   0.072   3.890   0.318
 1199SOL    HW1 3611   0.055   3.973   0.264
 1199SOL    HW2 3612   0.162   3.853   0.296
 1200SOL     OW 3613   1.183   5.059   0.119
 1200SOL    HW1 3614   1.084   5.048   0.121
 1200SOL    HW2 3615   1.217   5.074   0.212
 1201SOL     OW 3616   0.613   4.566   1.431
 1201SOL    HW1 3617   0.669   4.647   1.414
 1201SOL    HW2 3618   0.672   4.486   1.434
 1202SOL     OW 3619   0.716   4.289   1.708
 1202SOL    HW1 3620   0.735   4.354   1.782
 1202SOL    HW2 3621   0.776   4.209   1.717
 1203SOL     OW 3622   1.674   4.607   1.254
 1203SOL    HW1 3623   1.647   4.518   1.217
 1203SOL    HW2 3624   1.675   4.675   1.181
 1204SOL     OW 3625   1.225   4.049   0.449
 1204SOL    HW1 3626   1.290   3.975   0.438
 1204SOL    HW2 3627   1.245   4.099   0.533
 1205SOL     OW 3628   0.594   4.469   0.652
 1205SOL    HW1 3629   0.644   4.554   0.633
 1205SOL    HW2 3630   0.506   4.471   0.604
 1206SOL     OW 3631   1.777   4.066   1.642
 1206SOL    HW1 3632   1.760   4.097   1.548
 1206SOL    HW2 3633   1.693   4.029   1.680
 1207SOL     OW 3634   1.730   4.658   1.517
 1207SOL    HW1 3635   1.768   4.749   1.532
 1207SOL    HW2 3636   1.722   4.641   1.418
 1208SOL     OW 3637   0.859   4.680   0.861
 1208SOL    HW1 3638   0.913   4.611   0.909
 1208SOL    HW2 3639   0.827   4.749   0.927
 1209SOL     OW 3640   1.083   4.708   0.087
 1209SOL    HW1 3641   1.060   4.761   0.005
 1209SOL    HW2 3642   1.164   4.652   0.068
 1210SOL     OW 3643   0.079   4.964   0.653
 1210SOL    HW1 3644   0.078   4.917   0.741
 1210SOL    HW2 3645   0.161   4.936   0.602
 1211SOL     OW 3646   1.824   3.916   1.227
 1211SOL    HW1 3647   1.820   3.826   1.271
 1211SOL    HW2 3648   1.827   3.905   1.128
 1212SOL     OW 3649   0.428   4.148   0.520
 1212SOL    HW1 3650   0.458   4.076   0.458
 1212SOL    HW2 3651   0.389   4.108   0.603
 1213SOL     OW 3652   0.317   4.271   1.280
 1213SOL    HW1 3653   0.355   4.212   1.352
 1213SOL    HW2 3654   0.357   4.245   1.192
 1214SOL     OW 3655   1.424   3.938   1.112
 1214SOL    HW1 3656   1.476   3.873   1.167
 1214SOL    HW2 3657   1.375   4.001   1.173
 1215SOL     OW 3658   1.001   3.758   1.154
 1215SOL    HW1 3659   0.938   3.686   1.123
 1215SOL    HW2 3660   1.094   3.722   1.154
 1216SOL     OW 3661   1.352   3.776   0.168
 1216SOL    HW1 3662   1.387   3.735   0.084
 1216SOL    HW2 3663   1.262   3.738   0.188
 1217SOL     OW 3664   1.300   4.177   0.691
 1217SOL    HW1 3665   1.241   4.257   0.695
 1217SOL    HW2 3666   1.315   4.142   0.784
 1218SOL     OW 3667   1.593   3.945   0.882
 1218SOL    HW1 3668   1.509   3.944   0.936
 1218SOL    HW2 3669   1.595   4.028   0.826
 1219SOL     OW 3670   0.230   4.352   1.975
 1219SOL    HW1 3671   0.137   4.350   2.012
 1219SOL    HW2 3672   0.231   4.313   1.883
 1220SOL     OW 3673   0.225   3.999   2.858
 1220SOL    HW1 3674   0.260   3.982   2.950
 1220SOL    HW2 3675   0.137   3.954   2.846
 1221SOL     OW 3676   0.019   4.092   2.509
 1221SOL    HW1 3677  -0.063   4.135   2.548
 1221SOL    HW2 3678  -0.009   4.019   2.446
 1222SOL     OW 3679   1.135   4.427   2.579
 1222SOL    HW1 3680   1.192   4.505   2.554
 1222SOL    HW2 3681   1.075   4.453   2.655
 1223SOL     OW 3682   1.755   4.331   2.093
 1223SOL    HW1 3683   1.743   4.318   1.994
 1223SOL    HW2 3684   1.725   4.250   2.142
 1224SOL     OW 3685   0.768   4.868   2.885
 1224SOL    HW1 3686   0.690   4.885   2.945
 1224SOL    HW2 3687   0.802   4.955   2.849
 1225SOL     OW 3688   0.850   4.522   3.685
 1225SOL    HW1 3689   0.846   4.598   3.750
 1225SOL    HW2 3690   0.872   4.558   3.594
 1226SOL     OW 3691   0.685   4.736   2.527
 1226SOL    HW1 3692   0.754   4.720   2.597
 1226SOL    HW2 3693   0.612   4.793   2.565
 1227SOL     OW 3694   0.438   4.116   3.361
 1227SOL    HW1 3695   0.520   4.060   3.370
 1227SOL    HW2 3696   0.357   4.058   3.365
 1228SOL     OW 3697   1.603   4.171   2.599
 1228SOL    HW1 3698   1.529   4.217   2.549
 1228SOL    HW2 3699   1.654   4.239   2.652
 1229SOL     OW 3700   0.240   4.815   2.748
 1229SOL    HW1 3701   0.254   4.731   2.800
 1229SOL    HW2 3702   0.185   4.879   2.803
 1230SOL     OW 3703   0.606   4.688   1.985
 1230SOL    HW1 3704   0.613   4.772   1.931
 1230SOL    HW2 3705   0.652   4.701   2.073
 1231SOL     OW 3706   1.594   3.838   3.342
 1231SOL    HW1 3707   1.576   3.905   3.270
 1231SOL    HW2 3708   1.591   3.884   3.431
 1232SOL     OW 3709   0.122   4.367   2.425
 1232SOL    HW1 3710   0.077   4.279   2.442
 1232SOL    HW2 3711   0.121   4.421   2.509
 1233SOL     OW 3712   1.689   4.646   2.474
 1233SOL    HW1 3713   1.784   4.617   2.482
 1233SOL    HW2 3714   1.681   4.711   2.399
 1234SOL     OW 3715   0.113   4.461   3.459
 1234SOL    HW1 3716   0.201   4.448   3.504
 1234SOL    HW2 3717   0.100   4.558   3.437
 1235SOL     OW 3718   0.809   3.728   2.364
 1235SOL    HW1 3719   0.849   3.819   2.355
 1235SOL    HW2 3720   0.709   3.736   2.370
 1236SOL     OW 3721   0.197   4.700   3.126
 1236SOL    HW1 3722   0.286   4.655   3.112
 1236SOL    HW2 3723   0.124   4.635   3.107
 1237SOL     OW 3724   1.525   4.723   2.052
 1237SOL    HW1 3725   1.462   4.647   2.065
 1237SOL    HW2 3726   1.573   4.741   2.138
 1238SOL     OW 3727   0.317   3.975   3.663
 1238SOL    HW1 3728   0.388   4.046   3.669
 1238SOL    HW2 3729   0.229   4.014   3.691
 1239SOL     OW 3730   0.598   4.453   2.132
 1239SOL    HW1 3731   0.622   4.522   2.064
 1239SOL    HW2 3732   0.520   4.486   2.186
 1240SOL     OW 3733   1.281   4.069   2.806
 1240SOL    HW1 3734   1.195   4.019   2.793
 1240SOL    HW2 3735   1.343   4.015   2.862
 1241SOL     OW 3736   0.807   4.329   3.327
 1241SOL    HW1 3737   0.760   4.326   3.416
 1241SOL    HW2 3738   0.756   4.274   3.261
 1242SOL     OW 3739   1.394   4.193   3.536
 1242SOL    HW1 3740   1.374   4.236   3.624
 1242SOL    HW2 3741   1.472   4.131   3.545
 1243SOL     OW 3742   0.973   4.614   3.434
 1243SOL    HW1 3743   1.019   4.530   3.405
 1243SOL    HW2 3744   0.917   4.648   3.359
 1244SOL     OW 3745   0.991   4.134   3.104
 1244SOL    HW1 3746   0.914   4.168   3.158
 1244SOL    HW2 3747   0.957   4.083   3.025
 1245SOL     OW 3748   1.041   4.425   2.291
 1245SOL    HW1 3749   1.067   4.421   2.387
 1245SOL    HW2 3750   0.956   4.374   2.277
 1246SOL     OW 3751   0.076   4.535   2.651
 1246SOL    HW1 3752   0.175   4.523   2.660
 1246SOL    HW2 3753   0.052   4.630   2.672
 1247SOL     OW 3754   0.865   4.072   2.057
 1247SOL    HW1 3755   0.924   4.135   2.008
 1247SOL    HW2 3756   0.884   3.978   2.028
 1248SOL     OW 3757   1.719   4.309   3.693
 1248SOL    HW1 3758   1.693   4.398   3.657
 1248SOL    HW2 3759   1.717   4.241   3.620
 1249SOL     OW 3760   0.550   3.920   2.747
 1249SOL    HW1 3761   0.545   3.915   2.847
 1249SOL    HW2 3762   0.552   4.016   2.718
 1250SOL     OW 3763   1.458   4.459   2.590
 1250SOL    HW1 3764   1.453   4.394   2.665
 1250SOL    HW2 3765   1.538   4.518   2.603
 1251SOL     OW 3766   0.202   4.009   3.360
 1251SOL    HW1 3767   0.122   4.069   3.347
 1251SOL    HW2 3768   0.192   3.960   3.446
 1252SOL     OW 3769   1.400   3.831   2.288
 1252SOL    HW1 3770   1.376   3.794   2.198
 1252SOL    HW2 3771   1.499   3.847   2.292
 1253SOL     OW 3772   0.382   4.424   2.342
 1253SOL    HW1 3773   0.427   4.334   2.339
 1253SOL    HW2 3774   0.288   4.413   2.375
 1254SOL     OW 3775   1.547   3.946   3.591
 1254SOL    HW1 3776   1.542   3.983   3.683
 1254SOL    HW2 3777   1.475   3.877   3.579
 1255SOL     OW 3778   0.614   3.846   1.979
 1255SOL    HW1 3779   0.712   3.824   1.986
 1255SOL    HW2 3780   0.583   3.829   1.886
 1256SOL     OW 3781   0.781   3.988   3.611
 1256SOL    HW1 3782   0.848   3.927   3.654
 1256SOL    HW2 3783   0.708   4.007   3.676
 1257SOL     OW 3784   1.351   4.314   3.295
 1257SOL    HW1 3785   1.379   4.271   3.380
 1257SOL    HW2 3786   1.376   4.410   3.296
 1258SOL     OW 3787   0.922   4.227   2.761
 1258SOL    HW1 3788   0.897   4.218   2.665
 1258SOL    HW2 3789   0.970   4.145   2.792
 1259SOL     OW 3790   0.539   3.788   2.374
 1259SOL    HW1 3791   0.458   3.789   2.432
 1259SOL    HW2 3792   0.542   3.871   2.319
 1260SOL     OW 3793   0.297   3.759   2.033
 1260SOL    HW1 3794   0.346   3.843   2.012
 1260SOL    HW2 3795   0.359   3.694   2.078
 1261SOL     OW 3796   0.935   3.960   2.342
 1261SOL    HW1 3797   0.887   4.001   2.264
 1261SOL    HW2 3798   1.034   3.958   2.323
 1262SOL     OW 3799   1.076   4.407   3.326
 1262SOL    HW1 3800   0.996   4.346   3.329
 1262SOL    HW2 3801   1.157   4.354   3.302
 1263SOL     OW 3802   1.032   4.273   1.878
 1263SOL    HW1 3803   0.991   4.355   1.839
 1263SOL    HW2 3804   1.096   4.299   1.951
 1264SOL     OW 3805   0.078   4.280   3.248
 1264SOL    HW1 3806   0.170   4.279   3.207
 1264SOL    HW2 3807   0.072   4.354   3.315
 1265SOL     OW 3808   0.561   3.946   3.009
 1265SOL    HW1 3809   0.599   3.862   3.046
 1265SOL    HW2 3810   0.473   3.965   3.053
 1266SOL     OW 3811   0.866   4.178   2.504
 1266SOL    HW1 3812   0.834   4.250   2.442
 1266SOL    HW2 3813   0.890   4.097   2.451
 1267SOL     OW 3814   1.017   3.763   2.615
 1267SOL    HW1 3815   0.945   3.768   2.546
 1267SOL    HW2 3816   0.993   3.694   2.684
 1268SOL     OW 3817   1.429   4.897   2.729
 1268SOL    HW1 3818   1.374   4.813   2.722
 1268SOL    HW2 3819   1.455   4.926   2.637
 1269SOL     OW 3820   1.466   4.314   2.854
 1269SOL    HW1 3821   1.436   4.219   2.861
 1269SOL    HW2 3822   1.539   4.330   2.920
 1270SOL     OW 3823   1.857   4.557   2.239
 1270SOL    HW1 3824   1.899   4.493   2.303
 1270SOL    HW2 3825   1.819   4.506   2.161
 1271SOL     OW 3826   1.390   4.299   1.940
 1271SOL    HW1 3827   1.336   4.278   2.021
 1271SOL    HW2 3828   1.481   4.258   1.949
 1272SOL     OW 3829   0.527   3.980   2.190
 1272SOL    HW1 3830   0.554   3.921   2.115
 1272SOL    HW2 3831   0.527   4.075   2.159
 1273SOL     OW 3832   1.638   4.823   2.941
 1273SOL    HW1 3833   1.643   4.904   3.000
 1273SOL    HW2 3834   1.552   4.825   2.890
 1274SOL     OW 3835   0.915   3.813   3.264
 1274SOL    HW1 3836   0.940   3.793   3.169
 1274SOL    HW2 3837   0.987   3.869   3.306
 1275SOL     OW 3838   0.410   4.537   3.113
 1275SOL    HW1 3839   0.496   4.549   3.163
 1275SOL    HW2 3840   0.368   4.450   3.140
 1276SOL     OW 3841   1.274   4.110   3.124
 1276SOL    HW1 3842   1.295   4.184   3.188
 1276SOL    HW2 3843   1.185   4.127   3.081
 1277SOL     OW 3844   0.566   4.261   2.727
 1277SOL    HW1 3845   0.578   4.327   2.653
 1277SOL    HW2 3846   0.612   4.295   2.810
 1278SOL     OW 3847   1.582   4.363   2.334
 1278SOL    HW1 3848   1.551   4.424   2.407
 1278SOL    HW2 3849   1.632   4.415   2.265
 1279SOL     OW 3850   0.402   4.475   3.460
 1279SOL    HW1 3851   0.470   4.530   3.413
 1279SOL    HW2 3852   0.442   4.387   3.487
 1280SOL     OW 3853   1.587   4.503   3.532
 1280SOL    HW1 3854   1.495   4.541   3.527
 1280SOL    HW2 3855   1.647   4.550   3.467
 1281SOL     OW 3856   1.013   3.829   3.632
 1281SOL    HW1 3857   1.019   3.914   3.580
 1281SOL    HW2 3858   1.045   3.753   3.575
 1282SOL     OW 3859   0.504   3.774   3.602
 1282SOL    HW1 3860   0.462   3.717   3.532
 1282SOL    HW2 3861   0.438   3.843   3.634
 1283SOL     OW 3862   0.573   4.594   2.891
 1283SOL    HW1 3863   0.617   4.683   2.882
 1283SOL    HW2 3864   0.510   4.594   2.968
 1284SOL     OW 3865   1.360   4.586   2.907
 1284SOL    HW1 3866   1.285   4.586   2.841
 1284SOL    HW2 3867   1.397   4.494   2.916
 1285SOL     OW 3868   1.209   4.249   2.137
 1285SOL    HW1 3869   1.222   4.165   2.191
 1285SOL    HW2 3870   1.180   4.323   2.197
 1286SOL     OW 3871   0.307   3.937   3.093
 1286SOL    HW1 3872   0.284   3.974   3.183
 1286SOL    HW2 3873   0.277   3.842   3.087
 1287SOL     OW 3874   0.037   5.034   3.144
 1287SOL    HW1 3875   0.090   4.985   3.212
 1287SOL    HW2 3876   0.059   5.132   3.149
 1288SOL     OW 3877   0.732   4.358   2.926
 1288SOL    HW1 3878   0.791   4.332   2.850
 1288SOL    HW2 3879   0.704   4.454   2.915
 1289SOL     OW 3880   1.728   4.659   3.716
 1289SOL    HW1 3881   1.682   4.652   3.627
 1289SOL    HW2 3882   1.666   4.703   3.782
 1290SOL     OW 3883   0.307   3.787   2.480
 1290SOL    HW1 3884   0.296   3.881   2.513
 1290SOL    HW2 3885   0.302   3.724   2.557
 1291SOL     OW 3886   1.622   4.091   2.236
 1291SOL    HW1 3887   1.624   4.015   2.300
 1291SOL    HW2 3888   1.574   4.168   2.276
 1292SOL     OW 3889   1.023   4.490   2.828
 1292SOL    HW1 3890   1.038   4.511   2.924
 1292SOL    HW2 3891   0.993   4.395   2.819
 1293SOL     OW 3892   0.350   4.622   3.666
 1293SOL    HW1 3893   0.426   4.666   3.714
 1293SOL    HW2 3894   0.385   4.575   3.584
 1294SOL     OW 3895   1.540   3.998   1.987
 1294SOL    HW1 3896   1.479   3.923   2.010
 1294SOL    HW2 3897   1.562   4.050   2.070
 1295SOL     OW 3898   1.303   4.562   1.904
 1295SOL    HW1 3899   1.337   4.469   1.919
 1295SOL    HW2 3900   1.321   4.589   1.809
 1296SOL     OW 3901   0.319   4.534   2.811
 1296SOL    HW1 3902   0.412   4.570   2.816
 1296SOL    HW2 3903   0.313   4.449   2.863
 1297SOL     OW 3904   0.339   4.233   2.868
 1297SOL    HW1 3905   0.287   4.150   2.851
 1297SOL    HW2 3906   0.416   4.238   2.804
 1298SOL     OW 3907   1.138   4.104   3.540
 1298SOL    HW1 3908   1.093   4.167   3.604
 1298SOL    HW2 3909   1.231   4.135   3.523
 1299SOL     OW 3910   1.160   3.931   3.339
 1299SOL    HW1 3911   1.160   3.995   3.416
 1299SOL    HW2 3912   1.188   3.979   3.256
 1300SOL     OW 3913   1.002   4.520   3.100
 1300SOL    HW1 3914   1.043   4.488   3.186
 1300SOL    HW2 3915   0.906   4.493   3.097
 1301SOL     OW 3916   0.040   4.268   2.976
 1301SOL    HW1 3917   0.125   4.235   2.935
 1301SOL    HW2 3918   0.053   4.283   3.074
 1302SOL     OW 3919   0.189   4.244   3.584
 1302SOL    HW1 3920   0.248   4.204   3.514
 1302SOL    HW2 3921   0.131   4.315   3.543
 1303SOL     OW 3922   1.369   4.674   3.522
 1303SOL    HW1 3923   1.408   4.763   3.542
 1303SOL    HW2 3924   1.379   4.654   3.425
 1304SOL     OW 3925   0.815   4.296   2.187
 1304SOL    HW1 3926   0.822   4.207   2.141
 1304SOL    HW2 3927   0.721   4.330   2.179
 1305SOL     OW 3928   1.657   4.328   3.068
 1305SOL    HW1 3929   1.619   4.259   3.130
 1305SOL    HW2 3930   1.739   4.292   3.024
 1306SOL     OW 3931   0.671   4.188   3.131
 1306SOL    HW1 3932   0.637   4.099   3.101
 1306SOL    HW2 3933   0.697   4.242   3.051
 1307SOL     OW 3934   0.473   4.224   2.053
 1307SOL    HW1 3935   0.534   4.304   2.057
 1307SOL    HW2 3936   0.378   4.255   2.060
 1308SOL     OW 3937   0.159   4.861   3.328
 1308SOL    HW1 3938   0.181   4.800   3.404
 1308SOL    HW2 3939   0.169   4.812   3.242
 1309SOL     OW 3940   1.347   4.783   3.096
 1309SOL    HW1 3941   1.371   4.720   3.022
 1309SOL    HW2 3942   1.257   4.823   3.078
 1310SOL     OW 3943   1.302   4.579   2.171
 1310SOL    HW1 3944   1.216   4.548   2.213
 1310SOL    HW2 3945   1.298   4.565   2.072
 1311SOL     OW 3946   1.726   3.859   2.385
 1311SOL    HW1 3947   1.799   3.842   2.318
 1311SOL    HW2 3948   1.695   3.772   2.423
 1312SOL     OW 3949   1.280   4.651   2.534
 1312SOL    HW1 3950   1.340   4.570   2.536
 1312SOL    HW2 3951   1.320   4.720   2.474
 1313SOL     OW 3952   1.841   3.899   2.825
 1313SOL    HW1 3953   1.880   3.814   2.789
 1313SOL    HW2 3954   1.743   3.901   2.806
 1314SOL     OW 3955   0.263   4.050   2.582
 1314SOL    HW1 3956   0.184   4.101   2.548
 1314SOL    HW2 3957   0.254   4.035   2.680
 1315SOL     OW 3958   0.916   4.634   2.153
 1315SOL    HW1 3959   0.979   4.672   2.085
 1315SOL    HW2 3960   0.956   4.551   2.192
 1316SOL     OW 3961   1.014   3.960   2.833
 1316SOL    HW1 3962   1.006   3.924   2.740
 1316SOL    HW2 3963   1.012   3.884   2.898
 1317SOL     OW 3964   1.709   4.109   3.243
 1317SOL    HW1 3965   1.782   4.178   3.247
 1317SOL    HW2 3966   1.737   4.034   3.184
 1318SOL     OW 3967   0.105   4.737   3.588
 1318SOL    HW1 3968   0.028   4.704   3.642
 1318SOL    HW2 3969   0.190   4.707   3.630
 1319SOL     OW 3970   0.672   3.927   3.351
 1319SOL    HW1 3971   0.762   3.911   3.311
 1319SOL    HW2 3972   0.680   3.932   3.450
 1320SOL     OW 3973   0.075   4.069   1.895
 1320SOL    HW1 3974  -0.017   4.041   1.866
 1320SOL    HW2 3975   0.106   4.146   1.839
 1321SOL     OW 3976   1.440   4.580   3.260
 1321SOL    HW1 3977   1.383   4.632   3.197
 1321SOL    HW2 3978   1.536   4.592   3.236
 1322SOL     OW 3979   0.072   3.890   2.180
 1322SOL    HW1 3980   0.055   3.973   2.126
 1322SOL    HW2 3981   0.162   3.853   2.158
 1323SOL     OW 3982   1.183   5.059   1.981
 1323SOL    HW1 3983   1.084   5.048   1.983
 1323SOL    HW2 3984   1.217   5.074   2.074
 1324SOL     OW 3985   0.613   4.566   3.293
 1324SOL    HW1 3986   0.669   4.647   3.276
 1324SOL    HW2 3987   0.672   4.486   3.296
 1325SOL     OW 3988   0.716   4.289   3.570
 1325SOL    HW1 3989   0.735   4.354   3.644
 1325SOL    HW2 3990   0.776   4.209   3.579
 1326SOL     OW 3991   1.674   4.607   3.116
 1326SOL    HW1 3992   1.647   4.518   3.079
 1326SOL    HW2 3993   1.675   4.675   3.043
 1327SOL     OW 3994   1.225   4.049   2.311
 1327SOL    HW1 3995   1.290   3.975   2.300
 1327SOL    HW2 3996   1.245   4.099   2.395
 1328SOL     OW 3997   0.594   4.469   2.514
 1328SOL    HW1 3998   0.644   4.554   2.495
 1328SOL    HW2 3999   0.506   4.471   2.466
 1329SOL     OW 4000   1.777   4.066   3.504
 1329SOL    HW1 4001   1.760   4.097   3.410
 1329SOL    HW2 4002   1.693   4.029   3.542
 1330SOL     OW 4003   1.730   4.658   3.379
 1330SOL    HW1 4004   1.768   4.749   3.394
 1330SOL    HW2 4005   1.722   4.641   3.280
 1331SOL     OW 4006   0.859   4.680   2.723
 1331SOL    HW1 4007   0.913   4.611   2.771
 1331SOL    HW2 4008   0.827   4.749   2.789
 1332SOL     OW 4009   1.083   4.708   1.949
 1332SOL    HW1 4010   1.060   4.761   1.867
 1332SOL    HW2 4011   1.164   4.652   1.930
 1333SOL     OW 4012   0.079   4.964   2.515
 1333SOL    HW1 4013   0.078   4.917   2.603
 1333SOL    HW2 4014   0.161   4.936   2.464
 1334SOL     OW 4015   1.824   3.916   3.089
 1334SOL    HW1 4016   1.820   3.826   3.133
 1334SOL    HW2 4017   1.827   3.905   2.990
 1335SOL     OW 4018   0.428   4.148   2.382
 1335SOL    HW1 4019   0.458   4.076   2.320
 1335SOL    HW2 4020   0.389   4.108   2.465
 1336SOL     OW 4021   0.317   4.271   3.142
 1336SOL    HW1 4022   0.355   4.212   3.214
 1336SOL    HW2 4023   0.357   4.245   3.054
 1337SOL     OW 4024   1.424   3.938   2.974
 1337SOL    HW1 4025   1.476   3.873   3.029
 1337SOL    HW2 4026   1.375   4.001   3.035
 1338SOL     OW 4027   1.001   3.758   3.016
 1338SOL    HW1 4028   0.938   3.686   2.985
 1338SOL    HW2 4029   1.094   3.722   3.016
 1339SOL     OW 4030   1.352   3.776   2.030
 1339SOL    HW1 4031   1.387   3.735   1.946
 1339SOL    HW2 4032   1.262   3.738   2.050
 1340SOL     OW 4033   1.300   4.177   2.553
 1340SOL    HW1 4034   1.241   4.257   2.557
 1340SOL    HW2 4035   1.315   4.142   2.646
 1341SOL     OW 4036   1.593   3.945   2.744
 1341SOL    HW1 4037   1.509   3.944   2.798
 1341SOL    HW2 4038   1.595   4.028   2.688
 1342SOL     OW 4039   0.230   4.352   3.837
 1342SOL    HW1 4040   0.137   4.350   3.874
 1342SOL    HW2 4041   0.231   4.313   3.745
 1343SOL     OW 4042   0.225   3.999   4.720
 1343SOL    HW1 4043   0.260   3.982   4.812
 1343SOL    HW2 4044   0.137   3.954   4.708
 1344SOL     OW 4045   0.019   4.092   4.371
 1344SOL    HW1 4046  -0.063   4.135   4.410
 1344SOL    HW2 4047  -0.009   4.019   4.308
 1345SOL     OW 4048   1.135   4.427   4.441
 1345SOL    HW1 4049   1.192   4.505   4.416
 1345SOL    HW2 4050   1.075   4.453   4.517
 1346SOL     OW 4051   1.755   4.331   3.955
 1346SOL    HW1 4052   1.743   4.318   3.856
 1346SOL    HW2 4053   1.725   4.250   4.004
 1347SOL     OW 4054   0.685   4.736   4.389
 1347SOL    HW1 4055   0.754   4.720   4.459
 1347SOL    HW2 4056   0.612   4.793   4.427
 1348SOL     OW 4057   1.603   4.171   4.461
 1348SOL    HW1 4058   1.529   4.217   4.411
 1348SOL    HW2 4059   1.654   4.239   4.514
 1349SOL     OW 4060   0.240   4.815   4.610
 1349SOL    HW1 4061   0.254   4.731   4.662
 1349SOL    HW2 4062   0.185   4.879   4.665
 1350SOL     OW 4063   0.606   4.688   3.847
 1350SOL    HW1 4064   0.613   4.772   3.793
 1350SOL    HW2 4065   0.652   4.701   3.935
 1351SOL     OW 4066   0.122   4.367   4.287
 1351SOL    HW1 4067   0.077   4.279   4.304
 1351SOL    HW2 4068   0.121   4.421   4.371
 1352SOL     OW 4069   1.689   4.646   4.336
 1352SOL    HW1 4070   1.784   4.617   4.344
 1352SOL    HW2 4071   1.681   4.711   4.261
 1353SOL     OW 4072   0.809   3.728   4.226
 1353SOL    HW1 4073   0.849   3.819   4.217
 1353SOL    HW2 4074   0.709   3.736   4.232
 1354SOL     OW 4075   1.525   4.723   3.914
 1354SOL    HW1 4076   1.462   4.647   3.927
 1354SOL    HW2 4077   1.573   4.741   4.000
 1355SOL     OW 4078   0.598   4.453   3.994
 1355SOL    HW1 4079   0.622   4.522   3.926
 1355SOL    HW2 4080   0.520   4.486   4.048
 1356SOL     OW 4081   1.281   4.069   4.668
 1356SOL    HW1 4082   1.195   4.019   4.655
 1356SOL    HW2 4083   1.343   4.015   4.724
 1357SOL     OW 4084   1.041   4.425   4.153
 1357SOL    HW1 4085   1.067   4.421   4.249
 1357SOL    HW2 4086   0.956   4.374   4.139
 1358SOL     OW 4087   0.076   4.535   4.513
 1358SOL    HW1 4088   0.175   4.523   4.522
 1358SOL    HW2 4089   0.052   4.630   4.534
 1359SOL     OW 4090   0.865   4.072   3.919
 1359SOL    HW1 4091   0.924   4.135   3.870
 1359SOL    HW2 4092   0.884   3.978   3.890
 1360SOL     OW 4093   0.550   3.920   4.609
 1360SOL    HW1 4094   0.545   3.915   4.709
 1360SOL    HW2 4095   0.552   4.016   4.580
 1361SOL     OW 4096   1.458   4.459   4.452
 1361SOL    HW1 4097   1.453   4.394   4.527
 1361SOL    HW2 4098   1.538   4.518   4.465
 1362SOL     OW 4099   1.400   3.831   4.150
 1362SOL    HW1 4100   1.376   3.794   4.060
 1362SOL    HW2 4101   1.499   3.847   4.154
 1363SOL     OW 4102   0.382   4.424   4.204
 1363SOL    HW1 4103   0.427   4.334   4.201
 1363SOL    HW2 4104   0.288   4.413   4.237
 1364SOL     OW 4105   0.614   3.846   3.841
 1364SOL    HW1 4106   0.712   3.824   3.848
 1364SOL    HW2 4107   0.583   3.829   3.748
 1365SOL     OW 4108   0.922   4.227   4.623
 1365SOL    HW1 4109   0.897   4.218   4.527
 1365SOL    HW2 4110   0.970   4.145   4.654
 1366SOL     OW 4111   0.539   3.788   4.236
 1366SOL    HW1 4112   0.458   3.789   4.294
 1366SOL    HW2 4113   0.542   3.871   4.181
 1367SOL     OW 4114   0.297   3.759   3.895
 1367SOL    HW1 4115   0.346   3.843   3.874
 1367SOL    HW2 4116   0.359   3.694   3.940
 1368SOL     OW 4117   0.935   3.960   4.204
 1368SOL    HW1 4118   0.887   4.001   4.126
 1368SOL    HW2 4119   1.034   3.958   4.185
 1369SOL     OW 4120   1.032   4.273   3.740
 1369SOL    HW1 4121   0.991   4.355   3.701
 1369SOL    HW2 4122   1.096   4.299   3.813
 1370SOL     OW 4123   0.866   4.178   4.366
 1370SOL    HW1 4124   0.834   4.250   4.304
 1370SOL    HW2 4125   0.890   4.097   4.313
 1371SOL     OW 4126   1.017   3.763   4.477
 1371SOL    HW1 4127   0.945   3.768   4.408
 1371SOL    HW2 4128   0.993   3.694   4.546
 1372SOL     OW 4129   1.429   4.897   4.591
 1372SOL    HW1 4130   1.374   4.813   4.584
 1372SOL    HW2 4131   1.455   4.926   4.499
 1373SOL     OW 4132   1.466   4.314   4.716
 1373SOL    HW1 4133   1.436   4.219   4.723
 1373SOL    HW2 4134   1.539   4.330   4.782
 1374SOL     OW 4135   1.857   4.557   4.101
 1374SOL    HW1 4136   1.899   4.493   4.165
 1374SOL    HW2 4137   1.819   4.506   4.023
 1375SOL     OW 4138   1.390   4.299   3.802
 1375SOL    HW1 4139   1.336   4.278   3.883
 1375SOL    HW2 4140   1.481   4.258   3.811
 1376SOL     OW 4141   0.527   3.980   4.052
 1376SOL    HW1 4142   0.554   3.921   3.977
 1376SOL    HW2 4143   0.527   4.075   4.021
 1377SOL     OW 4144   1.638   4.823   4.803
 1377SOL    HW1 4145   1.643   4.904   4.862
 1377SOL    HW2 4146   1.552   4.825   4.752
 1378SOL     OW 4147   0.566   4.261   4.589
 1378SOL    HW1 4148   0.578   4.327   4.515
 1378SOL    HW2 4149   0.612   4.295   4.672
 1379SOL     OW 4150   1.582   4.363   4.196
 1379SOL    HW1 4151   1.551   4.424   4.269
 1379SOL    HW2 4152   1.632   4.415   4.127
 1380SOL     OW 4153   0.573   4.594   4.753
 1380SOL    HW1 4154   0.617   4.683   4.744
 1380SOL    HW2 4155   0.510   4.594   4.830
 1381SOL     OW 4156   1.209   4.249   3.999
 1381SOL    HW1 4157   1.222   4.165   4.053
 1381SOL    HW2 4158   1.180   4.323   4.059
 1382SOL     OW 4159   0.307   3.937   4.955
 1382SOL    HW1 4160   0.284   3.974   5.045
 1382SOL    HW2 4161   0.277   3.842   4.949
 1383SOL     OW 4162   0.732   4.358   4.788
 1383SOL    HW1 4163   0.791   4.332   4.712
 1383SOL    HW2 4164   0.704   4.454   4.777
 1384SOL     OW 4165   0.307   3.787   4.342
 1384SOL    HW1 4166   0.296   3.881   4.375
 1384SOL    HW2 4167   0.302   3.724   4.419
 1385SOL     OW 4168   1.622   4.091   4.098
 1385SOL    HW1 4169   1.624   4.015   4.162
 1385SOL    HW2 4170   1.574   4.168   4.138
 1386SOL     OW 4171   1.540   3.998   3.849
 1386SOL    HW1 4172   1.479   3.923   3.872
 1386SOL    HW2 4173   1.562   4.050   3.932
 1387SOL     OW 4174   1.303   4.562   3.766
 1387SOL    HW1 4175   1.337   4.469   3.781
 1387SOL    HW2 4176   1.321   4.589   3.671
 1388SOL     OW 4177   0.319   4.534   4.673
 1388SOL    HW1 4178   0.412   4.570   4.678
 1388SOL    HW2 4179   0.313   4.449   4.725
 1389SOL     OW 4180   0.339   4.233   4.730
 1389SOL    HW1 4181   0.287   4.150   4.713
 1389SOL    HW2 4182   0.416   4.238   4.666
 1390SOL     OW 4183   0.815   4.296   4.049
 1390SOL    HW1 4184   0.822   4.207   4.003
 1390SOL    HW2 4185   0.721   4.330   4.041
 1391SOL     OW 4186   0.671   4.188   4.993
 1391SOL    HW1 4187   0.637   4.099   4.963
 1391SOL    HW2 4188   0.697   4.242   4.913
 1392SOL     OW 4189   0.473   4.224   3.915
 1392SOL    HW1 4190   0.534   4.304   3.919
 1392SOL    HW2 4191   0.378   4.255   3.922
 1393SOL     OW 4192   1.302   4.579   4.033
 1393SOL    HW1 4193   1.216   4.548   4.075
 1393SOL    HW2 4194   1.298   4.565   3.934
 1394SOL     OW 4195   1.726   3.859   4.247
 1394SOL    HW1 4196   1.799   3.842   4.180
 1394SOL    HW2 4197   1.695   3.772   4.285
 1395SOL     OW 4198   1.280   4.651   4.396
 1395SOL    HW1 4199   1.340   4.570   4.398
 1395SOL    HW2 4200   1.320   4.720   4.336
 1396SOL     OW 4201   1.841   3.899   4.687
 1396SOL    HW1 4202   1.880   3.814   4.651
 1396SOL    HW2 4203   1.743   3.901   4.668
 1397SOL     OW 4204   0.263   4.050   4.444
 1397SOL    HW1 4205   0.184   4.101   4.410
 1397SOL    HW2 4206   0.254   4.035   4.542
 1398SOL     OW 4207   0.916   4.634   4.015
 1398SOL    HW1 4208   0.979   4.672   3.947
 1398SOL    HW2 4209   0.956   4.551   4.054
 1399SOL     OW 4210   0.075   4.069   3.757
 1399SOL    HW1 4211  -0.017   4.041   3.728
 1399SOL    HW2 4212   0.106   4.146   3.701
 1400SOL     OW 4213   0.072   3.890   4.042
 1400SOL    HW1 4214   0.055   3.973   3.988
 1400SOL    HW2 4215   0.162   3.853   4.020
 1401SOL     OW 4216   1.183   5.059   3.843
 1401SOL    HW1 4217   1.084   5.048   3.845
 1401SOL    HW2 4218   1.217   5.074   3.936
 1402SOL     OW 4219   1.674   4.607   4.978
 1402SOL    HW1 4220   1.647   4.518   4.941
 1402SOL    HW2 4221   1.675   4.675   4.905
 1403SOL     OW 4222   1.225   4.049   4.173
 1403SOL    HW1 4223   1.290   3.975   4.162
 1403SOL    HW2 4224   1.245   4.099   4.257
 1404SOL     OW 4225   0.594   4.469   4.376
 1404SOL    HW1 4226   0.644   4.554   4.357
 1404SOL    HW2 4227   0.506   4.471   4.328
 1405SOL     OW 4228   0.859   4.680   4.585
 1405SOL    HW1 4229   0.913   4.611   4.633
 1405SOL    HW2 4230   0.827   4.749   4.651
 1406SOL     OW 4231   1.083   4.708   3.811
 1406SOL    HW1 4232   1.060   4.761   3.729
 1406SOL    HW2 4233   1.164   4.652   3.792
 1407SOL     OW 4234   0.079   4.964   4.377
 1407SOL    HW1 4235   0.078   4.917   4.465
 1407SOL    HW2 4236   0.161   4.936   4.326
 1408SOL     OW 4237   1.824   3.916   4.951
 1408SOL    HW1 4238   1.820   3.826   4.995
 1408SOL    HW2 4239   1.827   3.905   4.852
 1409SOL     OW 4240   0.428   4.148   4.244
 1409SOL    HW1 4241   0.458   4.076   4.182
 1409SOL    HW2 4242   0.389   4.108   4.327
 1410SOL     OW 4243   1.352   3.776   3.892
 1410SOL    HW1 4244   1.387   3.735   3.808
 1410SOL    HW2 4245   1.262   3.738   3.912
 1411SOL     OW 4246   1.300   4.177   4.415
 1411SOL    HW1 4247   1.241   4.257   4.419
 1411SOL    HW2 4248   1.315   4.142   4.508
 1412SOL     OW 4249   1.593   3.945   4.606
 1412SOL    HW1 4250   1.509   3.944   4.660
 1412SOL    HW2 4251   1.595   4.028   4.550
 1413SOL     OW 4252   2.092   0.628   0.113
 1413SOL    HW1 4253   1.999   0.626   0.150
 1413SOL    HW2 4254   2.093   0.589   0.021
 1414SOL     OW 4255   2.087   0.275   0.996
 1414SOL    HW1 4256   2.122   0.258   1.088
 1414SOL    HW2 4257   1.999   0.230   0.984
 1415SOL     OW 4258   1.881   0.368   0.647
 1415SOL    HW1 4259   1.799   0.411   0.686
 1415SOL    HW2 4260   1.853   0.295   0.584
 1416SOL     OW 4261   2.431   1.275   1.165
 1416SOL    HW1 4262   2.338   1.268   1.128
 1416SOL    HW2 4263   2.442   1.364   1.209
 1417SOL     OW 4264   3.417   1.511   0.703
 1417SOL    HW1 4265   3.360   1.495   0.784
 1417SOL    HW2 4266   3.358   1.521   0.623
 1418SOL     OW 4267   2.997   0.703   0.717
 1418SOL    HW1 4268   3.054   0.781   0.692
 1418SOL    HW2 4269   2.937   0.729   0.793
 1419SOL     OW 4270   3.617   0.607   0.231
 1419SOL    HW1 4271   3.605   0.594   0.132
 1419SOL    HW2 4272   3.587   0.526   0.280
 1420SOL     OW 4273   2.630   1.144   1.023
 1420SOL    HW1 4274   2.552   1.161   1.083
 1420SOL    HW2 4275   2.664   1.231   0.987
 1421SOL     OW 4276   2.712   0.798   1.823
 1421SOL    HW1 4277   2.708   0.874   1.888
 1421SOL    HW2 4278   2.734   0.834   1.732
 1422SOL     OW 4279   2.547   1.012   0.665
 1422SOL    HW1 4280   2.616   0.996   0.735
 1422SOL    HW2 4281   2.474   1.069   0.703
 1423SOL     OW 4282   2.548   1.161   1.803
 1423SOL    HW1 4283   2.608   1.240   1.817
 1423SOL    HW2 4284   2.462   1.192   1.762
 1424SOL     OW 4285   2.197   1.435   1.061
 1424SOL    HW1 4286   2.119   1.404   1.008
 1424SOL    HW2 4287   2.255   1.493   1.004
 1425SOL     OW 4288   3.322   1.505   1.339
 1425SOL    HW1 4289   3.346   1.599   1.365
 1425SOL    HW2 4290   3.306   1.451   1.421
 1426SOL     OW 4291   2.300   0.392   1.499
 1426SOL    HW1 4292   2.382   0.336   1.508
 1426SOL    HW2 4293   2.219   0.334   1.503
 1427SOL     OW 4294   3.465   0.447   0.737
 1427SOL    HW1 4295   3.391   0.493   0.687
 1427SOL    HW2 4296   3.516   0.515   0.790
 1428SOL     OW 4297   2.093   1.713   0.483
 1428SOL    HW1 4298   2.127   1.790   0.537
 1428SOL    HW2 4299   2.137   1.713   0.393
 1429SOL     OW 4300   2.989   1.341   1.690
 1429SOL    HW1 4301   3.036   1.341   1.778
 1429SOL    HW2 4302   2.941   1.254   1.679
 1430SOL     OW 4303   2.092   1.434   0.538
 1430SOL    HW1 4304   2.066   1.530   0.538
 1430SOL    HW2 4305   2.021   1.380   0.583
 1431SOL     OW 4306   2.102   1.091   0.886
 1431SOL    HW1 4307   2.116   1.007   0.938
 1431SOL    HW2 4308   2.047   1.155   0.941
 1432SOL     OW 4309   2.482   1.786   1.439
 1432SOL    HW1 4310   2.390   1.769   1.474
 1432SOL    HW2 4311   2.510   1.878   1.465
 1433SOL     OW 4312   2.468   0.964   0.123
 1433SOL    HW1 4313   2.475   1.048   0.069
 1433SOL    HW2 4314   2.514   0.977   0.211
 1434SOL     OW 4315   3.456   0.114   1.480
 1434SOL    HW1 4316   3.438   0.181   1.408
 1434SOL    HW2 4317   3.453   0.160   1.569
 1435SOL     OW 4318   1.984   0.643   0.563
 1435SOL    HW1 4319   1.939   0.555   0.580
 1435SOL    HW2 4320   1.983   0.697   0.647
 1436SOL     OW 4321   3.704   1.767   0.359
 1436SOL    HW1 4322   3.758   1.738   0.439
 1436SOL    HW2 4323   3.734   1.857   0.330
 1437SOL     OW 4324   1.889   1.596   0.117
 1437SOL    HW1 4325   1.870   1.500   0.138
 1437SOL    HW2 4326   1.856   1.654   0.192
 1438SOL     OW 4327   3.551   0.922   0.612
 1438SOL    HW1 4328   3.646   0.893   0.620
 1438SOL    HW2 4329   3.543   0.987   0.537
 1439SOL     OW 4330   3.503   1.108   0.432
 1439SOL    HW1 4331   3.589   1.110   0.380
 1439SOL    HW2 4332   3.517   1.155   0.520
 1440SOL     OW 4333   1.975   0.737   1.597
 1440SOL    HW1 4334   2.063   0.724   1.642
 1440SOL    HW2 4335   1.962   0.834   1.575
 1441SOL     OW 4336   2.475   1.365   0.726
 1441SOL    HW1 4337   2.426   1.278   0.735
 1441SOL    HW2 4338   2.452   1.408   0.639
 1442SOL     OW 4339   3.155   1.228   1.423
 1442SOL    HW1 4340   3.192   1.155   1.365
 1442SOL    HW2 4341   3.207   1.233   1.508
 1443SOL     OW 4342   2.671   0.004   0.502
 1443SOL    HW1 4343   2.711   0.095   0.493
 1443SOL    HW2 4344   2.571   0.012   0.508
 1444SOL     OW 4345   2.059   0.976   1.264
 1444SOL    HW1 4346   2.148   0.931   1.250
 1444SOL    HW2 4347   1.986   0.911   1.245
 1445SOL     OW 4348   3.387   0.999   0.190
 1445SOL    HW1 4349   3.324   0.923   0.203
 1445SOL    HW2 4350   3.435   1.017   0.276
 1446SOL     OW 4351   3.049   1.792   1.616
 1446SOL    HW1 4352   3.073   1.852   1.540
 1446SOL    HW2 4353   3.056   1.697   1.586
 1447SOL     OW 4354   2.179   0.251   1.801
 1447SOL    HW1 4355   2.250   0.322   1.807
 1447SOL    HW2 4356   2.091   0.290   1.829
 1448SOL     OW 4357   3.328   1.417   0.953
 1448SOL    HW1 4358   3.269   1.423   1.033
 1448SOL    HW2 4359   3.313   1.329   0.907
 1449SOL     OW 4360   3.529   1.714   0.572
 1449SOL    HW1 4361   3.488   1.691   0.484
 1449SOL    HW2 4362   3.511   1.640   0.637
 1450SOL     OW 4363   2.460   0.729   0.270
 1450SOL    HW1 4364   2.484   0.798   0.202
 1450SOL    HW2 4365   2.382   0.762   0.324
 1451SOL     OW 4366   3.143   0.345   0.944
 1451SOL    HW1 4367   3.057   0.295   0.931
 1451SOL    HW2 4368   3.205   0.291   1.000
 1452SOL     OW 4369   3.438   1.662   0.307
 1452SOL    HW1 4370   3.527   1.708   0.310
 1452SOL    HW2 4371   3.417   1.638   0.212
 1453SOL     OW 4372   2.669   0.605   1.465
 1453SOL    HW1 4373   2.622   0.602   1.554
 1453SOL    HW2 4374   2.618   0.550   1.399
 1454SOL     OW 4375   3.256   0.469   1.674
 1454SOL    HW1 4376   3.236   0.512   1.762
 1454SOL    HW2 4377   3.334   0.407   1.683
 1455SOL     OW 4378   2.835   0.890   1.572
 1455SOL    HW1 4379   2.881   0.806   1.543
 1455SOL    HW2 4380   2.779   0.924   1.497
 1456SOL     OW 4381   2.853   0.410   1.242
 1456SOL    HW1 4382   2.776   0.444   1.296
 1456SOL    HW2 4383   2.819   0.359   1.163
 1457SOL     OW 4384   2.903   0.701   0.429
 1457SOL    HW1 4385   2.929   0.697   0.525
 1457SOL    HW2 4386   2.818   0.650   0.415
 1458SOL     OW 4387   1.938   0.811   0.789
 1458SOL    HW1 4388   2.037   0.799   0.798
 1458SOL    HW2 4389   1.914   0.906   0.810
 1459SOL     OW 4390   1.992   1.821   1.571
 1459SOL    HW1 4391   1.982   1.806   1.670
 1459SOL    HW2 4392   1.906   1.857   1.535
 1460SOL     OW 4393   2.727   0.348   0.195
 1460SOL    HW1 4394   2.786   0.411   0.146
 1460SOL    HW2 4395   2.746   0.254   0.166
 1461SOL     OW 4396   3.581   0.585   1.831
 1461SOL    HW1 4397   3.555   0.674   1.795
 1461SOL    HW2 4398   3.579   0.517   1.758
 1462SOL     OW 4399   3.224   1.144   0.545
 1462SOL    HW1 4400   3.307   1.115   0.497
 1462SOL    HW2 4401   3.175   1.211   0.489
 1463SOL     OW 4402   2.412   0.196   0.885
 1463SOL    HW1 4403   2.407   0.191   0.985
 1463SOL    HW2 4404   2.414   0.292   0.856
 1464SOL     OW 4405   2.870   1.456   0.477
 1464SOL    HW1 4406   2.824   1.528   0.425
 1464SOL    HW2 4407   2.866   1.476   0.575
 1465SOL     OW 4408   2.213   1.801   0.853
 1465SOL    HW1 4409   2.263   1.715   0.859
 1465SOL    HW2 4410   2.278   1.878   0.850
 1466SOL     OW 4411   3.657   1.066   0.873
 1466SOL    HW1 4412   3.595   1.051   0.797
 1466SOL    HW2 4413   3.605   1.077   0.958
 1467SOL     OW 4414   3.089   1.550   1.506
 1467SOL    HW1 4415   3.095   1.473   1.570
 1467SOL    HW2 4416   3.037   1.524   1.426
 1468SOL     OW 4417   2.183   0.943   0.242
 1468SOL    HW1 4418   2.265   0.982   0.200
 1468SOL    HW2 4419   2.156   0.861   0.193
 1469SOL     OW 4420   3.320   0.735   0.728
 1469SOL    HW1 4421   3.315   0.670   0.803
 1469SOL    HW2 4422   3.400   0.794   0.741
 1470SOL     OW 4423   2.323   1.266   1.727
 1470SOL    HW1 4424   2.273   1.267   1.641
 1470SOL    HW2 4425   2.260   1.248   1.803
 1471SOL     OW 4426   2.973   1.776   0.237
 1471SOL    HW1 4427   2.913   1.714   0.287
 1471SOL    HW2 4428   3.004   1.732   0.152
 1472SOL     OW 4429   2.064   0.285   1.498
 1472SOL    HW1 4430   1.984   0.345   1.485
 1472SOL    HW2 4431   2.054   0.236   1.584
 1473SOL     OW 4432   3.494   1.377   0.081
 1473SOL    HW1 4433   3.462   1.471   0.071
 1473SOL    HW2 4434   3.418   1.314   0.069
 1474SOL     OW 4435   2.326   1.743   0.323
 1474SOL    HW1 4436   2.359   1.782   0.409
 1474SOL    HW2 4437   2.402   1.736   0.258
 1475SOL     OW 4438   3.262   0.107   0.426
 1475SOL    HW1 4439   3.238   0.070   0.336
 1475SOL    HW2 4440   3.361   0.123   0.430
 1476SOL     OW 4441   2.111   1.785   1.241
 1476SOL    HW1 4442   2.168   1.720   1.291
 1476SOL    HW2 4443   2.095   1.752   1.148
 1477SOL     OW 4444   2.802   1.698   0.904
 1477SOL    HW1 4445   2.882   1.641   0.925
 1477SOL    HW2 4446   2.753   1.658   0.827
 1478SOL     OW 4447   2.244   0.700   0.480
 1478SOL    HW1 4448   2.289   0.610   0.477
 1478SOL    HW2 4449   2.150   0.689   0.513
 1479SOL     OW 4450   3.409   0.222   1.729
 1479SOL    HW1 4451   3.404   0.259   1.821
 1479SOL    HW2 4452   3.337   0.153   1.717
 1480SOL     OW 4453   2.476   0.122   0.117
 1480SOL    HW1 4454   2.574   0.100   0.124
 1480SOL    HW2 4455   2.445   0.105   0.024
 1481SOL     OW 4456   2.643   0.264   1.749
 1481SOL    HW1 4457   2.710   0.203   1.792
 1481SOL    HW2 4458   2.570   0.283   1.814
 1482SOL     OW 4459   2.750   1.514   1.195
 1482SOL    HW1 4460   2.727   1.489   1.101
 1482SOL    HW2 4461   2.811   1.445   1.234
 1483SOL     OW 4462   3.213   0.590   1.433
 1483SOL    HW1 4463   3.241   0.547   1.518
 1483SOL    HW2 4464   3.238   0.686   1.434
 1484SOL     OW 4465   2.665   1.402   0.924
 1484SOL    HW1 4466   2.755   1.416   0.882
 1484SOL    HW2 4467   2.594   1.404   0.853
 1485SOL     OW 4468   2.784   0.503   0.899
 1485SOL    HW1 4469   2.759   0.494   0.803
 1485SOL    HW2 4470   2.832   0.421   0.930
 1486SOL     OW 4471   2.401   0.064   0.512
 1486SOL    HW1 4472   2.320   0.065   0.570
 1486SOL    HW2 4473   2.404   0.147   0.457
 1487SOL     OW 4474   3.296   1.188   0.041
 1487SOL    HW1 4475   3.328   1.112   0.098
 1487SOL    HW2 4476   3.204   1.215   0.071
 1488SOL     OW 4477   2.159   0.035   0.171
 1488SOL    HW1 4478   2.208   0.119   0.150
 1488SOL    HW2 4479   2.221  -0.030   0.216
 1489SOL     OW 4480   2.797   0.236   0.480
 1489SOL    HW1 4481   2.749   0.277   0.402
 1489SOL    HW2 4482   2.896   0.234   0.461
 1490SOL     OW 4483   2.938   0.683   1.464
 1490SOL    HW1 4484   2.858   0.622   1.467
 1490SOL    HW2 4485   3.019   0.630   1.440
 1491SOL     OW 4486   3.089   1.570   0.793
 1491SOL    HW1 4487   3.110   1.644   0.728
 1491SOL    HW2 4488   3.157   1.570   0.866
 1492SOL     OW 4489   2.321   1.152   0.741
 1492SOL    HW1 4490   2.250   1.125   0.806
 1492SOL    HW2 4491   2.295   1.124   0.648
 1493SOL     OW 4492   3.133   1.797   0.591
 1493SOL    HW1 4493   3.177   1.861   0.527
 1493SOL    HW2 4494   3.083   1.849   0.661
 1494SOL     OW 4495   2.894   0.549   0.016
 1494SOL    HW1 4496   2.853   0.631  -0.023
 1494SOL    HW2 4497   2.958   0.575   0.089
 1495SOL     OW 4498   1.940   0.556   1.386
 1495SOL    HW1 4499   2.032   0.555   1.345
 1495SOL    HW2 4500   1.934   0.630   1.453
 1496SOL     OW 4501   2.423   0.222   1.147
 1496SOL    HW1 4502   2.461   0.138   1.184
 1496SOL    HW2 4503   2.335   0.241   1.191
 1497SOL     OW 4504   2.728   0.454   0.642
 1497SOL    HW1 4505   2.696   0.526   0.580
 1497SOL    HW2 4506   2.752   0.373   0.589
 1498SOL     OW 4507   2.879   0.039   0.753
 1498SOL    HW1 4508   2.807   0.044   0.684
 1498SOL    HW2 4509   2.855  -0.030   0.822
 1499SOL     OW 4510   3.291   1.173   0.867
 1499SOL    HW1 4511   3.236   1.089   0.860
 1499SOL    HW2 4512   3.317   1.202   0.775
 1500SOL     OW 4513   3.328   0.590   0.992
 1500SOL    HW1 4514   3.298   0.495   0.999
 1500SOL    HW2 4515   3.401   0.606   1.058
 1501SOL     OW 4516   3.719   0.833   0.377
 1501SOL    HW1 4517   3.761   0.769   0.441
 1501SOL    HW2 4518   3.681   0.782   0.299
 1502SOL     OW 4519   2.350   1.385   0.174
 1502SOL    HW1 4520   2.263   1.370   0.221
 1502SOL    HW2 4521   2.333   1.411   0.079
 1503SOL     OW 4522   3.526   1.280   0.657
 1503SOL    HW1 4523   3.625   1.288   0.671
 1503SOL    HW2 4524   3.481   1.364   0.688
 1504SOL     OW 4525   3.252   0.575   0.078
 1504SOL    HW1 4526   3.198   0.554   0.159
 1504SOL    HW2 4527   3.343   0.534   0.087
 1505SOL     OW 4528   2.389   0.256   0.328
 1505SOL    HW1 4529   2.416   0.197   0.253
 1505SOL    HW2 4530   2.389   0.351   0.297
 1506SOL     OW 4531   3.616   1.223   1.588
 1506SOL    HW1 4532   3.707   1.184   1.575
 1506SOL    HW2 4533   3.624   1.319   1.612
 1507SOL     OW 4534   2.926   1.347   1.340
 1507SOL    HW1 4535   2.846   1.324   1.395
 1507SOL    HW2 4536   3.009   1.321   1.389
 1508SOL     OW 4537   3.454   1.629   1.625
 1508SOL    HW1 4538   3.481   1.663   1.535
 1508SOL    HW2 4539   3.533   1.591   1.671
 1509SOL     OW 4540   2.973   1.195   1.100
 1509SOL    HW1 4541   2.933   1.239   1.181
 1509SOL    HW2 4542   2.932   1.232   1.017
 1510SOL     OW 4543   3.500   1.099   1.079
 1510SOL    HW1 4544   3.505   1.180   1.138
 1510SOL    HW2 4545   3.414   1.101   1.028
 1511SOL     OW 4546   2.777   0.089   1.402
 1511SOL    HW1 4547   2.802   0.069   1.307
 1511SOL    HW2 4548   2.849   0.145   1.444
 1512SOL     OW 4549   2.842   1.116   1.719
 1512SOL    HW1 4550   2.743   1.122   1.729
 1512SOL    HW2 4551   2.865   1.036   1.663
 1513SOL     OW 4552   2.567   1.050   0.368
 1513SOL    HW1 4553   2.553   1.057   0.467
 1513SOL    HW2 4554   2.651   0.999   0.350
 1514SOL     OW 4555   2.272   0.813   1.251
 1514SOL    HW1 4556   2.358   0.825   1.301
 1514SOL    HW2 4557   2.230   0.726   1.278
 1515SOL     OW 4558   3.136   0.386   1.262
 1515SOL    HW1 4559   3.157   0.460   1.326
 1515SOL    HW2 4560   3.047   0.403   1.219
 1516SOL     OW 4561   1.926   1.564   1.331
 1516SOL    HW1 4562   1.880   1.646   1.297
 1516SOL    HW2 4563   2.024   1.583   1.340
 1517SOL     OW 4564   2.229   1.100   0.501
 1517SOL    HW1 4565   2.222   1.183   0.445
 1517SOL    HW2 4566   2.233   1.020   0.441
 1518SOL     OW 4567   2.428   0.537   0.865
 1518SOL    HW1 4568   2.440   0.603   0.791
 1518SOL    HW2 4569   2.474   0.571   0.948
 1519SOL     OW 4570   3.114   1.348   0.388
 1519SOL    HW1 4571   3.164   1.425   0.428
 1519SOL    HW2 4572   3.019   1.350   0.420
 1520SOL     OW 4573   3.134   1.445   1.142
 1520SOL    HW1 4574   3.181   1.458   1.229
 1520SOL    HW2 4575   3.068   1.371   1.151
 1521SOL     OW 4576   3.444   0.639   0.472
 1521SOL    HW1 4577   3.413   0.700   0.545
 1521SOL    HW2 4578   3.494   0.691   0.403
 1522SOL     OW 4579   2.216   1.510   1.329
 1522SOL    HW1 4580   2.195   1.466   1.242
 1522SOL    HW2 4581   2.313   1.536   1.332
 1523SOL     OW 4582   2.264   0.751   1.598
 1523SOL    HW1 4583   2.332   0.806   1.551
 1523SOL    HW2 4584   2.304   0.663   1.625
 1524SOL     OW 4585   3.449   0.779   1.670
 1524SOL    HW1 4586   3.357   0.817   1.665
 1524SOL    HW2 4587   3.509   0.826   1.605
 1525SOL     OW 4588   2.875   0.105   1.770
 1525SOL    HW1 4589   2.881   0.190   1.718
 1525SOL    HW2 4590   2.907   0.029   1.713
 1526SOL     OW 4591   2.366   0.050   1.740
 1526SOL    HW1 4592   2.324  -0.007   1.670
 1526SOL    HW2 4593   2.300   0.119   1.772
 1527SOL     OW 4594   2.435   0.870   1.029
 1527SOL    HW1 4595   2.479   0.959   1.020
 1527SOL    HW2 4596   2.372   0.870   1.106
 1528SOL     OW 4597   3.222   0.862   1.045
 1528SOL    HW1 4598   3.147   0.862   0.979
 1528SOL    HW2 4599   3.259   0.770   1.054
 1529SOL     OW 4600   3.071   0.525   0.275
 1529SOL    HW1 4601   3.084   0.441   0.329
 1529SOL    HW2 4602   3.042   0.599   0.335
 1530SOL     OW 4603   2.169   0.213   1.231
 1530SOL    HW1 4604   2.146   0.250   1.321
 1530SOL    HW2 4605   2.139   0.118   1.225
 1531SOL     OW 4606   1.899   1.310   1.282
 1531SOL    HW1 4607   1.952   1.261   1.350
 1531SOL    HW2 4608   1.921   1.408   1.287
 1532SOL     OW 4609   2.594   0.634   1.064
 1532SOL    HW1 4610   2.653   0.608   0.988
 1532SOL    HW2 4611   2.566   0.730   1.053
 1533SOL     OW 4612   3.590   0.935   1.854
 1533SOL    HW1 4613   3.544   0.928   1.765
 1533SOL    HW2 4614   3.528   0.979   1.920
 1534SOL     OW 4615   2.169   0.063   0.618
 1534SOL    HW1 4616   2.158   0.157   0.651
 1534SOL    HW2 4617   2.164   0.000   0.695
 1535SOL     OW 4618   3.484   0.367   0.374
 1535SOL    HW1 4619   3.486   0.291   0.438
 1535SOL    HW2 4620   3.436   0.444   0.414
 1536SOL     OW 4621   2.885   0.766   0.966
 1536SOL    HW1 4622   2.900   0.787   1.062
 1536SOL    HW2 4623   2.855   0.671   0.957
 1537SOL     OW 4624   2.842   1.573   1.700
 1537SOL    HW1 4625   2.822   1.617   1.612
 1537SOL    HW2 4626   2.881   1.482   1.684
 1538SOL     OW 4627   3.721   1.518   1.605
 1538SOL    HW1 4628   3.735   1.545   1.510
 1538SOL    HW2 4629   3.804   1.540   1.658
 1539SOL     OW 4630   2.212   0.898   1.804
 1539SOL    HW1 4631   2.288   0.942   1.852
 1539SOL    HW2 4632   2.247   0.851   1.722
 1540SOL     OW 4633   3.402   0.274   0.125
 1540SOL    HW1 4634   3.341   0.199   0.148
 1540SOL    HW2 4635   3.424   0.326   0.208
 1541SOL     OW 4636   3.165   0.838   0.042
 1541SOL    HW1 4637   3.199   0.745   0.057
 1541SOL    HW2 4638   3.183   0.865  -0.053
 1542SOL     OW 4639   2.930   1.333   0.849
 1542SOL    HW1 4640   2.937   1.249   0.794
 1542SOL    HW2 4641   2.992   1.402   0.813
 1543SOL     OW 4642   2.181   0.810   0.949
 1543SOL    HW1 4643   2.274   0.846   0.954
 1543SOL    HW2 4644   2.175   0.725   1.001
 1544SOL     OW 4645   2.201   0.509   1.006
 1544SOL    HW1 4646   2.149   0.426   0.989
 1544SOL    HW2 4647   2.278   0.514   0.942
 1545SOL     OW 4648   3.000   0.380   1.678
 1545SOL    HW1 4649   2.955   0.443   1.742
 1545SOL    HW2 4650   3.093   0.411   1.661
 1546SOL     OW 4651   3.022   0.207   1.477
 1546SOL    HW1 4652   3.022   0.271   1.554
 1546SOL    HW2 4653   3.050   0.255   1.394
 1547SOL     OW 4654   1.870   1.326   0.200
 1547SOL    HW1 4655   1.777   1.347   0.169
 1547SOL    HW2 4656   1.880   1.227   0.213
 1548SOL     OW 4657   1.950   1.801   0.927
 1548SOL    HW1 4658   1.908   1.715   0.900
 1548SOL    HW2 4659   2.044   1.804   0.893
 1549SOL     OW 4660   2.366   1.568   0.910
 1549SOL    HW1 4661   2.432   1.642   0.919
 1549SOL    HW2 4662   2.410   1.489   0.868
 1550SOL     OW 4663   2.864   0.796   1.238
 1550SOL    HW1 4664   2.905   0.764   1.324
 1550SOL    HW2 4665   2.768   0.769   1.235
 1551SOL     OW 4666   1.902   0.544   1.114
 1551SOL    HW1 4667   1.987   0.511   1.073
 1551SOL    HW2 4668   1.915   0.559   1.212
 1552SOL     OW 4669   2.051   0.520   1.722
 1552SOL    HW1 4670   2.110   0.480   1.652
 1552SOL    HW2 4671   1.993   0.591   1.681
 1553SOL     OW 4672   3.231   0.950   1.660
 1553SOL    HW1 4673   3.270   1.039   1.680
 1553SOL    HW2 4674   3.241   0.930   1.563
 1554SOL     OW 4675   2.677   0.572   0.325
 1554SOL    HW1 4676   2.684   0.483   0.279
 1554SOL    HW2 4677   2.583   0.606   0.317
 1555SOL     OW 4678   3.519   0.604   1.206
 1555SOL    HW1 4679   3.481   0.535   1.268
 1555SOL    HW2 4680   3.601   0.568   1.162
 1556SOL     OW 4681   2.114   1.564   1.744
 1556SOL    HW1 4682   2.084   1.621   1.820
 1556SOL    HW2 4683   2.107   1.467   1.770
 1557SOL     OW 4684   2.533   0.464   1.269
 1557SOL    HW1 4685   2.499   0.375   1.239
 1557SOL    HW2 4686   2.559   0.518   1.189
 1558SOL     OW 4687   2.792   1.678   1.465
 1558SOL    HW1 4688   2.768   1.660   1.370
 1558SOL    HW2 4689   2.822   1.772   1.475
 1559SOL     OW 4690   2.335   0.500   0.191
 1559SOL    HW1 4691   2.396   0.580   0.195
 1559SOL    HW2 4692   2.240   0.531   0.198
 1560SOL     OW 4693   2.021   1.137   1.466
 1560SOL    HW1 4694   2.043   1.076   1.542
 1560SOL    HW2 4695   2.031   1.088   1.380
 1561SOL     OW 4696   3.209   1.059   1.234
 1561SOL    HW1 4697   3.233   0.996   1.160
 1561SOL    HW2 4698   3.119   1.099   1.216
 1562SOL     OW 4699   3.164   0.855   0.309
 1562SOL    HW1 4700   3.078   0.824   0.351
 1562SOL    HW2 4701   3.160   0.841   0.210
 1563SOL     OW 4702   3.621   1.747   1.154
 1563SOL    HW1 4703   3.682   1.777   1.081
 1563SOL    HW2 4704   3.583   1.658   1.132
 1564SOL     OW 4705   3.114   1.731   1.128
 1564SOL    HW1 4706   3.198   1.736   1.074
 1564SOL    HW2 4707   3.091   1.635   1.146
 1565SOL     OW 4708   1.945   1.258   1.022
 1565SOL    HW1 4709   1.940   1.257   1.122
 1565SOL    HW2 4710   1.862   1.217   0.984
 1566SOL     OW 4711   2.550   1.662   1.716
 1566SOL    HW1 4712   2.494   1.743   1.725
 1566SOL    HW2 4713   2.602   1.666   1.630
 1567SOL     OW 4714   2.765   0.086   0.133
 1567SOL    HW1 4715   2.816   0.087   0.047
 1567SOL    HW2 4716   2.821   0.044   0.204
 1568SOL     OW 4717   3.588   0.135   0.523
 1568SOL    HW1 4718   3.661   0.118   0.456
 1568SOL    HW2 4719   3.557   0.048   0.561
 1569SOL     OW 4720   3.250   1.573   0.477
 1569SOL    HW1 4721   3.317   1.585   0.403
 1569SOL    HW2 4722   3.210   1.662   0.500
 1570SOL     OW 4723   1.992   1.794   1.851
 1570SOL    HW1 4724   1.951   1.720   1.904
 1570SOL    HW2 4725   2.056   1.845   1.909
 1571SOL     OW 4726   3.142   0.927   0.672
 1571SOL    HW1 4727   3.202   0.846   0.674
 1571SOL    HW2 4728   3.182   0.996   0.612
 1572SOL     OW 4729   2.692   1.273   1.422
 1572SOL    HW1 4730   2.687   1.306   1.517
 1572SOL    HW2 4731   2.606   1.292   1.376
 1573SOL     OW 4732   2.534   1.616   0.154
 1573SOL    HW1 4733   2.543   1.626   0.055
 1573SOL    HW2 4734   2.494   1.527   0.175
 1574SOL     OW 4735   3.512   1.720   1.394
 1574SOL    HW1 4736   3.565   1.730   1.310
 1574SOL    HW2 4737   3.485   1.810   1.428
 1575SOL     OW 4738   3.703   0.175   0.963
 1575SOL    HW1 4739   3.742   0.090   0.927
 1575SOL    HW2 4740   3.605   0.177   0.944
 1576SOL     OW 4741   2.125   0.326   0.720
 1576SOL    HW1 4742   2.046   0.377   0.686
 1576SOL    HW2 4743   2.116   0.311   0.818
 1577SOL     OW 4744   3.056   1.612   0.031
 1577SOL    HW1 4745   3.062   1.519   0.068
 1577SOL    HW2 4746   2.997   1.612  -0.049
 1578SOL     OW 4747   2.684   1.002   1.372
 1578SOL    HW1 4748   2.724   1.001   1.280
 1578SOL    HW2 4749   2.694   1.094   1.412
 1579SOL     OW 4750   2.778   0.910   0.291
 1579SOL    HW1 4751   2.841   0.948   0.223
 1579SOL    HW2 4752   2.818   0.827   0.330
 1580SOL     OW 4753   3.366   1.607   0.044
 1580SOL    HW1 4754   3.274   1.644   0.051
 1580SOL    HW2 4755   3.404   1.627  -0.046
 1581SOL     OW 4756   2.234   1.288   1.490
 1581SOL    HW1 4757   2.221   1.381   1.456
 1581SOL    HW2 4758   2.150   1.236   1.477
 1582SOL     OW 4759   3.476   1.292   1.289
 1582SOL    HW1 4760   3.536   1.295   1.369
 1582SOL    HW2 4761   3.401   1.356   1.302
 1583SOL     OW 4762   2.901   1.098   0.696
 1583SOL    HW1 4763   2.831   1.051   0.750
 1583SOL    HW2 4764   2.960   1.030   0.653
 1584SOL     OW 4765   2.876   0.236   0.971
 1584SOL    HW1 4766   2.868   0.200   0.878
 1584SOL    HW2 4767   2.874   0.160   1.036
 1585SOL     OW 4768   2.452   1.487   0.491
 1585SOL    HW1 4769   2.494   1.429   0.421
 1585SOL    HW2 4770   2.408   1.566   0.447
 1586SOL     OW 4771   3.571   0.385   1.381
 1586SOL    HW1 4772   3.644   0.454   1.385
 1586SOL    HW2 4773   3.599   0.310   1.322
 1587SOL     OW 4774   2.117   1.348   0.290
 1587SOL    HW1 4775   2.021   1.349   0.263
 1587SOL    HW2 4776   2.129   1.401   0.374
 1588SOL     OW 4777   1.967   1.013   1.726
 1588SOL    HW1 4778   1.890   0.980   1.780
 1588SOL    HW2 4779   2.052   0.983   1.768
 1589SOL     OW 4780   2.534   0.203   1.489
 1589SOL    HW1 4781   2.624   0.187   1.449
 1589SOL    HW2 4782   2.542   0.208   1.588
 1590SOL     OW 4783   1.937   0.345   0.033
 1590SOL    HW1 4784   1.845   0.317   0.004
 1590SOL    HW2 4785   1.968   0.422  -0.023
 1591SOL     OW 4786   3.302   0.856   1.398
 1591SOL    HW1 4787   3.245   0.908   1.335
 1591SOL    HW2 4788   3.398   0.868   1.374
 1592SOL     OW 4789   1.934   0.166   0.318
 1592SOL    HW1 4790   1.917   0.249   0.264
 1592SOL    HW2 4791   2.024   0.129   0.296
 1593SOL     OW 4792   3.045   1.335   0.119
 1593SOL    HW1 4793   2.946   1.324   0.121
 1593SOL    HW2 4794   3.079   1.350   0.212
 1594SOL     OW 4795   2.475   0.842   1.431
 1594SOL    HW1 4796   2.531   0.923   1.414
 1594SOL    HW2 4797   2.534   0.762   1.434
 1595SOL     OW 4798   3.355   1.767   0.959
 1595SOL    HW1 4799   3.388   1.831   0.890
 1595SOL    HW2 4800   3.421   1.761   1.034
 1596SOL     OW 4801   2.578   0.565   1.708
 1596SOL    HW1 4802   2.597   0.630   1.782
 1596SOL    HW2 4803   2.638   0.485   1.717
 1597SOL     OW 4804   3.312   1.220   1.633
 1597SOL    HW1 4805   3.303   1.210   1.732
 1597SOL    HW2 4806   3.408   1.213   1.607
 1598SOL     OW 4807   2.252   1.741   1.560
 1598SOL    HW1 4808   2.161   1.782   1.558
 1598SOL    HW2 4809   2.245   1.647   1.592
 1599SOL     OW 4810   3.536   0.883   1.254
 1599SOL    HW1 4811   3.509   0.794   1.217
 1599SOL    HW2 4812   3.537   0.951   1.181
 1600SOL     OW 4813   3.087   0.325   0.449
 1600SOL    HW1 4814   3.152   0.251   0.438
 1600SOL    HW2 4815   3.107   0.375   0.533
 1601SOL     OW 4816   2.456   0.745   0.652
 1601SOL    HW1 4817   2.506   0.830   0.633
 1601SOL    HW2 4818   2.368   0.747   0.604
 1602SOL     OW 4819   3.639   0.342   1.642
 1602SOL    HW1 4820   3.622   0.373   1.548
 1602SOL    HW2 4821   3.555   0.305   1.680
 1603SOL     OW 4822   3.592   0.934   1.517
 1603SOL    HW1 4823   3.630   1.025   1.532
 1603SOL    HW2 4824   3.584   0.917   1.418
 1604SOL     OW 4825   2.721   1.374   0.016
 1604SOL    HW1 4826   2.675   1.389   0.104
 1604SOL    HW2 4827   2.765   1.459  -0.014
 1605SOL     OW 4828   2.523   1.790   0.953
 1605SOL    HW1 4829   2.477   1.878   0.940
 1605SOL    HW2 4830   2.622   1.802   0.946
 1606SOL     OW 4831   2.721   0.956   0.861
 1606SOL    HW1 4832   2.775   0.887   0.909
 1606SOL    HW2 4833   2.689   1.025   0.927
 1607SOL     OW 4834   2.945   0.984   0.087
 1607SOL    HW1 4835   2.922   1.037   0.005
 1607SOL    HW2 4836   3.026   0.928   0.068
 1608SOL     OW 4837   3.723   1.569   0.851
 1608SOL    HW1 4838   3.652   1.557   0.781
 1608SOL    HW2 4839   3.724   1.490   0.911
 1609SOL     OW 4840   2.083   1.314   1.844
 1609SOL    HW1 4841   2.018   1.241   1.823
 1609SOL    HW2 4842   2.087   1.328   1.942
 1610SOL     OW 4843   1.941   1.240   0.653
 1610SOL    HW1 4844   1.940   1.193   0.741
 1610SOL    HW2 4845   2.023   1.212   0.602
 1611SOL     OW 4846   2.534   1.391   1.624
 1611SOL    HW1 4847   2.456   1.341   1.662
 1611SOL    HW2 4848   2.531   1.486   1.655
 1612SOL     OW 4849   3.686   0.192   1.227
 1612SOL    HW1 4850   3.682   0.102   1.271
 1612SOL    HW2 4851   3.689   0.181   1.128
 1613SOL     OW 4852   2.290   0.424   0.520
 1613SOL    HW1 4853   2.320   0.352   0.458
 1613SOL    HW2 4854   2.251   0.384   0.603
 1614SOL     OW 4855   3.567   1.487   1.104
 1614SOL    HW1 4856   3.474   1.462   1.077
 1614SOL    HW2 4857   3.593   1.437   1.186
 1615SOL     OW 4858   2.179   0.547   1.280
 1615SOL    HW1 4859   2.217   0.488   1.352
 1615SOL    HW2 4860   2.219   0.521   1.192
 1616SOL     OW 4861   2.674   1.586   0.687
 1616SOL    HW1 4862   2.706   1.596   0.593
 1616SOL    HW2 4863   2.595   1.524   0.689
 1617SOL     OW 4864   3.286   0.214   1.112
 1617SOL    HW1 4865   3.338   0.149   1.167
 1617SOL    HW2 4866   3.237   0.277   1.173
 1618SOL     OW 4867   2.863   0.034   1.154
 1618SOL    HW1 4868   2.800  -0.038   1.123
 1618SOL    HW2 4869   2.956  -0.002   1.154
 1619SOL     OW 4870   2.632   1.330   0.301
 1619SOL    HW1 4871   2.586   1.243   0.318
 1619SOL    HW2 4872   2.723   1.327   0.342
 1620SOL     OW 4873   2.480   1.567   1.284
 1620SOL    HW1 4874   2.475   1.649   1.341
 1620SOL    HW2 4875   2.569   1.564   1.239
 1621SOL     OW 4876   3.214   0.052   0.168
 1621SOL    HW1 4877   3.249   0.011   0.084
 1621SOL    HW2 4878   3.124   0.014   0.188
 1622SOL     OW 4879   3.162   0.453   0.691
 1622SOL    HW1 4880   3.103   0.533   0.695
 1622SOL    HW2 4881   3.177   0.418   0.784
 1623SOL     OW 4882   3.455   0.221   0.882
 1623SOL    HW1 4883   3.371   0.220   0.936
 1623SOL    HW2 4884   3.457   0.304   0.826
 1624SOL     OW 4885   1.901   1.077   0.300
 1624SOL    HW1 4886   2.000   1.066   0.291
 1624SOL    HW2 4887   1.861   0.991   0.332
 1625SOL     OW 4888   2.737   1.646   0.337
 1625SOL    HW1 4889   2.660   1.611   0.283
 1625SOL    HW2 4890   2.705   1.717   0.399
 1626SOL     OW 4891   2.092   0.628   1.975
 1626SOL    HW1 4892   1.999   0.626   2.012
 1626SOL    HW2 4893   2.093   0.589   1.883
 1627SOL     OW 4894   2.087   0.275   2.858
 1627SOL    HW1 4895   2.122   0.258   2.950
 1627SOL    HW2 4896   1.999   0.230   2.846
 1628SOL     OW 4897   1.881   0.368   2.509
 1628SOL    HW1 4898   1.799   0.411   2.548
 1628SOL    HW2 4899   1.853   0.295   2.446
 1629SOL     OW 4900   2.431   1.275   3.027
 1629SOL    HW1 4901   2.338   1.268   2.990
 1629SOL    HW2 4902   2.442   1.364   3.071
 1630SOL     OW 4903   3.417   1.511   2.565
 1630SOL    HW1 4904   3.360   1.495   2.646
 1630SOL    HW2 4905   3.358   1.521   2.485
 1631SOL     OW 4906   2.997   0.703   2.579
 1631SOL    HW1 4907   3.054   0.781   2.554
 1631SOL    HW2 4908   2.937   0.729   2.655
 1632SOL     OW 4909   3.617   0.607   2.093
 1632SOL    HW1 4910   3.605   0.594   1.994
 1632SOL    HW2 4911   3.587   0.526   2.142
 1633SOL     OW 4912   2.630   1.144   2.885
 1633SOL    HW1 4913   2.552   1.161   2.945
 1633SOL    HW2 4914   2.664   1.231   2.849
 1634SOL     OW 4915   2.712   0.798   3.685
 1634SOL    HW1 4916   2.708   0.874   3.750
 1634SOL    HW2 4917   2.734   0.834   3.594
 1635SOL     OW 4918   2.547   1.012   2.527
 1635SOL    HW1 4919   2.616   0.996   2.597
 1635SOL    HW2 4920   2.474   1.069   2.565
 1636SOL     OW 4921   2.548   1.161   3.665
 1636SOL    HW1 4922   2.608   1.240   3.679
 1636SOL    HW2 4923   2.462   1.192   3.624
 1637SOL     OW 4924   2.197   1.435   2.923
 1637SOL    HW1 4925   2.119   1.404   2.870
 1637SOL    HW2 4926   2.255   1.493   2.866
 1638SOL     OW 4927   3.322   1.505   3.201
 1638SOL    HW1 4928   3.346   1.599   3.227
 1638SOL    HW2 4929   3.306   1.451   3.283
 1639SOL     OW 4930   2.300   0.392   3.361
 1639SOL    HW1 4931   2.382   0.336   3.370
 1639SOL    HW2 4932   2.219   0.334   3.365
 1640SOL     OW 4933   3.465   0.447   2.599
 1640SOL    HW1 4934   3.391   0.493   2.549
 1640SOL    HW2 4935   3.516   0.515   2.652
 1641SOL     OW 4936   2.093   1.713   2.345
 1641SOL    HW1 4937   2.127   1.790   2.399
 1641SOL    HW2 4938   2.137   1.713   2.255
 1642SOL     OW 4939   2.989   1.341   3.552
 1642SOL    HW1 4940   3.036   1.341   3.640
 1642SOL    HW2 4941   2.941   1.254   3.541
 1643SOL     OW 4942   2.092   1.434   2.400
 1643SOL    HW1 4943   2.066   1.530   2.400
 1643SOL    HW2 4944   2.021   1.380   2.445
 1644SOL     OW 4945   2.102   1.091   2.748
 1644SOL    HW1 4946   2.116   1.007   2.800
 1644SOL    HW2 4947   2.047   1.155   2.803
 1645SOL     OW 4948   2.482   1.786   3.301
 1645SOL    HW1 4949   2.390   1.769   3.336
 1645SOL    HW2 4950   2.510   1.878   3.327
 1646SOL     OW 4951   2.468   0.964   1.985
 1646SOL    HW1 4952   2.475   1.048   1.931
 1646SOL    HW2 4953   2.514   0.977   2.073
 1647SOL     OW 4954   3.456   0.114   3.342
 1647SOL    HW1 4955   3.438   0.181   3.270
 1647SOL    HW2 4956   3.453   0.160   3.431
 1648SOL     OW 4957   1.984   0.643   2.425
 1648SOL    HW1 4958   1.939   0.555   2.442
 1648SOL    HW2 4959   1.983   0.697   2.509
 1649SOL     OW 4960   3.704   1.767   2.221
 1649SOL    HW1 4961   3.758   1.738   2.301
 1649SOL    HW2 4962   3.734   1.857   2.192
 1650SOL     OW 4963   1.889   1.596   1.979
 1650SOL    HW1 4964   1.870   1.500   2.000
 1650SOL    HW2 4965   1.856   1.654   2.054
 1651SOL     OW 4966   3.551   0.922   2.474
 1651SOL    HW1 4967   3.646   0.893   2.482
 1651SOL    HW2 4968   3.543   0.987   2.399
 1652SOL     OW 4969   3.503   1.108   2.294
 1652SOL    HW1 4970   3.589   1.110   2.242
 1652SOL    HW2 4971   3.517   1.155   2.382
 1653SOL     OW 4972   1.975   0.737   3.459
 1653SOL    HW1 4973   2.063   0.724   3.504
 1653SOL    HW2 4974   1.962   0.834   3.437
 1654SOL     OW 4975   2.475   1.365   2.588
 1654SOL    HW1 4976   2.426   1.278   2.597
 1654SOL    HW2 4977   2.452   1.408   2.501
 1655SOL     OW 4978   3.155   1.228   3.285
 1655SOL    HW1 4979   3.192   1.155   3.227
 1655SOL    HW2 4980   3.207   1.233   3.370
 1656SOL     OW 4981   2.671   0.004   2.364
 1656SOL    HW1 4982   2.711   0.095   2.355
 1656SOL    HW2 4983   2.571   0.012   2.370
 1657SOL     OW 4984   2.059   0.976   3.126
 1657SOL    HW1 4985   2.148   0.931   3.112
 1657SOL    HW2 4986   1.986   0.911   3.107
 1658SOL     OW 4987   3.387   0.999   2.052
 1658SOL    HW1 4988   3.324   0.923   2.065
 1658SOL    HW2 4989   3.435   1.017   2.138
 1659SOL     OW 4990   3.049   1.792   3.478
 1659SOL    HW1 4991   3.073   1.852   3.402
 1659SOL    HW2 4992   3.056   1.697   3.448
 1660SOL     OW 4993   2.179   0.251   3.663
 1660SOL    HW1 4994   2.250   0.322   3.669
 1660SOL    HW2 4995   2.091   0.290   3.691
 1661SOL     OW 4996   3.328   1.417   2.815
 1661SOL    HW1 4997   3.269   1.423   2.895
 1661SOL    HW2 4998   3.313   1.329   2.769
 1662SOL     OW 4999   3.529   1.714   2.434
 1662SOL    HW1 5000   3.488   1.691   2.346
 1662SOL    HW2 5001   3.511   1.640   2.499
 1663SOL     OW 5002   2.460   0.729   2.132
 1663SOL    HW1 5003   2.484   0.798   2.064
 1663SOL    HW2 5004   2.382   0.762   2.186
 1664SOL     OW 5005   3.143   0.345   2.806
 1664SOL    HW1 5006   3.057   0.295   2.793
 1664SOL    HW2 5007   3.205   0.291   2.862
 1665SOL     OW 5008   3.438   1.662   2.169
 1665SOL    HW1 5009   3.527   1.708   2.172
 1665SOL    HW2 5010   3.417   1.638   2.074
 1666SOL     OW 5011   2.669   0.605   3.327
 1666SOL    HW1 5012   2.622   0.602   3.416
 1666SOL    HW2 5013   2.618   0.550   3.261
 1667SOL     OW 5014   3.256   0.469   3.536
 1667SOL    HW1 5015   3.236   0.512   3.624
 1667SOL    HW2 5016   3.334   0.407   3.545
 1668SOL     OW 5017   2.835   0.890   3.434
 1668SOL    HW1 5018   2.881   0.806   3.405
 1668SOL    HW2 5019   2.779   0.924   3.359
 1669SOL     OW 5020   2.853   0.410   3.104
 1669SOL    HW1 5021   2.776   0.444   3.158
 1669SOL    HW2 5022   2.819   0.359   3.025
 1670SOL     OW 5023   2.903   0.701   2.291
 1670SOL    HW1 5024   2.929   0.697   2.387
 1670SOL    HW2 5025   2.818   0.650   2.277
 1671SOL     OW 5026   1.938   0.811   2.651
 1671SOL    HW1 5027   2.037   0.799   2.660
 1671SOL    HW2 5028   1.914   0.906   2.672
 1672SOL     OW 5029   1.992   1.821   3.433
 1672SOL    HW1 5030   1.982   1.806   3.532
 1672SOL    HW2 5031   1.906   1.857   3.397
 1673SOL     OW 5032   2.727   0.348   2.057
 1673SOL    HW1 5033   2.786   0.411   2.008
 1673SOL    HW2 5034   2.746   0.254   2.028
 1674SOL     OW 5035   3.581   0.585   3.693
 1674SOL    HW1 5036   3.555   0.674   3.657
 1674SOL    HW2 5037   3.579   0.517   3.620
 1675SOL     OW 5038   3.224   1.144   2.407
 1675SOL    HW1 5039   3.307   1.115   2.359
 1675SOL    HW2 5040   3.175   1.211   2.351
 1676SOL     OW 5041   2.412   0.196   2.747
 1676SOL    HW1 5042   2.407   0.191   2.847
 1676SOL    HW2 5043   2.414   0.292   2.718
 1677SOL     OW 5044   2.870   1.456   2.339
 1677SOL    HW1 5045   2.824   1.528   2.287
 1677SOL    HW2 5046   2.866   1.476   2.437
 1678SOL     OW 5047   2.213   1.801   2.715
 1678SOL    HW1 5048   2.263   1.715   2.721
 1678SOL    HW2 5049   2.278   1.878   2.712
 1679SOL     OW 5050   3.657   1.066   2.735
 1679SOL    HW1 5051   3.595   1.051   2.659
 1679SOL    HW2 5052   3.605   1.077   2.820
 1680SOL     OW 5053   3.089   1.550   3.368
 1680SOL    HW1 5054   3.095   1.473   3.432
 1680SOL    HW2 5055   3.037   1.524   3.288
 1681SOL     OW 5056   2.183   0.943   2.104
 1681SOL    HW1 5057   2.265   0.982   2.062
 1681SOL    HW2 5058   2.156   0.861   2.055
 1682SOL     OW 5059   3.320   0.735   2.590
 1682SOL    HW1 5060   3.315   0.670   2.665
 1682SOL    HW2 5061   3.400   0.794   2.603
 1683SOL     OW 5062   2.323   1.266   3.589
 1683SOL    HW1 5063   2.273   1.267   3.503
 1683SOL    HW2 5064   2.260   1.248   3.665
 1684SOL     OW 5065   2.973   1.776   2.099
 1684SOL    HW1 5066   2.913   1.714   2.149
 1684SOL    HW2 5067   3.004   1.732   2.014
 1685SOL     OW 5068   2.064   0.285   3.360
 1685SOL    HW1 5069   1.984   0.345   3.347
 1685SOL    HW2 5070   2.054   0.236   3.446
 1686SOL     OW 5071   3.494   1.377   1.943
 1686SOL    HW1 5072   3.462   1.471   1.933
 1686SOL    HW2 5073   3.418   1.314   1.931
 1687SOL     OW 5074   2.326   1.743   2.185
 1687SOL    HW1 5075   2.359   1.782   2.271
 1687SOL    HW2 5076   2.402   1.736   2.120
 1688SOL     OW 5077   3.262   0.107   2.288
 1688SOL    HW1 5078   3.238   0.070   2.198
 1688SOL    HW2 5079   3.361   0.123   2.292
 1689SOL     OW 5080   2.111   1.785   3.103
 1689SOL    HW1 5081   2.168   1.720   3.153
 1689SOL    HW2 5082   2.095   1.752   3.010
 1690SOL     OW 5083   2.802   1.698   2.766
 1690SOL    HW1 5084   2.882   1.641   2.787
 1690SOL    HW2 5085   2.753   1.658   2.689
 1691SOL     OW 5086   2.244   0.700   2.342
 1691SOL    HW1 5087   2.289   0.610   2.339
 1691SOL    HW2 5088   2.150   0.689   2.375
 1692SOL     OW 5089   3.409   0.222   3.591
 1692SOL    HW1 5090   3.404   0.259   3.683
 1692SOL    HW2 5091   3.337   0.153   3.579
 1693SOL     OW 5092   2.476   0.122   1.979
 1693SOL    HW1 5093   2.574   0.100   1.986
 1693SOL    HW2 5094   2.445   0.105   1.886
 1694SOL     OW 5095   2.643   0.264   3.611
 1694SOL    HW1 5096   2.710   0.203   3.654
 1694SOL    HW2 5097   2.570   0.283   3.676
 1695SOL     OW 5098   2.750   1.514   3.057
 1695SOL    HW1 5099   2.727   1.489   2.963
 1695SOL    HW2 5100   2.811   1.445   3.096
 1696SOL     OW 5101   3.213   0.590   3.295
 1696SOL    HW1 5102   3.241   0.547   3.380
 1696SOL    HW2 5103   3.238   0.686   3.296
 1697SOL     OW 5104   2.665   1.402   2.786
 1697SOL    HW1 5105   2.755   1.416   2.744
 1697SOL    HW2 5106   2.594   1.404   2.715
 1698SOL     OW 5107   2.784   0.503   2.761
 1698SOL    HW1 5108   2.759   0.494   2.665
 1698SOL    HW2 5109   2.832   0.421   2.792
 1699SOL     OW 5110   2.401   0.064   2.374
 1699SOL    HW1 5111   2.320   0.065   2.432
 1699SOL    HW2 5112   2.404   0.147   2.319
 1700SOL     OW 5113   3.296   1.188   1.903
 1700SOL    HW1 5114   3.328   1.112   1.960
 1700SOL    HW2 5115   3.204   1.215   1.933
 1701SOL     OW 5116   2.159   0.035   2.033
 1701SOL    HW1 5117   2.208   0.119   2.012
 1701SOL    HW2 5118   2.221  -0.030   2.078
 1702SOL     OW 5119   2.797   0.236   2.342
 1702SOL    HW1 5120   2.749   0.277   2.264
 1702SOL    HW2 5121   2.896   0.234   2.323
 1703SOL     OW 5122   2.938   0.683   3.326
 1703SOL    HW1 5123   2.858   0.622   3.329
 1703SOL    HW2 5124   3.019   0.630   3.302
 1704SOL     OW 5125   3.089   1.570   2.655
 1704SOL    HW1 5126   3.110   1.644   2.590
 1704SOL    HW2 5127   3.157   1.570   2.728
 1705SOL     OW 5128   2.321   1.152   2.603
 1705SOL    HW1 5129   2.250   1.125   2.668
 1705SOL    HW2 5130   2.295   1.124   2.510
 1706SOL     OW 5131   3.133   1.797   2.453
 1706SOL    HW1 5132   3.177   1.861   2.389
 1706SOL    HW2 5133   3.083   1.849   2.523
 1707SOL     OW 5134   2.894   0.549   1.878
 1707SOL    HW1 5135   2.853   0.631   1.839
 1707SOL    HW2 5136   2.958   0.575   1.951
 1708SOL     OW 5137   1.940   0.556   3.248
 1708SOL    HW1 5138   2.032   0.555   3.207
 1708SOL    HW2 5139   1.934   0.630   3.315
 1709SOL     OW 5140   2.423   0.222   3.009
 1709SOL    HW1 5141   2.461   0.138   3.046
 1709SOL    HW2 5142   2.335   0.241   3.053
 1710SOL     OW 5143   2.728   0.454   2.504
 1710SOL    HW1 5144   2.696   0.526   2.442
 1710SOL    HW2 5145   2.752   0.373   2.451
 1711SOL     OW 5146   2.879   0.039   2.615
 1711SOL    HW1 5147   2.807   0.044   2.546
 1711SOL    HW2 5148   2.855  -0.030   2.684
 1712SOL     OW 5149   3.291   1.173   2.729
 1712SOL    HW1 5150   3.236   1.089   2.722
 1712SOL    HW2 5151   3.317   1.202   2.637
 1713SOL     OW 5152   3.328   0.590   2.854
 1713SOL    HW1 5153   3.298   0.495   2.861
 1713SOL    HW2 5154   3.401   0.606   2.920
 1714SOL     OW 5155   3.719   0.833   2.239
 1714SOL    HW1 5156   3.761   0.769   2.303
 1714SOL    HW2 5157   3.681   0.782   2.161
 1715SOL     OW 5158   2.350   1.385   2.036
 1715SOL    HW1 5159   2.263   1.370   2.083
 1715SOL    HW2 5160   2.333   1.411   1.941
 1716SOL     OW 5161   3.526   1.280   2.519
 1716SOL    HW1 5162   3.625   1.288   2.533
 1716SOL    HW2 5163   3.481   1.364   2.550
 1717SOL     OW 5164   3.252   0.575   1.940
 1717SOL    HW1 5165   3.198   0.554   2.021
 1717SOL    HW2 5166   3.343   0.534   1.949
 1718SOL     OW 5167   2.389   0.256   2.190
 1718SOL    HW1 5168   2.416   0.197   2.115
 1718SOL    HW2 5169   2.389   0.351   2.159
 1719SOL     OW 5170   3.616   1.223   3.450
 1719SOL    HW1 5171   3.707   1.184   3.437
 1719SOL    HW2 5172   3.624   1.319   3.474
 1720SOL     OW 5173   2.926   1.347   3.202
 1720SOL    HW1 5174   2.846   1.324   3.257
 1720SOL    HW2 5175   3.009   1.321   3.251
 1721SOL     OW 5176   3.454   1.629   3.487
 1721SOL    HW1 5177   3.481   1.663   3.397
 1721SOL    HW2 5178   3.533   1.591   3.533
 1722SOL     OW 5179   2.973   1.195   2.962
 1722SOL    HW1 5180   2.933   1.239   3.043
 1722SOL    HW2 5181   2.932   1.232   2.879
 1723SOL     OW 5182   3.500   1.099   2.941
 1723SOL    HW1 5183   3.505   1.180   3.000
 1723SOL    HW2 5184   3.414   1.101   2.890
 1724SOL     OW 5185   2.777   0.089   3.264
 1724SOL    HW1 5186   2.802   0.069   3.169
 1724SOL    HW2 5187   2.849   0.145   3.306
 1725SOL     OW 5188   2.842   1.116   3.581
 1725SOL    HW1 5189   2.743   1.122   3.591
 1725SOL    HW2 5190   2.865   1.036   3.525
 1726SOL     OW 5191   2.567   1.050   2.230
 1726SOL    HW1 5192   2.553   1.057   2.329
 1726SOL    HW2 5193   2.651   0.999   2.212
 1727SOL     OW 5194   2.272   0.813   3.113
 1727SOL    HW1 5195   2.358   0.825   3.163
 1727SOL    HW2 5196   2.230   0.726   3.140
 1728SOL     OW 5197   3.136   0.386   3.124
 1728SOL    HW1 5198   3.157   0.460   3.188
 1728SOL    HW2 5199   3.047   0.403   3.081
 1729SOL     OW 5200   1.926   1.564   3.193
 1729SOL    HW1 5201   1.880   1.646   3.159
 1729SOL    HW2 5202   2.024   1.583   3.202
 1730SOL     OW 5203   2.229   1.100   2.363
 1730SOL    HW1 5204   2.222   1.183   2.307
 1730SOL    HW2 5205   2.233   1.020   2.303
 1731SOL     OW 5206   2.428   0.537   2.727
 1731SOL    HW1 5207   2.440   0.603   2.653
 1731SOL    HW2 5208   2.474   0.571   2.810
 1732SOL     OW 5209   3.114   1.348   2.250
 1732SOL    HW1 5210   3.164   1.425   2.290
 1732SOL    HW2 5211   3.019   1.350   2.282
 1733SOL     OW 5212   3.134   1.445   3.004
 1733SOL    HW1 5213   3.181   1.458   3.091
 1733SOL    HW2 5214   3.068   1.371   3.013
 1734SOL     OW 5215   3.444   0.639   2.334
 1734SOL    HW1 5216   3.413   0.700   2.407
 1734SOL    HW2 5217   3.494   0.691   2.265
 1735SOL     OW 5218   2.216   1.510   3.191
 1735SOL    HW1 5219   2.195   1.466   3.104
 1735SOL    HW2 5220   2.313   1.536   3.194
 1736SOL     OW 5221   2.264   0.751   3.460
 1736SOL    HW1 5222   2.332   0.806   3.413
 1736SOL    HW2 5223   2.304   0.663   3.487
 1737SOL     OW 5224   3.449   0.779   3.532
 1737SOL    HW1 5225   3.357   0.817   3.527
 1737SOL    HW2 5226   3.509   0.826   3.467
 1738SOL     OW 5227   2.875   0.105   3.632
 1738SOL    HW1 5228   2.881   0.190   3.580
 1738SOL    HW2 5229   2.907   0.029   3.575
 1739SOL     OW 5230   2.366   0.050   3.602
 1739SOL    HW1 5231   2.324  -0.007   3.532
 1739SOL    HW2 5232   2.300   0.119   3.634
 1740SOL     OW 5233   2.435   0.870   2.891
 1740SOL    HW1 5234   2.479   0.959   2.882
 1740SOL    HW2 5235   2.372   0.870   2.968
 1741SOL     OW 5236   3.222   0.862   2.907
 1741SOL    HW1 5237   3.147   0.862   2.841
 1741SOL    HW2 5238   3.259   0.770   2.916
 1742SOL     OW 5239   3.071   0.525   2.137
 1742SOL    HW1 5240   3.084   0.441   2.191
 1742SOL    HW2 5241   3.042   0.599   2.197
 1743SOL     OW 5242   2.169   0.213   3.093
 1743SOL    HW1 5243   2.146   0.250   3.183
 1743SOL    HW2 5244   2.139   0.118   3.087
 1744SOL     OW 5245   1.899   1.310   3.144
 1744SOL    HW1 5246   1.952   1.261   3.212
 1744SOL    HW2 5247   1.921   1.408   3.149
 1745SOL     OW 5248   2.594   0.634   2.926
 1745SOL    HW1 5249   2.653   0.608   2.850
 1745SOL    HW2 5250   2.566   0.730   2.915
 1746SOL     OW 5251   3.590   0.935   3.716
 1746SOL    HW1 5252   3.544   0.928   3.627
 1746SOL    HW2 5253   3.528   0.979   3.782
 1747SOL     OW 5254   2.169   0.063   2.480
 1747SOL    HW1 5255   2.158   0.157   2.513
 1747SOL    HW2 5256   2.164   0.000   2.557
 1748SOL     OW 5257   3.484   0.367   2.236
 1748SOL    HW1 5258   3.486   0.291   2.300
 1748SOL    HW2 5259   3.436   0.444   2.276
 1749SOL     OW 5260   2.885   0.766   2.828
 1749SOL    HW1 5261   2.900   0.787   2.924
 1749SOL    HW2 5262   2.855   0.671   2.819
 1750SOL     OW 5263   2.842   1.573   3.562
 1750SOL    HW1 5264   2.822   1.617   3.474
 1750SOL    HW2 5265   2.881   1.482   3.546
 1751SOL     OW 5266   3.721   1.518   3.467
 1751SOL    HW1 5267   3.735   1.545   3.372
 1751SOL    HW2 5268   3.804   1.540   3.520
 1752SOL     OW 5269   2.212   0.898   3.666
 1752SOL    HW1 5270   2.288   0.942   3.714
 1752SOL    HW2 5271   2.247   0.851   3.584
 1753SOL     OW 5272   3.402   0.274   1.987
 1753SOL    HW1 5273   3.341   0.199   2.010
 1753SOL    HW2 5274   3.424   0.326   2.070
 1754SOL     OW 5275   3.165   0.838   1.904
 1754SOL    HW1 5276   3.199   0.745   1.919
 1754SOL    HW2 5277   3.183   0.865   1.809
 1755SOL     OW 5278   2.930   1.333   2.711
 1755SOL    HW1 5279   2.937   1.249   2.656
 1755SOL    HW2 5280   2.992   1.402   2.675
 1756SOL     OW 5281   2.181   0.810   2.811
 1756SOL    HW1 5282   2.274   0.846   2.816
 1756SOL    HW2 5283   2.175   0.725   2.863
 1757SOL     OW 5284   2.201   0.509   2.868
 1757SOL    HW1 5285   2.149   0.426   2.851
 1757SOL    HW2 5286   2.278   0.514   2.804
 1758SOL     OW 5287   3.000   0.380   3.540
 1758SOL    HW1 5288   2.955   0.443   3.604
 1758SOL    HW2 5289   3.093   0.411   3.523
 1759SOL     OW 5290   3.022   0.207   3.339
 1759SOL    HW1 5291   3.022   0.271   3.416
 1759SOL    HW2 5292   3.050   0.255   3.256
 1760SOL     OW 5293   1.870   1.326   2.062
 1760SOL    HW1 5294   1.777   1.347   2.031
 1760SOL    HW2 5295   1.880   1.227   2.075
 1761SOL     OW 5296   1.950   1.801   2.789
 1761SOL    HW1 5297   1.908   1.715   2.762
 1761SOL    HW2 5298   2.044   1.804   2.755
 1762SOL     OW 5299   2.366   1.568   2.772
 1762SOL    HW1 5300   2.432   1.642   2.781
 1762SOL    HW2 5301   2.410   1.489   2.730
 1763SOL     OW 5302   2.864   0.796   3.100
 1763SOL    HW1 5303   2.905   0.764   3.186
 1763SOL    HW2 5304   2.768   0.769   3.097
 1764SOL     OW 5305   1.902   0.544   2.976
 1764SOL    HW1 5306   1.987   0.511   2.935
 1764SOL    HW2 5307   1.915   0.559   3.074
 1765SOL     OW 5308   2.051   0.520   3.584
 1765SOL    HW1 5309   2.110   0.480   3.514
 1765SOL    HW2 5310   1.993   0.591   3.543
 1766SOL     OW 5311   3.231   0.950   3.522
 1766SOL    HW1 5312   3.270   1.039   3.542
 1766SOL    HW2 5313   3.241   0.930   3.425
 1767SOL     OW 5314   2.677   0.572   2.187
 1767SOL    HW1 5315   2.684   0.483   2.141
 1767SOL    HW2 5316   2.583   0.606   2.179
 1768SOL     OW 5317   3.519   0.604   3.068
 1768SOL    HW1 5318   3.481   0.535   3.130
 1768SOL    HW2 5319   3.601   0.568   3.024
 1769SOL     OW 5320   2.114   1.564   3.606
 1769SOL    HW1 5321   2.084   1.621   3.682
 1769SOL    HW2 5322   2.107   1.467   3.632
 1770SOL     OW 5323   2.533   0.464   3.131
 1770SOL    HW1 5324   2.499   0.375   3.101
 1770SOL    HW2 5325   2.559   0.518   3.051
 1771SOL     OW 5326   2.792   1.678   3.327
 1771SOL    HW1 5327   2.768   1.660   3.232
 1771SOL    HW2 5328   2.822   1.772   3.337
 1772SOL     OW 5329   2.335   0.500   2.053
 1772SOL    HW1 5330   2.396   0.580   2.057
 1772SOL    HW2 5331   2.240   0.531   2.060
 1773SOL     OW 5332   2.021   1.137   3.328
 1773SOL    HW1 5333   2.043   1.076   3.404
 1773SOL    HW2 5334   2.031   1.088   3.242
 1774SOL     OW 5335   3.209   1.059   3.096
 1774SOL    HW1 5336   3.233   0.996   3.022
 1774SOL    HW2 5337   3.119   1.099   3.078
 1775SOL     OW 5338   3.164   0.855   2.171
 1775SOL    HW1 5339   3.078   0.824   2.213
 1775SOL    HW2 5340   3.160   0.841   2.072
 1776SOL     OW 5341   3.621   1.747   3.016
 1776SOL    HW1 5342   3.682   1.777   2.943
 1776SOL    HW2 5343   3.583   1.658   2.994
 1777SOL     OW 5344   3.114   1.731   2.990
 1777SOL    HW1 5345   3.198   1.736   2.936
 1777SOL    HW2 5346   3.091   1.635   3.008
 1778SOL     OW 5347   1.945   1.258   2.884
 1778SOL    HW1 5348   1.940   1.257   2.984
 1778SOL    HW2 5349   1.862   1.217   2.846
 1779SOL     OW 5350   2.550   1.662   3.578
 1779SOL    HW1 5351   2.494   1.743   3.587
 1779SOL    HW2 5352   2.602   1.666   3.492
 1780SOL     OW 5353   3.588   0.135   2.385
 1780SOL    HW1 5354   3.661   0.118   2.318
 1780SOL    HW2 5355   3.557   0.048   2.423
 1781SOL     OW 5356   3.250   1.573   2.339
 1781SOL    HW1 5357   3.317   1.585   2.265
 1781SOL    HW2 5358   3.210   1.662   2.362
 1782SOL     OW 5359   1.992   1.794   3.713
 1782SOL    HW1 5360   1.951   1.720   3.766
 1782SOL    HW2 5361   2.056   1.845   3.771
 1783SOL     OW 5362   3.142   0.927   2.534
 1783SOL    HW1 5363   3.202   0.846   2.536
 1783SOL    HW2 5364   3.182   0.996   2.474
 1784SOL     OW 5365   2.692   1.273   3.284
 1784SOL    HW1 5366   2.687   1.306   3.379
 1784SOL    HW2 5367   2.606   1.292   3.238
 1785SOL     OW 5368   2.534   1.616   2.016
 1785SOL    HW1 5369   2.543   1.626   1.917
 1785SOL    HW2 5370   2.494   1.527   2.037
 1786SOL     OW 5371   3.512   1.720   3.256
 1786SOL    HW1 5372   3.565   1.730   3.172
 1786SOL    HW2 5373   3.485   1.810   3.290
 1787SOL     OW 5374   3.703   0.175   2.825
 1787SOL    HW1 5375   3.742   0.090   2.789
 1787SOL    HW2 5376   3.605   0.177   2.806
 1788SOL     OW 5377   2.125   0.326   2.582
 1788SOL    HW1 5378   2.046   0.377   2.548
 1788SOL    HW2 5379   2.116   0.311   2.680
 1789SOL     OW 5380   3.056   1.612   1.893
 1789SOL    HW1 5381   3.062   1.519   1.930
 1789SOL    HW2 5382   2.997   1.612   1.813
 1790SOL     OW 5383   2.684   1.002   3.234
 1790SOL    HW1 5384   2.724   1.001   3.142
 1790SOL    HW2 5385   2.694   1.094   3.274
 1791SOL     OW 5386   2.778   0.910   2.153
 1791SOL    HW1 5387   2.841   0.948   2.085
 1791SOL    HW2 5388   2.818   0.827   2.192
 1792SOL     OW 5389   3.366   1.607   1.906
 1792SOL    HW1 5390   3.274   1.644   1.913
 1792SOL    HW2 5391   3.404   1.627   1.816
 1793SOL     OW 5392   2.234   1.288   3.352
 1793SOL    HW1 5393   2.221   1.381   3.318
 1793SOL    HW2 5394   2.150   1.236   3.339
 1794SOL     OW 5395   3.476   1.292   3.151
 1794SOL    HW1 5396   3.536   1.295   3.231
 1794SOL    HW2 5397   3.401   1.356   3.164
 1795SOL     OW 5398   2.901   1.098   2.558
 1795SOL    HW1 5399   2.831   1.051   2.612
 1795SOL    HW2 5400   2.960   1.030   2.515
 1796SOL     OW 5401   2.876   0.236   2.833
 1796SOL    HW1 5402   2.868   0.200   2.740
 1796SOL    HW2 5403   2.874   0.160   2.898
 1797SOL     OW 5404   2.452   1.487   2.353
 1797SOL    HW1 5405   2.494   1.429   2.283
 1797SOL    HW2 5406   2.408   1.566   2.309
 1798SOL     OW 5407   3.571   0.385   3.243
 1798SOL    HW1 5408   3.644   0.454   3.247
 1798SOL    HW2 5409   3.599   0.310   3.184
 1799SOL     OW 5410   2.117   1.348   2.152
 1799SOL    HW1 5411   2.021   1.349   2.125
 1799SOL    HW2 5412   2.129   1.401   2.236
 1800SOL     OW 5413   1.967   1.013   3.588
 1800SOL    HW1 5414   1.890   0.980   3.642
 1800SOL    HW2 5415   2.052   0.983   3.630
 1801SOL     OW 5416   2.534   0.203   3.351
 1801SOL    HW1 5417   2.624   0.187   3.311
 1801SOL    HW2 5418   2.542   0.208   3.450
 1802SOL     OW 5419   1.937   0.345   1.895
 1802SOL    HW1 5420   1.845   0.317   1.866
 1802SOL    HW2 5421   1.968   0.422   1.839
 1803SOL     OW 5422   3.302   0.856   3.260
 1803SOL    HW1 5423   3.245   0.908   3.197
 1803SOL    HW2 5424   3.398   0.868   3.236
 1804SOL     OW 5425   1.934   0.166   2.180
 1804SOL    HW1 5426   1.917   0.249   2.126
 1804SOL    HW2 5427   2.024   0.129   2.158
 1805SOL     OW 5428   3.045   1.335   1.981
 1805SOL    HW1 5429   2.946   1.324   1.983
 1805SOL    HW2 5430   3.079   1.350   2.074
 1806SOL     OW 5431   2.475   0.842   3.293
 1806SOL    HW1 5432   2.531   0.923   3.276
 1806SOL    HW2 5433   2.534   0.762   3.296
 1807SOL     OW 5434   3.355   1.767   2.821
 1807SOL    HW1 5435   3.388   1.831   2.752
 1807SOL    HW2 5436   3.421   1.761   2.896
 1808SOL     OW 5437   2.578   0.565   3.570
 1808SOL    HW1 5438   2.597   0.630   3.644
 1808SOL    HW2 5439   2.638   0.485   3.579
 1809SOL     OW 5440   3.312   1.220   3.495
 1809SOL    HW1 5441   3.303   1.210   3.594
 1809SOL    HW2 5442   3.408   1.213   3.469
 1810SOL     OW 5443   2.252   1.741   3.422
 1810SOL    HW1 5444   2.161   1.782   3.420
 1810SOL    HW2 5445   2.245   1.647   3.454
 1811SOL     OW 5446   3.536   0.883   3.116
 1811SOL    HW1 5447   3.509   0.794   3.079
 1811SOL    HW2 5448   3.537   0.951   3.043
 1812SOL     OW 5449   3.087   0.325   2.311
 1812SOL    HW1 5450   3.152   0.251   2.300
 1812SOL    HW2 5451   3.107   0.375   2.395
 1813SOL     OW 5452   2.456   0.745   2.514
 1813SOL    HW1 5453   2.506   0.830   2.495
 1813SOL    HW2 5454   2.368   0.747   2.466
 1814SOL     OW 5455   3.639   0.342   3.504
 1814SOL    HW1 5456   3.622   0.373   3.410
 1814SOL    HW2 5457   3.555   0.305   3.542
 1815SOL     OW 5458   3.592   0.934   3.379
 1815SOL    HW1 5459   3.630   1.025   3.394
 1815SOL    HW2 5460   3.584   0.917   3.280
 1816SOL     OW 5461   2.721   1.374   1.878
 1816SOL    HW1 5462   2.675   1.389   1.966
 1816SOL    HW2 5463   2.765   1.459   1.848
 1817SOL     OW 5464   2.523   1.790   2.815
 1817SOL    HW1 5465   2.477   1.878   2.802
 1817SOL    HW2 5466   2.622   1.802   2.808
 1818SOL     OW 5467   2.721   0.956   2.723
 1818SOL    HW1 5468   2.775   0.887   2.771
 1818SOL    HW2 5469   2.689   1.025   2.789
 1819SOL     OW 5470   2.945   0.984   1.949
 1819SOL    HW1 5471   2.922   1.037   1.867
 1819SOL    HW2 5472   3.026   0.928   1.930
 1820SOL     OW 5473   3.723   1.569   2.713
 1820SOL    HW1 5474   3.652   1.557   2.643
 1820SOL    HW2 5475   3.724   1.490   2.773
 1821SOL     OW 5476   2.083   1.314   3.706
 1821SOL    HW1 5477   2.018   1.241   3.685
 1821SOL    HW2 5478   2.087   1.328   3.804
 1822SOL     OW 5479   1.941   1.240   2.515
 1822SOL    HW1 5480   1.940   1.193   2.603
 1822SOL    HW2 5481   2.023   1.212   2.464
 1823SOL     OW 5482   2.534   1.391   3.486
 1823SOL    HW1 5483   2.456   1.341   3.524
 1823SOL    HW2 5484   2.531   1.486   3.517
 1824SOL     OW 5485   3.686   0.192   3.089
 1824SOL    HW1 5486   3.682   0.102   3.133
 1824SOL    HW2 5487   3.689   0.181   2.990
 1825SOL     OW 5488   2.290   0.424   2.382
 1825SOL    HW1 5489   2.320   0.352   2.320
 1825SOL    HW2 5490   2.251   0.384   2.465
 1826SOL     OW 5491   3.567   1.487   2.966
 1826SOL    HW1 5492   3.474   1.462   2.939
 1826SOL    HW2 5493   3.593   1.437   3.048
 1827SOL     OW 5494   2.179   0.547   3.142
 1827SOL    HW1 5495   2.217   0.488   3.214
 1827SOL    HW2 5496   2.219   0.521   3.054
 1828SOL     OW 5497   2.674   1.586   2.549
 1828SOL    HW1 5498   2.706   1.596   2.455
 1828SOL    HW2 5499   2.595   1.524   2.551
 1829SOL     OW 5500   3.286   0.214   2.974
 1829SOL    HW1 5501   3.338   0.149   3.029
 1829SOL    HW2 5502   3.237   0.277   3.035
 1830SOL     OW 5503   2.863   0.034   3.016
 1830SOL    HW1 5504   2.800  -0.038   2.985
 1830SOL    HW2 5505   2.956  -0.002   3.016
 1831SOL     OW 5506   2.632   1.330   2.163
 1831SOL    HW1 5507   2.586   1.243   2.180
 1831SOL    HW2 5508   2.723   1.327   2.204
 1832SOL     OW 5509   2.480   1.567   3.146
 1832SOL    HW1 5510   2.475   1.649   3.203
 1832SOL    HW2 5511   2.569   1.564   3.101
 1833SOL     OW 5512   3.214   0.052   2.030
 1833SOL    HW1 5513   3.249   0.011   1.946
 1833SOL    HW2 5514   3.124   0.014   2.050
 1834SOL     OW 5515   3.162   0.453   2.553
 1834SOL    HW1 5516   3.103   0.533   2.557
 1834SOL    HW2 5517   3.177   0.418   2.646
 1835SOL     OW 5518   3.455   0.221   2.744
 1835SOL    HW1 5519   3.371   0.220   2.798
 1835SOL    HW2 5520   3.457   0.304   2.688
 1836SOL     OW 5521   1.901   1.077   2.162
 1836SOL    HW1 5522   2.000   1.066   2.153
 1836SOL    HW2 5523   1.861   0.991   2.194
 1837SOL     OW 5524   2.737   1.646   2.199
 1837SOL    HW1 5525   2.660   1.611   2.145
 1837SOL    HW2 5526   2.705   1.717   2.261
 1838SOL     OW 5527   2.092   0.628   3.837
 1838SOL    HW1 5528   1.999   0.626   3.874
 1838SOL    HW2 5529   2.093   0.589   3.745
 1839SOL     OW 5530   2.087   0.275   4.720
 1839SOL    HW1 5531   2.122   0.258   4.812
 1839SOL    HW2 5532   1.999   0.230   4.708
 1840SOL     OW 5533   1.881   0.368   4.371
 1840SOL    HW1 5534   1.799   0.411   4.410
 1840SOL    HW2 5535   1.853   0.295   4.308
 1841SOL     OW 5536   3.417   1.511   4.427
 1841SOL    HW1 5537   3.360   1.495   4.508
 1841SOL    HW2 5538   3.358   1.521   4.347
 1842SOL     OW 5539   2.997   0.703   4.441
 1842SOL    HW1 5540   3.054   0.781   4.416
 1842SOL    HW2 5541   2.937   0.729   4.517
 1843SOL     OW 5542   3.617   0.607   3.955
 1843SOL    HW1 5543   3.605   0.594   3.856
 1843SOL    HW2 5544   3.587   0.526   4.004
 1844SOL     OW 5545   2.630   1.144   4.747
 1844SOL    HW1 5546   2.552   1.161   4.807
 1844SOL    HW2 5547   2.664   1.231   4.711
 1845SOL     OW 5548   2.547   1.012   4.389
 1845SOL    HW1 5549   2.616   0.996   4.459
 1845SOL    HW2 5550   2.474   1.069   4.427
 1846SOL     OW 5551   2.197   1.435   4.785
 1846SOL    HW1 5552   2.119   1.404   4.732
 1846SOL    HW2 5553   2.255   1.493   4.728
 1847SOL     OW 5554   3.465   0.447   4.461
 1847SOL    HW1 5555   3.391   0.493   4.411
 1847SOL    HW2 5556   3.516   0.515   4.514
 1848SOL     OW 5557   2.093   1.713   4.207
 1848SOL    HW1 5558   2.127   1.790   4.261
 1848SOL    HW2 5559   2.137   1.713   4.117
 1849SOL     OW 5560   2.092   1.434   4.262
 1849SOL    HW1 5561   2.066   1.530   4.262
 1849SOL    HW2 5562   2.021   1.380   4.307
 1850SOL     OW 5563   2.102   1.091   4.610
 1850SOL    HW1 5564   2.116   1.007   4.662
 1850SOL    HW2 5565   2.047   1.155   4.665
 1851SOL     OW 5566   2.468   0.964   3.847
 1851SOL    HW1 5567   2.475   1.048   3.793
 1851SOL    HW2 5568   2.514   0.977   3.935
 1852SOL     OW 5569   1.984   0.643   4.287
 1852SOL    HW1 5570   1.939   0.555   4.304
 1852SOL    HW2 5571   1.983   0.697   4.371
 1853SOL     OW 5572   3.704   1.767   4.083
 1853SOL    HW1 5573   3.758   1.738   4.163
 1853SOL    HW2 5574   3.734   1.857   4.054
 1854SOL     OW 5575   1.889   1.596   3.841
 1854SOL    HW1 5576   1.870   1.500   3.862
 1854SOL    HW2 5577   1.856   1.654   3.916
 1855SOL     OW 5578   3.551   0.922   4.336
 1855SOL    HW1 5579   3.646   0.893   4.344
 1855SOL    HW2 5580   3.543   0.987   4.261
 1856SOL     OW 5581   3.503   1.108   4.156
 1856SOL    HW1 5582   3.589   1.110   4.104
 1856SOL    HW2 5583   3.517   1.155   4.244
 1857SOL     OW 5584   2.475   1.365   4.450
 1857SOL    HW1 5585   2.426   1.278   4.459
 1857SOL    HW2 5586   2.452   1.408   4.363
 1858SOL     OW 5587   2.671   0.004   4.226
 1858SOL    HW1 5588   2.711   0.095   4.217
 1858SOL    HW2 5589   2.571   0.012   4.232
 1859SOL     OW 5590   3.387   0.999   3.914
 1859SOL    HW1 5591   3.324   0.923   3.927
 1859SOL    HW2 5592   3.435   1.017   4.000
 1860SOL     OW 5593   3.328   1.417   4.677
 1860SOL    HW1 5594   3.269   1.423   4.757
 1860SOL    HW2 5595   3.313   1.329   4.631
 1861SOL     OW 5596   3.529   1.714   4.296
 1861SOL    HW1 5597   3.488   1.691   4.208
 1861SOL    HW2 5598   3.511   1.640   4.361
 1862SOL     OW 5599   2.460   0.729   3.994
 1862SOL    HW1 5600   2.484   0.798   3.926
 1862SOL    HW2 5601   2.382   0.762   4.048
 1863SOL     OW 5602   3.143   0.345   4.668
 1863SOL    HW1 5603   3.057   0.295   4.655
 1863SOL    HW2 5604   3.205   0.291   4.724
 1864SOL     OW 5605   3.438   1.662   4.031
 1864SOL    HW1 5606   3.527   1.708   4.034
 1864SOL    HW2 5607   3.417   1.638   3.936
 1865SOL     OW 5608   2.903   0.701   4.153
 1865SOL    HW1 5609   2.929   0.697   4.249
 1865SOL    HW2 5610   2.818   0.650   4.139
 1866SOL     OW 5611   1.938   0.811   4.513
 1866SOL    HW1 5612   2.037   0.799   4.522
 1866SOL    HW2 5613   1.914   0.906   4.534
 1867SOL     OW 5614   2.727   0.348   3.919
 1867SOL    HW1 5615   2.786   0.411   3.870
 1867SOL    HW2 5616   2.746   0.254   3.890
 1868SOL     OW 5617   3.224   1.144   4.269
 1868SOL    HW1 5618   3.307   1.115   4.221
 1868SOL    HW2 5619   3.175   1.211   4.213
 1869SOL     OW 5620   2.412   0.196   4.609
 1869SOL    HW1 5621   2.407   0.191   4.709
 1869SOL    HW2 5622   2.414   0.292   4.580
 1870SOL     OW 5623   2.870   1.456   4.201
 1870SOL    HW1 5624   2.824   1.528   4.149
 1870SOL    HW2 5625   2.866   1.476   4.299
 1871SOL     OW 5626   2.213   1.801   4.577
 1871SOL    HW1 5627   2.263   1.715   4.583
 1871SOL    HW2 5628   2.278   1.878   4.574
 1872SOL     OW 5629   3.657   1.066   4.597
 1872SOL    HW1 5630   3.595   1.051   4.521
 1872SOL    HW2 5631   3.605   1.077   4.682
 1873SOL     OW 5632   2.183   0.943   3.966
 1873SOL    HW1 5633   2.265   0.982   3.924
 1873SOL    HW2 5634   2.156   0.861   3.917
 1874SOL     OW 5635   3.320   0.735   4.452
 1874SOL    HW1 5636   3.315   0.670   4.527
 1874SOL    HW2 5637   3.400   0.794   4.465
 1875SOL     OW 5638   2.973   1.776   3.961
 1875SOL    HW1 5639   2.913   1.714   4.011
 1875SOL    HW2 5640   3.004   1.732   3.876
 1876SOL     OW 5641   3.494   1.377   3.805
 1876SOL    HW1 5642   3.462   1.471   3.795
 1876SOL    HW2 5643   3.418   1.314   3.793
 1877SOL     OW 5644   2.326   1.743   4.047
 1877SOL    HW1 5645   2.359   1.782   4.133
 1877SOL    HW2 5646   2.402   1.736   3.982
 1878SOL     OW 5647   3.262   0.107   4.150
 1878SOL    HW1 5648   3.238   0.070   4.060
 1878SOL    HW2 5649   3.361   0.123   4.154
 1879SOL     OW 5650   2.111   1.785   4.965
 1879SOL    HW1 5651   2.168   1.720   5.015
 1879SOL    HW2 5652   2.095   1.752   4.872
 1880SOL     OW 5653   2.802   1.698   4.628
 1880SOL    HW1 5654   2.882   1.641   4.649
 1880SOL    HW2 5655   2.753   1.658   4.551
 1881SOL     OW 5656   2.244   0.700   4.204
 1881SOL    HW1 5657   2.289   0.610   4.201
 1881SOL    HW2 5658   2.150   0.689   4.237
 1882SOL     OW 5659   2.476   0.122   3.841
 1882SOL    HW1 5660   2.574   0.100   3.848
 1882SOL    HW2 5661   2.445   0.105   3.748
 1883SOL     OW 5662   2.665   1.402   4.648
 1883SOL    HW1 5663   2.755   1.416   4.606
 1883SOL    HW2 5664   2.594   1.404   4.577
 1884SOL     OW 5665   2.784   0.503   4.623
 1884SOL    HW1 5666   2.759   0.494   4.527
 1884SOL    HW2 5667   2.832   0.421   4.654
 1885SOL     OW 5668   2.401   0.064   4.236
 1885SOL    HW1 5669   2.320   0.065   4.294
 1885SOL    HW2 5670   2.404   0.147   4.181
 1886SOL     OW 5671   3.296   1.188   3.765
 1886SOL    HW1 5672   3.328   1.112   3.822
 1886SOL    HW2 5673   3.204   1.215   3.795
 1887SOL     OW 5674   2.159   0.035   3.895
 1887SOL    HW1 5675   2.208   0.119   3.874
 1887SOL    HW2 5676   2.221  -0.030   3.940
 1888SOL     OW 5677   2.797   0.236   4.204
 1888SOL    HW1 5678   2.749   0.277   4.126
 1888SOL    HW2 5679   2.896   0.234   4.185
 1889SOL     OW 5680   3.089   1.570   4.517
 1889SOL    HW1 5681   3.110   1.644   4.452
 1889SOL    HW2 5682   3.157   1.570   4.590
 1890SOL     OW 5683   2.321   1.152   4.465
 1890SOL    HW1 5684   2.250   1.125   4.530
 1890SOL    HW2 5685   2.295   1.124   4.372
 1891SOL     OW 5686   3.133   1.797   4.315
 1891SOL    HW1 5687   3.177   1.861   4.251
 1891SOL    HW2 5688   3.083   1.849   4.385
 1892SOL     OW 5689   2.894   0.549   3.740
 1892SOL    HW1 5690   2.853   0.631   3.701
 1892SOL    HW2 5691   2.958   0.575   3.813
 1893SOL     OW 5692   2.728   0.454   4.366
 1893SOL    HW1 5693   2.696   0.526   4.304
 1893SOL    HW2 5694   2.752   0.373   4.313
 1894SOL     OW 5695   2.879   0.039   4.477
 1894SOL    HW1 5696   2.807   0.044   4.408
 1894SOL    HW2 5697   2.855  -0.030   4.546
 1895SOL     OW 5698   3.291   1.173   4.591
 1895SOL    HW1 5699   3.236   1.089   4.584
 1895SOL    HW2 5700   3.317   1.202   4.499
 1896SOL     OW 5701   3.328   0.590   4.716
 1896SOL    HW1 5702   3.298   0.495   4.723
 1896SOL    HW2 5703   3.401   0.606   4.782
 1897SOL     OW 5704   3.719   0.833   4.101
 1897SOL    HW1 5705   3.761   0.769   4.165
 1897SOL    HW2 5706   3.681   0.782   4.023
 1898SOL     OW 5707   2.350   1.385   3.898
 1898SOL    HW1 5708   2.263   1.370   3.945
 1898SOL    HW2 5709   2.333   1.411   3.803
 1899SOL     OW 5710   3.526   1.280   4.381
 1899SOL    HW1 5711   3.625   1.288   4.395
 1899SOL    HW2 5712   3.481   1.364   4.412
 1900SOL     OW 5713   3.252   0.575   3.802
 1900SOL    HW1 5714   3.198   0.554   3.883
 1900SOL    HW2 5715   3.343   0.534   3.811
 1901SOL     OW 5716   2.389   0.256   4.052
 1901SOL    HW1 5717   2.416   0.197   3.977
 1901SOL    HW2 5718   2.389   0.351   4.021
 1902SOL     OW 5719   3.500   1.099   4.803
 1902SOL    HW1 5720   3.505   1.180   4.862
 1902SOL    HW2 5721   3.414   1.101   4.752
 1903SOL     OW 5722   2.567   1.050   4.092
 1903SOL    HW1 5723   2.553   1.057   4.191
 1903SOL    HW2 5724   2.651   0.999   4.074
 1904SOL     OW 5725   2.229   1.100   4.225
 1904SOL    HW1 5726   2.222   1.183   4.169
 1904SOL    HW2 5727   2.233   1.020   4.165
 1905SOL     OW 5728   2.428   0.537   4.589
 1905SOL    HW1 5729   2.440   0.603   4.515
 1905SOL    HW2 5730   2.474   0.571   4.672
 1906SOL     OW 5731   3.114   1.348   4.112
 1906SOL    HW1 5732   3.164   1.425   4.152
 1906SOL    HW2 5733   3.019   1.350   4.144
 1907SOL     OW 5734   3.444   0.639   4.196
 1907SOL    HW1 5735   3.413   0.700   4.269
 1907SOL    HW2 5736   3.494   0.691   4.127
 1908SOL     OW 5737   2.435   0.870   4.753
 1908SOL    HW1 5738   2.479   0.959   4.744
 1908SOL    HW2 5739   2.372   0.870   4.830
 1909SOL     OW 5740   3.071   0.525   3.999
 1909SOL    HW1 5741   3.084   0.441   4.053
 1909SOL    HW2 5742   3.042   0.599   4.059
 1910SOL     OW 5743   2.594   0.634   4.788
 1910SOL    HW1 5744   2.653   0.608   4.712
 1910SOL    HW2 5745   2.566   0.730   4.777
 1911SOL     OW 5746   2.169   0.063   4.342
 1911SOL    HW1 5747   2.158   0.157   4.375
 1911SOL    HW2 5748   2.164   0.000   4.419
 1912SOL     OW 5749   3.484   0.367   4.098
 1912SOL    HW1 5750   3.486   0.291   4.162
 1912SOL    HW2 5751   3.436   0.444   4.138
 1913SOL     OW 5752   3.402   0.274   3.849
 1913SOL    HW1 5753   3.341   0.199   3.872
 1913SOL    HW2 5754   3.424   0.326   3.932
 1914SOL     OW 5755   3.165   0.838   3.766
 1914SOL    HW1 5756   3.199   0.745   3.781
 1914SOL    HW2 5757   3.183   0.865   3.671
 1915SOL     OW 5758   2.930   1.333   4.573
 1915SOL    HW1 5759   2.937   1.249   4.518
 1915SOL    HW2 5760   2.992   1.402   4.537
 1916SOL     OW 5761   2.181   0.810   4.673
 1916SOL    HW1 5762   2.274   0.846   4.678
 1916SOL    HW2 5763   2.175   0.725   4.725
 1917SOL     OW 5764   2.201   0.509   4.730
 1917SOL    HW1 5765   2.149   0.426   4.713
 1917SOL    HW2 5766   2.278   0.514   4.666
 1918SOL     OW 5767   1.870   1.326   3.924
 1918SOL    HW1 5768   1.777   1.347   3.893
 1918SOL    HW2 5769   1.880   1.227   3.937
 1919SOL     OW 5770   1.950   1.801   4.651
 1919SOL    HW1 5771   1.908   1.715   4.624
 1919SOL    HW2 5772   2.044   1.804   4.617
 1920SOL     OW 5773   2.366   1.568   4.634
 1920SOL    HW1 5774   2.432   1.642   4.643
 1920SOL    HW2 5775   2.410   1.489   4.592
 1921SOL     OW 5776   2.677   0.572   4.049
 1921SOL    HW1 5777   2.684   0.483   4.003
 1921SOL    HW2 5778   2.583   0.606   4.041
 1922SOL     OW 5779   2.533   0.464   4.993
 1922SOL    HW1 5780   2.499   0.375   4.963
 1922SOL    HW2 5781   2.559   0.518   4.913
 1923SOL     OW 5782   2.335   0.500   3.915
 1923SOL    HW1 5783   2.396   0.580   3.919
 1923SOL    HW2 5784   2.240   0.531   3.922
 1924SOL     OW 5785   3.164   0.855   4.033
 1924SOL    HW1 5786   3.078   0.824   4.075
 1924SOL    HW2 5787   3.160   0.841   3.934
 1925SOL     OW 5788   3.621   1.747   4.878
 1925SOL    HW1 5789   3.682   1.777   4.805
 1925SOL    HW2 5790   3.583   1.658   4.856
 1926SOL     OW 5791   1.945   1.258   4.746
 1926SOL    HW1 5792   1.940   1.257   4.846
 1926SOL    HW2 5793   1.862   1.217   4.708
 1927SOL     OW 5794   3.588   0.135   4.247
 1927SOL    HW1 5795   3.661   0.118   4.180
 1927SOL    HW2 5796   3.557   0.048   4.285
 1928SOL     OW 5797   3.250   1.573   4.201
 1928SOL    HW1 5798   3.317   1.585   4.127
 1928SOL    HW2 5799   3.210   1.662   4.224
 1929SOL     OW 5800   3.142   0.927   4.396
 1929SOL    HW1 5801   3.202   0.846   4.398
 1929SOL    HW2 5802   3.182   0.996   4.336
 1930SOL     OW 5803   2.534   1.616   3.878
 1930SOL    HW1 5804   2.543   1.626   3.779
 1930SOL    HW2 5805   2.494   1.527   3.899
 1931SOL     OW 5806   3.703   0.175   4.687
 1931SOL    HW1 5807   3.742   0.090   4.651
 1931SOL    HW2 5808   3.605   0.177   4.668
 1932SOL     OW 5809   2.125   0.326   4.444
 1932SOL    HW1 5810   2.046   0.377   4.410
 1932SOL    HW2 5811   2.116   0.311   4.542
 1933SOL     OW 5812   3.056   1.612   3.755
 1933SOL    HW1 5813   3.062   1.519   3.792
 1933SOL    HW2 5814   2.997   1.612   3.675
 1934SOL     OW 5815   2.778   0.910   4.015
 1934SOL    HW1 5816   2.841   0.948   3.947
 1934SOL    HW2 5817   2.818   0.827   4.054
 1935SOL     OW 5818   3.366   1.607   3.768
 1935SOL    HW1 5819   3.274   1.644   3.775
 1935SOL    HW2 5820   3.404   1.627   3.678
 1936SOL     OW 5821   2.901   1.098   4.420
 1936SOL    HW1 5822   2.831   1.051   4.474
 1936SOL    HW2 5823   2.960   1.030   4.377
 1937SOL     OW 5824   2.452   1.487   4.215
 1937SOL    HW1 5825   2.494   1.429   4.145
 1937SOL    HW2 5826   2.408   1.566   4.171
 1938SOL     OW 5827   2.117   1.348   4.014
 1938SOL    HW1 5828   2.021   1.349   3.987
 1938SOL    HW2 5829   2.129   1.401   4.098
 1939SOL     OW 5830   1.937   0.345   3.757
 1939SOL    HW1 5831   1.845   0.317   3.728
 1939SOL    HW2 5832   1.968   0.422   3.701
 1940SOL     OW 5833   1.934   0.166   4.042
 1940SOL    HW1 5834   1.917   0.249   3.988
 1940SOL    HW2 5835   2.024   0.129   4.020
 1941SOL     OW 5836   3.045   1.335   3.843
 1941SOL    HW1 5837   2.946   1.324   3.845
 1941SOL    HW2 5838   3.079   1.350   3.936
 1942SOL     OW 5839   3.536   0.883   4.978
 1942SOL    HW1 5840   3.509   0.794   4.941
 1942SOL    HW2 5841   3.537   0.951   4.905
 1943SOL     OW 5842   3.087   0.325   4.173
 1943SOL    HW1 5843   3.152   0.251   4.162
 1943SOL    HW2 5844   3.107   0.375   4.257
 1944SOL     OW 5845   2.456   0.745   4.376
 1944SOL    HW1 5846   2.506   0.830   4.357
 1944SOL    HW2 5847   2.368   0.747   4.328
 1945SOL     OW 5848   2.721   1.374   3.740
 1945SOL    HW1 5849   2.675   1.389   3.828
 1945SOL    HW2 5850   2.765   1.459   3.710
 1946SOL     OW 5851   2.523   1.790   4.677
 1946SOL    HW1 5852   2.477   1.878   4.664
 1946SOL    HW2 5853   2.622   1.802   4.670
 1947SOL     OW 5854   2.721   0.956   4.585
 1947SOL    HW1 5855   2.775   0.887   4.633
 1947SOL    HW2 5856   2.689   1.025   4.651
 1948SOL     OW 5857   2.945   0.984   3.811
 1948SOL    HW1 5858   2.922   1.037   3.729
 1948SOL    HW2 5859   3.026   0.928   3.792
 1949SOL     OW 5860   3.723   1.569   4.575
 1949SOL    HW1 5861   3.652   1.557   4.505
 1949SOL    HW2 5862   3.724   1.490   4.635
 1950SOL     OW 5863   1.941   1.240   4.377
 1950SOL    HW1 5864   1.940   1.193   4.465
 1950SOL    HW2 5865   2.023   1.212   4.326
 1951SOL     OW 5866   3.686   0.192   4.951
 1951SOL    HW1 5867   3.682   0.102   4.995
 1951SOL    HW2 5868   3.689   0.181   4.852
 1952SOL     OW 5869   2.290   0.424   4.244
 1952SOL    HW1 5870   2.320   0.352   4.182
 1952SOL    HW2 5871   2.251   0.384   4.327
 1953SOL     OW 5872   2.674   1.586   4.411
 1953SOL    HW1 5873   2.706   1.596   4.317
 1953SOL    HW2 5874   2.595   1.524   4.413
 1954SOL     OW 5875   2.632   1.330   4.025
 1954SOL    HW1 5876   2.586   1.243   4.042
 1954SOL    HW2 5877   2.723   1.327   4.066
 1955SOL     OW 5878   3.214   0.052   3.892
 1955SOL    HW1 5879   3.249   0.011   3.808
 1955SOL    HW2 5880   3.124   0.014   3.912
 1956SOL     OW 5881   3.162   0.453   4.415
 1956SOL    HW1 5882   3.103   0.533   4.419
 1956SOL    HW2 5883   3.177   0.418   4.508
 1957SOL     OW 5884   3.455   0.221   4.606
 1957SOL    HW1 5885   3.371   0.220   4.660
 1957SOL    HW2 5886   3.457   0.304   4.550
 1958SOL     OW 5887   1.901   1.077   4.024
 1958SOL    HW1 5888   2.000   1.066   4.015
 1958SOL    HW2 5889   1.861   0.991   4.056
 1959SOL     OW 5890   2.737   1.646   4.061
 1959SOL    HW1 5891   2.660   1.611   4.007
 1959SOL    HW2 5892   2.705   1.717   4.123
 1960SOL     OW 5893   2.092   2.490   0.113
 1960SOL    HW1 5894   1.999   2.488   0.150
 1960SOL    HW2 5895   2.093   2.451   0.021
 1961SOL     OW 5896   2.087   2.137   0.996
 1961SOL    HW1 5897   2.122   2.120   1.088
 1961SOL    HW2 5898   1.999   2.092   0.984
 1962SOL     OW 5899   1.881   2.230   0.647
 1962SOL    HW1 5900   1.799   2.273   0.686
 1962SOL    HW2 5901   1.853   2.157   0.584
 1963SOL     OW 5902   2.431   3.137   1.165
 1963SOL    HW1 5903   2.338   3.130   1.128
 1963SOL    HW2 5904   2.442   3.226   1.209
 1964SOL     OW 5905   3.417   3.373   0.703
 1964SOL    HW1 5906   3.360   3.357   0.784
 1964SOL    HW2 5907   3.358   3.383   0.623
 1965SOL     OW 5908   2.997   2.565   0.717
 1965SOL    HW1 5909   3.054   2.643   0.692
 1965SOL    HW2 5910   2.937   2.591   0.793
 1966SOL     OW 5911   3.617   2.469   0.231
 1966SOL    HW1 5912   3.605   2.456   0.132
 1966SOL    HW2 5913   3.587   2.388   0.280
 1967SOL     OW 5914   2.630   3.006   1.023
 1967SOL    HW1 5915   2.552   3.023   1.083
 1967SOL    HW2 5916   2.664   3.093   0.987
 1968SOL     OW 5917   2.712   2.660   1.823
 1968SOL    HW1 5918   2.708   2.736   1.888
 1968SOL    HW2 5919   2.734   2.696   1.732
 1969SOL     OW 5920   2.547   2.874   0.665
 1969SOL    HW1 5921   2.616   2.858   0.735
 1969SOL    HW2 5922   2.474   2.931   0.703
 1970SOL     OW 5923   2.548   3.023   1.803
 1970SOL    HW1 5924   2.608   3.102   1.817
 1970SOL    HW2 5925   2.462   3.054   1.762
 1971SOL     OW 5926   2.197   3.297   1.061
 1971SOL    HW1 5927   2.119   3.266   1.008
 1971SOL    HW2 5928   2.255   3.355   1.004
 1972SOL     OW 5929   3.322   3.367   1.339
 1972SOL    HW1 5930   3.346   3.461   1.365
 1972SOL    HW2 5931   3.306   3.313   1.421
 1973SOL     OW 5932   2.300   2.254   1.499
 1973SOL    HW1 5933   2.382   2.198   1.508
 1973SOL    HW2 5934   2.219   2.196   1.503
 1974SOL     OW 5935   3.465   2.309   0.737
 1974SOL    HW1 5936   3.391   2.355   0.687
 1974SOL    HW2 5937   3.516   2.377   0.790
 1975SOL     OW 5938   2.093   3.575   0.483
 1975SOL    HW1 5939   2.127   3.652   0.537
 1975SOL    HW2 5940   2.137   3.575   0.393
 1976SOL     OW 5941   2.989   3.203   1.690
 1976SOL    HW1 5942   3.036   3.203   1.778
 1976SOL    HW2 5943   2.941   3.116   1.679
 1977SOL     OW 5944   2.092   3.296   0.538
 1977SOL    HW1 5945   2.066   3.392   0.538
 1977SOL    HW2 5946   2.021   3.242   0.583
 1978SOL     OW 5947   2.102   2.953   0.886
 1978SOL    HW1 5948   2.116   2.869   0.938
 1978SOL    HW2 5949   2.047   3.017   0.941
 1979SOL     OW 5950   2.482   3.648   1.439
 1979SOL    HW1 5951   2.390   3.631   1.474
 1979SOL    HW2 5952   2.510   3.740   1.465
 1980SOL     OW 5953   2.468   2.826   0.123
 1980SOL    HW1 5954   2.475   2.910   0.069
 1980SOL    HW2 5955   2.514   2.839   0.211
 1981SOL     OW 5956   3.456   1.976   1.480
 1981SOL    HW1 5957   3.438   2.043   1.408
 1981SOL    HW2 5958   3.453   2.022   1.569
 1982SOL     OW 5959   1.984   2.505   0.563
 1982SOL    HW1 5960   1.939   2.417   0.580
 1982SOL    HW2 5961   1.983   2.559   0.647
 1983SOL     OW 5962   3.704   3.629   0.359
 1983SOL    HW1 5963   3.758   3.600   0.439
 1983SOL    HW2 5964   3.734   3.719   0.330
 1984SOL     OW 5965   1.889   3.458   0.117
 1984SOL    HW1 5966   1.870   3.362   0.138
 1984SOL    HW2 5967   1.856   3.516   0.192
 1985SOL     OW 5968   3.551   2.784   0.612
 1985SOL    HW1 5969   3.646   2.755   0.620
 1985SOL    HW2 5970   3.543   2.849   0.537
 1986SOL     OW 5971   3.503   2.970   0.432
 1986SOL    HW1 5972   3.589   2.972   0.380
 1986SOL    HW2 5973   3.517   3.017   0.520
 1987SOL     OW 5974   1.975   2.599   1.597
 1987SOL    HW1 5975   2.063   2.586   1.642
 1987SOL    HW2 5976   1.962   2.696   1.575
 1988SOL     OW 5977   2.475   3.227   0.726
 1988SOL    HW1 5978   2.426   3.140   0.735
 1988SOL    HW2 5979   2.452   3.270   0.639
 1989SOL     OW 5980   3.155   3.090   1.423
 1989SOL    HW1 5981   3.192   3.017   1.365
 1989SOL    HW2 5982   3.207   3.095   1.508
 1990SOL     OW 5983   2.671   1.866   0.502
 1990SOL    HW1 5984   2.711   1.957   0.493
 1990SOL    HW2 5985   2.571   1.874   0.508
 1991SOL     OW 5986   2.059   2.838   1.264
 1991SOL    HW1 5987   2.148   2.793   1.250
 1991SOL    HW2 5988   1.986   2.773   1.245
 1992SOL     OW 5989   3.387   2.861   0.190
 1992SOL    HW1 5990   3.324   2.785   0.203
 1992SOL    HW2 5991   3.435   2.879   0.276
 1993SOL     OW 5992   3.049   3.654   1.616
 1993SOL    HW1 5993   3.073   3.714   1.540
 1993SOL    HW2 5994   3.056   3.559   1.586
 1994SOL     OW 5995   2.179   2.113   1.801
 1994SOL    HW1 5996   2.250   2.184   1.807
 1994SOL    HW2 5997   2.091   2.152   1.829
 1995SOL     OW 5998   3.328   3.279   0.953
 1995SOL    HW1 5999   3.269   3.285   1.033
 1995SOL    HW2 6000   3.313   3.191   0.907
 1996SOL     OW 6001   3.529   3.576   0.572
 1996SOL    HW1 6002   3.488   3.553   0.484
 1996SOL    HW2 6003   3.511   3.502   0.637
 1997SOL     OW 6004   2.460   2.591   0.270
 1997SOL    HW1 6005   2.484   2.660   0.202
 1997SOL    HW2 6006   2.382   2.624   0.324
 1998SOL     OW 6007   3.143   2.207   0.944
 1998SOL    HW1 6008   3.057   2.157   0.931
 1998SOL    HW2 6009   3.205   2.153   1.000
 1999SOL     OW 6010   3.438   3.524   0.307
 1999SOL    HW1 6011   3.527   3.570   0.310
 1999SOL    HW2 6012   3.417   3.500   0.212
 2000SOL     OW 6013   2.669   2.467   1.465
 2000SOL    HW1 6014   2.622   2.464   1.554
 2000SOL    HW2 6015   2.618   2.412   1.399
 2001SOL     OW 6016   3.256   2.331   1.674
 2001SOL    HW1 6017   3.236   2.374   1.762
 2001SOL    HW2 6018   3.334   2.269   1.683
 2002SOL     OW 6019   2.835   2.752   1.572
 2002SOL    HW1 6020   2.881   2.668   1.543
 2002SOL    HW2 6021   2.779   2.786   1.497
 2003SOL     OW 6022   2.853   2.272   1.242
 2003SOL    HW1 6023   2.776   2.306   1.296
 2003SOL    HW2 6024   2.819   2.221   1.163
 2004SOL     OW 6025   2.903   2.563   0.429
 2004SOL    HW1 6026   2.929   2.559   0.525
 2004SOL    HW2 6027   2.818   2.512   0.415
 2005SOL     OW 6028   1.938   2.673   0.789
 2005SOL    HW1 6029   2.037   2.661   0.798
 2005SOL    HW2 6030   1.914   2.768   0.810
 2006SOL     OW 6031   1.992   3.683   1.571
 2006SOL    HW1 6032   1.982   3.668   1.670
 2006SOL    HW2 6033   1.906   3.719   1.535
 2007SOL     OW 6034   2.727   2.210   0.195
 2007SOL    HW1 6035   2.786   2.273   0.146
 2007SOL    HW2 6036   2.746   2.116   0.166
 2008SOL     OW 6037   3.581   2.447   1.831
 2008SOL    HW1 6038   3.555   2.536   1.795
 2008SOL    HW2 6039   3.579   2.379   1.758
 2009SOL     OW 6040   3.224   3.006   0.545
 2009SOL    HW1 6041   3.307   2.977   0.497
 2009SOL    HW2 6042   3.175   3.073   0.489
 2010SOL     OW 6043   2.412   2.058   0.885
 2010SOL    HW1 6044   2.407   2.053   0.985
 2010SOL    HW2 6045   2.414   2.154   0.856
 2011SOL     OW 6046   2.870   3.318   0.477
 2011SOL    HW1 6047   2.824   3.390   0.425
 2011SOL    HW2 6048   2.866   3.338   0.575
 2012SOL     OW 6049   2.213   3.663   0.853
 2012SOL    HW1 6050   2.263   3.577   0.859
 2012SOL    HW2 6051   2.278   3.740   0.850
 2013SOL     OW 6052   3.657   2.928   0.873
 2013SOL    HW1 6053   3.595   2.913   0.797
 2013SOL    HW2 6054   3.605   2.939   0.958
 2014SOL     OW 6055   3.089   3.412   1.506
 2014SOL    HW1 6056   3.095   3.335   1.570
 2014SOL    HW2 6057   3.037   3.386   1.426
 2015SOL     OW 6058   2.183   2.805   0.242
 2015SOL    HW1 6059   2.265   2.844   0.200
 2015SOL    HW2 6060   2.156   2.723   0.193
 2016SOL     OW 6061   3.320   2.597   0.728
 2016SOL    HW1 6062   3.315   2.532   0.803
 2016SOL    HW2 6063   3.400   2.656   0.741
 2017SOL     OW 6064   2.323   3.128   1.727
 2017SOL    HW1 6065   2.273   3.129   1.641
 2017SOL    HW2 6066   2.260   3.110   1.803
 2018SOL     OW 6067   2.973   3.638   0.237
 2018SOL    HW1 6068   2.913   3.576   0.287
 2018SOL    HW2 6069   3.004   3.594   0.152
 2019SOL     OW 6070   2.064   2.147   1.498
 2019SOL    HW1 6071   1.984   2.207   1.485
 2019SOL    HW2 6072   2.054   2.098   1.584
 2020SOL     OW 6073   3.494   3.239   0.081
 2020SOL    HW1 6074   3.462   3.333   0.071
 2020SOL    HW2 6075   3.418   3.176   0.069
 2021SOL     OW 6076   2.326   3.605   0.323
 2021SOL    HW1 6077   2.359   3.644   0.409
 2021SOL    HW2 6078   2.402   3.598   0.258
 2022SOL     OW 6079   3.262   1.969   0.426
 2022SOL    HW1 6080   3.238   1.932   0.336
 2022SOL    HW2 6081   3.361   1.985   0.430
 2023SOL     OW 6082   2.111   3.647   1.241
 2023SOL    HW1 6083   2.168   3.582   1.291
 2023SOL    HW2 6084   2.095   3.614   1.148
 2024SOL     OW 6085   2.802   3.560   0.904
 2024SOL    HW1 6086   2.882   3.503   0.925
 2024SOL    HW2 6087   2.753   3.520   0.827
 2025SOL     OW 6088   2.244   2.562   0.480
 2025SOL    HW1 6089   2.289   2.472   0.477
 2025SOL    HW2 6090   2.150   2.551   0.513
 2026SOL     OW 6091   3.409   2.084   1.729
 2026SOL    HW1 6092   3.404   2.121   1.821
 2026SOL    HW2 6093   3.337   2.015   1.717
 2027SOL     OW 6094   2.476   1.984   0.117
 2027SOL    HW1 6095   2.574   1.962   0.124
 2027SOL    HW2 6096   2.445   1.967   0.024
 2028SOL     OW 6097   2.643   2.126   1.749
 2028SOL    HW1 6098   2.710   2.065   1.792
 2028SOL    HW2 6099   2.570   2.145   1.814
 2029SOL     OW 6100   2.750   3.376   1.195
 2029SOL    HW1 6101   2.727   3.351   1.101
 2029SOL    HW2 6102   2.811   3.307   1.234
 2030SOL     OW 6103   3.213   2.452   1.433
 2030SOL    HW1 6104   3.241   2.409   1.518
 2030SOL    HW2 6105   3.238   2.548   1.434
 2031SOL     OW 6106   2.665   3.264   0.924
 2031SOL    HW1 6107   2.755   3.278   0.882
 2031SOL    HW2 6108   2.594   3.266   0.853
 2032SOL     OW 6109   2.784   2.365   0.899
 2032SOL    HW1 6110   2.759   2.356   0.803
 2032SOL    HW2 6111   2.832   2.283   0.930
 2033SOL     OW 6112   2.401   1.926   0.512
 2033SOL    HW1 6113   2.320   1.927   0.570
 2033SOL    HW2 6114   2.404   2.009   0.457
 2034SOL     OW 6115   3.296   3.050   0.041
 2034SOL    HW1 6116   3.328   2.974   0.098
 2034SOL    HW2 6117   3.204   3.077   0.071
 2035SOL     OW 6118   2.797   2.098   0.480
 2035SOL    HW1 6119   2.749   2.139   0.402
 2035SOL    HW2 6120   2.896   2.096   0.461
 2036SOL     OW 6121   2.938   2.545   1.464
 2036SOL    HW1 6122   2.858   2.484   1.467
 2036SOL    HW2 6123   3.019   2.492   1.440
 2037SOL     OW 6124   3.089   3.432   0.793
 2037SOL    HW1 6125   3.110   3.506   0.728
 2037SOL    HW2 6126   3.157   3.432   0.866
 2038SOL     OW 6127   2.321   3.014   0.741
 2038SOL    HW1 6128   2.250   2.987   0.806
 2038SOL    HW2 6129   2.295   2.986   0.648
 2039SOL     OW 6130   3.133   3.659   0.591
 2039SOL    HW1 6131   3.177   3.723   0.527
 2039SOL    HW2 6132   3.083   3.711   0.661
 2040SOL     OW 6133   2.894   2.411   0.016
 2040SOL    HW1 6134   2.853   2.493  -0.023
 2040SOL    HW2 6135   2.958   2.437   0.089
 2041SOL     OW 6136   1.940   2.418   1.386
 2041SOL    HW1 6137   2.032   2.417   1.345
 2041SOL    HW2 6138   1.934   2.492   1.453
 2042SOL     OW 6139   2.423   2.084   1.147
 2042SOL    HW1 6140   2.461   2.000   1.184
 2042SOL    HW2 6141   2.335   2.103   1.191
 2043SOL     OW 6142   2.728   2.316   0.642
 2043SOL    HW1 6143   2.696   2.388   0.580
 2043SOL    HW2 6144   2.752   2.235   0.589
 2044SOL     OW 6145   2.879   1.901   0.753
 2044SOL    HW1 6146   2.807   1.906   0.684
 2044SOL    HW2 6147   2.855   1.832   0.822
 2045SOL     OW 6148   3.291   3.035   0.867
 2045SOL    HW1 6149   3.236   2.951   0.860
 2045SOL    HW2 6150   3.317   3.064   0.775
 2046SOL     OW 6151   3.328   2.452   0.992
 2046SOL    HW1 6152   3.298   2.357   0.999
 2046SOL    HW2 6153   3.401   2.468   1.058
 2047SOL     OW 6154   3.719   2.695   0.377
 2047SOL    HW1 6155   3.761   2.631   0.441
 2047SOL    HW2 6156   3.681   2.644   0.299
 2048SOL     OW 6157   2.350   3.247   0.174
 2048SOL    HW1 6158   2.263   3.232   0.221
 2048SOL    HW2 6159   2.333   3.273   0.079
 2049SOL     OW 6160   3.526   3.142   0.657
 2049SOL    HW1 6161   3.625   3.150   0.671
 2049SOL    HW2 6162   3.481   3.226   0.688
 2050SOL     OW 6163   3.252   2.437   0.078
 2050SOL    HW1 6164   3.198   2.416   0.159
 2050SOL    HW2 6165   3.343   2.396   0.087
 2051SOL     OW 6166   2.389   2.118   0.328
 2051SOL    HW1 6167   2.416   2.059   0.253
 2051SOL    HW2 6168   2.389   2.213   0.297
 2052SOL     OW 6169   3.616   3.085   1.588
 2052SOL    HW1 6170   3.707   3.046   1.575
 2052SOL    HW2 6171   3.624   3.181   1.612
 2053SOL     OW 6172   2.926   3.209   1.340
 2053SOL    HW1 6173   2.846   3.186   1.395
 2053SOL    HW2 6174   3.009   3.183   1.389
 2054SOL     OW 6175   3.454   3.491   1.625
 2054SOL    HW1 6176   3.481   3.525   1.535
 2054SOL    HW2 6177   3.533   3.453   1.671
 2055SOL     OW 6178   2.973   3.057   1.100
 2055SOL    HW1 6179   2.933   3.101   1.181
 2055SOL    HW2 6180   2.932   3.094   1.017
 2056SOL     OW 6181   3.500   2.961   1.079
 2056SOL    HW1 6182   3.505   3.042   1.138
 2056SOL    HW2 6183   3.414   2.963   1.028
 2057SOL     OW 6184   2.777   1.951   1.402
 2057SOL    HW1 6185   2.802   1.931   1.307
 2057SOL    HW2 6186   2.849   2.007   1.444
 2058SOL     OW 6187   2.842   2.978   1.719
 2058SOL    HW1 6188   2.743   2.984   1.729
 2058SOL    HW2 6189   2.865   2.898   1.663
 2059SOL     OW 6190   2.567   2.912   0.368
 2059SOL    HW1 6191   2.553   2.919   0.467
 2059SOL    HW2 6192   2.651   2.861   0.350
 2060SOL     OW 6193   2.272   2.675   1.251
 2060SOL    HW1 6194   2.358   2.687   1.301
 2060SOL    HW2 6195   2.230   2.588   1.278
 2061SOL     OW 6196   3.136   2.248   1.262
 2061SOL    HW1 6197   3.157   2.322   1.326
 2061SOL    HW2 6198   3.047   2.265   1.219
 2062SOL     OW 6199   1.926   3.426   1.331
 2062SOL    HW1 6200   1.880   3.508   1.297
 2062SOL    HW2 6201   2.024   3.445   1.340
 2063SOL     OW 6202   2.229   2.962   0.501
 2063SOL    HW1 6203   2.222   3.045   0.445
 2063SOL    HW2 6204   2.233   2.882   0.441
 2064SOL     OW 6205   2.428   2.399   0.865
 2064SOL    HW1 6206   2.440   2.465   0.791
 2064SOL    HW2 6207   2.474   2.433   0.948
 2065SOL     OW 6208   3.114   3.210   0.388
 2065SOL    HW1 6209   3.164   3.287   0.428
 2065SOL    HW2 6210   3.019   3.212   0.420
 2066SOL     OW 6211   3.134   3.307   1.142
 2066SOL    HW1 6212   3.181   3.320   1.229
 2066SOL    HW2 6213   3.068   3.233   1.151
 2067SOL     OW 6214   3.444   2.501   0.472
 2067SOL    HW1 6215   3.413   2.562   0.545
 2067SOL    HW2 6216   3.494   2.553   0.403
 2068SOL     OW 6217   2.216   3.372   1.329
 2068SOL    HW1 6218   2.195   3.328   1.242
 2068SOL    HW2 6219   2.313   3.398   1.332
 2069SOL     OW 6220   2.264   2.613   1.598
 2069SOL    HW1 6221   2.332   2.668   1.551
 2069SOL    HW2 6222   2.304   2.525   1.625
 2070SOL     OW 6223   3.449   2.641   1.670
 2070SOL    HW1 6224   3.357   2.679   1.665
 2070SOL    HW2 6225   3.509   2.688   1.605
 2071SOL     OW 6226   2.875   1.967   1.770
 2071SOL    HW1 6227   2.881   2.052   1.718
 2071SOL    HW2 6228   2.907   1.891   1.713
 2072SOL     OW 6229   2.366   1.912   1.740
 2072SOL    HW1 6230   2.324   1.855   1.670
 2072SOL    HW2 6231   2.300   1.981   1.772
 2073SOL     OW 6232   2.435   2.732   1.029
 2073SOL    HW1 6233   2.479   2.821   1.020
 2073SOL    HW2 6234   2.372   2.732   1.106
 2074SOL     OW 6235   3.222   2.724   1.045
 2074SOL    HW1 6236   3.147   2.724   0.979
 2074SOL    HW2 6237   3.259   2.632   1.054
 2075SOL     OW 6238   3.071   2.387   0.275
 2075SOL    HW1 6239   3.084   2.303   0.329
 2075SOL    HW2 6240   3.042   2.461   0.335
 2076SOL     OW 6241   2.169   2.075   1.231
 2076SOL    HW1 6242   2.146   2.112   1.321
 2076SOL    HW2 6243   2.139   1.980   1.225
 2077SOL     OW 6244   1.899   3.172   1.282
 2077SOL    HW1 6245   1.952   3.123   1.350
 2077SOL    HW2 6246   1.921   3.270   1.287
 2078SOL     OW 6247   2.594   2.496   1.064
 2078SOL    HW1 6248   2.653   2.470   0.988
 2078SOL    HW2 6249   2.566   2.592   1.053
 2079SOL     OW 6250   3.590   2.797   1.854
 2079SOL    HW1 6251   3.544   2.790   1.765
 2079SOL    HW2 6252   3.528   2.841   1.920
 2080SOL     OW 6253   2.169   1.925   0.618
 2080SOL    HW1 6254   2.158   2.019   0.651
 2080SOL    HW2 6255   2.164   1.862   0.695
 2081SOL     OW 6256   3.484   2.229   0.374
 2081SOL    HW1 6257   3.486   2.153   0.438
 2081SOL    HW2 6258   3.436   2.306   0.414
 2082SOL     OW 6259   2.885   2.628   0.966
 2082SOL    HW1 6260   2.900   2.649   1.062
 2082SOL    HW2 6261   2.855   2.533   0.957
 2083SOL     OW 6262   2.842   3.435   1.700
 2083SOL    HW1 6263   2.822   3.479   1.612
 2083SOL    HW2 6264   2.881   3.344   1.684
 2084SOL     OW 6265   3.721   3.380   1.605
 2084SOL    HW1 6266   3.735   3.407   1.510
 2084SOL    HW2 6267   3.804   3.402   1.658
 2085SOL     OW 6268   2.212   2.760   1.804
 2085SOL    HW1 6269   2.288   2.804   1.852
 2085SOL    HW2 6270   2.247   2.713   1.722
 2086SOL     OW 6271   3.402   2.136   0.125
 2086SOL    HW1 6272   3.341   2.061   0.148
 2086SOL    HW2 6273   3.424   2.188   0.208
 2087SOL     OW 6274   3.165   2.700   0.042
 2087SOL    HW1 6275   3.199   2.607   0.057
 2087SOL    HW2 6276   3.183   2.727  -0.053
 2088SOL     OW 6277   2.930   3.195   0.849
 2088SOL    HW1 6278   2.937   3.111   0.794
 2088SOL    HW2 6279   2.992   3.264   0.813
 2089SOL     OW 6280   2.181   2.672   0.949
 2089SOL    HW1 6281   2.274   2.708   0.954
 2089SOL    HW2 6282   2.175   2.587   1.001
 2090SOL     OW 6283   2.201   2.371   1.006
 2090SOL    HW1 6284   2.149   2.288   0.989
 2090SOL    HW2 6285   2.278   2.376   0.942
 2091SOL     OW 6286   3.000   2.242   1.678
 2091SOL    HW1 6287   2.955   2.305   1.742
 2091SOL    HW2 6288   3.093   2.273   1.661
 2092SOL     OW 6289   3.022   2.069   1.477
 2092SOL    HW1 6290   3.022   2.133   1.554
 2092SOL    HW2 6291   3.050   2.117   1.394
 2093SOL     OW 6292   1.870   3.188   0.200
 2093SOL    HW1 6293   1.777   3.209   0.169
 2093SOL    HW2 6294   1.880   3.089   0.213
 2094SOL     OW 6295   1.950   3.663   0.927
 2094SOL    HW1 6296   1.908   3.577   0.900
 2094SOL    HW2 6297   2.044   3.666   0.893
 2095SOL     OW 6298   2.366   3.430   0.910
 2095SOL    HW1 6299   2.432   3.504   0.919
 2095SOL    HW2 6300   2.410   3.351   0.868
 2096SOL     OW 6301   2.864   2.658   1.238
 2096SOL    HW1 6302   2.905   2.626   1.324
 2096SOL    HW2 6303   2.768   2.631   1.235
 2097SOL     OW 6304   1.902   2.406   1.114
 2097SOL    HW1 6305   1.987   2.373   1.073
 2097SOL    HW2 6306   1.915   2.421   1.212
 2098SOL     OW 6307   2.051   2.382   1.722
 2098SOL    HW1 6308   2.110   2.342   1.652
 2098SOL    HW2 6309   1.993   2.453   1.681
 2099SOL     OW 6310   3.231   2.812   1.660
 2099SOL    HW1 6311   3.270   2.901   1.680
 2099SOL    HW2 6312   3.241   2.792   1.563
 2100SOL     OW 6313   2.677   2.434   0.325
 2100SOL    HW1 6314   2.684   2.345   0.279
 2100SOL    HW2 6315   2.583   2.468   0.317
 2101SOL     OW 6316   3.519   2.466   1.206
 2101SOL    HW1 6317   3.481   2.397   1.268
 2101SOL    HW2 6318   3.601   2.430   1.162
 2102SOL     OW 6319   2.114   3.426   1.744
 2102SOL    HW1 6320   2.084   3.483   1.820
 2102SOL    HW2 6321   2.107   3.329   1.770
 2103SOL     OW 6322   2.533   2.326   1.269
 2103SOL    HW1 6323   2.499   2.237   1.239
 2103SOL    HW2 6324   2.559   2.380   1.189
 2104SOL     OW 6325   2.792   3.540   1.465
 2104SOL    HW1 6326   2.768   3.522   1.370
 2104SOL    HW2 6327   2.822   3.634   1.475
 2105SOL     OW 6328   2.335   2.362   0.191
 2105SOL    HW1 6329   2.396   2.442   0.195
 2105SOL    HW2 6330   2.240   2.393   0.198
 2106SOL     OW 6331   2.021   2.999   1.466
 2106SOL    HW1 6332   2.043   2.938   1.542
 2106SOL    HW2 6333   2.031   2.950   1.380
 2107SOL     OW 6334   3.209   2.921   1.234
 2107SOL    HW1 6335   3.233   2.858   1.160
 2107SOL    HW2 6336   3.119   2.961   1.216
 2108SOL     OW 6337   3.164   2.717   0.309
 2108SOL    HW1 6338   3.078   2.686   0.351
 2108SOL    HW2 6339   3.160   2.703   0.210
 2109SOL     OW 6340   3.621   3.609   1.154
 2109SOL    HW1 6341   3.682   3.639   1.081
 2109SOL    HW2 6342   3.583   3.520   1.132
 2110SOL     OW 6343   3.114   3.593   1.128
 2110SOL    HW1 6344   3.198   3.598   1.074
 2110SOL    HW2 6345   3.091   3.497   1.146
 2111SOL     OW 6346   1.945   3.120   1.022
 2111SOL    HW1 6347   1.940   3.119   1.122
 2111SOL    HW2 6348   1.862   3.079   0.984
 2112SOL     OW 6349   2.550   3.524   1.716
 2112SOL    HW1 6350   2.494   3.605   1.725
 2112SOL    HW2 6351   2.602   3.528   1.630
 2113SOL     OW 6352   2.765   1.948   0.133
 2113SOL    HW1 6353   2.816   1.949   0.047
 2113SOL    HW2 6354   2.821   1.906   0.204
 2114SOL     OW 6355   3.588   1.997   0.523
 2114SOL    HW1 6356   3.661   1.980   0.456
 2114SOL    HW2 6357   3.557   1.910   0.561
 2115SOL     OW 6358   3.250   3.435   0.477
 2115SOL    HW1 6359   3.317   3.447   0.403
 2115SOL    HW2 6360   3.210   3.524   0.500
 2116SOL     OW 6361   1.992   3.656   1.851
 2116SOL    HW1 6362   1.951   3.582   1.904
 2116SOL    HW2 6363   2.056   3.707   1.909
 2117SOL     OW 6364   3.142   2.789   0.672
 2117SOL    HW1 6365   3.202   2.708   0.674
 2117SOL    HW2 6366   3.182   2.858   0.612
 2118SOL     OW 6367   2.692   3.135   1.422
 2118SOL    HW1 6368   2.687   3.168   1.517
 2118SOL    HW2 6369   2.606   3.154   1.376
 2119SOL     OW 6370   2.534   3.478   0.154
 2119SOL    HW1 6371   2.543   3.488   0.055
 2119SOL    HW2 6372   2.494   3.389   0.175
 2120SOL     OW 6373   3.512   3.582   1.394
 2120SOL    HW1 6374   3.565   3.592   1.310
 2120SOL    HW2 6375   3.485   3.672   1.428
 2121SOL     OW 6376   3.703   2.037   0.963
 2121SOL    HW1 6377   3.742   1.952   0.927
 2121SOL    HW2 6378   3.605   2.039   0.944
 2122SOL     OW 6379   2.125   2.188   0.720
 2122SOL    HW1 6380   2.046   2.239   0.686
 2122SOL    HW2 6381   2.116   2.173   0.818
 2123SOL     OW 6382   3.056   3.474   0.031
 2123SOL    HW1 6383   3.062   3.381   0.068
 2123SOL    HW2 6384   2.997   3.474  -0.049
 2124SOL     OW 6385   2.684   2.864   1.372
 2124SOL    HW1 6386   2.724   2.863   1.280
 2124SOL    HW2 6387   2.694   2.956   1.412
 2125SOL     OW 6388   2.778   2.772   0.291
 2125SOL    HW1 6389   2.841   2.810   0.223
 2125SOL    HW2 6390   2.818   2.689   0.330
 2126SOL     OW 6391   3.366   3.469   0.044
 2126SOL    HW1 6392   3.274   3.506   0.051
 2126SOL    HW2 6393   3.404   3.489  -0.046
 2127SOL     OW 6394   2.234   3.150   1.490
 2127SOL    HW1 6395   2.221   3.243   1.456
 2127SOL    HW2 6396   2.150   3.098   1.477
 2128SOL     OW 6397   3.476   3.154   1.289
 2128SOL    HW1 6398   3.536   3.157   1.369
 2128SOL    HW2 6399   3.401   3.218   1.302
 2129SOL     OW 6400   2.901   2.960   0.696
 2129SOL    HW1 6401   2.831   2.913   0.750
 2129SOL    HW2 6402   2.960   2.892   0.653
 2130SOL     OW 6403   2.876   2.098   0.971
 2130SOL    HW1 6404   2.868   2.062   0.878
 2130SOL    HW2 6405   2.874   2.022   1.036
 2131SOL     OW 6406   2.452   3.349   0.491
 2131SOL    HW1 6407   2.494   3.291   0.421
 2131SOL    HW2 6408   2.408   3.428   0.447
 2132SOL     OW 6409   3.571   2.247   1.381
 2132SOL    HW1 6410   3.644   2.316   1.385
 2132SOL    HW2 6411   3.599   2.172   1.322
 2133SOL     OW 6412   2.117   3.210   0.290
 2133SOL    HW1 6413   2.021   3.211   0.263
 2133SOL    HW2 6414   2.129   3.263   0.374
 2134SOL     OW 6415   1.967   2.875   1.726
 2134SOL    HW1 6416   1.890   2.842   1.780
 2134SOL    HW2 6417   2.052   2.845   1.768
 2135SOL     OW 6418   2.534   2.065   1.489
 2135SOL    HW1 6419   2.624   2.049   1.449
 2135SOL    HW2 6420   2.542   2.070   1.588
 2136SOL     OW 6421   1.937   2.207   0.033
 2136SOL    HW1 6422   1.845   2.179   0.004
 2136SOL    HW2 6423   1.968   2.284  -0.023
 2137SOL     OW 6424   3.302   2.718   1.398
 2137SOL    HW1 6425   3.245   2.770   1.335
 2137SOL    HW2 6426   3.398   2.730   1.374
 2138SOL     OW 6427   1.934   2.028   0.318
 2138SOL    HW1 6428   1.917   2.111   0.264
 2138SOL    HW2 6429   2.024   1.991   0.296
 2139SOL     OW 6430   3.045   3.197   0.119
 2139SOL    HW1 6431   2.946   3.186   0.121
 2139SOL    HW2 6432   3.079   3.212   0.212
 2140SOL     OW 6433   2.475   2.704   1.431
 2140SOL    HW1 6434   2.531   2.785   1.414
 2140SOL    HW2 6435   2.534   2.624   1.434
 2141SOL     OW 6436   3.355   3.629   0.959
 2141SOL    HW1 6437   3.388   3.693   0.890
 2141SOL    HW2 6438   3.421   3.623   1.034
 2142SOL     OW 6439   2.578   2.427   1.708
 2142SOL    HW1 6440   2.597   2.492   1.782
 2142SOL    HW2 6441   2.638   2.347   1.717
 2143SOL     OW 6442   3.312   3.082   1.633
 2143SOL    HW1 6443   3.303   3.072   1.732
 2143SOL    HW2 6444   3.408   3.075   1.607
 2144SOL     OW 6445   2.252   3.603   1.560
 2144SOL    HW1 6446   2.161   3.644   1.558
 2144SOL    HW2 6447   2.245   3.509   1.592
 2145SOL     OW 6448   3.536   2.745   1.254
 2145SOL    HW1 6449   3.509   2.656   1.217
 2145SOL    HW2 6450   3.537   2.813   1.181
 2146SOL     OW 6451   3.087   2.187   0.449
 2146SOL    HW1 6452   3.152   2.113   0.438
 2146SOL    HW2 6453   3.107   2.237   0.533
 2147SOL     OW 6454   2.456   2.607   0.652
 2147SOL    HW1 6455   2.506   2.692   0.633
 2147SOL    HW2 6456   2.368   2.609   0.604
 2148SOL     OW 6457   3.639   2.204   1.642
 2148SOL    HW1 6458   3.622   2.235   1.548
 2148SOL    HW2 6459   3.555   2.167   1.680
 2149SOL     OW 6460   3.592   2.796   1.517
 2149SOL    HW1 6461   3.630   2.887   1.532
 2149SOL    HW2 6462   3.584   2.779   1.418
 2150SOL     OW 6463   2.721   3.236   0.016
 2150SOL    HW1 6464   2.675   3.251   0.104
 2150SOL    HW2 6465   2.765   3.321  -0.014
 2151SOL     OW 6466   2.523   3.652   0.953
 2151SOL    HW1 6467   2.477   3.740   0.940
 2151SOL    HW2 6468   2.622   3.664   0.946
 2152SOL     OW 6469   2.721   2.818   0.861
 2152SOL    HW1 6470   2.775   2.749   0.909
 2152SOL    HW2 6471   2.689   2.887   0.927
 2153SOL     OW 6472   2.945   2.846   0.087
 2153SOL    HW1 6473   2.922   2.899   0.005
 2153SOL    HW2 6474   3.026   2.790   0.068
 2154SOL     OW 6475   3.723   3.431   0.851
 2154SOL    HW1 6476   3.652   3.419   0.781
 2154SOL    HW2 6477   3.724   3.352   0.911
 2155SOL     OW 6478   2.083   3.176   1.844
 2155SOL    HW1 6479   2.018   3.103   1.823
 2155SOL    HW2 6480   2.087   3.190   1.942
 2156SOL     OW 6481   1.941   3.102   0.653
 2156SOL    HW1 6482   1.940   3.055   0.741
 2156SOL    HW2 6483   2.023   3.074   0.602
 2157SOL     OW 6484   2.534   3.253   1.624
 2157SOL    HW1 6485   2.456   3.203   1.662
 2157SOL    HW2 6486   2.531   3.348   1.655
 2158SOL     OW 6487   3.686   2.054   1.227
 2158SOL    HW1 6488   3.682   1.964   1.271
 2158SOL    HW2 6489   3.689   2.043   1.128
 2159SOL     OW 6490   2.290   2.286   0.520
 2159SOL    HW1 6491   2.320   2.214   0.458
 2159SOL    HW2 6492   2.251   2.246   0.603
 2160SOL     OW 6493   3.567   3.349   1.104
 2160SOL    HW1 6494   3.474   3.324   1.077
 2160SOL    HW2 6495   3.593   3.299   1.186
 2161SOL     OW 6496   2.179   2.409   1.280
 2161SOL    HW1 6497   2.217   2.350   1.352
 2161SOL    HW2 6498   2.219   2.383   1.192
 2162SOL     OW 6499   2.674   3.448   0.687
 2162SOL    HW1 6500   2.706   3.458   0.593
 2162SOL    HW2 6501   2.595   3.386   0.689
 2163SOL     OW 6502   3.286   2.076   1.112
 2163SOL    HW1 6503   3.338   2.011   1.167
 2163SOL    HW2 6504   3.237   2.139   1.173
 2164SOL     OW 6505   2.863   1.896   1.154
 2164SOL    HW1 6506   2.800   1.824   1.123
 2164SOL    HW2 6507   2.956   1.860   1.154
 2165SOL     OW 6508   2.632   3.192   0.301
 2165SOL    HW1 6509   2.586   3.105   0.318
 2165SOL    HW2 6510   2.723   3.189   0.342
 2166SOL     OW 6511   2.480   3.429   1.284
 2166SOL    HW1 6512   2.475   3.511   1.341
 2166SOL    HW2 6513   2.569   3.426   1.239
 2167SOL     OW 6514   3.214   1.914   0.168
 2167SOL    HW1 6515   3.249   1.873   0.084
 2167SOL    HW2 6516   3.124   1.876   0.188
 2168SOL     OW 6517   3.162   2.315   0.691
 2168SOL    HW1 6518   3.103   2.395   0.695
 2168SOL    HW2 6519   3.177   2.280   0.784
 2169SOL     OW 6520   3.455   2.083   0.882
 2169SOL    HW1 6521   3.371   2.082   0.936
 2169SOL    HW2 6522   3.457   2.166   0.826
 2170SOL     OW 6523   1.901   2.939   0.300
 2170SOL    HW1 6524   2.000   2.928   0.291
 2170SOL    HW2 6525   1.861   2.853   0.332
 2171SOL     OW 6526   2.737   3.508   0.337
 2171SOL    HW1 6527   2.660   3.473   0.283
 2171SOL    HW2 6528   2.705   3.579   0.399
 2172SOL     OW 6529   2.092   2.490   1.975
 2172SOL    HW1 6530   1.999   2.488   2.012
 2172SOL    HW2 6531   2.093   2.451   1.883
 2173SOL     OW 6532   2.087   2.137   2.858
 2173SOL    HW1 6533   2.122   2.120   2.950
 2173SOL    HW2 6534   1.999   2.092   2.846
 2174SOL     OW 6535   1.881   2.230   2.509
 2174SOL    HW1 6536   1.799   2.273   2.548
 2174SOL    HW2 6537   1.853   2.157   2.446
 2175SOL     OW 6538   2.431   3.137   3.027
 2175SOL    HW1 6539   2.338   3.130   2.990
 2175SOL    HW2 6540   2.442   3.226   3.071
 2176SOL     OW 6541   3.417   3.373   2.565
 2176SOL    HW1 6542   3.360   3.357   2.646
 2176SOL    HW2 6543   3.358   3.383   2.485
 2177SOL     OW 6544   2.997   2.565   2.579
 2177SOL    HW1 6545   3.054   2.643   2.554
 2177SOL    HW2 6546   2.937   2.591   2.655
 2178SOL     OW 6547   3.617   2.469   2.093
 2178SOL    HW1 6548   3.605   2.456   1.994
 2178SOL    HW2 6549   3.587   2.388   2.142
 2179SOL     OW 6550   2.630   3.006   2.885
 2179SOL    HW1 6551   2.552   3.023   2.945
 2179SOL    HW2 6552   2.664   3.093   2.849
 2180SOL     OW 6553   2.712   2.660   3.685
 2180SOL    HW1 6554   2.708   2.736   3.750
 2180SOL    HW2 6555   2.734   2.696   3.594
 2181SOL     OW 6556   2.547   2.874   2.527
 2181SOL    HW1 6557   2.616   2.858   2.597
 2181SOL    HW2 6558   2.474   2.931   2.565
 2182SOL     OW 6559   2.548   3.023   3.665
 2182SOL    HW1 6560   2.608   3.102   3.679
 2182SOL    HW2 6561   2.462   3.054   3.624
 2183SOL     OW 6562   2.197   3.297   2.923
 2183SOL    HW1 6563   2.119   3.266   2.870
 2183SOL    HW2 6564   2.255   3.355   2.866
 2184SOL     OW 6565   3.322   3.367   3.201
 2184SOL    HW1 6566   3.346   3.461   3.227
 2184SOL    HW2 6567   3.306   3.313   3.283
 2185SOL     OW 6568   2.300   2.254   3.361
 2185SOL    HW1 6569   2.382   2.198   3.370
 2185SOL    HW2 6570   2.219   2.196   3.365
 2186SOL     OW 6571   3.465   2.309   2.599
 2186SOL    HW1 6572   3.391   2.355   2.549
 2186SOL    HW2 6573   3.516   2.377   2.652
 2187SOL     OW 6574   2.093   3.575   2.345
 2187SOL    HW1 6575   2.127   3.652   2.399
 2187SOL    HW2 6576   2.137   3.575   2.255
 2188SOL     OW 6577   2.989   3.203   3.552
 2188SOL    HW1 6578   3.036   3.203   3.640
 2188SOL    HW2 6579   2.941   3.116   3.541
 2189SOL     OW 6580   2.092   3.296   2.400
 2189SOL    HW1 6581   2.066   3.392   2.400
 2189SOL    HW2 6582   2.021   3.242   2.445
 2190SOL     OW 6583   2.102   2.953   2.748
 2190SOL    HW1 6584   2.116   2.869   2.800
 2190SOL    HW2 6585   2.047   3.017   2.803
 2191SOL     OW 6586   2.482   3.648   3.301
 2191SOL    HW1 6587   2.390   3.631   3.336
 2191SOL    HW2 6588   2.510   3.740   3.327
 2192SOL     OW 6589   2.468   2.826   1.985
 2192SOL    HW1 6590   2.475   2.910   1.931
 2192SOL    HW2 6591   2.514   2.839   2.073
 2193SOL     OW 6592   3.456   1.976   3.342
 2193SOL    HW1 6593   3.438   2.043   3.270
 2193SOL    HW2 6594   3.453   2.022   3.431
 2194SOL     OW 6595   1.984   2.505   2.425
 2194SOL    HW1 6596   1.939   2.417   2.442
 2194SOL    HW2 6597   1.983   2.559   2.509
 2195SOL     OW 6598   3.704   3.629   2.221
 2195SOL    HW1 6599   3.758   3.600   2.301
 2195SOL    HW2 6600   3.734   3.719   2.192
 2196SOL     OW 6601   1.889   3.458   1.979
 2196SOL    HW1 6602   1.870   3.362   2.000
 2196SOL    HW2 6603   1.856   3.516   2.054
 2197SOL     OW 6604   3.551   2.784   2.474
 2197SOL    HW1 6605   3.646   2.755   2.482
 2197SOL    HW2 6606   3.543   2.849   2.399
 2198SOL     OW 6607   3.503   2.970   2.294
 2198SOL    HW1 6608   3.589   2.972   2.242
 2198SOL    HW2 6609   3.517   3.017   2.382
 2199SOL     OW 6610   1.975   2.599   3.459
 2199SOL    HW1 6611   2.063   2.586   3.504
 2199SOL    HW2 6612   1.962   2.696   3.437
 2200SOL     OW 6613   2.475   3.227   2.588
 2200SOL    HW1 6614   2.426   3.140   2.597
 2200SOL    HW2 6615   2.452   3.270   2.501
 2201SOL     OW 6616   3.155   3.090   3.285
 2201SOL    HW1 6617   3.192   3.017   3.227
 2201SOL    HW2 6618   3.207   3.095   3.370
 2202SOL     OW 6619   2.671   1.866   2.364
 2202SOL    HW1 6620   2.711   1.957   2.355
 2202SOL    HW2 6621   2.571   1.874   2.370
 2203SOL     OW 6622   2.059   2.838   3.126
 2203SOL    HW1 6623   2.148   2.793   3.112
 2203SOL    HW2 6624   1.986   2.773   3.107
 2204SOL     OW 6625   3.387   2.861   2.052
 2204SOL    HW1 6626   3.324   2.785   2.065
 2204SOL    HW2 6627   3.435   2.879   2.138
 2205SOL     OW 6628   3.049   3.654   3.478
 2205SOL    HW1 6629   3.073   3.714   3.402
 2205SOL    HW2 6630   3.056   3.559   3.448
 2206SOL     OW 6631   2.179   2.113   3.663
 2206SOL    HW1 6632   2.250   2.184   3.669
 2206SOL    HW2 6633   2.091   2.152   3.691
 2207SOL     OW 6634   3.328   3.279   2.815
 2207SOL    HW1 6635   3.269   3.285   2.895
 2207SOL    HW2 6636   3.313   3.191   2.769
 2208SOL     OW 6637   3.529   3.576   2.434
 2208SOL    HW1 6638   3.488   3.553   2.346
 2208SOL    HW2 6639   3.511   3.502   2.499
 2209SOL     OW 6640   2.460   2.591   2.132
 2209SOL    HW1 6641   2.484   2.660   2.064
 2209SOL    HW2 6642   2.382   2.624   2.186
 2210SOL     OW 6643   3.143   2.207   2.806
 2210SOL    HW1 6644   3.057   2.157   2.793
 2210SOL    HW2 6645   3.205   2.153   2.862
 2211SOL     OW 6646   3.438   3.524   2.169
 2211SOL    HW1 6647   3.527   3.570   2.172
 2211SOL    HW2 6648   3.417   3.500   2.074
 2212SOL     OW 6649   2.669   2.467   3.327
 2212SOL    HW1 6650   2.622   2.464   3.416
 2212SOL    HW2 6651   2.618   2.412   3.261
 2213SOL     OW 6652   3.256   2.331   3.536
 2213SOL    HW1 6653   3.236   2.374   3.624
 2213SOL    HW2 6654   3.334   2.269   3.545
 2214SOL     OW 6655   2.835   2.752   3.434
 2214SOL    HW1 6656   2.881   2.668   3.405
 2214SOL    HW2 6657   2.779   2.786   3.359
 2215SOL     OW 6658   2.853   2.272   3.104
 2215SOL    HW1 6659   2.776   2.306   3.158
 2215SOL    HW2 6660   2.819   2.221   3.025
 2216SOL     OW 6661   2.903   2.563   2.291
 2216SOL    HW1 6662   2.929   2.559   2.387
 2216SOL    HW2 6663   2.818   2.512   2.277
 2217SOL     OW 6664   1.938   2.673   2.651
 2217SOL    HW1 6665   2.037   2.661   2.660
 2217SOL    HW2 6666   1.914   2.768   2.672
 2218SOL     OW 6667   1.992   3.683   3.433
 2218SOL    HW1 6668   1.982   3.668   3.532
 2218SOL    HW2 6669   1.906   3.719   3.397
 2219SOL     OW 6670   2.727   2.210   2.057
 2219SOL    HW1 6671   2.786   2.273   2.008
 2219SOL    HW2 6672   2.746   2.116   2.028
 2220SOL     OW 6673   3.581   2.447   3.693
 2220SOL    HW1 6674   3.555   2.536   3.657
 2220SOL    HW2 6675   3.579   2.379   3.620
 2221SOL     OW 6676   3.224   3.006   2.407
 2221SOL    HW1 6677   3.307   2.977   2.359
 2221SOL    HW2 6678   3.175   3.073   2.351
 2222SOL     OW 6679   2.412   2.058   2.747
 2222SOL    HW1 6680   2.407   2.053   2.847
 2222SOL    HW2 6681   2.414   2.154   2.718
 2223SOL     OW 6682   2.870   3.318   2.339
 2223SOL    HW1 6683   2.824   3.390   2.287
 2223SOL    HW2 6684   2.866   3.338   2.437
 2224SOL     OW 6685   2.213   3.663   2.715
 2224SOL    HW1 6686   2.263   3.577   2.721
 2224SOL    HW2 6687   2.278   3.740   2.712
 2225SOL     OW 6688   3.657   2.928   2.735
 2225SOL    HW1 6689   3.595   2.913   2.659
 2225SOL    HW2 6690   3.605   2.939   2.820
 2226SOL     OW 6691   3.089   3.412   3.368
 2226SOL    HW1 6692   3.095   3.335   3.432
 2226SOL    HW2 6693   3.037   3.386   3.288
 2227SOL     OW 6694   2.183   2.805   2.104
 2227SOL    HW1 6695   2.265   2.844   2.062
 2227SOL    HW2 6696   2.156   2.723   2.055
 2228SOL     OW 6697   3.320   2.597   2.590
 2228SOL    HW1 6698   3.315   2.532   2.665
 2228SOL    HW2 6699   3.400   2.656   2.603
 2229SOL     OW 6700   2.323   3.128   3.589
 2229SOL    HW1 6701   2.273   3.129   3.503
 2229SOL    HW2 6702   2.260   3.110   3.665
 2230SOL     OW 6703   2.973   3.638   2.099
 2230SOL    HW1 6704   2.913   3.576   2.149
 2230SOL    HW2 6705   3.004   3.594   2.014
 2231SOL     OW 6706   2.064   2.147   3.360
 2231SOL    HW1 6707   1.984   2.207   3.347
 2231SOL    HW2 6708   2.054   2.098   3.446
 2232SOL     OW 6709   3.494   3.239   1.943
 2232SOL    HW1 6710   3.462   3.333   1.933
 2232SOL    HW2 6711   3.418   3.176   1.931
 2233SOL     OW 6712   2.326   3.605   2.185
 2233SOL    HW1 6713   2.359   3.644   2.271
 2233SOL    HW2 6714   2.402   3.598   2.120
 2234SOL     OW 6715   3.262   1.969   2.288
 2234SOL    HW1 6716   3.238   1.932   2.198
 2234SOL    HW2 6717   3.361   1.985   2.292
 2235SOL     OW 6718   2.111   3.647   3.103
 2235SOL    HW1 6719   2.168   3.582   3.153
 2235SOL    HW2 6720   2.095   3.614   3.010
 2236SOL     OW 6721   2.802   3.560   2.766
 2236SOL    HW1 6722   2.882   3.503   2.787
 2236SOL    HW2 6723   2.753   3.520   2.689
 2237SOL     OW 6724   3.409   2.084   3.591
 2237SOL    HW1 6725   3.404   2.121   3.683
 2237SOL    HW2 6726   3.337   2.015   3.579
 2238SOL     OW 6727   2.476   1.984   1.979
 2238SOL    HW1 6728   2.574   1.962   1.986
 2238SOL    HW2 6729   2.445   1.967   1.886
 2239SOL     OW 6730   2.643   2.126   3.611
 2239SOL    HW1 6731   2.710   2.065   3.654
 2239SOL    HW2 6732   2.570   2.145   3.676
 2240SOL     OW 6733   2.750   3.376   3.057
 2240SOL    HW1 6734   2.727   3.351   2.963
 2240SOL    HW2 6735   2.811   3.307   3.096
 2241SOL     OW 6736   3.213   2.452   3.295
 2241SOL    HW1 6737   3.241   2.409   3.380
 2241SOL    HW2 6738   3.238   2.548   3.296
 2242SOL     OW 6739   2.665   3.264   2.786
 2242SOL    HW1 6740   2.755   3.278   2.744
 2242SOL    HW2 6741   2.594   3.266   2.715
 2243SOL     OW 6742   2.784   2.365   2.761
 2243SOL    HW1 6743   2.759   2.356   2.665
 2243SOL    HW2 6744   2.832   2.283   2.792
 2244SOL     OW 6745   2.401   1.926   2.374
 2244SOL    HW1 6746   2.320   1.927   2.432
 2244SOL    HW2 6747   2.404   2.009   2.319
 2245SOL     OW 6748   3.296   3.050   1.903
 2245SOL    HW1 6749   3.328   2.974   1.960
 2245SOL    HW2 6750   3.204   3.077   1.933
 2246SOL     OW 6751   2.159   1.897   2.033
 2246SOL    HW1 6752   2.208   1.981   2.012
 2246SOL    HW2 6753   2.221   1.832   2.078
 2247SOL     OW 6754   2.797   2.098   2.342
 2247SOL    HW1 6755   2.749   2.139   2.264
 2247SOL    HW2 6756   2.896   2.096   2.323
 2248SOL     OW 6757   2.938   2.545   3.326
 2248SOL    HW1 6758   2.858   2.484   3.329
 2248SOL    HW2 6759   3.019   2.492   3.302
 2249SOL     OW 6760   3.089   3.432   2.655
 2249SOL    HW1 6761   3.110   3.506   2.590
 2249SOL    HW2 6762   3.157   3.432   2.728
 2250SOL     OW 6763   2.321   3.014   2.603
 2250SOL    HW1 6764   2.250   2.987   2.668
 2250SOL    HW2 6765   2.295   2.986   2.510
 2251SOL     OW 6766   3.133   3.659   2.453
 2251SOL    HW1 6767   3.177   3.723   2.389
 2251SOL    HW2 6768   3.083   3.711   2.523
 2252SOL     OW 6769   2.894   2.411   1.878
 2252SOL    HW1 6770   2.853   2.493   1.839
 2252SOL    HW2 6771   2.958   2.437   1.951
 2253SOL     OW 6772   1.940   2.418   3.248
 2253SOL    HW1 6773   2.032   2.417   3.207
 2253SOL    HW2 6774   1.934   2.492   3.315
 2254SOL     OW 6775   2.423   2.084   3.009
 2254SOL    HW1 6776   2.461   2.000   3.046
 2254SOL    HW2 6777   2.335   2.103   3.053
 2255SOL     OW 6778   2.879   1.901   2.615
 2255SOL    HW1 6779   2.807   1.906   2.546
 2255SOL    HW2 6780   2.855   1.832   2.684
 2256SOL     OW 6781   3.291   3.035   2.729
 2256SOL    HW1 6782   3.236   2.951   2.722
 2256SOL    HW2 6783   3.317   3.064   2.637
 2257SOL     OW 6784   3.328   2.452   2.854
 2257SOL    HW1 6785   3.298   2.357   2.861
 2257SOL    HW2 6786   3.401   2.468   2.920
 2258SOL     OW 6787   3.719   2.695   2.239
 2258SOL    HW1 6788   3.761   2.631   2.303
 2258SOL    HW2 6789   3.681   2.644   2.161
 2259SOL     OW 6790   2.350   3.247   2.036
 2259SOL    HW1 6791   2.263   3.232   2.083
 2259SOL    HW2 6792   2.333   3.273   1.941
 2260SOL     OW 6793   3.526   3.142   2.519
 2260SOL    HW1 6794   3.625   3.150   2.533
 2260SOL    HW2 6795   3.481   3.226   2.550
 2261SOL     OW 6796   3.252   2.437   1.940
 2261SOL    HW1 6797   3.198   2.416   2.021
 2261SOL    HW2 6798   3.343   2.396   1.949
 2262SOL     OW 6799   2.389   2.118   2.190
 2262SOL    HW1 6800   2.416   2.059   2.115
 2262SOL    HW2 6801   2.389   2.213   2.159
 2263SOL     OW 6802   3.616   3.085   3.450
 2263SOL    HW1 6803   3.707   3.046   3.437
 2263SOL    HW2 6804   3.624   3.181   3.474
 2264SOL     OW 6805   2.926   3.209   3.202
 2264SOL    HW1 6806   2.846   3.186   3.257
 2264SOL    HW2 6807   3.009   3.183   3.251
 2265SOL     OW 6808   3.454   3.491   3.487
 2265SOL    HW1 6809   3.481   3.525   3.397
 2265SOL    HW2 6810   3.533   3.453   3.533
 2266SOL     OW 6811   2.973   3.057   2.962
 2266SOL    HW1 6812   2.933   3.101   3.043
 2266SOL    HW2 6813   2.932   3.094   2.879
 2267SOL     OW 6814   3.500   2.961   2.941
 2267SOL    HW1 6815   3.505   3.042   3.000
 2267SOL    HW2 6816   3.414   2.963   2.890
 2268SOL     OW 6817   2.777   1.951   3.264
 2268SOL    HW1 6818   2.802   1.931   3.169
 2268SOL    HW2 6819   2.849   2.007   3.306
 2269SOL     OW 6820   2.842   2.978   3.581
 2269SOL    HW1 6821   2.743   2.984   3.591
 2269SOL    HW2 6822   2.865   2.898   3.525
 2270SOL     OW 6823   2.567   2.912   2.230
 2270SOL    HW1 6824   2.553   2.919   2.329
 2270SOL    HW2 6825   2.651   2.861   2.212
 2271SOL     OW 6826   2.272   2.675   3.113
 2271SOL    HW1 6827   2.358   2.687   3.163
 2271SOL    HW2 6828   2.230   2.588   3.140
 2272SOL     OW 6829   3.136   2.248   3.124
 2272SOL    HW1 6830   3.157   2.322   3.188
 2272SOL    HW2 6831   3.047   2.265   3.081
 2273SOL     OW 6832   1.926   3.426   3.193
 2273SOL    HW1 6833   1.880   3.508   3.159
 2273SOL    HW2 6834   2.024   3.445   3.202
 2274SOL     OW 6835   2.229   2.962   2.363
 2274SOL    HW1 6836   2.222   3.045   2.307
 2274SOL    HW2 6837   2.233   2.882   2.303
 2275SOL     OW 6838   3.114   3.210   2.250
 2275SOL    HW1 6839   3.164   3.287   2.290
 2275SOL    HW2 6840   3.019   3.212   2.282
 2276SOL     OW 6841   3.134   3.307   3.004
 2276SOL    HW1 6842   3.181   3.320   3.091
 2276SOL    HW2 6843   3.068   3.233   3.013
 2277SOL     OW 6844   3.444   2.501   2.334
 2277SOL    HW1 6845   3.413   2.562   2.407
 2277SOL    HW2 6846   3.494   2.553   2.265
 2278SOL     OW 6847   2.216   3.372   3.191
 2278SOL    HW1 6848   2.195   3.328   3.104
 2278SOL    HW2 6849   2.313   3.398   3.194
 2279SOL     OW 6850   2.264   2.613   3.460
 2279SOL    HW1 6851   2.332   2.668   3.413
 2279SOL    HW2 6852   2.304   2.525   3.487
 2280SOL     OW 6853   3.449   2.641   3.532
 2280SOL    HW1 6854   3.357   2.679   3.527
 2280SOL    HW2 6855   3.509   2.688   3.467
 2281SOL     OW 6856   2.875   1.967   3.632
 2281SOL    HW1 6857   2.881   2.052   3.580
 2281SOL    HW2 6858   2.907   1.891   3.575
 2282SOL     OW 6859   2.366   1.912   3.602
 2282SOL    HW1 6860   2.324   1.855   3.532
 2282SOL    HW2 6861   2.300   1.981   3.634
 2283SOL     OW 6862   2.435   2.732   2.891
 2283SOL    HW1 6863   2.479   2.821   2.882
 2283SOL    HW2 6864   2.372   2.732   2.968
 2284SOL     OW 6865   3.222   2.724   2.907
 2284SOL    HW1 6866   3.147   2.724   2.841
 2284SOL    HW2 6867   3.259   2.632   2.916
 2285SOL     OW 6868   3.071   2.387   2.137
 2285SOL    HW1 6869   3.084   2.303   2.191
 2285SOL    HW2 6870   3.042   2.461   2.197
 2286SOL     OW 6871   2.169   2.075   3.093
 2286SOL    HW1 6872   2.146   2.112   3.183
 2286SOL    HW2 6873   2.139   1.980   3.087
 2287SOL     OW 6874   1.899   3.172   3.144
 2287SOL    HW1 6875   1.952   3.123   3.212
 2287SOL    HW2 6876   1.921   3.270   3.149
 2288SOL     OW 6877   2.594   2.496   2.926
 2288SOL    HW1 6878   2.653   2.470   2.850
 2288SOL    HW2 6879   2.566   2.592   2.915
 2289SOL     OW 6880   3.590   2.797   3.716
 2289SOL    HW1 6881   3.544   2.790   3.627
 2289SOL    HW2 6882   3.528   2.841   3.782
 2290SOL     OW 6883   2.169   1.925   2.480
 2290SOL    HW1 6884   2.158   2.019   2.513
 2290SOL    HW2 6885   2.164   1.862   2.557
 2291SOL     OW 6886   3.484   2.229   2.236
 2291SOL    HW1 6887   3.486   2.153   2.300
 2291SOL    HW2 6888   3.436   2.306   2.276
 2292SOL     OW 6889   2.885   2.628   2.828
 2292SOL    HW1 6890   2.900   2.649   2.924
 2292SOL    HW2 6891   2.855   2.533   2.819
 2293SOL     OW 6892   2.842   3.435   3.562
 2293SOL    HW1 6893   2.822   3.479   3.474
 2293SOL    HW2 6894   2.881   3.344   3.546
 2294SOL     OW 6895   3.721   3.380   3.467
 2294SOL    HW1 6896   3.735   3.407   3.372
 2294SOL    HW2 6897   3.804   3.402   3.520
 2295SOL     OW 6898   2.212   2.760   3.666
 2295SOL    HW1 6899   2.288   2.804   3.714
 2295SOL    HW2 6900   2.247   2.713   3.584
 2296SOL     OW 6901   3.402   2.136   1.987
 2296SOL    HW1 6902   3.341   2.061   2.010
 2296SOL    HW2 6903   3.424   2.188   2.070
 2297SOL     OW 6904   3.165   2.700   1.904
 2297SOL    HW1 6905   3.199   2.607   1.919
 2297SOL    HW2 6906   3.183   2.727   1.809
 2298SOL     OW 6907   2.930   3.195   2.711
 2298SOL    HW1 6908   2.937   3.111   2.656
 2298SOL    HW2 6909   2.992   3.264   2.675
 2299SOL     OW 6910   2.181   2.672   2.811
 2299SOL    HW1 6911   2.274   2.708   2.816
 2299SOL    HW2 6912   2.175   2.587   2.863
 2300SOL     OW 6913   3.000   2.242   3.540
 2300SOL    HW1 6914   2.955   2.305   3.604
 2300SOL    HW2 6915   3.093   2.273   3.523
 2301SOL     OW 6916   3.022   2.069   3.339
 2301SOL    HW1 6917   3.022   2.133   3.416
 2301SOL    HW2 6918   3.050   2.117   3.256
 2302SOL     OW 6919   1.870   3.188   2.062
 2302SOL    HW1 6920   1.777   3.209   2.031
 2302SOL    HW2 6921   1.880   3.089   2.075
 2303SOL     OW 6922   1.950   3.663   2.789
 2303SOL    HW1 6923   1.908   3.577   2.762
 2303SOL    HW2 6924   2.044   3.666   2.755
 2304SOL     OW 6925   2.366   3.430   2.772
 2304SOL    HW1 6926   2.432   3.504   2.781
 2304SOL    HW2 6927   2.410   3.351   2.730
 2305SOL     OW 6928   2.864   2.658   3.100
 2305SOL    HW1 6929   2.905   2.626   3.186
 2305SOL    HW2 6930   2.768   2.631   3.097
 2306SOL     OW 6931   1.902   2.406   2.976
 2306SOL    HW1 6932   1.987   2.373   2.935
 2306SOL    HW2 6933   1.915   2.421   3.074
 2307SOL     OW 6934   2.051   2.382   3.584
 2307SOL    HW1 6935   2.110   2.342   3.514
 2307SOL    HW2 6936   1.993   2.453   3.543
 2308SOL     OW 6937   3.231   2.812   3.522
 2308SOL    HW1 6938   3.270   2.901   3.542
 2308SOL    HW2 6939   3.241   2.792   3.425
 2309SOL     OW 6940   3.519   2.466   3.068
 2309SOL    HW1 6941   3.481   2.397   3.130
 2309SOL    HW2 6942   3.601   2.430   3.024
 2310SOL     OW 6943   2.114   3.426   3.606
 2310SOL    HW1 6944   2.084   3.483   3.682
 2310SOL    HW2 6945   2.107   3.329   3.632
 2311SOL     OW 6946   2.533   2.326   3.131
 2311SOL    HW1 6947   2.499   2.237   3.101
 2311SOL    HW2 6948   2.559   2.380   3.051
 2312SOL     OW 6949   2.792   3.540   3.327
 2312SOL    HW1 6950   2.768   3.522   3.232
 2312SOL    HW2 6951   2.822   3.634   3.337
 2313SOL     OW 6952   2.021   2.999   3.328
 2313SOL    HW1 6953   2.043   2.938   3.404
 2313SOL    HW2 6954   2.031   2.950   3.242
 2314SOL     OW 6955   3.209   2.921   3.096
 2314SOL    HW1 6956   3.233   2.858   3.022
 2314SOL    HW2 6957   3.119   2.961   3.078
 2315SOL     OW 6958   3.164   2.717   2.171
 2315SOL    HW1 6959   3.078   2.686   2.213
 2315SOL    HW2 6960   3.160   2.703   2.072
 2316SOL     OW 6961   3.621   3.609   3.016
 2316SOL    HW1 6962   3.682   3.639   2.943
 2316SOL    HW2 6963   3.583   3.520   2.994
 2317SOL     OW 6964   3.114   3.593   2.990
 2317SOL    HW1 6965   3.198   3.598   2.936
 2317SOL    HW2 6966   3.091   3.497   3.008
 2318SOL     OW 6967   1.945   3.120   2.884
 2318SOL    HW1 6968   1.940   3.119   2.984
 2318SOL    HW2 6969   1.862   3.079   2.846
 2319SOL     OW 6970   2.550   3.524   3.578
 2319SOL    HW1 6971   2.494   3.605   3.587
 2319SOL    HW2 6972   2.602   3.528   3.492
 2320SOL     OW 6973   3.588   1.997   2.385
 2320SOL    HW1 6974   3.661   1.980   2.318
 2320SOL    HW2 6975   3.557   1.910   2.423
 2321SOL     OW 6976   3.250   3.435   2.339
 2321SOL    HW1 6977   3.317   3.447   2.265
 2321SOL    HW2 6978   3.210   3.524   2.362
 2322SOL     OW 6979   1.992   3.656   3.713
 2322SOL    HW1 6980   1.951   3.582   3.766
 2322SOL    HW2 6981   2.056   3.707   3.771
 2323SOL     OW 6982   3.142   2.789   2.534
 2323SOL    HW1 6983   3.202   2.708   2.536
 2323SOL    HW2 6984   3.182   2.858   2.474
 2324SOL     OW 6985   2.692   3.135   3.284
 2324SOL    HW1 6986   2.687   3.168   3.379
 2324SOL    HW2 6987   2.606   3.154   3.238
 2325SOL     OW 6988   2.534   3.478   2.016
 2325SOL    HW1 6989   2.543   3.488   1.917
 2325SOL    HW2 6990   2.494   3.389   2.037
 2326SOL     OW 6991   3.512   3.582   3.256
 2326SOL    HW1 6992   3.565   3.592   3.172
 2326SOL    HW2 6993   3.485   3.672   3.290
 2327SOL     OW 6994   3.703   2.037   2.825
 2327SOL    HW1 6995   3.742   1.952   2.789
 2327SOL    HW2 6996   3.605   2.039   2.806
 2328SOL     OW 6997   2.125   2.188   2.582
 2328SOL    HW1 6998   2.046   2.239   2.548
 2328SOL    HW2 6999   2.116   2.173   2.680
 2329SOL     OW 7000   3.056   3.474   1.893
 2329SOL    HW1 7001   3.062   3.381   1.930
 2329SOL    HW2 7002   2.997   3.474   1.813
 2330SOL     OW 7003   2.684   2.864   3.234
 2330SOL    HW1 7004   2.724   2.863   3.142
 2330SOL    HW2 7005   2.694   2.956   3.274
 2331SOL     OW 7006   2.778   2.772   2.153
 2331SOL    HW1 7007   2.841   2.810   2.085
 2331SOL    HW2 7008   2.818   2.689   2.192
 2332SOL     OW 7009   3.366   3.469   1.906
 2332SOL    HW1 7010   3.274   3.506   1.913
 2332SOL    HW2 7011   3.404   3.489   1.816
 2333SOL     OW 7012   2.234   3.150   3.352
 2333SOL    HW1 7013   2.221   3.243   3.318
 2333SOL    HW2 7014   2.150   3.098   3.339
 2334SOL     OW 7015   3.476   3.154   3.151
 2334SOL    HW1 7016   3.536   3.157   3.231
 2334SOL    HW2 7017   3.401   3.218   3.164
 2335SOL     OW 7018   2.901   2.960   2.558
 2335SOL    HW1 7019   2.831   2.913   2.612
 2335SOL    HW2 7020   2.960   2.892   2.515
 2336SOL     OW 7021   2.876   2.098   2.833
 2336SOL    HW1 7022   2.868   2.062   2.740
 2336SOL    HW2 7023   2.874   2.022   2.898
 2337SOL     OW 7024   2.452   3.349   2.353
 2337SOL    HW1 7025   2.494   3.291   2.283
 2337SOL    HW2 7026   2.408   3.428   2.309
 2338SOL     OW 7027   3.571   2.247   3.243
 2338SOL    HW1 7028   3.644   2.316   3.247
 2338SOL    HW2 7029   3.599   2.172   3.184
 2339SOL     OW 7030   2.117   3.210   2.152
 2339SOL    HW1 7031   2.021   3.211   2.125
 2339SOL    HW2 7032   2.129   3.263   2.236
 2340SOL     OW 7033   1.967   2.875   3.588
 2340SOL    HW1 7034   1.890   2.842   3.642
 2340SOL    HW2 7035   2.052   2.845   3.630
 2341SOL     OW 7036   2.534   2.065   3.351
 2341SOL    HW1 7037   2.624   2.049   3.311
 2341SOL    HW2 7038   2.542   2.070   3.450
 2342SOL     OW 7039   1.937   2.207   1.895
 2342SOL    HW1 7040   1.845   2.179   1.866
 2342SOL    HW2 7041   1.968   2.284   1.839
 2343SOL     OW 7042   3.302   2.718   3.260
 2343SOL    HW1 7043   3.245   2.770   3.197
 2343SOL    HW2 7044   3.398   2.730   3.236
 2344SOL     OW 7045   1.934   2.028   2.180
 2344SOL    HW1 7046   1.917   2.111   2.126
 2344SOL    HW2 7047   2.024   1.991   2.158
 2345SOL     OW 7048   3.045   3.197   1.981
 2345SOL    HW1 7049   2.946   3.186   1.983
 2345SOL    HW2 7050   3.079   3.212   2.074
 2346SOL     OW 7051   2.475   2.704   3.293
 2346SOL    HW1 7052   2.531   2.785   3.276
 2346SOL    HW2 7053   2.534   2.624   3.296
 2347SOL     OW 7054   3.355   3.629   2.821
 2347SOL    HW1 7055   3.388   3.693   2.752
 2347SOL    HW2 7056   3.421   3.623   2.896
 2348SOL     OW 7057   2.578   2.427   3.570
 2348SOL    HW1 7058   2.597   2.492   3.644
 2348SOL    HW2 7059   2.638   2.347   3.579
 2349SOL     OW 7060   3.312   3.082   3.495
 2349SOL    HW1 7061   3.303   3.072   3.594
 2349SOL    HW2 7062   3.408   3.075   3.469
 2350SOL     OW 7063   2.252   3.603   3.422
 2350SOL    HW1 7064   2.161   3.644   3.420
 2350SOL    HW2 7065   2.245   3.509   3.454
 2351SOL     OW 7066   3.536   2.745   3.116
 2351SOL    HW1 7067   3.509   2.656   3.079
 2351SOL    HW2 7068   3.537   2.813   3.043
 2352SOL     OW 7069   3.087   2.187   2.311
 2352SOL    HW1 7070   3.152   2.113   2.300
 2352SOL    HW2 7071   3.107   2.237   2.395
 2353SOL     OW 7072   2.456   2.607   2.514
 2353SOL    HW1 7073   2.506   2.692   2.495
 2353SOL    HW2 7074   2.368   2.609   2.466
 2354SOL     OW 7075   3.639   2.204   3.504
 2354SOL    HW1 7076   3.622   2.235   3.410
 2354SOL    HW2 7077   3.555   2.167   3.542
 2355SOL     OW 7078   3.592   2.796   3.379
 2355SOL    HW1 7079   3.630   2.887   3.394
 2355SOL    HW2 7080   3.584   2.779   3.280
 2356SOL     OW 7081   2.721   3.236   1.878
 2356SOL    HW1 7082   2.675   3.251   1.966
 2356SOL    HW2 7083   2.765   3.321   1.848
 2357SOL     OW 7084   2.523   3.652   2.815
 2357SOL    HW1 7085   2.477   3.740   2.802
 2357SOL    HW2 7086   2.622   3.664   2.808
 2358SOL     OW 7087   2.721   2.818   2.723
 2358SOL    HW1 7088   2.775   2.749   2.771
 2358SOL    HW2 7089   2.689   2.887   2.789
 2359SOL     OW 7090   2.945   2.846   1.949
 2359SOL    HW1 7091   2.922   2.899   1.867
 2359SOL    HW2 7092   3.026   2.790   1.930
 2360SOL     OW 7093   3.723   3.431   2.713
 2360SOL    HW1 7094   3.652   3.419   2.643
 2360SOL    HW2 7095   3.724   3.352   2.773
 2361SOL     OW 7096   2.083   3.176   3.706
 2361SOL    HW1 7097   2.018   3.103   3.685
 2361SOL    HW2 7098   2.087   3.190   3.804
 2362SOL     OW 7099   1.941   3.102   2.515
 2362SOL    HW1 7100   1.940   3.055   2.603
 2362SOL    HW2 7101   2.023   3.074   2.464
 2363SOL     OW 7102   2.534   3.253   3.486
 2363SOL    HW1 7103   2.456   3.203   3.524
 2363SOL    HW2 7104   2.531   3.348   3.517
 2364SOL     OW 7105   3.686   2.054   3.089
 2364SOL    HW1 7106   3.682   1.964   3.133
 2364SOL    HW2 7107   3.689   2.043   2.990
 2365SOL     OW 7108   3.567   3.349   2.966
 2365SOL    HW1 7109   3.474   3.324   2.939
 2365SOL    HW2 7110   3.593   3.299   3.048
 2366SOL     OW 7111   2.179   2.409   3.142
 2366SOL    HW1 7112   2.217   2.350   3.214
 2366SOL    HW2 7113   2.219   2.383   3.054
 2367SOL     OW 7114   2.674   3.448   2.549
 2367SOL    HW1 7115   2.706   3.458   2.455
 2367SOL    HW2 7116   2.595   3.386   2.551
 2368SOL     OW 7117   3.286   2.076   2.974
 2368SOL    HW1 7118   3.338   2.011   3.029
 2368SOL    HW2 7119   3.237   2.139   3.035
 2369SOL     OW 7120   2.863   1.896   3.016
 2369SOL    HW1 7121   2.800   1.824   2.985
 2369SOL    HW2 7122   2.956   1.860   3.016
 2370SOL     OW 7123   2.632   3.192   2.163
 2370SOL    HW1 7124   2.586   3.105   2.180
 2370SOL    HW2 7125   2.723   3.189   2.204
 2371SOL     OW 7126   2.480   3.429   3.146
 2371SOL    HW1 7127   2.475   3.511   3.203
 2371SOL    HW2 7128   2.569   3.426   3.101
 2372SOL     OW 7129   3.214   1.914   2.030
 2372SOL    HW1 7130   3.249   1.873   1.946
 2372SOL    HW2 7131   3.124   1.876   2.050
 2373SOL     OW 7132   3.162   2.315   2.553
 2373SOL    HW1 7133   3.103   2.395   2.557
 2373SOL    HW2 7134   3.177   2.280   2.646
 2374SOL     OW 7135   3.455   2.083   2.744
 2374SOL    HW1 7136   3.371   2.082   2.798
 2374SOL    HW2 7137   3.457   2.166   2.688
 2375SOL     OW 7138   1.901   2.939   2.162
 2375SOL    HW1 7139   2.000   2.928   2.153
 2375SOL    HW2 7140   1.861   2.853   2.194
 2376SOL     OW 7141   2.737   3.508   2.199
 2376SOL    HW1 7142   2.660   3.473   2.145
 2376SOL    HW2 7143   2.705   3.579   2.261
 2377SOL     OW 7144   2.092   2.490   3.837
 2377SOL    HW1 7145   1.999   2.488   3.874
 2377SOL    HW2 7146   2.093   2.451   3.745
 2378SOL     OW 7147   2.087   2.137   4.720
 2378SOL    HW1 7148   2.122   2.120   4.812
 2378SOL    HW2 7149   1.999   2.092   4.708
 2379SOL     OW 7150   1.881   2.230   4.371
 2379SOL    HW1 7151   1.799   2.273   4.410
 2379SOL    HW2 7152   1.853   2.157   4.308
 2380SOL     OW 7153   3.417   3.373   4.427
 2380SOL    HW1 7154   3.360   3.357   4.508
 2380SOL    HW2 7155   3.358   3.383   4.347
 2381SOL     OW 7156   2.997   2.565   4.441
 2381SOL    HW1 7157   3.054   2.643   4.416
 2381SOL    HW2 7158   2.937   2.591   4.517
 2382SOL     OW 7159   3.617   2.469   3.955
 2382SOL    HW1 7160   3.605   2.456   3.856
 2382SOL    HW2 7161   3.587   2.388   4.004
 2383SOL     OW 7162   2.630   3.006   4.747
 2383SOL    HW1 7163   2.552   3.023   4.807
 2383SOL    HW2 7164   2.664   3.093   4.711
 2384SOL     OW 7165   2.547   2.874   4.389
 2384SOL    HW1 7166   2.616   2.858   4.459
 2384SOL    HW2 7167   2.474   2.931   4.427
 2385SOL     OW 7168   2.197   3.297   4.785
 2385SOL    HW1 7169   2.119   3.266   4.732
 2385SOL    HW2 7170   2.255   3.355   4.728
 2386SOL     OW 7171   3.465   2.309   4.461
 2386SOL    HW1 7172   3.391   2.355   4.411
 2386SOL    HW2 7173   3.516   2.377   4.514
 2387SOL     OW 7174   2.093   3.575   4.207
 2387SOL    HW1 7175   2.127   3.652   4.261
 2387SOL    HW2 7176   2.137   3.575   4.117
 2388SOL     OW 7177   2.092   3.296   4.262
 2388SOL    HW1 7178   2.066   3.392   4.262
 2388SOL    HW2 7179   2.021   3.242   4.307
 2389SOL     OW 7180   2.102   2.953   4.610
 2389SOL    HW1 7181   2.116   2.869   4.662
 2389SOL    HW2 7182   2.047   3.017   4.665
 2390SOL     OW 7183   2.468   2.826   3.847
 2390SOL    HW1 7184   2.475   2.910   3.793
 2390SOL    HW2 7185   2.514   2.839   3.935
 2391SOL     OW 7186   1.984   2.505   4.287
 2391SOL    HW1 7187   1.939   2.417   4.304
 2391SOL    HW2 7188   1.983   2.559   4.371
 2392SOL     OW 7189   3.704   3.629   4.083
 2392SOL    HW1 7190   3.758   3.600   4.163
 2392SOL    HW2 7191   3.734   3.719   4.054
 2393SOL     OW 7192   1.889   3.458   3.841
 2393SOL    HW1 7193   1.870   3.362   3.862
 2393SOL    HW2 7194   1.856   3.516   3.916
 2394SOL     OW 7195   3.551   2.784   4.336
 2394SOL    HW1 7196   3.646   2.755   4.344
 2394SOL    HW2 7197   3.543   2.849   4.261
 2395SOL     OW 7198   3.503   2.970   4.156
 2395SOL    HW1 7199   3.589   2.972   4.104
 2395SOL    HW2 7200   3.517   3.017   4.244
 2396SOL     OW 7201   2.475   3.227   4.450
 2396SOL    HW1 7202   2.426   3.140   4.459
 2396SOL    HW2 7203   2.452   3.270   4.363
 2397SOL     OW 7204   2.671   1.866   4.226
 2397SOL    HW1 7205   2.711   1.957   4.217
 2397SOL    HW2 7206   2.571   1.874   4.232
 2398SOL     OW 7207   3.387   2.861   3.914
 2398SOL    HW1 7208   3.324   2.785   3.927
 2398SOL    HW2 7209   3.435   2.879   4.000
 2399SOL     OW 7210   3.328   3.279   4.677
 2399SOL    HW1 7211   3.269   3.285   4.757
 2399SOL    HW2 7212   3.313   3.191   4.631
 2400SOL     OW 7213   3.529   3.576   4.296
 2400SOL    HW1 7214   3.488   3.553   4.208
 2400SOL    HW2 7215   3.511   3.502   4.361
 2401SOL     OW 7216   2.460   2.591   3.994
 2401SOL    HW1 7217   2.484   2.660   3.926
 2401SOL    HW2 7218   2.382   2.624   4.048
 2402SOL     OW 7219   3.143   2.207   4.668
 2402SOL    HW1 7220   3.057   2.157   4.655
 2402SOL    HW2 7221   3.205   2.153   4.724
 2403SOL     OW 7222   3.438   3.524   4.031
 2403SOL    HW1 7223   3.527   3.570   4.034
 2403SOL    HW2 7224   3.417   3.500   3.936
 2404SOL     OW 7225   2.903   2.563   4.153
 2404SOL    HW1 7226   2.929   2.559   4.249
 2404SOL    HW2 7227   2.818   2.512   4.139
 2405SOL     OW 7228   1.938   2.673   4.513
 2405SOL    HW1 7229   2.037   2.661   4.522
 2405SOL    HW2 7230   1.914   2.768   4.534
 2406SOL     OW 7231   2.727   2.210   3.919
 2406SOL    HW1 7232   2.786   2.273   3.870
 2406SOL    HW2 7233   2.746   2.116   3.890
 2407SOL     OW 7234   3.224   3.006   4.269
 2407SOL    HW1 7235   3.307   2.977   4.221
 2407SOL    HW2 7236   3.175   3.073   4.213
 2408SOL     OW 7237   2.412   2.058   4.609
 2408SOL    HW1 7238   2.407   2.053   4.709
 2408SOL    HW2 7239   2.414   2.154   4.580
 2409SOL     OW 7240   2.870   3.318   4.201
 2409SOL    HW1 7241   2.824   3.390   4.149
 2409SOL    HW2 7242   2.866   3.338   4.299
 2410SOL     OW 7243   2.213   3.663   4.577
 2410SOL    HW1 7244   2.263   3.577   4.583
 2410SOL    HW2 7245   2.278   3.740   4.574
 2411SOL     OW 7246   3.657   2.928   4.597
 2411SOL    HW1 7247   3.595   2.913   4.521
 2411SOL    HW2 7248   3.605   2.939   4.682
 2412SOL     OW 7249   2.183   2.805   3.966
 2412SOL    HW1 7250   2.265   2.844   3.924
 2412SOL    HW2 7251   2.156   2.723   3.917
 2413SOL     OW 7252   3.320   2.597   4.452
 2413SOL    HW1 7253   3.315   2.532   4.527
 2413SOL    HW2 7254   3.400   2.656   4.465
 2414SOL     OW 7255   2.973   3.638   3.961
 2414SOL    HW1 7256   2.913   3.576   4.011
 2414SOL    HW2 7257   3.004   3.594   3.876
 2415SOL     OW 7258   3.494   3.239   3.805
 2415SOL    HW1 7259   3.462   3.333   3.795
 2415SOL    HW2 7260   3.418   3.176   3.793
 2416SOL     OW 7261   2.326   3.605   4.047
 2416SOL    HW1 7262   2.359   3.644   4.133
 2416SOL    HW2 7263   2.402   3.598   3.982
 2417SOL     OW 7264   3.262   1.969   4.150
 2417SOL    HW1 7265   3.238   1.932   4.060
 2417SOL    HW2 7266   3.361   1.985   4.154
 2418SOL     OW 7267   2.111   3.647   4.965
 2418SOL    HW1 7268   2.168   3.582   5.015
 2418SOL    HW2 7269   2.095   3.614   4.872
 2419SOL     OW 7270   2.802   3.560   4.628
 2419SOL    HW1 7271   2.882   3.503   4.649
 2419SOL    HW2 7272   2.753   3.520   4.551
 2420SOL     OW 7273   2.244   2.562   4.204
 2420SOL    HW1 7274   2.289   2.472   4.201
 2420SOL    HW2 7275   2.150   2.551   4.237
 2421SOL     OW 7276   2.476   1.984   3.841
 2421SOL    HW1 7277   2.574   1.962   3.848
 2421SOL    HW2 7278   2.445   1.967   3.748
 2422SOL     OW 7279   2.665   3.264   4.648
 2422SOL    HW1 7280   2.755   3.278   4.606
 2422SOL    HW2 7281   2.594   3.266   4.577
 2423SOL     OW 7282   2.784   2.365   4.623
 2423SOL    HW1 7283   2.759   2.356   4.527
 2423SOL    HW2 7284   2.832   2.283   4.654
 2424SOL     OW 7285   2.401   1.926   4.236
 2424SOL    HW1 7286   2.320   1.927   4.294
 2424SOL    HW2 7287   2.404   2.009   4.181
 2425SOL     OW 7288   3.296   3.050   3.765
 2425SOL    HW1 7289   3.328   2.974   3.822
 2425SOL    HW2 7290   3.204   3.077   3.795
 2426SOL     OW 7291   2.159   1.897   3.895
 2426SOL    HW1 7292   2.208   1.981   3.874
 2426SOL    HW2 7293   2.221   1.832   3.940
 2427SOL     OW 7294   2.797   2.098   4.204
 2427SOL    HW1 7295   2.749   2.139   4.126
 2427SOL    HW2 7296   2.896   2.096   4.185
 2428SOL     OW 7297   3.089   3.432   4.517
 2428SOL    HW1 7298   3.110   3.506   4.452
 2428SOL    HW2 7299   3.157   3.432   4.590
 2429SOL     OW 7300   2.321   3.014   4.465
 2429SOL    HW1 7301   2.250   2.987   4.530
 2429SOL    HW2 7302   2.295   2.986   4.372
 2430SOL     OW 7303   3.133   3.659   4.315
 2430SOL    HW1 7304   3.177   3.723   4.251
 2430SOL    HW2 7305   3.083   3.711   4.385
 2431SOL     OW 7306   2.894   2.411   3.740
 2431SOL    HW1 7307   2.853   2.493   3.701
 2431SOL    HW2 7308   2.958   2.437   3.813
 2432SOL     OW 7309   2.728   2.316   4.366
 2432SOL    HW1 7310   2.696   2.388   4.304
 2432SOL    HW2 7311   2.752   2.235   4.313
 2433SOL     OW 7312   2.879   1.901   4.477
 2433SOL    HW1 7313   2.807   1.906   4.408
 2433SOL    HW2 7314   2.855   1.832   4.546
 2434SOL     OW 7315   3.291   3.035   4.591
 2434SOL    HW1 7316   3.236   2.951   4.584
 2434SOL    HW2 7317   3.317   3.064   4.499
 2435SOL     OW 7318   3.328   2.452   4.716
 2435SOL    HW1 7319   3.298   2.357   4.723
 2435SOL    HW2 7320   3.401   2.468   4.782
 2436SOL     OW 7321   3.719   2.695   4.101
 2436SOL    HW1 7322   3.761   2.631   4.165
 2436SOL    HW2 7323   3.681   2.644   4.023
 2437SOL     OW 7324   2.350   3.247   3.898
 2437SOL    HW1 7325   2.263   3.232   3.945
 2437SOL    HW2 7326   2.333   3.273   3.803
 2438SOL     OW 7327   3.526   3.142   4.381
 2438SOL    HW1 7328   3.625   3.150   4.395
 2438SOL    HW2 7329   3.481   3.226   4.412
 2439SOL     OW 7330   3.252   2.437   3.802
 2439SOL    HW1 7331   3.198   2.416   3.883
 2439SOL    HW2 7332   3.343   2.396   3.811
 2440SOL     OW 7333   2.389   2.118   4.052
 2440SOL    HW1 7334   2.416   2.059   3.977
 2440SOL    HW2 7335   2.389   2.213   4.021
 2441SOL     OW 7336   3.500   2.961   4.803
 2441SOL    HW1 7337   3.505   3.042   4.862
 2441SOL    HW2 7338   3.414   2.963   4.752
 2442SOL     OW 7339   2.567   2.912   4.092
 2442SOL    HW1 7340   2.553   2.919   4.191
 2442SOL    HW2 7341   2.651   2.861   4.074
 2443SOL     OW 7342   2.229   2.962   4.225
 2443SOL    HW1 7343   2.222   3.045   4.169
 2443SOL    HW2 7344   2.233   2.882   4.165
 2444SOL     OW 7345   2.428   2.399   4.589
 2444SOL    HW1 7346   2.440   2.465   4.515
 2444SOL    HW2 7347   2.474   2.433   4.672
 2445SOL     OW 7348   3.114   3.210   4.112
 2445SOL    HW1 7349   3.164   3.287   4.152
 2445SOL    HW2 7350   3.019   3.212   4.144
 2446SOL     OW 7351   3.444   2.501   4.196
 2446SOL    HW1 7352   3.413   2.562   4.269
 2446SOL    HW2 7353   3.494   2.553   4.127
 2447SOL     OW 7354   2.435   2.732   4.753
 2447SOL    HW1 7355   2.479   2.821   4.744
 2447SOL    HW2 7356   2.372   2.732   4.830
 2448SOL     OW 7357   3.071   2.387   3.999
 2448SOL    HW1 7358   3.084   2.303   4.053
 2448SOL    HW2 7359   3.042   2.461   4.059
 2449SOL     OW 7360   2.169   2.075   4.955
 2449SOL    HW1 7361   2.146   2.112   5.045
 2449SOL    HW2 7362   2.139   1.980   4.949
 2450SOL     OW 7363   2.594   2.496   4.788
 2450SOL    HW1 7364   2.653   2.470   4.712
 2450SOL    HW2 7365   2.566   2.592   4.777
 2451SOL     OW 7366   2.169   1.925   4.342
 2451SOL    HW1 7367   2.158   2.019   4.375
 2451SOL    HW2 7368   2.164   1.862   4.419
 2452SOL     OW 7369   3.484   2.229   4.098
 2452SOL    HW1 7370   3.486   2.153   4.162
 2452SOL    HW2 7371   3.436   2.306   4.138
 2453SOL     OW 7372   3.402   2.136   3.849
 2453SOL    HW1 7373   3.341   2.061   3.872
 2453SOL    HW2 7374   3.424   2.188   3.932
 2454SOL     OW 7375   3.165   2.700   3.766
 2454SOL    HW1 7376   3.199   2.607   3.781
 2454SOL    HW2 7377   3.183   2.727   3.671
 2455SOL     OW 7378   2.930   3.195   4.573
 2455SOL    HW1 7379   2.937   3.111   4.518
 2455SOL    HW2 7380   2.992   3.264   4.537
 2456SOL     OW 7381   2.181   2.672   4.673
 2456SOL    HW1 7382   2.274   2.708   4.678
 2456SOL    HW2 7383   2.175   2.587   4.725
 2457SOL     OW 7384   2.201   2.371   4.730
 2457SOL    HW1 7385   2.149   2.288   4.713
 2457SOL    HW2 7386   2.278   2.376   4.666
 2458SOL     OW 7387   1.870   3.188   3.924
 2458SOL    HW1 7388   1.777   3.209   3.893
 2458SOL    HW2 7389   1.880   3.089   3.937
 2459SOL     OW 7390   1.950   3.663   4.651
 2459SOL    HW1 7391   1.908   3.577   4.624
 2459SOL    HW2 7392   2.044   3.666   4.617
 2460SOL     OW 7393   2.366   3.430   4.634
 2460SOL    HW1 7394   2.432   3.504   4.643
 2460SOL    HW2 7395   2.410   3.351   4.592
 2461SOL     OW 7396   2.677   2.434   4.049
 2461SOL    HW1 7397   2.684   2.345   4.003
 2461SOL    HW2 7398   2.583   2.468   4.041
 2462SOL     OW 7399   2.533   2.326   4.993
 2462SOL    HW1 7400   2.499   2.237   4.963
 2462SOL    HW2 7401   2.559   2.380   4.913
 2463SOL     OW 7402   2.335   2.362   3.915
 2463SOL    HW1 7403   2.396   2.442   3.919
 2463SOL    HW2 7404   2.240   2.393   3.922
 2464SOL     OW 7405   3.164   2.717   4.033
 2464SOL    HW1 7406   3.078   2.686   4.075
 2464SOL    HW2 7407   3.160   2.703   3.934
 2465SOL     OW 7408   3.621   3.609   4.878
 2465SOL    HW1 7409   3.682   3.639   4.805
 2465SOL    HW2 7410   3.583   3.520   4.856
 2466SOL     OW 7411   1.945   3.120   4.746
 2466SOL    HW1 7412   1.940   3.119   4.846
 2466SOL    HW2 7413   1.862   3.079   4.708
 2467SOL     OW 7414   3.588   1.997   4.247
 2467SOL    HW1 7415   3.661   1.980   4.180
 2467SOL    HW2 7416   3.557   1.910   4.285
 2468SOL     OW 7417   3.250   3.435   4.201
 2468SOL    HW1 7418   3.317   3.447   4.127
 2468SOL    HW2 7419   3.210   3.524   4.224
 2469SOL     OW 7420   3.142   2.789   4.396
 2469SOL    HW1 7421   3.202   2.708   4.398
 2469SOL    HW2 7422   3.182   2.858   4.336
 2470SOL     OW 7423   2.534   3.478   3.878
 2470SOL    HW1 7424   2.543   3.488   3.779
 2470SOL    HW2 7425   2.494   3.389   3.899
 2471SOL     OW 7426   3.703   2.037   4.687
 2471SOL    HW1 7427   3.742   1.952   4.651
 2471SOL    HW2 7428   3.605   2.039   4.668
 2472SOL     OW 7429   2.125   2.188   4.444
 2472SOL    HW1 7430   2.046   2.239   4.410
 2472SOL    HW2 7431   2.116   2.173   4.542
 2473SOL     OW 7432   3.056   3.474   3.755
 2473SOL    HW1 7433   3.062   3.381   3.792
 2473SOL    HW2 7434   2.997   3.474   3.675
 2474SOL     OW 7435   2.778   2.772   4.015
 2474SOL    HW1 7436   2.841   2.810   3.947
 2474SOL    HW2 7437   2.818   2.689   4.054
 2475SOL     OW 7438   3.366   3.469   3.768
 2475SOL    HW1 7439   3.274   3.506   3.775
 2475SOL    HW2 7440   3.404   3.489   3.678
 2476SOL     OW 7441   2.901   2.960   4.420
 2476SOL    HW1 7442   2.831   2.913   4.474
 2476SOL    HW2 7443   2.960   2.892   4.377
 2477SOL     OW 7444   2.452   3.349   4.215
 2477SOL    HW1 7445   2.494   3.291   4.145
 2477SOL    HW2 7446   2.408   3.428   4.171
 2478SOL     OW 7447   2.117   3.210   4.014
 2478SOL    HW1 7448   2.021   3.211   3.987
 2478SOL    HW2 7449   2.129   3.263   4.098
 2479SOL     OW 7450   1.937   2.207   3.757
 2479SOL    HW1 7451   1.845   2.179   3.728
 2479SOL    HW2 7452   1.968   2.284   3.701
 2480SOL     OW 7453   1.934   2.028   4.042
 2480SOL    HW1 7454   1.917   2.111   3.988
 2480SOL    HW2 7455   2.024   1.991   4.020
 2481SOL     OW 7456   3.045   3.197   3.843
 2481SOL    HW1 7457   2.946   3.186   3.845
 2481SOL    HW2 7458   3.079   3.212   3.936
 2482SOL     OW 7459   3.536   2.745   4.978
 2482SOL    HW1 7460   3.509   2.656   4.941
 2482SOL    HW2 7461   3.537   2.813   4.905
 2483SOL     OW 7462   3.087   2.187   4.173
 2483SOL    HW1 7463   3.152   2.113   4.162
 2483SOL    HW2 7464   3.107   2.237   4.257
 2484SOL     OW 7465   2.456   2.607   4.376
 2484SOL    HW1 7466   2.506   2.692   4.357
 2484SOL    HW2 7467   2.368   2.609   4.328
 2485SOL     OW 7468   2.721   3.236   3.740
 2485SOL    HW1 7469   2.675   3.251   3.828
 2485SOL    HW2 7470   2.765   3.321   3.710
 2486SOL     OW 7471   2.523   3.652   4.677
 2486SOL    HW1 7472   2.477   3.740   4.664
 2486SOL    HW2 7473   2.622   3.664   4.670
 2487SOL     OW 7474   2.721   2.818   4.585
 2487SOL    HW1 7475   2.775   2.749   4.633
 2487SOL    HW2 7476   2.689   2.887   4.651
 2488SOL     OW 7477   2.945   2.846   3.811
 2488SOL    HW1 7478   2.922   2.899   3.729
 2488SOL    HW2 7479   3.026   2.790   3.792
 2489SOL     OW 7480   3.723   3.431   4.575
 2489SOL    HW1 7481   3.652   3.419   4.505
 2489SOL    HW2 7482   3.724   3.352   4.635
 2490SOL     OW 7483   1.941   3.102   4.377
 2490SOL    HW1 7484   1.940   3.055   4.465
 2490SOL    HW2 7485   2.023   3.074   4.326
 2491SOL     OW 7486   3.686   2.054   4.951
 2491SOL    HW1 7487   3.682   1.964   4.995
 2491SOL    HW2 7488   3.689   2.043   4.852
 2492SOL     OW 7489   2.290   2.286   4.244
 2492SOL    HW1 7490   2.320   2.214   4.182
 2492SOL    HW2 7491   2.251   2.246   4.327
 2493SOL     OW 7492   2.674   3.448   4.411
 2493SOL    HW1 7493   2.706   3.458   4.317
 2493SOL    HW2 7494   2.595   3.386   4.413
 2494SOL     OW 7495   2.632   3.192   4.025
 2494SOL    HW1 7496   2.586   3.105   4.042
 2494SOL    HW2 7497   2.723   3.189   4.066
 2495SOL     OW 7498   3.214   1.914   3.892
 2495SOL    HW1 7499   3.249   1.873   3.808
 2495SOL    HW2 7500   3.124   1.876   3.912
 2496SOL     OW 7501   3.162   2.315   4.415
 2496SOL    HW1 7502   3.103   2.395   4.419
 2496SOL    HW2 7503   3.177   2.280   4.508
 2497SOL     OW 7504   3.455   2.083   4.606
 2497SOL    HW1 7505   3.371   2.082   4.660
 2497SOL    HW2 7506   3.457   2.166   4.550
 2498SOL     OW 7507   1.901   2.939   4.024
 2498SOL    HW1 7508   2.000   2.928   4.015
 2498SOL    HW2 7509   1.861   2.853   4.056
 2499SOL     OW 7510   2.737   3.508   4.061
 2499SOL    HW1 7511   2.660   3.473   4.007
 2499SOL    HW2 7512   2.705   3.579   4.123
 2500SOL     OW 7513   2.092   4.352   0.113
 2500SOL    HW1 7514   1.999   4.350   0.150
 2500SOL    HW2 7515   2.093   4.313   0.021
 2501SOL     OW 7516   2.087   3.999   0.996
 2501SOL    HW1 7517   2.122   3.982   1.088
 2501SOL    HW2 7518   1.999   3.954   0.984
 2502SOL     OW 7519   1.881   4.092   0.647
 2502SOL    HW1 7520   1.799   4.135   0.686
 2502SOL    HW2 7521   1.853   4.019   0.584
 2503SOL     OW 7522   2.997   4.427   0.717
 2503SOL    HW1 7523   3.054   4.505   0.692
 2503SOL    HW2 7524   2.937   4.453   0.793
 2504SOL     OW 7525   3.617   4.331   0.231
 2504SOL    HW1 7526   3.605   4.318   0.132
 2504SOL    HW2 7527   3.587   4.250   0.280
 2505SOL     OW 7528   2.630   4.868   1.023
 2505SOL    HW1 7529   2.552   4.885   1.083
 2505SOL    HW2 7530   2.664   4.955   0.987
 2506SOL     OW 7531   2.712   4.522   1.823
 2506SOL    HW1 7532   2.708   4.598   1.888
 2506SOL    HW2 7533   2.734   4.558   1.732
 2507SOL     OW 7534   2.547   4.736   0.665
 2507SOL    HW1 7535   2.616   4.720   0.735
 2507SOL    HW2 7536   2.474   4.793   0.703
 2508SOL     OW 7537   2.300   4.116   1.499
 2508SOL    HW1 7538   2.382   4.060   1.508
 2508SOL    HW2 7539   2.219   4.058   1.503
 2509SOL     OW 7540   3.465   4.171   0.737
 2509SOL    HW1 7541   3.391   4.217   0.687
 2509SOL    HW2 7542   3.516   4.239   0.790
 2510SOL     OW 7543   2.102   4.815   0.886
 2510SOL    HW1 7544   2.116   4.731   0.938
 2510SOL    HW2 7545   2.047   4.879   0.941
 2511SOL     OW 7546   2.468   4.688   0.123
 2511SOL    HW1 7547   2.475   4.772   0.069
 2511SOL    HW2 7548   2.514   4.701   0.211
 2512SOL     OW 7549   3.456   3.838   1.480
 2512SOL    HW1 7550   3.438   3.905   1.408
 2512SOL    HW2 7551   3.453   3.884   1.569
 2513SOL     OW 7552   1.984   4.367   0.563
 2513SOL    HW1 7553   1.939   4.279   0.580
 2513SOL    HW2 7554   1.983   4.421   0.647
 2514SOL     OW 7555   3.551   4.646   0.612
 2514SOL    HW1 7556   3.646   4.617   0.620
 2514SOL    HW2 7557   3.543   4.711   0.537
 2515SOL     OW 7558   1.975   4.461   1.597
 2515SOL    HW1 7559   2.063   4.448   1.642
 2515SOL    HW2 7560   1.962   4.558   1.575
 2516SOL     OW 7561   2.671   3.728   0.502
 2516SOL    HW1 7562   2.711   3.819   0.493
 2516SOL    HW2 7563   2.571   3.736   0.508
 2517SOL     OW 7564   2.059   4.700   1.264
 2517SOL    HW1 7565   2.148   4.655   1.250
 2517SOL    HW2 7566   1.986   4.635   1.245
 2518SOL     OW 7567   3.387   4.723   0.190
 2518SOL    HW1 7568   3.324   4.647   0.203
 2518SOL    HW2 7569   3.435   4.741   0.276
 2519SOL     OW 7570   2.179   3.975   1.801
 2519SOL    HW1 7571   2.250   4.046   1.807
 2519SOL    HW2 7572   2.091   4.014   1.829
 2520SOL     OW 7573   2.460   4.453   0.270
 2520SOL    HW1 7574   2.484   4.522   0.202
 2520SOL    HW2 7575   2.382   4.486   0.324
 2521SOL     OW 7576   3.143   4.069   0.944
 2521SOL    HW1 7577   3.057   4.019   0.931
 2521SOL    HW2 7578   3.205   4.015   1.000
 2522SOL     OW 7579   2.669   4.329   1.465
 2522SOL    HW1 7580   2.622   4.326   1.554
 2522SOL    HW2 7581   2.618   4.274   1.399
 2523SOL     OW 7582   3.256   4.193   1.674
 2523SOL    HW1 7583   3.236   4.236   1.762
 2523SOL    HW2 7584   3.334   4.131   1.683
 2524SOL     OW 7585   2.835   4.614   1.572
 2524SOL    HW1 7586   2.881   4.530   1.543
 2524SOL    HW2 7587   2.779   4.648   1.497
 2525SOL     OW 7588   2.853   4.134   1.242
 2525SOL    HW1 7589   2.776   4.168   1.296
 2525SOL    HW2 7590   2.819   4.083   1.163
 2526SOL     OW 7591   2.903   4.425   0.429
 2526SOL    HW1 7592   2.929   4.421   0.525
 2526SOL    HW2 7593   2.818   4.374   0.415
 2527SOL     OW 7594   1.938   4.535   0.789
 2527SOL    HW1 7595   2.037   4.523   0.798
 2527SOL    HW2 7596   1.914   4.630   0.810
 2528SOL     OW 7597   2.727   4.072   0.195
 2528SOL    HW1 7598   2.786   4.135   0.146
 2528SOL    HW2 7599   2.746   3.978   0.166
 2529SOL     OW 7600   3.581   4.309   1.831
 2529SOL    HW1 7601   3.555   4.398   1.795
 2529SOL    HW2 7602   3.579   4.241   1.758
 2530SOL     OW 7603   2.412   3.920   0.885
 2530SOL    HW1 7604   2.407   3.915   0.985
 2530SOL    HW2 7605   2.414   4.016   0.856
 2531SOL     OW 7606   3.320   4.459   0.728
 2531SOL    HW1 7607   3.315   4.394   0.803
 2531SOL    HW2 7608   3.400   4.518   0.741
 2532SOL     OW 7609   2.064   4.009   1.498
 2532SOL    HW1 7610   1.984   4.069   1.485
 2532SOL    HW2 7611   2.054   3.960   1.584
 2533SOL     OW 7612   3.262   3.831   0.426
 2533SOL    HW1 7613   3.238   3.794   0.336
 2533SOL    HW2 7614   3.361   3.847   0.430
 2534SOL     OW 7615   2.244   4.424   0.480
 2534SOL    HW1 7616   2.289   4.334   0.477
 2534SOL    HW2 7617   2.150   4.413   0.513
 2535SOL     OW 7618   3.409   3.946   1.729
 2535SOL    HW1 7619   3.404   3.983   1.821
 2535SOL    HW2 7620   3.337   3.877   1.717
 2536SOL     OW 7621   2.476   3.846   0.117
 2536SOL    HW1 7622   2.574   3.824   0.124
 2536SOL    HW2 7623   2.445   3.829   0.024
 2537SOL     OW 7624   2.643   3.988   1.749
 2537SOL    HW1 7625   2.710   3.927   1.792
 2537SOL    HW2 7626   2.570   4.007   1.814
 2538SOL     OW 7627   3.213   4.314   1.433
 2538SOL    HW1 7628   3.241   4.271   1.518
 2538SOL    HW2 7629   3.238   4.410   1.434
 2539SOL     OW 7630   2.784   4.227   0.899
 2539SOL    HW1 7631   2.759   4.218   0.803
 2539SOL    HW2 7632   2.832   4.145   0.930
 2540SOL     OW 7633   2.401   3.788   0.512
 2540SOL    HW1 7634   2.320   3.789   0.570
 2540SOL    HW2 7635   2.404   3.871   0.457
 2541SOL     OW 7636   2.797   3.960   0.480
 2541SOL    HW1 7637   2.749   4.001   0.402
 2541SOL    HW2 7638   2.896   3.958   0.461
 2542SOL     OW 7639   2.938   4.407   1.464
 2542SOL    HW1 7640   2.858   4.346   1.467
 2542SOL    HW2 7641   3.019   4.354   1.440
 2543SOL     OW 7642   2.894   4.273   0.016
 2543SOL    HW1 7643   2.853   4.355  -0.023
 2543SOL    HW2 7644   2.958   4.299   0.089
 2544SOL     OW 7645   1.940   4.280   1.386
 2544SOL    HW1 7646   2.032   4.279   1.345
 2544SOL    HW2 7647   1.934   4.354   1.453
 2545SOL     OW 7648   2.423   3.946   1.147
 2545SOL    HW1 7649   2.461   3.862   1.184
 2545SOL    HW2 7650   2.335   3.965   1.191
 2546SOL     OW 7651   2.728   4.178   0.642
 2546SOL    HW1 7652   2.696   4.250   0.580
 2546SOL    HW2 7653   2.752   4.097   0.589
 2547SOL     OW 7654   2.879   3.763   0.753
 2547SOL    HW1 7655   2.807   3.768   0.684
 2547SOL    HW2 7656   2.855   3.694   0.822
 2548SOL     OW 7657   3.291   4.897   0.867
 2548SOL    HW1 7658   3.236   4.813   0.860
 2548SOL    HW2 7659   3.317   4.926   0.775
 2549SOL     OW 7660   3.328   4.314   0.992
 2549SOL    HW1 7661   3.298   4.219   0.999
 2549SOL    HW2 7662   3.401   4.330   1.058
 2550SOL     OW 7663   3.719   4.557   0.377
 2550SOL    HW1 7664   3.761   4.493   0.441
 2550SOL    HW2 7665   3.681   4.506   0.299
 2551SOL     OW 7666   3.252   4.299   0.078
 2551SOL    HW1 7667   3.198   4.278   0.159
 2551SOL    HW2 7668   3.343   4.258   0.087
 2552SOL     OW 7669   2.389   3.980   0.328
 2552SOL    HW1 7670   2.416   3.921   0.253
 2552SOL    HW2 7671   2.389   4.075   0.297
 2553SOL     OW 7672   3.500   4.823   1.079
 2553SOL    HW1 7673   3.505   4.904   1.138
 2553SOL    HW2 7674   3.414   4.825   1.028
 2554SOL     OW 7675   2.777   3.813   1.402
 2554SOL    HW1 7676   2.802   3.793   1.307
 2554SOL    HW2 7677   2.849   3.869   1.444
 2555SOL     OW 7678   2.272   4.537   1.251
 2555SOL    HW1 7679   2.358   4.549   1.301
 2555SOL    HW2 7680   2.230   4.450   1.278
 2556SOL     OW 7681   3.136   4.110   1.262
 2556SOL    HW1 7682   3.157   4.184   1.326
 2556SOL    HW2 7683   3.047   4.127   1.219
 2557SOL     OW 7684   2.428   4.261   0.865
 2557SOL    HW1 7685   2.440   4.327   0.791
 2557SOL    HW2 7686   2.474   4.295   0.948
 2558SOL     OW 7687   3.444   4.363   0.472
 2558SOL    HW1 7688   3.413   4.424   0.545
 2558SOL    HW2 7689   3.494   4.415   0.403
 2559SOL     OW 7690   2.264   4.475   1.598
 2559SOL    HW1 7691   2.332   4.530   1.551
 2559SOL    HW2 7692   2.304   4.387   1.625
 2560SOL     OW 7693   3.449   4.503   1.670
 2560SOL    HW1 7694   3.357   4.541   1.665
 2560SOL    HW2 7695   3.509   4.550   1.605
 2561SOL     OW 7696   2.875   3.829   1.770
 2561SOL    HW1 7697   2.881   3.914   1.718
 2561SOL    HW2 7698   2.907   3.753   1.713
 2562SOL     OW 7699   2.366   3.774   1.740
 2562SOL    HW1 7700   2.324   3.717   1.670
 2562SOL    HW2 7701   2.300   3.843   1.772
 2563SOL     OW 7702   2.435   4.594   1.029
 2563SOL    HW1 7703   2.479   4.683   1.020
 2563SOL    HW2 7704   2.372   4.594   1.106
 2564SOL     OW 7705   3.222   4.586   1.045
 2564SOL    HW1 7706   3.147   4.586   0.979
 2564SOL    HW2 7707   3.259   4.494   1.054
 2565SOL     OW 7708   3.071   4.249   0.275
 2565SOL    HW1 7709   3.084   4.165   0.329
 2565SOL    HW2 7710   3.042   4.323   0.335
 2566SOL     OW 7711   2.169   3.937   1.231
 2566SOL    HW1 7712   2.146   3.974   1.321
 2566SOL    HW2 7713   2.139   3.842   1.225
 2567SOL     OW 7714   2.594   4.358   1.064
 2567SOL    HW1 7715   2.653   4.332   0.988
 2567SOL    HW2 7716   2.566   4.454   1.053
 2568SOL     OW 7717   3.590   4.659   1.854
 2568SOL    HW1 7718   3.544   4.652   1.765
 2568SOL    HW2 7719   3.528   4.703   1.920
 2569SOL     OW 7720   2.169   3.787   0.618
 2569SOL    HW1 7721   2.158   3.881   0.651
 2569SOL    HW2 7722   2.164   3.724   0.695
 2570SOL     OW 7723   3.484   4.091   0.374
 2570SOL    HW1 7724   3.486   4.015   0.438
 2570SOL    HW2 7725   3.436   4.168   0.414
 2571SOL     OW 7726   2.885   4.490   0.966
 2571SOL    HW1 7727   2.900   4.511   1.062
 2571SOL    HW2 7728   2.855   4.395   0.957
 2572SOL     OW 7729   2.212   4.622   1.804
 2572SOL    HW1 7730   2.288   4.666   1.852
 2572SOL    HW2 7731   2.247   4.575   1.722
 2573SOL     OW 7732   3.402   3.998   0.125
 2573SOL    HW1 7733   3.341   3.923   0.148
 2573SOL    HW2 7734   3.424   4.050   0.208
 2574SOL     OW 7735   3.165   4.562   0.042
 2574SOL    HW1 7736   3.199   4.469   0.057
 2574SOL    HW2 7737   3.183   4.589  -0.053
 2575SOL     OW 7738   2.181   4.534   0.949
 2575SOL    HW1 7739   2.274   4.570   0.954
 2575SOL    HW2 7740   2.175   4.449   1.001
 2576SOL     OW 7741   2.201   4.233   1.006
 2576SOL    HW1 7742   2.149   4.150   0.989
 2576SOL    HW2 7743   2.278   4.238   0.942
 2577SOL     OW 7744   3.000   4.104   1.678
 2577SOL    HW1 7745   2.955   4.167   1.742
 2577SOL    HW2 7746   3.093   4.135   1.661
 2578SOL     OW 7747   3.022   3.931   1.477
 2578SOL    HW1 7748   3.022   3.995   1.554
 2578SOL    HW2 7749   3.050   3.979   1.394
 2579SOL     OW 7750   2.864   4.520   1.238
 2579SOL    HW1 7751   2.905   4.488   1.324
 2579SOL    HW2 7752   2.768   4.493   1.235
 2580SOL     OW 7753   1.902   4.268   1.114
 2580SOL    HW1 7754   1.987   4.235   1.073
 2580SOL    HW2 7755   1.915   4.283   1.212
 2581SOL     OW 7756   2.051   4.244   1.722
 2581SOL    HW1 7757   2.110   4.204   1.652
 2581SOL    HW2 7758   1.993   4.315   1.681
 2582SOL     OW 7759   3.231   4.674   1.660
 2582SOL    HW1 7760   3.270   4.763   1.680
 2582SOL    HW2 7761   3.241   4.654   1.563
 2583SOL     OW 7762   2.677   4.296   0.325
 2583SOL    HW1 7763   2.684   4.207   0.279
 2583SOL    HW2 7764   2.583   4.330   0.317
 2584SOL     OW 7765   3.519   4.328   1.206
 2584SOL    HW1 7766   3.481   4.259   1.268
 2584SOL    HW2 7767   3.601   4.292   1.162
 2585SOL     OW 7768   2.533   4.188   1.269
 2585SOL    HW1 7769   2.499   4.099   1.239
 2585SOL    HW2 7770   2.559   4.242   1.189
 2586SOL     OW 7771   2.335   4.224   0.191
 2586SOL    HW1 7772   2.396   4.304   0.195
 2586SOL    HW2 7773   2.240   4.255   0.198
 2587SOL     OW 7774   2.021   4.861   1.466
 2587SOL    HW1 7775   2.043   4.800   1.542
 2587SOL    HW2 7776   2.031   4.812   1.380
 2588SOL     OW 7777   3.209   4.783   1.234
 2588SOL    HW1 7778   3.233   4.720   1.160
 2588SOL    HW2 7779   3.119   4.823   1.216
 2589SOL     OW 7780   3.164   4.579   0.309
 2589SOL    HW1 7781   3.078   4.548   0.351
 2589SOL    HW2 7782   3.160   4.565   0.210
 2590SOL     OW 7783   2.765   3.810   0.133
 2590SOL    HW1 7784   2.816   3.811   0.047
 2590SOL    HW2 7785   2.821   3.768   0.204
 2591SOL     OW 7786   3.588   3.859   0.523
 2591SOL    HW1 7787   3.661   3.842   0.456
 2591SOL    HW2 7788   3.557   3.772   0.561
 2592SOL     OW 7789   3.142   4.651   0.672
 2592SOL    HW1 7790   3.202   4.570   0.674
 2592SOL    HW2 7791   3.182   4.720   0.612
 2593SOL     OW 7792   3.703   3.899   0.963
 2593SOL    HW1 7793   3.742   3.814   0.927
 2593SOL    HW2 7794   3.605   3.901   0.944
 2594SOL     OW 7795   2.125   4.050   0.720
 2594SOL    HW1 7796   2.046   4.101   0.686
 2594SOL    HW2 7797   2.116   4.035   0.818
 2595SOL     OW 7798   2.778   4.634   0.291
 2595SOL    HW1 7799   2.841   4.672   0.223
 2595SOL    HW2 7800   2.818   4.551   0.330
 2596SOL     OW 7801   2.876   3.960   0.971
 2596SOL    HW1 7802   2.868   3.924   0.878
 2596SOL    HW2 7803   2.874   3.884   1.036
 2597SOL     OW 7804   3.571   4.109   1.381
 2597SOL    HW1 7805   3.644   4.178   1.385
 2597SOL    HW2 7806   3.599   4.034   1.322
 2598SOL     OW 7807   1.967   4.737   1.726
 2598SOL    HW1 7808   1.890   4.704   1.780
 2598SOL    HW2 7809   2.052   4.707   1.768
 2599SOL     OW 7810   2.534   3.927   1.489
 2599SOL    HW1 7811   2.624   3.911   1.449
 2599SOL    HW2 7812   2.542   3.932   1.588
 2600SOL     OW 7813   1.937   4.069   0.033
 2600SOL    HW1 7814   1.845   4.041   0.004
 2600SOL    HW2 7815   1.968   4.146  -0.023
 2601SOL     OW 7816   3.302   4.580   1.398
 2601SOL    HW1 7817   3.245   4.632   1.335
 2601SOL    HW2 7818   3.398   4.592   1.374
 2602SOL     OW 7819   1.934   3.890   0.318
 2602SOL    HW1 7820   1.917   3.973   0.264
 2602SOL    HW2 7821   2.024   3.853   0.296
 2603SOL     OW 7822   3.045   5.059   0.119
 2603SOL    HW1 7823   2.946   5.048   0.121
 2603SOL    HW2 7824   3.079   5.074   0.212
 2604SOL     OW 7825   2.475   4.566   1.431
 2604SOL    HW1 7826   2.531   4.647   1.414
 2604SOL    HW2 7827   2.534   4.486   1.434
 2605SOL     OW 7828   2.578   4.289   1.708
 2605SOL    HW1 7829   2.597   4.354   1.782
 2605SOL    HW2 7830   2.638   4.209   1.717
 2606SOL     OW 7831   3.536   4.607   1.254
 2606SOL    HW1 7832   3.509   4.518   1.217
 2606SOL    HW2 7833   3.537   4.675   1.181
 2607SOL     OW 7834   3.087   4.049   0.449
 2607SOL    HW1 7835   3.152   3.975   0.438
 2607SOL    HW2 7836   3.107   4.099   0.533
 2608SOL     OW 7837   2.456   4.469   0.652
 2608SOL    HW1 7838   2.506   4.554   0.633
 2608SOL    HW2 7839   2.368   4.471   0.604
 2609SOL     OW 7840   3.639   4.066   1.642
 2609SOL    HW1 7841   3.622   4.097   1.548
 2609SOL    HW2 7842   3.555   4.029   1.680
 2610SOL     OW 7843   3.592   4.658   1.517
 2610SOL    HW1 7844   3.630   4.749   1.532
 2610SOL    HW2 7845   3.584   4.641   1.418
 2611SOL     OW 7846   2.721   4.680   0.861
 2611SOL    HW1 7847   2.775   4.611   0.909
 2611SOL    HW2 7848   2.689   4.749   0.927
 2612SOL     OW 7849   2.945   4.708   0.087
 2612SOL    HW1 7850   2.922   4.761   0.005
 2612SOL    HW2 7851   3.026   4.652   0.068
 2613SOL     OW 7852   1.941   4.964   0.653
 2613SOL    HW1 7853   1.940   4.917   0.741
 2613SOL    HW2 7854   2.023   4.936   0.602
 2614SOL     OW 7855   3.686   3.916   1.227
 2614SOL    HW1 7856   3.682   3.826   1.271
 2614SOL    HW2 7857   3.689   3.905   1.128
 2615SOL     OW 7858   2.290   4.148   0.520
 2615SOL    HW1 7859   2.320   4.076   0.458
 2615SOL    HW2 7860   2.251   4.108   0.603
 2616SOL     OW 7861   2.179   4.271   1.280
 2616SOL    HW1 7862   2.217   4.212   1.352
 2616SOL    HW2 7863   2.219   4.245   1.192
 2617SOL     OW 7864   3.286   3.938   1.112
 2617SOL    HW1 7865   3.338   3.873   1.167
 2617SOL    HW2 7866   3.237   4.001   1.173
 2618SOL     OW 7867   2.863   3.758   1.154
 2618SOL    HW1 7868   2.800   3.686   1.123
 2618SOL    HW2 7869   2.956   3.722   1.154
 2619SOL     OW 7870   3.214   3.776   0.168
 2619SOL    HW1 7871   3.249   3.735   0.084
 2619SOL    HW2 7872   3.124   3.738   0.188
 2620SOL     OW 7873   3.162   4.177   0.691
 2620SOL    HW1 7874   3.103   4.257   0.695
 2620SOL    HW2 7875   3.177   4.142   0.784
 2621SOL     OW 7876   3.455   3.945   0.882
 2621SOL    HW1 7877   3.371   3.944   0.936
 2621SOL    HW2 7878   3.457   4.028   0.826
 2622SOL     OW 7879   2.092   4.352   1.975
 2622SOL    HW1 7880   1.999   4.350   2.012
 2622SOL    HW2 7881   2.093   4.313   1.883
 2623SOL     OW 7882   2.087   3.999   2.858
 2623SOL    HW1 7883   2.122   3.982   2.950
 2623SOL    HW2 7884   1.999   3.954   2.846
 2624SOL     OW 7885   1.881   4.092   2.509
 2624SOL    HW1 7886   1.799   4.135   2.548
 2624SOL    HW2 7887   1.853   4.019   2.446
 2625SOL     OW 7888   2.997   4.427   2.579
 2625SOL    HW1 7889   3.054   4.505   2.554
 2625SOL    HW2 7890   2.937   4.453   2.655
 2626SOL     OW 7891   3.617   4.331   2.093
 2626SOL    HW1 7892   3.605   4.318   1.994
 2626SOL    HW2 7893   3.587   4.250   2.142
 2627SOL     OW 7894   2.630   4.868   2.885
 2627SOL    HW1 7895   2.552   4.885   2.945
 2627SOL    HW2 7896   2.664   4.955   2.849
 2628SOL     OW 7897   2.712   4.522   3.685
 2628SOL    HW1 7898   2.708   4.598   3.750
 2628SOL    HW2 7899   2.734   4.558   3.594
 2629SOL     OW 7900   2.547   4.736   2.527
 2629SOL    HW1 7901   2.616   4.720   2.597
 2629SOL    HW2 7902   2.474   4.793   2.565
 2630SOL     OW 7903   2.300   4.116   3.361
 2630SOL    HW1 7904   2.382   4.060   3.370
 2630SOL    HW2 7905   2.219   4.058   3.365
 2631SOL     OW 7906   3.465   4.171   2.599
 2631SOL    HW1 7907   3.391   4.217   2.549
 2631SOL    HW2 7908   3.516   4.239   2.652
 2632SOL     OW 7909   2.102   4.815   2.748
 2632SOL    HW1 7910   2.116   4.731   2.800
 2632SOL    HW2 7911   2.047   4.879   2.803
 2633SOL     OW 7912   2.468   4.688   1.985
 2633SOL    HW1 7913   2.475   4.772   1.931
 2633SOL    HW2 7914   2.514   4.701   2.073
 2634SOL     OW 7915   3.456   3.838   3.342
 2634SOL    HW1 7916   3.438   3.905   3.270
 2634SOL    HW2 7917   3.453   3.884   3.431
 2635SOL     OW 7918   1.984   4.367   2.425
 2635SOL    HW1 7919   1.939   4.279   2.442
 2635SOL    HW2 7920   1.983   4.421   2.509
 2636SOL     OW 7921   3.551   4.646   2.474
 2636SOL    HW1 7922   3.646   4.617   2.482
 2636SOL    HW2 7923   3.543   4.711   2.399
 2637SOL     OW 7924   1.975   4.461   3.459
 2637SOL    HW1 7925   2.063   4.448   3.504
 2637SOL    HW2 7926   1.962   4.558   3.437
 2638SOL     OW 7927   2.671   3.728   2.364
 2638SOL    HW1 7928   2.711   3.819   2.355
 2638SOL    HW2 7929   2.571   3.736   2.370
 2639SOL     OW 7930   2.059   4.700   3.126
 2639SOL    HW1 7931   2.148   4.655   3.112
 2639SOL    HW2 7932   1.986   4.635   3.107
 2640SOL     OW 7933   3.387   4.723   2.052
 2640SOL    HW1 7934   3.324   4.647   2.065
 2640SOL    HW2 7935   3.435   4.741   2.138
 2641SOL     OW 7936   2.179   3.975   3.663
 2641SOL    HW1 7937   2.250   4.046   3.669
 2641SOL    HW2 7938   2.091   4.014   3.691
 2642SOL     OW 7939   2.460   4.453   2.132
 2642SOL    HW1 7940   2.484   4.522   2.064
 2642SOL    HW2 7941   2.382   4.486   2.186
 2643SOL     OW 7942   3.143   4.069   2.806
 2643SOL    HW1 7943   3.057   4.019   2.793
 2643SOL    HW2 7944   3.205   4.015   2.862
 2644SOL     OW 7945   2.669   4.329   3.327
 2644SOL    HW1 7946   2.622   4.326   3.416
 2644SOL    HW2 7947   2.618   4.274   3.261
 2645SOL     OW 7948   3.256   4.193   3.536
 2645SOL    HW1 7949   3.236   4.236   3.624
 2645SOL    HW2 7950   3.334   4.131   3.545
 2646SOL     OW 7951   2.835   4.614   3.434
 2646SOL    HW1 7952   2.881   4.530   3.405
 2646SOL    HW2 7953   2.779   4.648   3.359
 2647SOL     OW 7954   2.853   4.134   3.104
 2647SOL    HW1 7955   2.776   4.168   3.158
 2647SOL    HW2 7956   2.819   4.083   3.025
 2648SOL     OW 7957   2.903   4.425   2.291
 2648SOL    HW1 7958   2.929   4.421   2.387
 2648SOL    HW2 7959   2.818   4.374   2.277
 2649SOL     OW 7960   1.938   4.535   2.651
 2649SOL    HW1 7961   2.037   4.523   2.660
 2649SOL    HW2 7962   1.914   4.630   2.672
 2650SOL     OW 7963   2.727   4.072   2.057
 2650SOL    HW1 7964   2.786   4.135   2.008
 2650SOL    HW2 7965   2.746   3.978   2.028
 2651SOL     OW 7966   3.581   4.309   3.693
 2651SOL    HW1 7967   3.555   4.398   3.657
 2651SOL    HW2 7968   3.579   4.241   3.620
 2652SOL     OW 7969   2.412   3.920   2.747
 2652SOL    HW1 7970   2.407   3.915   2.847
 2652SOL    HW2 7971   2.414   4.016   2.718
 2653SOL     OW 7972   3.320   4.459   2.590
 2653SOL    HW1 7973   3.315   4.394   2.665
 2653SOL    HW2 7974   3.400   4.518   2.603
 2654SOL     OW 7975   2.064   4.009   3.360
 2654SOL    HW1 7976   1.984   4.069   3.347
 2654SOL    HW2 7977   2.054   3.960   3.446
 2655SOL     OW 7978   3.262   3.831   2.288
 2655SOL    HW1 7979   3.238   3.794   2.198
 2655SOL    HW2 7980   3.361   3.847   2.292
 2656SOL     OW 7981   2.244   4.424   2.342
 2656SOL    HW1 7982   2.289   4.334   2.339
 2656SOL    HW2 7983   2.150   4.413   2.375
 2657SOL     OW 7984   3.409   3.946   3.591
 2657SOL    HW1 7985   3.404   3.983   3.683
 2657SOL    HW2 7986   3.337   3.877   3.579
 2658SOL     OW 7987   2.476   3.846   1.979
 2658SOL    HW1 7988   2.574   3.824   1.986
 2658SOL    HW2 7989   2.445   3.829   1.886
 2659SOL     OW 7990   2.643   3.988   3.611
 2659SOL    HW1 7991   2.710   3.927   3.654
 2659SOL    HW2 7992   2.570   4.007   3.676
 2660SOL     OW 7993   3.213   4.314   3.295
 2660SOL    HW1 7994   3.241   4.271   3.380
 2660SOL    HW2 7995   3.238   4.410   3.296
 2661SOL     OW 7996   2.784   4.227   2.761
 2661SOL    HW1 7997   2.759   4.218   2.665
 2661SOL    HW2 7998   2.832   4.145   2.792
 2662SOL     OW 7999   2.401   3.788   2.374
 2662SOL    HW1 8000   2.320   3.789   2.432
 2662SOL    HW2 8001   2.404   3.871   2.319
 2663SOL     OW 8002   2.159   3.759   2.033
 2663SOL    HW1 8003   2.208   3.843   2.012
 2663SOL    HW2 8004   2.221   3.694   2.078
 2664SOL     OW 8005   2.797   3.960   2.342
 2664SOL    HW1 8006   2.749   4.001   2.264
 2664SOL    HW2 8007   2.896   3.958   2.323
 2665SOL     OW 8008   2.938   4.407   3.326
 2665SOL    HW1 8009   2.858   4.346   3.329
 2665SOL    HW2 8010   3.019   4.354   3.302
 2666SOL     OW 8011   2.894   4.273   1.878
 2666SOL    HW1 8012   2.853   4.355   1.839
 2666SOL    HW2 8013   2.958   4.299   1.951
 2667SOL     OW 8014   1.940   4.280   3.248
 2667SOL    HW1 8015   2.032   4.279   3.207
 2667SOL    HW2 8016   1.934   4.354   3.315
 2668SOL     OW 8017   2.423   3.946   3.009
 2668SOL    HW1 8018   2.461   3.862   3.046
 2668SOL    HW2 8019   2.335   3.965   3.053
 2669SOL     OW 8020   2.728   4.178   2.504
 2669SOL    HW1 8021   2.696   4.250   2.442
 2669SOL    HW2 8022   2.752   4.097   2.451
 2670SOL     OW 8023   2.879   3.763   2.615
 2670SOL    HW1 8024   2.807   3.768   2.546
 2670SOL    HW2 8025   2.855   3.694   2.684
 2671SOL     OW 8026   3.291   4.897   2.729
 2671SOL    HW1 8027   3.236   4.813   2.722
 2671SOL    HW2 8028   3.317   4.926   2.637
 2672SOL     OW 8029   3.328   4.314   2.854
 2672SOL    HW1 8030   3.298   4.219   2.861
 2672SOL    HW2 8031   3.401   4.330   2.920
 2673SOL     OW 8032   3.719   4.557   2.239
 2673SOL    HW1 8033   3.761   4.493   2.303
 2673SOL    HW2 8034   3.681   4.506   2.161
 2674SOL     OW 8035   3.252   4.299   1.940
 2674SOL    HW1 8036   3.198   4.278   2.021
 2674SOL    HW2 8037   3.343   4.258   1.949
 2675SOL     OW 8038   2.389   3.980   2.190
 2675SOL    HW1 8039   2.416   3.921   2.115
 2675SOL    HW2 8040   2.389   4.075   2.159
 2676SOL     OW 8041   3.500   4.823   2.941
 2676SOL    HW1 8042   3.505   4.904   3.000
 2676SOL    HW2 8043   3.414   4.825   2.890
 2677SOL     OW 8044   2.777   3.813   3.264
 2677SOL    HW1 8045   2.802   3.793   3.169
 2677SOL    HW2 8046   2.849   3.869   3.306
 2678SOL     OW 8047   2.272   4.537   3.113
 2678SOL    HW1 8048   2.358   4.549   3.163
 2678SOL    HW2 8049   2.230   4.450   3.140
 2679SOL     OW 8050   3.136   4.110   3.124
 2679SOL    HW1 8051   3.157   4.184   3.188
 2679SOL    HW2 8052   3.047   4.127   3.081
 2680SOL     OW 8053   2.428   4.261   2.727
 2680SOL    HW1 8054   2.440   4.327   2.653
 2680SOL    HW2 8055   2.474   4.295   2.810
 2681SOL     OW 8056   3.444   4.363   2.334
 2681SOL    HW1 8057   3.413   4.424   2.407
 2681SOL    HW2 8058   3.494   4.415   2.265
 2682SOL     OW 8059   2.264   4.475   3.460
 2682SOL    HW1 8060   2.332   4.530   3.413
 2682SOL    HW2 8061   2.304   4.387   3.487
 2683SOL     OW 8062   3.449   4.503   3.532
 2683SOL    HW1 8063   3.357   4.541   3.527
 2683SOL    HW2 8064   3.509   4.550   3.467
 2684SOL     OW 8065   2.875   3.829   3.632
 2684SOL    HW1 8066   2.881   3.914   3.580
 2684SOL    HW2 8067   2.907   3.753   3.575
 2685SOL     OW 8068   2.366   3.774   3.602
 2685SOL    HW1 8069   2.324   3.717   3.532
 2685SOL    HW2 8070   2.300   3.843   3.634
 2686SOL     OW 8071   2.435   4.594   2.891
 2686SOL    HW1 8072   2.479   4.683   2.882
 2686SOL    HW2 8073   2.372   4.594   2.968
 2687SOL     OW 8074   3.222   4.586   2.907
 2687SOL    HW1 8075   3.147   4.586   2.841
 2687SOL    HW2 8076   3.259   4.494   2.916
 2688SOL     OW 8077   3.071   4.249   2.137
 2688SOL    HW1 8078   3.084   4.165   2.191
 2688SOL    HW2 8079   3.042   4.323   2.197
 2689SOL     OW 8080   2.169   3.937   3.093
 2689SOL    HW1 8081   2.146   3.974   3.183
 2689SOL    HW2 8082   2.139   3.842   3.087
 2690SOL     OW 8083   2.594   4.358   2.926
 2690SOL    HW1 8084   2.653   4.332   2.850
 2690SOL    HW2 8085   2.566   4.454   2.915
 2691SOL     OW 8086   3.590   4.659   3.716
 2691SOL    HW1 8087   3.544   4.652   3.627
 2691SOL    HW2 8088   3.528   4.703   3.782
 2692SOL     OW 8089   2.169   3.787   2.480
 2692SOL    HW1 8090   2.158   3.881   2.513
 2692SOL    HW2 8091   2.164   3.724   2.557
 2693SOL     OW 8092   3.484   4.091   2.236
 2693SOL    HW1 8093   3.486   4.015   2.300
 2693SOL    HW2 8094   3.436   4.168   2.276
 2694SOL     OW 8095   2.885   4.490   2.828
 2694SOL    HW1 8096   2.900   4.511   2.924
 2694SOL    HW2 8097   2.855   4.395   2.819
 2695SOL     OW 8098   2.212   4.622   3.666
 2695SOL    HW1 8099   2.288   4.666   3.714
 2695SOL    HW2 8100   2.247   4.575   3.584
 2696SOL     OW 8101   3.402   3.998   1.987
 2696SOL    HW1 8102   3.341   3.923   2.010
 2696SOL    HW2 8103   3.424   4.050   2.070
 2697SOL     OW 8104   3.165   4.562   1.904
 2697SOL    HW1 8105   3.199   4.469   1.919
 2697SOL    HW2 8106   3.183   4.589   1.809
 2698SOL     OW 8107   2.181   4.534   2.811
 2698SOL    HW1 8108   2.274   4.570   2.816
 2698SOL    HW2 8109   2.175   4.449   2.863
 2699SOL     OW 8110   2.201   4.233   2.868
 2699SOL    HW1 8111   2.149   4.150   2.851
 2699SOL    HW2 8112   2.278   4.238   2.804
 2700SOL     OW 8113   3.000   4.104   3.540
 2700SOL    HW1 8114   2.955   4.167   3.604
 2700SOL    HW2 8115   3.093   4.135   3.523
 2701SOL     OW 8116   3.022   3.931   3.339
 2701SOL    HW1 8117   3.022   3.995   3.416
 2701SOL    HW2 8118   3.050   3.979   3.256
 2702SOL     OW 8119   2.864   4.520   3.100
 2702SOL    HW1 8120   2.905   4.488   3.186
 2702SOL    HW2 8121   2.768   4.493   3.097
 2703SOL     OW 8122   1.902   4.268   2.976
 2703SOL    HW1 8123   1.987   4.235   2.935
 2703SOL    HW2 8124   1.915   4.283   3.074
 2704SOL     OW 8125   2.051   4.244   3.584
 2704SOL    HW1 8126   2.110   4.204   3.514
 2704SOL    HW2 8127   1.993   4.315   3.543
 2705SOL     OW 8128   3.231   4.674   3.522
 2705SOL    HW1 8129   3.270   4.763   3.542
 2705SOL    HW2 8130   3.241   4.654   3.425
 2706SOL     OW 8131   2.677   4.296   2.187
 2706SOL    HW1 8132   2.684   4.207   2.141
 2706SOL    HW2 8133   2.583   4.330   2.179
 2707SOL     OW 8134   3.519   4.328   3.068
 2707SOL    HW1 8135   3.481   4.259   3.130
 2707SOL    HW2 8136   3.601   4.292   3.024
 2708SOL     OW 8137   2.533   4.188   3.131
 2708SOL    HW1 8138   2.499   4.099   3.101
 2708SOL    HW2 8139   2.559   4.242   3.051
 2709SOL     OW 8140   2.335   4.224   2.053
 2709SOL    HW1 8141   2.396   4.304   2.057
 2709SOL    HW2 8142   2.240   4.255   2.060
 2710SOL     OW 8143   2.021   4.861   3.328
 2710SOL    HW1 8144   2.043   4.800   3.404
 2710SOL    HW2 8145   2.031   4.812   3.242
 2711SOL     OW 8146   3.209   4.783   3.096
 2711SOL    HW1 8147   3.233   4.720   3.022
 2711SOL    HW2 8148   3.119   4.823   3.078
 2712SOL     OW 8149   3.164   4.579   2.171
 2712SOL    HW1 8150   3.078   4.548   2.213
 2712SOL    HW2 8151   3.160   4.565   2.072
 2713SOL     OW 8152   3.588   3.859   2.385
 2713SOL    HW1 8153   3.661   3.842   2.318
 2713SOL    HW2 8154   3.557   3.772   2.423
 2714SOL     OW 8155   3.142   4.651   2.534
 2714SOL    HW1 8156   3.202   4.570   2.536
 2714SOL    HW2 8157   3.182   4.720   2.474
 2715SOL     OW 8158   3.703   3.899   2.825
 2715SOL    HW1 8159   3.742   3.814   2.789
 2715SOL    HW2 8160   3.605   3.901   2.806
 2716SOL     OW 8161   2.125   4.050   2.582
 2716SOL    HW1 8162   2.046   4.101   2.548
 2716SOL    HW2 8163   2.116   4.035   2.680
 2717SOL     OW 8164   2.778   4.634   2.153
 2717SOL    HW1 8165   2.841   4.672   2.085
 2717SOL    HW2 8166   2.818   4.551   2.192
 2718SOL     OW 8167   2.876   3.960   2.833
 2718SOL    HW1 8168   2.868   3.924   2.740
 2718SOL    HW2 8169   2.874   3.884   2.898
 2719SOL     OW 8170   3.571   4.109   3.243
 2719SOL    HW1 8171   3.644   4.178   3.247
 2719SOL    HW2 8172   3.599   4.034   3.184
 2720SOL     OW 8173   1.967   4.737   3.588
 2720SOL    HW1 8174   1.890   4.704   3.642
 2720SOL    HW2 8175   2.052   4.707   3.630
 2721SOL     OW 8176   2.534   3.927   3.351
 2721SOL    HW1 8177   2.624   3.911   3.311
 2721SOL    HW2 8178   2.542   3.932   3.450
 2722SOL     OW 8179   1.937   4.069   1.895
 2722SOL    HW1 8180   1.845   4.041   1.866
 2722SOL    HW2 8181   1.968   4.146   1.839
 2723SOL     OW 8182   3.302   4.580   3.260
 2723SOL    HW1 8183   3.245   4.632   3.197
 2723SOL    HW2 8184   3.398   4.592   3.236
 2724SOL     OW 8185   1.934   3.890   2.180
 2724SOL    HW1 8186   1.917   3.973   2.126
 2724SOL    HW2 8187   2.024   3.853   2.158
 2725SOL     OW 8188   3.045   5.059   1.981
 2725SOL    HW1 8189   2.946   5.048   1.983
 2725SOL    HW2 8190   3.079   5.074   2.074
 2726SOL     OW 8191   2.475   4.566   3.293
 2726SOL    HW1 8192   2.531   4.647   3.276
 2726SOL    HW2 8193   2.534   4.486   3.296
 2727SOL     OW 8194   2.578   4.289   3.570
 2727SOL    HW1 8195   2.597   4.354   3.644
 2727SOL    HW2 8196   2.638   4.209   3.579
 2728SOL     OW 8197   3.536   4.607   3.116
 2728SOL    HW1 8198   3.509   4.518   3.079
 2728SOL    HW2 8199   3.537   4.675   3.043
 2729SOL     OW 8200   3.087   4.049   2.311
 2729SOL    HW1 8201   3.152   3.975   2.300
 2729SOL    HW2 8202   3.107   4.099   2.395
 2730SOL     OW 8203   2.456   4.469   2.514
 2730SOL    HW1 8204   2.506   4.554   2.495
 2730SOL    HW2 8205   2.368   4.471   2.466
 2731SOL     OW 8206   3.639   4.066   3.504
 2731SOL    HW1 8207   3.622   4.097   3.410
 2731SOL    HW2 8208   3.555   4.029   3.542
 2732SOL     OW 8209   3.592   4.658   3.379
 2732SOL    HW1 8210   3.630   4.749   3.394
 2732SOL    HW2 8211   3.584   4.641   3.280
 2733SOL     OW 8212   2.721   4.680   2.723
 2733SOL    HW1 8213   2.775   4.611   2.771
 2733SOL    HW2 8214   2.689   4.749   2.789
 2734SOL     OW 8215   2.945   4.708   1.949
 2734SOL    HW1 8216   2.922   4.761   1.867
 2734SOL    HW2 8217   3.026   4.652   1.930
 2735SOL     OW 8218   1.941   4.964   2.515
 2735SOL    HW1 8219   1.940   4.917   2.603
 2735SOL    HW2 8220   2.023   4.936   2.464
 2736SOL     OW 8221   3.686   3.916   3.089
 2736SOL    HW1 8222   3.682   3.826   3.133
 2736SOL    HW2 8223   3.689   3.905   2.990
 2737SOL     OW 8224   2.290   4.148   2.382
 2737SOL    HW1 8225   2.320   4.076   2.320
 2737SOL    HW2 8226   2.251   4.108   2.465
 2738SOL     OW 8227   2.179   4.271   3.142
 2738SOL    HW1 8228   2.217   4.212   3.214
 2738SOL    HW2 8229   2.219   4.245   3.054
 2739SOL     OW 8230   3.286   3.938   2.974
 2739SOL    HW1 8231   3.338   3.873   3.029
 2739SOL    HW2 8232   3.237   4.001   3.035
 2740SOL     OW 8233   2.863   3.758   3.016
 2740SOL    HW1 8234   2.800   3.686   2.985
 2740SOL    HW2 8235   2.956   3.722   3.016
 2741SOL     OW 8236   3.214   3.776   2.030
 2741SOL    HW1 8237   3.249   3.735   1.946
 2741SOL    HW2 8238   3.124   3.738   2.050
 2742SOL     OW 8239   3.162   4.177   2.553
 2742SOL    HW1 8240   3.103   4.257   2.557
 2742SOL    HW2 8241   3.177   4.142   2.646
 2743SOL     OW 8242   3.455   3.945   2.744
 2743SOL    HW1 8243   3.371   3.944   2.798
 2743SOL    HW2 8244   3.457   4.028   2.688
 2744SOL     OW 8245   2.092   4.352   3.837
 2744SOL    HW1 8246   1.999   4.350   3.874
 2744SOL    HW2 8247   2.093   4.313   3.745
 2745SOL     OW 8248   2.087   3.999   4.720
 2745SOL    HW1 8249   2.122   3.982   4.812
 2745SOL    HW2 8250   1.999   3.954   4.708
 2746SOL     OW 8251   1.881   4.092   4.371
 2746SOL    HW1 8252   1.799   4.135   4.410
 2746SOL    HW2 8253   1.853   4.019   4.308
 2747SOL     OW 8254   2.997   4.427   4.441
 2747SOL    HW1 8255   3.054   4.505   4.416
 2747SOL    HW2 8256   2.937   4.453   4.517
 2748SOL     OW 8257   3.617   4.331   3.955
 2748SOL    HW1 8258   3.605   4.318   3.856
 2748SOL    HW2 8259   3.587   4.250   4.004
 2749SOL     OW 8260   2.547   4.736   4.389
 2749SOL    HW1 8261   2.616   4.720   4.459
 2749SOL    HW2 8262   2.474   4.793   4.427
 2750SOL     OW 8263   3.465   4.171   4.461
 2750SOL    HW1 8264   3.391   4.217   4.411
 2750SOL    HW2 8265   3.516   4.239   4.514
 2751SOL     OW 8266   2.102   4.815   4.610
 2751SOL    HW1 8267   2.116   4.731   4.662
 2751SOL    HW2 8268   2.047   4.879   4.665
 2752SOL     OW 8269   2.468   4.688   3.847
 2752SOL    HW1 8270   2.475   4.772   3.793
 2752SOL    HW2 8271   2.514   4.701   3.935
 2753SOL     OW 8272   1.984   4.367   4.287
 2753SOL    HW1 8273   1.939   4.279   4.304
 2753SOL    HW2 8274   1.983   4.421   4.371
 2754SOL     OW 8275   3.551   4.646   4.336
 2754SOL    HW1 8276   3.646   4.617   4.344
 2754SOL    HW2 8277   3.543   4.711   4.261
 2755SOL     OW 8278   2.671   3.728   4.226
 2755SOL    HW1 8279   2.711   3.819   4.217
 2755SOL    HW2 8280   2.571   3.736   4.232
 2756SOL     OW 8281   3.387   4.723   3.914
 2756SOL    HW1 8282   3.324   4.647   3.927
 2756SOL    HW2 8283   3.435   4.741   4.000
 2757SOL     OW 8284   2.460   4.453   3.994
 2757SOL    HW1 8285   2.484   4.522   3.926
 2757SOL    HW2 8286   2.382   4.486   4.048
 2758SOL     OW 8287   3.143   4.069   4.668
 2758SOL    HW1 8288   3.057   4.019   4.655
 2758SOL    HW2 8289   3.205   4.015   4.724
 2759SOL     OW 8290   2.903   4.425   4.153
 2759SOL    HW1 8291   2.929   4.421   4.249
 2759SOL    HW2 8292   2.818   4.374   4.139
 2760SOL     OW 8293   1.938   4.535   4.513
 2760SOL    HW1 8294   2.037   4.523   4.522
 2760SOL    HW2 8295   1.914   4.630   4.534
 2761SOL     OW 8296   2.727   4.072   3.919
 2761SOL    HW1 8297   2.786   4.135   3.870
 2761SOL    HW2 8298   2.746   3.978   3.890
 2762SOL     OW 8299   2.412   3.920   4.609
 2762SOL    HW1 8300   2.407   3.915   4.709
 2762SOL    HW2 8301   2.414   4.016   4.580
 2763SOL     OW 8302   3.320   4.459   4.452
 2763SOL    HW1 8303   3.315   4.394   4.527
 2763SOL    HW2 8304   3.400   4.518   4.465
 2764SOL     OW 8305   3.262   3.831   4.150
 2764SOL    HW1 8306   3.238   3.794   4.060
 2764SOL    HW2 8307   3.361   3.847   4.154
 2765SOL     OW 8308   2.244   4.424   4.204
 2765SOL    HW1 8309   2.289   4.334   4.201
 2765SOL    HW2 8310   2.150   4.413   4.237
 2766SOL     OW 8311   2.476   3.846   3.841
 2766SOL    HW1 8312   2.574   3.824   3.848
 2766SOL    HW2 8313   2.445   3.829   3.748
 2767SOL     OW 8314   2.784   4.227   4.623
 2767SOL    HW1 8315   2.759   4.218   4.527
 2767SOL    HW2 8316   2.832   4.145   4.654
 2768SOL     OW 8317   2.401   3.788   4.236
 2768SOL    HW1 8318   2.320   3.789   4.294
 2768SOL    HW2 8319   2.404   3.871   4.181
 2769SOL     OW 8320   2.159   3.759   3.895
 2769SOL    HW1 8321   2.208   3.843   3.874
 2769SOL    HW2 8322   2.221   3.694   3.940
 2770SOL     OW 8323   2.797   3.960   4.204
 2770SOL    HW1 8324   2.749   4.001   4.126
 2770SOL    HW2 8325   2.896   3.958   4.185
 2771SOL     OW 8326   2.894   4.273   3.740
 2771SOL    HW1 8327   2.853   4.355   3.701
 2771SOL    HW2 8328   2.958   4.299   3.813
 2772SOL     OW 8329   2.728   4.178   4.366
 2772SOL    HW1 8330   2.696   4.250   4.304
 2772SOL    HW2 8331   2.752   4.097   4.313
 2773SOL     OW 8332   2.879   3.763   4.477
 2773SOL    HW1 8333   2.807   3.768   4.408
 2773SOL    HW2 8334   2.855   3.694   4.546
 2774SOL     OW 8335   3.291   4.897   4.591
 2774SOL    HW1 8336   3.236   4.813   4.584
 2774SOL    HW2 8337   3.317   4.926   4.499
 2775SOL     OW 8338   3.328   4.314   4.716
 2775SOL    HW1 8339   3.298   4.219   4.723
 2775SOL    HW2 8340   3.401   4.330   4.782
 2776SOL     OW 8341   3.719   4.557   4.101
 2776SOL    HW1 8342   3.761   4.493   4.165
 2776SOL    HW2 8343   3.681   4.506   4.023
 2777SOL     OW 8344   3.252   4.299   3.802
 2777SOL    HW1 8345   3.198   4.278   3.883
 2777SOL    HW2 8346   3.343   4.258   3.811
 2778SOL     OW 8347   2.389   3.980   4.052
 2778SOL    HW1 8348   2.416   3.921   3.977
 2778SOL    HW2 8349   2.389   4.075   4.021
 2779SOL     OW 8350   3.500   4.823   4.803
 2779SOL    HW1 8351   3.505   4.904   4.862
 2779SOL    HW2 8352   3.414   4.825   4.752
 2780SOL     OW 8353   2.428   4.261   4.589
 2780SOL    HW1 8354   2.440   4.327   4.515
 2780SOL    HW2 8355   2.474   4.295   4.672
 2781SOL     OW 8356   3.444   4.363   4.196
 2781SOL    HW1 8357   3.413   4.424   4.269
 2781SOL    HW2 8358   3.494   4.415   4.127
 2782SOL     OW 8359   2.435   4.594   4.753
 2782SOL    HW1 8360   2.479   4.683   4.744
 2782SOL    HW2 8361   2.372   4.594   4.830
 2783SOL     OW 8362   3.071   4.249   3.999
 2783SOL    HW1 8363   3.084   4.165   4.053
 2783SOL    HW2 8364   3.042   4.323   4.059
 2784SOL     OW 8365   2.169   3.937   4.955
 2784SOL    HW1 8366   2.146   3.974   5.045
 2784SOL    HW2 8367   2.139   3.842   4.949
 2785SOL     OW 8368   2.594   4.358   4.788
 2785SOL    HW1 8369   2.653   4.332   4.712
 2785SOL    HW2 8370   2.566   4.454   4.777
 2786SOL     OW 8371   2.169   3.787   4.342
 2786SOL    HW1 8372   2.158   3.881   4.375
 2786SOL    HW2 8373   2.164   3.724   4.419
 2787SOL     OW 8374   3.484   4.091   4.098
 2787SOL    HW1 8375   3.486   4.015   4.162
 2787SOL    HW2 8376   3.436   4.168   4.138
 2788SOL     OW 8377   3.402   3.998   3.849
 2788SOL    HW1 8378   3.341   3.923   3.872
 2788SOL    HW2 8379   3.424   4.050   3.932
 2789SOL     OW 8380   3.165   4.562   3.766
 2789SOL    HW1 8381   3.199   4.469   3.781
 2789SOL    HW2 8382   3.183   4.589   3.671
 2790SOL     OW 8383   2.181   4.534   4.673
 2790SOL    HW1 8384   2.274   4.570   4.678
 2790SOL    HW2 8385   2.175   4.449   4.725
 2791SOL     OW 8386   2.201   4.233   4.730
 2791SOL    HW1 8387   2.149   4.150   4.713
 2791SOL    HW2 8388   2.278   4.238   4.666
 2792SOL     OW 8389   2.677   4.296   4.049
 2792SOL    HW1 8390   2.684   4.207   4.003
 2792SOL    HW2 8391   2.583   4.330   4.041
 2793SOL     OW 8392   2.533   4.188   4.993
 2793SOL    HW1 8393   2.499   4.099   4.963
 2793SOL    HW2 8394   2.559   4.242   4.913
 2794SOL     OW 8395   2.335   4.224   3.915
 2794SOL    HW1 8396   2.396   4.304   3.919
 2794SOL    HW2 8397   2.240   4.255   3.922
 2795SOL     OW 8398   3.164   4.579   4.033
 2795SOL    HW1 8399   3.078   4.548   4.075
 2795SOL    HW2 8400   3.160   4.565   3.934
 2796SOL     OW 8401   3.588   3.859   4.247
 2796SOL    HW1 8402   3.661   3.842   4.180
 2796SOL    HW2 8403   3.557   3.772   4.285
 2797SOL     OW 8404   3.142   4.651   4.396
 2797SOL    HW1 8405   3.202   4.570   4.398
 2797SOL    HW2 8406   3.182   4.720   4.336
 2798SOL     OW 8407   3.703   3.899   4.687
 2798SOL    HW1 8408   3.742   3.814   4.651
 2798SOL    HW2 8409   3.605   3.901   4.668
 2799SOL     OW 8410   2.125   4.050   4.444
 2799SOL    HW1 8411   2.046   4.101   4.410
 2799SOL    HW2 8412   2.116   4.035   4.542
 2800SOL     OW 8413   2.778   4.634   4.015
 2800SOL    HW1 8414   2.841   4.672   3.947
 2800SOL    HW2 8415   2.818   4.551   4.054
 2801SOL     OW 8416   1.937   4.069   3.757
 2801SOL    HW1 8417   1.845   4.041   3.728
 2801SOL    HW2 8418   1.968   4.146   3.701
 2802SOL     OW 8419   1.934   3.890   4.042
 2802SOL    HW1 8420   1.917   3.973   3.988
 2802SOL    HW2 8421   2.024   3.853   4.020
 2803SOL     OW 8422   3.045   5.059   3.843
 2803SOL    HW1 8423   2.946   5.048   3.845
 2803SOL    HW2 8424   3.079   5.074   3.936
 2804SOL     OW 8425   3.536   4.607   4.978
 2804SOL    HW1 8426   3.509   4.518   4.941
 2804SOL    HW2 8427   3.537   4.675   4.905
 2805SOL     OW 8428   3.087   4.049   4.173
 2805SOL    HW1 8429   3.152   3.975   4.162
 2805SOL    HW2 8430   3.107   4.099   4.257
 2806SOL     OW 8431   2.456   4.469   4.376
 2806SOL    HW1 8432   2.506   4.554   4.357
 2806SOL    HW2 8433   2.368   4.471   4.328
 2807SOL     OW 8434   2.721   4.680   4.585
 2807SOL    HW1 8435   2.775   4.611   4.633
 2807SOL    HW2 8436   2.689   4.749   4.651
 2808SOL     OW 8437   2.945   4.708   3.811
 2808SOL    HW1 8438   2.922   4.761   3.729
 2808SOL    HW2 8439   3.026   4.652   3.792
 2809SOL     OW 8440   1.941   4.964   4.377
 2809SOL    HW1 8441   1.940   4.917   4.465
 2809SOL    HW2 8442   2.023   4.936   4.326
 2810SOL     OW 8443   3.686   3.916   4.951
 2810SOL    HW1 8444   3.682   3.826   4.995
 2810SOL    HW2 8445   3.689   3.905   4.852
 2811SOL     OW 8446   2.290   4.148   4.244
 2811SOL    HW1 8447   2.320   4.076   4.182
 2811SOL    HW2 8448   2.251   4.108   4.327
 2812SOL     OW 8449   3.214   3.776   3.892
 2812SOL    HW1 8450   3.249   3.735   3.808
 2812SOL    HW2 8451   3.124   3.738   3.912
 2813SOL     OW 8452   3.162   4.177   4.415
 2813SOL    HW1 8453   3.103   4.257   4.419
 2813SOL    HW2 8454   3.177   4.142   4.508
 2814SOL     OW 8455   3.455   3.945   4.606
 2814SOL    HW1 8456   3.371   3.944   4.660
 2814SOL    HW2 8457   3.457   4.028   4.550
 2815SOL     OW 8458   3.954   0.628   0.113
 2815SOL    HW1 8459   3.861   0.626   0.150
 2815SOL    HW2 8460   3.955   0.589   0.021
 2816SOL     OW 8461   3.949   0.275   0.996
 2816SOL    HW1 8462   3.984   0.258   1.088
 2816SOL    HW2 8463   3.861   0.230   0.984
 2817SOL     OW 8464   3.743   0.368   0.647
 2817SOL    HW1 8465   3.661   0.411   0.686
 2817SOL    HW2 8466   3.715   0.295   0.584
 2818SOL     OW 8467   4.293   1.275   1.165
 2818SOL    HW1 8468   4.200   1.268   1.128
 2818SOL    HW2 8469   4.304   1.364   1.209
 2819SOL     OW 8470   4.492   1.144   1.023
 2819SOL    HW1 8471   4.414   1.161   1.083
 2819SOL    HW2 8472   4.526   1.231   0.987
 2820SOL     OW 8473   4.574   0.798   1.823
 2820SOL    HW1 8474   4.570   0.874   1.888
 2820SOL    HW2 8475   4.596   0.834   1.732
 2821SOL     OW 8476   4.409   1.012   0.665
 2821SOL    HW1 8477   4.478   0.996   0.735
 2821SOL    HW2 8478   4.336   1.069   0.703
 2822SOL     OW 8479   4.410   1.161   1.803
 2822SOL    HW1 8480   4.470   1.240   1.817
 2822SOL    HW2 8481   4.324   1.192   1.762
 2823SOL     OW 8482   4.059   1.435   1.061
 2823SOL    HW1 8483   3.981   1.404   1.008
 2823SOL    HW2 8484   4.117   1.493   1.004
 2824SOL     OW 8485   4.162   0.392   1.499
 2824SOL    HW1 8486   4.244   0.336   1.508
 2824SOL    HW2 8487   4.081   0.334   1.503
 2825SOL     OW 8488   3.955   1.713   0.483
 2825SOL    HW1 8489   3.989   1.790   0.537
 2825SOL    HW2 8490   3.999   1.713   0.393
 2826SOL     OW 8491   3.954   1.434   0.538
 2826SOL    HW1 8492   3.928   1.530   0.538
 2826SOL    HW2 8493   3.883   1.380   0.583
 2827SOL     OW 8494   3.964   1.091   0.886
 2827SOL    HW1 8495   3.978   1.007   0.938
 2827SOL    HW2 8496   3.909   1.155   0.941
 2828SOL     OW 8497   4.344   1.786   1.439
 2828SOL    HW1 8498   4.252   1.769   1.474
 2828SOL    HW2 8499   4.372   1.878   1.465
 2829SOL     OW 8500   4.330   0.964   0.123
 2829SOL    HW1 8501   4.337   1.048   0.069
 2829SOL    HW2 8502   4.376   0.977   0.211
 2830SOL     OW 8503   3.846   0.643   0.563
 2830SOL    HW1 8504   3.801   0.555   0.580
 2830SOL    HW2 8505   3.845   0.697   0.647
 2831SOL     OW 8506   3.751   1.596   0.117
 2831SOL    HW1 8507   3.732   1.500   0.138
 2831SOL    HW2 8508   3.718   1.654   0.192
 2832SOL     OW 8509   3.837   0.737   1.597
 2832SOL    HW1 8510   3.925   0.724   1.642
 2832SOL    HW2 8511   3.824   0.834   1.575
 2833SOL     OW 8512   4.337   1.365   0.726
 2833SOL    HW1 8513   4.288   1.278   0.735
 2833SOL    HW2 8514   4.314   1.408   0.639
 2834SOL     OW 8515   4.533   0.004   0.502
 2834SOL    HW1 8516   4.573   0.095   0.493
 2834SOL    HW2 8517   4.433   0.012   0.508
 2835SOL     OW 8518   3.921   0.976   1.264
 2835SOL    HW1 8519   4.010   0.931   1.250
 2835SOL    HW2 8520   3.848   0.911   1.245
 2836SOL     OW 8521   4.041   0.251   1.801
 2836SOL    HW1 8522   4.112   0.322   1.807
 2836SOL    HW2 8523   3.953   0.290   1.829
 2837SOL     OW 8524   4.322   0.729   0.270
 2837SOL    HW1 8525   4.346   0.798   0.202
 2837SOL    HW2 8526   4.244   0.762   0.324
 2838SOL     OW 8527   4.531   0.605   1.465
 2838SOL    HW1 8528   4.484   0.602   1.554
 2838SOL    HW2 8529   4.480   0.550   1.399
 2839SOL     OW 8530   4.697   0.890   1.572
 2839SOL    HW1 8531   4.743   0.806   1.543
 2839SOL    HW2 8532   4.641   0.924   1.497
 2840SOL     OW 8533   4.715   0.410   1.242
 2840SOL    HW1 8534   4.638   0.444   1.296
 2840SOL    HW2 8535   4.681   0.359   1.163
 2841SOL     OW 8536   3.800   0.811   0.789
 2841SOL    HW1 8537   3.899   0.799   0.798
 2841SOL    HW2 8538   3.776   0.906   0.810
 2842SOL     OW 8539   3.854   1.821   1.571
 2842SOL    HW1 8540   3.844   1.806   1.670
 2842SOL    HW2 8541   3.768   1.857   1.535
 2843SOL     OW 8542   4.589   0.348   0.195
 2843SOL    HW1 8543   4.648   0.411   0.146
 2843SOL    HW2 8544   4.608   0.254   0.166
 2844SOL     OW 8545   4.274   0.196   0.885
 2844SOL    HW1 8546   4.269   0.191   0.985
 2844SOL    HW2 8547   4.276   0.292   0.856
 2845SOL     OW 8548   4.732   1.456   0.477
 2845SOL    HW1 8549   4.686   1.528   0.425
 2845SOL    HW2 8550   4.728   1.476   0.575
 2846SOL     OW 8551   4.075   1.801   0.853
 2846SOL    HW1 8552   4.125   1.715   0.859
 2846SOL    HW2 8553   4.140   1.878   0.850
 2847SOL     OW 8554   4.045   0.943   0.242
 2847SOL    HW1 8555   4.127   0.982   0.200
 2847SOL    HW2 8556   4.018   0.861   0.193
 2848SOL     OW 8557   4.185   1.266   1.727
 2848SOL    HW1 8558   4.135   1.267   1.641
 2848SOL    HW2 8559   4.122   1.248   1.803
 2849SOL     OW 8560   3.926   0.285   1.498
 2849SOL    HW1 8561   3.846   0.345   1.485
 2849SOL    HW2 8562   3.916   0.236   1.584
 2850SOL     OW 8563   4.188   1.743   0.323
 2850SOL    HW1 8564   4.221   1.782   0.409
 2850SOL    HW2 8565   4.264   1.736   0.258
 2851SOL     OW 8566   3.973   1.785   1.241
 2851SOL    HW1 8567   4.030   1.720   1.291
 2851SOL    HW2 8568   3.957   1.752   1.148
 2852SOL     OW 8569   4.106   0.700   0.480
 2852SOL    HW1 8570   4.151   0.610   0.477
 2852SOL    HW2 8571   4.012   0.689   0.513
 2853SOL     OW 8572   4.338   0.122   0.117
 2853SOL    HW1 8573   4.436   0.100   0.124
 2853SOL    HW2 8574   4.307   0.105   0.024
 2854SOL     OW 8575   4.505   0.264   1.749
 2854SOL    HW1 8576   4.572   0.203   1.792
 2854SOL    HW2 8577   4.432   0.283   1.814
 2855SOL     OW 8578   4.612   1.514   1.195
 2855SOL    HW1 8579   4.589   1.489   1.101
 2855SOL    HW2 8580   4.673   1.445   1.234
 2856SOL     OW 8581   4.527   1.402   0.924
 2856SOL    HW1 8582   4.617   1.416   0.882
 2856SOL    HW2 8583   4.456   1.404   0.853
 2857SOL     OW 8584   4.646   0.503   0.899
 2857SOL    HW1 8585   4.621   0.494   0.803
 2857SOL    HW2 8586   4.694   0.421   0.930
 2858SOL     OW 8587   4.263   0.064   0.512
 2858SOL    HW1 8588   4.182   0.065   0.570
 2858SOL    HW2 8589   4.266   0.147   0.457
 2859SOL     OW 8590   4.021   0.035   0.171
 2859SOL    HW1 8591   4.070   0.119   0.150
 2859SOL    HW2 8592   4.083  -0.030   0.216
 2860SOL     OW 8593   4.659   0.236   0.480
 2860SOL    HW1 8594   4.611   0.277   0.402
 2860SOL    HW2 8595   4.758   0.234   0.461
 2861SOL     OW 8596   4.951   1.570   0.793
 2861SOL    HW1 8597   4.972   1.644   0.728
 2861SOL    HW2 8598   5.019   1.570   0.866
 2862SOL     OW 8599   4.183   1.152   0.741
 2862SOL    HW1 8600   4.112   1.125   0.806
 2862SOL    HW2 8601   4.157   1.124   0.648
 2863SOL     OW 8602   4.756   0.549   0.016
 2863SOL    HW1 8603   4.715   0.631  -0.023
 2863SOL    HW2 8604   4.820   0.575   0.089
 2864SOL     OW 8605   3.802   0.556   1.386
 2864SOL    HW1 8606   3.894   0.555   1.345
 2864SOL    HW2 8607   3.796   0.630   1.453
 2865SOL     OW 8608   4.285   0.222   1.147
 2865SOL    HW1 8609   4.323   0.138   1.184
 2865SOL    HW2 8610   4.197   0.241   1.191
 2866SOL     OW 8611   4.590   0.454   0.642
 2866SOL    HW1 8612   4.558   0.526   0.580
 2866SOL    HW2 8613   4.614   0.373   0.589
 2867SOL     OW 8614   4.741   0.039   0.753
 2867SOL    HW1 8615   4.669   0.044   0.684
 2867SOL    HW2 8616   4.717  -0.030   0.822
 2868SOL     OW 8617   4.212   1.385   0.174
 2868SOL    HW1 8618   4.125   1.370   0.221
 2868SOL    HW2 8619   4.195   1.411   0.079
 2869SOL     OW 8620   4.251   0.256   0.328
 2869SOL    HW1 8621   4.278   0.197   0.253
 2869SOL    HW2 8622   4.251   0.351   0.297
 2870SOL     OW 8623   4.639   0.089   1.402
 2870SOL    HW1 8624   4.664   0.069   1.307
 2870SOL    HW2 8625   4.711   0.145   1.444
 2871SOL     OW 8626   4.704   1.116   1.719
 2871SOL    HW1 8627   4.605   1.122   1.729
 2871SOL    HW2 8628   4.727   1.036   1.663
 2872SOL     OW 8629   4.429   1.050   0.368
 2872SOL    HW1 8630   4.415   1.057   0.467
 2872SOL    HW2 8631   4.513   0.999   0.350
 2873SOL     OW 8632   4.134   0.813   1.251
 2873SOL    HW1 8633   4.220   0.825   1.301
 2873SOL    HW2 8634   4.092   0.726   1.278
 2874SOL     OW 8635   3.788   1.564   1.331
 2874SOL    HW1 8636   3.742   1.646   1.297
 2874SOL    HW2 8637   3.886   1.583   1.340
 2875SOL     OW 8638   4.091   1.100   0.501
 2875SOL    HW1 8639   4.084   1.183   0.445
 2875SOL    HW2 8640   4.095   1.020   0.441
 2876SOL     OW 8641   4.290   0.537   0.865
 2876SOL    HW1 8642   4.302   0.603   0.791
 2876SOL    HW2 8643   4.336   0.571   0.948
 2877SOL     OW 8644   4.078   1.510   1.329
 2877SOL    HW1 8645   4.057   1.466   1.242
 2877SOL    HW2 8646   4.175   1.536   1.332
 2878SOL     OW 8647   4.126   0.751   1.598
 2878SOL    HW1 8648   4.194   0.806   1.551
 2878SOL    HW2 8649   4.166   0.663   1.625
 2879SOL     OW 8650   4.737   0.105   1.770
 2879SOL    HW1 8651   4.743   0.190   1.718
 2879SOL    HW2 8652   4.769   0.029   1.713
 2880SOL     OW 8653   4.228   0.050   1.740
 2880SOL    HW1 8654   4.186  -0.007   1.670
 2880SOL    HW2 8655   4.162   0.119   1.772
 2881SOL     OW 8656   4.297   0.870   1.029
 2881SOL    HW1 8657   4.341   0.959   1.020
 2881SOL    HW2 8658   4.234   0.870   1.106
 2882SOL     OW 8659   4.933   0.525   0.275
 2882SOL    HW1 8660   4.946   0.441   0.329
 2882SOL    HW2 8661   4.904   0.599   0.335
 2883SOL     OW 8662   4.031   0.213   1.231
 2883SOL    HW1 8663   4.008   0.250   1.321
 2883SOL    HW2 8664   4.001   0.118   1.225
 2884SOL     OW 8665   3.761   1.310   1.282
 2884SOL    HW1 8666   3.814   1.261   1.350
 2884SOL    HW2 8667   3.783   1.408   1.287
 2885SOL     OW 8668   4.456   0.634   1.064
 2885SOL    HW1 8669   4.515   0.608   0.988
 2885SOL    HW2 8670   4.428   0.730   1.053
 2886SOL     OW 8671   4.031   0.063   0.618
 2886SOL    HW1 8672   4.020   0.157   0.651
 2886SOL    HW2 8673   4.026   0.000   0.695
 2887SOL     OW 8674   4.747   0.766   0.966
 2887SOL    HW1 8675   4.762   0.787   1.062
 2887SOL    HW2 8676   4.717   0.671   0.957
 2888SOL     OW 8677   4.704   1.573   1.700
 2888SOL    HW1 8678   4.684   1.617   1.612
 2888SOL    HW2 8679   4.743   1.482   1.684
 2889SOL     OW 8680   4.074   0.898   1.804
 2889SOL    HW1 8681   4.150   0.942   1.852
 2889SOL    HW2 8682   4.109   0.851   1.722
 2890SOL     OW 8683   4.043   0.810   0.949
 2890SOL    HW1 8684   4.136   0.846   0.954
 2890SOL    HW2 8685   4.037   0.725   1.001
 2891SOL     OW 8686   4.063   0.509   1.006
 2891SOL    HW1 8687   4.011   0.426   0.989
 2891SOL    HW2 8688   4.140   0.514   0.942
 2892SOL     OW 8689   3.732   1.326   0.200
 2892SOL    HW1 8690   3.639   1.347   0.169
 2892SOL    HW2 8691   3.742   1.227   0.213
 2893SOL     OW 8692   3.812   1.801   0.927
 2893SOL    HW1 8693   3.770   1.715   0.900
 2893SOL    HW2 8694   3.906   1.804   0.893
 2894SOL     OW 8695   4.228   1.568   0.910
 2894SOL    HW1 8696   4.294   1.642   0.919
 2894SOL    HW2 8697   4.272   1.489   0.868
 2895SOL     OW 8698   4.726   0.796   1.238
 2895SOL    HW1 8699   4.767   0.764   1.324
 2895SOL    HW2 8700   4.630   0.769   1.235
 2896SOL     OW 8701   3.764   0.544   1.114
 2896SOL    HW1 8702   3.849   0.511   1.073
 2896SOL    HW2 8703   3.777   0.559   1.212
 2897SOL     OW 8704   3.913   0.520   1.722
 2897SOL    HW1 8705   3.972   0.480   1.652
 2897SOL    HW2 8706   3.855   0.591   1.681
 2898SOL     OW 8707   4.539   0.572   0.325
 2898SOL    HW1 8708   4.546   0.483   0.279
 2898SOL    HW2 8709   4.445   0.606   0.317
 2899SOL     OW 8710   3.976   1.564   1.744
 2899SOL    HW1 8711   3.946   1.621   1.820
 2899SOL    HW2 8712   3.969   1.467   1.770
 2900SOL     OW 8713   4.395   0.464   1.269
 2900SOL    HW1 8714   4.361   0.375   1.239
 2900SOL    HW2 8715   4.421   0.518   1.189
 2901SOL     OW 8716   4.654   1.678   1.465
 2901SOL    HW1 8717   4.630   1.660   1.370
 2901SOL    HW2 8718   4.684   1.772   1.475
 2902SOL     OW 8719   4.197   0.500   0.191
 2902SOL    HW1 8720   4.258   0.580   0.195
 2902SOL    HW2 8721   4.102   0.531   0.198
 2903SOL     OW 8722   3.883   1.137   1.466
 2903SOL    HW1 8723   3.905   1.076   1.542
 2903SOL    HW2 8724   3.893   1.088   1.380
 2904SOL     OW 8725   3.807   1.258   1.022
 2904SOL    HW1 8726   3.802   1.257   1.122
 2904SOL    HW2 8727   3.724   1.217   0.984
 2905SOL     OW 8728   4.412   1.662   1.716
 2905SOL    HW1 8729   4.356   1.743   1.725
 2905SOL    HW2 8730   4.464   1.666   1.630
 2906SOL     OW 8731   4.627   0.086   0.133
 2906SOL    HW1 8732   4.678   0.087   0.047
 2906SOL    HW2 8733   4.683   0.044   0.204
 2907SOL     OW 8734   3.854   1.794   1.851
 2907SOL    HW1 8735   3.813   1.720   1.904
 2907SOL    HW2 8736   3.918   1.845   1.909
 2908SOL     OW 8737   5.004   0.927   0.672
 2908SOL    HW1 8738   5.064   0.846   0.674
 2908SOL    HW2 8739   5.044   0.996   0.612
 2909SOL     OW 8740   4.554   1.273   1.422
 2909SOL    HW1 8741   4.549   1.306   1.517
 2909SOL    HW2 8742   4.468   1.292   1.376
 2910SOL     OW 8743   4.396   1.616   0.154
 2910SOL    HW1 8744   4.405   1.626   0.055
 2910SOL    HW2 8745   4.356   1.527   0.175
 2911SOL     OW 8746   3.987   0.326   0.720
 2911SOL    HW1 8747   3.908   0.377   0.686
 2911SOL    HW2 8748   3.978   0.311   0.818
 2912SOL     OW 8749   4.546   1.002   1.372
 2912SOL    HW1 8750   4.586   1.001   1.280
 2912SOL    HW2 8751   4.556   1.094   1.412
 2913SOL     OW 8752   4.640   0.910   0.291
 2913SOL    HW1 8753   4.703   0.948   0.223
 2913SOL    HW2 8754   4.680   0.827   0.330
 2914SOL     OW 8755   4.096   1.288   1.490
 2914SOL    HW1 8756   4.083   1.381   1.456
 2914SOL    HW2 8757   4.012   1.236   1.477
 2915SOL     OW 8758   4.738   0.236   0.971
 2915SOL    HW1 8759   4.730   0.200   0.878
 2915SOL    HW2 8760   4.736   0.160   1.036
 2916SOL     OW 8761   4.314   1.487   0.491
 2916SOL    HW1 8762   4.356   1.429   0.421
 2916SOL    HW2 8763   4.270   1.566   0.447
 2917SOL     OW 8764   3.979   1.348   0.290
 2917SOL    HW1 8765   3.883   1.349   0.263
 2917SOL    HW2 8766   3.991   1.401   0.374
 2918SOL     OW 8767   3.829   1.013   1.726
 2918SOL    HW1 8768   3.752   0.980   1.780
 2918SOL    HW2 8769   3.914   0.983   1.768
 2919SOL     OW 8770   4.396   0.203   1.489
 2919SOL    HW1 8771   4.486   0.187   1.449
 2919SOL    HW2 8772   4.404   0.208   1.588
 2920SOL     OW 8773   3.799   0.345   0.033
 2920SOL    HW1 8774   3.707   0.317   0.004
 2920SOL    HW2 8775   3.830   0.422  -0.023
 2921SOL     OW 8776   3.796   0.166   0.318
 2921SOL    HW1 8777   3.779   0.249   0.264
 2921SOL    HW2 8778   3.886   0.129   0.296
 2922SOL     OW 8779   4.337   0.842   1.431
 2922SOL    HW1 8780   4.393   0.923   1.414
 2922SOL    HW2 8781   4.396   0.762   1.434
 2923SOL     OW 8782   4.440   0.565   1.708
 2923SOL    HW1 8783   4.459   0.630   1.782
 2923SOL    HW2 8784   4.500   0.485   1.717
 2924SOL     OW 8785   4.114   1.741   1.560
 2924SOL    HW1 8786   4.023   1.782   1.558
 2924SOL    HW2 8787   4.107   1.647   1.592
 2925SOL     OW 8788   4.949   0.325   0.449
 2925SOL    HW1 8789   5.014   0.251   0.438
 2925SOL    HW2 8790   4.969   0.375   0.533
 2926SOL     OW 8791   4.318   0.745   0.652
 2926SOL    HW1 8792   4.368   0.830   0.633
 2926SOL    HW2 8793   4.230   0.747   0.604
 2927SOL     OW 8794   4.583   1.374   0.016
 2927SOL    HW1 8795   4.537   1.389   0.104
 2927SOL    HW2 8796   4.627   1.459  -0.014
 2928SOL     OW 8797   4.385   1.790   0.953
 2928SOL    HW1 8798   4.339   1.878   0.940
 2928SOL    HW2 8799   4.484   1.802   0.946
 2929SOL     OW 8800   4.583   0.956   0.861
 2929SOL    HW1 8801   4.637   0.887   0.909
 2929SOL    HW2 8802   4.551   1.025   0.927
 2930SOL     OW 8803   4.807   0.984   0.087
 2930SOL    HW1 8804   4.784   1.037   0.005
 2930SOL    HW2 8805   4.888   0.928   0.068
 2931SOL     OW 8806   3.945   1.314   1.844
 2931SOL    HW1 8807   3.880   1.241   1.823
 2931SOL    HW2 8808   3.949   1.328   1.942
 2932SOL     OW 8809   3.803   1.240   0.653
 2932SOL    HW1 8810   3.802   1.193   0.741
 2932SOL    HW2 8811   3.885   1.212   0.602
 2933SOL     OW 8812   4.396   1.391   1.624
 2933SOL    HW1 8813   4.318   1.341   1.662
 2933SOL    HW2 8814   4.393   1.486   1.655
 2934SOL     OW 8815   4.152   0.424   0.520
 2934SOL    HW1 8816   4.182   0.352   0.458
 2934SOL    HW2 8817   4.113   0.384   0.603
 2935SOL     OW 8818   4.041   0.547   1.280
 2935SOL    HW1 8819   4.079   0.488   1.352
 2935SOL    HW2 8820   4.081   0.521   1.192
 2936SOL     OW 8821   4.536   1.586   0.687
 2936SOL    HW1 8822   4.568   1.596   0.593
 2936SOL    HW2 8823   4.457   1.524   0.689
 2937SOL     OW 8824   4.725   0.034   1.154
 2937SOL    HW1 8825   4.662  -0.038   1.123
 2937SOL    HW2 8826   4.818  -0.002   1.154
 2938SOL     OW 8827   4.494   1.330   0.301
 2938SOL    HW1 8828   4.448   1.243   0.318
 2938SOL    HW2 8829   4.585   1.327   0.342
 2939SOL     OW 8830   4.342   1.567   1.284
 2939SOL    HW1 8831   4.337   1.649   1.341
 2939SOL    HW2 8832   4.431   1.564   1.239
 2940SOL     OW 8833   3.763   1.077   0.300
 2940SOL    HW1 8834   3.862   1.066   0.291
 2940SOL    HW2 8835   3.723   0.991   0.332
 2941SOL     OW 8836   4.599   1.646   0.337
 2941SOL    HW1 8837   4.522   1.611   0.283
 2941SOL    HW2 8838   4.567   1.717   0.399
 2942SOL     OW 8839   3.954   0.628   1.975
 2942SOL    HW1 8840   3.861   0.626   2.012
 2942SOL    HW2 8841   3.955   0.589   1.883
 2943SOL     OW 8842   3.949   0.275   2.858
 2943SOL    HW1 8843   3.984   0.258   2.950
 2943SOL    HW2 8844   3.861   0.230   2.846
 2944SOL     OW 8845   3.743   0.368   2.509
 2944SOL    HW1 8846   3.661   0.411   2.548
 2944SOL    HW2 8847   3.715   0.295   2.446
 2945SOL     OW 8848   4.293   1.275   3.027
 2945SOL    HW1 8849   4.200   1.268   2.990
 2945SOL    HW2 8850   4.304   1.364   3.071
 2946SOL     OW 8851   4.492   1.144   2.885
 2946SOL    HW1 8852   4.414   1.161   2.945
 2946SOL    HW2 8853   4.526   1.231   2.849
 2947SOL     OW 8854   4.574   0.798   3.685
 2947SOL    HW1 8855   4.570   0.874   3.750
 2947SOL    HW2 8856   4.596   0.834   3.594
 2948SOL     OW 8857   4.409   1.012   2.527
 2948SOL    HW1 8858   4.478   0.996   2.597
 2948SOL    HW2 8859   4.336   1.069   2.565
 2949SOL     OW 8860   4.410   1.161   3.665
 2949SOL    HW1 8861   4.470   1.240   3.679
 2949SOL    HW2 8862   4.324   1.192   3.624
 2950SOL     OW 8863   4.059   1.435   2.923
 2950SOL    HW1 8864   3.981   1.404   2.870
 2950SOL    HW2 8865   4.117   1.493   2.866
 2951SOL     OW 8866   4.162   0.392   3.361
 2951SOL    HW1 8867   4.244   0.336   3.370
 2951SOL    HW2 8868   4.081   0.334   3.365
 2952SOL     OW 8869   3.955   1.713   2.345
 2952SOL    HW1 8870   3.989   1.790   2.399
 2952SOL    HW2 8871   3.999   1.713   2.255
 2953SOL     OW 8872   3.954   1.434   2.400
 2953SOL    HW1 8873   3.928   1.530   2.400
 2953SOL    HW2 8874   3.883   1.380   2.445
 2954SOL     OW 8875   3.964   1.091   2.748
 2954SOL    HW1 8876   3.978   1.007   2.800
 2954SOL    HW2 8877   3.909   1.155   2.803
 2955SOL     OW 8878   4.344   1.786   3.301
 2955SOL    HW1 8879   4.252   1.769   3.336
 2955SOL    HW2 8880   4.372   1.878   3.327
 2956SOL     OW 8881   4.330   0.964   1.985
 2956SOL    HW1 8882   4.337   1.048   1.931
 2956SOL    HW2 8883   4.376   0.977   2.073
 2957SOL     OW 8884   3.846   0.643   2.425
 2957SOL    HW1 8885   3.801   0.555   2.442
 2957SOL    HW2 8886   3.845   0.697   2.509
 2958SOL     OW 8887   3.751   1.596   1.979
 2958SOL    HW1 8888   3.732   1.500   2.000
 2958SOL    HW2 8889   3.718   1.654   2.054
 2959SOL     OW 8890   3.837   0.737   3.459
 2959SOL    HW1 8891   3.925   0.724   3.504
 2959SOL    HW2 8892   3.824   0.834   3.437
 2960SOL     OW 8893   4.337   1.365   2.588
 2960SOL    HW1 8894   4.288   1.278   2.597
 2960SOL    HW2 8895   4.314   1.408   2.501
 2961SOL     OW 8896   4.533   0.004   2.364
 2961SOL    HW1 8897   4.573   0.095   2.355
 2961SOL    HW2 8898   4.433   0.012   2.370
 2962SOL     OW 8899   3.921   0.976   3.126
 2962SOL    HW1 8900   4.010   0.931   3.112
 2962SOL    HW2 8901   3.848   0.911   3.107
 2963SOL     OW 8902   4.041   0.251   3.663
 2963SOL    HW1 8903   4.112   0.322   3.669
 2963SOL    HW2 8904   3.953   0.290   3.691
 2964SOL     OW 8905   4.322   0.729   2.132
 2964SOL    HW1 8906   4.346   0.798   2.064
 2964SOL    HW2 8907   4.244   0.762   2.186
 2965SOL     OW 8908   4.531   0.605   3.327
 2965SOL    HW1 8909   4.484   0.602   3.416
 2965SOL    HW2 8910   4.480   0.550   3.261
 2966SOL     OW 8911   4.697   0.890   3.434
 2966SOL    HW1 8912   4.743   0.806   3.405
 2966SOL    HW2 8913   4.641   0.924   3.359
 2967SOL     OW 8914   4.715   0.410   3.104
 2967SOL    HW1 8915   4.638   0.444   3.158
 2967SOL    HW2 8916   4.681   0.359   3.025
 2968SOL     OW 8917   3.800   0.811   2.651
 2968SOL    HW1 8918   3.899   0.799   2.660
 2968SOL    HW2 8919   3.776   0.906   2.672
 2969SOL     OW 8920   3.854   1.821   3.433
 2969SOL    HW1 8921   3.844   1.806   3.532
 2969SOL    HW2 8922   3.768   1.857   3.397
 2970SOL     OW 8923   4.589   0.348   2.057
 2970SOL    HW1 8924   4.648   0.411   2.008
 2970SOL    HW2 8925   4.608   0.254   2.028
 2971SOL     OW 8926   4.274   0.196   2.747
 2971SOL    HW1 8927   4.269   0.191   2.847
 2971SOL    HW2 8928   4.276   0.292   2.718
 2972SOL     OW 8929   4.732   1.456   2.339
 2972SOL    HW1 8930   4.686   1.528   2.287
 2972SOL    HW2 8931   4.728   1.476   2.437
 2973SOL     OW 8932   4.075   1.801   2.715
 2973SOL    HW1 8933   4.125   1.715   2.721
 2973SOL    HW2 8934   4.140   1.878   2.712
 2974SOL     OW 8935   4.045   0.943   2.104
 2974SOL    HW1 8936   4.127   0.982   2.062
 2974SOL    HW2 8937   4.018   0.861   2.055
 2975SOL     OW 8938   4.185   1.266   3.589
 2975SOL    HW1 8939   4.135   1.267   3.503
 2975SOL    HW2 8940   4.122   1.248   3.665
 2976SOL     OW 8941   3.926   0.285   3.360
 2976SOL    HW1 8942   3.846   0.345   3.347
 2976SOL    HW2 8943   3.916   0.236   3.446
 2977SOL     OW 8944   4.188   1.743   2.185
 2977SOL    HW1 8945   4.221   1.782   2.271
 2977SOL    HW2 8946   4.264   1.736   2.120
 2978SOL     OW 8947   3.973   1.785   3.103
 2978SOL    HW1 8948   4.030   1.720   3.153
 2978SOL    HW2 8949   3.957   1.752   3.010
 2979SOL     OW 8950   4.106   0.700   2.342
 2979SOL    HW1 8951   4.151   0.610   2.339
 2979SOL    HW2 8952   4.012   0.689   2.375
 2980SOL     OW 8953   4.338   0.122   1.979
 2980SOL    HW1 8954   4.436   0.100   1.986
 2980SOL    HW2 8955   4.307   0.105   1.886
 2981SOL     OW 8956   4.505   0.264   3.611
 2981SOL    HW1 8957   4.572   0.203   3.654
 2981SOL    HW2 8958   4.432   0.283   3.676
 2982SOL     OW 8959   4.612   1.514   3.057
 2982SOL    HW1 8960   4.589   1.489   2.963
 2982SOL    HW2 8961   4.673   1.445   3.096
 2983SOL     OW 8962   4.527   1.402   2.786
 2983SOL    HW1 8963   4.617   1.416   2.744
 2983SOL    HW2 8964   4.456   1.404   2.715
 2984SOL     OW 8965   4.646   0.503   2.761
 2984SOL    HW1 8966   4.621   0.494   2.665
 2984SOL    HW2 8967   4.694   0.421   2.792
 2985SOL     OW 8968   4.263   0.064   2.374
 2985SOL    HW1 8969   4.182   0.065   2.432
 2985SOL    HW2 8970   4.266   0.147   2.319
 2986SOL     OW 8971   4.021   0.035   2.033
 2986SOL    HW1 8972   4.070   0.119   2.012
 2986SOL    HW2 8973   4.083  -0.030   2.078
 2987SOL     OW 8974   4.659   0.236   2.342
 2987SOL    HW1 8975   4.611   0.277   2.264
 2987SOL    HW2 8976   4.758   0.234   2.323
 2988SOL     OW 8977   4.951   1.570   2.655
 2988SOL    HW1 8978   4.972   1.644   2.590
 2988SOL    HW2 8979   5.019   1.570   2.728
 2989SOL     OW 8980   4.183   1.152   2.603
 2989SOL    HW1 8981   4.112   1.125   2.668
 2989SOL    HW2 8982   4.157   1.124   2.510
 2990SOL     OW 8983   4.756   0.549   1.878
 2990SOL    HW1 8984   4.715   0.631   1.839
 2990SOL    HW2 8985   4.820   0.575   1.951
 2991SOL     OW 8986   3.802   0.556   3.248
 2991SOL    HW1 8987   3.894   0.555   3.207
 2991SOL    HW2 8988   3.796   0.630   3.315
 2992SOL     OW 8989   4.285   0.222   3.009
 2992SOL    HW1 8990   4.323   0.138   3.046
 2992SOL    HW2 8991   4.197   0.241   3.053
 2993SOL     OW 8992   4.590   0.454   2.504
 2993SOL    HW1 8993   4.558   0.526   2.442
 2993SOL    HW2 8994   4.614   0.373   2.451
 2994SOL     OW 8995   4.741   0.039   2.615
 2994SOL    HW1 8996   4.669   0.044   2.546
 2994SOL    HW2 8997   4.717  -0.030   2.684
 2995SOL     OW 8998   4.212   1.385   2.036
 2995SOL    HW1 8999   4.125   1.370   2.083
 2995SOL    HW2 9000   4.195   1.411   1.941
 2996SOL     OW 9001   4.251   0.256   2.190
 2996SOL    HW1 9002   4.278   0.197   2.115
 2996SOL    HW2 9003   4.251   0.351   2.159
 2997SOL     OW 9004   4.639   0.089   3.264
 2997SOL    HW1 9005   4.664   0.069   3.169
 2997SOL    HW2 9006   4.711   0.145   3.306
 2998SOL     OW 9007   4.704   1.116   3.581
 2998SOL    HW1 9008   4.605   1.122   3.591
 2998SOL    HW2 9009   4.727   1.036   3.525
 2999SOL     OW 9010   4.429   1.050   2.230
 2999SOL    HW1 9011   4.415   1.057   2.329
 2999SOL    HW2 9012   4.513   0.999   2.212
 3000SOL     OW 9013   4.134   0.813   3.113
 3000SOL    HW1 9014   4.220   0.825   3.163
 3000SOL    HW2 9015   4.092   0.726   3.140
 3001SOL     OW 9016   3.788   1.564   3.193
 3001SOL    HW1 9017   3.742   1.646   3.159
 3001SOL    HW2 9018   3.886   1.583   3.202
 3002SOL     OW 9019   4.091   1.100   2.363
 3002SOL    HW1 9020   4.084   1.183   2.307
 3002SOL    HW2 9021   4.095   1.020   2.303
 3003SOL     OW 9022   4.290   0.537   2.727
 3003SOL    HW1 9023   4.302   0.603   2.653
 3003SOL    HW2 9024   4.336   0.571   2.810
 3004SOL     OW 9025   4.078   1.510   3.191
 3004SOL    HW1 9026   4.057   1.466   3.104
 3004SOL    HW2 9027   4.175   1.536   3.194
 3005SOL     OW 9028   4.126   0.751   3.460
 3005SOL    HW1 9029   4.194   0.806   3.413
 3005SOL    HW2 9030   4.166   0.663   3.487
 3006SOL     OW 9031   4.737   0.105   3.632
 3006SOL    HW1 9032   4.743   0.190   3.580
 3006SOL    HW2 9033   4.769   0.029   3.575
 3007SOL     OW 9034   4.228   0.050   3.602
 3007SOL    HW1 9035   4.186  -0.007   3.532
 3007SOL    HW2 9036   4.162   0.119   3.634
 3008SOL     OW 9037   4.297   0.870   2.891
 3008SOL    HW1 9038   4.341   0.959   2.882
 3008SOL    HW2 9039   4.234   0.870   2.968
 3009SOL     OW 9040   4.933   0.525   2.137
 3009SOL    HW1 9041   4.946   0.441   2.191
 3009SOL    HW2 9042   4.904   0.599   2.197
 3010SOL     OW 9043   4.031   0.213   3.093
 3010SOL    HW1 9044   4.008   0.250   3.183
 3010SOL    HW2 9045   4.001   0.118   3.087
 3011SOL     OW 9046   3.761   1.310   3.144
 3011SOL    HW1 9047   3.814   1.261   3.212
 3011SOL    HW2 9048   3.783   1.408   3.149
 3012SOL     OW 9049   4.456   0.634   2.926
 3012SOL    HW1 9050   4.515   0.608   2.850
 3012SOL    HW2 9051   4.428   0.730   2.915
 3013SOL     OW 9052   4.031   0.063   2.480
 3013SOL    HW1 9053   4.020   0.157   2.513
 3013SOL    HW2 9054   4.026   0.000   2.557
 3014SOL     OW 9055   4.747   0.766   2.828
 3014SOL    HW1 9056   4.762   0.787   2.924
 3014SOL    HW2 9057   4.717   0.671   2.819
 3015SOL     OW 9058   4.704   1.573   3.562
 3015SOL    HW1 9059   4.684   1.617   3.474
 3015SOL    HW2 9060   4.743   1.482   3.546
 3016SOL     OW 9061   4.074   0.898   3.666
 3016SOL    HW1 9062   4.150   0.942   3.714
 3016SOL    HW2 9063   4.109   0.851   3.584
 3017SOL     OW 9064   4.043   0.810   2.811
 3017SOL    HW1 9065   4.136   0.846   2.816
 3017SOL    HW2 9066   4.037   0.725   2.863
 3018SOL     OW 9067   4.063   0.509   2.868
 3018SOL    HW1 9068   4.011   0.426   2.851
 3018SOL    HW2 9069   4.140   0.514   2.804
 3019SOL     OW 9070   3.732   1.326   2.062
 3019SOL    HW1 9071   3.639   1.347   2.031
 3019SOL    HW2 9072   3.742   1.227   2.075
 3020SOL     OW 9073   3.812   1.801   2.789
 3020SOL    HW1 9074   3.770   1.715   2.762
 3020SOL    HW2 9075   3.906   1.804   2.755
 3021SOL     OW 9076   4.228   1.568   2.772
 3021SOL    HW1 9077   4.294   1.642   2.781
 3021SOL    HW2 9078   4.272   1.489   2.730
 3022SOL     OW 9079   4.726   0.796   3.100
 3022SOL    HW1 9080   4.767   0.764   3.186
 3022SOL    HW2 9081   4.630   0.769   3.097
 3023SOL     OW 9082   3.764   0.544   2.976
 3023SOL    HW1 9083   3.849   0.511   2.935
 3023SOL    HW2 9084   3.777   0.559   3.074
 3024SOL     OW 9085   3.913   0.520   3.584
 3024SOL    HW1 9086   3.972   0.480   3.514
 3024SOL    HW2 9087   3.855   0.591   3.543
 3025SOL     OW 9088   4.539   0.572   2.187
 3025SOL    HW1 9089   4.546   0.483   2.141
 3025SOL    HW2 9090   4.445   0.606   2.179
 3026SOL     OW 9091   3.976   1.564   3.606
 3026SOL    HW1 9092   3.946   1.621   3.682
 3026SOL    HW2 9093   3.969   1.467   3.632
 3027SOL     OW 9094   4.395   0.464   3.131
 3027SOL    HW1 9095   4.361   0.375   3.101
 3027SOL    HW2 9096   4.421   0.518   3.051
 3028SOL     OW 9097   4.654   1.678   3.327
 3028SOL    HW1 9098   4.630   1.660   3.232
 3028SOL    HW2 9099   4.684   1.772   3.337
 3029SOL     OW 9100   4.197   0.500   2.053
 3029SOL    HW1 9101   4.258   0.580   2.057
 3029SOL    HW2 9102   4.102   0.531   2.060
 3030SOL     OW 9103   3.883   1.137   3.328
 3030SOL    HW1 9104   3.905   1.076   3.404
 3030SOL    HW2 9105   3.893   1.088   3.242
 3031SOL     OW 9106   3.807   1.258   2.884
 3031SOL    HW1 9107   3.802   1.257   2.984
 3031SOL    HW2 9108   3.724   1.217   2.846
 3032SOL     OW 9109   4.412   1.662   3.578
 3032SOL    HW1 9110   4.356   1.743   3.587
 3032SOL    HW2 9111   4.464   1.666   3.492
 3033SOL     OW 9112   3.854   1.794   3.713
 3033SOL    HW1 9113   3.813   1.720   3.766
 3033SOL    HW2 9114   3.918   1.845   3.771
 3034SOL     OW 9115   5.004   0.927   2.534
 3034SOL    HW1 9116   5.064   0.846   2.536
 3034SOL    HW2 9117   5.044   0.996   2.474
 3035SOL     OW 9118   4.554   1.273   3.284
 3035SOL    HW1 9119   4.549   1.306   3.379
 3035SOL    HW2 9120   4.468   1.292   3.238
 3036SOL     OW 9121   4.396   1.616   2.016
 3036SOL    HW1 9122   4.405   1.626   1.917
 3036SOL    HW2 9123   4.356   1.527   2.037
 3037SOL     OW 9124   3.987   0.326   2.582
 3037SOL    HW1 9125   3.908   0.377   2.548
 3037SOL    HW2 9126   3.978   0.311   2.680
 3038SOL     OW 9127   4.546   1.002   3.234
 3038SOL    HW1 9128   4.586   1.001   3.142
 3038SOL    HW2 9129   4.556   1.094   3.274
 3039SOL     OW 9130   4.640   0.910   2.153
 3039SOL    HW1 9131   4.703   0.948   2.085
 3039SOL    HW2 9132   4.680   0.827   2.192
 3040SOL     OW 9133   4.096   1.288   3.352
 3040SOL    HW1 9134   4.083   1.381   3.318
 3040SOL    HW2 9135   4.012   1.236   3.339
 3041SOL     OW 9136   4.738   0.236   2.833
 3041SOL    HW1 9137   4.730   0.200   2.740
 3041SOL    HW2 9138   4.736   0.160   2.898
 3042SOL     OW 9139   4.314   1.487   2.353
 3042SOL    HW1 9140   4.356   1.429   2.283
 3042SOL    HW2 9141   4.270   1.566   2.309
 3043SOL     OW 9142   3.979   1.348   2.152
 3043SOL    HW1 9143   3.883   1.349   2.125
 3043SOL    HW2 9144   3.991   1.401   2.236
 3044SOL     OW 9145   3.829   1.013   3.588
 3044SOL    HW1 9146   3.752   0.980   3.642
 3044SOL    HW2 9147   3.914   0.983   3.630
 3045SOL     OW 9148   4.396   0.203   3.351
 3045SOL    HW1 9149   4.486   0.187   3.311
 3045SOL    HW2 9150   4.404   0.208   3.450
 3046SOL     OW 9151   3.799   0.345   1.895
 3046SOL    HW1 9152   3.707   0.317   1.866
 3046SOL    HW2 9153   3.830   0.422   1.839
 3047SOL     OW 9154   3.796   0.166   2.180
 3047SOL    HW1 9155   3.779   0.249   2.126
 3047SOL    HW2 9156   3.886   0.129   2.158
 3048SOL     OW 9157   4.337   0.842   3.293
 3048SOL    HW1 9158   4.393   0.923   3.276
 3048SOL    HW2 9159   4.396   0.762   3.296
 3049SOL     OW 9160   4.440   0.565   3.570
 3049SOL    HW1 9161   4.459   0.630   3.644
 3049SOL    HW2 9162   4.500   0.485   3.579
 3050SOL     OW 9163   4.114   1.741   3.422
 3050SOL    HW1 9164   4.023   1.782   3.420
 3050SOL    HW2 9165   4.107   1.647   3.454
 3051SOL     OW 9166   4.949   0.325   2.311
 3051SOL    HW1 9167   5.014   0.251   2.300
 3051SOL    HW2 9168   4.969   0.375   2.395
 3052SOL     OW 9169   4.318   0.745   2.514
 3052SOL    HW1 9170   4.368   0.830   2.495
 3052SOL    HW2 9171   4.230   0.747   2.466
 3053SOL     OW 9172   4.583   1.374   1.878
 3053SOL    HW1 9173   4.537   1.389   1.966
 3053SOL    HW2 9174   4.627   1.459   1.848
 3054SOL     OW 9175   4.385   1.790   2.815
 3054SOL    HW1 9176   4.339   1.878   2.802
 3054SOL    HW2 9177   4.484   1.802   2.808
 3055SOL     OW 9178   4.583   0.956   2.723
 3055SOL    HW1 9179   4.637   0.887   2.771
 3055SOL    HW2 9180   4.551   1.025   2.789
 3056SOL     OW 9181   3.945   1.314   3.706
 3056SOL    HW1 9182   3.880   1.241   3.685
 3056SOL    HW2 9183   3.949   1.328   3.804
 3057SOL     OW 9184   3.803   1.240   2.515
 3057SOL    HW1 9185   3.802   1.193   2.603
 3057SOL    HW2 9186   3.885   1.212   2.464
 3058SOL     OW 9187   4.396   1.391   3.486
 3058SOL    HW1 9188   4.318   1.341   3.524
 3058SOL    HW2 9189   4.393   1.486   3.517
 3059SOL     OW 9190   4.152   0.424   2.382
 3059SOL    HW1 9191   4.182   0.352   2.320
 3059SOL    HW2 9192   4.113   0.384   2.465
 3060SOL     OW 9193   4.041   0.547   3.142
 3060SOL    HW1 9194   4.079   0.488   3.214
 3060SOL    HW2 9195   4.081   0.521   3.054
 3061SOL     OW 9196   4.536   1.586   2.549
 3061SOL    HW1 9197   4.568   1.596   2.455
 3061SOL    HW2 9198   4.457   1.524   2.551
 3062SOL     OW 9199   4.725   0.034   3.016
 3062SOL    HW1 9200   4.662  -0.038   2.985
 3062SOL    HW2 9201   4.818  -0.002   3.016
 3063SOL     OW 9202   4.494   1.330   2.163
 3063SOL    HW1 9203   4.448   1.243   2.180
 3063SOL    HW2 9204   4.585   1.327   2.204
 3064SOL     OW 9205   4.342   1.567   3.146
 3064SOL    HW1 9206   4.337   1.649   3.203
 3064SOL    HW2 9207   4.431   1.564   3.101
 3065SOL     OW 9208   3.763   1.077   2.162
 3065SOL    HW1 9209   3.862   1.066   2.153
 3065SOL    HW2 9210   3.723   0.991   2.194
 3066SOL     OW 9211   4.599   1.646   2.199
 3066SOL    HW1 9212   4.522   1.611   2.145
 3066SOL    HW2 9213   4.567   1.717   2.261
 3067SOL     OW 9214   3.954   0.628   3.837
 3067SOL    HW1 9215   3.861   0.626   3.874
 3067SOL    HW2 9216   3.955   0.589   3.745
 3068SOL     OW 9217   3.949   0.275   4.720
 3068SOL    HW1 9218   3.984   0.258   4.812
 3068SOL    HW2 9219   3.861   0.230   4.708
 3069SOL     OW 9220   3.743   0.368   4.371
 3069SOL    HW1 9221   3.661   0.411   4.410
 3069SOL    HW2 9222   3.715   0.295   4.308
 3070SOL     OW 9223   4.492   1.144   4.747
 3070SOL    HW1 9224   4.414   1.161   4.807
 3070SOL    HW2 9225   4.526   1.231   4.711
 3071SOL     OW 9226   4.409   1.012   4.389
 3071SOL    HW1 9227   4.478   0.996   4.459
 3071SOL    HW2 9228   4.336   1.069   4.427
 3072SOL     OW 9229   4.059   1.435   4.785
 3072SOL    HW1 9230   3.981   1.404   4.732
 3072SOL    HW2 9231   4.117   1.493   4.728
 3073SOL     OW 9232   3.955   1.713   4.207
 3073SOL    HW1 9233   3.989   1.790   4.261
 3073SOL    HW2 9234   3.999   1.713   4.117
 3074SOL     OW 9235   3.954   1.434   4.262
 3074SOL    HW1 9236   3.928   1.530   4.262
 3074SOL    HW2 9237   3.883   1.380   4.307
 3075SOL     OW 9238   3.964   1.091   4.610
 3075SOL    HW1 9239   3.978   1.007   4.662
 3075SOL    HW2 9240   3.909   1.155   4.665
 3076SOL     OW 9241   4.330   0.964   3.847
 3076SOL    HW1 9242   4.337   1.048   3.793
 3076SOL    HW2 9243   4.376   0.977   3.935
 3077SOL     OW 9244   3.846   0.643   4.287
 3077SOL    HW1 9245   3.801   0.555   4.304
 3077SOL    HW2 9246   3.845   0.697   4.371
 3078SOL     OW 9247   3.751   1.596   3.841
 3078SOL    HW1 9248   3.732   1.500   3.862
 3078SOL    HW2 9249   3.718   1.654   3.916
 3079SOL     OW 9250   4.337   1.365   4.450
 3079SOL    HW1 9251   4.288   1.278   4.459
 3079SOL    HW2 9252   4.314   1.408   4.363
 3080SOL     OW 9253   4.533   0.004   4.226
 3080SOL    HW1 9254   4.573   0.095   4.217
 3080SOL    HW2 9255   4.433   0.012   4.232
 3081SOL     OW 9256   4.322   0.729   3.994
 3081SOL    HW1 9257   4.346   0.798   3.926
 3081SOL    HW2 9258   4.244   0.762   4.048
 3082SOL     OW 9259   3.800   0.811   4.513
 3082SOL    HW1 9260   3.899   0.799   4.522
 3082SOL    HW2 9261   3.776   0.906   4.534
 3083SOL     OW 9262   4.589   0.348   3.919
 3083SOL    HW1 9263   4.648   0.411   3.870
 3083SOL    HW2 9264   4.608   0.254   3.890
 3084SOL     OW 9265   4.274   0.196   4.609
 3084SOL    HW1 9266   4.269   0.191   4.709
 3084SOL    HW2 9267   4.276   0.292   4.580
 3085SOL     OW 9268   4.732   1.456   4.201
 3085SOL    HW1 9269   4.686   1.528   4.149
 3085SOL    HW2 9270   4.728   1.476   4.299
 3086SOL     OW 9271   4.075   1.801   4.577
 3086SOL    HW1 9272   4.125   1.715   4.583
 3086SOL    HW2 9273   4.140   1.878   4.574
 3087SOL     OW 9274   4.045   0.943   3.966
 3087SOL    HW1 9275   4.127   0.982   3.924
 3087SOL    HW2 9276   4.018   0.861   3.917
 3088SOL     OW 9277   4.188   1.743   4.047
 3088SOL    HW1 9278   4.221   1.782   4.133
 3088SOL    HW2 9279   4.264   1.736   3.982
 3089SOL     OW 9280   3.973   1.785   4.965
 3089SOL    HW1 9281   4.030   1.720   5.015
 3089SOL    HW2 9282   3.957   1.752   4.872
 3090SOL     OW 9283   4.106   0.700   4.204
 3090SOL    HW1 9284   4.151   0.610   4.201
 3090SOL    HW2 9285   4.012   0.689   4.237
 3091SOL     OW 9286   4.338   0.122   3.841
 3091SOL    HW1 9287   4.436   0.100   3.848
 3091SOL    HW2 9288   4.307   0.105   3.748
 3092SOL     OW 9289   4.527   1.402   4.648
 3092SOL    HW1 9290   4.617   1.416   4.606
 3092SOL    HW2 9291   4.456   1.404   4.577
 3093SOL     OW 9292   4.646   0.503   4.623
 3093SOL    HW1 9293   4.621   0.494   4.527
 3093SOL    HW2 9294   4.694   0.421   4.654
 3094SOL     OW 9295   4.263   0.064   4.236
 3094SOL    HW1 9296   4.182   0.065   4.294
 3094SOL    HW2 9297   4.266   0.147   4.181
 3095SOL     OW 9298   4.021   0.035   3.895
 3095SOL    HW1 9299   4.070   0.119   3.874
 3095SOL    HW2 9300   4.083  -0.030   3.940
 3096SOL     OW 9301   4.659   0.236   4.204
 3096SOL    HW1 9302   4.611   0.277   4.126
 3096SOL    HW2 9303   4.758   0.234   4.185
 3097SOL     OW 9304   4.951   1.570   4.517
 3097SOL    HW1 9305   4.972   1.644   4.452
 3097SOL    HW2 9306   5.019   1.570   4.590
 3098SOL     OW 9307   4.183   1.152   4.465
 3098SOL    HW1 9308   4.112   1.125   4.530
 3098SOL    HW2 9309   4.157   1.124   4.372
 3099SOL     OW 9310   4.756   0.549   3.740
 3099SOL    HW1 9311   4.715   0.631   3.701
 3099SOL    HW2 9312   4.820   0.575   3.813
 3100SOL     OW 9313   4.590   0.454   4.366
 3100SOL    HW1 9314   4.558   0.526   4.304
 3100SOL    HW2 9315   4.614   0.373   4.313
 3101SOL     OW 9316   4.741   0.039   4.477
 3101SOL    HW1 9317   4.669   0.044   4.408
 3101SOL    HW2 9318   4.717  -0.030   4.546
 3102SOL     OW 9319   4.212   1.385   3.898
 3102SOL    HW1 9320   4.125   1.370   3.945
 3102SOL    HW2 9321   4.195   1.411   3.803
 3103SOL     OW 9322   4.251   0.256   4.052
 3103SOL    HW1 9323   4.278   0.197   3.977
 3103SOL    HW2 9324   4.251   0.351   4.021
 3104SOL     OW 9325   4.429   1.050   4.092
 3104SOL    HW1 9326   4.415   1.057   4.191
 3104SOL    HW2 9327   4.513   0.999   4.074
 3105SOL     OW 9328   4.091   1.100   4.225
 3105SOL    HW1 9329   4.084   1.183   4.169
 3105SOL    HW2 9330   4.095   1.020   4.165
 3106SOL     OW 9331   4.290   0.537   4.589
 3106SOL    HW1 9332   4.302   0.603   4.515
 3106SOL    HW2 9333   4.336   0.571   4.672
 3107SOL     OW 9334   4.297   0.870   4.753
 3107SOL    HW1 9335   4.341   0.959   4.744
 3107SOL    HW2 9336   4.234   0.870   4.830
 3108SOL     OW 9337   4.933   0.525   3.999
 3108SOL    HW1 9338   4.946   0.441   4.053
 3108SOL    HW2 9339   4.904   0.599   4.059
 3109SOL     OW 9340   4.456   0.634   4.788
 3109SOL    HW1 9341   4.515   0.608   4.712
 3109SOL    HW2 9342   4.428   0.730   4.777
 3110SOL     OW 9343   4.031   0.063   4.342
 3110SOL    HW1 9344   4.020   0.157   4.375
 3110SOL    HW2 9345   4.026   0.000   4.419
 3111SOL     OW 9346   4.043   0.810   4.673
 3111SOL    HW1 9347   4.136   0.846   4.678
 3111SOL    HW2 9348   4.037   0.725   4.725
 3112SOL     OW 9349   4.063   0.509   4.730
 3112SOL    HW1 9350   4.011   0.426   4.713
 3112SOL    HW2 9351   4.140   0.514   4.666
 3113SOL     OW 9352   3.732   1.326   3.924
 3113SOL    HW1 9353   3.639   1.347   3.893
 3113SOL    HW2 9354   3.742   1.227   3.937
 3114SOL     OW 9355   3.812   1.801   4.651
 3114SOL    HW1 9356   3.770   1.715   4.624
 3114SOL    HW2 9357   3.906   1.804   4.617
 3115SOL     OW 9358   4.228   1.568   4.634
 3115SOL    HW1 9359   4.294   1.642   4.643
 3115SOL    HW2 9360   4.272   1.489   4.592
 3116SOL     OW 9361   4.539   0.572   4.049
 3116SOL    HW1 9362   4.546   0.483   4.003
 3116SOL    HW2 9363   4.445   0.606   4.041
 3117SOL     OW 9364   4.395   0.464   4.993
 3117SOL    HW1 9365   4.361   0.375   4.963
 3117SOL    HW2 9366   4.421   0.518   4.913
 3118SOL     OW 9367   4.197   0.500   3.915
 3118SOL    HW1 9368   4.258   0.580   3.919
 3118SOL    HW2 9369   4.102   0.531   3.922
 3119SOL     OW 9370   3.807   1.258   4.746
 3119SOL    HW1 9371   3.802   1.257   4.846
 3119SOL    HW2 9372   3.724   1.217   4.708
 3120SOL     OW 9373   5.004   0.927   4.396
 3120SOL    HW1 9374   5.064   0.846   4.398
 3120SOL    HW2 9375   5.044   0.996   4.336
 3121SOL     OW 9376   4.396   1.616   3.878
 3121SOL    HW1 9377   4.405   1.626   3.779
 3121SOL    HW2 9378   4.356   1.527   3.899
 3122SOL     OW 9379   3.987   0.326   4.444
 3122SOL    HW1 9380   3.908   0.377   4.410
 3122SOL    HW2 9381   3.978   0.311   4.542
 3123SOL     OW 9382   4.640   0.910   4.015
 3123SOL    HW1 9383   4.703   0.948   3.947
 3123SOL    HW2 9384   4.680   0.827   4.054
 3124SOL     OW 9385   4.314   1.487   4.215
 3124SOL    HW1 9386   4.356   1.429   4.145
 3124SOL    HW2 9387   4.270   1.566   4.171
 3125SOL     OW 9388   3.979   1.348   4.014
 3125SOL    HW1 9389   3.883   1.349   3.987
 3125SOL    HW2 9390   3.991   1.401   4.098
 3126SOL     OW 9391   3.799   0.345   3.757
 3126SOL    HW1 9392   3.707   0.317   3.728
 3126SOL    HW2 9393   3.830   0.422   3.701
 3127SOL     OW 9394   3.796   0.166   4.042
 3127SOL    HW1 9395   3.779   0.249   3.988
 3127SOL    HW2 9396   3.886   0.129   4.020
 3128SOL     OW 9397   4.949   0.325   4.173
 3128SOL    HW1 9398   5.014   0.251   4.162
 3128SOL    HW2 9399   4.969   0.375   4.257
 3129SOL     OW 9400   4.318   0.745   4.376
 3129SOL    HW1 9401   4.368   0.830   4.357
 3129SOL    HW2 9402   4.230   0.747   4.328
 3130SOL     OW 9403   4.583   1.374   3.740
 3130SOL    HW1 9404   4.537   1.389   3.828
 3130SOL    HW2 9405   4.627   1.459   3.710
 3131SOL     OW 9406   4.385   1.790   4.677
 3131SOL    HW1 9407   4.339   1.878   4.664
 3131SOL    HW2 9408   4.484   1.802   4.670
 3132SOL     OW 9409   4.583   0.956   4.585
 3132SOL    HW1 9410   4.637   0.887   4.633
 3132SOL    HW2 9411   4.551   1.025   4.651
 3133SOL     OW 9412   3.803   1.240   4.377
 3133SOL    HW1 9413   3.802   1.193   4.465
 3133SOL    HW2 9414   3.885   1.212   4.326
 3134SOL     OW 9415   4.152   0.424   4.244
 3134SOL    HW1 9416   4.182   0.352   4.182
 3134SOL    HW2 9417   4.113   0.384   4.327
 3135SOL     OW 9418   4.536   1.586   4.411
 3135SOL    HW1 9419   4.568   1.596   4.317
 3135SOL    HW2 9420   4.457   1.524   4.413
 3136SOL     OW 9421   4.494   1.330   4.025
 3136SOL    HW1 9422   4.448   1.243   4.042
 3136SOL    HW2 9423   4.585   1.327   4.066
 3137SOL     OW 9424   3.763   1.077   4.024
 3137SOL    HW1 9425   3.862   1.066   4.015
 3137SOL    HW2 9426   3.723   0.991   4.056
 3138SOL     OW 9427   4.599   1.646   4.061
 3138SOL    HW1 9428   4.522   1.611   4.007
 3138SOL    HW2 9429   4.567   1.717   4.123
 3139SOL     OW 9430   3.954   2.490   0.113
 3139SOL    HW1 9431   3.861   2.488   0.150
 3139SOL    HW2 9432   3.955   2.451   0.021
 3140SOL     OW 9433   3.949   2.137   0.996
 3140SOL    HW1 9434   3.984   2.120   1.088
 3140SOL    HW2 9435   3.861   2.092   0.984
 3141SOL     OW 9436   3.743   2.230   0.647
 3141SOL    HW1 9437   3.661   2.273   0.686
 3141SOL    HW2 9438   3.715   2.157   0.584
 3142SOL     OW 9439   4.293   3.137   1.165
 3142SOL    HW1 9440   4.200   3.130   1.128
 3142SOL    HW2 9441   4.304   3.226   1.209
 3143SOL     OW 9442   4.492   3.006   1.023
 3143SOL    HW1 9443   4.414   3.023   1.083
 3143SOL    HW2 9444   4.526   3.093   0.987
 3144SOL     OW 9445   4.574   2.660   1.823
 3144SOL    HW1 9446   4.570   2.736   1.888
 3144SOL    HW2 9447   4.596   2.696   1.732
 3145SOL     OW 9448   4.409   2.874   0.665
 3145SOL    HW1 9449   4.478   2.858   0.735
 3145SOL    HW2 9450   4.336   2.931   0.703
 3146SOL     OW 9451   4.410   3.023   1.803
 3146SOL    HW1 9452   4.470   3.102   1.817
 3146SOL    HW2 9453   4.324   3.054   1.762
 3147SOL     OW 9454   4.059   3.297   1.061
 3147SOL    HW1 9455   3.981   3.266   1.008
 3147SOL    HW2 9456   4.117   3.355   1.004
 3148SOL     OW 9457   4.162   2.254   1.499
 3148SOL    HW1 9458   4.244   2.198   1.508
 3148SOL    HW2 9459   4.081   2.196   1.503
 3149SOL     OW 9460   3.955   3.575   0.483
 3149SOL    HW1 9461   3.989   3.652   0.537
 3149SOL    HW2 9462   3.999   3.575   0.393
 3150SOL     OW 9463   3.954   3.296   0.538
 3150SOL    HW1 9464   3.928   3.392   0.538
 3150SOL    HW2 9465   3.883   3.242   0.583
 3151SOL     OW 9466   3.964   2.953   0.886
 3151SOL    HW1 9467   3.978   2.869   0.938
 3151SOL    HW2 9468   3.909   3.017   0.941
 3152SOL     OW 9469   4.344   3.648   1.439
 3152SOL    HW1 9470   4.252   3.631   1.474
 3152SOL    HW2 9471   4.372   3.740   1.465
 3153SOL     OW 9472   4.330   2.826   0.123
 3153SOL    HW1 9473   4.337   2.910   0.069
 3153SOL    HW2 9474   4.376   2.839   0.211
 3154SOL     OW 9475   3.846   2.505   0.563
 3154SOL    HW1 9476   3.801   2.417   0.580
 3154SOL    HW2 9477   3.845   2.559   0.647
 3155SOL     OW 9478   3.751   3.458   0.117
 3155SOL    HW1 9479   3.732   3.362   0.138
 3155SOL    HW2 9480   3.718   3.516   0.192
 3156SOL     OW 9481   3.837   2.599   1.597
 3156SOL    HW1 9482   3.925   2.586   1.642
 3156SOL    HW2 9483   3.824   2.696   1.575
 3157SOL     OW 9484   4.337   3.227   0.726
 3157SOL    HW1 9485   4.288   3.140   0.735
 3157SOL    HW2 9486   4.314   3.270   0.639
 3158SOL     OW 9487   4.533   1.866   0.502
 3158SOL    HW1 9488   4.573   1.957   0.493
 3158SOL    HW2 9489   4.433   1.874   0.508
 3159SOL     OW 9490   3.921   2.838   1.264
 3159SOL    HW1 9491   4.010   2.793   1.250
 3159SOL    HW2 9492   3.848   2.773   1.245
 3160SOL     OW 9493   4.041   2.113   1.801
 3160SOL    HW1 9494   4.112   2.184   1.807
 3160SOL    HW2 9495   3.953   2.152   1.829
 3161SOL     OW 9496   4.322   2.591   0.270
 3161SOL    HW1 9497   4.346   2.660   0.202
 3161SOL    HW2 9498   4.244   2.624   0.324
 3162SOL     OW 9499   4.531   2.467   1.465
 3162SOL    HW1 9500   4.484   2.464   1.554
 3162SOL    HW2 9501   4.480   2.412   1.399
 3163SOL     OW 9502   4.697   2.752   1.572
 3163SOL    HW1 9503   4.743   2.668   1.543
 3163SOL    HW2 9504   4.641   2.786   1.497
 3164SOL     OW 9505   4.715   2.272   1.242
 3164SOL    HW1 9506   4.638   2.306   1.296
 3164SOL    HW2 9507   4.681   2.221   1.163
 3165SOL     OW 9508   3.800   2.673   0.789
 3165SOL    HW1 9509   3.899   2.661   0.798
 3165SOL    HW2 9510   3.776   2.768   0.810
 3166SOL     OW 9511   3.854   3.683   1.571
 3166SOL    HW1 9512   3.844   3.668   1.670
 3166SOL    HW2 9513   3.768   3.719   1.535
 3167SOL     OW 9514   4.589   2.210   0.195
 3167SOL    HW1 9515   4.648   2.273   0.146
 3167SOL    HW2 9516   4.608   2.116   0.166
 3168SOL     OW 9517   4.274   2.058   0.885
 3168SOL    HW1 9518   4.269   2.053   0.985
 3168SOL    HW2 9519   4.276   2.154   0.856
 3169SOL     OW 9520   4.732   3.318   0.477
 3169SOL    HW1 9521   4.686   3.390   0.425
 3169SOL    HW2 9522   4.728   3.338   0.575
 3170SOL     OW 9523   4.075   3.663   0.853
 3170SOL    HW1 9524   4.125   3.577   0.859
 3170SOL    HW2 9525   4.140   3.740   0.850
 3171SOL     OW 9526   4.045   2.805   0.242
 3171SOL    HW1 9527   4.127   2.844   0.200
 3171SOL    HW2 9528   4.018   2.723   0.193
 3172SOL     OW 9529   4.185   3.128   1.727
 3172SOL    HW1 9530   4.135   3.129   1.641
 3172SOL    HW2 9531   4.122   3.110   1.803
 3173SOL     OW 9532   3.926   2.147   1.498
 3173SOL    HW1 9533   3.846   2.207   1.485
 3173SOL    HW2 9534   3.916   2.098   1.584
 3174SOL     OW 9535   4.188   3.605   0.323
 3174SOL    HW1 9536   4.221   3.644   0.409
 3174SOL    HW2 9537   4.264   3.598   0.258
 3175SOL     OW 9538   3.973   3.647   1.241
 3175SOL    HW1 9539   4.030   3.582   1.291
 3175SOL    HW2 9540   3.957   3.614   1.148
 3176SOL     OW 9541   4.106   2.562   0.480
 3176SOL    HW1 9542   4.151   2.472   0.477
 3176SOL    HW2 9543   4.012   2.551   0.513
 3177SOL     OW 9544   4.338   1.984   0.117
 3177SOL    HW1 9545   4.436   1.962   0.124
 3177SOL    HW2 9546   4.307   1.967   0.024
 3178SOL     OW 9547   4.505   2.126   1.749
 3178SOL    HW1 9548   4.572   2.065   1.792
 3178SOL    HW2 9549   4.432   2.145   1.814
 3179SOL     OW 9550   4.612   3.376   1.195
 3179SOL    HW1 9551   4.589   3.351   1.101
 3179SOL    HW2 9552   4.673   3.307   1.234
 3180SOL     OW 9553   4.527   3.264   0.924
 3180SOL    HW1 9554   4.617   3.278   0.882
 3180SOL    HW2 9555   4.456   3.266   0.853
 3181SOL     OW 9556   4.646   2.365   0.899
 3181SOL    HW1 9557   4.621   2.356   0.803
 3181SOL    HW2 9558   4.694   2.283   0.930
 3182SOL     OW 9559   4.263   1.926   0.512
 3182SOL    HW1 9560   4.182   1.927   0.570
 3182SOL    HW2 9561   4.266   2.009   0.457
 3183SOL     OW 9562   4.659   2.098   0.480
 3183SOL    HW1 9563   4.611   2.139   0.402
 3183SOL    HW2 9564   4.758   2.096   0.461
 3184SOL     OW 9565   4.951   3.432   0.793
 3184SOL    HW1 9566   4.972   3.506   0.728
 3184SOL    HW2 9567   5.019   3.432   0.866
 3185SOL     OW 9568   4.183   3.014   0.741
 3185SOL    HW1 9569   4.112   2.987   0.806
 3185SOL    HW2 9570   4.157   2.986   0.648
 3186SOL     OW 9571   4.756   2.411   0.016
 3186SOL    HW1 9572   4.715   2.493  -0.023
 3186SOL    HW2 9573   4.820   2.437   0.089
 3187SOL     OW 9574   3.802   2.418   1.386
 3187SOL    HW1 9575   3.894   2.417   1.345
 3187SOL    HW2 9576   3.796   2.492   1.453
 3188SOL     OW 9577   4.285   2.084   1.147
 3188SOL    HW1 9578   4.323   2.000   1.184
 3188SOL    HW2 9579   4.197   2.103   1.191
 3189SOL     OW 9580   4.590   2.316   0.642
 3189SOL    HW1 9581   4.558   2.388   0.580
 3189SOL    HW2 9582   4.614   2.235   0.589
 3190SOL     OW 9583   4.741   1.901   0.753
 3190SOL    HW1 9584   4.669   1.906   0.684
 3190SOL    HW2 9585   4.717   1.832   0.822
 3191SOL     OW 9586   4.212   3.247   0.174
 3191SOL    HW1 9587   4.125   3.232   0.221
 3191SOL    HW2 9588   4.195   3.273   0.079
 3192SOL     OW 9589   4.251   2.118   0.328
 3192SOL    HW1 9590   4.278   2.059   0.253
 3192SOL    HW2 9591   4.251   2.213   0.297
 3193SOL     OW 9592   4.639   1.951   1.402
 3193SOL    HW1 9593   4.664   1.931   1.307
 3193SOL    HW2 9594   4.711   2.007   1.444
 3194SOL     OW 9595   4.704   2.978   1.719
 3194SOL    HW1 9596   4.605   2.984   1.729
 3194SOL    HW2 9597   4.727   2.898   1.663
 3195SOL     OW 9598   4.429   2.912   0.368
 3195SOL    HW1 9599   4.415   2.919   0.467
 3195SOL    HW2 9600   4.513   2.861   0.350
 3196SOL     OW 9601   4.134   2.675   1.251
 3196SOL    HW1 9602   4.220   2.687   1.301
 3196SOL    HW2 9603   4.092   2.588   1.278
 3197SOL     OW 9604   3.788   3.426   1.331
 3197SOL    HW1 9605   3.742   3.508   1.297
 3197SOL    HW2 9606   3.886   3.445   1.340
 3198SOL     OW 9607   4.091   2.962   0.501
 3198SOL    HW1 9608   4.084   3.045   0.445
 3198SOL    HW2 9609   4.095   2.882   0.441
 3199SOL     OW 9610   4.290   2.399   0.865
 3199SOL    HW1 9611   4.302   2.465   0.791
 3199SOL    HW2 9612   4.336   2.433   0.948
 3200SOL     OW 9613   4.078   3.372   1.329
 3200SOL    HW1 9614   4.057   3.328   1.242
 3200SOL    HW2 9615   4.175   3.398   1.332
 3201SOL     OW 9616   4.126   2.613   1.598
 3201SOL    HW1 9617   4.194   2.668   1.551
 3201SOL    HW2 9618   4.166   2.525   1.625
 3202SOL     OW 9619   4.737   1.967   1.770
 3202SOL    HW1 9620   4.743   2.052   1.718
 3202SOL    HW2 9621   4.769   1.891   1.713
 3203SOL     OW 9622   4.228   1.912   1.740
 3203SOL    HW1 9623   4.186   1.855   1.670
 3203SOL    HW2 9624   4.162   1.981   1.772
 3204SOL     OW 9625   4.297   2.732   1.029
 3204SOL    HW1 9626   4.341   2.821   1.020
 3204SOL    HW2 9627   4.234   2.732   1.106
 3205SOL     OW 9628   4.933   2.387   0.275
 3205SOL    HW1 9629   4.946   2.303   0.329
 3205SOL    HW2 9630   4.904   2.461   0.335
 3206SOL     OW 9631   4.031   2.075   1.231
 3206SOL    HW1 9632   4.008   2.112   1.321
 3206SOL    HW2 9633   4.001   1.980   1.225
 3207SOL     OW 9634   3.761   3.172   1.282
 3207SOL    HW1 9635   3.814   3.123   1.350
 3207SOL    HW2 9636   3.783   3.270   1.287
 3208SOL     OW 9637   4.456   2.496   1.064
 3208SOL    HW1 9638   4.515   2.470   0.988
 3208SOL    HW2 9639   4.428   2.592   1.053
 3209SOL     OW 9640   4.031   1.925   0.618
 3209SOL    HW1 9641   4.020   2.019   0.651
 3209SOL    HW2 9642   4.026   1.862   0.695
 3210SOL     OW 9643   4.747   2.628   0.966
 3210SOL    HW1 9644   4.762   2.649   1.062
 3210SOL    HW2 9645   4.717   2.533   0.957
 3211SOL     OW 9646   4.704   3.435   1.700
 3211SOL    HW1 9647   4.684   3.479   1.612
 3211SOL    HW2 9648   4.743   3.344   1.684
 3212SOL     OW 9649   4.074   2.760   1.804
 3212SOL    HW1 9650   4.150   2.804   1.852
 3212SOL    HW2 9651   4.109   2.713   1.722
 3213SOL     OW 9652   4.043   2.672   0.949
 3213SOL    HW1 9653   4.136   2.708   0.954
 3213SOL    HW2 9654   4.037   2.587   1.001
 3214SOL     OW 9655   4.063   2.371   1.006
 3214SOL    HW1 9656   4.011   2.288   0.989
 3214SOL    HW2 9657   4.140   2.376   0.942
 3215SOL     OW 9658   3.732   3.188   0.200
 3215SOL    HW1 9659   3.639   3.209   0.169
 3215SOL    HW2 9660   3.742   3.089   0.213
 3216SOL     OW 9661   3.812   3.663   0.927
 3216SOL    HW1 9662   3.770   3.577   0.900
 3216SOL    HW2 9663   3.906   3.666   0.893
 3217SOL     OW 9664   4.228   3.430   0.910
 3217SOL    HW1 9665   4.294   3.504   0.919
 3217SOL    HW2 9666   4.272   3.351   0.868
 3218SOL     OW 9667   4.726   2.658   1.238
 3218SOL    HW1 9668   4.767   2.626   1.324
 3218SOL    HW2 9669   4.630   2.631   1.235
 3219SOL     OW 9670   3.764   2.406   1.114
 3219SOL    HW1 9671   3.849   2.373   1.073
 3219SOL    HW2 9672   3.777   2.421   1.212
 3220SOL     OW 9673   3.913   2.382   1.722
 3220SOL    HW1 9674   3.972   2.342   1.652
 3220SOL    HW2 9675   3.855   2.453   1.681
 3221SOL     OW 9676   4.539   2.434   0.325
 3221SOL    HW1 9677   4.546   2.345   0.279
 3221SOL    HW2 9678   4.445   2.468   0.317
 3222SOL     OW 9679   3.976   3.426   1.744
 3222SOL    HW1 9680   3.946   3.483   1.820
 3222SOL    HW2 9681   3.969   3.329   1.770
 3223SOL     OW 9682   4.395   2.326   1.269
 3223SOL    HW1 9683   4.361   2.237   1.239
 3223SOL    HW2 9684   4.421   2.380   1.189
 3224SOL     OW 9685   4.654   3.540   1.465
 3224SOL    HW1 9686   4.630   3.522   1.370
 3224SOL    HW2 9687   4.684   3.634   1.475
 3225SOL     OW 9688   4.197   2.362   0.191
 3225SOL    HW1 9689   4.258   2.442   0.195
 3225SOL    HW2 9690   4.102   2.393   0.198
 3226SOL     OW 9691   3.883   2.999   1.466
 3226SOL    HW1 9692   3.905   2.938   1.542
 3226SOL    HW2 9693   3.893   2.950   1.380
 3227SOL     OW 9694   3.807   3.120   1.022
 3227SOL    HW1 9695   3.802   3.119   1.122
 3227SOL    HW2 9696   3.724   3.079   0.984
 3228SOL     OW 9697   4.412   3.524   1.716
 3228SOL    HW1 9698   4.356   3.605   1.725
 3228SOL    HW2 9699   4.464   3.528   1.630
 3229SOL     OW 9700   4.627   1.948   0.133
 3229SOL    HW1 9701   4.678   1.949   0.047
 3229SOL    HW2 9702   4.683   1.906   0.204
 3230SOL     OW 9703   3.854   3.656   1.851
 3230SOL    HW1 9704   3.813   3.582   1.904
 3230SOL    HW2 9705   3.918   3.707   1.909
 3231SOL     OW 9706   5.004   2.789   0.672
 3231SOL    HW1 9707   5.064   2.708   0.674
 3231SOL    HW2 9708   5.044   2.858   0.612
 3232SOL     OW 9709   4.554   3.135   1.422
 3232SOL    HW1 9710   4.549   3.168   1.517
 3232SOL    HW2 9711   4.468   3.154   1.376
 3233SOL     OW 9712   4.396   3.478   0.154
 3233SOL    HW1 9713   4.405   3.488   0.055
 3233SOL    HW2 9714   4.356   3.389   0.175
 3234SOL     OW 9715   3.987   2.188   0.720
 3234SOL    HW1 9716   3.908   2.239   0.686
 3234SOL    HW2 9717   3.978   2.173   0.818
 3235SOL     OW 9718   4.546   2.864   1.372
 3235SOL    HW1 9719   4.586   2.863   1.280
 3235SOL    HW2 9720   4.556   2.956   1.412
 3236SOL     OW 9721   4.640   2.772   0.291
 3236SOL    HW1 9722   4.703   2.810   0.223
 3236SOL    HW2 9723   4.680   2.689   0.330
 3237SOL     OW 9724   4.096   3.150   1.490
 3237SOL    HW1 9725   4.083   3.243   1.456
 3237SOL    HW2 9726   4.012   3.098   1.477
 3238SOL     OW 9727   4.738   2.098   0.971
 3238SOL    HW1 9728   4.730   2.062   0.878
 3238SOL    HW2 9729   4.736   2.022   1.036
 3239SOL     OW 9730   4.314   3.349   0.491
 3239SOL    HW1 9731   4.356   3.291   0.421
 3239SOL    HW2 9732   4.270   3.428   0.447
 3240SOL     OW 9733   3.979   3.210   0.290
 3240SOL    HW1 9734   3.883   3.211   0.263
 3240SOL    HW2 9735   3.991   3.263   0.374
 3241SOL     OW 9736   3.829   2.875   1.726
 3241SOL    HW1 9737   3.752   2.842   1.780
 3241SOL    HW2 9738   3.914   2.845   1.768
 3242SOL     OW 9739   4.396   2.065   1.489
 3242SOL    HW1 9740   4.486   2.049   1.449
 3242SOL    HW2 9741   4.404   2.070   1.588
 3243SOL     OW 9742   3.799   2.207   0.033
 3243SOL    HW1 9743   3.707   2.179   0.004
 3243SOL    HW2 9744   3.830   2.284  -0.023
 3244SOL     OW 9745   3.796   2.028   0.318
 3244SOL    HW1 9746   3.779   2.111   0.264
 3244SOL    HW2 9747   3.886   1.991   0.296
 3245SOL     OW 9748   4.337   2.704   1.431
 3245SOL    HW1 9749   4.393   2.785   1.414
 3245SOL    HW2 9750   4.396   2.624   1.434
 3246SOL     OW 9751   4.440   2.427   1.708
 3246SOL    HW1 9752   4.459   2.492   1.782
 3246SOL    HW2 9753   4.500   2.347   1.717
 3247SOL     OW 9754   4.114   3.603   1.560
 3247SOL    HW1 9755   4.023   3.644   1.558
 3247SOL    HW2 9756   4.107   3.509   1.592
 3248SOL     OW 9757   4.949   2.187   0.449
 3248SOL    HW1 9758   5.014   2.113   0.438
 3248SOL    HW2 9759   4.969   2.237   0.533
 3249SOL     OW 9760   4.318   2.607   0.652
 3249SOL    HW1 9761   4.368   2.692   0.633
 3249SOL    HW2 9762   4.230   2.609   0.604
 3250SOL     OW 9763   4.583   3.236   0.016
 3250SOL    HW1 9764   4.537   3.251   0.104
 3250SOL    HW2 9765   4.627   3.321  -0.014
 3251SOL     OW 9766   4.385   3.652   0.953
 3251SOL    HW1 9767   4.339   3.740   0.940
 3251SOL    HW2 9768   4.484   3.664   0.946
 3252SOL     OW 9769   4.583   2.818   0.861
 3252SOL    HW1 9770   4.637   2.749   0.909
 3252SOL    HW2 9771   4.551   2.887   0.927
 3253SOL     OW 9772   4.807   2.846   0.087
 3253SOL    HW1 9773   4.784   2.899   0.005
 3253SOL    HW2 9774   4.888   2.790   0.068
 3254SOL     OW 9775   3.945   3.176   1.844
 3254SOL    HW1 9776   3.880   3.103   1.823
 3254SOL    HW2 9777   3.949   3.190   1.942
 3255SOL     OW 9778   3.803   3.102   0.653
 3255SOL    HW1 9779   3.802   3.055   0.741
 3255SOL    HW2 9780   3.885   3.074   0.602
 3256SOL     OW 9781   4.396   3.253   1.624
 3256SOL    HW1 9782   4.318   3.203   1.662
 3256SOL    HW2 9783   4.393   3.348   1.655
 3257SOL     OW 9784   4.152   2.286   0.520
 3257SOL    HW1 9785   4.182   2.214   0.458
 3257SOL    HW2 9786   4.113   2.246   0.603
 3258SOL     OW 9787   4.041   2.409   1.280
 3258SOL    HW1 9788   4.079   2.350   1.352
 3258SOL    HW2 9789   4.081   2.383   1.192
 3259SOL     OW 9790   4.536   3.448   0.687
 3259SOL    HW1 9791   4.568   3.458   0.593
 3259SOL    HW2 9792   4.457   3.386   0.689
 3260SOL     OW 9793   4.725   1.896   1.154
 3260SOL    HW1 9794   4.662   1.824   1.123
 3260SOL    HW2 9795   4.818   1.860   1.154
 3261SOL     OW 9796   4.494   3.192   0.301
 3261SOL    HW1 9797   4.448   3.105   0.318
 3261SOL    HW2 9798   4.585   3.189   0.342
 3262SOL     OW 9799   4.342   3.429   1.284
 3262SOL    HW1 9800   4.337   3.511   1.341
 3262SOL    HW2 9801   4.431   3.426   1.239
 3263SOL     OW 9802   3.763   2.939   0.300
 3263SOL    HW1 9803   3.862   2.928   0.291
 3263SOL    HW2 9804   3.723   2.853   0.332
 3264SOL     OW 9805   4.599   3.508   0.337
 3264SOL    HW1 9806   4.522   3.473   0.283
 3264SOL    HW2 9807   4.567   3.579   0.399
 3265SOL     OW 9808   3.954   2.490   1.975
 3265SOL    HW1 9809   3.861   2.488   2.012
 3265SOL    HW2 9810   3.955   2.451   1.883
 3266SOL     OW 9811   3.949   2.137   2.858
 3266SOL    HW1 9812   3.984   2.120   2.950
 3266SOL    HW2 9813   3.861   2.092   2.846
 3267SOL     OW 9814   3.743   2.230   2.509
 3267SOL    HW1 9815   3.661   2.273   2.548
 3267SOL    HW2 9816   3.715   2.157   2.446
 3268SOL     OW 9817   4.293   3.137   3.027
 3268SOL    HW1 9818   4.200   3.130   2.990
 3268SOL    HW2 9819   4.304   3.226   3.071
 3269SOL     OW 9820   4.492   3.006   2.885
 3269SOL    HW1 9821   4.414   3.023   2.945
 3269SOL    HW2 9822   4.526   3.093   2.849
 3270SOL     OW 9823   4.574   2.660   3.685
 3270SOL    HW1 9824   4.570   2.736   3.750
 3270SOL    HW2 9825   4.596   2.696   3.594
 3271SOL     OW 9826   4.409   2.874   2.527
 3271SOL    HW1 9827   4.478   2.858   2.597
 3271SOL    HW2 9828   4.336   2.931   2.565
 3272SOL     OW 9829   4.410   3.023   3.665
 3272SOL    HW1 9830   4.470   3.102   3.679
 3272SOL    HW2 9831   4.324   3.054   3.624
 3273SOL     OW 9832   4.059   3.297   2.923
 3273SOL    HW1 9833   3.981   3.266   2.870
 3273SOL    HW2 9834   4.117   3.355   2.866
 3274SOL     OW 9835   4.162   2.254   3.361
 3274SOL    HW1 9836   4.244   2.198   3.370
 3274SOL    HW2 9837   4.081   2.196   3.365
 3275SOL     OW 9838   3.955   3.575   2.345
 3275SOL    HW1 9839   3.989   3.652   2.399
 3275SOL    HW2 9840   3.999   3.575   2.255
 3276SOL     OW 9841   3.954   3.296   2.400
 3276SOL    HW1 9842   3.928   3.392   2.400
 3276SOL    HW2 9843   3.883   3.242   2.445
 3277SOL     OW 9844   3.964   2.953   2.748
 3277SOL    HW1 9845   3.978   2.869   2.800
 3277SOL    HW2 9846   3.909   3.017   2.803
 3278SOL     OW 9847   4.344   3.648   3.301
 3278SOL    HW1 9848   4.252   3.631   3.336
 3278SOL    HW2 9849   4.372   3.740   3.327
 3279SOL     OW 9850   4.330   2.826   1.985
 3279SOL    HW1 9851   4.337   2.910   1.931
 3279SOL    HW2 9852   4.376   2.839   2.073
 3280SOL     OW 9853   3.846   2.505   2.425
 3280SOL    HW1 9854   3.801   2.417   2.442
 3280SOL    HW2 9855   3.845   2.559   2.509
 3281SOL     OW 9856   3.751   3.458   1.979
 3281SOL    HW1 9857   3.732   3.362   2.000
 3281SOL    HW2 9858   3.718   3.516   2.054
 3282SOL     OW 9859   3.837   2.599   3.459
 3282SOL    HW1 9860   3.925   2.586   3.504
 3282SOL    HW2 9861   3.824   2.696   3.437
 3283SOL     OW 9862   4.337   3.227   2.588
 3283SOL    HW1 9863   4.288   3.140   2.597
 3283SOL    HW2 9864   4.314   3.270   2.501
 3284SOL     OW 9865   4.533   1.866   2.364
 3284SOL    HW1 9866   4.573   1.957   2.355
 3284SOL    HW2 9867   4.433   1.874   2.370
 3285SOL     OW 9868   3.921   2.838   3.126
 3285SOL    HW1 9869   4.010   2.793   3.112
 3285SOL    HW2 9870   3.848   2.773   3.107
 3286SOL     OW 9871   4.041   2.113   3.663
 3286SOL    HW1 9872   4.112   2.184   3.669
 3286SOL    HW2 9873   3.953   2.152   3.691
 3287SOL     OW 9874   4.322   2.591   2.132
 3287SOL    HW1 9875   4.346   2.660   2.064
 3287SOL    HW2 9876   4.244   2.624   2.186
 3288SOL     OW 9877   4.531   2.467   3.327
 3288SOL    HW1 9878   4.484   2.464   3.416
 3288SOL    HW2 9879   4.480   2.412   3.261
 3289SOL     OW 9880   4.697   2.752   3.434
 3289SOL    HW1 9881   4.743   2.668   3.405
 3289SOL    HW2 9882   4.641   2.786   3.359
 3290SOL     OW 9883   4.715   2.272   3.104
 3290SOL    HW1 9884   4.638   2.306   3.158
 3290SOL    HW2 9885   4.681   2.221   3.025
 3291SOL     OW 9886   3.800   2.673   2.651
 3291SOL    HW1 9887   3.899   2.661   2.660
 3291SOL    HW2 9888   3.776   2.768   2.672
 3292SOL     OW 9889   3.854   3.683   3.433
 3292SOL    HW1 9890   3.844   3.668   3.532
 3292SOL    HW2 9891   3.768   3.719   3.397
 3293SOL     OW 9892   4.589   2.210   2.057
 3293SOL    HW1 9893   4.648   2.273   2.008
 3293SOL    HW2 9894   4.608   2.116   2.028
 3294SOL     OW 9895   4.274   2.058   2.747
 3294SOL    HW1 9896   4.269   2.053   2.847
 3294SOL    HW2 9897   4.276   2.154   2.718
 3295SOL     OW 9898   4.732   3.318   2.339
 3295SOL    HW1 9899   4.686   3.390   2.287
 3295SOL    HW2 9900   4.728   3.338   2.437
 3296SOL     OW 9901   4.075   3.663   2.715
 3296SOL    HW1 9902   4.125   3.577   2.721
 3296SOL    HW2 9903   4.140   3.740   2.712
 3297SOL     OW 9904   4.045   2.805   2.104
 3297SOL    HW1 9905   4.127   2.844   2.062
 3297SOL    HW2 9906   4.018   2.723   2.055
 3298SOL     OW 9907   4.185   3.128   3.589
 3298SOL    HW1 9908   4.135   3.129   3.503
 3298SOL    HW2 9909   4.122   3.110   3.665
 3299SOL     OW 9910   3.926   2.147   3.360
 3299SOL    HW1 9911   3.846   2.207   3.347
 3299SOL    HW2 9912   3.916   2.098   3.446
 3300SOL     OW 9913   4.188   3.605   2.185
 3300SOL    HW1 9914   4.221   3.644   2.271
 3300SOL    HW2 9915   4.264   3.598   2.120
 3301SOL     OW 9916   3.973   3.647   3.103
 3301SOL    HW1 9917   4.030   3.582   3.153
 3301SOL    HW2 9918   3.957   3.614   3.010
 3302SOL     OW 9919   4.106   2.562   2.342
 3302SOL    HW1 9920   4.151   2.472   2.339
 3302SOL    HW2 9921   4.012   2.551   2.375
 3303SOL     OW 9922   4.338   1.984   1.979
 3303SOL    HW1 9923   4.436   1.962   1.986
 3303SOL    HW2 9924   4.307   1.967   1.886
 3304SOL     OW 9925   4.505   2.126   3.611
 3304SOL    HW1 9926   4.572   2.065   3.654
 3304SOL    HW2 9927   4.432   2.145   3.676
 3305SOL     OW 9928   4.612   3.376   3.057
 3305SOL    HW1 9929   4.589   3.351   2.963
 3305SOL    HW2 9930   4.673   3.307   3.096
 3306SOL     OW 9931   4.527   3.264   2.786
 3306SOL    HW1 9932   4.617   3.278   2.744
 3306SOL    HW2 9933   4.456   3.266   2.715
 3307SOL     OW 9934   4.646   2.365   2.761
 3307SOL    HW1 9935   4.621   2.356   2.665
 3307SOL    HW2 9936   4.694   2.283   2.792
 3308SOL     OW 9937   4.263   1.926   2.374
 3308SOL    HW1 9938   4.182   1.927   2.432
 3308SOL    HW2 9939   4.266   2.009   2.319
 3309SOL     OW 9940   4.021   1.897   2.033
 3309SOL    HW1 9941   4.070   1.981   2.012
 3309SOL    HW2 9942   4.083   1.832   2.078
 3310SOL     OW 9943   4.659   2.098   2.342
 3310SOL    HW1 9944   4.611   2.139   2.264
 3310SOL    HW2 9945   4.758   2.096   2.323
 3311SOL     OW 9946   4.951   3.432   2.655
 3311SOL    HW1 9947   4.972   3.506   2.590
 3311SOL    HW2 9948   5.019   3.432   2.728
 3312SOL     OW 9949   4.183   3.014   2.603
 3312SOL    HW1 9950   4.112   2.987   2.668
 3312SOL    HW2 9951   4.157   2.986   2.510
 3313SOL     OW 9952   4.756   2.411   1.878
 3313SOL    HW1 9953   4.715   2.493   1.839
 3313SOL    HW2 9954   4.820   2.437   1.951
 3314SOL     OW 9955   3.802   2.418   3.248
 3314SOL    HW1 9956   3.894   2.417   3.207
 3314SOL    HW2 9957   3.796   2.492   3.315
 3315SOL     OW 9958   4.285   2.084   3.009
 3315SOL    HW1 9959   4.323   2.000   3.046
 3315SOL    HW2 9960   4.197   2.103   3.053
 3316SOL     OW 9961   4.590   2.316   2.504
 3316SOL    HW1 9962   4.558   2.388   2.442
 3316SOL    HW2 9963   4.614   2.235   2.451
 3317SOL     OW 9964   4.741   1.901   2.615
 3317SOL    HW1 9965   4.669   1.906   2.546
 3317SOL    HW2 9966   4.717   1.832   2.684
 3318SOL     OW 9967   4.212   3.247   2.036
 3318SOL    HW1 9968   4.125   3.232   2.083
 3318SOL    HW2 9969   4.195   3.273   1.941
 3319SOL     OW 9970   4.251   2.118   2.190
 3319SOL    HW1 9971   4.278   2.059   2.115
 3319SOL    HW2 9972   4.251   2.213   2.159
 3320SOL     OW 9973   4.639   1.951   3.264
 3320SOL    HW1 9974   4.664   1.931   3.169
 3320SOL    HW2 9975   4.711   2.007   3.306
 3321SOL     OW 9976   4.704   2.978   3.581
 3321SOL    HW1 9977   4.605   2.984   3.591
 3321SOL    HW2 9978   4.727   2.898   3.525
 3322SOL     OW 9979   4.429   2.912   2.230
 3322SOL    HW1 9980   4.415   2.919   2.329
 3322SOL    HW2 9981   4.513   2.861   2.212
 3323SOL     OW 9982   4.134   2.675   3.113
 3323SOL    HW1 9983   4.220   2.687   3.163
 3323SOL    HW2 9984   4.092   2.588   3.140
 3324SOL     OW 9985   3.788   3.426   3.193
 3324SOL    HW1 9986   3.742   3.508   3.159
 3324SOL    HW2 9987   3.886   3.445   3.202
 3325SOL     OW 9988   4.091   2.962   2.363
 3325SOL    HW1 9989   4.084   3.045   2.307
 3325SOL    HW2 9990   4.095   2.882   2.303
 3326SOL     OW 9991   4.290   2.399   2.727
 3326SOL    HW1 9992   4.302   2.465   2.653
 3326SOL    HW2 9993   4.336   2.433   2.810
 3327SOL     OW 9994   4.078   3.372   3.191
 3327SOL    HW1 9995   4.057   3.328   3.104
 3327SOL    HW2 9996   4.175   3.398   3.194
 3328SOL     OW 9997   4.126   2.613   3.460
 3328SOL    HW1 9998   4.194   2.668   3.413
 3328SOL    HW2 9999   4.166   2.525   3.487
 3329SOL     OW10000   4.737   1.967   3.632
 3329SOL    HW110001   4.743   2.052   3.580
 3329SOL    HW210002   4.769   1.891   3.575
 3330SOL     OW10003   4.228   1.912   3.602
 3330SOL    HW110004   4.186   1.855   3.532
 3330SOL    HW210005   4.162   1.981   3.634
 3331SOL     OW10006   4.297   2.732   2.891
 3331SOL    HW110007   4.341   2.821   2.882
 3331SOL    HW210008   4.234   2.732   2.968
 3332SOL     OW10009   4.933   2.387   2.137
 3332SOL    HW110010   4.946   2.303   2.191
 3332SOL    HW210011   4.904   2.461   2.197
 3333SOL     OW10012   4.031   2.075   3.093
 3333SOL    HW110013   4.008   2.112   3.183
 3333SOL    HW210014   4.001   1.980   3.087
 3334SOL     OW10015   3.761   3.172   3.144
 3334SOL    HW110016   3.814   3.123   3.212
 3334SOL    HW210017   3.783   3.270   3.149
 3335SOL     OW10018   4.456   2.496   2.926
 3335SOL    HW110019   4.515   2.470   2.850
 3335SOL    HW210020   4.428   2.592   2.915
 3336SOL     OW10021   4.031   1.925   2.480
 3336SOL    HW110022   4.020   2.019   2.513
 3336SOL    HW210023   4.026   1.862   2.557
 3337SOL     OW10024   4.747   2.628   2.828
 3337SOL    HW110025   4.762   2.649   2.924
 3337SOL    HW210026   4.717   2.533   2.819
 3338SOL     OW10027   4.704   3.435   3.562
 3338SOL    HW110028   4.684   3.479   3.474
 3338SOL    HW210029   4.743   3.344   3.546
 3339SOL     OW10030   4.074   2.760   3.666
 3339SOL    HW110031   4.150   2.804   3.714
 3339SOL    HW210032   4.109   2.713   3.584
 3340SOL     OW10033   4.043   2.672   2.811
 3340SOL    HW110034   4.136   2.708   2.816
 3340SOL    HW210035   4.037   2.587   2.863
 3341SOL     OW10036   4.063   2.371   2.868
 3341SOL    HW110037   4.011   2.288   2.851
 3341SOL    HW210038   4.140   2.376   2.804
 3342SOL     OW10039   3.732   3.188   2.062
 3342SOL    HW110040   3.639   3.209   2.031
 3342SOL    HW210041   3.742   3.089   2.075
 3343SOL     OW10042   3.812   3.663   2.789
 3343SOL    HW110043   3.770   3.577   2.762
 3343SOL    HW210044   3.906   3.666   2.755
 3344SOL     OW10045   4.228   3.430   2.772
 3344SOL    HW110046   4.294   3.504   2.781
 3344SOL    HW210047   4.272   3.351   2.730
 3345SOL     OW10048   4.726   2.658   3.100
 3345SOL    HW110049   4.767   2.626   3.186
 3345SOL    HW210050   4.630   2.631   3.097
 3346SOL     OW10051   3.764   2.406   2.976
 3346SOL    HW110052   3.849   2.373   2.935
 3346SOL    HW210053   3.777   2.421   3.074
 3347SOL     OW10054   3.913   2.382   3.584
 3347SOL    HW110055   3.972   2.342   3.514
 3347SOL    HW210056   3.855   2.453   3.543
 3348SOL     OW10057   4.539   2.434   2.187
 3348SOL    HW110058   4.546   2.345   2.141
 3348SOL    HW210059   4.445   2.468   2.179
 3349SOL     OW10060   3.976   3.426   3.606
 3349SOL    HW110061   3.946   3.483   3.682
 3349SOL    HW210062   3.969   3.329   3.632
 3350SOL     OW10063   4.395   2.326   3.131
 3350SOL    HW110064   4.361   2.237   3.101
 3350SOL    HW210065   4.421   2.380   3.051
 3351SOL     OW10066   4.654   3.540   3.327
 3351SOL    HW110067   4.630   3.522   3.232
 3351SOL    HW210068   4.684   3.634   3.337
 3352SOL     OW10069   4.197   2.362   2.053
 3352SOL    HW110070   4.258   2.442   2.057
 3352SOL    HW210071   4.102   2.393   2.060
 3353SOL     OW10072   3.883   2.999   3.328
 3353SOL    HW110073   3.905   2.938   3.404
 3353SOL    HW210074   3.893   2.950   3.242
 3354SOL     OW10075   3.807   3.120   2.884
 3354SOL    HW110076   3.802   3.119   2.984
 3354SOL    HW210077   3.724   3.079   2.846
 3355SOL     OW10078   4.412   3.524   3.578
 3355SOL    HW110079   4.356   3.605   3.587
 3355SOL    HW210080   4.464   3.528   3.492
 3356SOL     OW10081   3.854   3.656   3.713
 3356SOL    HW110082   3.813   3.582   3.766
 3356SOL    HW210083   3.918   3.707   3.771
 3357SOL     OW10084   5.004   2.789   2.534
 3357SOL    HW110085   5.064   2.708   2.536
 3357SOL    HW210086   5.044   2.858   2.474
 3358SOL     OW10087   4.554   3.135   3.284
 3358SOL    HW110088   4.549   3.168   3.379
 3358SOL    HW210089   4.468   3.154   3.238
 3359SOL     OW10090   4.396   3.478   2.016
 3359SOL    HW110091   4.405   3.488   1.917
 3359SOL    HW210092   4.356   3.389   2.037
 3360SOL     OW10093   3.987   2.188   2.582
 3360SOL    HW110094   3.908   2.239   2.548
 3360SOL    HW210095   3.978   2.173   2.680
 3361SOL     OW10096   4.546   2.864   3.234
 3361SOL    HW110097   4.586   2.863   3.142
 3361SOL    HW210098   4.556   2.956   3.274
 3362SOL     OW10099   4.640   2.772   2.153
 3362SOL    HW110100   4.703   2.810   2.085
 3362SOL    HW210101   4.680   2.689   2.192
 3363SOL     OW10102   4.096   3.150   3.352
 3363SOL    HW110103   4.083   3.243   3.318
 3363SOL    HW210104   4.012   3.098   3.339
 3364SOL     OW10105   4.738   2.098   2.833
 3364SOL    HW110106   4.730   2.062   2.740
 3364SOL    HW210107   4.736   2.022   2.898
 3365SOL     OW10108   4.314   3.349   2.353
 3365SOL    HW110109   4.356   3.291   2.283
 3365SOL    HW210110   4.270   3.428   2.309
 3366SOL     OW10111   3.979   3.210   2.152
 3366SOL    HW110112   3.883   3.211   2.125
 3366SOL    HW210113   3.991   3.263   2.236
 3367SOL     OW10114   3.829   2.875   3.588
 3367SOL    HW110115   3.752   2.842   3.642
 3367SOL    HW210116   3.914   2.845   3.630
 3368SOL     OW10117   4.396   2.065   3.351
 3368SOL    HW110118   4.486   2.049   3.311
 3368SOL    HW210119   4.404   2.070   3.450
 3369SOL     OW10120   3.799   2.207   1.895
 3369SOL    HW110121   3.707   2.179   1.866
 3369SOL    HW210122   3.830   2.284   1.839
 3370SOL     OW10123   3.796   2.028   2.180
 3370SOL    HW110124   3.779   2.111   2.126
 3370SOL    HW210125   3.886   1.991   2.158
 3371SOL     OW10126   4.337   2.704   3.293
 3371SOL    HW110127   4.393   2.785   3.276
 3371SOL    HW210128   4.396   2.624   3.296
 3372SOL     OW10129   4.440   2.427   3.570
 3372SOL    HW110130   4.459   2.492   3.644
 3372SOL    HW210131   4.500   2.347   3.579
 3373SOL     OW10132   4.114   3.603   3.422
 3373SOL    HW110133   4.023   3.644   3.420
 3373SOL    HW210134   4.107   3.509   3.454
 3374SOL     OW10135   4.949   2.187   2.311
 3374SOL    HW110136   5.014   2.113   2.300
 3374SOL    HW210137   4.969   2.237   2.395
 3375SOL     OW10138   4.318   2.607   2.514
 3375SOL    HW110139   4.368   2.692   2.495
 3375SOL    HW210140   4.230   2.609   2.466
 3376SOL     OW10141   4.583   3.236   1.878
 3376SOL    HW110142   4.537   3.251   1.966
 3376SOL    HW210143   4.627   3.321   1.848
 3377SOL     OW10144   4.385   3.652   2.815
 3377SOL    HW110145   4.339   3.740   2.802
 3377SOL    HW210146   4.484   3.664   2.808
 3378SOL     OW10147   4.583   2.818   2.723
 3378SOL    HW110148   4.637   2.749   2.771
 3378SOL    HW210149   4.551   2.887   2.789
 3379SOL     OW10150   3.945   3.176   3.706
 3379SOL    HW110151   3.880   3.103   3.685
 3379SOL    HW210152   3.949   3.190   3.804
 3380SOL     OW10153   3.803   3.102   2.515
 3380SOL    HW110154   3.802   3.055   2.603
 3380SOL    HW210155   3.885   3.074   2.464
 3381SOL     OW10156   4.396   3.253   3.486
 3381SOL    HW110157   4.318   3.203   3.524
 3381SOL    HW210158   4.393   3.348   3.517
 3382SOL     OW10159   4.152   2.286   2.382
 3382SOL    HW110160   4.182   2.214   2.320
 3382SOL    HW210161   4.113   2.246   2.465
 3383SOL     OW10162   4.041   2.409   3.142
 3383SOL    HW110163   4.079   2.350   3.214
 3383SOL    HW210164   4.081   2.383   3.054
 3384SOL     OW10165   4.536   3.448   2.549
 3384SOL    HW110166   4.568   3.458   2.455
 3384SOL    HW210167   4.457   3.386   2.551
 3385SOL     OW10168   4.725   1.896   3.016
 3385SOL    HW110169   4.662   1.824   2.985
 3385SOL    HW210170   4.818   1.860   3.016
 3386SOL     OW10171   4.494   3.192   2.163
 3386SOL    HW110172   4.448   3.105   2.180
 3386SOL    HW210173   4.585   3.189   2.204
 3387SOL     OW10174   4.342   3.429   3.146
 3387SOL    HW110175   4.337   3.511   3.203
 3387SOL    HW210176   4.431   3.426   3.101
 3388SOL     OW10177   3.763   2.939   2.162
 3388SOL    HW110178   3.862   2.928   2.153
 3388SOL    HW210179   3.723   2.853   2.194
 3389SOL     OW10180   4.599   3.508   2.199
 3389SOL    HW110181   4.522   3.473   2.145
 3389SOL    HW210182   4.567   3.579   2.261
 3390SOL     OW10183   3.954   2.490   3.837
 3390SOL    HW110184   3.861   2.488   3.874
 3390SOL    HW210185   3.955   2.451   3.745
 3391SOL     OW10186   3.949   2.137   4.720
 3391SOL    HW110187   3.984   2.120   4.812
 3391SOL    HW210188   3.861   2.092   4.708
 3392SOL     OW10189   3.743   2.230   4.371
 3392SOL    HW110190   3.661   2.273   4.410
 3392SOL    HW210191   3.715   2.157   4.308
 3393SOL     OW10192   4.492   3.006   4.747
 3393SOL    HW110193   4.414   3.023   4.807
 3393SOL    HW210194   4.526   3.093   4.711
 3394SOL     OW10195   4.409   2.874   4.389
 3394SOL    HW110196   4.478   2.858   4.459
 3394SOL    HW210197   4.336   2.931   4.427
 3395SOL     OW10198   4.059   3.297   4.785
 3395SOL    HW110199   3.981   3.266   4.732
 3395SOL    HW210200   4.117   3.355   4.728
 3396SOL     OW10201   3.955   3.575   4.207
 3396SOL    HW110202   3.989   3.652   4.261
 3396SOL    HW210203   3.999   3.575   4.117
 3397SOL     OW10204   3.954   3.296   4.262
 3397SOL    HW110205   3.928   3.392   4.262
 3397SOL    HW210206   3.883   3.242   4.307
 3398SOL     OW10207   3.964   2.953   4.610
 3398SOL    HW110208   3.978   2.869   4.662
 3398SOL    HW210209   3.909   3.017   4.665
 3399SOL     OW10210   4.330   2.826   3.847
 3399SOL    HW110211   4.337   2.910   3.793
 3399SOL    HW210212   4.376   2.839   3.935
 3400SOL     OW10213   3.846   2.505   4.287
 3400SOL    HW110214   3.801   2.417   4.304
 3400SOL    HW210215   3.845   2.559   4.371
 3401SOL     OW10216   3.751   3.458   3.841
 3401SOL    HW110217   3.732   3.362   3.862
 3401SOL    HW210218   3.718   3.516   3.916
 3402SOL     OW10219   4.337   3.227   4.450
 3402SOL    HW110220   4.288   3.140   4.459
 3402SOL    HW210221   4.314   3.270   4.363
 3403SOL     OW10222   4.533   1.866   4.226
 3403SOL    HW110223   4.573   1.957   4.217
 3403SOL    HW210224   4.433   1.874   4.232
 3404SOL     OW10225   4.322   2.591   3.994
 3404SOL    HW110226   4.346   2.660   3.926
 3404SOL    HW210227   4.244   2.624   4.048
 3405SOL     OW10228   3.800   2.673   4.513
 3405SOL    HW110229   3.899   2.661   4.522
 3405SOL    HW210230   3.776   2.768   4.534
 3406SOL     OW10231   4.589   2.210   3.919
 3406SOL    HW110232   4.648   2.273   3.870
 3406SOL    HW210233   4.608   2.116   3.890
 3407SOL     OW10234   4.274   2.058   4.609
 3407SOL    HW110235   4.269   2.053   4.709
 3407SOL    HW210236   4.276   2.154   4.580
 3408SOL     OW10237   4.732   3.318   4.201
 3408SOL    HW110238   4.686   3.390   4.149
 3408SOL    HW210239   4.728   3.338   4.299
 3409SOL     OW10240   4.075   3.663   4.577
 3409SOL    HW110241   4.125   3.577   4.583
 3409SOL    HW210242   4.140   3.740   4.574
 3410SOL     OW10243   4.045   2.805   3.966
 3410SOL    HW110244   4.127   2.844   3.924
 3410SOL    HW210245   4.018   2.723   3.917
 3411SOL     OW10246   4.188   3.605   4.047
 3411SOL    HW110247   4.221   3.644   4.133
 3411SOL    HW210248   4.264   3.598   3.982
 3412SOL     OW10249   3.973   3.647   4.965
 3412SOL    HW110250   4.030   3.582   5.015
 3412SOL    HW210251   3.957   3.614   4.872
 3413SOL     OW10252   4.106   2.562   4.204
 3413SOL    HW110253   4.151   2.472   4.201
 3413SOL    HW210254   4.012   2.551   4.237
 3414SOL     OW10255   4.338   1.984   3.841
 3414SOL    HW110256   4.436   1.962   3.848
 3414SOL    HW210257   4.307   1.967   3.748
 3415SOL     OW10258   4.527   3.264   4.648
 3415SOL    HW110259   4.617   3.278   4.606
 3415SOL    HW210260   4.456   3.266   4.577
 3416SOL     OW10261   4.646   2.365   4.623
 3416SOL    HW110262   4.621   2.356   4.527
 3416SOL    HW210263   4.694   2.283   4.654
 3417SOL     OW10264   4.263   1.926   4.236
 3417SOL    HW110265   4.182   1.927   4.294
 3417SOL    HW210266   4.266   2.009   4.181
 3418SOL     OW10267   4.021   1.897   3.895
 3418SOL    HW110268   4.070   1.981   3.874
 3418SOL    HW210269   4.083   1.832   3.940
 3419SOL     OW10270   4.659   2.098   4.204
 3419SOL    HW110271   4.611   2.139   4.126
 3419SOL    HW210272   4.758   2.096   4.185
 3420SOL     OW10273   4.951   3.432   4.517
 3420SOL    HW110274   4.972   3.506   4.452
 3420SOL    HW210275   5.019   3.432   4.590
 3421SOL     OW10276   4.183   3.014   4.465
 3421SOL    HW110277   4.112   2.987   4.530
 3421SOL    HW210278   4.157   2.986   4.372
 3422SOL     OW10279   4.756   2.411   3.740
 3422SOL    HW110280   4.715   2.493   3.701
 3422SOL    HW210281   4.820   2.437   3.813
 3423SOL     OW10282   4.590   2.316   4.366
 3423SOL    HW110283   4.558   2.388   4.304
 3423SOL    HW210284   4.614   2.235   4.313
 3424SOL     OW10285   4.741   1.901   4.477
 3424SOL    HW110286   4.669   1.906   4.408
 3424SOL    HW210287   4.717   1.832   4.546
 3425SOL     OW10288   4.212   3.247   3.898
 3425SOL    HW110289   4.125   3.232   3.945
 3425SOL    HW210290   4.195   3.273   3.803
 3426SOL     OW10291   4.251   2.118   4.052
 3426SOL    HW110292   4.278   2.059   3.977
 3426SOL    HW210293   4.251   2.213   4.021
 3427SOL     OW10294   4.429   2.912   4.092
 3427SOL    HW110295   4.415   2.919   4.191
 3427SOL    HW210296   4.513   2.861   4.074
 3428SOL     OW10297   4.091   2.962   4.225
 3428SOL    HW110298   4.084   3.045   4.169
 3428SOL    HW210299   4.095   2.882   4.165
 3429SOL     OW10300   4.290   2.399   4.589
 3429SOL    HW110301   4.302   2.465   4.515
 3429SOL    HW210302   4.336   2.433   4.672
 3430SOL     OW10303   4.297   2.732   4.753
 3430SOL    HW110304   4.341   2.821   4.744
 3430SOL    HW210305   4.234   2.732   4.830
 3431SOL     OW10306   4.933   2.387   3.999
 3431SOL    HW110307   4.946   2.303   4.053
 3431SOL    HW210308   4.904   2.461   4.059
 3432SOL     OW10309   4.031   2.075   4.955
 3432SOL    HW110310   4.008   2.112   5.045
 3432SOL    HW210311   4.001   1.980   4.949
 3433SOL     OW10312   4.456   2.496   4.788
 3433SOL    HW110313   4.515   2.470   4.712
 3433SOL    HW210314   4.428   2.592   4.777
 3434SOL     OW10315   4.031   1.925   4.342
 3434SOL    HW110316   4.020   2.019   4.375
 3434SOL    HW210317   4.026   1.862   4.419
 3435SOL     OW10318   4.043   2.672   4.673
 3435SOL    HW110319   4.136   2.708   4.678
 3435SOL    HW210320   4.037   2.587   4.725
 3436SOL     OW10321   4.063   2.371   4.730
 3436SOL    HW110322   4.011   2.288   4.713
 3436SOL    HW210323   4.140   2.376   4.666
 3437SOL     OW10324   3.732   3.188   3.924
 3437SOL    HW110325   3.639   3.209   3.893
 3437SOL    HW210326   3.742   3.089   3.937
 3438SOL     OW10327   3.812   3.663   4.651
 3438SOL    HW110328   3.770   3.577   4.624
 3438SOL    HW210329   3.906   3.666   4.617
 3439SOL     OW10330   4.228   3.430   4.634
 3439SOL    HW110331   4.294   3.504   4.643
 3439SOL    HW210332   4.272   3.351   4.592
 3440SOL     OW10333   4.539   2.434   4.049
 3440SOL    HW110334   4.546   2.345   4.003
 3440SOL    HW210335   4.445   2.468   4.041
 3441SOL     OW10336   4.395   2.326   4.993
 3441SOL    HW110337   4.361   2.237   4.963
 3441SOL    HW210338   4.421   2.380   4.913
 3442SOL     OW10339   4.197   2.362   3.915
 3442SOL    HW110340   4.258   2.442   3.919
 3442SOL    HW210341   4.102   2.393   3.922
 3443SOL     OW10342   3.807   3.120   4.746
 3443SOL    HW110343   3.802   3.119   4.846
 3443SOL    HW210344   3.724   3.079   4.708
 3444SOL     OW10345   5.004   2.789   4.396
 3444SOL    HW110346   5.064   2.708   4.398
 3444SOL    HW210347   5.044   2.858   4.336
 3445SOL     OW10348   4.396   3.478   3.878
 3445SOL    HW110349   4.405   3.488   3.779
 3445SOL    HW210350   4.356   3.389   3.899
 3446SOL     OW10351   3.987   2.188   4.444
 3446SOL    HW110352   3.908   2.239   4.410
 3446SOL    HW210353   3.978   2.173   4.542
 3447SOL     OW10354   4.640   2.772   4.015
 3447SOL    HW110355   4.703   2.810   3.947
 3447SOL    HW210356   4.680   2.689   4.054
 3448SOL     OW10357   4.314   3.349   4.215
 3448SOL    HW110358   4.356   3.291   4.145
 3448SOL    HW210359   4.270   3.428   4.171
 3449SOL     OW10360   3.979   3.210   4.014
 3449SOL    HW110361   3.883   3.211   3.987
 3449SOL    HW210362   3.991   3.263   4.098
 3450SOL     OW10363   3.799   2.207   3.757
 3450SOL    HW110364   3.707   2.179   3.728
 3450SOL    HW210365   3.830   2.284   3.701
 3451SOL     OW10366   3.796   2.028   4.042
 3451SOL    HW110367   3.779   2.111   3.988
 3451SOL    HW210368   3.886   1.991   4.020
 3452SOL     OW10369   4.949   2.187   4.173
 3452SOL    HW110370   5.014   2.113   4.162
 3452SOL    HW210371   4.969   2.237   4.257
 3453SOL     OW10372   4.318   2.607   4.376
 3453SOL    HW110373   4.368   2.692   4.357
 3453SOL    HW210374   4.230   2.609   4.328
 3454SOL     OW10375   4.583   3.236   3.740
 3454SOL    HW110376   4.537   3.251   3.828
 3454SOL    HW210377   4.627   3.321   3.710
 3455SOL     OW10378   4.385   3.652   4.677
 3455SOL    HW110379   4.339   3.740   4.664
 3455SOL    HW210380   4.484   3.664   4.670
 3456SOL     OW10381   4.583   2.818   4.585
 3456SOL    HW110382   4.637   2.749   4.633
 3456SOL    HW210383   4.551   2.887   4.651
 3457SOL     OW10384   3.803   3.102   4.377
 3457SOL    HW110385   3.802   3.055   4.465
 3457SOL    HW210386   3.885   3.074   4.326
 3458SOL     OW10387   4.152   2.286   4.244
 3458SOL    HW110388   4.182   2.214   4.182
 3458SOL    HW210389   4.113   2.246   4.327
 3459SOL     OW10390   4.536   3.448   4.411
 3459SOL    HW110391   4.568   3.458   4.317
 3459SOL    HW210392   4.457   3.386   4.413
 3460SOL     OW10393   4.494   3.192   4.025
 3460SOL    HW110394   4.448   3.105   4.042
 3460SOL    HW210395   4.585   3.189   4.066
 3461SOL     OW10396   3.763   2.939   4.024
 3461SOL    HW110397   3.862   2.928   4.015
 3461SOL    HW210398   3.723   2.853   4.056
 3462SOL     OW10399   4.599   3.508   4.061
 3462SOL    HW110400   4.522   3.473   4.007
 3462SOL    HW210401   4.567   3.579   4.123
 3463SOL     OW10402   3.954   4.352   0.113
 3463SOL    HW110403   3.861   4.350   0.150
 3463SOL    HW210404   3.955   4.313   0.021
 3464SOL     OW10405   3.949   3.999   0.996
 3464SOL    HW110406   3.984   3.982   1.088
 3464SOL    HW210407   3.861   3.954   0.984
 3465SOL     OW10408   3.743   4.092   0.647
 3465SOL    HW110409   3.661   4.135   0.686
 3465SOL    HW210410   3.715   4.019   0.584
 3466SOL     OW10411   4.492   4.868   1.023
 3466SOL    HW110412   4.414   4.885   1.083
 3466SOL    HW210413   4.526   4.955   0.987
 3467SOL     OW10414   4.574   4.522   1.823
 3467SOL    HW110415   4.570   4.598   1.888
 3467SOL    HW210416   4.596   4.558   1.732
 3468SOL     OW10417   4.409   4.736   0.665
 3468SOL    HW110418   4.478   4.720   0.735
 3468SOL    HW210419   4.336   4.793   0.703
 3469SOL     OW10420   4.162   4.116   1.499
 3469SOL    HW110421   4.244   4.060   1.508
 3469SOL    HW210422   4.081   4.058   1.503
 3470SOL     OW10423   3.964   4.815   0.886
 3470SOL    HW110424   3.978   4.731   0.938
 3470SOL    HW210425   3.909   4.879   0.941
 3471SOL     OW10426   4.330   4.688   0.123
 3471SOL    HW110427   4.337   4.772   0.069
 3471SOL    HW210428   4.376   4.701   0.211
 3472SOL     OW10429   3.846   4.367   0.563
 3472SOL    HW110430   3.801   4.279   0.580
 3472SOL    HW210431   3.845   4.421   0.647
 3473SOL     OW10432   3.837   4.461   1.597
 3473SOL    HW110433   3.925   4.448   1.642
 3473SOL    HW210434   3.824   4.558   1.575
 3474SOL     OW10435   4.533   3.728   0.502
 3474SOL    HW110436   4.573   3.819   0.493
 3474SOL    HW210437   4.433   3.736   0.508
 3475SOL     OW10438   3.921   4.700   1.264
 3475SOL    HW110439   4.010   4.655   1.250
 3475SOL    HW210440   3.848   4.635   1.245
 3476SOL     OW10441   4.041   3.975   1.801
 3476SOL    HW110442   4.112   4.046   1.807
 3476SOL    HW210443   3.953   4.014   1.829
 3477SOL     OW10444   4.322   4.453   0.270
 3477SOL    HW110445   4.346   4.522   0.202
 3477SOL    HW210446   4.244   4.486   0.324
 3478SOL     OW10447   4.531   4.329   1.465
 3478SOL    HW110448   4.484   4.326   1.554
 3478SOL    HW210449   4.480   4.274   1.399
 3479SOL     OW10450   4.697   4.614   1.572
 3479SOL    HW110451   4.743   4.530   1.543
 3479SOL    HW210452   4.641   4.648   1.497
 3480SOL     OW10453   4.715   4.134   1.242
 3480SOL    HW110454   4.638   4.168   1.296
 3480SOL    HW210455   4.681   4.083   1.163
 3481SOL     OW10456   3.800   4.535   0.789
 3481SOL    HW110457   3.899   4.523   0.798
 3481SOL    HW210458   3.776   4.630   0.810
 3482SOL     OW10459   4.589   4.072   0.195
 3482SOL    HW110460   4.648   4.135   0.146
 3482SOL    HW210461   4.608   3.978   0.166
 3483SOL     OW10462   4.274   3.920   0.885
 3483SOL    HW110463   4.269   3.915   0.985
 3483SOL    HW210464   4.276   4.016   0.856
 3484SOL     OW10465   3.926   4.009   1.498
 3484SOL    HW110466   3.846   4.069   1.485
 3484SOL    HW210467   3.916   3.960   1.584
 3485SOL     OW10468   4.106   4.424   0.480
 3485SOL    HW110469   4.151   4.334   0.477
 3485SOL    HW210470   4.012   4.413   0.513
 3486SOL     OW10471   4.338   3.846   0.117
 3486SOL    HW110472   4.436   3.824   0.124
 3486SOL    HW210473   4.307   3.829   0.024
 3487SOL     OW10474   4.505   3.988   1.749
 3487SOL    HW110475   4.572   3.927   1.792
 3487SOL    HW210476   4.432   4.007   1.814
 3488SOL     OW10477   4.646   4.227   0.899
 3488SOL    HW110478   4.621   4.218   0.803
 3488SOL    HW210479   4.694   4.145   0.930
 3489SOL     OW10480   4.263   3.788   0.512
 3489SOL    HW110481   4.182   3.789   0.570
 3489SOL    HW210482   4.266   3.871   0.457
 3490SOL     OW10483   4.659   3.960   0.480
 3490SOL    HW110484   4.611   4.001   0.402
 3490SOL    HW210485   4.758   3.958   0.461
 3491SOL     OW10486   4.756   4.273   0.016
 3491SOL    HW110487   4.715   4.355  -0.023
 3491SOL    HW210488   4.820   4.299   0.089
 3492SOL     OW10489   3.802   4.280   1.386
 3492SOL    HW110490   3.894   4.279   1.345
 3492SOL    HW210491   3.796   4.354   1.453
 3493SOL     OW10492   4.285   3.946   1.147
 3493SOL    HW110493   4.323   3.862   1.184
 3493SOL    HW210494   4.197   3.965   1.191
 3494SOL     OW10495   4.590   4.178   0.642
 3494SOL    HW110496   4.558   4.250   0.580
 3494SOL    HW210497   4.614   4.097   0.589
 3495SOL     OW10498   4.741   3.763   0.753
 3495SOL    HW110499   4.669   3.768   0.684
 3495SOL    HW210500   4.717   3.694   0.822
 3496SOL     OW10501   4.251   3.980   0.328
 3496SOL    HW110502   4.278   3.921   0.253
 3496SOL    HW210503   4.251   4.075   0.297
 3497SOL     OW10504   4.639   3.813   1.402
 3497SOL    HW110505   4.664   3.793   1.307
 3497SOL    HW210506   4.711   3.869   1.444
 3498SOL     OW10507   4.134   4.537   1.251
 3498SOL    HW110508   4.220   4.549   1.301
 3498SOL    HW210509   4.092   4.450   1.278
 3499SOL     OW10510   4.290   4.261   0.865
 3499SOL    HW110511   4.302   4.327   0.791
 3499SOL    HW210512   4.336   4.295   0.948
 3500SOL     OW10513   4.126   4.475   1.598
 3500SOL    HW110514   4.194   4.530   1.551
 3500SOL    HW210515   4.166   4.387   1.625
 3501SOL     OW10516   4.737   3.829   1.770
 3501SOL    HW110517   4.743   3.914   1.718
 3501SOL    HW210518   4.769   3.753   1.713
 3502SOL     OW10519   4.228   3.774   1.740
 3502SOL    HW110520   4.186   3.717   1.670
 3502SOL    HW210521   4.162   3.843   1.772
 3503SOL     OW10522   4.297   4.594   1.029
 3503SOL    HW110523   4.341   4.683   1.020
 3503SOL    HW210524   4.234   4.594   1.106
 3504SOL     OW10525   4.933   4.249   0.275
 3504SOL    HW110526   4.946   4.165   0.329
 3504SOL    HW210527   4.904   4.323   0.335
 3505SOL     OW10528   4.031   3.937   1.231
 3505SOL    HW110529   4.008   3.974   1.321
 3505SOL    HW210530   4.001   3.842   1.225
 3506SOL     OW10531   4.456   4.358   1.064
 3506SOL    HW110532   4.515   4.332   0.988
 3506SOL    HW210533   4.428   4.454   1.053
 3507SOL     OW10534   4.031   3.787   0.618
 3507SOL    HW110535   4.020   3.881   0.651
 3507SOL    HW210536   4.026   3.724   0.695
 3508SOL     OW10537   4.747   4.490   0.966
 3508SOL    HW110538   4.762   4.511   1.062
 3508SOL    HW210539   4.717   4.395   0.957
 3509SOL     OW10540   4.074   4.622   1.804
 3509SOL    HW110541   4.150   4.666   1.852
 3509SOL    HW210542   4.109   4.575   1.722
 3510SOL     OW10543   4.043   4.534   0.949
 3510SOL    HW110544   4.136   4.570   0.954
 3510SOL    HW210545   4.037   4.449   1.001
 3511SOL     OW10546   4.063   4.233   1.006
 3511SOL    HW110547   4.011   4.150   0.989
 3511SOL    HW210548   4.140   4.238   0.942
 3512SOL     OW10549   4.726   4.520   1.238
 3512SOL    HW110550   4.767   4.488   1.324
 3512SOL    HW210551   4.630   4.493   1.235
 3513SOL     OW10552   3.764   4.268   1.114
 3513SOL    HW110553   3.849   4.235   1.073
 3513SOL    HW210554   3.777   4.283   1.212
 3514SOL     OW10555   3.913   4.244   1.722
 3514SOL    HW110556   3.972   4.204   1.652
 3514SOL    HW210557   3.855   4.315   1.681
 3515SOL     OW10558   4.539   4.296   0.325
 3515SOL    HW110559   4.546   4.207   0.279
 3515SOL    HW210560   4.445   4.330   0.317
 3516SOL     OW10561   4.395   4.188   1.269
 3516SOL    HW110562   4.361   4.099   1.239
 3516SOL    HW210563   4.421   4.242   1.189
 3517SOL     OW10564   4.197   4.224   0.191
 3517SOL    HW110565   4.258   4.304   0.195
 3517SOL    HW210566   4.102   4.255   0.198
 3518SOL     OW10567   3.883   4.861   1.466
 3518SOL    HW110568   3.905   4.800   1.542
 3518SOL    HW210569   3.893   4.812   1.380
 3519SOL     OW10570   5.026   4.579   0.309
 3519SOL    HW110571   4.940   4.548   0.351
 3519SOL    HW210572   5.022   4.565   0.210
 3520SOL     OW10573   4.627   3.810   0.133
 3520SOL    HW110574   4.678   3.811   0.047
 3520SOL    HW210575   4.683   3.768   0.204
 3521SOL     OW10576   3.987   4.050   0.720
 3521SOL    HW110577   3.908   4.101   0.686
 3521SOL    HW210578   3.978   4.035   0.818
 3522SOL     OW10579   4.640   4.634   0.291
 3522SOL    HW110580   4.703   4.672   0.223
 3522SOL    HW210581   4.680   4.551   0.330
 3523SOL     OW10582   4.738   3.960   0.971
 3523SOL    HW110583   4.730   3.924   0.878
 3523SOL    HW210584   4.736   3.884   1.036
 3524SOL     OW10585   3.829   4.737   1.726
 3524SOL    HW110586   3.752   4.704   1.780
 3524SOL    HW210587   3.914   4.707   1.768
 3525SOL     OW10588   4.396   3.927   1.489
 3525SOL    HW110589   4.486   3.911   1.449
 3525SOL    HW210590   4.404   3.932   1.588
 3526SOL     OW10591   3.799   4.069   0.033
 3526SOL    HW110592   3.707   4.041   0.004
 3526SOL    HW210593   3.830   4.146  -0.023
 3527SOL     OW10594   3.796   3.890   0.318
 3527SOL    HW110595   3.779   3.973   0.264
 3527SOL    HW210596   3.886   3.853   0.296
 3528SOL     OW10597   4.337   4.566   1.431
 3528SOL    HW110598   4.393   4.647   1.414
 3528SOL    HW210599   4.396   4.486   1.434
 3529SOL     OW10600   4.440   4.289   1.708
 3529SOL    HW110601   4.459   4.354   1.782
 3529SOL    HW210602   4.500   4.209   1.717
 3530SOL     OW10603   4.949   4.049   0.449
 3530SOL    HW110604   5.014   3.975   0.438
 3530SOL    HW210605   4.969   4.099   0.533
 3531SOL     OW10606   4.318   4.469   0.652
 3531SOL    HW110607   4.368   4.554   0.633
 3531SOL    HW210608   4.230   4.471   0.604
 3532SOL     OW10609   4.583   4.680   0.861
 3532SOL    HW110610   4.637   4.611   0.909
 3532SOL    HW210611   4.551   4.749   0.927
 3533SOL     OW10612   4.807   4.708   0.087
 3533SOL    HW110613   4.784   4.761   0.005
 3533SOL    HW210614   4.888   4.652   0.068
 3534SOL     OW10615   3.803   4.964   0.653
 3534SOL    HW110616   3.802   4.917   0.741
 3534SOL    HW210617   3.885   4.936   0.602
 3535SOL     OW10618   4.152   4.148   0.520
 3535SOL    HW110619   4.182   4.076   0.458
 3535SOL    HW210620   4.113   4.108   0.603
 3536SOL     OW10621   4.041   4.271   1.280
 3536SOL    HW110622   4.079   4.212   1.352
 3536SOL    HW210623   4.081   4.245   1.192
 3537SOL     OW10624   4.725   3.758   1.154
 3537SOL    HW110625   4.662   3.686   1.123
 3537SOL    HW210626   4.818   3.722   1.154
 3538SOL     OW10627   3.954   4.352   1.975
 3538SOL    HW110628   3.861   4.350   2.012
 3538SOL    HW210629   3.955   4.313   1.883
 3539SOL     OW10630   3.949   3.999   2.858
 3539SOL    HW110631   3.984   3.982   2.950
 3539SOL    HW210632   3.861   3.954   2.846
 3540SOL     OW10633   3.743   4.092   2.509
 3540SOL    HW110634   3.661   4.135   2.548
 3540SOL    HW210635   3.715   4.019   2.446
 3541SOL     OW10636   4.492   4.868   2.885
 3541SOL    HW110637   4.414   4.885   2.945
 3541SOL    HW210638   4.526   4.955   2.849
 3542SOL     OW10639   4.574   4.522   3.685
 3542SOL    HW110640   4.570   4.598   3.750
 3542SOL    HW210641   4.596   4.558   3.594
 3543SOL     OW10642   4.409   4.736   2.527
 3543SOL    HW110643   4.478   4.720   2.597
 3543SOL    HW210644   4.336   4.793   2.565
 3544SOL     OW10645   4.162   4.116   3.361
 3544SOL    HW110646   4.244   4.060   3.370
 3544SOL    HW210647   4.081   4.058   3.365
 3545SOL     OW10648   3.964   4.815   2.748
 3545SOL    HW110649   3.978   4.731   2.800
 3545SOL    HW210650   3.909   4.879   2.803
 3546SOL     OW10651   4.330   4.688   1.985
 3546SOL    HW110652   4.337   4.772   1.931
 3546SOL    HW210653   4.376   4.701   2.073
 3547SOL     OW10654   3.846   4.367   2.425
 3547SOL    HW110655   3.801   4.279   2.442
 3547SOL    HW210656   3.845   4.421   2.509
 3548SOL     OW10657   3.837   4.461   3.459
 3548SOL    HW110658   3.925   4.448   3.504
 3548SOL    HW210659   3.824   4.558   3.437
 3549SOL     OW10660   4.533   3.728   2.364
 3549SOL    HW110661   4.573   3.819   2.355
 3549SOL    HW210662   4.433   3.736   2.370
 3550SOL     OW10663   3.921   4.700   3.126
 3550SOL    HW110664   4.010   4.655   3.112
 3550SOL    HW210665   3.848   4.635   3.107
 3551SOL     OW10666   4.041   3.975   3.663
 3551SOL    HW110667   4.112   4.046   3.669
 3551SOL    HW210668   3.953   4.014   3.691
 3552SOL     OW10669   4.322   4.453   2.132
 3552SOL    HW110670   4.346   4.522   2.064
 3552SOL    HW210671   4.244   4.486   2.186
 3553SOL     OW10672   4.531   4.329   3.327
 3553SOL    HW110673   4.484   4.326   3.416
 3553SOL    HW210674   4.480   4.274   3.261
 3554SOL     OW10675   4.697   4.614   3.434
 3554SOL    HW110676   4.743   4.530   3.405
 3554SOL    HW210677   4.641   4.648   3.359
 3555SOL     OW10678   4.715   4.134   3.104
 3555SOL    HW110679   4.638   4.168   3.158
 3555SOL    HW210680   4.681   4.083   3.025
 3556SOL     OW10681   3.800   4.535   2.651
 3556SOL    HW110682   3.899   4.523   2.660
 3556SOL    HW210683   3.776   4.630   2.672
 3557SOL     OW10684   4.589   4.072   2.057
 3557SOL    HW110685   4.648   4.135   2.008
 3557SOL    HW210686   4.608   3.978   2.028
 3558SOL     OW10687   4.274   3.920   2.747
 3558SOL    HW110688   4.269   3.915   2.847
 3558SOL    HW210689   4.276   4.016   2.718
 3559SOL     OW10690   3.926   4.009   3.360
 3559SOL    HW110691   3.846   4.069   3.347
 3559SOL    HW210692   3.916   3.960   3.446
 3560SOL     OW10693   4.106   4.424   2.342
 3560SOL    HW110694   4.151   4.334   2.339
 3560SOL    HW210695   4.012   4.413   2.375
 3561SOL     OW10696   4.338   3.846   1.979
 3561SOL    HW110697   4.436   3.824   1.986
 3561SOL    HW210698   4.307   3.829   1.886
 3562SOL     OW10699   4.505   3.988   3.611
 3562SOL    HW110700   4.572   3.927   3.654
 3562SOL    HW210701   4.432   4.007   3.676
 3563SOL     OW10702   4.646   4.227   2.761
 3563SOL    HW110703   4.621   4.218   2.665
 3563SOL    HW210704   4.694   4.145   2.792
 3564SOL     OW10705   4.263   3.788   2.374
 3564SOL    HW110706   4.182   3.789   2.432
 3564SOL    HW210707   4.266   3.871   2.319
 3565SOL     OW10708   4.021   3.759   2.033
 3565SOL    HW110709   4.070   3.843   2.012
 3565SOL    HW210710   4.083   3.694   2.078
 3566SOL     OW10711   4.659   3.960   2.342
 3566SOL    HW110712   4.611   4.001   2.264
 3566SOL    HW210713   4.758   3.958   2.323
 3567SOL     OW10714   4.756   4.273   1.878
 3567SOL    HW110715   4.715   4.355   1.839
 3567SOL    HW210716   4.820   4.299   1.951
 3568SOL     OW10717   3.802   4.280   3.248
 3568SOL    HW110718   3.894   4.279   3.207
 3568SOL    HW210719   3.796   4.354   3.315
 3569SOL     OW10720   4.285   3.946   3.009
 3569SOL    HW110721   4.323   3.862   3.046
 3569SOL    HW210722   4.197   3.965   3.053
 3570SOL     OW10723   4.590   4.178   2.504
 3570SOL    HW110724   4.558   4.250   2.442
 3570SOL    HW210725   4.614   4.097   2.451
 3571SOL     OW10726   4.741   3.763   2.615
 3571SOL    HW110727   4.669   3.768   2.546
 3571SOL    HW210728   4.717   3.694   2.684
 3572SOL     OW10729   4.251   3.980   2.190
 3572SOL    HW110730   4.278   3.921   2.115
 3572SOL    HW210731   4.251   4.075   2.159
 3573SOL     OW10732   4.639   3.813   3.264
 3573SOL    HW110733   4.664   3.793   3.169
 3573SOL    HW210734   4.711   3.869   3.306
 3574SOL     OW10735   4.134   4.537   3.113
 3574SOL    HW110736   4.220   4.549   3.163
 3574SOL    HW210737   4.092   4.450   3.140
 3575SOL     OW10738   4.290   4.261   2.727
 3575SOL    HW110739   4.302   4.327   2.653
 3575SOL    HW210740   4.336   4.295   2.810
 3576SOL     OW10741   4.126   4.475   3.460
 3576SOL    HW110742   4.194   4.530   3.413
 3576SOL    HW210743   4.166   4.387   3.487
 3577SOL     OW10744   4.737   3.829   3.632
 3577SOL    HW110745   4.743   3.914   3.580
 3577SOL    HW210746   4.769   3.753   3.575
 3578SOL     OW10747   4.228   3.774   3.602
 3578SOL    HW110748   4.186   3.717   3.532
 3578SOL    HW210749   4.162   3.843   3.634
 3579SOL     OW10750   4.297   4.594   2.891
 3579SOL    HW110751   4.341   4.683   2.882
 3579SOL    HW210752   4.234   4.594   2.968
 3580SOL     OW10753   4.933   4.249   2.137
 3580SOL    HW110754   4.946   4.165   2.191
 3580SOL    HW210755   4.904   4.323   2.197
 3581SOL     OW10756   4.031   3.937   3.093
 3581SOL    HW110757   4.008   3.974   3.183
 3581SOL    HW210758   4.001   3.842   3.087
 3582SOL     OW10759   4.456   4.358   2.926
 3582SOL    HW110760   4.515   4.332   2.850
 3582SOL    HW210761   4.428   4.454   2.915
 3583SOL     OW10762   4.031   3.787   2.480
 3583SOL    HW110763   4.020   3.881   2.513
 3583SOL    HW210764   4.026   3.724   2.557
 3584SOL     OW10765   4.747   4.490   2.828
 3584SOL    HW110766   4.762   4.511   2.924
 3584SOL    HW210767   4.717   4.395   2.819
 3585SOL     OW10768   4.074   4.622   3.666
 3585SOL    HW110769   4.150   4.666   3.714
 3585SOL    HW210770   4.109   4.575   3.584
 3586SOL     OW10771   4.043   4.534   2.811
 3586SOL    HW110772   4.136   4.570   2.816
 3586SOL    HW210773   4.037   4.449   2.863
 3587SOL     OW10774   4.063   4.233   2.868
 3587SOL    HW110775   4.011   4.150   2.851
 3587SOL    HW210776   4.140   4.238   2.804
 3588SOL     OW10777   4.726   4.520   3.100
 3588SOL    HW110778   4.767   4.488   3.186
 3588SOL    HW210779   4.630   4.493   3.097
 3589SOL     OW10780   3.764   4.268   2.976
 3589SOL    HW110781   3.849   4.235   2.935
 3589SOL    HW210782   3.777   4.283   3.074
 3590SOL     OW10783   3.913   4.244   3.584
 3590SOL    HW110784   3.972   4.204   3.514
 3590SOL    HW210785   3.855   4.315   3.543
 3591SOL     OW10786   4.539   4.296   2.187
 3591SOL    HW110787   4.546   4.207   2.141
 3591SOL    HW210788   4.445   4.330   2.179
 3592SOL     OW10789   4.395   4.188   3.131
 3592SOL    HW110790   4.361   4.099   3.101
 3592SOL    HW210791   4.421   4.242   3.051
 3593SOL     OW10792   4.197   4.224   2.053
 3593SOL    HW110793   4.258   4.304   2.057
 3593SOL    HW210794   4.102   4.255   2.060
 3594SOL     OW10795   3.883   4.861   3.328
 3594SOL    HW110796   3.905   4.800   3.404
 3594SOL    HW210797   3.893   4.812   3.242
 3595SOL     OW10798   5.026   4.579   2.171
 3595SOL    HW110799   4.940   4.548   2.213
 3595SOL    HW210800   5.022   4.565   2.072
 3596SOL     OW10801   3.987   4.050   2.582
 3596SOL    HW110802   3.908   4.101   2.548
 3596SOL    HW210803   3.978   4.035   2.680
 3597SOL     OW10804   4.640   4.634   2.153
 3597SOL    HW110805   4.703   4.672   2.085
 3597SOL    HW210806   4.680   4.551   2.192
 3598SOL     OW10807   4.738   3.960   2.833
 3598SOL    HW110808   4.730   3.924   2.740
 3598SOL    HW210809   4.736   3.884   2.898
 3599SOL     OW10810   3.829   4.737   3.588
 3599SOL    HW110811   3.752   4.704   3.642
 3599SOL    HW210812   3.914   4.707   3.630
 3600SOL     OW10813   4.396   3.927   3.351
 3600SOL    HW110814   4.486   3.911   3.311
 3600SOL    HW210815   4.404   3.932   3.450
 3601SOL     OW10816   3.799   4.069   1.895
 3601SOL    HW110817   3.707   4.041   1.866
 3601SOL    HW210818   3.830   4.146   1.839
 3602SOL     OW10819   3.796   3.890   2.180
 3602SOL    HW110820   3.779   3.973   2.126
 3602SOL    HW210821   3.886   3.853   2.158
 3603SOL     OW10822   4.337   4.566   3.293
 3603SOL    HW110823   4.393   4.647   3.276
 3603SOL    HW210824   4.396   4.486   3.296
 3604SOL     OW10825   4.440   4.289   3.570
 3604SOL    HW110826   4.459   4.354   3.644
 3604SOL    HW210827   4.500   4.209   3.579
 3605SOL     OW10828   4.949   4.049   2.311
 3605SOL    HW110829   5.014   3.975   2.300
 3605SOL    HW210830   4.969   4.099   2.395
 3606SOL     OW10831   4.318   4.469   2.514
 3606SOL    HW110832   4.368   4.554   2.495
 3606SOL    HW210833   4.230   4.471   2.466
 3607SOL     OW10834   4.583   4.680   2.723
 3607SOL    HW110835   4.637   4.611   2.771
 3607SOL    HW210836   4.551   4.749   2.789
 3608SOL     OW10837   3.803   4.964   2.515
 3608SOL    HW110838   3.802   4.917   2.603
 3608SOL    HW210839   3.885   4.936   2.464
 3609SOL     OW10840   4.152   4.148   2.382
 3609SOL    HW110841   4.182   4.076   2.320
 3609SOL    HW210842   4.113   4.108   2.465
 3610SOL     OW10843   4.041   4.271   3.142
 3610SOL    HW110844   4.079   4.212   3.214
 3610SOL    HW210845   4.081   4.245   3.054
 3611SOL     OW10846   4.725   3.758   3.016
 3611SOL    HW110847   4.662   3.686   2.985
 3611SOL    HW210848   4.818   3.722   3.016
 3612SOL     OW10849   3.954   4.352   3.837
 3612SOL    HW110850   3.861   4.350   3.874
 3612SOL    HW210851   3.955   4.313   3.745
 3613SOL     OW10852   3.949   3.999   4.720
 3613SOL    HW110853   3.984   3.982   4.812
 3613SOL    HW210854   3.861   3.954   4.708
 3614SOL     OW10855   3.743   4.092   4.371
 3614SOL    HW110856   3.661   4.135   4.410
 3614SOL    HW210857   3.715   4.019   4.308
 3615SOL     OW10858   4.409   4.736   4.389
 3615SOL    HW110859   4.478   4.720   4.459
 3615SOL    HW210860   4.336   4.793   4.427
 3616SOL     OW10861   3.964   4.815   4.610
 3616SOL    HW110862   3.978   4.731   4.662
 3616SOL    HW210863   3.909   4.879   4.665
 3617SOL     OW10864   4.330   4.688   3.847
 3617SOL    HW110865   4.337   4.772   3.793
 3617SOL    HW210866   4.376   4.701   3.935
 3618SOL     OW10867   3.846   4.367   4.287
 3618SOL    HW110868   3.801   4.279   4.304
 3618SOL    HW210869   3.845   4.421   4.371
 3619SOL     OW10870   4.533   3.728   4.226
 3619SOL    HW110871   4.573   3.819   4.217
 3619SOL    HW210872   4.433   3.736   4.232
 3620SOL     OW10873   4.322   4.453   3.994
 3620SOL    HW110874   4.346   4.522   3.926
 3620SOL    HW210875   4.244   4.486   4.048
 3621SOL     OW10876   3.800   4.535   4.513
 3621SOL    HW110877   3.899   4.523   4.522
 3621SOL    HW210878   3.776   4.630   4.534
 3622SOL     OW10879   4.589   4.072   3.919
 3622SOL    HW110880   4.648   4.135   3.870
 3622SOL    HW210881   4.608   3.978   3.890
 3623SOL     OW10882   4.274   3.920   4.609
 3623SOL    HW110883   4.269   3.915   4.709
 3623SOL    HW210884   4.276   4.016   4.580
 3624SOL     OW10885   4.106   4.424   4.204
 3624SOL    HW110886   4.151   4.334   4.201
 3624SOL    HW210887   4.012   4.413   4.237
 3625SOL     OW10888   4.338   3.846   3.841
 3625SOL    HW110889   4.436   3.824   3.848
 3625SOL    HW210890   4.307   3.829   3.748
 3626SOL     OW10891   4.646   4.227   4.623
 3626SOL    HW110892   4.621   4.218   4.527
 3626SOL    HW210893   4.694   4.145   4.654
 3627SOL     OW10894   4.263   3.788   4.236
 3627SOL    HW110895   4.182   3.789   4.294
 3627SOL    HW210896   4.266   3.871   4.181
 3628SOL     OW10897   4.021   3.759   3.895
 3628SOL    HW110898   4.070   3.843   3.874
 3628SOL    HW210899   4.083   3.694   3.940
 3629SOL     OW10900   4.659   3.960   4.204
 3629SOL    HW110901   4.611   4.001   4.126
 3629SOL    HW210902   4.758   3.958   4.185
 3630SOL     OW10903   4.756   4.273   3.740
 3630SOL    HW110904   4.715   4.355   3.701
 3630SOL    HW210905   4.820   4.299   3.813
 3631SOL     OW10906   4.590   4.178   4.366
 3631SOL    HW110907   4.558   4.250   4.304
 3631SOL    HW210908   4.614   4.097   4.313
 3632SOL     OW10909   4.741   3.763   4.477
 3632SOL    HW110910   4.669   3.768   4.408
 3632SOL    HW210911   4.717   3.694   4.546
 3633SOL     OW10912   4.251   3.980   4.052
 3633SOL    HW110913   4.278   3.921   3.977
 3633SOL    HW210914   4.251   4.075   4.021
 3634SOL     OW10915   4.835   4.919   4.824
 3634SOL    HW110916   4.795   4.963   4.905
 3634SOL    HW210917   4.794   4.956   4.741
 3635SOL     OW10918   4.290   4.261   4.589
 3635SOL    HW110919   4.302   4.327   4.515
 3635SOL    HW210920   4.336   4.295   4.672
 3636SOL     OW10921   4.297   4.594   4.753
 3636SOL    HW110922   4.341   4.683   4.744
 3636SOL    HW210923   4.234   4.594   4.830
 3637SOL     OW10924   4.933   4.249   3.999
 3637SOL    HW110925   4.946   4.165   4.053
 3637SOL    HW210926   4.904   4.323   4.059
 3638SOL     OW10927   4.031   3.937   4.955
 3638SOL    HW110928   4.008   3.974   5.045
 3638SOL    HW210929   4.001   3.842   4.949
 3639SOL     OW10930   4.456   4.358   4.788
 3639SOL    HW110931   4.515   4.332   4.712
 3639SOL    HW210932   4.428   4.454   4.777
 3640SOL     OW10933   4.031   3.787   4.342
 3640SOL    HW110934   4.020   3.881   4.375
 3640SOL    HW210935   4.026   3.724   4.419
 3641SOL     OW10936   4.043   4.534   4.673
 3641SOL    HW110937   4.136   4.570   4.678
 3641SOL    HW210938   4.037   4.449   4.725
 3642SOL     OW10939   4.063   4.233   4.730
 3642SOL    HW110940   4.011   4.150   4.713
 3642SOL    HW210941   4.140   4.238   4.666
 3643SOL     OW10942   4.539   4.296   4.049
 3643SOL    HW110943   4.546   4.207   4.003
 3643SOL    HW210944   4.445   4.330   4.041
 3644SOL     OW10945   4.395   4.188   4.993
 3644SOL    HW110946   4.361   4.099   4.963
 3644SOL    HW210947   4.421   4.242   4.913
 3645SOL     OW10948   4.197   4.224   3.915
 3645SOL    HW110949   4.258   4.304   3.919
 3645SOL    HW210950   4.102   4.255   3.922
 3646SOL     OW10951   5.026   4.579   4.033
 3646SOL    HW110952   4.940   4.548   4.075
 3646SOL    HW210953   5.022   4.565   3.934
 3647SOL     OW10954   3.987   4.050   4.444
 3647SOL    HW110955   3.908   4.101   4.410
 3647SOL    HW210956   3.978   4.035   4.542
 3648SOL     OW10957   4.640   4.634   4.015
 3648SOL    HW110958   4.703   4.672   3.947
 3648SOL    HW210959   4.680   4.551   4.054
 3649SOL     OW10960   3.799   4.069   3.757
 3649SOL    HW110961   3.707   4.041   3.728
 3649SOL    HW210962   3.830   4.146   3.701
 3650SOL     OW10963   3.796   3.890   4.042
 3650SOL    HW110964   3.779   3.973   3.988
 3650SOL    HW210965   3.886   3.853   4.020
 3651SOL     OW10966   4.949   4.049   4.173
 3651SOL    HW110967   5.014   3.975   4.162
 3651SOL    HW210968   4.969   4.099   4.257
 3652SOL     OW10969   4.318   4.469   4.376
 3652SOL    HW110970   4.368   4.554   4.357
 3652SOL    HW210971   4.230   4.471   4.328
 3653SOL     OW10972   4.583   4.680   4.585
 3653SOL    HW110973   4.637   4.611   4.633
 3653SOL    HW210974   4.551   4.749   4.651
 3654SOL     OW10975   3.803   4.964   4.377
 3654SOL    HW110976   3.802   4.917   4.465
 3654SOL    HW210977   3.885   4.936   4.326
 3655SOL     OW10978   4.152   4.148   4.244
 3655SOL    HW110979   4.182   4.076   4.182
 3655SOL    HW210980   4.113   4.108   4.327
   4.79762   4.79762   4.79762
