mobley_4218209_GMX.gro created by acpype (v: 2023.10.27) on Wed May 20 23:53:47 2026
   18
    1MOL     C1    1   2.324   2.438   2.285
    1MOL     C2    2   2.536   2.322   2.291
    1MOL     C3    3   2.322   2.441   2.425
    1MOL     C4    4   2.534   2.325   2.430
    1MOL     C5    5   2.431   2.379   2.218
    1MOL     C6    6   2.427   2.385   2.497
    1MOL     C7    7   2.313   2.451   2.695
    1MOL     N1    8   2.433   2.375   2.078
    1MOL     O1    9   2.425   2.388   2.633
    1MOL     H1   10   2.241   2.482   2.230
    1MOL     H2   11   2.620   2.276   2.240
    1MOL     H3   12   2.238   2.488   2.477
    1MOL     H4   13   2.616   2.282   2.486
    1MOL     H5   14   2.231   2.379   2.704
    1MOL     H6   15   2.281   2.537   2.636
    1MOL     H7   16   2.342   2.485   2.795
    1MOL     H8   17   2.359   2.421   2.027
    1MOL     H9   18   2.501   2.320   2.031
   4.79762   4.79762   4.79762
