%VERSION  VERSION_STAMP = V0001.000  DATE = 05/20/26  23:42:20                  
%FLAG TITLE                                                                     
%FORMAT(20a4)                                                                   
22_dimethylpentane                                                              
%FLAG POINTERS                                                                  
%FORMAT(10I8)                                                                   
      23       2      16       6      34       8      50       4       0       0
     122       1       6       8       4       2       3       3       2       0
       0       0       0       0       0       0       0       0      23       0
       0
%FLAG ATOM_NAME                                                                 
%FORMAT(20a4)                                                                   
C1  C2  C3  C4  C5  C6  C7  H1  H2  H3  H4  H5  H6  H7  H8  H9  H10 H11 H12 H13 
H14 H15 H16 
%FLAG CHARGE                                                                    
%FORMAT(5E16.8)                                                                 
 -1.69649613E+00 -1.56287200E+00 -1.56287200E+00 -1.56287200E+00 -1.46507292E+00
 -1.26462762E+00 -1.02044880E+00  5.77646910E-01  5.77646910E-01  5.77646910E-01
  6.14091510E-01  6.14091510E-01  6.14091510E-01  6.14091510E-01  6.14091510E-01
  6.14091510E-01  6.14091510E-01  6.14091510E-01  6.14091510E-01  7.23425310E-01
  7.23425310E-01  7.05203010E-01  7.05203010E-01
%FLAG ATOMIC_NUMBER                                                             
%FORMAT(10I8)                                                                   
       6       6       6       6       6       6       6       1       1       1
       1       1       1       1       1       1       1       1       1       1
       1       1       1
%FLAG MASS                                                                      
%FORMAT(5E16.8)                                                                 
  1.20100000E+01  1.20100000E+01  1.20100000E+01  1.20100000E+01  1.20100000E+01
  1.20100000E+01  1.20100000E+01  1.00800000E+00  1.00800000E+00  1.00800000E+00
  1.00800000E+00  1.00800000E+00  1.00800000E+00  1.00800000E+00  1.00800000E+00
  1.00800000E+00  1.00800000E+00  1.00800000E+00  1.00800000E+00  1.00800000E+00
  1.00800000E+00  1.00800000E+00  1.00800000E+00
%FLAG ATOM_TYPE_INDEX                                                           
%FORMAT(10I8)                                                                   
       1       1       1       1       1       1       1       2       2       2
       2       2       2       2       2       2       2       2       2       2
       2       2       2
%FLAG NUMBER_EXCLUDED_ATOMS                                                     
%FORMAT(10I8)                                                                   
      10      16      15      14       9      17      13       4       3       2
       2       1       1       2       1       1       2       1       1       3
       2       1       1
%FLAG NONBONDED_PARM_INDEX                                                      
%FORMAT(10I8)                                                                   
       1       2       2       3
%FLAG RESIDUE_LABEL                                                             
%FORMAT(20a4)                                                                   
MOL 
%FLAG RESIDUE_POINTER                                                           
%FORMAT(10I8)                                                                   
       1
%FLAG BOND_FORCE_CONSTANT                                                       
%FORMAT(5E16.8)                                                                 
  2.28890000E+02  3.45250000E+02
%FLAG BOND_EQUIL_VALUE                                                          
%FORMAT(5E16.8)                                                                 
  1.53540000E+00  1.09620000E+00
%FLAG ANGLE_FORCE_CONSTANT                                                      
%FORMAT(5E16.8)                                                                 
  5.98700000E+01  4.32700000E+01  3.58000000E+01
%FLAG ANGLE_EQUIL_VALUE                                                         
%FORMAT(5E16.8)                                                                 
  1.96576518E+00  1.91427794E+00  1.88024401E+00
%FLAG DIHEDRAL_FORCE_CONSTANT                                                   
%FORMAT(5E16.8)                                                                 
  5.20000000E-01  1.30000000E-01  1.20000000E-01
%FLAG DIHEDRAL_PERIODICITY                                                      
%FORMAT(5E16.8)                                                                 
  3.00000000E+00  3.00000000E+00  3.00000000E+00
%FLAG DIHEDRAL_PHASE                                                            
%FORMAT(5E16.8)                                                                 
  0.00000000E+00  0.00000000E+00  0.00000000E+00
%FLAG SCEE_SCALE_FACTOR                                                         
%FORMAT(5E16.8)                                                                 
  1.20000000E+00  1.20000000E+00  1.20000000E+00
%FLAG SCNB_SCALE_FACTOR                                                         
%FORMAT(5E16.8)                                                                 
  2.00000000E+00  2.00000000E+00  2.00000000E+00
%FLAG SOLTY                                                                     
%FORMAT(5E16.8)                                                                 
  0.00000000E+00  0.00000000E+00
%FLAG LENNARD_JONES_ACOEF                                                       
%FORMAT(5E16.8)                                                                 
  1.02073671E+06  1.00235148E+05  7.94617769E+03
%FLAG LENNARD_JONES_BCOEF                                                       
%FORMAT(5E16.8)                                                                 
  6.63431737E+02  1.37787728E+02  2.57122925E+01
%FLAG BONDS_INC_HYDROGEN                                                        
%FORMAT(10I8)                                                                   
       0      21       2       0      24       2       0      27       2       3
      30       2       3      33       2       3      36       2       6      39
       2       6      42       2       6      45       2       9      48       2
       9      51       2       9      54       2      12      57       2      12
      60       2      15      63       2      15      66       2
%FLAG BONDS_WITHOUT_HYDROGEN                                                    
%FORMAT(10I8)                                                                   
       0      12       1       3      18       1       6      18       1       9
      18       1      12      15       1      15      18       1
%FLAG ANGLES_INC_HYDROGEN                                                       
%FORMAT(10I8)                                                                   
       0      12      57       2       0      12      60       2      12       0
      21       2      12       0      24       2      12       0      27       2
      12      15      63       2      12      15      66       2      15      12
      57       2      15      12      60       2      18       3      30       2
      18       3      33       2      18       3      36       2      18       6
      39       2      18       6      42       2      18       6      45       2
      18       9      48       2      18       9      51       2      18       9
      54       2      18      15      63       2      18      15      66       2
      21       0      24       3      21       0      27       3      24       0
      27       3      30       3      33       3      30       3      36       3
      33       3      36       3      39       6      42       3      39       6
      45       3      42       6      45       3      48       9      51       3
      48       9      54       3      51       9      54       3      57      12
      60       3      63      15      66       3
%FLAG ANGLES_WITHOUT_HYDROGEN                                                   
%FORMAT(10I8)                                                                   
       0      12      15       1       3      18       6       1       3      18
       9       1       3      18      15       1       6      18       9       1
       6      18      15       1       9      18      15       1      12      15
      18       1
%FLAG DIHEDRALS_INC_HYDROGEN                                                    
%FORMAT(10I8)                                                                   
       0      12      15      63       2       0      12      15      66       2
       3      18       6      39       2       3      18       6      42       2
       3      18       6      45       2       3      18       9      48       2
       3      18       9      51       2       3      18       9      54       2
       3      18      15      63       2       3      18      15      66       2
       6      18       3      30       2       6      18       3      33       2
       6      18       3      36       2       6      18       9      48       2
       6      18       9      51       2       6      18       9      54       2
       6      18      15      63       2       6      18      15      66       2
       9      18       3      30       2       9      18       3      33       2
       9      18       3      36       2       9      18       6      39       2
       9      18       6      42       2       9      18       6      45       2
       9      18      15      63       2       9      18      15      66       2
      21       0      12      15       2      24       0      12      15       2
      27       0      12      15       2      15      18       3      30       2
      15      18       3      33       2      15      18       3      36       2
      15      18       6      39       2      15      18       6      42       2
      15      18       6      45       2      15      18       9      48       2
      15      18       9      51       2      15      18       9      54       2
      18      15      12      57       2      18      15      12      60       2
      21       0      12      57       3      21       0      12      60       3
      24       0      12      57       3      24       0      12      60       3
      27       0      12      57       3      27       0      12      60       3
      57      12      15      63       3      57      12      15      66       3
      60      12      15      63       3      60      12      15      66       3
%FLAG DIHEDRALS_WITHOUT_HYDROGEN                                                
%FORMAT(10I8)                                                                   
       0      12      15      18       1       3      18      15      12       1
       6      18      15      12       1       9      18      15      12       1
%FLAG EXCLUDED_ATOMS_LIST                                                       
%FORMAT(10I8)                                                                   
       5       6       7       8       9      10      20      21      22      23
       3       4       5       6       7      11      12      13      14      15
      16      17      18      19      22      23       4       5       6       7
      11      12      13      14      15      16      17      18      19      22
      23       5       6       7      11      12      13      14      15      16
      17      18      19      22      23       6       7       8       9      10
      20      21      22      23       7       8       9      10      11      12
      13      14      15      16      17      18      19      20      21      22
      23      11      12      13      14      15      16      17      18      19
      20      21      22      23       9      10      20      21      10      20
      21      20      21      12      13      13       0      15      16      16
       0      18      19      19       0      21      22      23      22      23
      23       0
%FLAG HBOND_ACOEF                                                               
%FORMAT(5E16.8)                                                                 

%FLAG HBOND_BCOEF                                                               
%FORMAT(5E16.8)                                                                 

%FLAG HBCUT                                                                     
%FORMAT(5E16.8)                                                                 

%FLAG AMBER_ATOM_TYPE                                                           
%FORMAT(20a4)                                                                   
c3  c3  c3  c3  c3  c3  c3  hc  hc  hc  hc  hc  hc  hc  hc  hc  hc  hc  hc  hc  
hc  hc  hc  
%FLAG TREE_CHAIN_CLASSIFICATION                                                 
%FORMAT(20a4)                                                                   
BLA BLA BLA BLA BLA BLA BLA BLA BLA BLA BLA BLA BLA BLA BLA BLA BLA BLA BLA BLA 
BLA BLA BLA 
%FLAG JOIN_ARRAY                                                                
%FORMAT(10I8)                                                                   
       0       0       0       0       0       0       0       0       0       0
       0       0       0       0       0       0       0       0       0       0
       0       0       0
%FLAG IROTAT                                                                    
%FORMAT(10I8)                                                                   
       0       0       0       0       0       0       0       0       0       0
       0       0       0       0       0       0       0       0       0       0
       0       0       0
%FLAG RADIUS_SET                                                                
%FORMAT(1a80)                                                                   
modified Bondi radii (mbondi)                                                   
%FLAG RADII                                                                     
%FORMAT(5E16.8)                                                                 
  1.70000000E+00  1.70000000E+00  1.70000000E+00  1.70000000E+00  1.70000000E+00
  1.70000000E+00  1.70000000E+00  1.30000000E+00  1.30000000E+00  1.30000000E+00
  1.30000000E+00  1.30000000E+00  1.30000000E+00  1.30000000E+00  1.30000000E+00
  1.30000000E+00  1.30000000E+00  1.30000000E+00  1.30000000E+00  1.30000000E+00
  1.30000000E+00  1.30000000E+00  1.30000000E+00
%FLAG SCREEN                                                                    
%FORMAT(5E16.8)                                                                 
  7.20000000E-01  7.20000000E-01  7.20000000E-01  7.20000000E-01  7.20000000E-01
  7.20000000E-01  7.20000000E-01  8.50000000E-01  8.50000000E-01  8.50000000E-01
  8.50000000E-01  8.50000000E-01  8.50000000E-01  8.50000000E-01  8.50000000E-01
  8.50000000E-01  8.50000000E-01  8.50000000E-01  8.50000000E-01  8.50000000E-01
  8.50000000E-01  8.50000000E-01  8.50000000E-01
%FLAG IPOL                                                                      
%FORMAT(1I8)                                                                    
       0
