; mobley_252413_GMX_OPLS.top created by acpype (v: 2023.10.27) on Wed May 20 23:42:19 2026

; Include forcefield parameters
#include "ffoplsaa.itp"

; Include mobley_252413_GMX.itp topology
#include "mobley_252413_GMX.itp"

; Ligand position restraints
#ifdef POSRES_LIG
#include "posre_mobley_252413.itp"
#endif

[ system ]
 mobley_252413

[ molecules ]
; Compound        nmols
 mobley_252413    1     
