mobley_252413_GMX.gro created by acpype (v: 2023.10.27) on Wed May 20 23:42:19 2026
 23
    1  MOL   C1    1   0.012  -0.060   0.091
    1  MOL   C2    2   0.429  -0.134   0.253
    1  MOL   C3    3   0.318   0.033   0.404
    1  MOL   C4    4   0.315  -0.210   0.462
    1  MOL   C5    5   0.148  -0.035   0.153
    1  MOL   C6    6   0.174  -0.130   0.271
    1  MOL   C7    7   0.309  -0.109   0.346
    1  MOL   H1    8  -0.068  -0.044   0.165
    1  MOL   H2    9  -0.005   0.008   0.007
    1  MOL   H3   10   0.004  -0.163   0.054
    1  MOL   H4   11   0.422  -0.232   0.206
    1  MOL   H5   12   0.435  -0.058   0.174
    1  MOL   H6   13   0.523  -0.130   0.309
    1  MOL   H7   14   0.408   0.044   0.466
    1  MOL   H8   15   0.232   0.056   0.467
    1  MOL   H9   16   0.324   0.109   0.326
    1  MOL  H10   17   0.310  -0.313   0.425
    1  MOL  H11   18   0.408  -0.200   0.519
    1  MOL  H12   19   0.232  -0.195   0.532
    1  MOL  H13   20   0.225  -0.049   0.076
    1  MOL  H14   21   0.153   0.069   0.186
    1  MOL  H15   22   0.170  -0.233   0.234
    1  MOL  H16   23   0.092  -0.120   0.343
   11.82000     8.44200    10.48600
