; mobley_252413_GMX_OPLS.itp created by acpype (v: 2023.10.27) on Wed May 20 23:42:19 2026

; For OPLS atomtypes manual fine tuning
; AC_at:OPLS_at:OPLScode: Possible_Alternatives (see ffoplsaa.atp and ffoplsaanb.itp)
; c3:CT:opls_135: ['136', '137', '149', '157', '158', '206', '209', '210', '223B', '224B', '245', '246', '274', '283', '284', '285', '292', '292B', '293B', '296', '307', '308', '505']
; hc:HC:opls_140: []

[ moleculetype ]
;name            nrexcl
 mobley_252413    3

[ atoms ]
;   nr  type  resi  res  atom  cgnr     charge      mass       ; qtot   bond_type
     1 opls_135     1   MOL    C1    1    -0.092099     12.01100 ; qtot -0.092  CT  
     2 opls_135     1   MOL    C2    2    -0.085767     12.01100 ; qtot -0.178  CT  
     3 opls_135     1   MOL    C3    3    -0.085767     12.01100 ; qtot -0.264  CT  
     4 opls_135     1   MOL    C4    4    -0.085767     12.01100 ; qtot -0.349  CT  
     5 opls_135     1   MOL    C5    5    -0.080400     12.01100 ; qtot -0.430  CT  
     6 opls_135     1   MOL    C6    6    -0.069400     12.01100 ; qtot -0.499  CT  
     7 opls_135     1   MOL    C7    7    -0.056000     12.01100 ; qtot -0.555  CT  
     8 opls_140     1   MOL    H1    8     0.031700      1.00800 ; qtot -0.523  HC  
     9 opls_140     1   MOL    H2    9     0.031700      1.00800 ; qtot -0.492  HC  
    10 opls_140     1   MOL    H3   10     0.031700      1.00800 ; qtot -0.460  HC  
    11 opls_140     1   MOL    H4   11     0.033700      1.00800 ; qtot -0.426  HC  
    12 opls_140     1   MOL    H5   12     0.033700      1.00800 ; qtot -0.393  HC  
    13 opls_140     1   MOL    H6   13     0.033700      1.00800 ; qtot -0.359  HC  
    14 opls_140     1   MOL    H7   14     0.033700      1.00800 ; qtot -0.325  HC  
    15 opls_140     1   MOL    H8   15     0.033700      1.00800 ; qtot -0.292  HC  
    16 opls_140     1   MOL    H9   16     0.033700      1.00800 ; qtot -0.258  HC  
    17 opls_140     1   MOL   H10   17     0.033700      1.00800 ; qtot -0.224  HC  
    18 opls_140     1   MOL   H11   18     0.033700      1.00800 ; qtot -0.190  HC  
    19 opls_140     1   MOL   H12   19     0.033700      1.00800 ; qtot -0.157  HC  
    20 opls_140     1   MOL   H13   20     0.039700      1.00800 ; qtot -0.117  HC  
    21 opls_140     1   MOL   H14   21     0.039700      1.00800 ; qtot -0.077  HC  
    22 opls_140     1   MOL   H15   22     0.038700      1.00800 ; qtot -0.039  HC  
    23 opls_140     1   MOL   H16   23     0.038700      1.00800 ; qtot  0.000  HC  

[ bonds ]
;   ai     aj funct   r             k
     1      5   1 ;    1.5354e-01    1.9154e+05 ;     C1 - C5         CT - CT    
     1      8   1 ;    1.0962e-01    2.8891e+05 ;     C1 - H1         CT - HC    
     1      9   1 ;    1.0962e-01    2.8891e+05 ;     C1 - H2         CT - HC    
     1     10   1 ;    1.0962e-01    2.8891e+05 ;     C1 - H3         CT - HC    
     2      7   1 ;    1.5354e-01    1.9154e+05 ;     C2 - C7         CT - CT    
     2     11   1 ;    1.0962e-01    2.8891e+05 ;     C2 - H4         CT - HC    
     2     12   1 ;    1.0962e-01    2.8891e+05 ;     C2 - H5         CT - HC    
     2     13   1 ;    1.0962e-01    2.8891e+05 ;     C2 - H6         CT - HC    
     3      7   1 ;    1.5354e-01    1.9154e+05 ;     C3 - C7         CT - CT    
     3     14   1 ;    1.0962e-01    2.8891e+05 ;     C3 - H7         CT - HC    
     3     15   1 ;    1.0962e-01    2.8891e+05 ;     C3 - H8         CT - HC    
     3     16   1 ;    1.0962e-01    2.8891e+05 ;     C3 - H9         CT - HC    
     4      7   1 ;    1.5354e-01    1.9154e+05 ;     C4 - C7         CT - CT    
     4     17   1 ;    1.0962e-01    2.8891e+05 ;     C4 - H10        CT - HC    
     4     18   1 ;    1.0962e-01    2.8891e+05 ;     C4 - H11        CT - HC    
     4     19   1 ;    1.0962e-01    2.8891e+05 ;     C4 - H12        CT - HC    
     5      6   1 ;    1.5354e-01    1.9154e+05 ;     C5 - C6         CT - CT    
     5     20   1 ;    1.0962e-01    2.8891e+05 ;     C5 - H13        CT - HC    
     5     21   1 ;    1.0962e-01    2.8891e+05 ;     C5 - H14        CT - HC    
     6      7   1 ;    1.5354e-01    1.9154e+05 ;     C6 - C7         CT - CT    
     6     22   1 ;    1.0962e-01    2.8891e+05 ;     C6 - H15        CT - HC    
     6     23   1 ;    1.0962e-01    2.8891e+05 ;     C6 - H16        CT - HC    

[ pairs ]
;   ai     aj    funct
     1      7      1 ;     C1 - C7    
     1     22      1 ;     C1 - H15   
     1     23      1 ;     C1 - H16   
     2      5      1 ;     C2 - C5    
     2     14      1 ;     C2 - H7    
     2     15      1 ;     C2 - H8    
     2     16      1 ;     C2 - H9    
     2     17      1 ;     C2 - H10   
     2     18      1 ;     C2 - H11   
     2     19      1 ;     C2 - H12   
     2     22      1 ;     C2 - H15   
     2     23      1 ;     C2 - H16   
     3      5      1 ;     C3 - C5    
     3     11      1 ;     C3 - H4    
     3     12      1 ;     C3 - H5    
     3     13      1 ;     C3 - H6    
     3     17      1 ;     C3 - H10   
     3     18      1 ;     C3 - H11   
     3     19      1 ;     C3 - H12   
     3     22      1 ;     C3 - H15   
     3     23      1 ;     C3 - H16   
     4      5      1 ;     C4 - C5    
     4     11      1 ;     C4 - H4    
     4     12      1 ;     C4 - H5    
     4     13      1 ;     C4 - H6    
     4     14      1 ;     C4 - H7    
     4     15      1 ;     C4 - H8    
     4     16      1 ;     C4 - H9    
     4     22      1 ;     C4 - H15   
     4     23      1 ;     C4 - H16   
     6     11      1 ;     C6 - H4    
     6     12      1 ;     C6 - H5    
     6     13      1 ;     C6 - H6    
     6     14      1 ;     C6 - H7    
     6     15      1 ;     C6 - H8    
     6     16      1 ;     C6 - H9    
     6     17      1 ;     C6 - H10   
     6     18      1 ;     C6 - H11   
     6     19      1 ;     C6 - H12   
     7     20      1 ;     C7 - H13   
     7     21      1 ;     C7 - H14   
     8      6      1 ;     H1 - C6    
     8     20      1 ;     H1 - H13   
     8     21      1 ;     H1 - H14   
     9      6      1 ;     H2 - C6    
     9     20      1 ;     H2 - H13   
     9     21      1 ;     H2 - H14   
    10      6      1 ;     H3 - C6    
    10     20      1 ;     H3 - H13   
    10     21      1 ;     H3 - H14   
    20     22      1 ;    H13 - H15   
    20     23      1 ;    H13 - H16   
    21     22      1 ;    H14 - H15   
    21     23      1 ;    H14 - H16   

[ angles ]
;   ai     aj     ak    funct   theta         cth
     1      5      6      1 ;    1.1263e+02    5.0099e+02 ;     C1 - C5   - C6       CT -   CT - CT  
     1      5     20      1 ;    1.0968e+02    3.6208e+02 ;     C1 - C5   - H13      CT -   CT - HC  
     1      5     21      1 ;    1.0968e+02    3.6208e+02 ;     C1 - C5   - H14      CT -   CT - HC  
     2      7      3      1 ;    1.1263e+02    5.0099e+02 ;     C2 - C7   - C3       CT -   CT - CT  
     2      7      4      1 ;    1.1263e+02    5.0099e+02 ;     C2 - C7   - C4       CT -   CT - CT  
     2      7      6      1 ;    1.1263e+02    5.0099e+02 ;     C2 - C7   - C6       CT -   CT - CT  
     3      7      4      1 ;    1.1263e+02    5.0099e+02 ;     C3 - C7   - C4       CT -   CT - CT  
     3      7      6      1 ;    1.1263e+02    5.0099e+02 ;     C3 - C7   - C6       CT -   CT - CT  
     4      7      6      1 ;    1.1263e+02    5.0099e+02 ;     C4 - C7   - C6       CT -   CT - CT  
     5      1      8      1 ;    1.0968e+02    3.6208e+02 ;     C5 - C1   - H1       CT -   CT - HC  
     5      1      9      1 ;    1.0968e+02    3.6208e+02 ;     C5 - C1   - H2       CT -   CT - HC  
     5      1     10      1 ;    1.0968e+02    3.6208e+02 ;     C5 - C1   - H3       CT -   CT - HC  
     5      6      7      1 ;    1.1263e+02    5.0099e+02 ;     C5 - C6   - C7       CT -   CT - CT  
     5      6     22      1 ;    1.0968e+02    3.6208e+02 ;     C5 - C6   - H15      CT -   CT - HC  
     5      6     23      1 ;    1.0968e+02    3.6208e+02 ;     C5 - C6   - H16      CT -   CT - HC  
     6      5     20      1 ;    1.0968e+02    3.6208e+02 ;     C6 - C5   - H13      CT -   CT - HC  
     6      5     21      1 ;    1.0968e+02    3.6208e+02 ;     C6 - C5   - H14      CT -   CT - HC  
     7      2     11      1 ;    1.0968e+02    3.6208e+02 ;     C7 - C2   - H4       CT -   CT - HC  
     7      2     12      1 ;    1.0968e+02    3.6208e+02 ;     C7 - C2   - H5       CT -   CT - HC  
     7      2     13      1 ;    1.0968e+02    3.6208e+02 ;     C7 - C2   - H6       CT -   CT - HC  
     7      3     14      1 ;    1.0968e+02    3.6208e+02 ;     C7 - C3   - H7       CT -   CT - HC  
     7      3     15      1 ;    1.0968e+02    3.6208e+02 ;     C7 - C3   - H8       CT -   CT - HC  
     7      3     16      1 ;    1.0968e+02    3.6208e+02 ;     C7 - C3   - H9       CT -   CT - HC  
     7      4     17      1 ;    1.0968e+02    3.6208e+02 ;     C7 - C4   - H10      CT -   CT - HC  
     7      4     18      1 ;    1.0968e+02    3.6208e+02 ;     C7 - C4   - H11      CT -   CT - HC  
     7      4     19      1 ;    1.0968e+02    3.6208e+02 ;     C7 - C4   - H12      CT -   CT - HC  
     7      6     22      1 ;    1.0968e+02    3.6208e+02 ;     C7 - C6   - H15      CT -   CT - HC  
     7      6     23      1 ;    1.0968e+02    3.6208e+02 ;     C7 - C6   - H16      CT -   CT - HC  
     8      1      9      1 ;    1.0773e+02    2.9957e+02 ;     H1 - C1   - H2       HC -   CT - HC  
     8      1     10      1 ;    1.0773e+02    2.9957e+02 ;     H1 - C1   - H3       HC -   CT - HC  
     9      1     10      1 ;    1.0773e+02    2.9957e+02 ;     H2 - C1   - H3       HC -   CT - HC  
    11      2     12      1 ;    1.0773e+02    2.9957e+02 ;     H4 - C2   - H5       HC -   CT - HC  
    11      2     13      1 ;    1.0773e+02    2.9957e+02 ;     H4 - C2   - H6       HC -   CT - HC  
    12      2     13      1 ;    1.0773e+02    2.9957e+02 ;     H5 - C2   - H6       HC -   CT - HC  
    14      3     15      1 ;    1.0773e+02    2.9957e+02 ;     H7 - C3   - H8       HC -   CT - HC  
    14      3     16      1 ;    1.0773e+02    2.9957e+02 ;     H7 - C3   - H9       HC -   CT - HC  
    15      3     16      1 ;    1.0773e+02    2.9957e+02 ;     H8 - C3   - H9       HC -   CT - HC  
    17      4     18      1 ;    1.0773e+02    2.9957e+02 ;    H10 - C4   - H11      HC -   CT - HC  
    17      4     19      1 ;    1.0773e+02    2.9957e+02 ;    H10 - C4   - H12      HC -   CT - HC  
    18      4     19      1 ;    1.0773e+02    2.9957e+02 ;    H11 - C4   - H12      HC -   CT - HC  
    20      5     21      1 ;    1.0773e+02    2.9957e+02 ;    H13 - C5   - H14      HC -   CT - HC  
    22      6     23      1 ;    1.0773e+02    2.9957e+02 ;    H15 - C6   - H16      HC -   CT - HC  

[ dihedrals ] ; propers
; for gromacs 4.5 or higher, using funct 9
;    i      j      k      l   func   phase     kd      pn
     1      5      6      7      9 ;     0.00   2.17568   3 ;     C1-    C5-    C6-    C7
     1      5      6     22      9 ;     0.00   0.54392   3 ;     C1-    C5-    C6-   H15
     1      5      6     23      9 ;     0.00   0.54392   3 ;     C1-    C5-    C6-   H16
     2      7      3     14      9 ;     0.00   0.54392   3 ;     C2-    C7-    C3-    H7
     2      7      3     15      9 ;     0.00   0.54392   3 ;     C2-    C7-    C3-    H8
     2      7      3     16      9 ;     0.00   0.54392   3 ;     C2-    C7-    C3-    H9
     2      7      4     17      9 ;     0.00   0.54392   3 ;     C2-    C7-    C4-   H10
     2      7      4     18      9 ;     0.00   0.54392   3 ;     C2-    C7-    C4-   H11
     2      7      4     19      9 ;     0.00   0.54392   3 ;     C2-    C7-    C4-   H12
     2      7      6      5      9 ;     0.00   2.17568   3 ;     C2-    C7-    C6-    C5
     2      7      6     22      9 ;     0.00   0.54392   3 ;     C2-    C7-    C6-   H15
     2      7      6     23      9 ;     0.00   0.54392   3 ;     C2-    C7-    C6-   H16
     3      7      2     11      9 ;     0.00   0.54392   3 ;     C3-    C7-    C2-    H4
     3      7      2     12      9 ;     0.00   0.54392   3 ;     C3-    C7-    C2-    H5
     3      7      2     13      9 ;     0.00   0.54392   3 ;     C3-    C7-    C2-    H6
     3      7      4     17      9 ;     0.00   0.54392   3 ;     C3-    C7-    C4-   H10
     3      7      4     18      9 ;     0.00   0.54392   3 ;     C3-    C7-    C4-   H11
     3      7      4     19      9 ;     0.00   0.54392   3 ;     C3-    C7-    C4-   H12
     3      7      6      5      9 ;     0.00   2.17568   3 ;     C3-    C7-    C6-    C5
     3      7      6     22      9 ;     0.00   0.54392   3 ;     C3-    C7-    C6-   H15
     3      7      6     23      9 ;     0.00   0.54392   3 ;     C3-    C7-    C6-   H16
     4      7      2     11      9 ;     0.00   0.54392   3 ;     C4-    C7-    C2-    H4
     4      7      2     12      9 ;     0.00   0.54392   3 ;     C4-    C7-    C2-    H5
     4      7      2     13      9 ;     0.00   0.54392   3 ;     C4-    C7-    C2-    H6
     4      7      3     14      9 ;     0.00   0.54392   3 ;     C4-    C7-    C3-    H7
     4      7      3     15      9 ;     0.00   0.54392   3 ;     C4-    C7-    C3-    H8
     4      7      3     16      9 ;     0.00   0.54392   3 ;     C4-    C7-    C3-    H9
     4      7      6      5      9 ;     0.00   2.17568   3 ;     C4-    C7-    C6-    C5
     4      7      6     22      9 ;     0.00   0.54392   3 ;     C4-    C7-    C6-   H15
     4      7      6     23      9 ;     0.00   0.54392   3 ;     C4-    C7-    C6-   H16
     6      7      2     11      9 ;     0.00   0.54392   3 ;     C6-    C7-    C2-    H4
     6      7      2     12      9 ;     0.00   0.54392   3 ;     C6-    C7-    C2-    H5
     6      7      2     13      9 ;     0.00   0.54392   3 ;     C6-    C7-    C2-    H6
     6      7      3     14      9 ;     0.00   0.54392   3 ;     C6-    C7-    C3-    H7
     6      7      3     15      9 ;     0.00   0.54392   3 ;     C6-    C7-    C3-    H8
     6      7      3     16      9 ;     0.00   0.54392   3 ;     C6-    C7-    C3-    H9
     6      7      4     17      9 ;     0.00   0.54392   3 ;     C6-    C7-    C4-   H10
     6      7      4     18      9 ;     0.00   0.54392   3 ;     C6-    C7-    C4-   H11
     6      7      4     19      9 ;     0.00   0.54392   3 ;     C6-    C7-    C4-   H12
     7      6      5     20      9 ;     0.00   0.54392   3 ;     C7-    C6-    C5-   H13
     7      6      5     21      9 ;     0.00   0.54392   3 ;     C7-    C6-    C5-   H14
     8      1      5      6      9 ;     0.00   0.54392   3 ;     H1-    C1-    C5-    C6
     8      1      5     20      9 ;     0.00   0.50208   3 ;     H1-    C1-    C5-   H13
     8      1      5     21      9 ;     0.00   0.50208   3 ;     H1-    C1-    C5-   H14
     9      1      5      6      9 ;     0.00   0.54392   3 ;     H2-    C1-    C5-    C6
     9      1      5     20      9 ;     0.00   0.50208   3 ;     H2-    C1-    C5-   H13
     9      1      5     21      9 ;     0.00   0.50208   3 ;     H2-    C1-    C5-   H14
    10      1      5      6      9 ;     0.00   0.54392   3 ;     H3-    C1-    C5-    C6
    10      1      5     20      9 ;     0.00   0.50208   3 ;     H3-    C1-    C5-   H13
    10      1      5     21      9 ;     0.00   0.50208   3 ;     H3-    C1-    C5-   H14
    20      5      6     22      9 ;     0.00   0.50208   3 ;    H13-    C5-    C6-   H15
    20      5      6     23      9 ;     0.00   0.50208   3 ;    H13-    C5-    C6-   H16
    21      5      6     22      9 ;     0.00   0.50208   3 ;    H14-    C5-    C6-   H15
    21      5      6     23      9 ;     0.00   0.50208   3 ;    H14-    C5-    C6-   H16
