22_dimethylpentane
    23
   0.1160000  -0.6030000   0.9140000   4.2860000  -1.3370000   2.5310000
   3.1820000   0.3310000   4.0430000   3.1490000  -2.1000000   4.6200000
   1.4840000  -0.3500000   1.5310000   1.7430000  -1.2970000   2.7080000
   3.0860000  -1.0880000   3.4590000  -0.6810000  -0.4430000   1.6470000
  -0.0530000   0.0800000   0.0750000   0.0380000  -1.6280000   0.5380000
   4.2220000  -2.3220000   2.0570000   4.3490000  -0.5840000   1.7380000
   5.2290000  -1.2970000   3.0880000   4.0810000   0.4410000   4.6610000
   2.3160000   0.5580000   4.6740000   3.2370000   1.0910000   3.2570000
   3.0980000  -3.1300000   4.2510000   4.0800000  -1.9960000   5.1880000
   2.3170000  -1.9540000   5.3180000   2.2450000  -0.4850000   0.7560000
   1.5290000   0.6930000   1.8610000   1.7000000  -2.3300000   2.3390000
   0.9160000  -1.1950000   3.4250000
