mobley_2864987_GMX.gro created by acpype (v: 2023.10.27) on Wed May 20 23:43:05 2026
 9996
    1MOL     C1    1   2.338   2.503   2.554
    1MOL     C2    2   2.299   2.146   2.199
    1MOL     C3    3   2.386   2.457   2.418
    1MOL     C4    4   2.322   2.323   2.378
    1MOL     C5    5   2.366   2.277   2.239
    1MOL     O1    6   2.334   2.376   2.142
    1MOL     H1    7   2.385   2.599   2.580
    1MOL     H2    8   2.363   2.430   2.632
    1MOL     H3    9   2.229   2.518   2.555
    1MOL     H4   10   2.190   2.158   2.196
    1MOL     H5   11   2.330   2.116   2.099
    1MOL     H6   12   2.323   2.066   2.270
    1MOL     H7   13   2.362   2.533   2.343
    1MOL     H8   14   2.495   2.446   2.420
    1MOL     H9   15   2.348   2.247   2.453
    1MOL    H10   16   2.213   2.335   2.380
    1MOL    H11   17   2.475   2.263   2.237
    1MOL    H12   18   2.388   2.356   2.064
    2SOL     OW   19   0.230   0.628   0.113
    2SOL    HW1   20   0.137   0.626   0.150
    2SOL    HW2   21   0.231   0.589   0.021
    3SOL     OW   22   0.225   0.275   0.996
    3SOL    HW1   23   0.260   0.258   1.088
    3SOL    HW2   24   0.137   0.230   0.984
    4SOL     OW   25   0.019   0.368   0.647
    4SOL    HW1   26  -0.063   0.411   0.686
    4SOL    HW2   27  -0.009   0.295   0.584
    5SOL     OW   28   0.569   1.275   1.165
    5SOL    HW1   29   0.476   1.268   1.128
    5SOL    HW2   30   0.580   1.364   1.209
    6SOL     OW   31   1.555   1.511   0.703
    6SOL    HW1   32   1.498   1.495   0.784
    6SOL    HW2   33   1.496   1.521   0.623
    7SOL     OW   34   1.135   0.703   0.717
    7SOL    HW1   35   1.192   0.781   0.692
    7SOL    HW2   36   1.075   0.729   0.793
    8SOL     OW   37   1.755   0.607   0.231
    8SOL    HW1   38   1.743   0.594   0.132
    8SOL    HW2   39   1.725   0.526   0.280
    9SOL     OW   40   0.768   1.144   1.023
    9SOL    HW1   41   0.690   1.161   1.083
    9SOL    HW2   42   0.802   1.231   0.987
   10SOL     OW   43   0.850   0.798   1.823
   10SOL    HW1   44   0.846   0.874   1.888
   10SOL    HW2   45   0.872   0.834   1.732
   11SOL     OW   46   0.685   1.012   0.665
   11SOL    HW1   47   0.754   0.996   0.735
   11SOL    HW2   48   0.612   1.069   0.703
   12SOL     OW   49   0.686   1.161   1.803
   12SOL    HW1   50   0.746   1.240   1.817
   12SOL    HW2   51   0.600   1.192   1.762
   13SOL     OW   52   0.335   1.435   1.061
   13SOL    HW1   53   0.257   1.404   1.008
   13SOL    HW2   54   0.393   1.493   1.004
   14SOL     OW   55   1.460   1.505   1.339
   14SOL    HW1   56   1.484   1.599   1.365
   14SOL    HW2   57   1.444   1.451   1.421
   15SOL     OW   58   0.438   0.392   1.499
   15SOL    HW1   59   0.520   0.336   1.508
   15SOL    HW2   60   0.357   0.334   1.503
   16SOL     OW   61   1.603   0.447   0.737
   16SOL    HW1   62   1.529   0.493   0.687
   16SOL    HW2   63   1.654   0.515   0.790
   17SOL     OW   64   0.231   1.713   0.483
   17SOL    HW1   65   0.265   1.790   0.537
   17SOL    HW2   66   0.275   1.713   0.393
   18SOL     OW   67   1.127   1.341   1.690
   18SOL    HW1   68   1.174   1.341   1.778
   18SOL    HW2   69   1.079   1.254   1.679
   19SOL     OW   70   0.230   1.434   0.538
   19SOL    HW1   71   0.204   1.530   0.538
   19SOL    HW2   72   0.159   1.380   0.583
   20SOL     OW   73   0.240   1.091   0.886
   20SOL    HW1   74   0.254   1.007   0.938
   20SOL    HW2   75   0.185   1.155   0.941
   21SOL     OW   76   0.620   1.786   1.439
   21SOL    HW1   77   0.528   1.769   1.474
   21SOL    HW2   78   0.648   1.878   1.465
   22SOL     OW   79   0.606   0.964   0.123
   22SOL    HW1   80   0.613   1.048   0.069
   22SOL    HW2   81   0.652   0.977   0.211
   23SOL     OW   82   1.594   0.114   1.480
   23SOL    HW1   83   1.576   0.181   1.408
   23SOL    HW2   84   1.591   0.160   1.569
   24SOL     OW   85   0.122   0.643   0.563
   24SOL    HW1   86   0.077   0.555   0.580
   24SOL    HW2   87   0.121   0.697   0.647
   25SOL     OW   88   1.842   1.767   0.359
   25SOL    HW1   89   1.896   1.738   0.439
   25SOL    HW2   90   1.872   1.857   0.330
   26SOL     OW   91   0.027   1.596   0.117
   26SOL    HW1   92   0.008   1.500   0.138
   26SOL    HW2   93  -0.006   1.654   0.192
   27SOL     OW   94   1.689   0.922   0.612
   27SOL    HW1   95   1.784   0.893   0.620
   27SOL    HW2   96   1.681   0.987   0.537
   28SOL     OW   97   1.641   1.108   0.432
   28SOL    HW1   98   1.727   1.110   0.380
   28SOL    HW2   99   1.655   1.155   0.520
   29SOL     OW  100   0.113   0.737   1.597
   29SOL    HW1  101   0.201   0.724   1.642
   29SOL    HW2  102   0.100   0.834   1.575
   30SOL     OW  103   0.613   1.365   0.726
   30SOL    HW1  104   0.564   1.278   0.735
   30SOL    HW2  105   0.590   1.408   0.639
   31SOL     OW  106   1.293   1.228   1.423
   31SOL    HW1  107   1.330   1.155   1.365
   31SOL    HW2  108   1.345   1.233   1.508
   32SOL     OW  109   0.809   0.004   0.502
   32SOL    HW1  110   0.849   0.095   0.493
   32SOL    HW2  111   0.709   0.012   0.508
   33SOL     OW  112   0.197   0.976   1.264
   33SOL    HW1  113   0.286   0.931   1.250
   33SOL    HW2  114   0.124   0.911   1.245
   34SOL     OW  115   1.525   0.999   0.190
   34SOL    HW1  116   1.462   0.923   0.203
   34SOL    HW2  117   1.573   1.017   0.276
   35SOL     OW  118   1.187   1.792   1.616
   35SOL    HW1  119   1.211   1.852   1.540
   35SOL    HW2  120   1.194   1.697   1.586
   36SOL     OW  121   0.317   0.251   1.801
   36SOL    HW1  122   0.388   0.322   1.807
   36SOL    HW2  123   0.229   0.290   1.829
   37SOL     OW  124   1.466   1.417   0.953
   37SOL    HW1  125   1.407   1.423   1.033
   37SOL    HW2  126   1.451   1.329   0.907
   38SOL     OW  127   1.667   1.714   0.572
   38SOL    HW1  128   1.626   1.691   0.484
   38SOL    HW2  129   1.649   1.640   0.637
   39SOL     OW  130   0.598   0.729   0.270
   39SOL    HW1  131   0.622   0.798   0.202
   39SOL    HW2  132   0.520   0.762   0.324
   40SOL     OW  133   1.281   0.345   0.944
   40SOL    HW1  134   1.195   0.295   0.931
   40SOL    HW2  135   1.343   0.291   1.000
   41SOL     OW  136   1.576   1.662   0.307
   41SOL    HW1  137   1.665   1.708   0.310
   41SOL    HW2  138   1.555   1.638   0.212
   42SOL     OW  139   0.807   0.605   1.465
   42SOL    HW1  140   0.760   0.602   1.554
   42SOL    HW2  141   0.756   0.550   1.399
   43SOL     OW  142   1.394   0.469   1.674
   43SOL    HW1  143   1.374   0.512   1.762
   43SOL    HW2  144   1.472   0.407   1.683
   44SOL     OW  145   0.973   0.890   1.572
   44SOL    HW1  146   1.019   0.806   1.543
   44SOL    HW2  147   0.917   0.924   1.497
   45SOL     OW  148   0.991   0.410   1.242
   45SOL    HW1  149   0.914   0.444   1.296
   45SOL    HW2  150   0.957   0.359   1.163
   46SOL     OW  151   1.041   0.701   0.429
   46SOL    HW1  152   1.067   0.697   0.525
   46SOL    HW2  153   0.956   0.650   0.415
   47SOL     OW  154   0.076   0.811   0.789
   47SOL    HW1  155   0.175   0.799   0.798
   47SOL    HW2  156   0.052   0.906   0.810
   48SOL     OW  157   0.130   1.821   1.571
   48SOL    HW1  158   0.120   1.806   1.670
   48SOL    HW2  159   0.044   1.857   1.535
   49SOL     OW  160   0.865   0.348   0.195
   49SOL    HW1  161   0.924   0.411   0.146
   49SOL    HW2  162   0.884   0.254   0.166
   50SOL     OW  163   1.719   0.585   1.831
   50SOL    HW1  164   1.693   0.674   1.795
   50SOL    HW2  165   1.717   0.517   1.758
   51SOL     OW  166   1.362   1.144   0.545
   51SOL    HW1  167   1.445   1.115   0.497
   51SOL    HW2  168   1.313   1.211   0.489
   52SOL     OW  169   0.550   0.196   0.885
   52SOL    HW1  170   0.545   0.191   0.985
   52SOL    HW2  171   0.552   0.292   0.856
   53SOL     OW  172   1.008   1.456   0.477
   53SOL    HW1  173   0.962   1.528   0.425
   53SOL    HW2  174   1.004   1.476   0.575
   54SOL     OW  175   0.351   1.801   0.853
   54SOL    HW1  176   0.401   1.715   0.859
   54SOL    HW2  177   0.416   1.878   0.850
   55SOL     OW  178   1.795   1.066   0.873
   55SOL    HW1  179   1.733   1.051   0.797
   55SOL    HW2  180   1.743   1.077   0.958
   56SOL     OW  181   1.227   1.550   1.506
   56SOL    HW1  182   1.233   1.473   1.570
   56SOL    HW2  183   1.175   1.524   1.426
   57SOL     OW  184   0.321   0.943   0.242
   57SOL    HW1  185   0.403   0.982   0.200
   57SOL    HW2  186   0.294   0.861   0.193
   58SOL     OW  187   1.458   0.735   0.728
   58SOL    HW1  188   1.453   0.670   0.803
   58SOL    HW2  189   1.538   0.794   0.741
   59SOL     OW  190   0.461   1.266   1.727
   59SOL    HW1  191   0.411   1.267   1.641
   59SOL    HW2  192   0.398   1.248   1.803
   60SOL     OW  193   1.111   1.776   0.237
   60SOL    HW1  194   1.051   1.714   0.287
   60SOL    HW2  195   1.142   1.732   0.152
   61SOL     OW  196   0.202   0.285   1.498
   61SOL    HW1  197   0.122   0.345   1.485
   61SOL    HW2  198   0.192   0.236   1.584
   62SOL     OW  199   1.632   1.377   0.081
   62SOL    HW1  200   1.600   1.471   0.071
   62SOL    HW2  201   1.556   1.314   0.069
   63SOL     OW  202   0.464   1.743   0.323
   63SOL    HW1  203   0.497   1.782   0.409
   63SOL    HW2  204   0.540   1.736   0.258
   64SOL     OW  205   1.400   0.107   0.426
   64SOL    HW1  206   1.376   0.070   0.336
   64SOL    HW2  207   1.499   0.123   0.430
   65SOL     OW  208   0.249   1.785   1.241
   65SOL    HW1  209   0.306   1.720   1.291
   65SOL    HW2  210   0.233   1.752   1.148
   66SOL     OW  211   0.940   1.698   0.904
   66SOL    HW1  212   1.020   1.641   0.925
   66SOL    HW2  213   0.891   1.658   0.827
   67SOL     OW  214   0.382   0.700   0.480
   67SOL    HW1  215   0.427   0.610   0.477
   67SOL    HW2  216   0.288   0.689   0.513
   68SOL     OW  217   1.547   0.222   1.729
   68SOL    HW1  218   1.542   0.259   1.821
   68SOL    HW2  219   1.475   0.153   1.717
   69SOL     OW  220   0.614   0.122   0.117
   69SOL    HW1  221   0.712   0.100   0.124
   69SOL    HW2  222   0.583   0.105   0.024
   70SOL     OW  223   0.781   0.264   1.749
   70SOL    HW1  224   0.848   0.203   1.792
   70SOL    HW2  225   0.708   0.283   1.814
   71SOL     OW  226   0.888   1.514   1.195
   71SOL    HW1  227   0.865   1.489   1.101
   71SOL    HW2  228   0.949   1.445   1.234
   72SOL     OW  229   1.351   0.590   1.433
   72SOL    HW1  230   1.379   0.547   1.518
   72SOL    HW2  231   1.376   0.686   1.434
   73SOL     OW  232   0.803   1.402   0.924
   73SOL    HW1  233   0.893   1.416   0.882
   73SOL    HW2  234   0.732   1.404   0.853
   74SOL     OW  235   0.922   0.503   0.899
   74SOL    HW1  236   0.897   0.494   0.803
   74SOL    HW2  237   0.970   0.421   0.930
   75SOL     OW  238   0.539   0.064   0.512
   75SOL    HW1  239   0.458   0.065   0.570
   75SOL    HW2  240   0.542   0.147   0.457
   76SOL     OW  241   1.434   1.188   0.041
   76SOL    HW1  242   1.466   1.112   0.098
   76SOL    HW2  243   1.342   1.215   0.071
   77SOL     OW  244   0.297   0.035   0.171
   77SOL    HW1  245   0.346   0.119   0.150
   77SOL    HW2  246   0.359  -0.030   0.216
   78SOL     OW  247   0.935   0.236   0.480
   78SOL    HW1  248   0.887   0.277   0.402
   78SOL    HW2  249   1.034   0.234   0.461
   79SOL     OW  250   1.076   0.683   1.464
   79SOL    HW1  251   0.996   0.622   1.467
   79SOL    HW2  252   1.157   0.630   1.440
   80SOL     OW  253   1.227   1.570   0.793
   80SOL    HW1  254   1.248   1.644   0.728
   80SOL    HW2  255   1.295   1.570   0.866
   81SOL     OW  256   0.459   1.152   0.741
   81SOL    HW1  257   0.388   1.125   0.806
   81SOL    HW2  258   0.433   1.124   0.648
   82SOL     OW  259   1.271   1.797   0.591
   82SOL    HW1  260   1.315   1.861   0.527
   82SOL    HW2  261   1.221   1.849   0.661
   83SOL     OW  262   1.032   0.549   0.016
   83SOL    HW1  263   0.991   0.631  -0.023
   83SOL    HW2  264   1.096   0.575   0.089
   84SOL     OW  265   0.078   0.556   1.386
   84SOL    HW1  266   0.170   0.555   1.345
   84SOL    HW2  267   0.072   0.630   1.453
   85SOL     OW  268   0.561   0.222   1.147
   85SOL    HW1  269   0.599   0.138   1.184
   85SOL    HW2  270   0.473   0.241   1.191
   86SOL     OW  271   0.866   0.454   0.642
   86SOL    HW1  272   0.834   0.526   0.580
   86SOL    HW2  273   0.890   0.373   0.589
   87SOL     OW  274   1.017   0.039   0.753
   87SOL    HW1  275   0.945   0.044   0.684
   87SOL    HW2  276   0.993  -0.030   0.822
   88SOL     OW  277   1.429   1.173   0.867
   88SOL    HW1  278   1.374   1.089   0.860
   88SOL    HW2  279   1.455   1.202   0.775
   89SOL     OW  280   1.466   0.590   0.992
   89SOL    HW1  281   1.436   0.495   0.999
   89SOL    HW2  282   1.539   0.606   1.058
   90SOL     OW  283   1.857   0.833   0.377
   90SOL    HW1  284   1.899   0.769   0.441
   90SOL    HW2  285   1.819   0.782   0.299
   91SOL     OW  286   0.488   1.385   0.174
   91SOL    HW1  287   0.401   1.370   0.221
   91SOL    HW2  288   0.471   1.411   0.079
   92SOL     OW  289   1.664   1.280   0.657
   92SOL    HW1  290   1.763   1.288   0.671
   92SOL    HW2  291   1.619   1.364   0.688
   93SOL     OW  292   1.390   0.575   0.078
   93SOL    HW1  293   1.336   0.554   0.159
   93SOL    HW2  294   1.481   0.534   0.087
   94SOL     OW  295   0.527   0.256   0.328
   94SOL    HW1  296   0.554   0.197   0.253
   94SOL    HW2  297   0.527   0.351   0.297
   95SOL     OW  298   1.754   1.223   1.588
   95SOL    HW1  299   1.845   1.184   1.575
   95SOL    HW2  300   1.762   1.319   1.612
   96SOL     OW  301   1.064   1.347   1.340
   96SOL    HW1  302   0.984   1.324   1.395
   96SOL    HW2  303   1.147   1.321   1.389
   97SOL     OW  304   1.592   1.629   1.625
   97SOL    HW1  305   1.619   1.663   1.535
   97SOL    HW2  306   1.671   1.591   1.671
   98SOL     OW  307   1.111   1.195   1.100
   98SOL    HW1  308   1.071   1.239   1.181
   98SOL    HW2  309   1.070   1.232   1.017
   99SOL     OW  310   1.638   1.099   1.079
   99SOL    HW1  311   1.643   1.180   1.138
   99SOL    HW2  312   1.552   1.101   1.028
  100SOL     OW  313   0.915   0.089   1.402
  100SOL    HW1  314   0.940   0.069   1.307
  100SOL    HW2  315   0.987   0.145   1.444
  101SOL     OW  316   0.980   1.116   1.719
  101SOL    HW1  317   0.881   1.122   1.729
  101SOL    HW2  318   1.003   1.036   1.663
  102SOL     OW  319   0.705   1.050   0.368
  102SOL    HW1  320   0.691   1.057   0.467
  102SOL    HW2  321   0.789   0.999   0.350
  103SOL     OW  322   0.410   0.813   1.251
  103SOL    HW1  323   0.496   0.825   1.301
  103SOL    HW2  324   0.368   0.726   1.278
  104SOL     OW  325   1.274   0.386   1.262
  104SOL    HW1  326   1.295   0.460   1.326
  104SOL    HW2  327   1.185   0.403   1.219
  105SOL     OW  328   0.064   1.564   1.331
  105SOL    HW1  329   0.018   1.646   1.297
  105SOL    HW2  330   0.162   1.583   1.340
  106SOL     OW  331   0.367   1.100   0.501
  106SOL    HW1  332   0.360   1.183   0.445
  106SOL    HW2  333   0.371   1.020   0.441
  107SOL     OW  334   0.566   0.537   0.865
  107SOL    HW1  335   0.578   0.603   0.791
  107SOL    HW2  336   0.612   0.571   0.948
  108SOL     OW  337   1.252   1.348   0.388
  108SOL    HW1  338   1.302   1.425   0.428
  108SOL    HW2  339   1.157   1.350   0.420
  109SOL     OW  340   1.272   1.445   1.142
  109SOL    HW1  341   1.319   1.458   1.229
  109SOL    HW2  342   1.206   1.371   1.151
  110SOL     OW  343   1.582   0.639   0.472
  110SOL    HW1  344   1.551   0.700   0.545
  110SOL    HW2  345   1.632   0.691   0.403
  111SOL     OW  346   0.354   1.510   1.329
  111SOL    HW1  347   0.333   1.466   1.242
  111SOL    HW2  348   0.451   1.536   1.332
  112SOL     OW  349   0.402   0.751   1.598
  112SOL    HW1  350   0.470   0.806   1.551
  112SOL    HW2  351   0.442   0.663   1.625
  113SOL     OW  352   1.587   0.779   1.670
  113SOL    HW1  353   1.495   0.817   1.665
  113SOL    HW2  354   1.647   0.826   1.605
  114SOL     OW  355   1.013   0.105   1.770
  114SOL    HW1  356   1.019   0.190   1.718
  114SOL    HW2  357   1.045   0.029   1.713
  115SOL     OW  358   0.504   0.050   1.740
  115SOL    HW1  359   0.462  -0.007   1.670
  115SOL    HW2  360   0.438   0.119   1.772
  116SOL     OW  361   0.573   0.870   1.029
  116SOL    HW1  362   0.617   0.959   1.020
  116SOL    HW2  363   0.510   0.870   1.106
  117SOL     OW  364   1.360   0.862   1.045
  117SOL    HW1  365   1.285   0.862   0.979
  117SOL    HW2  366   1.397   0.770   1.054
  118SOL     OW  367   1.209   0.525   0.275
  118SOL    HW1  368   1.222   0.441   0.329
  118SOL    HW2  369   1.180   0.599   0.335
  119SOL     OW  370   0.307   0.213   1.231
  119SOL    HW1  371   0.284   0.250   1.321
  119SOL    HW2  372   0.277   0.118   1.225
  120SOL     OW  373   0.037   1.310   1.282
  120SOL    HW1  374   0.090   1.261   1.350
  120SOL    HW2  375   0.059   1.408   1.287
  121SOL     OW  376   0.732   0.634   1.064
  121SOL    HW1  377   0.791   0.608   0.988
  121SOL    HW2  378   0.704   0.730   1.053
  122SOL     OW  379   1.728   0.935   1.854
  122SOL    HW1  380   1.682   0.928   1.765
  122SOL    HW2  381   1.666   0.979   1.920
  123SOL     OW  382   0.307   0.063   0.618
  123SOL    HW1  383   0.296   0.157   0.651
  123SOL    HW2  384   0.302   0.000   0.695
  124SOL     OW  385   1.622   0.367   0.374
  124SOL    HW1  386   1.624   0.291   0.438
  124SOL    HW2  387   1.574   0.444   0.414
  125SOL     OW  388   1.023   0.766   0.966
  125SOL    HW1  389   1.038   0.787   1.062
  125SOL    HW2  390   0.993   0.671   0.957
  126SOL     OW  391   0.980   1.573   1.700
  126SOL    HW1  392   0.960   1.617   1.612
  126SOL    HW2  393   1.019   1.482   1.684
  127SOL     OW  394   1.859   1.518   1.605
  127SOL    HW1  395   1.873   1.545   1.510
  127SOL    HW2  396   1.942   1.540   1.658
  128SOL     OW  397   0.350   0.898   1.804
  128SOL    HW1  398   0.426   0.942   1.852
  128SOL    HW2  399   0.385   0.851   1.722
  129SOL     OW  400   1.540   0.274   0.125
  129SOL    HW1  401   1.479   0.199   0.148
  129SOL    HW2  402   1.562   0.326   0.208
  130SOL     OW  403   1.303   0.838   0.042
  130SOL    HW1  404   1.337   0.745   0.057
  130SOL    HW2  405   1.321   0.865  -0.053
  131SOL     OW  406   1.068   1.333   0.849
  131SOL    HW1  407   1.075   1.249   0.794
  131SOL    HW2  408   1.130   1.402   0.813
  132SOL     OW  409   0.319   0.810   0.949
  132SOL    HW1  410   0.412   0.846   0.954
  132SOL    HW2  411   0.313   0.725   1.001
  133SOL     OW  412   0.339   0.509   1.006
  133SOL    HW1  413   0.287   0.426   0.989
  133SOL    HW2  414   0.416   0.514   0.942
  134SOL     OW  415   1.138   0.380   1.678
  134SOL    HW1  416   1.093   0.443   1.742
  134SOL    HW2  417   1.231   0.411   1.661
  135SOL     OW  418   1.160   0.207   1.477
  135SOL    HW1  419   1.160   0.271   1.554
  135SOL    HW2  420   1.188   0.255   1.394
  136SOL     OW  421   0.008   1.326   0.200
  136SOL    HW1  422  -0.085   1.347   0.169
  136SOL    HW2  423   0.018   1.227   0.213
  137SOL     OW  424   0.088   1.801   0.927
  137SOL    HW1  425   0.046   1.715   0.900
  137SOL    HW2  426   0.182   1.804   0.893
  138SOL     OW  427   0.504   1.568   0.910
  138SOL    HW1  428   0.570   1.642   0.919
  138SOL    HW2  429   0.548   1.489   0.868
  139SOL     OW  430   1.002   0.796   1.238
  139SOL    HW1  431   1.043   0.764   1.324
  139SOL    HW2  432   0.906   0.769   1.235
  140SOL     OW  433   0.040   0.544   1.114
  140SOL    HW1  434   0.125   0.511   1.073
  140SOL    HW2  435   0.053   0.559   1.212
  141SOL     OW  436   0.189   0.520   1.722
  141SOL    HW1  437   0.248   0.480   1.652
  141SOL    HW2  438   0.131   0.591   1.681
  142SOL     OW  439   1.369   0.950   1.660
  142SOL    HW1  440   1.408   1.039   1.680
  142SOL    HW2  441   1.379   0.930   1.563
  143SOL     OW  442   0.815   0.572   0.325
  143SOL    HW1  443   0.822   0.483   0.279
  143SOL    HW2  444   0.721   0.606   0.317
  144SOL     OW  445   1.657   0.604   1.206
  144SOL    HW1  446   1.619   0.535   1.268
  144SOL    HW2  447   1.739   0.568   1.162
  145SOL     OW  448   0.252   1.564   1.744
  145SOL    HW1  449   0.222   1.621   1.820
  145SOL    HW2  450   0.245   1.467   1.770
  146SOL     OW  451   0.671   0.464   1.269
  146SOL    HW1  452   0.637   0.375   1.239
  146SOL    HW2  453   0.697   0.518   1.189
  147SOL     OW  454   0.930   1.678   1.465
  147SOL    HW1  455   0.906   1.660   1.370
  147SOL    HW2  456   0.960   1.772   1.475
  148SOL     OW  457   0.473   0.500   0.191
  148SOL    HW1  458   0.534   0.580   0.195
  148SOL    HW2  459   0.378   0.531   0.198
  149SOL     OW  460   0.159   1.137   1.466
  149SOL    HW1  461   0.181   1.076   1.542
  149SOL    HW2  462   0.169   1.088   1.380
  150SOL     OW  463   1.347   1.059   1.234
  150SOL    HW1  464   1.371   0.996   1.160
  150SOL    HW2  465   1.257   1.099   1.216
  151SOL     OW  466   1.302   0.855   0.309
  151SOL    HW1  467   1.216   0.824   0.351
  151SOL    HW2  468   1.298   0.841   0.210
  152SOL     OW  469   1.759   1.747   1.154
  152SOL    HW1  470   1.820   1.777   1.081
  152SOL    HW2  471   1.721   1.658   1.132
  153SOL     OW  472   1.252   1.731   1.128
  153SOL    HW1  473   1.336   1.736   1.074
  153SOL    HW2  474   1.229   1.635   1.146
  154SOL     OW  475   0.083   1.258   1.022
  154SOL    HW1  476   0.078   1.257   1.122
  154SOL    HW2  477   0.000   1.217   0.984
  155SOL     OW  478   0.688   1.662   1.716
  155SOL    HW1  479   0.632   1.743   1.725
  155SOL    HW2  480   0.740   1.666   1.630
  156SOL     OW  481   0.903   0.086   0.133
  156SOL    HW1  482   0.954   0.087   0.047
  156SOL    HW2  483   0.959   0.044   0.204
  157SOL     OW  484   1.726   0.135   0.523
  157SOL    HW1  485   1.799   0.118   0.456
  157SOL    HW2  486   1.695   0.048   0.561
  158SOL     OW  487   1.388   1.573   0.477
  158SOL    HW1  488   1.455   1.585   0.403
  158SOL    HW2  489   1.348   1.662   0.500
  159SOL     OW  490   0.130   1.794   1.851
  159SOL    HW1  491   0.089   1.720   1.904
  159SOL    HW2  492   0.194   1.845   1.909
  160SOL     OW  493   1.280   0.927   0.672
  160SOL    HW1  494   1.340   0.846   0.674
  160SOL    HW2  495   1.320   0.996   0.612
  161SOL     OW  496   0.830   1.273   1.422
  161SOL    HW1  497   0.825   1.306   1.517
  161SOL    HW2  498   0.744   1.292   1.376
  162SOL     OW  499   0.672   1.616   0.154
  162SOL    HW1  500   0.681   1.626   0.055
  162SOL    HW2  501   0.632   1.527   0.175
  163SOL     OW  502   1.650   1.720   1.394
  163SOL    HW1  503   1.703   1.730   1.310
  163SOL    HW2  504   1.623   1.810   1.428
  164SOL     OW  505   1.841   0.175   0.963
  164SOL    HW1  506   1.880   0.090   0.927
  164SOL    HW2  507   1.743   0.177   0.944
  165SOL     OW  508   0.263   0.326   0.720
  165SOL    HW1  509   0.184   0.377   0.686
  165SOL    HW2  510   0.254   0.311   0.818
  166SOL     OW  511   1.194   1.612   0.031
  166SOL    HW1  512   1.200   1.519   0.068
  166SOL    HW2  513   1.135   1.612  -0.049
  167SOL     OW  514   0.822   1.002   1.372
  167SOL    HW1  515   0.862   1.001   1.280
  167SOL    HW2  516   0.832   1.094   1.412
  168SOL     OW  517   0.916   0.910   0.291
  168SOL    HW1  518   0.979   0.948   0.223
  168SOL    HW2  519   0.956   0.827   0.330
  169SOL     OW  520   1.504   1.607   0.044
  169SOL    HW1  521   1.412   1.644   0.051
  169SOL    HW2  522   1.542   1.627  -0.046
  170SOL     OW  523   0.372   1.288   1.490
  170SOL    HW1  524   0.359   1.381   1.456
  170SOL    HW2  525   0.288   1.236   1.477
  171SOL     OW  526   1.614   1.292   1.289
  171SOL    HW1  527   1.674   1.295   1.369
  171SOL    HW2  528   1.539   1.356   1.302
  172SOL     OW  529   1.039   1.098   0.696
  172SOL    HW1  530   0.969   1.051   0.750
  172SOL    HW2  531   1.098   1.030   0.653
  173SOL     OW  532   1.014   0.236   0.971
  173SOL    HW1  533   1.006   0.200   0.878
  173SOL    HW2  534   1.012   0.160   1.036
  174SOL     OW  535   0.590   1.487   0.491
  174SOL    HW1  536   0.632   1.429   0.421
  174SOL    HW2  537   0.546   1.566   0.447
  175SOL     OW  538   1.709   0.385   1.381
  175SOL    HW1  539   1.782   0.454   1.385
  175SOL    HW2  540   1.737   0.310   1.322
  176SOL     OW  541   0.255   1.348   0.290
  176SOL    HW1  542   0.159   1.349   0.263
  176SOL    HW2  543   0.267   1.401   0.374
  177SOL     OW  544   0.105   1.013   1.726
  177SOL    HW1  545   0.028   0.980   1.780
  177SOL    HW2  546   0.190   0.983   1.768
  178SOL     OW  547   0.672   0.203   1.489
  178SOL    HW1  548   0.762   0.187   1.449
  178SOL    HW2  549   0.680   0.208   1.588
  179SOL     OW  550   0.075   0.345   0.033
  179SOL    HW1  551  -0.017   0.317   0.004
  179SOL    HW2  552   0.106   0.422  -0.023
  180SOL     OW  553   1.440   0.856   1.398
  180SOL    HW1  554   1.383   0.908   1.335
  180SOL    HW2  555   1.536   0.868   1.374
  181SOL     OW  556   0.072   0.166   0.318
  181SOL    HW1  557   0.055   0.249   0.264
  181SOL    HW2  558   0.162   0.129   0.296
  182SOL     OW  559   1.183   1.335   0.119
  182SOL    HW1  560   1.084   1.324   0.121
  182SOL    HW2  561   1.217   1.350   0.212
  183SOL     OW  562   0.613   0.842   1.431
  183SOL    HW1  563   0.669   0.923   1.414
  183SOL    HW2  564   0.672   0.762   1.434
  184SOL     OW  565   1.493   1.767   0.959
  184SOL    HW1  566   1.526   1.831   0.890
  184SOL    HW2  567   1.559   1.761   1.034
  185SOL     OW  568   0.716   0.565   1.708
  185SOL    HW1  569   0.735   0.630   1.782
  185SOL    HW2  570   0.776   0.485   1.717
  186SOL     OW  571   1.450   1.220   1.633
  186SOL    HW1  572   1.441   1.210   1.732
  186SOL    HW2  573   1.546   1.213   1.607
  187SOL     OW  574   0.390   1.741   1.560
  187SOL    HW1  575   0.299   1.782   1.558
  187SOL    HW2  576   0.383   1.647   1.592
  188SOL     OW  577   1.674   0.883   1.254
  188SOL    HW1  578   1.647   0.794   1.217
  188SOL    HW2  579   1.675   0.951   1.181
  189SOL     OW  580   1.225   0.325   0.449
  189SOL    HW1  581   1.290   0.251   0.438
  189SOL    HW2  582   1.245   0.375   0.533
  190SOL     OW  583   0.594   0.745   0.652
  190SOL    HW1  584   0.644   0.830   0.633
  190SOL    HW2  585   0.506   0.747   0.604
  191SOL     OW  586   1.777   0.342   1.642
  191SOL    HW1  587   1.760   0.373   1.548
  191SOL    HW2  588   1.693   0.305   1.680
  192SOL     OW  589   1.730   0.934   1.517
  192SOL    HW1  590   1.768   1.025   1.532
  192SOL    HW2  591   1.722   0.917   1.418
  193SOL     OW  592   0.859   1.374   0.016
  193SOL    HW1  593   0.813   1.389   0.104
  193SOL    HW2  594   0.903   1.459  -0.014
  194SOL     OW  595   0.661   1.790   0.953
  194SOL    HW1  596   0.615   1.878   0.940
  194SOL    HW2  597   0.760   1.802   0.946
  195SOL     OW  598   0.859   0.956   0.861
  195SOL    HW1  599   0.913   0.887   0.909
  195SOL    HW2  600   0.827   1.025   0.927
  196SOL     OW  601   1.083   0.984   0.087
  196SOL    HW1  602   1.060   1.037   0.005
  196SOL    HW2  603   1.164   0.928   0.068
  197SOL     OW  604   1.861   1.569   0.851
  197SOL    HW1  605   1.790   1.557   0.781
  197SOL    HW2  606   1.862   1.490   0.911
  198SOL     OW  607   0.221   1.314   1.844
  198SOL    HW1  608   0.156   1.241   1.823
  198SOL    HW2  609   0.225   1.328   1.942
  199SOL     OW  610   0.079   1.240   0.653
  199SOL    HW1  611   0.078   1.193   0.741
  199SOL    HW2  612   0.161   1.212   0.602
  200SOL     OW  613   0.672   1.391   1.624
  200SOL    HW1  614   0.594   1.341   1.662
  200SOL    HW2  615   0.669   1.486   1.655
  201SOL     OW  616   1.824   0.192   1.227
  201SOL    HW1  617   1.820   0.102   1.271
  201SOL    HW2  618   1.827   0.181   1.128
  202SOL     OW  619   0.428   0.424   0.520
  202SOL    HW1  620   0.458   0.352   0.458
  202SOL    HW2  621   0.389   0.384   0.603
  203SOL     OW  622   1.705   1.487   1.104
  203SOL    HW1  623   1.612   1.462   1.077
  203SOL    HW2  624   1.731   1.437   1.186
  204SOL     OW  625   0.317   0.547   1.280
  204SOL    HW1  626   0.355   0.488   1.352
  204SOL    HW2  627   0.357   0.521   1.192
  205SOL     OW  628   0.812   1.586   0.687
  205SOL    HW1  629   0.844   1.596   0.593
  205SOL    HW2  630   0.733   1.524   0.689
  206SOL     OW  631   1.424   0.214   1.112
  206SOL    HW1  632   1.476   0.149   1.167
  206SOL    HW2  633   1.375   0.277   1.173
  207SOL     OW  634   1.001   0.034   1.154
  207SOL    HW1  635   0.938  -0.038   1.123
  207SOL    HW2  636   1.094  -0.002   1.154
  208SOL     OW  637   0.770   1.330   0.301
  208SOL    HW1  638   0.724   1.243   0.318
  208SOL    HW2  639   0.861   1.327   0.342
  209SOL     OW  640   0.618   1.567   1.284
  209SOL    HW1  641   0.613   1.649   1.341
  209SOL    HW2  642   0.707   1.564   1.239
  210SOL     OW  643   1.352   0.052   0.168
  210SOL    HW1  644   1.387   0.011   0.084
  210SOL    HW2  645   1.262   0.014   0.188
  211SOL     OW  646   1.300   0.453   0.691
  211SOL    HW1  647   1.241   0.533   0.695
  211SOL    HW2  648   1.315   0.418   0.784
  212SOL     OW  649   1.593   0.221   0.882
  212SOL    HW1  650   1.509   0.220   0.936
  212SOL    HW2  651   1.595   0.304   0.826
  213SOL     OW  652   0.039   1.077   0.300
  213SOL    HW1  653   0.138   1.066   0.291
  213SOL    HW2  654  -0.001   0.991   0.332
  214SOL     OW  655   0.875   1.646   0.337
  214SOL    HW1  656   0.798   1.611   0.283
  214SOL    HW2  657   0.843   1.717   0.399
  215SOL     OW  658   0.230   0.628   1.975
  215SOL    HW1  659   0.137   0.626   2.012
  215SOL    HW2  660   0.231   0.589   1.883
  216SOL     OW  661   0.225   0.275   2.858
  216SOL    HW1  662   0.260   0.258   2.950
  216SOL    HW2  663   0.137   0.230   2.846
  217SOL     OW  664   0.019   0.368   2.509
  217SOL    HW1  665  -0.063   0.411   2.548
  217SOL    HW2  666  -0.009   0.295   2.446
  218SOL     OW  667   0.569   1.275   3.027
  218SOL    HW1  668   0.476   1.268   2.990
  218SOL    HW2  669   0.580   1.364   3.071
  219SOL     OW  670   1.555   1.511   2.565
  219SOL    HW1  671   1.498   1.495   2.646
  219SOL    HW2  672   1.496   1.521   2.485
  220SOL     OW  673   1.135   0.703   2.579
  220SOL    HW1  674   1.192   0.781   2.554
  220SOL    HW2  675   1.075   0.729   2.655
  221SOL     OW  676   1.755   0.607   2.093
  221SOL    HW1  677   1.743   0.594   1.994
  221SOL    HW2  678   1.725   0.526   2.142
  222SOL     OW  679   0.768   1.144   2.885
  222SOL    HW1  680   0.690   1.161   2.945
  222SOL    HW2  681   0.802   1.231   2.849
  223SOL     OW  682   0.850   0.798   3.685
  223SOL    HW1  683   0.846   0.874   3.750
  223SOL    HW2  684   0.872   0.834   3.594
  224SOL     OW  685   0.685   1.012   2.527
  224SOL    HW1  686   0.754   0.996   2.597
  224SOL    HW2  687   0.612   1.069   2.565
  225SOL     OW  688   0.686   1.161   3.665
  225SOL    HW1  689   0.746   1.240   3.679
  225SOL    HW2  690   0.600   1.192   3.624
  226SOL     OW  691   0.335   1.435   2.923
  226SOL    HW1  692   0.257   1.404   2.870
  226SOL    HW2  693   0.393   1.493   2.866
  227SOL     OW  694   1.460   1.505   3.201
  227SOL    HW1  695   1.484   1.599   3.227
  227SOL    HW2  696   1.444   1.451   3.283
  228SOL     OW  697   0.438   0.392   3.361
  228SOL    HW1  698   0.520   0.336   3.370
  228SOL    HW2  699   0.357   0.334   3.365
  229SOL     OW  700   1.603   0.447   2.599
  229SOL    HW1  701   1.529   0.493   2.549
  229SOL    HW2  702   1.654   0.515   2.652
  230SOL     OW  703   0.231   1.713   2.345
  230SOL    HW1  704   0.265   1.790   2.399
  230SOL    HW2  705   0.275   1.713   2.255
  231SOL     OW  706   1.127   1.341   3.552
  231SOL    HW1  707   1.174   1.341   3.640
  231SOL    HW2  708   1.079   1.254   3.541
  232SOL     OW  709   0.230   1.434   2.400
  232SOL    HW1  710   0.204   1.530   2.400
  232SOL    HW2  711   0.159   1.380   2.445
  233SOL     OW  712   0.240   1.091   2.748
  233SOL    HW1  713   0.254   1.007   2.800
  233SOL    HW2  714   0.185   1.155   2.803
  234SOL     OW  715   0.620   1.786   3.301
  234SOL    HW1  716   0.528   1.769   3.336
  234SOL    HW2  717   0.648   1.878   3.327
  235SOL     OW  718   0.606   0.964   1.985
  235SOL    HW1  719   0.613   1.048   1.931
  235SOL    HW2  720   0.652   0.977   2.073
  236SOL     OW  721   1.594   0.114   3.342
  236SOL    HW1  722   1.576   0.181   3.270
  236SOL    HW2  723   1.591   0.160   3.431
  237SOL     OW  724   0.122   0.643   2.425
  237SOL    HW1  725   0.077   0.555   2.442
  237SOL    HW2  726   0.121   0.697   2.509
  238SOL     OW  727   1.842   1.767   2.221
  238SOL    HW1  728   1.896   1.738   2.301
  238SOL    HW2  729   1.872   1.857   2.192
  239SOL     OW  730   0.027   1.596   1.979
  239SOL    HW1  731   0.008   1.500   2.000
  239SOL    HW2  732  -0.006   1.654   2.054
  240SOL     OW  733   1.689   0.922   2.474
  240SOL    HW1  734   1.784   0.893   2.482
  240SOL    HW2  735   1.681   0.987   2.399
  241SOL     OW  736   1.641   1.108   2.294
  241SOL    HW1  737   1.727   1.110   2.242
  241SOL    HW2  738   1.655   1.155   2.382
  242SOL     OW  739   0.113   0.737   3.459
  242SOL    HW1  740   0.201   0.724   3.504
  242SOL    HW2  741   0.100   0.834   3.437
  243SOL     OW  742   0.613   1.365   2.588
  243SOL    HW1  743   0.564   1.278   2.597
  243SOL    HW2  744   0.590   1.408   2.501
  244SOL     OW  745   1.293   1.228   3.285
  244SOL    HW1  746   1.330   1.155   3.227
  244SOL    HW2  747   1.345   1.233   3.370
  245SOL     OW  748   0.809   0.004   2.364
  245SOL    HW1  749   0.849   0.095   2.355
  245SOL    HW2  750   0.709   0.012   2.370
  246SOL     OW  751   0.197   0.976   3.126
  246SOL    HW1  752   0.286   0.931   3.112
  246SOL    HW2  753   0.124   0.911   3.107
  247SOL     OW  754   1.525   0.999   2.052
  247SOL    HW1  755   1.462   0.923   2.065
  247SOL    HW2  756   1.573   1.017   2.138
  248SOL     OW  757   1.187   1.792   3.478
  248SOL    HW1  758   1.211   1.852   3.402
  248SOL    HW2  759   1.194   1.697   3.448
  249SOL     OW  760   0.317   0.251   3.663
  249SOL    HW1  761   0.388   0.322   3.669
  249SOL    HW2  762   0.229   0.290   3.691
  250SOL     OW  763   1.466   1.417   2.815
  250SOL    HW1  764   1.407   1.423   2.895
  250SOL    HW2  765   1.451   1.329   2.769
  251SOL     OW  766   1.667   1.714   2.434
  251SOL    HW1  767   1.626   1.691   2.346
  251SOL    HW2  768   1.649   1.640   2.499
  252SOL     OW  769   0.598   0.729   2.132
  252SOL    HW1  770   0.622   0.798   2.064
  252SOL    HW2  771   0.520   0.762   2.186
  253SOL     OW  772   1.281   0.345   2.806
  253SOL    HW1  773   1.195   0.295   2.793
  253SOL    HW2  774   1.343   0.291   2.862
  254SOL     OW  775   1.576   1.662   2.169
  254SOL    HW1  776   1.665   1.708   2.172
  254SOL    HW2  777   1.555   1.638   2.074
  255SOL     OW  778   0.807   0.605   3.327
  255SOL    HW1  779   0.760   0.602   3.416
  255SOL    HW2  780   0.756   0.550   3.261
  256SOL     OW  781   1.394   0.469   3.536
  256SOL    HW1  782   1.374   0.512   3.624
  256SOL    HW2  783   1.472   0.407   3.545
  257SOL     OW  784   0.973   0.890   3.434
  257SOL    HW1  785   1.019   0.806   3.405
  257SOL    HW2  786   0.917   0.924   3.359
  258SOL     OW  787   0.991   0.410   3.104
  258SOL    HW1  788   0.914   0.444   3.158
  258SOL    HW2  789   0.957   0.359   3.025
  259SOL     OW  790   1.041   0.701   2.291
  259SOL    HW1  791   1.067   0.697   2.387
  259SOL    HW2  792   0.956   0.650   2.277
  260SOL     OW  793   0.076   0.811   2.651
  260SOL    HW1  794   0.175   0.799   2.660
  260SOL    HW2  795   0.052   0.906   2.672
  261SOL     OW  796   0.130   1.821   3.433
  261SOL    HW1  797   0.120   1.806   3.532
  261SOL    HW2  798   0.044   1.857   3.397
  262SOL     OW  799   0.865   0.348   2.057
  262SOL    HW1  800   0.924   0.411   2.008
  262SOL    HW2  801   0.884   0.254   2.028
  263SOL     OW  802   1.719   0.585   3.693
  263SOL    HW1  803   1.693   0.674   3.657
  263SOL    HW2  804   1.717   0.517   3.620
  264SOL     OW  805   1.362   1.144   2.407
  264SOL    HW1  806   1.445   1.115   2.359
  264SOL    HW2  807   1.313   1.211   2.351
  265SOL     OW  808   0.550   0.196   2.747
  265SOL    HW1  809   0.545   0.191   2.847
  265SOL    HW2  810   0.552   0.292   2.718
  266SOL     OW  811   1.008   1.456   2.339
  266SOL    HW1  812   0.962   1.528   2.287
  266SOL    HW2  813   1.004   1.476   2.437
  267SOL     OW  814   0.351   1.801   2.715
  267SOL    HW1  815   0.401   1.715   2.721
  267SOL    HW2  816   0.416   1.878   2.712
  268SOL     OW  817   1.795   1.066   2.735
  268SOL    HW1  818   1.733   1.051   2.659
  268SOL    HW2  819   1.743   1.077   2.820
  269SOL     OW  820   1.227   1.550   3.368
  269SOL    HW1  821   1.233   1.473   3.432
  269SOL    HW2  822   1.175   1.524   3.288
  270SOL     OW  823   0.321   0.943   2.104
  270SOL    HW1  824   0.403   0.982   2.062
  270SOL    HW2  825   0.294   0.861   2.055
  271SOL     OW  826   1.458   0.735   2.590
  271SOL    HW1  827   1.453   0.670   2.665
  271SOL    HW2  828   1.538   0.794   2.603
  272SOL     OW  829   0.461   1.266   3.589
  272SOL    HW1  830   0.411   1.267   3.503
  272SOL    HW2  831   0.398   1.248   3.665
  273SOL     OW  832   1.111   1.776   2.099
  273SOL    HW1  833   1.051   1.714   2.149
  273SOL    HW2  834   1.142   1.732   2.014
  274SOL     OW  835   0.202   0.285   3.360
  274SOL    HW1  836   0.122   0.345   3.347
  274SOL    HW2  837   0.192   0.236   3.446
  275SOL     OW  838   1.632   1.377   1.943
  275SOL    HW1  839   1.600   1.471   1.933
  275SOL    HW2  840   1.556   1.314   1.931
  276SOL     OW  841   0.464   1.743   2.185
  276SOL    HW1  842   0.497   1.782   2.271
  276SOL    HW2  843   0.540   1.736   2.120
  277SOL     OW  844   1.400   0.107   2.288
  277SOL    HW1  845   1.376   0.070   2.198
  277SOL    HW2  846   1.499   0.123   2.292
  278SOL     OW  847   0.249   1.785   3.103
  278SOL    HW1  848   0.306   1.720   3.153
  278SOL    HW2  849   0.233   1.752   3.010
  279SOL     OW  850   0.940   1.698   2.766
  279SOL    HW1  851   1.020   1.641   2.787
  279SOL    HW2  852   0.891   1.658   2.689
  280SOL     OW  853   0.382   0.700   2.342
  280SOL    HW1  854   0.427   0.610   2.339
  280SOL    HW2  855   0.288   0.689   2.375
  281SOL     OW  856   1.547   0.222   3.591
  281SOL    HW1  857   1.542   0.259   3.683
  281SOL    HW2  858   1.475   0.153   3.579
  282SOL     OW  859   0.614   0.122   1.979
  282SOL    HW1  860   0.712   0.100   1.986
  282SOL    HW2  861   0.583   0.105   1.886
  283SOL     OW  862   0.781   0.264   3.611
  283SOL    HW1  863   0.848   0.203   3.654
  283SOL    HW2  864   0.708   0.283   3.676
  284SOL     OW  865   0.888   1.514   3.057
  284SOL    HW1  866   0.865   1.489   2.963
  284SOL    HW2  867   0.949   1.445   3.096
  285SOL     OW  868   1.351   0.590   3.295
  285SOL    HW1  869   1.379   0.547   3.380
  285SOL    HW2  870   1.376   0.686   3.296
  286SOL     OW  871   0.803   1.402   2.786
  286SOL    HW1  872   0.893   1.416   2.744
  286SOL    HW2  873   0.732   1.404   2.715
  287SOL     OW  874   0.922   0.503   2.761
  287SOL    HW1  875   0.897   0.494   2.665
  287SOL    HW2  876   0.970   0.421   2.792
  288SOL     OW  877   0.539   0.064   2.374
  288SOL    HW1  878   0.458   0.065   2.432
  288SOL    HW2  879   0.542   0.147   2.319
  289SOL     OW  880   1.434   1.188   1.903
  289SOL    HW1  881   1.466   1.112   1.960
  289SOL    HW2  882   1.342   1.215   1.933
  290SOL     OW  883   0.297   0.035   2.033
  290SOL    HW1  884   0.346   0.119   2.012
  290SOL    HW2  885   0.359  -0.030   2.078
  291SOL     OW  886   0.935   0.236   2.342
  291SOL    HW1  887   0.887   0.277   2.264
  291SOL    HW2  888   1.034   0.234   2.323
  292SOL     OW  889   1.076   0.683   3.326
  292SOL    HW1  890   0.996   0.622   3.329
  292SOL    HW2  891   1.157   0.630   3.302
  293SOL     OW  892   1.227   1.570   2.655
  293SOL    HW1  893   1.248   1.644   2.590
  293SOL    HW2  894   1.295   1.570   2.728
  294SOL     OW  895   0.459   1.152   2.603
  294SOL    HW1  896   0.388   1.125   2.668
  294SOL    HW2  897   0.433   1.124   2.510
  295SOL     OW  898   1.271   1.797   2.453
  295SOL    HW1  899   1.315   1.861   2.389
  295SOL    HW2  900   1.221   1.849   2.523
  296SOL     OW  901   1.032   0.549   1.878
  296SOL    HW1  902   0.991   0.631   1.839
  296SOL    HW2  903   1.096   0.575   1.951
  297SOL     OW  904   0.078   0.556   3.248
  297SOL    HW1  905   0.170   0.555   3.207
  297SOL    HW2  906   0.072   0.630   3.315
  298SOL     OW  907   0.561   0.222   3.009
  298SOL    HW1  908   0.599   0.138   3.046
  298SOL    HW2  909   0.473   0.241   3.053
  299SOL     OW  910   0.866   0.454   2.504
  299SOL    HW1  911   0.834   0.526   2.442
  299SOL    HW2  912   0.890   0.373   2.451
  300SOL     OW  913   1.017   0.039   2.615
  300SOL    HW1  914   0.945   0.044   2.546
  300SOL    HW2  915   0.993  -0.030   2.684
  301SOL     OW  916   1.429   1.173   2.729
  301SOL    HW1  917   1.374   1.089   2.722
  301SOL    HW2  918   1.455   1.202   2.637
  302SOL     OW  919   1.466   0.590   2.854
  302SOL    HW1  920   1.436   0.495   2.861
  302SOL    HW2  921   1.539   0.606   2.920
  303SOL     OW  922   1.857   0.833   2.239
  303SOL    HW1  923   1.899   0.769   2.303
  303SOL    HW2  924   1.819   0.782   2.161
  304SOL     OW  925   0.488   1.385   2.036
  304SOL    HW1  926   0.401   1.370   2.083
  304SOL    HW2  927   0.471   1.411   1.941
  305SOL     OW  928   1.664   1.280   2.519
  305SOL    HW1  929   1.763   1.288   2.533
  305SOL    HW2  930   1.619   1.364   2.550
  306SOL     OW  931   1.390   0.575   1.940
  306SOL    HW1  932   1.336   0.554   2.021
  306SOL    HW2  933   1.481   0.534   1.949
  307SOL     OW  934   0.527   0.256   2.190
  307SOL    HW1  935   0.554   0.197   2.115
  307SOL    HW2  936   0.527   0.351   2.159
  308SOL     OW  937   1.754   1.223   3.450
  308SOL    HW1  938   1.845   1.184   3.437
  308SOL    HW2  939   1.762   1.319   3.474
  309SOL     OW  940   1.064   1.347   3.202
  309SOL    HW1  941   0.984   1.324   3.257
  309SOL    HW2  942   1.147   1.321   3.251
  310SOL     OW  943   1.592   1.629   3.487
  310SOL    HW1  944   1.619   1.663   3.397
  310SOL    HW2  945   1.671   1.591   3.533
  311SOL     OW  946   1.111   1.195   2.962
  311SOL    HW1  947   1.071   1.239   3.043
  311SOL    HW2  948   1.070   1.232   2.879
  312SOL     OW  949   1.638   1.099   2.941
  312SOL    HW1  950   1.643   1.180   3.000
  312SOL    HW2  951   1.552   1.101   2.890
  313SOL     OW  952   0.915   0.089   3.264
  313SOL    HW1  953   0.940   0.069   3.169
  313SOL    HW2  954   0.987   0.145   3.306
  314SOL     OW  955   0.980   1.116   3.581
  314SOL    HW1  956   0.881   1.122   3.591
  314SOL    HW2  957   1.003   1.036   3.525
  315SOL     OW  958   0.705   1.050   2.230
  315SOL    HW1  959   0.691   1.057   2.329
  315SOL    HW2  960   0.789   0.999   2.212
  316SOL     OW  961   0.410   0.813   3.113
  316SOL    HW1  962   0.496   0.825   3.163
  316SOL    HW2  963   0.368   0.726   3.140
  317SOL     OW  964   1.274   0.386   3.124
  317SOL    HW1  965   1.295   0.460   3.188
  317SOL    HW2  966   1.185   0.403   3.081
  318SOL     OW  967   0.064   1.564   3.193
  318SOL    HW1  968   0.018   1.646   3.159
  318SOL    HW2  969   0.162   1.583   3.202
  319SOL     OW  970   0.367   1.100   2.363
  319SOL    HW1  971   0.360   1.183   2.307
  319SOL    HW2  972   0.371   1.020   2.303
  320SOL     OW  973   0.566   0.537   2.727
  320SOL    HW1  974   0.578   0.603   2.653
  320SOL    HW2  975   0.612   0.571   2.810
  321SOL     OW  976   1.252   1.348   2.250
  321SOL    HW1  977   1.302   1.425   2.290
  321SOL    HW2  978   1.157   1.350   2.282
  322SOL     OW  979   1.272   1.445   3.004
  322SOL    HW1  980   1.319   1.458   3.091
  322SOL    HW2  981   1.206   1.371   3.013
  323SOL     OW  982   1.582   0.639   2.334
  323SOL    HW1  983   1.551   0.700   2.407
  323SOL    HW2  984   1.632   0.691   2.265
  324SOL     OW  985   0.354   1.510   3.191
  324SOL    HW1  986   0.333   1.466   3.104
  324SOL    HW2  987   0.451   1.536   3.194
  325SOL     OW  988   0.402   0.751   3.460
  325SOL    HW1  989   0.470   0.806   3.413
  325SOL    HW2  990   0.442   0.663   3.487
  326SOL     OW  991   1.587   0.779   3.532
  326SOL    HW1  992   1.495   0.817   3.527
  326SOL    HW2  993   1.647   0.826   3.467
  327SOL     OW  994   1.013   0.105   3.632
  327SOL    HW1  995   1.019   0.190   3.580
  327SOL    HW2  996   1.045   0.029   3.575
  328SOL     OW  997   0.504   0.050   3.602
  328SOL    HW1  998   0.462  -0.007   3.532
  328SOL    HW2  999   0.438   0.119   3.634
  329SOL     OW 1000   0.573   0.870   2.891
  329SOL    HW1 1001   0.617   0.959   2.882
  329SOL    HW2 1002   0.510   0.870   2.968
  330SOL     OW 1003   1.360   0.862   2.907
  330SOL    HW1 1004   1.285   0.862   2.841
  330SOL    HW2 1005   1.397   0.770   2.916
  331SOL     OW 1006   1.209   0.525   2.137
  331SOL    HW1 1007   1.222   0.441   2.191
  331SOL    HW2 1008   1.180   0.599   2.197
  332SOL     OW 1009   0.307   0.213   3.093
  332SOL    HW1 1010   0.284   0.250   3.183
  332SOL    HW2 1011   0.277   0.118   3.087
  333SOL     OW 1012   0.037   1.310   3.144
  333SOL    HW1 1013   0.090   1.261   3.212
  333SOL    HW2 1014   0.059   1.408   3.149
  334SOL     OW 1015   0.732   0.634   2.926
  334SOL    HW1 1016   0.791   0.608   2.850
  334SOL    HW2 1017   0.704   0.730   2.915
  335SOL     OW 1018   1.728   0.935   3.716
  335SOL    HW1 1019   1.682   0.928   3.627
  335SOL    HW2 1020   1.666   0.979   3.782
  336SOL     OW 1021   0.307   0.063   2.480
  336SOL    HW1 1022   0.296   0.157   2.513
  336SOL    HW2 1023   0.302   0.000   2.557
  337SOL     OW 1024   1.622   0.367   2.236
  337SOL    HW1 1025   1.624   0.291   2.300
  337SOL    HW2 1026   1.574   0.444   2.276
  338SOL     OW 1027   1.023   0.766   2.828
  338SOL    HW1 1028   1.038   0.787   2.924
  338SOL    HW2 1029   0.993   0.671   2.819
  339SOL     OW 1030   0.980   1.573   3.562
  339SOL    HW1 1031   0.960   1.617   3.474
  339SOL    HW2 1032   1.019   1.482   3.546
  340SOL     OW 1033   1.859   1.518   3.467
  340SOL    HW1 1034   1.873   1.545   3.372
  340SOL    HW2 1035   1.942   1.540   3.520
  341SOL     OW 1036   0.350   0.898   3.666
  341SOL    HW1 1037   0.426   0.942   3.714
  341SOL    HW2 1038   0.385   0.851   3.584
  342SOL     OW 1039   1.540   0.274   1.987
  342SOL    HW1 1040   1.479   0.199   2.010
  342SOL    HW2 1041   1.562   0.326   2.070
  343SOL     OW 1042   1.303   0.838   1.904
  343SOL    HW1 1043   1.337   0.745   1.919
  343SOL    HW2 1044   1.321   0.865   1.809
  344SOL     OW 1045   1.068   1.333   2.711
  344SOL    HW1 1046   1.075   1.249   2.656
  344SOL    HW2 1047   1.130   1.402   2.675
  345SOL     OW 1048   0.319   0.810   2.811
  345SOL    HW1 1049   0.412   0.846   2.816
  345SOL    HW2 1050   0.313   0.725   2.863
  346SOL     OW 1051   0.339   0.509   2.868
  346SOL    HW1 1052   0.287   0.426   2.851
  346SOL    HW2 1053   0.416   0.514   2.804
  347SOL     OW 1054   1.138   0.380   3.540
  347SOL    HW1 1055   1.093   0.443   3.604
  347SOL    HW2 1056   1.231   0.411   3.523
  348SOL     OW 1057   1.160   0.207   3.339
  348SOL    HW1 1058   1.160   0.271   3.416
  348SOL    HW2 1059   1.188   0.255   3.256
  349SOL     OW 1060   0.008   1.326   2.062
  349SOL    HW1 1061  -0.085   1.347   2.031
  349SOL    HW2 1062   0.018   1.227   2.075
  350SOL     OW 1063   0.088   1.801   2.789
  350SOL    HW1 1064   0.046   1.715   2.762
  350SOL    HW2 1065   0.182   1.804   2.755
  351SOL     OW 1066   0.504   1.568   2.772
  351SOL    HW1 1067   0.570   1.642   2.781
  351SOL    HW2 1068   0.548   1.489   2.730
  352SOL     OW 1069   1.002   0.796   3.100
  352SOL    HW1 1070   1.043   0.764   3.186
  352SOL    HW2 1071   0.906   0.769   3.097
  353SOL     OW 1072   0.040   0.544   2.976
  353SOL    HW1 1073   0.125   0.511   2.935
  353SOL    HW2 1074   0.053   0.559   3.074
  354SOL     OW 1075   0.189   0.520   3.584
  354SOL    HW1 1076   0.248   0.480   3.514
  354SOL    HW2 1077   0.131   0.591   3.543
  355SOL     OW 1078   1.369   0.950   3.522
  355SOL    HW1 1079   1.408   1.039   3.542
  355SOL    HW2 1080   1.379   0.930   3.425
  356SOL     OW 1081   0.815   0.572   2.187
  356SOL    HW1 1082   0.822   0.483   2.141
  356SOL    HW2 1083   0.721   0.606   2.179
  357SOL     OW 1084   1.657   0.604   3.068
  357SOL    HW1 1085   1.619   0.535   3.130
  357SOL    HW2 1086   1.739   0.568   3.024
  358SOL     OW 1087   0.252   1.564   3.606
  358SOL    HW1 1088   0.222   1.621   3.682
  358SOL    HW2 1089   0.245   1.467   3.632
  359SOL     OW 1090   0.671   0.464   3.131
  359SOL    HW1 1091   0.637   0.375   3.101
  359SOL    HW2 1092   0.697   0.518   3.051
  360SOL     OW 1093   0.930   1.678   3.327
  360SOL    HW1 1094   0.906   1.660   3.232
  360SOL    HW2 1095   0.960   1.772   3.337
  361SOL     OW 1096   0.473   0.500   2.053
  361SOL    HW1 1097   0.534   0.580   2.057
  361SOL    HW2 1098   0.378   0.531   2.060
  362SOL     OW 1099   0.159   1.137   3.328
  362SOL    HW1 1100   0.181   1.076   3.404
  362SOL    HW2 1101   0.169   1.088   3.242
  363SOL     OW 1102   1.347   1.059   3.096
  363SOL    HW1 1103   1.371   0.996   3.022
  363SOL    HW2 1104   1.257   1.099   3.078
  364SOL     OW 1105   1.302   0.855   2.171
  364SOL    HW1 1106   1.216   0.824   2.213
  364SOL    HW2 1107   1.298   0.841   2.072
  365SOL     OW 1108   1.759   1.747   3.016
  365SOL    HW1 1109   1.820   1.777   2.943
  365SOL    HW2 1110   1.721   1.658   2.994
  366SOL     OW 1111   1.252   1.731   2.990
  366SOL    HW1 1112   1.336   1.736   2.936
  366SOL    HW2 1113   1.229   1.635   3.008
  367SOL     OW 1114   0.083   1.258   2.884
  367SOL    HW1 1115   0.078   1.257   2.984
  367SOL    HW2 1116   0.000   1.217   2.846
  368SOL     OW 1117   0.688   1.662   3.578
  368SOL    HW1 1118   0.632   1.743   3.587
  368SOL    HW2 1119   0.740   1.666   3.492
  369SOL     OW 1120   1.726   0.135   2.385
  369SOL    HW1 1121   1.799   0.118   2.318
  369SOL    HW2 1122   1.695   0.048   2.423
  370SOL     OW 1123   1.388   1.573   2.339
  370SOL    HW1 1124   1.455   1.585   2.265
  370SOL    HW2 1125   1.348   1.662   2.362
  371SOL     OW 1126   0.130   1.794   3.713
  371SOL    HW1 1127   0.089   1.720   3.766
  371SOL    HW2 1128   0.194   1.845   3.771
  372SOL     OW 1129   1.280   0.927   2.534
  372SOL    HW1 1130   1.340   0.846   2.536
  372SOL    HW2 1131   1.320   0.996   2.474
  373SOL     OW 1132   0.830   1.273   3.284
  373SOL    HW1 1133   0.825   1.306   3.379
  373SOL    HW2 1134   0.744   1.292   3.238
  374SOL     OW 1135   0.672   1.616   2.016
  374SOL    HW1 1136   0.681   1.626   1.917
  374SOL    HW2 1137   0.632   1.527   2.037
  375SOL     OW 1138   1.650   1.720   3.256
  375SOL    HW1 1139   1.703   1.730   3.172
  375SOL    HW2 1140   1.623   1.810   3.290
  376SOL     OW 1141   1.841   0.175   2.825
  376SOL    HW1 1142   1.880   0.090   2.789
  376SOL    HW2 1143   1.743   0.177   2.806
  377SOL     OW 1144   0.263   0.326   2.582
  377SOL    HW1 1145   0.184   0.377   2.548
  377SOL    HW2 1146   0.254   0.311   2.680
  378SOL     OW 1147   1.194   1.612   1.893
  378SOL    HW1 1148   1.200   1.519   1.930
  378SOL    HW2 1149   1.135   1.612   1.813
  379SOL     OW 1150   0.822   1.002   3.234
  379SOL    HW1 1151   0.862   1.001   3.142
  379SOL    HW2 1152   0.832   1.094   3.274
  380SOL     OW 1153   0.916   0.910   2.153
  380SOL    HW1 1154   0.979   0.948   2.085
  380SOL    HW2 1155   0.956   0.827   2.192
  381SOL     OW 1156   1.504   1.607   1.906
  381SOL    HW1 1157   1.412   1.644   1.913
  381SOL    HW2 1158   1.542   1.627   1.816
  382SOL     OW 1159   0.372   1.288   3.352
  382SOL    HW1 1160   0.359   1.381   3.318
  382SOL    HW2 1161   0.288   1.236   3.339
  383SOL     OW 1162   1.614   1.292   3.151
  383SOL    HW1 1163   1.674   1.295   3.231
  383SOL    HW2 1164   1.539   1.356   3.164
  384SOL     OW 1165   1.039   1.098   2.558
  384SOL    HW1 1166   0.969   1.051   2.612
  384SOL    HW2 1167   1.098   1.030   2.515
  385SOL     OW 1168   1.014   0.236   2.833
  385SOL    HW1 1169   1.006   0.200   2.740
  385SOL    HW2 1170   1.012   0.160   2.898
  386SOL     OW 1171   0.590   1.487   2.353
  386SOL    HW1 1172   0.632   1.429   2.283
  386SOL    HW2 1173   0.546   1.566   2.309
  387SOL     OW 1174   1.709   0.385   3.243
  387SOL    HW1 1175   1.782   0.454   3.247
  387SOL    HW2 1176   1.737   0.310   3.184
  388SOL     OW 1177   0.255   1.348   2.152
  388SOL    HW1 1178   0.159   1.349   2.125
  388SOL    HW2 1179   0.267   1.401   2.236
  389SOL     OW 1180   0.105   1.013   3.588
  389SOL    HW1 1181   0.028   0.980   3.642
  389SOL    HW2 1182   0.190   0.983   3.630
  390SOL     OW 1183   0.672   0.203   3.351
  390SOL    HW1 1184   0.762   0.187   3.311
  390SOL    HW2 1185   0.680   0.208   3.450
  391SOL     OW 1186   0.075   0.345   1.895
  391SOL    HW1 1187  -0.017   0.317   1.866
  391SOL    HW2 1188   0.106   0.422   1.839
  392SOL     OW 1189   1.440   0.856   3.260
  392SOL    HW1 1190   1.383   0.908   3.197
  392SOL    HW2 1191   1.536   0.868   3.236
  393SOL     OW 1192   0.072   0.166   2.180
  393SOL    HW1 1193   0.055   0.249   2.126
  393SOL    HW2 1194   0.162   0.129   2.158
  394SOL     OW 1195   1.183   1.335   1.981
  394SOL    HW1 1196   1.084   1.324   1.983
  394SOL    HW2 1197   1.217   1.350   2.074
  395SOL     OW 1198   0.613   0.842   3.293
  395SOL    HW1 1199   0.669   0.923   3.276
  395SOL    HW2 1200   0.672   0.762   3.296
  396SOL     OW 1201   1.493   1.767   2.821
  396SOL    HW1 1202   1.526   1.831   2.752
  396SOL    HW2 1203   1.559   1.761   2.896
  397SOL     OW 1204   0.716   0.565   3.570
  397SOL    HW1 1205   0.735   0.630   3.644
  397SOL    HW2 1206   0.776   0.485   3.579
  398SOL     OW 1207   1.450   1.220   3.495
  398SOL    HW1 1208   1.441   1.210   3.594
  398SOL    HW2 1209   1.546   1.213   3.469
  399SOL     OW 1210   0.390   1.741   3.422
  399SOL    HW1 1211   0.299   1.782   3.420
  399SOL    HW2 1212   0.383   1.647   3.454
  400SOL     OW 1213   1.674   0.883   3.116
  400SOL    HW1 1214   1.647   0.794   3.079
  400SOL    HW2 1215   1.675   0.951   3.043
  401SOL     OW 1216   1.225   0.325   2.311
  401SOL    HW1 1217   1.290   0.251   2.300
  401SOL    HW2 1218   1.245   0.375   2.395
  402SOL     OW 1219   0.594   0.745   2.514
  402SOL    HW1 1220   0.644   0.830   2.495
  402SOL    HW2 1221   0.506   0.747   2.466
  403SOL     OW 1222   1.777   0.342   3.504
  403SOL    HW1 1223   1.760   0.373   3.410
  403SOL    HW2 1224   1.693   0.305   3.542
  404SOL     OW 1225   1.730   0.934   3.379
  404SOL    HW1 1226   1.768   1.025   3.394
  404SOL    HW2 1227   1.722   0.917   3.280
  405SOL     OW 1228   0.859   1.374   1.878
  405SOL    HW1 1229   0.813   1.389   1.966
  405SOL    HW2 1230   0.903   1.459   1.848
  406SOL     OW 1231   0.661   1.790   2.815
  406SOL    HW1 1232   0.615   1.878   2.802
  406SOL    HW2 1233   0.760   1.802   2.808
  407SOL     OW 1234   0.859   0.956   2.723
  407SOL    HW1 1235   0.913   0.887   2.771
  407SOL    HW2 1236   0.827   1.025   2.789
  408SOL     OW 1237   1.083   0.984   1.949
  408SOL    HW1 1238   1.060   1.037   1.867
  408SOL    HW2 1239   1.164   0.928   1.930
  409SOL     OW 1240   1.861   1.569   2.713
  409SOL    HW1 1241   1.790   1.557   2.643
  409SOL    HW2 1242   1.862   1.490   2.773
  410SOL     OW 1243   0.221   1.314   3.706
  410SOL    HW1 1244   0.156   1.241   3.685
  410SOL    HW2 1245   0.225   1.328   3.804
  411SOL     OW 1246   0.079   1.240   2.515
  411SOL    HW1 1247   0.078   1.193   2.603
  411SOL    HW2 1248   0.161   1.212   2.464
  412SOL     OW 1249   0.672   1.391   3.486
  412SOL    HW1 1250   0.594   1.341   3.524
  412SOL    HW2 1251   0.669   1.486   3.517
  413SOL     OW 1252   1.824   0.192   3.089
  413SOL    HW1 1253   1.820   0.102   3.133
  413SOL    HW2 1254   1.827   0.181   2.990
  414SOL     OW 1255   0.428   0.424   2.382
  414SOL    HW1 1256   0.458   0.352   2.320
  414SOL    HW2 1257   0.389   0.384   2.465
  415SOL     OW 1258   1.705   1.487   2.966
  415SOL    HW1 1259   1.612   1.462   2.939
  415SOL    HW2 1260   1.731   1.437   3.048
  416SOL     OW 1261   0.317   0.547   3.142
  416SOL    HW1 1262   0.355   0.488   3.214
  416SOL    HW2 1263   0.357   0.521   3.054
  417SOL     OW 1264   0.812   1.586   2.549
  417SOL    HW1 1265   0.844   1.596   2.455
  417SOL    HW2 1266   0.733   1.524   2.551
  418SOL     OW 1267   1.424   0.214   2.974
  418SOL    HW1 1268   1.476   0.149   3.029
  418SOL    HW2 1269   1.375   0.277   3.035
  419SOL     OW 1270   1.001   0.034   3.016
  419SOL    HW1 1271   0.938  -0.038   2.985
  419SOL    HW2 1272   1.094  -0.002   3.016
  420SOL     OW 1273   0.770   1.330   2.163
  420SOL    HW1 1274   0.724   1.243   2.180
  420SOL    HW2 1275   0.861   1.327   2.204
  421SOL     OW 1276   0.618   1.567   3.146
  421SOL    HW1 1277   0.613   1.649   3.203
  421SOL    HW2 1278   0.707   1.564   3.101
  422SOL     OW 1279   1.352   0.052   2.030
  422SOL    HW1 1280   1.387   0.011   1.946
  422SOL    HW2 1281   1.262   0.014   2.050
  423SOL     OW 1282   1.300   0.453   2.553
  423SOL    HW1 1283   1.241   0.533   2.557
  423SOL    HW2 1284   1.315   0.418   2.646
  424SOL     OW 1285   1.593   0.221   2.744
  424SOL    HW1 1286   1.509   0.220   2.798
  424SOL    HW2 1287   1.595   0.304   2.688
  425SOL     OW 1288   0.039   1.077   2.162
  425SOL    HW1 1289   0.138   1.066   2.153
  425SOL    HW2 1290  -0.001   0.991   2.194
  426SOL     OW 1291   0.875   1.646   2.199
  426SOL    HW1 1292   0.798   1.611   2.145
  426SOL    HW2 1293   0.843   1.717   2.261
  427SOL     OW 1294   0.230   0.628   3.837
  427SOL    HW1 1295   0.137   0.626   3.874
  427SOL    HW2 1296   0.231   0.589   3.745
  428SOL     OW 1297   0.019   0.368   4.371
  428SOL    HW1 1298  -0.063   0.411   4.410
  428SOL    HW2 1299  -0.009   0.295   4.308
  429SOL     OW 1300   1.555   1.511   4.427
  429SOL    HW1 1301   1.498   1.495   4.508
  429SOL    HW2 1302   1.496   1.521   4.347
  430SOL     OW 1303   1.135   0.703   4.441
  430SOL    HW1 1304   1.192   0.781   4.416
  430SOL    HW2 1305   1.075   0.729   4.517
  431SOL     OW 1306   1.755   0.607   3.955
  431SOL    HW1 1307   1.743   0.594   3.856
  431SOL    HW2 1308   1.725   0.526   4.004
  432SOL     OW 1309   0.685   1.012   4.389
  432SOL    HW1 1310   0.754   0.996   4.459
  432SOL    HW2 1311   0.612   1.069   4.427
  433SOL     OW 1312   1.603   0.447   4.461
  433SOL    HW1 1313   1.529   0.493   4.411
  433SOL    HW2 1314   1.654   0.515   4.514
  434SOL     OW 1315   0.231   1.713   4.207
  434SOL    HW1 1316   0.265   1.790   4.261
  434SOL    HW2 1317   0.275   1.713   4.117
  435SOL     OW 1318   0.230   1.434   4.262
  435SOL    HW1 1319   0.204   1.530   4.262
  435SOL    HW2 1320   0.159   1.380   4.307
  436SOL     OW 1321   0.240   1.091   4.610
  436SOL    HW1 1322   0.254   1.007   4.662
  436SOL    HW2 1323   0.185   1.155   4.665
  437SOL     OW 1324   0.606   0.964   3.847
  437SOL    HW1 1325   0.613   1.048   3.793
  437SOL    HW2 1326   0.652   0.977   3.935
  438SOL     OW 1327   0.122   0.643   4.287
  438SOL    HW1 1328   0.077   0.555   4.304
  438SOL    HW2 1329   0.121   0.697   4.371
  439SOL     OW 1330   1.842   1.767   4.083
  439SOL    HW1 1331   1.896   1.738   4.163
  439SOL    HW2 1332   1.872   1.857   4.054
  440SOL     OW 1333   0.027   1.596   3.841
  440SOL    HW1 1334   0.008   1.500   3.862
  440SOL    HW2 1335  -0.006   1.654   3.916
  441SOL     OW 1336   1.689   0.922   4.336
  441SOL    HW1 1337   1.784   0.893   4.344
  441SOL    HW2 1338   1.681   0.987   4.261
  442SOL     OW 1339   1.641   1.108   4.156
  442SOL    HW1 1340   1.727   1.110   4.104
  442SOL    HW2 1341   1.655   1.155   4.244
  443SOL     OW 1342   0.613   1.365   4.450
  443SOL    HW1 1343   0.564   1.278   4.459
  443SOL    HW2 1344   0.590   1.408   4.363
  444SOL     OW 1345   0.809   0.004   4.226
  444SOL    HW1 1346   0.849   0.095   4.217
  444SOL    HW2 1347   0.709   0.012   4.232
  445SOL     OW 1348   1.525   0.999   3.914
  445SOL    HW1 1349   1.462   0.923   3.927
  445SOL    HW2 1350   1.573   1.017   4.000
  446SOL     OW 1351   1.466   1.417   4.677
  446SOL    HW1 1352   1.407   1.423   4.757
  446SOL    HW2 1353   1.451   1.329   4.631
  447SOL     OW 1354   1.667   1.714   4.296
  447SOL    HW1 1355   1.626   1.691   4.208
  447SOL    HW2 1356   1.649   1.640   4.361
  448SOL     OW 1357   0.598   0.729   3.994
  448SOL    HW1 1358   0.622   0.798   3.926
  448SOL    HW2 1359   0.520   0.762   4.048
  449SOL     OW 1360   1.281   0.345   4.668
  449SOL    HW1 1361   1.195   0.295   4.655
  449SOL    HW2 1362   1.343   0.291   4.724
  450SOL     OW 1363   1.576   1.662   4.031
  450SOL    HW1 1364   1.665   1.708   4.034
  450SOL    HW2 1365   1.555   1.638   3.936
  451SOL     OW 1366   1.041   0.701   4.153
  451SOL    HW1 1367   1.067   0.697   4.249
  451SOL    HW2 1368   0.956   0.650   4.139
  452SOL     OW 1369   0.076   0.811   4.513
  452SOL    HW1 1370   0.175   0.799   4.522
  452SOL    HW2 1371   0.052   0.906   4.534
  453SOL     OW 1372   0.865   0.348   3.919
  453SOL    HW1 1373   0.924   0.411   3.870
  453SOL    HW2 1374   0.884   0.254   3.890
  454SOL     OW 1375   1.362   1.144   4.269
  454SOL    HW1 1376   1.445   1.115   4.221
  454SOL    HW2 1377   1.313   1.211   4.213
  455SOL     OW 1378   1.008   1.456   4.201
  455SOL    HW1 1379   0.962   1.528   4.149
  455SOL    HW2 1380   1.004   1.476   4.299
  456SOL     OW 1381   0.351   1.801   4.577
  456SOL    HW1 1382   0.401   1.715   4.583
  456SOL    HW2 1383   0.416   1.878   4.574
  457SOL     OW 1384   1.795   1.066   4.597
  457SOL    HW1 1385   1.733   1.051   4.521
  457SOL    HW2 1386   1.743   1.077   4.682
  458SOL     OW 1387   0.321   0.943   3.966
  458SOL    HW1 1388   0.403   0.982   3.924
  458SOL    HW2 1389   0.294   0.861   3.917
  459SOL     OW 1390   1.458   0.735   4.452
  459SOL    HW1 1391   1.453   0.670   4.527
  459SOL    HW2 1392   1.538   0.794   4.465
  460SOL     OW 1393   1.111   1.776   3.961
  460SOL    HW1 1394   1.051   1.714   4.011
  460SOL    HW2 1395   1.142   1.732   3.876
  461SOL     OW 1396   1.632   1.377   3.805
  461SOL    HW1 1397   1.600   1.471   3.795
  461SOL    HW2 1398   1.556   1.314   3.793
  462SOL     OW 1399   0.464   1.743   4.047
  462SOL    HW1 1400   0.497   1.782   4.133
  462SOL    HW2 1401   0.540   1.736   3.982
  463SOL     OW 1402   1.400   0.107   4.150
  463SOL    HW1 1403   1.376   0.070   4.060
  463SOL    HW2 1404   1.499   0.123   4.154
  464SOL     OW 1405   0.382   0.700   4.204
  464SOL    HW1 1406   0.427   0.610   4.201
  464SOL    HW2 1407   0.288   0.689   4.237
  465SOL     OW 1408   0.614   0.122   3.841
  465SOL    HW1 1409   0.712   0.100   3.848
  465SOL    HW2 1410   0.583   0.105   3.748
  466SOL     OW 1411   0.539   0.064   4.236
  466SOL    HW1 1412   0.458   0.065   4.294
  466SOL    HW2 1413   0.542   0.147   4.181
  467SOL     OW 1414   1.434   1.188   3.765
  467SOL    HW1 1415   1.466   1.112   3.822
  467SOL    HW2 1416   1.342   1.215   3.795
  468SOL     OW 1417   0.297   0.035   3.895
  468SOL    HW1 1418   0.346   0.119   3.874
  468SOL    HW2 1419   0.359  -0.030   3.940
  469SOL     OW 1420   0.935   0.236   4.204
  469SOL    HW1 1421   0.887   0.277   4.126
  469SOL    HW2 1422   1.034   0.234   4.185
  470SOL     OW 1423   1.227   1.570   4.517
  470SOL    HW1 1424   1.248   1.644   4.452
  470SOL    HW2 1425   1.295   1.570   4.590
  471SOL     OW 1426   0.459   1.152   4.465
  471SOL    HW1 1427   0.388   1.125   4.530
  471SOL    HW2 1428   0.433   1.124   4.372
  472SOL     OW 1429   1.271   1.797   4.315
  472SOL    HW1 1430   1.315   1.861   4.251
  472SOL    HW2 1431   1.221   1.849   4.385
  473SOL     OW 1432   1.032   0.549   3.740
  473SOL    HW1 1433   0.991   0.631   3.701
  473SOL    HW2 1434   1.096   0.575   3.813
  474SOL     OW 1435   0.866   0.454   4.366
  474SOL    HW1 1436   0.834   0.526   4.304
  474SOL    HW2 1437   0.890   0.373   4.313
  475SOL     OW 1438   1.017   0.039   4.477
  475SOL    HW1 1439   0.945   0.044   4.408
  475SOL    HW2 1440   0.993  -0.030   4.546
  476SOL     OW 1441   1.857   0.833   4.101
  476SOL    HW1 1442   1.899   0.769   4.165
  476SOL    HW2 1443   1.819   0.782   4.023
  477SOL     OW 1444   0.488   1.385   3.898
  477SOL    HW1 1445   0.401   1.370   3.945
  477SOL    HW2 1446   0.471   1.411   3.803
  478SOL     OW 1447   1.664   1.280   4.381
  478SOL    HW1 1448   1.763   1.288   4.395
  478SOL    HW2 1449   1.619   1.364   4.412
  479SOL     OW 1450   1.390   0.575   3.802
  479SOL    HW1 1451   1.336   0.554   3.883
  479SOL    HW2 1452   1.481   0.534   3.811
  480SOL     OW 1453   0.527   0.256   4.052
  480SOL    HW1 1454   0.554   0.197   3.977
  480SOL    HW2 1455   0.527   0.351   4.021
  481SOL     OW 1456   0.705   1.050   4.092
  481SOL    HW1 1457   0.691   1.057   4.191
  481SOL    HW2 1458   0.789   0.999   4.074
  482SOL     OW 1459   0.367   1.100   4.225
  482SOL    HW1 1460   0.360   1.183   4.169
  482SOL    HW2 1461   0.371   1.020   4.165
  483SOL     OW 1462   0.566   0.537   4.589
  483SOL    HW1 1463   0.578   0.603   4.515
  483SOL    HW2 1464   0.612   0.571   4.672
  484SOL     OW 1465   1.252   1.348   4.112
  484SOL    HW1 1466   1.302   1.425   4.152
  484SOL    HW2 1467   1.157   1.350   4.144
  485SOL     OW 1468   1.582   0.639   4.196
  485SOL    HW1 1469   1.551   0.700   4.269
  485SOL    HW2 1470   1.632   0.691   4.127
  486SOL     OW 1471   1.209   0.525   3.999
  486SOL    HW1 1472   1.222   0.441   4.053
  486SOL    HW2 1473   1.180   0.599   4.059
  487SOL     OW 1474   0.732   0.634   4.788
  487SOL    HW1 1475   0.791   0.608   4.712
  487SOL    HW2 1476   0.704   0.730   4.777
  488SOL     OW 1477   0.307   0.063   4.342
  488SOL    HW1 1478   0.296   0.157   4.375
  488SOL    HW2 1479   0.302   0.000   4.419
  489SOL     OW 1480   1.622   0.367   4.098
  489SOL    HW1 1481   1.624   0.291   4.162
  489SOL    HW2 1482   1.574   0.444   4.138
  490SOL     OW 1483   1.540   0.274   3.849
  490SOL    HW1 1484   1.479   0.199   3.872
  490SOL    HW2 1485   1.562   0.326   3.932
  491SOL     OW 1486   1.303   0.838   3.766
  491SOL    HW1 1487   1.337   0.745   3.781
  491SOL    HW2 1488   1.321   0.865   3.671
  492SOL     OW 1489   1.068   1.333   4.573
  492SOL    HW1 1490   1.075   1.249   4.518
  492SOL    HW2 1491   1.130   1.402   4.537
  493SOL     OW 1492   0.008   1.326   3.924
  493SOL    HW1 1493  -0.085   1.347   3.893
  493SOL    HW2 1494   0.018   1.227   3.937
  494SOL     OW 1495   0.088   1.801   4.651
  494SOL    HW1 1496   0.046   1.715   4.624
  494SOL    HW2 1497   0.182   1.804   4.617
  495SOL     OW 1498   0.504   1.568   4.634
  495SOL    HW1 1499   0.570   1.642   4.643
  495SOL    HW2 1500   0.548   1.489   4.592
  496SOL     OW 1501   0.815   0.572   4.049
  496SOL    HW1 1502   0.822   0.483   4.003
  496SOL    HW2 1503   0.721   0.606   4.041
  497SOL     OW 1504   0.473   0.500   3.915
  497SOL    HW1 1505   0.534   0.580   3.919
  497SOL    HW2 1506   0.378   0.531   3.922
  498SOL     OW 1507   1.302   0.855   4.033
  498SOL    HW1 1508   1.216   0.824   4.075
  498SOL    HW2 1509   1.298   0.841   3.934
  499SOL     OW 1510   1.726   0.135   4.247
  499SOL    HW1 1511   1.799   0.118   4.180
  499SOL    HW2 1512   1.695   0.048   4.285
  500SOL     OW 1513   1.388   1.573   4.201
  500SOL    HW1 1514   1.455   1.585   4.127
  500SOL    HW2 1515   1.348   1.662   4.224
  501SOL     OW 1516   1.280   0.927   4.396
  501SOL    HW1 1517   1.340   0.846   4.398
  501SOL    HW2 1518   1.320   0.996   4.336
  502SOL     OW 1519   0.672   1.616   3.878
  502SOL    HW1 1520   0.681   1.626   3.779
  502SOL    HW2 1521   0.632   1.527   3.899
  503SOL     OW 1522   1.841   0.175   4.687
  503SOL    HW1 1523   1.880   0.090   4.651
  503SOL    HW2 1524   1.743   0.177   4.668
  504SOL     OW 1525   0.263   0.326   4.444
  504SOL    HW1 1526   0.184   0.377   4.410
  504SOL    HW2 1527   0.254   0.311   4.542
  505SOL     OW 1528   1.194   1.612   3.755
  505SOL    HW1 1529   1.200   1.519   3.792
  505SOL    HW2 1530   1.135   1.612   3.675
  506SOL     OW 1531   0.916   0.910   4.015
  506SOL    HW1 1532   0.979   0.948   3.947
  506SOL    HW2 1533   0.956   0.827   4.054
  507SOL     OW 1534   1.504   1.607   3.768
  507SOL    HW1 1535   1.412   1.644   3.775
  507SOL    HW2 1536   1.542   1.627   3.678
  508SOL     OW 1537   1.039   1.098   4.420
  508SOL    HW1 1538   0.969   1.051   4.474
  508SOL    HW2 1539   1.098   1.030   4.377
  509SOL     OW 1540   0.590   1.487   4.215
  509SOL    HW1 1541   0.632   1.429   4.145
  509SOL    HW2 1542   0.546   1.566   4.171
  510SOL     OW 1543   0.255   1.348   4.014
  510SOL    HW1 1544   0.159   1.349   3.987
  510SOL    HW2 1545   0.267   1.401   4.098
  511SOL     OW 1546   0.075   0.345   3.757
  511SOL    HW1 1547  -0.017   0.317   3.728
  511SOL    HW2 1548   0.106   0.422   3.701
  512SOL     OW 1549   0.072   0.166   4.042
  512SOL    HW1 1550   0.055   0.249   3.988
  512SOL    HW2 1551   0.162   0.129   4.020
  513SOL     OW 1552   1.183   1.335   3.843
  513SOL    HW1 1553   1.084   1.324   3.845
  513SOL    HW2 1554   1.217   1.350   3.936
  514SOL     OW 1555   1.225   0.325   4.173
  514SOL    HW1 1556   1.290   0.251   4.162
  514SOL    HW2 1557   1.245   0.375   4.257
  515SOL     OW 1558   0.594   0.745   4.376
  515SOL    HW1 1559   0.644   0.830   4.357
  515SOL    HW2 1560   0.506   0.747   4.328
  516SOL     OW 1561   0.859   1.374   3.740
  516SOL    HW1 1562   0.813   1.389   3.828
  516SOL    HW2 1563   0.903   1.459   3.710
  517SOL     OW 1564   0.661   1.790   4.677
  517SOL    HW1 1565   0.615   1.878   4.664
  517SOL    HW2 1566   0.760   1.802   4.670
  518SOL     OW 1567   0.859   0.956   4.585
  518SOL    HW1 1568   0.913   0.887   4.633
  518SOL    HW2 1569   0.827   1.025   4.651
  519SOL     OW 1570   1.083   0.984   3.811
  519SOL    HW1 1571   1.060   1.037   3.729
  519SOL    HW2 1572   1.164   0.928   3.792
  520SOL     OW 1573   1.861   1.569   4.575
  520SOL    HW1 1574   1.790   1.557   4.505
  520SOL    HW2 1575   1.862   1.490   4.635
  521SOL     OW 1576   0.079   1.240   4.377
  521SOL    HW1 1577   0.078   1.193   4.465
  521SOL    HW2 1578   0.161   1.212   4.326
  522SOL     OW 1579   1.824   0.192   4.951
  522SOL    HW1 1580   1.820   0.102   4.995
  522SOL    HW2 1581   1.827   0.181   4.852
  523SOL     OW 1582   0.428   0.424   4.244
  523SOL    HW1 1583   0.458   0.352   4.182
  523SOL    HW2 1584   0.389   0.384   4.327
  524SOL     OW 1585   0.812   1.586   4.411
  524SOL    HW1 1586   0.844   1.596   4.317
  524SOL    HW2 1587   0.733   1.524   4.413
  525SOL     OW 1588   0.770   1.330   4.025
  525SOL    HW1 1589   0.724   1.243   4.042
  525SOL    HW2 1590   0.861   1.327   4.066
  526SOL     OW 1591   1.352   0.052   3.892
  526SOL    HW1 1592   1.387   0.011   3.808
  526SOL    HW2 1593   1.262   0.014   3.912
  527SOL     OW 1594   1.300   0.453   4.415
  527SOL    HW1 1595   1.241   0.533   4.419
  527SOL    HW2 1596   1.315   0.418   4.508
  528SOL     OW 1597   1.593   0.221   4.606
  528SOL    HW1 1598   1.509   0.220   4.660
  528SOL    HW2 1599   1.595   0.304   4.550
  529SOL     OW 1600   0.039   1.077   4.024
  529SOL    HW1 1601   0.138   1.066   4.015
  529SOL    HW2 1602  -0.001   0.991   4.056
  530SOL     OW 1603   0.875   1.646   4.061
  530SOL    HW1 1604   0.798   1.611   4.007
  530SOL    HW2 1605   0.843   1.717   4.123
  531SOL     OW 1606   0.230   2.490   0.113
  531SOL    HW1 1607   0.137   2.488   0.150
  531SOL    HW2 1608   0.231   2.451   0.021
  532SOL     OW 1609   0.225   2.137   0.996
  532SOL    HW1 1610   0.260   2.120   1.088
  532SOL    HW2 1611   0.137   2.092   0.984
  533SOL     OW 1612   0.019   2.230   0.647
  533SOL    HW1 1613  -0.063   2.273   0.686
  533SOL    HW2 1614  -0.009   2.157   0.584
  534SOL     OW 1615   0.569   3.137   1.165
  534SOL    HW1 1616   0.476   3.130   1.128
  534SOL    HW2 1617   0.580   3.226   1.209
  535SOL     OW 1618   1.555   3.373   0.703
  535SOL    HW1 1619   1.498   3.357   0.784
  535SOL    HW2 1620   1.496   3.383   0.623
  536SOL     OW 1621   1.135   2.565   0.717
  536SOL    HW1 1622   1.192   2.643   0.692
  536SOL    HW2 1623   1.075   2.591   0.793
  537SOL     OW 1624   1.755   2.469   0.231
  537SOL    HW1 1625   1.743   2.456   0.132
  537SOL    HW2 1626   1.725   2.388   0.280
  538SOL     OW 1627   0.768   3.006   1.023
  538SOL    HW1 1628   0.690   3.023   1.083
  538SOL    HW2 1629   0.802   3.093   0.987
  539SOL     OW 1630   0.850   2.660   1.823
  539SOL    HW1 1631   0.846   2.736   1.888
  539SOL    HW2 1632   0.872   2.696   1.732
  540SOL     OW 1633   0.685   2.874   0.665
  540SOL    HW1 1634   0.754   2.858   0.735
  540SOL    HW2 1635   0.612   2.931   0.703
  541SOL     OW 1636   0.686   3.023   1.803
  541SOL    HW1 1637   0.746   3.102   1.817
  541SOL    HW2 1638   0.600   3.054   1.762
  542SOL     OW 1639   0.335   3.297   1.061
  542SOL    HW1 1640   0.257   3.266   1.008
  542SOL    HW2 1641   0.393   3.355   1.004
  543SOL     OW 1642   1.460   3.367   1.339
  543SOL    HW1 1643   1.484   3.461   1.365
  543SOL    HW2 1644   1.444   3.313   1.421
  544SOL     OW 1645   0.438   2.254   1.499
  544SOL    HW1 1646   0.520   2.198   1.508
  544SOL    HW2 1647   0.357   2.196   1.503
  545SOL     OW 1648   1.603   2.309   0.737
  545SOL    HW1 1649   1.529   2.355   0.687
  545SOL    HW2 1650   1.654   2.377   0.790
  546SOL     OW 1651   0.231   3.575   0.483
  546SOL    HW1 1652   0.265   3.652   0.537
  546SOL    HW2 1653   0.275   3.575   0.393
  547SOL     OW 1654   1.127   3.203   1.690
  547SOL    HW1 1655   1.174   3.203   1.778
  547SOL    HW2 1656   1.079   3.116   1.679
  548SOL     OW 1657   0.230   3.296   0.538
  548SOL    HW1 1658   0.204   3.392   0.538
  548SOL    HW2 1659   0.159   3.242   0.583
  549SOL     OW 1660   0.240   2.953   0.886
  549SOL    HW1 1661   0.254   2.869   0.938
  549SOL    HW2 1662   0.185   3.017   0.941
  550SOL     OW 1663   0.620   3.648   1.439
  550SOL    HW1 1664   0.528   3.631   1.474
  550SOL    HW2 1665   0.648   3.740   1.465
  551SOL     OW 1666   0.606   2.826   0.123
  551SOL    HW1 1667   0.613   2.910   0.069
  551SOL    HW2 1668   0.652   2.839   0.211
  552SOL     OW 1669   1.594   1.976   1.480
  552SOL    HW1 1670   1.576   2.043   1.408
  552SOL    HW2 1671   1.591   2.022   1.569
  553SOL     OW 1672   0.122   2.505   0.563
  553SOL    HW1 1673   0.077   2.417   0.580
  553SOL    HW2 1674   0.121   2.559   0.647
  554SOL     OW 1675   1.842   3.629   0.359
  554SOL    HW1 1676   1.896   3.600   0.439
  554SOL    HW2 1677   1.872   3.719   0.330
  555SOL     OW 1678   0.027   3.458   0.117
  555SOL    HW1 1679   0.008   3.362   0.138
  555SOL    HW2 1680  -0.006   3.516   0.192
  556SOL     OW 1681   1.689   2.784   0.612
  556SOL    HW1 1682   1.784   2.755   0.620
  556SOL    HW2 1683   1.681   2.849   0.537
  557SOL     OW 1684   1.641   2.970   0.432
  557SOL    HW1 1685   1.727   2.972   0.380
  557SOL    HW2 1686   1.655   3.017   0.520
  558SOL     OW 1687   0.113   2.599   1.597
  558SOL    HW1 1688   0.201   2.586   1.642
  558SOL    HW2 1689   0.100   2.696   1.575
  559SOL     OW 1690   0.613   3.227   0.726
  559SOL    HW1 1691   0.564   3.140   0.735
  559SOL    HW2 1692   0.590   3.270   0.639
  560SOL     OW 1693   1.293   3.090   1.423
  560SOL    HW1 1694   1.330   3.017   1.365
  560SOL    HW2 1695   1.345   3.095   1.508
  561SOL     OW 1696   0.809   1.866   0.502
  561SOL    HW1 1697   0.849   1.957   0.493
  561SOL    HW2 1698   0.709   1.874   0.508
  562SOL     OW 1699   0.197   2.838   1.264
  562SOL    HW1 1700   0.286   2.793   1.250
  562SOL    HW2 1701   0.124   2.773   1.245
  563SOL     OW 1702   1.525   2.861   0.190
  563SOL    HW1 1703   1.462   2.785   0.203
  563SOL    HW2 1704   1.573   2.879   0.276
  564SOL     OW 1705   1.187   3.654   1.616
  564SOL    HW1 1706   1.211   3.714   1.540
  564SOL    HW2 1707   1.194   3.559   1.586
  565SOL     OW 1708   0.317   2.113   1.801
  565SOL    HW1 1709   0.388   2.184   1.807
  565SOL    HW2 1710   0.229   2.152   1.829
  566SOL     OW 1711   1.466   3.279   0.953
  566SOL    HW1 1712   1.407   3.285   1.033
  566SOL    HW2 1713   1.451   3.191   0.907
  567SOL     OW 1714   1.667   3.576   0.572
  567SOL    HW1 1715   1.626   3.553   0.484
  567SOL    HW2 1716   1.649   3.502   0.637
  568SOL     OW 1717   0.598   2.591   0.270
  568SOL    HW1 1718   0.622   2.660   0.202
  568SOL    HW2 1719   0.520   2.624   0.324
  569SOL     OW 1720   1.281   2.207   0.944
  569SOL    HW1 1721   1.195   2.157   0.931
  569SOL    HW2 1722   1.343   2.153   1.000
  570SOL     OW 1723   1.576   3.524   0.307
  570SOL    HW1 1724   1.665   3.570   0.310
  570SOL    HW2 1725   1.555   3.500   0.212
  571SOL     OW 1726   0.807   2.467   1.465
  571SOL    HW1 1727   0.760   2.464   1.554
  571SOL    HW2 1728   0.756   2.412   1.399
  572SOL     OW 1729   1.394   2.331   1.674
  572SOL    HW1 1730   1.374   2.374   1.762
  572SOL    HW2 1731   1.472   2.269   1.683
  573SOL     OW 1732   0.973   2.752   1.572
  573SOL    HW1 1733   1.019   2.668   1.543
  573SOL    HW2 1734   0.917   2.786   1.497
  574SOL     OW 1735   0.991   2.272   1.242
  574SOL    HW1 1736   0.914   2.306   1.296
  574SOL    HW2 1737   0.957   2.221   1.163
  575SOL     OW 1738   1.041   2.563   0.429
  575SOL    HW1 1739   1.067   2.559   0.525
  575SOL    HW2 1740   0.956   2.512   0.415
  576SOL     OW 1741   0.076   2.673   0.789
  576SOL    HW1 1742   0.175   2.661   0.798
  576SOL    HW2 1743   0.052   2.768   0.810
  577SOL     OW 1744   0.130   3.683   1.571
  577SOL    HW1 1745   0.120   3.668   1.670
  577SOL    HW2 1746   0.044   3.719   1.535
  578SOL     OW 1747   0.865   2.210   0.195
  578SOL    HW1 1748   0.924   2.273   0.146
  578SOL    HW2 1749   0.884   2.116   0.166
  579SOL     OW 1750   1.719   2.447   1.831
  579SOL    HW1 1751   1.693   2.536   1.795
  579SOL    HW2 1752   1.717   2.379   1.758
  580SOL     OW 1753   1.362   3.006   0.545
  580SOL    HW1 1754   1.445   2.977   0.497
  580SOL    HW2 1755   1.313   3.073   0.489
  581SOL     OW 1756   0.550   2.058   0.885
  581SOL    HW1 1757   0.545   2.053   0.985
  581SOL    HW2 1758   0.552   2.154   0.856
  582SOL     OW 1759   1.008   3.318   0.477
  582SOL    HW1 1760   0.962   3.390   0.425
  582SOL    HW2 1761   1.004   3.338   0.575
  583SOL     OW 1762   0.351   3.663   0.853
  583SOL    HW1 1763   0.401   3.577   0.859
  583SOL    HW2 1764   0.416   3.740   0.850
  584SOL     OW 1765   1.795   2.928   0.873
  584SOL    HW1 1766   1.733   2.913   0.797
  584SOL    HW2 1767   1.743   2.939   0.958
  585SOL     OW 1768   1.227   3.412   1.506
  585SOL    HW1 1769   1.233   3.335   1.570
  585SOL    HW2 1770   1.175   3.386   1.426
  586SOL     OW 1771   0.321   2.805   0.242
  586SOL    HW1 1772   0.403   2.844   0.200
  586SOL    HW2 1773   0.294   2.723   0.193
  587SOL     OW 1774   1.458   2.597   0.728
  587SOL    HW1 1775   1.453   2.532   0.803
  587SOL    HW2 1776   1.538   2.656   0.741
  588SOL     OW 1777   0.461   3.128   1.727
  588SOL    HW1 1778   0.411   3.129   1.641
  588SOL    HW2 1779   0.398   3.110   1.803
  589SOL     OW 1780   1.111   3.638   0.237
  589SOL    HW1 1781   1.051   3.576   0.287
  589SOL    HW2 1782   1.142   3.594   0.152
  590SOL     OW 1783   0.202   2.147   1.498
  590SOL    HW1 1784   0.122   2.207   1.485
  590SOL    HW2 1785   0.192   2.098   1.584
  591SOL     OW 1786   1.632   3.239   0.081
  591SOL    HW1 1787   1.600   3.333   0.071
  591SOL    HW2 1788   1.556   3.176   0.069
  592SOL     OW 1789   0.464   3.605   0.323
  592SOL    HW1 1790   0.497   3.644   0.409
  592SOL    HW2 1791   0.540   3.598   0.258
  593SOL     OW 1792   1.400   1.969   0.426
  593SOL    HW1 1793   1.376   1.932   0.336
  593SOL    HW2 1794   1.499   1.985   0.430
  594SOL     OW 1795   0.249   3.647   1.241
  594SOL    HW1 1796   0.306   3.582   1.291
  594SOL    HW2 1797   0.233   3.614   1.148
  595SOL     OW 1798   0.940   3.560   0.904
  595SOL    HW1 1799   1.020   3.503   0.925
  595SOL    HW2 1800   0.891   3.520   0.827
  596SOL     OW 1801   0.382   2.562   0.480
  596SOL    HW1 1802   0.427   2.472   0.477
  596SOL    HW2 1803   0.288   2.551   0.513
  597SOL     OW 1804   1.547   2.084   1.729
  597SOL    HW1 1805   1.542   2.121   1.821
  597SOL    HW2 1806   1.475   2.015   1.717
  598SOL     OW 1807   0.781   2.126   1.749
  598SOL    HW1 1808   0.848   2.065   1.792
  598SOL    HW2 1809   0.708   2.145   1.814
  599SOL     OW 1810   0.888   3.376   1.195
  599SOL    HW1 1811   0.865   3.351   1.101
  599SOL    HW2 1812   0.949   3.307   1.234
  600SOL     OW 1813   1.351   2.452   1.433
  600SOL    HW1 1814   1.379   2.409   1.518
  600SOL    HW2 1815   1.376   2.548   1.434
  601SOL     OW 1816   0.803   3.264   0.924
  601SOL    HW1 1817   0.893   3.278   0.882
  601SOL    HW2 1818   0.732   3.266   0.853
  602SOL     OW 1819   0.922   2.365   0.899
  602SOL    HW1 1820   0.897   2.356   0.803
  602SOL    HW2 1821   0.970   2.283   0.930
  603SOL     OW 1822   0.539   1.926   0.512
  603SOL    HW1 1823   0.458   1.927   0.570
  603SOL    HW2 1824   0.542   2.009   0.457
  604SOL     OW 1825   1.434   3.050   0.041
  604SOL    HW1 1826   1.466   2.974   0.098
  604SOL    HW2 1827   1.342   3.077   0.071
  605SOL     OW 1828   0.297   1.897   0.171
  605SOL    HW1 1829   0.346   1.981   0.150
  605SOL    HW2 1830   0.359   1.832   0.216
  606SOL     OW 1831   0.935   2.098   0.480
  606SOL    HW1 1832   0.887   2.139   0.402
  606SOL    HW2 1833   1.034   2.096   0.461
  607SOL     OW 1834   1.076   2.545   1.464
  607SOL    HW1 1835   0.996   2.484   1.467
  607SOL    HW2 1836   1.157   2.492   1.440
  608SOL     OW 1837   1.227   3.432   0.793
  608SOL    HW1 1838   1.248   3.506   0.728
  608SOL    HW2 1839   1.295   3.432   0.866
  609SOL     OW 1840   0.459   3.014   0.741
  609SOL    HW1 1841   0.388   2.987   0.806
  609SOL    HW2 1842   0.433   2.986   0.648
  610SOL     OW 1843   1.271   3.659   0.591
  610SOL    HW1 1844   1.315   3.723   0.527
  610SOL    HW2 1845   1.221   3.711   0.661
  611SOL     OW 1846   1.032   2.411   0.016
  611SOL    HW1 1847   0.991   2.493  -0.023
  611SOL    HW2 1848   1.096   2.437   0.089
  612SOL     OW 1849   0.078   2.418   1.386
  612SOL    HW1 1850   0.170   2.417   1.345
  612SOL    HW2 1851   0.072   2.492   1.453
  613SOL     OW 1852   0.561   2.084   1.147
  613SOL    HW1 1853   0.599   2.000   1.184
  613SOL    HW2 1854   0.473   2.103   1.191
  614SOL     OW 1855   0.866   2.316   0.642
  614SOL    HW1 1856   0.834   2.388   0.580
  614SOL    HW2 1857   0.890   2.235   0.589
  615SOL     OW 1858   1.017   1.901   0.753
  615SOL    HW1 1859   0.945   1.906   0.684
  615SOL    HW2 1860   0.993   1.832   0.822
  616SOL     OW 1861   1.429   3.035   0.867
  616SOL    HW1 1862   1.374   2.951   0.860
  616SOL    HW2 1863   1.455   3.064   0.775
  617SOL     OW 1864   1.466   2.452   0.992
  617SOL    HW1 1865   1.436   2.357   0.999
  617SOL    HW2 1866   1.539   2.468   1.058
  618SOL     OW 1867   1.857   2.695   0.377
  618SOL    HW1 1868   1.899   2.631   0.441
  618SOL    HW2 1869   1.819   2.644   0.299
  619SOL     OW 1870   0.488   3.247   0.174
  619SOL    HW1 1871   0.401   3.232   0.221
  619SOL    HW2 1872   0.471   3.273   0.079
  620SOL     OW 1873   1.664   3.142   0.657
  620SOL    HW1 1874   1.763   3.150   0.671
  620SOL    HW2 1875   1.619   3.226   0.688
  621SOL     OW 1876   1.390   2.437   0.078
  621SOL    HW1 1877   1.336   2.416   0.159
  621SOL    HW2 1878   1.481   2.396   0.087
  622SOL     OW 1879   0.527   2.118   0.328
  622SOL    HW1 1880   0.554   2.059   0.253
  622SOL    HW2 1881   0.527   2.213   0.297
  623SOL     OW 1882   1.754   3.085   1.588
  623SOL    HW1 1883   1.845   3.046   1.575
  623SOL    HW2 1884   1.762   3.181   1.612
  624SOL     OW 1885   1.064   3.209   1.340
  624SOL    HW1 1886   0.984   3.186   1.395
  624SOL    HW2 1887   1.147   3.183   1.389
  625SOL     OW 1888   1.592   3.491   1.625
  625SOL    HW1 1889   1.619   3.525   1.535
  625SOL    HW2 1890   1.671   3.453   1.671
  626SOL     OW 1891   1.111   3.057   1.100
  626SOL    HW1 1892   1.071   3.101   1.181
  626SOL    HW2 1893   1.070   3.094   1.017
  627SOL     OW 1894   1.638   2.961   1.079
  627SOL    HW1 1895   1.643   3.042   1.138
  627SOL    HW2 1896   1.552   2.963   1.028
  628SOL     OW 1897   0.915   1.951   1.402
  628SOL    HW1 1898   0.940   1.931   1.307
  628SOL    HW2 1899   0.987   2.007   1.444
  629SOL     OW 1900   0.980   2.978   1.719
  629SOL    HW1 1901   0.881   2.984   1.729
  629SOL    HW2 1902   1.003   2.898   1.663
  630SOL     OW 1903   0.705   2.912   0.368
  630SOL    HW1 1904   0.691   2.919   0.467
  630SOL    HW2 1905   0.789   2.861   0.350
  631SOL     OW 1906   0.410   2.675   1.251
  631SOL    HW1 1907   0.496   2.687   1.301
  631SOL    HW2 1908   0.368   2.588   1.278
  632SOL     OW 1909   1.274   2.248   1.262
  632SOL    HW1 1910   1.295   2.322   1.326
  632SOL    HW2 1911   1.185   2.265   1.219
  633SOL     OW 1912   0.064   3.426   1.331
  633SOL    HW1 1913   0.018   3.508   1.297
  633SOL    HW2 1914   0.162   3.445   1.340
  634SOL     OW 1915   0.367   2.962   0.501
  634SOL    HW1 1916   0.360   3.045   0.445
  634SOL    HW2 1917   0.371   2.882   0.441
  635SOL     OW 1918   0.566   2.399   0.865
  635SOL    HW1 1919   0.578   2.465   0.791
  635SOL    HW2 1920   0.612   2.433   0.948
  636SOL     OW 1921   1.252   3.210   0.388
  636SOL    HW1 1922   1.302   3.287   0.428
  636SOL    HW2 1923   1.157   3.212   0.420
  637SOL     OW 1924   1.272   3.307   1.142
  637SOL    HW1 1925   1.319   3.320   1.229
  637SOL    HW2 1926   1.206   3.233   1.151
  638SOL     OW 1927   1.582   2.501   0.472
  638SOL    HW1 1928   1.551   2.562   0.545
  638SOL    HW2 1929   1.632   2.553   0.403
  639SOL     OW 1930   0.354   3.372   1.329
  639SOL    HW1 1931   0.333   3.328   1.242
  639SOL    HW2 1932   0.451   3.398   1.332
  640SOL     OW 1933   0.402   2.613   1.598
  640SOL    HW1 1934   0.470   2.668   1.551
  640SOL    HW2 1935   0.442   2.525   1.625
  641SOL     OW 1936   1.587   2.641   1.670
  641SOL    HW1 1937   1.495   2.679   1.665
  641SOL    HW2 1938   1.647   2.688   1.605
  642SOL     OW 1939   1.013   1.967   1.770
  642SOL    HW1 1940   1.019   2.052   1.718
  642SOL    HW2 1941   1.045   1.891   1.713
  643SOL     OW 1942   0.504   1.912   1.740
  643SOL    HW1 1943   0.462   1.855   1.670
  643SOL    HW2 1944   0.438   1.981   1.772
  644SOL     OW 1945   0.573   2.732   1.029
  644SOL    HW1 1946   0.617   2.821   1.020
  644SOL    HW2 1947   0.510   2.732   1.106
  645SOL     OW 1948   1.360   2.724   1.045
  645SOL    HW1 1949   1.285   2.724   0.979
  645SOL    HW2 1950   1.397   2.632   1.054
  646SOL     OW 1951   1.209   2.387   0.275
  646SOL    HW1 1952   1.222   2.303   0.329
  646SOL    HW2 1953   1.180   2.461   0.335
  647SOL     OW 1954   0.307   2.075   1.231
  647SOL    HW1 1955   0.284   2.112   1.321
  647SOL    HW2 1956   0.277   1.980   1.225
  648SOL     OW 1957   0.037   3.172   1.282
  648SOL    HW1 1958   0.090   3.123   1.350
  648SOL    HW2 1959   0.059   3.270   1.287
  649SOL     OW 1960   0.732   2.496   1.064
  649SOL    HW1 1961   0.791   2.470   0.988
  649SOL    HW2 1962   0.704   2.592   1.053
  650SOL     OW 1963   1.728   2.797   1.854
  650SOL    HW1 1964   1.682   2.790   1.765
  650SOL    HW2 1965   1.666   2.841   1.920
  651SOL     OW 1966   0.307   1.925   0.618
  651SOL    HW1 1967   0.296   2.019   0.651
  651SOL    HW2 1968   0.302   1.862   0.695
  652SOL     OW 1969   1.622   2.229   0.374
  652SOL    HW1 1970   1.624   2.153   0.438
  652SOL    HW2 1971   1.574   2.306   0.414
  653SOL     OW 1972   1.023   2.628   0.966
  653SOL    HW1 1973   1.038   2.649   1.062
  653SOL    HW2 1974   0.993   2.533   0.957
  654SOL     OW 1975   0.980   3.435   1.700
  654SOL    HW1 1976   0.960   3.479   1.612
  654SOL    HW2 1977   1.019   3.344   1.684
  655SOL     OW 1978   1.859   3.380   1.605
  655SOL    HW1 1979   1.873   3.407   1.510
  655SOL    HW2 1980   1.942   3.402   1.658
  656SOL     OW 1981   0.350   2.760   1.804
  656SOL    HW1 1982   0.426   2.804   1.852
  656SOL    HW2 1983   0.385   2.713   1.722
  657SOL     OW 1984   1.540   2.136   0.125
  657SOL    HW1 1985   1.479   2.061   0.148
  657SOL    HW2 1986   1.562   2.188   0.208
  658SOL     OW 1987   1.303   2.700   0.042
  658SOL    HW1 1988   1.337   2.607   0.057
  658SOL    HW2 1989   1.321   2.727  -0.053
  659SOL     OW 1990   1.068   3.195   0.849
  659SOL    HW1 1991   1.075   3.111   0.794
  659SOL    HW2 1992   1.130   3.264   0.813
  660SOL     OW 1993   0.319   2.672   0.949
  660SOL    HW1 1994   0.412   2.708   0.954
  660SOL    HW2 1995   0.313   2.587   1.001
  661SOL     OW 1996   0.339   2.371   1.006
  661SOL    HW1 1997   0.287   2.288   0.989
  661SOL    HW2 1998   0.416   2.376   0.942
  662SOL     OW 1999   1.138   2.242   1.678
  662SOL    HW1 2000   1.093   2.305   1.742
  662SOL    HW2 2001   1.231   2.273   1.661
  663SOL     OW 2002   1.160   2.069   1.477
  663SOL    HW1 2003   1.160   2.133   1.554
  663SOL    HW2 2004   1.188   2.117   1.394
  664SOL     OW 2005   0.008   3.188   0.200
  664SOL    HW1 2006  -0.085   3.209   0.169
  664SOL    HW2 2007   0.018   3.089   0.213
  665SOL     OW 2008   0.088   3.663   0.927
  665SOL    HW1 2009   0.046   3.577   0.900
  665SOL    HW2 2010   0.182   3.666   0.893
  666SOL     OW 2011   0.504   3.430   0.910
  666SOL    HW1 2012   0.570   3.504   0.919
  666SOL    HW2 2013   0.548   3.351   0.868
  667SOL     OW 2014   1.002   2.658   1.238
  667SOL    HW1 2015   1.043   2.626   1.324
  667SOL    HW2 2016   0.906   2.631   1.235
  668SOL     OW 2017   0.040   2.406   1.114
  668SOL    HW1 2018   0.125   2.373   1.073
  668SOL    HW2 2019   0.053   2.421   1.212
  669SOL     OW 2020   0.189   2.382   1.722
  669SOL    HW1 2021   0.248   2.342   1.652
  669SOL    HW2 2022   0.131   2.453   1.681
  670SOL     OW 2023   1.369   2.812   1.660
  670SOL    HW1 2024   1.408   2.901   1.680
  670SOL    HW2 2025   1.379   2.792   1.563
  671SOL     OW 2026   0.815   2.434   0.325
  671SOL    HW1 2027   0.822   2.345   0.279
  671SOL    HW2 2028   0.721   2.468   0.317
  672SOL     OW 2029   1.657   2.466   1.206
  672SOL    HW1 2030   1.619   2.397   1.268
  672SOL    HW2 2031   1.739   2.430   1.162
  673SOL     OW 2032   0.252   3.426   1.744
  673SOL    HW1 2033   0.222   3.483   1.820
  673SOL    HW2 2034   0.245   3.329   1.770
  674SOL     OW 2035   0.671   2.326   1.269
  674SOL    HW1 2036   0.637   2.237   1.239
  674SOL    HW2 2037   0.697   2.380   1.189
  675SOL     OW 2038   0.930   3.540   1.465
  675SOL    HW1 2039   0.906   3.522   1.370
  675SOL    HW2 2040   0.960   3.634   1.475
  676SOL     OW 2041   0.473   2.362   0.191
  676SOL    HW1 2042   0.534   2.442   0.195
  676SOL    HW2 2043   0.378   2.393   0.198
  677SOL     OW 2044   0.159   2.999   1.466
  677SOL    HW1 2045   0.181   2.938   1.542
  677SOL    HW2 2046   0.169   2.950   1.380
  678SOL     OW 2047   1.347   2.921   1.234
  678SOL    HW1 2048   1.371   2.858   1.160
  678SOL    HW2 2049   1.257   2.961   1.216
  679SOL     OW 2050   1.302   2.717   0.309
  679SOL    HW1 2051   1.216   2.686   0.351
  679SOL    HW2 2052   1.298   2.703   0.210
  680SOL     OW 2053   1.759   3.609   1.154
  680SOL    HW1 2054   1.820   3.639   1.081
  680SOL    HW2 2055   1.721   3.520   1.132
  681SOL     OW 2056   1.252   3.593   1.128
  681SOL    HW1 2057   1.336   3.598   1.074
  681SOL    HW2 2058   1.229   3.497   1.146
  682SOL     OW 2059   0.083   3.120   1.022
  682SOL    HW1 2060   0.078   3.119   1.122
  682SOL    HW2 2061   0.000   3.079   0.984
  683SOL     OW 2062   0.688   3.524   1.716
  683SOL    HW1 2063   0.632   3.605   1.725
  683SOL    HW2 2064   0.740   3.528   1.630
  684SOL     OW 2065   0.903   1.948   0.133
  684SOL    HW1 2066   0.954   1.949   0.047
  684SOL    HW2 2067   0.959   1.906   0.204
  685SOL     OW 2068   1.726   1.997   0.523
  685SOL    HW1 2069   1.799   1.980   0.456
  685SOL    HW2 2070   1.695   1.910   0.561
  686SOL     OW 2071   1.388   3.435   0.477
  686SOL    HW1 2072   1.455   3.447   0.403
  686SOL    HW2 2073   1.348   3.524   0.500
  687SOL     OW 2074   0.130   3.656   1.851
  687SOL    HW1 2075   0.089   3.582   1.904
  687SOL    HW2 2076   0.194   3.707   1.909
  688SOL     OW 2077   1.280   2.789   0.672
  688SOL    HW1 2078   1.340   2.708   0.674
  688SOL    HW2 2079   1.320   2.858   0.612
  689SOL     OW 2080   0.830   3.135   1.422
  689SOL    HW1 2081   0.825   3.168   1.517
  689SOL    HW2 2082   0.744   3.154   1.376
  690SOL     OW 2083   0.672   3.478   0.154
  690SOL    HW1 2084   0.681   3.488   0.055
  690SOL    HW2 2085   0.632   3.389   0.175
  691SOL     OW 2086   1.650   3.582   1.394
  691SOL    HW1 2087   1.703   3.592   1.310
  691SOL    HW2 2088   1.623   3.672   1.428
  692SOL     OW 2089   1.841   2.037   0.963
  692SOL    HW1 2090   1.880   1.952   0.927
  692SOL    HW2 2091   1.743   2.039   0.944
  693SOL     OW 2092   0.263   2.188   0.720
  693SOL    HW1 2093   0.184   2.239   0.686
  693SOL    HW2 2094   0.254   2.173   0.818
  694SOL     OW 2095   1.194   3.474   0.031
  694SOL    HW1 2096   1.200   3.381   0.068
  694SOL    HW2 2097   1.135   3.474  -0.049
  695SOL     OW 2098   0.822   2.864   1.372
  695SOL    HW1 2099   0.862   2.863   1.280
  695SOL    HW2 2100   0.832   2.956   1.412
  696SOL     OW 2101   0.916   2.772   0.291
  696SOL    HW1 2102   0.979   2.810   0.223
  696SOL    HW2 2103   0.956   2.689   0.330
  697SOL     OW 2104   1.504   3.469   0.044
  697SOL    HW1 2105   1.412   3.506   0.051
  697SOL    HW2 2106   1.542   3.489  -0.046
  698SOL     OW 2107   0.372   3.150   1.490
  698SOL    HW1 2108   0.359   3.243   1.456
  698SOL    HW2 2109   0.288   3.098   1.477
  699SOL     OW 2110   1.614   3.154   1.289
  699SOL    HW1 2111   1.674   3.157   1.369
  699SOL    HW2 2112   1.539   3.218   1.302
  700SOL     OW 2113   1.039   2.960   0.696
  700SOL    HW1 2114   0.969   2.913   0.750
  700SOL    HW2 2115   1.098   2.892   0.653
  701SOL     OW 2116   1.014   2.098   0.971
  701SOL    HW1 2117   1.006   2.062   0.878
  701SOL    HW2 2118   1.012   2.022   1.036
  702SOL     OW 2119   0.590   3.349   0.491
  702SOL    HW1 2120   0.632   3.291   0.421
  702SOL    HW2 2121   0.546   3.428   0.447
  703SOL     OW 2122   1.709   2.247   1.381
  703SOL    HW1 2123   1.782   2.316   1.385
  703SOL    HW2 2124   1.737   2.172   1.322
  704SOL     OW 2125   0.255   3.210   0.290
  704SOL    HW1 2126   0.159   3.211   0.263
  704SOL    HW2 2127   0.267   3.263   0.374
  705SOL     OW 2128   0.105   2.875   1.726
  705SOL    HW1 2129   0.028   2.842   1.780
  705SOL    HW2 2130   0.190   2.845   1.768
  706SOL     OW 2131   0.672   2.065   1.489
  706SOL    HW1 2132   0.762   2.049   1.449
  706SOL    HW2 2133   0.680   2.070   1.588
  707SOL     OW 2134   0.075   2.207   0.033
  707SOL    HW1 2135  -0.017   2.179   0.004
  707SOL    HW2 2136   0.106   2.284  -0.023
  708SOL     OW 2137   1.440   2.718   1.398
  708SOL    HW1 2138   1.383   2.770   1.335
  708SOL    HW2 2139   1.536   2.730   1.374
  709SOL     OW 2140   0.072   2.028   0.318
  709SOL    HW1 2141   0.055   2.111   0.264
  709SOL    HW2 2142   0.162   1.991   0.296
  710SOL     OW 2143   1.183   3.197   0.119
  710SOL    HW1 2144   1.084   3.186   0.121
  710SOL    HW2 2145   1.217   3.212   0.212
  711SOL     OW 2146   0.613   2.704   1.431
  711SOL    HW1 2147   0.669   2.785   1.414
  711SOL    HW2 2148   0.672   2.624   1.434
  712SOL     OW 2149   1.493   3.629   0.959
  712SOL    HW1 2150   1.526   3.693   0.890
  712SOL    HW2 2151   1.559   3.623   1.034
  713SOL     OW 2152   0.716   2.427   1.708
  713SOL    HW1 2153   0.735   2.492   1.782
  713SOL    HW2 2154   0.776   2.347   1.717
  714SOL     OW 2155   1.450   3.082   1.633
  714SOL    HW1 2156   1.441   3.072   1.732
  714SOL    HW2 2157   1.546   3.075   1.607
  715SOL     OW 2158   0.390   3.603   1.560
  715SOL    HW1 2159   0.299   3.644   1.558
  715SOL    HW2 2160   0.383   3.509   1.592
  716SOL     OW 2161   1.674   2.745   1.254
  716SOL    HW1 2162   1.647   2.656   1.217
  716SOL    HW2 2163   1.675   2.813   1.181
  717SOL     OW 2164   1.225   2.187   0.449
  717SOL    HW1 2165   1.290   2.113   0.438
  717SOL    HW2 2166   1.245   2.237   0.533
  718SOL     OW 2167   0.594   2.607   0.652
  718SOL    HW1 2168   0.644   2.692   0.633
  718SOL    HW2 2169   0.506   2.609   0.604
  719SOL     OW 2170   1.777   2.204   1.642
  719SOL    HW1 2171   1.760   2.235   1.548
  719SOL    HW2 2172   1.693   2.167   1.680
  720SOL     OW 2173   1.730   2.796   1.517
  720SOL    HW1 2174   1.768   2.887   1.532
  720SOL    HW2 2175   1.722   2.779   1.418
  721SOL     OW 2176   0.859   3.236   0.016
  721SOL    HW1 2177   0.813   3.251   0.104
  721SOL    HW2 2178   0.903   3.321  -0.014
  722SOL     OW 2179   0.661   3.652   0.953
  722SOL    HW1 2180   0.615   3.740   0.940
  722SOL    HW2 2181   0.760   3.664   0.946
  723SOL     OW 2182   0.859   2.818   0.861
  723SOL    HW1 2183   0.913   2.749   0.909
  723SOL    HW2 2184   0.827   2.887   0.927
  724SOL     OW 2185   1.083   2.846   0.087
  724SOL    HW1 2186   1.060   2.899   0.005
  724SOL    HW2 2187   1.164   2.790   0.068
  725SOL     OW 2188   1.861   3.431   0.851
  725SOL    HW1 2189   1.790   3.419   0.781
  725SOL    HW2 2190   1.862   3.352   0.911
  726SOL     OW 2191   0.221   3.176   1.844
  726SOL    HW1 2192   0.156   3.103   1.823
  726SOL    HW2 2193   0.225   3.190   1.942
  727SOL     OW 2194   0.079   3.102   0.653
  727SOL    HW1 2195   0.078   3.055   0.741
  727SOL    HW2 2196   0.161   3.074   0.602
  728SOL     OW 2197   0.672   3.253   1.624
  728SOL    HW1 2198   0.594   3.203   1.662
  728SOL    HW2 2199   0.669   3.348   1.655
  729SOL     OW 2200   1.824   2.054   1.227
  729SOL    HW1 2201   1.820   1.964   1.271
  729SOL    HW2 2202   1.827   2.043   1.128
  730SOL     OW 2203   0.428   2.286   0.520
  730SOL    HW1 2204   0.458   2.214   0.458
  730SOL    HW2 2205   0.389   2.246   0.603
  731SOL     OW 2206   1.705   3.349   1.104
  731SOL    HW1 2207   1.612   3.324   1.077
  731SOL    HW2 2208   1.731   3.299   1.186
  732SOL     OW 2209   0.317   2.409   1.280
  732SOL    HW1 2210   0.355   2.350   1.352
  732SOL    HW2 2211   0.357   2.383   1.192
  733SOL     OW 2212   0.812   3.448   0.687
  733SOL    HW1 2213   0.844   3.458   0.593
  733SOL    HW2 2214   0.733   3.386   0.689
  734SOL     OW 2215   1.424   2.076   1.112
  734SOL    HW1 2216   1.476   2.011   1.167
  734SOL    HW2 2217   1.375   2.139   1.173
  735SOL     OW 2218   1.001   1.896   1.154
  735SOL    HW1 2219   0.938   1.824   1.123
  735SOL    HW2 2220   1.094   1.860   1.154
  736SOL     OW 2221   0.770   3.192   0.301
  736SOL    HW1 2222   0.724   3.105   0.318
  736SOL    HW2 2223   0.861   3.189   0.342
  737SOL     OW 2224   0.618   3.429   1.284
  737SOL    HW1 2225   0.613   3.511   1.341
  737SOL    HW2 2226   0.707   3.426   1.239
  738SOL     OW 2227   1.352   1.914   0.168
  738SOL    HW1 2228   1.387   1.873   0.084
  738SOL    HW2 2229   1.262   1.876   0.188
  739SOL     OW 2230   1.300   2.315   0.691
  739SOL    HW1 2231   1.241   2.395   0.695
  739SOL    HW2 2232   1.315   2.280   0.784
  740SOL     OW 2233   1.593   2.083   0.882
  740SOL    HW1 2234   1.509   2.082   0.936
  740SOL    HW2 2235   1.595   2.166   0.826
  741SOL     OW 2236   0.039   2.939   0.300
  741SOL    HW1 2237   0.138   2.928   0.291
  741SOL    HW2 2238  -0.001   2.853   0.332
  742SOL     OW 2239   0.875   3.508   0.337
  742SOL    HW1 2240   0.798   3.473   0.283
  742SOL    HW2 2241   0.843   3.579   0.399
  743SOL     OW 2242   0.230   2.490   1.975
  743SOL    HW1 2243   0.137   2.488   2.012
  743SOL    HW2 2244   0.231   2.451   1.883
  744SOL     OW 2245   0.225   2.137   2.858
  744SOL    HW1 2246   0.260   2.120   2.950
  744SOL    HW2 2247   0.137   2.092   2.846
  745SOL     OW 2248   0.019   2.230   2.509
  745SOL    HW1 2249  -0.063   2.273   2.548
  745SOL    HW2 2250  -0.009   2.157   2.446
  746SOL     OW 2251   0.569   3.137   3.027
  746SOL    HW1 2252   0.476   3.130   2.990
  746SOL    HW2 2253   0.580   3.226   3.071
  747SOL     OW 2254   1.555   3.373   2.565
  747SOL    HW1 2255   1.498   3.357   2.646
  747SOL    HW2 2256   1.496   3.383   2.485
  748SOL     OW 2257   1.135   2.565   2.579
  748SOL    HW1 2258   1.192   2.643   2.554
  748SOL    HW2 2259   1.075   2.591   2.655
  749SOL     OW 2260   1.755   2.469   2.093
  749SOL    HW1 2261   1.743   2.456   1.994
  749SOL    HW2 2262   1.725   2.388   2.142
  750SOL     OW 2263   0.768   3.006   2.885
  750SOL    HW1 2264   0.690   3.023   2.945
  750SOL    HW2 2265   0.802   3.093   2.849
  751SOL     OW 2266   0.850   2.660   3.685
  751SOL    HW1 2267   0.846   2.736   3.750
  751SOL    HW2 2268   0.872   2.696   3.594
  752SOL     OW 2269   0.685   2.874   2.527
  752SOL    HW1 2270   0.754   2.858   2.597
  752SOL    HW2 2271   0.612   2.931   2.565
  753SOL     OW 2272   0.686   3.023   3.665
  753SOL    HW1 2273   0.746   3.102   3.679
  753SOL    HW2 2274   0.600   3.054   3.624
  754SOL     OW 2275   0.335   3.297   2.923
  754SOL    HW1 2276   0.257   3.266   2.870
  754SOL    HW2 2277   0.393   3.355   2.866
  755SOL     OW 2278   1.460   3.367   3.201
  755SOL    HW1 2279   1.484   3.461   3.227
  755SOL    HW2 2280   1.444   3.313   3.283
  756SOL     OW 2281   0.438   2.254   3.361
  756SOL    HW1 2282   0.520   2.198   3.370
  756SOL    HW2 2283   0.357   2.196   3.365
  757SOL     OW 2284   1.603   2.309   2.599
  757SOL    HW1 2285   1.529   2.355   2.549
  757SOL    HW2 2286   1.654   2.377   2.652
  758SOL     OW 2287   0.231   3.575   2.345
  758SOL    HW1 2288   0.265   3.652   2.399
  758SOL    HW2 2289   0.275   3.575   2.255
  759SOL     OW 2290   1.127   3.203   3.552
  759SOL    HW1 2291   1.174   3.203   3.640
  759SOL    HW2 2292   1.079   3.116   3.541
  760SOL     OW 2293   0.230   3.296   2.400
  760SOL    HW1 2294   0.204   3.392   2.400
  760SOL    HW2 2295   0.159   3.242   2.445
  761SOL     OW 2296   0.240   2.953   2.748
  761SOL    HW1 2297   0.254   2.869   2.800
  761SOL    HW2 2298   0.185   3.017   2.803
  762SOL     OW 2299   0.620   3.648   3.301
  762SOL    HW1 2300   0.528   3.631   3.336
  762SOL    HW2 2301   0.648   3.740   3.327
  763SOL     OW 2302   0.606   2.826   1.985
  763SOL    HW1 2303   0.613   2.910   1.931
  763SOL    HW2 2304   0.652   2.839   2.073
  764SOL     OW 2305   1.594   1.976   3.342
  764SOL    HW1 2306   1.576   2.043   3.270
  764SOL    HW2 2307   1.591   2.022   3.431
  765SOL     OW 2308   0.122   2.505   2.425
  765SOL    HW1 2309   0.077   2.417   2.442
  765SOL    HW2 2310   0.121   2.559   2.509
  766SOL     OW 2311   1.842   3.629   2.221
  766SOL    HW1 2312   1.896   3.600   2.301
  766SOL    HW2 2313   1.872   3.719   2.192
  767SOL     OW 2314   0.027   3.458   1.979
  767SOL    HW1 2315   0.008   3.362   2.000
  767SOL    HW2 2316  -0.006   3.516   2.054
  768SOL     OW 2317   1.689   2.784   2.474
  768SOL    HW1 2318   1.784   2.755   2.482
  768SOL    HW2 2319   1.681   2.849   2.399
  769SOL     OW 2320   1.641   2.970   2.294
  769SOL    HW1 2321   1.727   2.972   2.242
  769SOL    HW2 2322   1.655   3.017   2.382
  770SOL     OW 2323   0.113   2.599   3.459
  770SOL    HW1 2324   0.201   2.586   3.504
  770SOL    HW2 2325   0.100   2.696   3.437
  771SOL     OW 2326   0.613   3.227   2.588
  771SOL    HW1 2327   0.564   3.140   2.597
  771SOL    HW2 2328   0.590   3.270   2.501
  772SOL     OW 2329   1.293   3.090   3.285
  772SOL    HW1 2330   1.330   3.017   3.227
  772SOL    HW2 2331   1.345   3.095   3.370
  773SOL     OW 2332   0.809   1.866   2.364
  773SOL    HW1 2333   0.849   1.957   2.355
  773SOL    HW2 2334   0.709   1.874   2.370
  774SOL     OW 2335   0.197   2.838   3.126
  774SOL    HW1 2336   0.286   2.793   3.112
  774SOL    HW2 2337   0.124   2.773   3.107
  775SOL     OW 2338   1.525   2.861   2.052
  775SOL    HW1 2339   1.462   2.785   2.065
  775SOL    HW2 2340   1.573   2.879   2.138
  776SOL     OW 2341   1.187   3.654   3.478
  776SOL    HW1 2342   1.211   3.714   3.402
  776SOL    HW2 2343   1.194   3.559   3.448
  777SOL     OW 2344   0.317   2.113   3.663
  777SOL    HW1 2345   0.388   2.184   3.669
  777SOL    HW2 2346   0.229   2.152   3.691
  778SOL     OW 2347   1.466   3.279   2.815
  778SOL    HW1 2348   1.407   3.285   2.895
  778SOL    HW2 2349   1.451   3.191   2.769
  779SOL     OW 2350   1.667   3.576   2.434
  779SOL    HW1 2351   1.626   3.553   2.346
  779SOL    HW2 2352   1.649   3.502   2.499
  780SOL     OW 2353   0.598   2.591   2.132
  780SOL    HW1 2354   0.622   2.660   2.064
  780SOL    HW2 2355   0.520   2.624   2.186
  781SOL     OW 2356   1.281   2.207   2.806
  781SOL    HW1 2357   1.195   2.157   2.793
  781SOL    HW2 2358   1.343   2.153   2.862
  782SOL     OW 2359   1.576   3.524   2.169
  782SOL    HW1 2360   1.665   3.570   2.172
  782SOL    HW2 2361   1.555   3.500   2.074
  783SOL     OW 2362   0.807   2.467   3.327
  783SOL    HW1 2363   0.760   2.464   3.416
  783SOL    HW2 2364   0.756   2.412   3.261
  784SOL     OW 2365   1.394   2.331   3.536
  784SOL    HW1 2366   1.374   2.374   3.624
  784SOL    HW2 2367   1.472   2.269   3.545
  785SOL     OW 2368   0.973   2.752   3.434
  785SOL    HW1 2369   1.019   2.668   3.405
  785SOL    HW2 2370   0.917   2.786   3.359
  786SOL     OW 2371   0.991   2.272   3.104
  786SOL    HW1 2372   0.914   2.306   3.158
  786SOL    HW2 2373   0.957   2.221   3.025
  787SOL     OW 2374   1.041   2.563   2.291
  787SOL    HW1 2375   1.067   2.559   2.387
  787SOL    HW2 2376   0.956   2.512   2.277
  788SOL     OW 2377   0.076   2.673   2.651
  788SOL    HW1 2378   0.175   2.661   2.660
  788SOL    HW2 2379   0.052   2.768   2.672
  789SOL     OW 2380   0.130   3.683   3.433
  789SOL    HW1 2381   0.120   3.668   3.532
  789SOL    HW2 2382   0.044   3.719   3.397
  790SOL     OW 2383   0.865   2.210   2.057
  790SOL    HW1 2384   0.924   2.273   2.008
  790SOL    HW2 2385   0.884   2.116   2.028
  791SOL     OW 2386   1.719   2.447   3.693
  791SOL    HW1 2387   1.693   2.536   3.657
  791SOL    HW2 2388   1.717   2.379   3.620
  792SOL     OW 2389   1.362   3.006   2.407
  792SOL    HW1 2390   1.445   2.977   2.359
  792SOL    HW2 2391   1.313   3.073   2.351
  793SOL     OW 2392   0.550   2.058   2.747
  793SOL    HW1 2393   0.545   2.053   2.847
  793SOL    HW2 2394   0.552   2.154   2.718
  794SOL     OW 2395   1.008   3.318   2.339
  794SOL    HW1 2396   0.962   3.390   2.287
  794SOL    HW2 2397   1.004   3.338   2.437
  795SOL     OW 2398   0.351   3.663   2.715
  795SOL    HW1 2399   0.401   3.577   2.721
  795SOL    HW2 2400   0.416   3.740   2.712
  796SOL     OW 2401   1.795   2.928   2.735
  796SOL    HW1 2402   1.733   2.913   2.659
  796SOL    HW2 2403   1.743   2.939   2.820
  797SOL     OW 2404   1.227   3.412   3.368
  797SOL    HW1 2405   1.233   3.335   3.432
  797SOL    HW2 2406   1.175   3.386   3.288
  798SOL     OW 2407   0.321   2.805   2.104
  798SOL    HW1 2408   0.403   2.844   2.062
  798SOL    HW2 2409   0.294   2.723   2.055
  799SOL     OW 2410   1.458   2.597   2.590
  799SOL    HW1 2411   1.453   2.532   2.665
  799SOL    HW2 2412   1.538   2.656   2.603
  800SOL     OW 2413   0.461   3.128   3.589
  800SOL    HW1 2414   0.411   3.129   3.503
  800SOL    HW2 2415   0.398   3.110   3.665
  801SOL     OW 2416   1.111   3.638   2.099
  801SOL    HW1 2417   1.051   3.576   2.149
  801SOL    HW2 2418   1.142   3.594   2.014
  802SOL     OW 2419   0.202   2.147   3.360
  802SOL    HW1 2420   0.122   2.207   3.347
  802SOL    HW2 2421   0.192   2.098   3.446
  803SOL     OW 2422   1.632   3.239   1.943
  803SOL    HW1 2423   1.600   3.333   1.933
  803SOL    HW2 2424   1.556   3.176   1.931
  804SOL     OW 2425   0.464   3.605   2.185
  804SOL    HW1 2426   0.497   3.644   2.271
  804SOL    HW2 2427   0.540   3.598   2.120
  805SOL     OW 2428   1.400   1.969   2.288
  805SOL    HW1 2429   1.376   1.932   2.198
  805SOL    HW2 2430   1.499   1.985   2.292
  806SOL     OW 2431   0.249   3.647   3.103
  806SOL    HW1 2432   0.306   3.582   3.153
  806SOL    HW2 2433   0.233   3.614   3.010
  807SOL     OW 2434   0.940   3.560   2.766
  807SOL    HW1 2435   1.020   3.503   2.787
  807SOL    HW2 2436   0.891   3.520   2.689
  808SOL     OW 2437   0.382   2.562   2.342
  808SOL    HW1 2438   0.427   2.472   2.339
  808SOL    HW2 2439   0.288   2.551   2.375
  809SOL     OW 2440   1.547   2.084   3.591
  809SOL    HW1 2441   1.542   2.121   3.683
  809SOL    HW2 2442   1.475   2.015   3.579
  810SOL     OW 2443   0.614   1.984   1.979
  810SOL    HW1 2444   0.712   1.962   1.986
  810SOL    HW2 2445   0.583   1.967   1.886
  811SOL     OW 2446   0.781   2.126   3.611
  811SOL    HW1 2447   0.848   2.065   3.654
  811SOL    HW2 2448   0.708   2.145   3.676
  812SOL     OW 2449   0.888   3.376   3.057
  812SOL    HW1 2450   0.865   3.351   2.963
  812SOL    HW2 2451   0.949   3.307   3.096
  813SOL     OW 2452   1.351   2.452   3.295
  813SOL    HW1 2453   1.379   2.409   3.380
  813SOL    HW2 2454   1.376   2.548   3.296
  814SOL     OW 2455   0.803   3.264   2.786
  814SOL    HW1 2456   0.893   3.278   2.744
  814SOL    HW2 2457   0.732   3.266   2.715
  815SOL     OW 2458   0.922   2.365   2.761
  815SOL    HW1 2459   0.897   2.356   2.665
  815SOL    HW2 2460   0.970   2.283   2.792
  816SOL     OW 2461   0.539   1.926   2.374
  816SOL    HW1 2462   0.458   1.927   2.432
  816SOL    HW2 2463   0.542   2.009   2.319
  817SOL     OW 2464   1.434   3.050   1.903
  817SOL    HW1 2465   1.466   2.974   1.960
  817SOL    HW2 2466   1.342   3.077   1.933
  818SOL     OW 2467   0.297   1.897   2.033
  818SOL    HW1 2468   0.346   1.981   2.012
  818SOL    HW2 2469   0.359   1.832   2.078
  819SOL     OW 2470   0.935   2.098   2.342
  819SOL    HW1 2471   0.887   2.139   2.264
  819SOL    HW2 2472   1.034   2.096   2.323
  820SOL     OW 2473   1.076   2.545   3.326
  820SOL    HW1 2474   0.996   2.484   3.329
  820SOL    HW2 2475   1.157   2.492   3.302
  821SOL     OW 2476   1.227   3.432   2.655
  821SOL    HW1 2477   1.248   3.506   2.590
  821SOL    HW2 2478   1.295   3.432   2.728
  822SOL     OW 2479   0.459   3.014   2.603
  822SOL    HW1 2480   0.388   2.987   2.668
  822SOL    HW2 2481   0.433   2.986   2.510
  823SOL     OW 2482   1.271   3.659   2.453
  823SOL    HW1 2483   1.315   3.723   2.389
  823SOL    HW2 2484   1.221   3.711   2.523
  824SOL     OW 2485   1.032   2.411   1.878
  824SOL    HW1 2486   0.991   2.493   1.839
  824SOL    HW2 2487   1.096   2.437   1.951
  825SOL     OW 2488   0.078   2.418   3.248
  825SOL    HW1 2489   0.170   2.417   3.207
  825SOL    HW2 2490   0.072   2.492   3.315
  826SOL     OW 2491   0.561   2.084   3.009
  826SOL    HW1 2492   0.599   2.000   3.046
  826SOL    HW2 2493   0.473   2.103   3.053
  827SOL     OW 2494   0.866   2.316   2.504
  827SOL    HW1 2495   0.834   2.388   2.442
  827SOL    HW2 2496   0.890   2.235   2.451
  828SOL     OW 2497   1.017   1.901   2.615
  828SOL    HW1 2498   0.945   1.906   2.546
  828SOL    HW2 2499   0.993   1.832   2.684
  829SOL     OW 2500   1.429   3.035   2.729
  829SOL    HW1 2501   1.374   2.951   2.722
  829SOL    HW2 2502   1.455   3.064   2.637
  830SOL     OW 2503   1.466   2.452   2.854
  830SOL    HW1 2504   1.436   2.357   2.861
  830SOL    HW2 2505   1.539   2.468   2.920
  831SOL     OW 2506   1.857   2.695   2.239
  831SOL    HW1 2507   1.899   2.631   2.303
  831SOL    HW2 2508   1.819   2.644   2.161
  832SOL     OW 2509   0.488   3.247   2.036
  832SOL    HW1 2510   0.401   3.232   2.083
  832SOL    HW2 2511   0.471   3.273   1.941
  833SOL     OW 2512   1.664   3.142   2.519
  833SOL    HW1 2513   1.763   3.150   2.533
  833SOL    HW2 2514   1.619   3.226   2.550
  834SOL     OW 2515   1.390   2.437   1.940
  834SOL    HW1 2516   1.336   2.416   2.021
  834SOL    HW2 2517   1.481   2.396   1.949
  835SOL     OW 2518   0.527   2.118   2.190
  835SOL    HW1 2519   0.554   2.059   2.115
  835SOL    HW2 2520   0.527   2.213   2.159
  836SOL     OW 2521   1.754   3.085   3.450
  836SOL    HW1 2522   1.845   3.046   3.437
  836SOL    HW2 2523   1.762   3.181   3.474
  837SOL     OW 2524   1.064   3.209   3.202
  837SOL    HW1 2525   0.984   3.186   3.257
  837SOL    HW2 2526   1.147   3.183   3.251
  838SOL     OW 2527   1.592   3.491   3.487
  838SOL    HW1 2528   1.619   3.525   3.397
  838SOL    HW2 2529   1.671   3.453   3.533
  839SOL     OW 2530   1.111   3.057   2.962
  839SOL    HW1 2531   1.071   3.101   3.043
  839SOL    HW2 2532   1.070   3.094   2.879
  840SOL     OW 2533   1.638   2.961   2.941
  840SOL    HW1 2534   1.643   3.042   3.000
  840SOL    HW2 2535   1.552   2.963   2.890
  841SOL     OW 2536   0.915   1.951   3.264
  841SOL    HW1 2537   0.940   1.931   3.169
  841SOL    HW2 2538   0.987   2.007   3.306
  842SOL     OW 2539   0.980   2.978   3.581
  842SOL    HW1 2540   0.881   2.984   3.591
  842SOL    HW2 2541   1.003   2.898   3.525
  843SOL     OW 2542   0.705   2.912   2.230
  843SOL    HW1 2543   0.691   2.919   2.329
  843SOL    HW2 2544   0.789   2.861   2.212
  844SOL     OW 2545   0.410   2.675   3.113
  844SOL    HW1 2546   0.496   2.687   3.163
  844SOL    HW2 2547   0.368   2.588   3.140
  845SOL     OW 2548   1.274   2.248   3.124
  845SOL    HW1 2549   1.295   2.322   3.188
  845SOL    HW2 2550   1.185   2.265   3.081
  846SOL     OW 2551   0.064   3.426   3.193
  846SOL    HW1 2552   0.018   3.508   3.159
  846SOL    HW2 2553   0.162   3.445   3.202
  847SOL     OW 2554   0.367   2.962   2.363
  847SOL    HW1 2555   0.360   3.045   2.307
  847SOL    HW2 2556   0.371   2.882   2.303
  848SOL     OW 2557   0.566   2.399   2.727
  848SOL    HW1 2558   0.578   2.465   2.653
  848SOL    HW2 2559   0.612   2.433   2.810
  849SOL     OW 2560   1.252   3.210   2.250
  849SOL    HW1 2561   1.302   3.287   2.290
  849SOL    HW2 2562   1.157   3.212   2.282
  850SOL     OW 2563   1.272   3.307   3.004
  850SOL    HW1 2564   1.319   3.320   3.091
  850SOL    HW2 2565   1.206   3.233   3.013
  851SOL     OW 2566   1.582   2.501   2.334
  851SOL    HW1 2567   1.551   2.562   2.407
  851SOL    HW2 2568   1.632   2.553   2.265
  852SOL     OW 2569   0.354   3.372   3.191
  852SOL    HW1 2570   0.333   3.328   3.104
  852SOL    HW2 2571   0.451   3.398   3.194
  853SOL     OW 2572   0.402   2.613   3.460
  853SOL    HW1 2573   0.470   2.668   3.413
  853SOL    HW2 2574   0.442   2.525   3.487
  854SOL     OW 2575   1.587   2.641   3.532
  854SOL    HW1 2576   1.495   2.679   3.527
  854SOL    HW2 2577   1.647   2.688   3.467
  855SOL     OW 2578   1.013   1.967   3.632
  855SOL    HW1 2579   1.019   2.052   3.580
  855SOL    HW2 2580   1.045   1.891   3.575
  856SOL     OW 2581   0.504   1.912   3.602
  856SOL    HW1 2582   0.462   1.855   3.532
  856SOL    HW2 2583   0.438   1.981   3.634
  857SOL     OW 2584   0.573   2.732   2.891
  857SOL    HW1 2585   0.617   2.821   2.882
  857SOL    HW2 2586   0.510   2.732   2.968
  858SOL     OW 2587   1.360   2.724   2.907
  858SOL    HW1 2588   1.285   2.724   2.841
  858SOL    HW2 2589   1.397   2.632   2.916
  859SOL     OW 2590   1.209   2.387   2.137
  859SOL    HW1 2591   1.222   2.303   2.191
  859SOL    HW2 2592   1.180   2.461   2.197
  860SOL     OW 2593   0.307   2.075   3.093
  860SOL    HW1 2594   0.284   2.112   3.183
  860SOL    HW2 2595   0.277   1.980   3.087
  861SOL     OW 2596   0.037   3.172   3.144
  861SOL    HW1 2597   0.090   3.123   3.212
  861SOL    HW2 2598   0.059   3.270   3.149
  862SOL     OW 2599   0.732   2.496   2.926
  862SOL    HW1 2600   0.791   2.470   2.850
  862SOL    HW2 2601   0.704   2.592   2.915
  863SOL     OW 2602   1.728   2.797   3.716
  863SOL    HW1 2603   1.682   2.790   3.627
  863SOL    HW2 2604   1.666   2.841   3.782
  864SOL     OW 2605   0.307   1.925   2.480
  864SOL    HW1 2606   0.296   2.019   2.513
  864SOL    HW2 2607   0.302   1.862   2.557
  865SOL     OW 2608   1.622   2.229   2.236
  865SOL    HW1 2609   1.624   2.153   2.300
  865SOL    HW2 2610   1.574   2.306   2.276
  866SOL     OW 2611   1.023   2.628   2.828
  866SOL    HW1 2612   1.038   2.649   2.924
  866SOL    HW2 2613   0.993   2.533   2.819
  867SOL     OW 2614   0.980   3.435   3.562
  867SOL    HW1 2615   0.960   3.479   3.474
  867SOL    HW2 2616   1.019   3.344   3.546
  868SOL     OW 2617   1.859   3.380   3.467
  868SOL    HW1 2618   1.873   3.407   3.372
  868SOL    HW2 2619   1.942   3.402   3.520
  869SOL     OW 2620   0.350   2.760   3.666
  869SOL    HW1 2621   0.426   2.804   3.714
  869SOL    HW2 2622   0.385   2.713   3.584
  870SOL     OW 2623   1.540   2.136   1.987
  870SOL    HW1 2624   1.479   2.061   2.010
  870SOL    HW2 2625   1.562   2.188   2.070
  871SOL     OW 2626   1.303   2.700   1.904
  871SOL    HW1 2627   1.337   2.607   1.919
  871SOL    HW2 2628   1.321   2.727   1.809
  872SOL     OW 2629   1.068   3.195   2.711
  872SOL    HW1 2630   1.075   3.111   2.656
  872SOL    HW2 2631   1.130   3.264   2.675
  873SOL     OW 2632   0.319   2.672   2.811
  873SOL    HW1 2633   0.412   2.708   2.816
  873SOL    HW2 2634   0.313   2.587   2.863
  874SOL     OW 2635   0.339   2.371   2.868
  874SOL    HW1 2636   0.287   2.288   2.851
  874SOL    HW2 2637   0.416   2.376   2.804
  875SOL     OW 2638   1.138   2.242   3.540
  875SOL    HW1 2639   1.093   2.305   3.604
  875SOL    HW2 2640   1.231   2.273   3.523
  876SOL     OW 2641   1.160   2.069   3.339
  876SOL    HW1 2642   1.160   2.133   3.416
  876SOL    HW2 2643   1.188   2.117   3.256
  877SOL     OW 2644   0.008   3.188   2.062
  877SOL    HW1 2645  -0.085   3.209   2.031
  877SOL    HW2 2646   0.018   3.089   2.075
  878SOL     OW 2647   0.088   3.663   2.789
  878SOL    HW1 2648   0.046   3.577   2.762
  878SOL    HW2 2649   0.182   3.666   2.755
  879SOL     OW 2650   0.504   3.430   2.772
  879SOL    HW1 2651   0.570   3.504   2.781
  879SOL    HW2 2652   0.548   3.351   2.730
  880SOL     OW 2653   1.002   2.658   3.100
  880SOL    HW1 2654   1.043   2.626   3.186
  880SOL    HW2 2655   0.906   2.631   3.097
  881SOL     OW 2656   0.040   2.406   2.976
  881SOL    HW1 2657   0.125   2.373   2.935
  881SOL    HW2 2658   0.053   2.421   3.074
  882SOL     OW 2659   0.189   2.382   3.584
  882SOL    HW1 2660   0.248   2.342   3.514
  882SOL    HW2 2661   0.131   2.453   3.543
  883SOL     OW 2662   1.369   2.812   3.522
  883SOL    HW1 2663   1.408   2.901   3.542
  883SOL    HW2 2664   1.379   2.792   3.425
  884SOL     OW 2665   0.815   2.434   2.187
  884SOL    HW1 2666   0.822   2.345   2.141
  884SOL    HW2 2667   0.721   2.468   2.179
  885SOL     OW 2668   1.657   2.466   3.068
  885SOL    HW1 2669   1.619   2.397   3.130
  885SOL    HW2 2670   1.739   2.430   3.024
  886SOL     OW 2671   0.252   3.426   3.606
  886SOL    HW1 2672   0.222   3.483   3.682
  886SOL    HW2 2673   0.245   3.329   3.632
  887SOL     OW 2674   0.671   2.326   3.131
  887SOL    HW1 2675   0.637   2.237   3.101
  887SOL    HW2 2676   0.697   2.380   3.051
  888SOL     OW 2677   0.930   3.540   3.327
  888SOL    HW1 2678   0.906   3.522   3.232
  888SOL    HW2 2679   0.960   3.634   3.337
  889SOL     OW 2680   0.473   2.362   2.053
  889SOL    HW1 2681   0.534   2.442   2.057
  889SOL    HW2 2682   0.378   2.393   2.060
  890SOL     OW 2683   0.159   2.999   3.328
  890SOL    HW1 2684   0.181   2.938   3.404
  890SOL    HW2 2685   0.169   2.950   3.242
  891SOL     OW 2686   1.347   2.921   3.096
  891SOL    HW1 2687   1.371   2.858   3.022
  891SOL    HW2 2688   1.257   2.961   3.078
  892SOL     OW 2689   1.302   2.717   2.171
  892SOL    HW1 2690   1.216   2.686   2.213
  892SOL    HW2 2691   1.298   2.703   2.072
  893SOL     OW 2692   1.759   3.609   3.016
  893SOL    HW1 2693   1.820   3.639   2.943
  893SOL    HW2 2694   1.721   3.520   2.994
  894SOL     OW 2695   1.252   3.593   2.990
  894SOL    HW1 2696   1.336   3.598   2.936
  894SOL    HW2 2697   1.229   3.497   3.008
  895SOL     OW 2698   0.083   3.120   2.884
  895SOL    HW1 2699   0.078   3.119   2.984
  895SOL    HW2 2700   0.000   3.079   2.846
  896SOL     OW 2701   0.688   3.524   3.578
  896SOL    HW1 2702   0.632   3.605   3.587
  896SOL    HW2 2703   0.740   3.528   3.492
  897SOL     OW 2704   1.726   1.997   2.385
  897SOL    HW1 2705   1.799   1.980   2.318
  897SOL    HW2 2706   1.695   1.910   2.423
  898SOL     OW 2707   1.388   3.435   2.339
  898SOL    HW1 2708   1.455   3.447   2.265
  898SOL    HW2 2709   1.348   3.524   2.362
  899SOL     OW 2710   0.130   3.656   3.713
  899SOL    HW1 2711   0.089   3.582   3.766
  899SOL    HW2 2712   0.194   3.707   3.771
  900SOL     OW 2713   1.280   2.789   2.534
  900SOL    HW1 2714   1.340   2.708   2.536
  900SOL    HW2 2715   1.320   2.858   2.474
  901SOL     OW 2716   0.830   3.135   3.284
  901SOL    HW1 2717   0.825   3.168   3.379
  901SOL    HW2 2718   0.744   3.154   3.238
  902SOL     OW 2719   0.672   3.478   2.016
  902SOL    HW1 2720   0.681   3.488   1.917
  902SOL    HW2 2721   0.632   3.389   2.037
  903SOL     OW 2722   1.650   3.582   3.256
  903SOL    HW1 2723   1.703   3.592   3.172
  903SOL    HW2 2724   1.623   3.672   3.290
  904SOL     OW 2725   1.841   2.037   2.825
  904SOL    HW1 2726   1.880   1.952   2.789
  904SOL    HW2 2727   1.743   2.039   2.806
  905SOL     OW 2728   0.263   2.188   2.582
  905SOL    HW1 2729   0.184   2.239   2.548
  905SOL    HW2 2730   0.254   2.173   2.680
  906SOL     OW 2731   1.194   3.474   1.893
  906SOL    HW1 2732   1.200   3.381   1.930
  906SOL    HW2 2733   1.135   3.474   1.813
  907SOL     OW 2734   0.822   2.864   3.234
  907SOL    HW1 2735   0.862   2.863   3.142
  907SOL    HW2 2736   0.832   2.956   3.274
  908SOL     OW 2737   0.916   2.772   2.153
  908SOL    HW1 2738   0.979   2.810   2.085
  908SOL    HW2 2739   0.956   2.689   2.192
  909SOL     OW 2740   1.504   3.469   1.906
  909SOL    HW1 2741   1.412   3.506   1.913
  909SOL    HW2 2742   1.542   3.489   1.816
  910SOL     OW 2743   0.372   3.150   3.352
  910SOL    HW1 2744   0.359   3.243   3.318
  910SOL    HW2 2745   0.288   3.098   3.339
  911SOL     OW 2746   1.614   3.154   3.151
  911SOL    HW1 2747   1.674   3.157   3.231
  911SOL    HW2 2748   1.539   3.218   3.164
  912SOL     OW 2749   1.039   2.960   2.558
  912SOL    HW1 2750   0.969   2.913   2.612
  912SOL    HW2 2751   1.098   2.892   2.515
  913SOL     OW 2752   1.014   2.098   2.833
  913SOL    HW1 2753   1.006   2.062   2.740
  913SOL    HW2 2754   1.012   2.022   2.898
  914SOL     OW 2755   0.590   3.349   2.353
  914SOL    HW1 2756   0.632   3.291   2.283
  914SOL    HW2 2757   0.546   3.428   2.309
  915SOL     OW 2758   1.709   2.247   3.243
  915SOL    HW1 2759   1.782   2.316   3.247
  915SOL    HW2 2760   1.737   2.172   3.184
  916SOL     OW 2761   0.255   3.210   2.152
  916SOL    HW1 2762   0.159   3.211   2.125
  916SOL    HW2 2763   0.267   3.263   2.236
  917SOL     OW 2764   0.105   2.875   3.588
  917SOL    HW1 2765   0.028   2.842   3.642
  917SOL    HW2 2766   0.190   2.845   3.630
  918SOL     OW 2767   0.672   2.065   3.351
  918SOL    HW1 2768   0.762   2.049   3.311
  918SOL    HW2 2769   0.680   2.070   3.450
  919SOL     OW 2770   0.075   2.207   1.895
  919SOL    HW1 2771  -0.017   2.179   1.866
  919SOL    HW2 2772   0.106   2.284   1.839
  920SOL     OW 2773   1.440   2.718   3.260
  920SOL    HW1 2774   1.383   2.770   3.197
  920SOL    HW2 2775   1.536   2.730   3.236
  921SOL     OW 2776   0.072   2.028   2.180
  921SOL    HW1 2777   0.055   2.111   2.126
  921SOL    HW2 2778   0.162   1.991   2.158
  922SOL     OW 2779   1.183   3.197   1.981
  922SOL    HW1 2780   1.084   3.186   1.983
  922SOL    HW2 2781   1.217   3.212   2.074
  923SOL     OW 2782   0.613   2.704   3.293
  923SOL    HW1 2783   0.669   2.785   3.276
  923SOL    HW2 2784   0.672   2.624   3.296
  924SOL     OW 2785   1.493   3.629   2.821
  924SOL    HW1 2786   1.526   3.693   2.752
  924SOL    HW2 2787   1.559   3.623   2.896
  925SOL     OW 2788   0.716   2.427   3.570
  925SOL    HW1 2789   0.735   2.492   3.644
  925SOL    HW2 2790   0.776   2.347   3.579
  926SOL     OW 2791   1.450   3.082   3.495
  926SOL    HW1 2792   1.441   3.072   3.594
  926SOL    HW2 2793   1.546   3.075   3.469
  927SOL     OW 2794   0.390   3.603   3.422
  927SOL    HW1 2795   0.299   3.644   3.420
  927SOL    HW2 2796   0.383   3.509   3.454
  928SOL     OW 2797   1.674   2.745   3.116
  928SOL    HW1 2798   1.647   2.656   3.079
  928SOL    HW2 2799   1.675   2.813   3.043
  929SOL     OW 2800   1.225   2.187   2.311
  929SOL    HW1 2801   1.290   2.113   2.300
  929SOL    HW2 2802   1.245   2.237   2.395
  930SOL     OW 2803   0.594   2.607   2.514
  930SOL    HW1 2804   0.644   2.692   2.495
  930SOL    HW2 2805   0.506   2.609   2.466
  931SOL     OW 2806   1.777   2.204   3.504
  931SOL    HW1 2807   1.760   2.235   3.410
  931SOL    HW2 2808   1.693   2.167   3.542
  932SOL     OW 2809   1.730   2.796   3.379
  932SOL    HW1 2810   1.768   2.887   3.394
  932SOL    HW2 2811   1.722   2.779   3.280
  933SOL     OW 2812   0.859   3.236   1.878
  933SOL    HW1 2813   0.813   3.251   1.966
  933SOL    HW2 2814   0.903   3.321   1.848
  934SOL     OW 2815   0.661   3.652   2.815
  934SOL    HW1 2816   0.615   3.740   2.802
  934SOL    HW2 2817   0.760   3.664   2.808
  935SOL     OW 2818   0.859   2.818   2.723
  935SOL    HW1 2819   0.913   2.749   2.771
  935SOL    HW2 2820   0.827   2.887   2.789
  936SOL     OW 2821   1.083   2.846   1.949
  936SOL    HW1 2822   1.060   2.899   1.867
  936SOL    HW2 2823   1.164   2.790   1.930
  937SOL     OW 2824   1.861   3.431   2.713
  937SOL    HW1 2825   1.790   3.419   2.643
  937SOL    HW2 2826   1.862   3.352   2.773
  938SOL     OW 2827   0.221   3.176   3.706
  938SOL    HW1 2828   0.156   3.103   3.685
  938SOL    HW2 2829   0.225   3.190   3.804
  939SOL     OW 2830   0.079   3.102   2.515
  939SOL    HW1 2831   0.078   3.055   2.603
  939SOL    HW2 2832   0.161   3.074   2.464
  940SOL     OW 2833   0.672   3.253   3.486
  940SOL    HW1 2834   0.594   3.203   3.524
  940SOL    HW2 2835   0.669   3.348   3.517
  941SOL     OW 2836   1.824   2.054   3.089
  941SOL    HW1 2837   1.820   1.964   3.133
  941SOL    HW2 2838   1.827   2.043   2.990
  942SOL     OW 2839   0.428   2.286   2.382
  942SOL    HW1 2840   0.458   2.214   2.320
  942SOL    HW2 2841   0.389   2.246   2.465
  943SOL     OW 2842   1.705   3.349   2.966
  943SOL    HW1 2843   1.612   3.324   2.939
  943SOL    HW2 2844   1.731   3.299   3.048
  944SOL     OW 2845   0.317   2.409   3.142
  944SOL    HW1 2846   0.355   2.350   3.214
  944SOL    HW2 2847   0.357   2.383   3.054
  945SOL     OW 2848   0.812   3.448   2.549
  945SOL    HW1 2849   0.844   3.458   2.455
  945SOL    HW2 2850   0.733   3.386   2.551
  946SOL     OW 2851   1.424   2.076   2.974
  946SOL    HW1 2852   1.476   2.011   3.029
  946SOL    HW2 2853   1.375   2.139   3.035
  947SOL     OW 2854   1.001   1.896   3.016
  947SOL    HW1 2855   0.938   1.824   2.985
  947SOL    HW2 2856   1.094   1.860   3.016
  948SOL     OW 2857   0.770   3.192   2.163
  948SOL    HW1 2858   0.724   3.105   2.180
  948SOL    HW2 2859   0.861   3.189   2.204
  949SOL     OW 2860   0.618   3.429   3.146
  949SOL    HW1 2861   0.613   3.511   3.203
  949SOL    HW2 2862   0.707   3.426   3.101
  950SOL     OW 2863   1.352   1.914   2.030
  950SOL    HW1 2864   1.387   1.873   1.946
  950SOL    HW2 2865   1.262   1.876   2.050
  951SOL     OW 2866   1.300   2.315   2.553
  951SOL    HW1 2867   1.241   2.395   2.557
  951SOL    HW2 2868   1.315   2.280   2.646
  952SOL     OW 2869   1.593   2.083   2.744
  952SOL    HW1 2870   1.509   2.082   2.798
  952SOL    HW2 2871   1.595   2.166   2.688
  953SOL     OW 2872   0.039   2.939   2.162
  953SOL    HW1 2873   0.138   2.928   2.153
  953SOL    HW2 2874  -0.001   2.853   2.194
  954SOL     OW 2875   0.875   3.508   2.199
  954SOL    HW1 2876   0.798   3.473   2.145
  954SOL    HW2 2877   0.843   3.579   2.261
  955SOL     OW 2878   0.230   2.490   3.837
  955SOL    HW1 2879   0.137   2.488   3.874
  955SOL    HW2 2880   0.231   2.451   3.745
  956SOL     OW 2881   0.019   2.230   4.371
  956SOL    HW1 2882  -0.063   2.273   4.410
  956SOL    HW2 2883  -0.009   2.157   4.308
  957SOL     OW 2884   1.555   3.373   4.427
  957SOL    HW1 2885   1.498   3.357   4.508
  957SOL    HW2 2886   1.496   3.383   4.347
  958SOL     OW 2887   1.135   2.565   4.441
  958SOL    HW1 2888   1.192   2.643   4.416
  958SOL    HW2 2889   1.075   2.591   4.517
  959SOL     OW 2890   1.755   2.469   3.955
  959SOL    HW1 2891   1.743   2.456   3.856
  959SOL    HW2 2892   1.725   2.388   4.004
  960SOL     OW 2893   0.685   2.874   4.389
  960SOL    HW1 2894   0.754   2.858   4.459
  960SOL    HW2 2895   0.612   2.931   4.427
  961SOL     OW 2896   1.603   2.309   4.461
  961SOL    HW1 2897   1.529   2.355   4.411
  961SOL    HW2 2898   1.654   2.377   4.514
  962SOL     OW 2899   0.231   3.575   4.207
  962SOL    HW1 2900   0.265   3.652   4.261
  962SOL    HW2 2901   0.275   3.575   4.117
  963SOL     OW 2902   0.230   3.296   4.262
  963SOL    HW1 2903   0.204   3.392   4.262
  963SOL    HW2 2904   0.159   3.242   4.307
  964SOL     OW 2905   0.240   2.953   4.610
  964SOL    HW1 2906   0.254   2.869   4.662
  964SOL    HW2 2907   0.185   3.017   4.665
  965SOL     OW 2908   0.606   2.826   3.847
  965SOL    HW1 2909   0.613   2.910   3.793
  965SOL    HW2 2910   0.652   2.839   3.935
  966SOL     OW 2911   0.122   2.505   4.287
  966SOL    HW1 2912   0.077   2.417   4.304
  966SOL    HW2 2913   0.121   2.559   4.371
  967SOL     OW 2914   1.842   3.629   4.083
  967SOL    HW1 2915   1.896   3.600   4.163
  967SOL    HW2 2916   1.872   3.719   4.054
  968SOL     OW 2917   0.027   3.458   3.841
  968SOL    HW1 2918   0.008   3.362   3.862
  968SOL    HW2 2919  -0.006   3.516   3.916
  969SOL     OW 2920   1.689   2.784   4.336
  969SOL    HW1 2921   1.784   2.755   4.344
  969SOL    HW2 2922   1.681   2.849   4.261
  970SOL     OW 2923   1.641   2.970   4.156
  970SOL    HW1 2924   1.727   2.972   4.104
  970SOL    HW2 2925   1.655   3.017   4.244
  971SOL     OW 2926   0.613   3.227   4.450
  971SOL    HW1 2927   0.564   3.140   4.459
  971SOL    HW2 2928   0.590   3.270   4.363
  972SOL     OW 2929   0.809   1.866   4.226
  972SOL    HW1 2930   0.849   1.957   4.217
  972SOL    HW2 2931   0.709   1.874   4.232
  973SOL     OW 2932   1.525   2.861   3.914
  973SOL    HW1 2933   1.462   2.785   3.927
  973SOL    HW2 2934   1.573   2.879   4.000
  974SOL     OW 2935   1.466   3.279   4.677
  974SOL    HW1 2936   1.407   3.285   4.757
  974SOL    HW2 2937   1.451   3.191   4.631
  975SOL     OW 2938   1.667   3.576   4.296
  975SOL    HW1 2939   1.626   3.553   4.208
  975SOL    HW2 2940   1.649   3.502   4.361
  976SOL     OW 2941   0.598   2.591   3.994
  976SOL    HW1 2942   0.622   2.660   3.926
  976SOL    HW2 2943   0.520   2.624   4.048
  977SOL     OW 2944   1.281   2.207   4.668
  977SOL    HW1 2945   1.195   2.157   4.655
  977SOL    HW2 2946   1.343   2.153   4.724
  978SOL     OW 2947   1.576   3.524   4.031
  978SOL    HW1 2948   1.665   3.570   4.034
  978SOL    HW2 2949   1.555   3.500   3.936
  979SOL     OW 2950   1.041   2.563   4.153
  979SOL    HW1 2951   1.067   2.559   4.249
  979SOL    HW2 2952   0.956   2.512   4.139
  980SOL     OW 2953   0.076   2.673   4.513
  980SOL    HW1 2954   0.175   2.661   4.522
  980SOL    HW2 2955   0.052   2.768   4.534
  981SOL     OW 2956   0.865   2.210   3.919
  981SOL    HW1 2957   0.924   2.273   3.870
  981SOL    HW2 2958   0.884   2.116   3.890
  982SOL     OW 2959   1.362   3.006   4.269
  982SOL    HW1 2960   1.445   2.977   4.221
  982SOL    HW2 2961   1.313   3.073   4.213
  983SOL     OW 2962   0.550   2.058   4.609
  983SOL    HW1 2963   0.545   2.053   4.709
  983SOL    HW2 2964   0.552   2.154   4.580
  984SOL     OW 2965   1.008   3.318   4.201
  984SOL    HW1 2966   0.962   3.390   4.149
  984SOL    HW2 2967   1.004   3.338   4.299
  985SOL     OW 2968   0.351   3.663   4.577
  985SOL    HW1 2969   0.401   3.577   4.583
  985SOL    HW2 2970   0.416   3.740   4.574
  986SOL     OW 2971   1.795   2.928   4.597
  986SOL    HW1 2972   1.733   2.913   4.521
  986SOL    HW2 2973   1.743   2.939   4.682
  987SOL     OW 2974   0.321   2.805   3.966
  987SOL    HW1 2975   0.403   2.844   3.924
  987SOL    HW2 2976   0.294   2.723   3.917
  988SOL     OW 2977   1.458   2.597   4.452
  988SOL    HW1 2978   1.453   2.532   4.527
  988SOL    HW2 2979   1.538   2.656   4.465
  989SOL     OW 2980   1.111   3.638   3.961
  989SOL    HW1 2981   1.051   3.576   4.011
  989SOL    HW2 2982   1.142   3.594   3.876
  990SOL     OW 2983   1.632   3.239   3.805
  990SOL    HW1 2984   1.600   3.333   3.795
  990SOL    HW2 2985   1.556   3.176   3.793
  991SOL     OW 2986   0.464   3.605   4.047
  991SOL    HW1 2987   0.497   3.644   4.133
  991SOL    HW2 2988   0.540   3.598   3.982
  992SOL     OW 2989   1.400   1.969   4.150
  992SOL    HW1 2990   1.376   1.932   4.060
  992SOL    HW2 2991   1.499   1.985   4.154
  993SOL     OW 2992   0.382   2.562   4.204
  993SOL    HW1 2993   0.427   2.472   4.201
  993SOL    HW2 2994   0.288   2.551   4.237
  994SOL     OW 2995   0.614   1.984   3.841
  994SOL    HW1 2996   0.712   1.962   3.848
  994SOL    HW2 2997   0.583   1.967   3.748
  995SOL     OW 2998   0.539   1.926   4.236
  995SOL    HW1 2999   0.458   1.927   4.294
  995SOL    HW2 3000   0.542   2.009   4.181
  996SOL     OW 3001   1.434   3.050   3.765
  996SOL    HW1 3002   1.466   2.974   3.822
  996SOL    HW2 3003   1.342   3.077   3.795
  997SOL     OW 3004   0.297   1.897   3.895
  997SOL    HW1 3005   0.346   1.981   3.874
  997SOL    HW2 3006   0.359   1.832   3.940
  998SOL     OW 3007   0.935   2.098   4.204
  998SOL    HW1 3008   0.887   2.139   4.126
  998SOL    HW2 3009   1.034   2.096   4.185
  999SOL     OW 3010   1.227   3.432   4.517
  999SOL    HW1 3011   1.248   3.506   4.452
  999SOL    HW2 3012   1.295   3.432   4.590
 1000SOL     OW 3013   0.459   3.014   4.465
 1000SOL    HW1 3014   0.388   2.987   4.530
 1000SOL    HW2 3015   0.433   2.986   4.372
 1001SOL     OW 3016   1.271   3.659   4.315
 1001SOL    HW1 3017   1.315   3.723   4.251
 1001SOL    HW2 3018   1.221   3.711   4.385
 1002SOL     OW 3019   1.032   2.411   3.740
 1002SOL    HW1 3020   0.991   2.493   3.701
 1002SOL    HW2 3021   1.096   2.437   3.813
 1003SOL     OW 3022   0.866   2.316   4.366
 1003SOL    HW1 3023   0.834   2.388   4.304
 1003SOL    HW2 3024   0.890   2.235   4.313
 1004SOL     OW 3025   1.017   1.901   4.477
 1004SOL    HW1 3026   0.945   1.906   4.408
 1004SOL    HW2 3027   0.993   1.832   4.546
 1005SOL     OW 3028   1.857   2.695   4.101
 1005SOL    HW1 3029   1.899   2.631   4.165
 1005SOL    HW2 3030   1.819   2.644   4.023
 1006SOL     OW 3031   0.488   3.247   3.898
 1006SOL    HW1 3032   0.401   3.232   3.945
 1006SOL    HW2 3033   0.471   3.273   3.803
 1007SOL     OW 3034   1.664   3.142   4.381
 1007SOL    HW1 3035   1.763   3.150   4.395
 1007SOL    HW2 3036   1.619   3.226   4.412
 1008SOL     OW 3037   1.390   2.437   3.802
 1008SOL    HW1 3038   1.336   2.416   3.883
 1008SOL    HW2 3039   1.481   2.396   3.811
 1009SOL     OW 3040   0.527   2.118   4.052
 1009SOL    HW1 3041   0.554   2.059   3.977
 1009SOL    HW2 3042   0.527   2.213   4.021
 1010SOL     OW 3043   0.705   2.912   4.092
 1010SOL    HW1 3044   0.691   2.919   4.191
 1010SOL    HW2 3045   0.789   2.861   4.074
 1011SOL     OW 3046   0.367   2.962   4.225
 1011SOL    HW1 3047   0.360   3.045   4.169
 1011SOL    HW2 3048   0.371   2.882   4.165
 1012SOL     OW 3049   0.566   2.399   4.589
 1012SOL    HW1 3050   0.578   2.465   4.515
 1012SOL    HW2 3051   0.612   2.433   4.672
 1013SOL     OW 3052   1.252   3.210   4.112
 1013SOL    HW1 3053   1.302   3.287   4.152
 1013SOL    HW2 3054   1.157   3.212   4.144
 1014SOL     OW 3055   1.582   2.501   4.196
 1014SOL    HW1 3056   1.551   2.562   4.269
 1014SOL    HW2 3057   1.632   2.553   4.127
 1015SOL     OW 3058   1.209   2.387   3.999
 1015SOL    HW1 3059   1.222   2.303   4.053
 1015SOL    HW2 3060   1.180   2.461   4.059
 1016SOL     OW 3061   0.732   2.496   4.788
 1016SOL    HW1 3062   0.791   2.470   4.712
 1016SOL    HW2 3063   0.704   2.592   4.777
 1017SOL     OW 3064   0.307   1.925   4.342
 1017SOL    HW1 3065   0.296   2.019   4.375
 1017SOL    HW2 3066   0.302   1.862   4.419
 1018SOL     OW 3067   1.622   2.229   4.098
 1018SOL    HW1 3068   1.624   2.153   4.162
 1018SOL    HW2 3069   1.574   2.306   4.138
 1019SOL     OW 3070   1.540   2.136   3.849
 1019SOL    HW1 3071   1.479   2.061   3.872
 1019SOL    HW2 3072   1.562   2.188   3.932
 1020SOL     OW 3073   1.303   2.700   3.766
 1020SOL    HW1 3074   1.337   2.607   3.781
 1020SOL    HW2 3075   1.321   2.727   3.671
 1021SOL     OW 3076   1.068   3.195   4.573
 1021SOL    HW1 3077   1.075   3.111   4.518
 1021SOL    HW2 3078   1.130   3.264   4.537
 1022SOL     OW 3079   0.008   3.188   3.924
 1022SOL    HW1 3080  -0.085   3.209   3.893
 1022SOL    HW2 3081   0.018   3.089   3.937
 1023SOL     OW 3082   0.088   3.663   4.651
 1023SOL    HW1 3083   0.046   3.577   4.624
 1023SOL    HW2 3084   0.182   3.666   4.617
 1024SOL     OW 3085   0.504   3.430   4.634
 1024SOL    HW1 3086   0.570   3.504   4.643
 1024SOL    HW2 3087   0.548   3.351   4.592
 1025SOL     OW 3088   0.815   2.434   4.049
 1025SOL    HW1 3089   0.822   2.345   4.003
 1025SOL    HW2 3090   0.721   2.468   4.041
 1026SOL     OW 3091   0.473   2.362   3.915
 1026SOL    HW1 3092   0.534   2.442   3.919
 1026SOL    HW2 3093   0.378   2.393   3.922
 1027SOL     OW 3094   1.302   2.717   4.033
 1027SOL    HW1 3095   1.216   2.686   4.075
 1027SOL    HW2 3096   1.298   2.703   3.934
 1028SOL     OW 3097   1.726   1.997   4.247
 1028SOL    HW1 3098   1.799   1.980   4.180
 1028SOL    HW2 3099   1.695   1.910   4.285
 1029SOL     OW 3100   1.388   3.435   4.201
 1029SOL    HW1 3101   1.455   3.447   4.127
 1029SOL    HW2 3102   1.348   3.524   4.224
 1030SOL     OW 3103   1.280   2.789   4.396
 1030SOL    HW1 3104   1.340   2.708   4.398
 1030SOL    HW2 3105   1.320   2.858   4.336
 1031SOL     OW 3106   0.672   3.478   3.878
 1031SOL    HW1 3107   0.681   3.488   3.779
 1031SOL    HW2 3108   0.632   3.389   3.899
 1032SOL     OW 3109   1.841   2.037   4.687
 1032SOL    HW1 3110   1.880   1.952   4.651
 1032SOL    HW2 3111   1.743   2.039   4.668
 1033SOL     OW 3112   0.263   2.188   4.444
 1033SOL    HW1 3113   0.184   2.239   4.410
 1033SOL    HW2 3114   0.254   2.173   4.542
 1034SOL     OW 3115   1.194   3.474   3.755
 1034SOL    HW1 3116   1.200   3.381   3.792
 1034SOL    HW2 3117   1.135   3.474   3.675
 1035SOL     OW 3118   0.916   2.772   4.015
 1035SOL    HW1 3119   0.979   2.810   3.947
 1035SOL    HW2 3120   0.956   2.689   4.054
 1036SOL     OW 3121   1.504   3.469   3.768
 1036SOL    HW1 3122   1.412   3.506   3.775
 1036SOL    HW2 3123   1.542   3.489   3.678
 1037SOL     OW 3124   1.039   2.960   4.420
 1037SOL    HW1 3125   0.969   2.913   4.474
 1037SOL    HW2 3126   1.098   2.892   4.377
 1038SOL     OW 3127   0.590   3.349   4.215
 1038SOL    HW1 3128   0.632   3.291   4.145
 1038SOL    HW2 3129   0.546   3.428   4.171
 1039SOL     OW 3130   0.255   3.210   4.014
 1039SOL    HW1 3131   0.159   3.211   3.987
 1039SOL    HW2 3132   0.267   3.263   4.098
 1040SOL     OW 3133   0.075   2.207   3.757
 1040SOL    HW1 3134  -0.017   2.179   3.728
 1040SOL    HW2 3135   0.106   2.284   3.701
 1041SOL     OW 3136   0.072   2.028   4.042
 1041SOL    HW1 3137   0.055   2.111   3.988
 1041SOL    HW2 3138   0.162   1.991   4.020
 1042SOL     OW 3139   1.183   3.197   3.843
 1042SOL    HW1 3140   1.084   3.186   3.845
 1042SOL    HW2 3141   1.217   3.212   3.936
 1043SOL     OW 3142   1.225   2.187   4.173
 1043SOL    HW1 3143   1.290   2.113   4.162
 1043SOL    HW2 3144   1.245   2.237   4.257
 1044SOL     OW 3145   0.594   2.607   4.376
 1044SOL    HW1 3146   0.644   2.692   4.357
 1044SOL    HW2 3147   0.506   2.609   4.328
 1045SOL     OW 3148   0.859   3.236   3.740
 1045SOL    HW1 3149   0.813   3.251   3.828
 1045SOL    HW2 3150   0.903   3.321   3.710
 1046SOL     OW 3151   0.661   3.652   4.677
 1046SOL    HW1 3152   0.615   3.740   4.664
 1046SOL    HW2 3153   0.760   3.664   4.670
 1047SOL     OW 3154   0.859   2.818   4.585
 1047SOL    HW1 3155   0.913   2.749   4.633
 1047SOL    HW2 3156   0.827   2.887   4.651
 1048SOL     OW 3157   1.083   2.846   3.811
 1048SOL    HW1 3158   1.060   2.899   3.729
 1048SOL    HW2 3159   1.164   2.790   3.792
 1049SOL     OW 3160   1.861   3.431   4.575
 1049SOL    HW1 3161   1.790   3.419   4.505
 1049SOL    HW2 3162   1.862   3.352   4.635
 1050SOL     OW 3163   0.079   3.102   4.377
 1050SOL    HW1 3164   0.078   3.055   4.465
 1050SOL    HW2 3165   0.161   3.074   4.326
 1051SOL     OW 3166   0.428   2.286   4.244
 1051SOL    HW1 3167   0.458   2.214   4.182
 1051SOL    HW2 3168   0.389   2.246   4.327
 1052SOL     OW 3169   0.812   3.448   4.411
 1052SOL    HW1 3170   0.844   3.458   4.317
 1052SOL    HW2 3171   0.733   3.386   4.413
 1053SOL     OW 3172   0.770   3.192   4.025
 1053SOL    HW1 3173   0.724   3.105   4.042
 1053SOL    HW2 3174   0.861   3.189   4.066
 1054SOL     OW 3175   1.352   1.914   3.892
 1054SOL    HW1 3176   1.387   1.873   3.808
 1054SOL    HW2 3177   1.262   1.876   3.912
 1055SOL     OW 3178   1.300   2.315   4.415
 1055SOL    HW1 3179   1.241   2.395   4.419
 1055SOL    HW2 3180   1.315   2.280   4.508
 1056SOL     OW 3181   1.593   2.083   4.606
 1056SOL    HW1 3182   1.509   2.082   4.660
 1056SOL    HW2 3183   1.595   2.166   4.550
 1057SOL     OW 3184   0.039   2.939   4.024
 1057SOL    HW1 3185   0.138   2.928   4.015
 1057SOL    HW2 3186  -0.001   2.853   4.056
 1058SOL     OW 3187   0.875   3.508   4.061
 1058SOL    HW1 3188   0.798   3.473   4.007
 1058SOL    HW2 3189   0.843   3.579   4.123
 1059SOL     OW 3190   0.230   4.352   0.113
 1059SOL    HW1 3191   0.137   4.350   0.150
 1059SOL    HW2 3192   0.231   4.313   0.021
 1060SOL     OW 3193   0.225   3.999   0.996
 1060SOL    HW1 3194   0.260   3.982   1.088
 1060SOL    HW2 3195   0.137   3.954   0.984
 1061SOL     OW 3196   0.019   4.092   0.647
 1061SOL    HW1 3197  -0.063   4.135   0.686
 1061SOL    HW2 3198  -0.009   4.019   0.584
 1062SOL     OW 3199   1.135   4.427   0.717
 1062SOL    HW1 3200   1.192   4.505   0.692
 1062SOL    HW2 3201   1.075   4.453   0.793
 1063SOL     OW 3202   1.755   4.331   0.231
 1063SOL    HW1 3203   1.743   4.318   0.132
 1063SOL    HW2 3204   1.725   4.250   0.280
 1064SOL     OW 3205   0.850   4.522   1.823
 1064SOL    HW1 3206   0.846   4.598   1.888
 1064SOL    HW2 3207   0.872   4.558   1.732
 1065SOL     OW 3208   0.685   4.736   0.665
 1065SOL    HW1 3209   0.754   4.720   0.735
 1065SOL    HW2 3210   0.612   4.793   0.703
 1066SOL     OW 3211   0.438   4.116   1.499
 1066SOL    HW1 3212   0.520   4.060   1.508
 1066SOL    HW2 3213   0.357   4.058   1.503
 1067SOL     OW 3214   1.603   4.171   0.737
 1067SOL    HW1 3215   1.529   4.217   0.687
 1067SOL    HW2 3216   1.654   4.239   0.790
 1068SOL     OW 3217   1.594   3.838   1.480
 1068SOL    HW1 3218   1.576   3.905   1.408
 1068SOL    HW2 3219   1.591   3.884   1.569
 1069SOL     OW 3220   0.122   4.367   0.563
 1069SOL    HW1 3221   0.077   4.279   0.580
 1069SOL    HW2 3222   0.121   4.421   0.647
 1070SOL     OW 3223   0.113   4.461   1.597
 1070SOL    HW1 3224   0.201   4.448   1.642
 1070SOL    HW2 3225   0.100   4.558   1.575
 1071SOL     OW 3226   0.809   3.728   0.502
 1071SOL    HW1 3227   0.849   3.819   0.493
 1071SOL    HW2 3228   0.709   3.736   0.508
 1072SOL     OW 3229   0.317   3.975   1.801
 1072SOL    HW1 3230   0.388   4.046   1.807
 1072SOL    HW2 3231   0.229   4.014   1.829
 1073SOL     OW 3232   0.598   4.453   0.270
 1073SOL    HW1 3233   0.622   4.522   0.202
 1073SOL    HW2 3234   0.520   4.486   0.324
 1074SOL     OW 3235   1.281   4.069   0.944
 1074SOL    HW1 3236   1.195   4.019   0.931
 1074SOL    HW2 3237   1.343   4.015   1.000
 1075SOL     OW 3238   0.807   4.329   1.465
 1075SOL    HW1 3239   0.760   4.326   1.554
 1075SOL    HW2 3240   0.756   4.274   1.399
 1076SOL     OW 3241   1.394   4.193   1.674
 1076SOL    HW1 3242   1.374   4.236   1.762
 1076SOL    HW2 3243   1.472   4.131   1.683
 1077SOL     OW 3244   0.973   4.614   1.572
 1077SOL    HW1 3245   1.019   4.530   1.543
 1077SOL    HW2 3246   0.917   4.648   1.497
 1078SOL     OW 3247   0.991   4.134   1.242
 1078SOL    HW1 3248   0.914   4.168   1.296
 1078SOL    HW2 3249   0.957   4.083   1.163
 1079SOL     OW 3250   1.041   4.425   0.429
 1079SOL    HW1 3251   1.067   4.421   0.525
 1079SOL    HW2 3252   0.956   4.374   0.415
 1080SOL     OW 3253   0.076   4.535   0.789
 1080SOL    HW1 3254   0.175   4.523   0.798
 1080SOL    HW2 3255   0.052   4.630   0.810
 1081SOL     OW 3256   0.865   4.072   0.195
 1081SOL    HW1 3257   0.924   4.135   0.146
 1081SOL    HW2 3258   0.884   3.978   0.166
 1082SOL     OW 3259   1.719   4.309   1.831
 1082SOL    HW1 3260   1.693   4.398   1.795
 1082SOL    HW2 3261   1.717   4.241   1.758
 1083SOL     OW 3262   0.550   3.920   0.885
 1083SOL    HW1 3263   0.545   3.915   0.985
 1083SOL    HW2 3264   0.552   4.016   0.856
 1084SOL     OW 3265   1.458   4.459   0.728
 1084SOL    HW1 3266   1.453   4.394   0.803
 1084SOL    HW2 3267   1.538   4.518   0.741
 1085SOL     OW 3268   0.202   4.009   1.498
 1085SOL    HW1 3269   0.122   4.069   1.485
 1085SOL    HW2 3270   0.192   3.960   1.584
 1086SOL     OW 3271   1.400   3.831   0.426
 1086SOL    HW1 3272   1.376   3.794   0.336
 1086SOL    HW2 3273   1.499   3.847   0.430
 1087SOL     OW 3274   0.382   4.424   0.480
 1087SOL    HW1 3275   0.427   4.334   0.477
 1087SOL    HW2 3276   0.288   4.413   0.513
 1088SOL     OW 3277   1.547   3.946   1.729
 1088SOL    HW1 3278   1.542   3.983   1.821
 1088SOL    HW2 3279   1.475   3.877   1.717
 1089SOL     OW 3280   0.781   3.988   1.749
 1089SOL    HW1 3281   0.848   3.927   1.792
 1089SOL    HW2 3282   0.708   4.007   1.814
 1090SOL     OW 3283   1.351   4.314   1.433
 1090SOL    HW1 3284   1.379   4.271   1.518
 1090SOL    HW2 3285   1.376   4.410   1.434
 1091SOL     OW 3286   0.922   4.227   0.899
 1091SOL    HW1 3287   0.897   4.218   0.803
 1091SOL    HW2 3288   0.970   4.145   0.930
 1092SOL     OW 3289   0.539   3.788   0.512
 1092SOL    HW1 3290   0.458   3.789   0.570
 1092SOL    HW2 3291   0.542   3.871   0.457
 1093SOL     OW 3292   0.297   3.759   0.171
 1093SOL    HW1 3293   0.346   3.843   0.150
 1093SOL    HW2 3294   0.359   3.694   0.216
 1094SOL     OW 3295   0.935   3.960   0.480
 1094SOL    HW1 3296   0.887   4.001   0.402
 1094SOL    HW2 3297   1.034   3.958   0.461
 1095SOL     OW 3298   1.076   4.407   1.464
 1095SOL    HW1 3299   0.996   4.346   1.467
 1095SOL    HW2 3300   1.157   4.354   1.440
 1096SOL     OW 3301   1.032   4.273   0.016
 1096SOL    HW1 3302   0.991   4.355  -0.023
 1096SOL    HW2 3303   1.096   4.299   0.089
 1097SOL     OW 3304   0.078   4.280   1.386
 1097SOL    HW1 3305   0.170   4.279   1.345
 1097SOL    HW2 3306   0.072   4.354   1.453
 1098SOL     OW 3307   0.561   3.946   1.147
 1098SOL    HW1 3308   0.599   3.862   1.184
 1098SOL    HW2 3309   0.473   3.965   1.191
 1099SOL     OW 3310   0.866   4.178   0.642
 1099SOL    HW1 3311   0.834   4.250   0.580
 1099SOL    HW2 3312   0.890   4.097   0.589
 1100SOL     OW 3313   1.017   3.763   0.753
 1100SOL    HW1 3314   0.945   3.768   0.684
 1100SOL    HW2 3315   0.993   3.694   0.822
 1101SOL     OW 3316   1.466   4.314   0.992
 1101SOL    HW1 3317   1.436   4.219   0.999
 1101SOL    HW2 3318   1.539   4.330   1.058
 1102SOL     OW 3319   1.857   4.557   0.377
 1102SOL    HW1 3320   1.899   4.493   0.441
 1102SOL    HW2 3321   1.819   4.506   0.299
 1103SOL     OW 3322   1.390   4.299   0.078
 1103SOL    HW1 3323   1.336   4.278   0.159
 1103SOL    HW2 3324   1.481   4.258   0.087
 1104SOL     OW 3325   0.527   3.980   0.328
 1104SOL    HW1 3326   0.554   3.921   0.253
 1104SOL    HW2 3327   0.527   4.075   0.297
 1105SOL     OW 3328   0.915   3.813   1.402
 1105SOL    HW1 3329   0.940   3.793   1.307
 1105SOL    HW2 3330   0.987   3.869   1.444
 1106SOL     OW 3331   0.410   4.537   1.251
 1106SOL    HW1 3332   0.496   4.549   1.301
 1106SOL    HW2 3333   0.368   4.450   1.278
 1107SOL     OW 3334   1.274   4.110   1.262
 1107SOL    HW1 3335   1.295   4.184   1.326
 1107SOL    HW2 3336   1.185   4.127   1.219
 1108SOL     OW 3337   0.566   4.261   0.865
 1108SOL    HW1 3338   0.578   4.327   0.791
 1108SOL    HW2 3339   0.612   4.295   0.948
 1109SOL     OW 3340   1.582   4.363   0.472
 1109SOL    HW1 3341   1.551   4.424   0.545
 1109SOL    HW2 3342   1.632   4.415   0.403
 1110SOL     OW 3343   0.402   4.475   1.598
 1110SOL    HW1 3344   0.470   4.530   1.551
 1110SOL    HW2 3345   0.442   4.387   1.625
 1111SOL     OW 3346   1.587   4.503   1.670
 1111SOL    HW1 3347   1.495   4.541   1.665
 1111SOL    HW2 3348   1.647   4.550   1.605
 1112SOL     OW 3349   1.013   3.829   1.770
 1112SOL    HW1 3350   1.019   3.914   1.718
 1112SOL    HW2 3351   1.045   3.753   1.713
 1113SOL     OW 3352   0.504   3.774   1.740
 1113SOL    HW1 3353   0.462   3.717   1.670
 1113SOL    HW2 3354   0.438   3.843   1.772
 1114SOL     OW 3355   0.573   4.594   1.029
 1114SOL    HW1 3356   0.617   4.683   1.020
 1114SOL    HW2 3357   0.510   4.594   1.106
 1115SOL     OW 3358   1.360   4.586   1.045
 1115SOL    HW1 3359   1.285   4.586   0.979
 1115SOL    HW2 3360   1.397   4.494   1.054
 1116SOL     OW 3361   1.209   4.249   0.275
 1116SOL    HW1 3362   1.222   4.165   0.329
 1116SOL    HW2 3363   1.180   4.323   0.335
 1117SOL     OW 3364   0.307   3.937   1.231
 1117SOL    HW1 3365   0.284   3.974   1.321
 1117SOL    HW2 3366   0.277   3.842   1.225
 1118SOL     OW 3367   0.732   4.358   1.064
 1118SOL    HW1 3368   0.791   4.332   0.988
 1118SOL    HW2 3369   0.704   4.454   1.053
 1119SOL     OW 3370   1.728   4.659   1.854
 1119SOL    HW1 3371   1.682   4.652   1.765
 1119SOL    HW2 3372   1.666   4.703   1.920
 1120SOL     OW 3373   0.307   3.787   0.618
 1120SOL    HW1 3374   0.296   3.881   0.651
 1120SOL    HW2 3375   0.302   3.724   0.695
 1121SOL     OW 3376   1.622   4.091   0.374
 1121SOL    HW1 3377   1.624   4.015   0.438
 1121SOL    HW2 3378   1.574   4.168   0.414
 1122SOL     OW 3379   1.023   4.490   0.966
 1122SOL    HW1 3380   1.038   4.511   1.062
 1122SOL    HW2 3381   0.993   4.395   0.957
 1123SOL     OW 3382   1.540   3.998   0.125
 1123SOL    HW1 3383   1.479   3.923   0.148
 1123SOL    HW2 3384   1.562   4.050   0.208
 1124SOL     OW 3385   1.303   4.562   0.042
 1124SOL    HW1 3386   1.337   4.469   0.057
 1124SOL    HW2 3387   1.321   4.589  -0.053
 1125SOL     OW 3388   0.319   4.534   0.949
 1125SOL    HW1 3389   0.412   4.570   0.954
 1125SOL    HW2 3390   0.313   4.449   1.001
 1126SOL     OW 3391   0.339   4.233   1.006
 1126SOL    HW1 3392   0.287   4.150   0.989
 1126SOL    HW2 3393   0.416   4.238   0.942
 1127SOL     OW 3394   1.138   4.104   1.678
 1127SOL    HW1 3395   1.093   4.167   1.742
 1127SOL    HW2 3396   1.231   4.135   1.661
 1128SOL     OW 3397   1.160   3.931   1.477
 1128SOL    HW1 3398   1.160   3.995   1.554
 1128SOL    HW2 3399   1.188   3.979   1.394
 1129SOL     OW 3400   1.002   4.520   1.238
 1129SOL    HW1 3401   1.043   4.488   1.324
 1129SOL    HW2 3402   0.906   4.493   1.235
 1130SOL     OW 3403   0.040   4.268   1.114
 1130SOL    HW1 3404   0.125   4.235   1.073
 1130SOL    HW2 3405   0.053   4.283   1.212
 1131SOL     OW 3406   0.189   4.244   1.722
 1131SOL    HW1 3407   0.248   4.204   1.652
 1131SOL    HW2 3408   0.131   4.315   1.681
 1132SOL     OW 3409   0.815   4.296   0.325
 1132SOL    HW1 3410   0.822   4.207   0.279
 1132SOL    HW2 3411   0.721   4.330   0.317
 1133SOL     OW 3412   1.657   4.328   1.206
 1133SOL    HW1 3413   1.619   4.259   1.268
 1133SOL    HW2 3414   1.739   4.292   1.162
 1134SOL     OW 3415   0.671   4.188   1.269
 1134SOL    HW1 3416   0.637   4.099   1.239
 1134SOL    HW2 3417   0.697   4.242   1.189
 1135SOL     OW 3418   0.473   4.224   0.191
 1135SOL    HW1 3419   0.534   4.304   0.195
 1135SOL    HW2 3420   0.378   4.255   0.198
 1136SOL     OW 3421   1.302   4.579   0.309
 1136SOL    HW1 3422   1.216   4.548   0.351
 1136SOL    HW2 3423   1.298   4.565   0.210
 1137SOL     OW 3424   0.903   3.810   0.133
 1137SOL    HW1 3425   0.954   3.811   0.047
 1137SOL    HW2 3426   0.959   3.768   0.204
 1138SOL     OW 3427   1.726   3.859   0.523
 1138SOL    HW1 3428   1.799   3.842   0.456
 1138SOL    HW2 3429   1.695   3.772   0.561
 1139SOL     OW 3430   1.280   4.651   0.672
 1139SOL    HW1 3431   1.340   4.570   0.674
 1139SOL    HW2 3432   1.320   4.720   0.612
 1140SOL     OW 3433   1.841   3.899   0.963
 1140SOL    HW1 3434   1.880   3.814   0.927
 1140SOL    HW2 3435   1.743   3.901   0.944
 1141SOL     OW 3436   0.263   4.050   0.720
 1141SOL    HW1 3437   0.184   4.101   0.686
 1141SOL    HW2 3438   0.254   4.035   0.818
 1142SOL     OW 3439   1.014   3.960   0.971
 1142SOL    HW1 3440   1.006   3.924   0.878
 1142SOL    HW2 3441   1.012   3.884   1.036
 1143SOL     OW 3442   1.709   4.109   1.381
 1143SOL    HW1 3443   1.782   4.178   1.385
 1143SOL    HW2 3444   1.737   4.034   1.322
 1144SOL     OW 3445   0.105   4.737   1.726
 1144SOL    HW1 3446   0.028   4.704   1.780
 1144SOL    HW2 3447   0.190   4.707   1.768
 1145SOL     OW 3448   0.672   3.927   1.489
 1145SOL    HW1 3449   0.762   3.911   1.449
 1145SOL    HW2 3450   0.680   3.932   1.588
 1146SOL     OW 3451   0.075   4.069   0.033
 1146SOL    HW1 3452  -0.017   4.041   0.004
 1146SOL    HW2 3453   0.106   4.146  -0.023
 1147SOL     OW 3454   1.440   4.580   1.398
 1147SOL    HW1 3455   1.383   4.632   1.335
 1147SOL    HW2 3456   1.536   4.592   1.374
 1148SOL     OW 3457   0.072   3.890   0.318
 1148SOL    HW1 3458   0.055   3.973   0.264
 1148SOL    HW2 3459   0.162   3.853   0.296
 1149SOL     OW 3460   0.613   4.566   1.431
 1149SOL    HW1 3461   0.669   4.647   1.414
 1149SOL    HW2 3462   0.672   4.486   1.434
 1150SOL     OW 3463   0.716   4.289   1.708
 1150SOL    HW1 3464   0.735   4.354   1.782
 1150SOL    HW2 3465   0.776   4.209   1.717
 1151SOL     OW 3466   1.674   4.607   1.254
 1151SOL    HW1 3467   1.647   4.518   1.217
 1151SOL    HW2 3468   1.675   4.675   1.181
 1152SOL     OW 3469   1.225   4.049   0.449
 1152SOL    HW1 3470   1.290   3.975   0.438
 1152SOL    HW2 3471   1.245   4.099   0.533
 1153SOL     OW 3472   0.594   4.469   0.652
 1153SOL    HW1 3473   0.644   4.554   0.633
 1153SOL    HW2 3474   0.506   4.471   0.604
 1154SOL     OW 3475   1.777   4.066   1.642
 1154SOL    HW1 3476   1.760   4.097   1.548
 1154SOL    HW2 3477   1.693   4.029   1.680
 1155SOL     OW 3478   1.730   4.658   1.517
 1155SOL    HW1 3479   1.768   4.749   1.532
 1155SOL    HW2 3480   1.722   4.641   1.418
 1156SOL     OW 3481   1.824   3.916   1.227
 1156SOL    HW1 3482   1.820   3.826   1.271
 1156SOL    HW2 3483   1.827   3.905   1.128
 1157SOL     OW 3484   0.428   4.148   0.520
 1157SOL    HW1 3485   0.458   4.076   0.458
 1157SOL    HW2 3486   0.389   4.108   0.603
 1158SOL     OW 3487   0.317   4.271   1.280
 1158SOL    HW1 3488   0.355   4.212   1.352
 1158SOL    HW2 3489   0.357   4.245   1.192
 1159SOL     OW 3490   1.424   3.938   1.112
 1159SOL    HW1 3491   1.476   3.873   1.167
 1159SOL    HW2 3492   1.375   4.001   1.173
 1160SOL     OW 3493   1.001   3.758   1.154
 1160SOL    HW1 3494   0.938   3.686   1.123
 1160SOL    HW2 3495   1.094   3.722   1.154
 1161SOL     OW 3496   1.352   3.776   0.168
 1161SOL    HW1 3497   1.387   3.735   0.084
 1161SOL    HW2 3498   1.262   3.738   0.188
 1162SOL     OW 3499   1.300   4.177   0.691
 1162SOL    HW1 3500   1.241   4.257   0.695
 1162SOL    HW2 3501   1.315   4.142   0.784
 1163SOL     OW 3502   1.593   3.945   0.882
 1163SOL    HW1 3503   1.509   3.944   0.936
 1163SOL    HW2 3504   1.595   4.028   0.826
 1164SOL     OW 3505   0.230   4.352   1.975
 1164SOL    HW1 3506   0.137   4.350   2.012
 1164SOL    HW2 3507   0.231   4.313   1.883
 1165SOL     OW 3508   0.225   3.999   2.858
 1165SOL    HW1 3509   0.260   3.982   2.950
 1165SOL    HW2 3510   0.137   3.954   2.846
 1166SOL     OW 3511   0.019   4.092   2.509
 1166SOL    HW1 3512  -0.063   4.135   2.548
 1166SOL    HW2 3513  -0.009   4.019   2.446
 1167SOL     OW 3514   1.135   4.427   2.579
 1167SOL    HW1 3515   1.192   4.505   2.554
 1167SOL    HW2 3516   1.075   4.453   2.655
 1168SOL     OW 3517   1.755   4.331   2.093
 1168SOL    HW1 3518   1.743   4.318   1.994
 1168SOL    HW2 3519   1.725   4.250   2.142
 1169SOL     OW 3520   0.850   4.522   3.685
 1169SOL    HW1 3521   0.846   4.598   3.750
 1169SOL    HW2 3522   0.872   4.558   3.594
 1170SOL     OW 3523   0.685   4.736   2.527
 1170SOL    HW1 3524   0.754   4.720   2.597
 1170SOL    HW2 3525   0.612   4.793   2.565
 1171SOL     OW 3526   0.438   4.116   3.361
 1171SOL    HW1 3527   0.520   4.060   3.370
 1171SOL    HW2 3528   0.357   4.058   3.365
 1172SOL     OW 3529   1.603   4.171   2.599
 1172SOL    HW1 3530   1.529   4.217   2.549
 1172SOL    HW2 3531   1.654   4.239   2.652
 1173SOL     OW 3532   1.594   3.838   3.342
 1173SOL    HW1 3533   1.576   3.905   3.270
 1173SOL    HW2 3534   1.591   3.884   3.431
 1174SOL     OW 3535   0.122   4.367   2.425
 1174SOL    HW1 3536   0.077   4.279   2.442
 1174SOL    HW2 3537   0.121   4.421   2.509
 1175SOL     OW 3538   0.113   4.461   3.459
 1175SOL    HW1 3539   0.201   4.448   3.504
 1175SOL    HW2 3540   0.100   4.558   3.437
 1176SOL     OW 3541   0.809   3.728   2.364
 1176SOL    HW1 3542   0.849   3.819   2.355
 1176SOL    HW2 3543   0.709   3.736   2.370
 1177SOL     OW 3544   0.317   3.975   3.663
 1177SOL    HW1 3545   0.388   4.046   3.669
 1177SOL    HW2 3546   0.229   4.014   3.691
 1178SOL     OW 3547   0.598   4.453   2.132
 1178SOL    HW1 3548   0.622   4.522   2.064
 1178SOL    HW2 3549   0.520   4.486   2.186
 1179SOL     OW 3550   1.281   4.069   2.806
 1179SOL    HW1 3551   1.195   4.019   2.793
 1179SOL    HW2 3552   1.343   4.015   2.862
 1180SOL     OW 3553   0.807   4.329   3.327
 1180SOL    HW1 3554   0.760   4.326   3.416
 1180SOL    HW2 3555   0.756   4.274   3.261
 1181SOL     OW 3556   1.394   4.193   3.536
 1181SOL    HW1 3557   1.374   4.236   3.624
 1181SOL    HW2 3558   1.472   4.131   3.545
 1182SOL     OW 3559   0.973   4.614   3.434
 1182SOL    HW1 3560   1.019   4.530   3.405
 1182SOL    HW2 3561   0.917   4.648   3.359
 1183SOL     OW 3562   0.991   4.134   3.104
 1183SOL    HW1 3563   0.914   4.168   3.158
 1183SOL    HW2 3564   0.957   4.083   3.025
 1184SOL     OW 3565   1.041   4.425   2.291
 1184SOL    HW1 3566   1.067   4.421   2.387
 1184SOL    HW2 3567   0.956   4.374   2.277
 1185SOL     OW 3568   0.076   4.535   2.651
 1185SOL    HW1 3569   0.175   4.523   2.660
 1185SOL    HW2 3570   0.052   4.630   2.672
 1186SOL     OW 3571   0.865   4.072   2.057
 1186SOL    HW1 3572   0.924   4.135   2.008
 1186SOL    HW2 3573   0.884   3.978   2.028
 1187SOL     OW 3574   1.719   4.309   3.693
 1187SOL    HW1 3575   1.693   4.398   3.657
 1187SOL    HW2 3576   1.717   4.241   3.620
 1188SOL     OW 3577   0.550   3.920   2.747
 1188SOL    HW1 3578   0.545   3.915   2.847
 1188SOL    HW2 3579   0.552   4.016   2.718
 1189SOL     OW 3580   1.458   4.459   2.590
 1189SOL    HW1 3581   1.453   4.394   2.665
 1189SOL    HW2 3582   1.538   4.518   2.603
 1190SOL     OW 3583   0.202   4.009   3.360
 1190SOL    HW1 3584   0.122   4.069   3.347
 1190SOL    HW2 3585   0.192   3.960   3.446
 1191SOL     OW 3586   1.400   3.831   2.288
 1191SOL    HW1 3587   1.376   3.794   2.198
 1191SOL    HW2 3588   1.499   3.847   2.292
 1192SOL     OW 3589   0.382   4.424   2.342
 1192SOL    HW1 3590   0.427   4.334   2.339
 1192SOL    HW2 3591   0.288   4.413   2.375
 1193SOL     OW 3592   1.547   3.946   3.591
 1193SOL    HW1 3593   1.542   3.983   3.683
 1193SOL    HW2 3594   1.475   3.877   3.579
 1194SOL     OW 3595   0.614   3.846   1.979
 1194SOL    HW1 3596   0.712   3.824   1.986
 1194SOL    HW2 3597   0.583   3.829   1.886
 1195SOL     OW 3598   0.781   3.988   3.611
 1195SOL    HW1 3599   0.848   3.927   3.654
 1195SOL    HW2 3600   0.708   4.007   3.676
 1196SOL     OW 3601   1.351   4.314   3.295
 1196SOL    HW1 3602   1.379   4.271   3.380
 1196SOL    HW2 3603   1.376   4.410   3.296
 1197SOL     OW 3604   0.922   4.227   2.761
 1197SOL    HW1 3605   0.897   4.218   2.665
 1197SOL    HW2 3606   0.970   4.145   2.792
 1198SOL     OW 3607   0.539   3.788   2.374
 1198SOL    HW1 3608   0.458   3.789   2.432
 1198SOL    HW2 3609   0.542   3.871   2.319
 1199SOL     OW 3610   0.297   3.759   2.033
 1199SOL    HW1 3611   0.346   3.843   2.012
 1199SOL    HW2 3612   0.359   3.694   2.078
 1200SOL     OW 3613   0.935   3.960   2.342
 1200SOL    HW1 3614   0.887   4.001   2.264
 1200SOL    HW2 3615   1.034   3.958   2.323
 1201SOL     OW 3616   1.076   4.407   3.326
 1201SOL    HW1 3617   0.996   4.346   3.329
 1201SOL    HW2 3618   1.157   4.354   3.302
 1202SOL     OW 3619   1.032   4.273   1.878
 1202SOL    HW1 3620   0.991   4.355   1.839
 1202SOL    HW2 3621   1.096   4.299   1.951
 1203SOL     OW 3622   0.078   4.280   3.248
 1203SOL    HW1 3623   0.170   4.279   3.207
 1203SOL    HW2 3624   0.072   4.354   3.315
 1204SOL     OW 3625   0.561   3.946   3.009
 1204SOL    HW1 3626   0.599   3.862   3.046
 1204SOL    HW2 3627   0.473   3.965   3.053
 1205SOL     OW 3628   0.866   4.178   2.504
 1205SOL    HW1 3629   0.834   4.250   2.442
 1205SOL    HW2 3630   0.890   4.097   2.451
 1206SOL     OW 3631   1.017   3.763   2.615
 1206SOL    HW1 3632   0.945   3.768   2.546
 1206SOL    HW2 3633   0.993   3.694   2.684
 1207SOL     OW 3634   1.466   4.314   2.854
 1207SOL    HW1 3635   1.436   4.219   2.861
 1207SOL    HW2 3636   1.539   4.330   2.920
 1208SOL     OW 3637   1.857   4.557   2.239
 1208SOL    HW1 3638   1.899   4.493   2.303
 1208SOL    HW2 3639   1.819   4.506   2.161
 1209SOL     OW 3640   1.390   4.299   1.940
 1209SOL    HW1 3641   1.336   4.278   2.021
 1209SOL    HW2 3642   1.481   4.258   1.949
 1210SOL     OW 3643   0.527   3.980   2.190
 1210SOL    HW1 3644   0.554   3.921   2.115
 1210SOL    HW2 3645   0.527   4.075   2.159
 1211SOL     OW 3646   0.915   3.813   3.264
 1211SOL    HW1 3647   0.940   3.793   3.169
 1211SOL    HW2 3648   0.987   3.869   3.306
 1212SOL     OW 3649   0.410   4.537   3.113
 1212SOL    HW1 3650   0.496   4.549   3.163
 1212SOL    HW2 3651   0.368   4.450   3.140
 1213SOL     OW 3652   1.274   4.110   3.124
 1213SOL    HW1 3653   1.295   4.184   3.188
 1213SOL    HW2 3654   1.185   4.127   3.081
 1214SOL     OW 3655   0.566   4.261   2.727
 1214SOL    HW1 3656   0.578   4.327   2.653
 1214SOL    HW2 3657   0.612   4.295   2.810
 1215SOL     OW 3658   1.582   4.363   2.334
 1215SOL    HW1 3659   1.551   4.424   2.407
 1215SOL    HW2 3660   1.632   4.415   2.265
 1216SOL     OW 3661   0.402   4.475   3.460
 1216SOL    HW1 3662   0.470   4.530   3.413
 1216SOL    HW2 3663   0.442   4.387   3.487
 1217SOL     OW 3664   1.587   4.503   3.532
 1217SOL    HW1 3665   1.495   4.541   3.527
 1217SOL    HW2 3666   1.647   4.550   3.467
 1218SOL     OW 3667   1.013   3.829   3.632
 1218SOL    HW1 3668   1.019   3.914   3.580
 1218SOL    HW2 3669   1.045   3.753   3.575
 1219SOL     OW 3670   0.504   3.774   3.602
 1219SOL    HW1 3671   0.462   3.717   3.532
 1219SOL    HW2 3672   0.438   3.843   3.634
 1220SOL     OW 3673   0.573   4.594   2.891
 1220SOL    HW1 3674   0.617   4.683   2.882
 1220SOL    HW2 3675   0.510   4.594   2.968
 1221SOL     OW 3676   1.360   4.586   2.907
 1221SOL    HW1 3677   1.285   4.586   2.841
 1221SOL    HW2 3678   1.397   4.494   2.916
 1222SOL     OW 3679   1.209   4.249   2.137
 1222SOL    HW1 3680   1.222   4.165   2.191
 1222SOL    HW2 3681   1.180   4.323   2.197
 1223SOL     OW 3682   0.307   3.937   3.093
 1223SOL    HW1 3683   0.284   3.974   3.183
 1223SOL    HW2 3684   0.277   3.842   3.087
 1224SOL     OW 3685   0.732   4.358   2.926
 1224SOL    HW1 3686   0.791   4.332   2.850
 1224SOL    HW2 3687   0.704   4.454   2.915
 1225SOL     OW 3688   1.728   4.659   3.716
 1225SOL    HW1 3689   1.682   4.652   3.627
 1225SOL    HW2 3690   1.666   4.703   3.782
 1226SOL     OW 3691   0.307   3.787   2.480
 1226SOL    HW1 3692   0.296   3.881   2.513
 1226SOL    HW2 3693   0.302   3.724   2.557
 1227SOL     OW 3694   1.622   4.091   2.236
 1227SOL    HW1 3695   1.624   4.015   2.300
 1227SOL    HW2 3696   1.574   4.168   2.276
 1228SOL     OW 3697   1.023   4.490   2.828
 1228SOL    HW1 3698   1.038   4.511   2.924
 1228SOL    HW2 3699   0.993   4.395   2.819
 1229SOL     OW 3700   1.540   3.998   1.987
 1229SOL    HW1 3701   1.479   3.923   2.010
 1229SOL    HW2 3702   1.562   4.050   2.070
 1230SOL     OW 3703   1.303   4.562   1.904
 1230SOL    HW1 3704   1.337   4.469   1.919
 1230SOL    HW2 3705   1.321   4.589   1.809
 1231SOL     OW 3706   0.319   4.534   2.811
 1231SOL    HW1 3707   0.412   4.570   2.816
 1231SOL    HW2 3708   0.313   4.449   2.863
 1232SOL     OW 3709   0.339   4.233   2.868
 1232SOL    HW1 3710   0.287   4.150   2.851
 1232SOL    HW2 3711   0.416   4.238   2.804
 1233SOL     OW 3712   1.138   4.104   3.540
 1233SOL    HW1 3713   1.093   4.167   3.604
 1233SOL    HW2 3714   1.231   4.135   3.523
 1234SOL     OW 3715   1.160   3.931   3.339
 1234SOL    HW1 3716   1.160   3.995   3.416
 1234SOL    HW2 3717   1.188   3.979   3.256
 1235SOL     OW 3718   1.002   4.520   3.100
 1235SOL    HW1 3719   1.043   4.488   3.186
 1235SOL    HW2 3720   0.906   4.493   3.097
 1236SOL     OW 3721   0.040   4.268   2.976
 1236SOL    HW1 3722   0.125   4.235   2.935
 1236SOL    HW2 3723   0.053   4.283   3.074
 1237SOL     OW 3724   0.189   4.244   3.584
 1237SOL    HW1 3725   0.248   4.204   3.514
 1237SOL    HW2 3726   0.131   4.315   3.543
 1238SOL     OW 3727   0.815   4.296   2.187
 1238SOL    HW1 3728   0.822   4.207   2.141
 1238SOL    HW2 3729   0.721   4.330   2.179
 1239SOL     OW 3730   1.657   4.328   3.068
 1239SOL    HW1 3731   1.619   4.259   3.130
 1239SOL    HW2 3732   1.739   4.292   3.024
 1240SOL     OW 3733   0.671   4.188   3.131
 1240SOL    HW1 3734   0.637   4.099   3.101
 1240SOL    HW2 3735   0.697   4.242   3.051
 1241SOL     OW 3736   0.473   4.224   2.053
 1241SOL    HW1 3737   0.534   4.304   2.057
 1241SOL    HW2 3738   0.378   4.255   2.060
 1242SOL     OW 3739   1.302   4.579   2.171
 1242SOL    HW1 3740   1.216   4.548   2.213
 1242SOL    HW2 3741   1.298   4.565   2.072
 1243SOL     OW 3742   1.726   3.859   2.385
 1243SOL    HW1 3743   1.799   3.842   2.318
 1243SOL    HW2 3744   1.695   3.772   2.423
 1244SOL     OW 3745   1.280   4.651   2.534
 1244SOL    HW1 3746   1.340   4.570   2.536
 1244SOL    HW2 3747   1.320   4.720   2.474
 1245SOL     OW 3748   1.841   3.899   2.825
 1245SOL    HW1 3749   1.880   3.814   2.789
 1245SOL    HW2 3750   1.743   3.901   2.806
 1246SOL     OW 3751   0.263   4.050   2.582
 1246SOL    HW1 3752   0.184   4.101   2.548
 1246SOL    HW2 3753   0.254   4.035   2.680
 1247SOL     OW 3754   0.916   4.634   2.153
 1247SOL    HW1 3755   0.979   4.672   2.085
 1247SOL    HW2 3756   0.956   4.551   2.192
 1248SOL     OW 3757   1.014   3.960   2.833
 1248SOL    HW1 3758   1.006   3.924   2.740
 1248SOL    HW2 3759   1.012   3.884   2.898
 1249SOL     OW 3760   1.709   4.109   3.243
 1249SOL    HW1 3761   1.782   4.178   3.247
 1249SOL    HW2 3762   1.737   4.034   3.184
 1250SOL     OW 3763   0.105   4.737   3.588
 1250SOL    HW1 3764   0.028   4.704   3.642
 1250SOL    HW2 3765   0.190   4.707   3.630
 1251SOL     OW 3766   0.672   3.927   3.351
 1251SOL    HW1 3767   0.762   3.911   3.311
 1251SOL    HW2 3768   0.680   3.932   3.450
 1252SOL     OW 3769   0.075   4.069   1.895
 1252SOL    HW1 3770  -0.017   4.041   1.866
 1252SOL    HW2 3771   0.106   4.146   1.839
 1253SOL     OW 3772   1.440   4.580   3.260
 1253SOL    HW1 3773   1.383   4.632   3.197
 1253SOL    HW2 3774   1.536   4.592   3.236
 1254SOL     OW 3775   0.072   3.890   2.180
 1254SOL    HW1 3776   0.055   3.973   2.126
 1254SOL    HW2 3777   0.162   3.853   2.158
 1255SOL     OW 3778   0.613   4.566   3.293
 1255SOL    HW1 3779   0.669   4.647   3.276
 1255SOL    HW2 3780   0.672   4.486   3.296
 1256SOL     OW 3781   0.716   4.289   3.570
 1256SOL    HW1 3782   0.735   4.354   3.644
 1256SOL    HW2 3783   0.776   4.209   3.579
 1257SOL     OW 3784   1.674   4.607   3.116
 1257SOL    HW1 3785   1.647   4.518   3.079
 1257SOL    HW2 3786   1.675   4.675   3.043
 1258SOL     OW 3787   1.225   4.049   2.311
 1258SOL    HW1 3788   1.290   3.975   2.300
 1258SOL    HW2 3789   1.245   4.099   2.395
 1259SOL     OW 3790   0.594   4.469   2.514
 1259SOL    HW1 3791   0.644   4.554   2.495
 1259SOL    HW2 3792   0.506   4.471   2.466
 1260SOL     OW 3793   1.777   4.066   3.504
 1260SOL    HW1 3794   1.760   4.097   3.410
 1260SOL    HW2 3795   1.693   4.029   3.542
 1261SOL     OW 3796   1.730   4.658   3.379
 1261SOL    HW1 3797   1.768   4.749   3.394
 1261SOL    HW2 3798   1.722   4.641   3.280
 1262SOL     OW 3799   1.824   3.916   3.089
 1262SOL    HW1 3800   1.820   3.826   3.133
 1262SOL    HW2 3801   1.827   3.905   2.990
 1263SOL     OW 3802   0.428   4.148   2.382
 1263SOL    HW1 3803   0.458   4.076   2.320
 1263SOL    HW2 3804   0.389   4.108   2.465
 1264SOL     OW 3805   0.317   4.271   3.142
 1264SOL    HW1 3806   0.355   4.212   3.214
 1264SOL    HW2 3807   0.357   4.245   3.054
 1265SOL     OW 3808   1.424   3.938   2.974
 1265SOL    HW1 3809   1.476   3.873   3.029
 1265SOL    HW2 3810   1.375   4.001   3.035
 1266SOL     OW 3811   1.001   3.758   3.016
 1266SOL    HW1 3812   0.938   3.686   2.985
 1266SOL    HW2 3813   1.094   3.722   3.016
 1267SOL     OW 3814   1.352   3.776   2.030
 1267SOL    HW1 3815   1.387   3.735   1.946
 1267SOL    HW2 3816   1.262   3.738   2.050
 1268SOL     OW 3817   1.300   4.177   2.553
 1268SOL    HW1 3818   1.241   4.257   2.557
 1268SOL    HW2 3819   1.315   4.142   2.646
 1269SOL     OW 3820   1.593   3.945   2.744
 1269SOL    HW1 3821   1.509   3.944   2.798
 1269SOL    HW2 3822   1.595   4.028   2.688
 1270SOL     OW 3823   0.230   4.352   3.837
 1270SOL    HW1 3824   0.137   4.350   3.874
 1270SOL    HW2 3825   0.231   4.313   3.745
 1271SOL     OW 3826   0.019   4.092   4.371
 1271SOL    HW1 3827  -0.063   4.135   4.410
 1271SOL    HW2 3828  -0.009   4.019   4.308
 1272SOL     OW 3829   1.135   4.427   4.441
 1272SOL    HW1 3830   1.192   4.505   4.416
 1272SOL    HW2 3831   1.075   4.453   4.517
 1273SOL     OW 3832   1.755   4.331   3.955
 1273SOL    HW1 3833   1.743   4.318   3.856
 1273SOL    HW2 3834   1.725   4.250   4.004
 1274SOL     OW 3835   0.685   4.736   4.389
 1274SOL    HW1 3836   0.754   4.720   4.459
 1274SOL    HW2 3837   0.612   4.793   4.427
 1275SOL     OW 3838   1.603   4.171   4.461
 1275SOL    HW1 3839   1.529   4.217   4.411
 1275SOL    HW2 3840   1.654   4.239   4.514
 1276SOL     OW 3841   0.240   4.815   4.610
 1276SOL    HW1 3842   0.254   4.731   4.662
 1276SOL    HW2 3843   0.185   4.879   4.665
 1277SOL     OW 3844   0.122   4.367   4.287
 1277SOL    HW1 3845   0.077   4.279   4.304
 1277SOL    HW2 3846   0.121   4.421   4.371
 1278SOL     OW 3847   0.809   3.728   4.226
 1278SOL    HW1 3848   0.849   3.819   4.217
 1278SOL    HW2 3849   0.709   3.736   4.232
 1279SOL     OW 3850   0.598   4.453   3.994
 1279SOL    HW1 3851   0.622   4.522   3.926
 1279SOL    HW2 3852   0.520   4.486   4.048
 1280SOL     OW 3853   1.281   4.069   4.668
 1280SOL    HW1 3854   1.195   4.019   4.655
 1280SOL    HW2 3855   1.343   4.015   4.724
 1281SOL     OW 3856   1.041   4.425   4.153
 1281SOL    HW1 3857   1.067   4.421   4.249
 1281SOL    HW2 3858   0.956   4.374   4.139
 1282SOL     OW 3859   0.076   4.535   4.513
 1282SOL    HW1 3860   0.175   4.523   4.522
 1282SOL    HW2 3861   0.052   4.630   4.534
 1283SOL     OW 3862   0.865   4.072   3.919
 1283SOL    HW1 3863   0.924   4.135   3.870
 1283SOL    HW2 3864   0.884   3.978   3.890
 1284SOL     OW 3865   0.550   3.920   4.609
 1284SOL    HW1 3866   0.545   3.915   4.709
 1284SOL    HW2 3867   0.552   4.016   4.580
 1285SOL     OW 3868   1.458   4.459   4.452
 1285SOL    HW1 3869   1.453   4.394   4.527
 1285SOL    HW2 3870   1.538   4.518   4.465
 1286SOL     OW 3871   1.400   3.831   4.150
 1286SOL    HW1 3872   1.376   3.794   4.060
 1286SOL    HW2 3873   1.499   3.847   4.154
 1287SOL     OW 3874   0.382   4.424   4.204
 1287SOL    HW1 3875   0.427   4.334   4.201
 1287SOL    HW2 3876   0.288   4.413   4.237
 1288SOL     OW 3877   0.614   3.846   3.841
 1288SOL    HW1 3878   0.712   3.824   3.848
 1288SOL    HW2 3879   0.583   3.829   3.748
 1289SOL     OW 3880   0.539   3.788   4.236
 1289SOL    HW1 3881   0.458   3.789   4.294
 1289SOL    HW2 3882   0.542   3.871   4.181
 1290SOL     OW 3883   0.297   3.759   3.895
 1290SOL    HW1 3884   0.346   3.843   3.874
 1290SOL    HW2 3885   0.359   3.694   3.940
 1291SOL     OW 3886   0.935   3.960   4.204
 1291SOL    HW1 3887   0.887   4.001   4.126
 1291SOL    HW2 3888   1.034   3.958   4.185
 1292SOL     OW 3889   1.032   4.273   3.740
 1292SOL    HW1 3890   0.991   4.355   3.701
 1292SOL    HW2 3891   1.096   4.299   3.813
 1293SOL     OW 3892   0.866   4.178   4.366
 1293SOL    HW1 3893   0.834   4.250   4.304
 1293SOL    HW2 3894   0.890   4.097   4.313
 1294SOL     OW 3895   1.017   3.763   4.477
 1294SOL    HW1 3896   0.945   3.768   4.408
 1294SOL    HW2 3897   0.993   3.694   4.546
 1295SOL     OW 3898   1.857   4.557   4.101
 1295SOL    HW1 3899   1.899   4.493   4.165
 1295SOL    HW2 3900   1.819   4.506   4.023
 1296SOL     OW 3901   1.390   4.299   3.802
 1296SOL    HW1 3902   1.336   4.278   3.883
 1296SOL    HW2 3903   1.481   4.258   3.811
 1297SOL     OW 3904   0.527   3.980   4.052
 1297SOL    HW1 3905   0.554   3.921   3.977
 1297SOL    HW2 3906   0.527   4.075   4.021
 1298SOL     OW 3907   1.111   4.919   4.824
 1298SOL    HW1 3908   1.071   4.963   4.905
 1298SOL    HW2 3909   1.070   4.956   4.741
 1299SOL     OW 3910   0.566   4.261   4.589
 1299SOL    HW1 3911   0.578   4.327   4.515
 1299SOL    HW2 3912   0.612   4.295   4.672
 1300SOL     OW 3913   1.582   4.363   4.196
 1300SOL    HW1 3914   1.551   4.424   4.269
 1300SOL    HW2 3915   1.632   4.415   4.127
 1301SOL     OW 3916   1.209   4.249   3.999
 1301SOL    HW1 3917   1.222   4.165   4.053
 1301SOL    HW2 3918   1.180   4.323   4.059
 1302SOL     OW 3919   0.732   4.358   4.788
 1302SOL    HW1 3920   0.791   4.332   4.712
 1302SOL    HW2 3921   0.704   4.454   4.777
 1303SOL     OW 3922   0.307   3.787   4.342
 1303SOL    HW1 3923   0.296   3.881   4.375
 1303SOL    HW2 3924   0.302   3.724   4.419
 1304SOL     OW 3925   1.622   4.091   4.098
 1304SOL    HW1 3926   1.624   4.015   4.162
 1304SOL    HW2 3927   1.574   4.168   4.138
 1305SOL     OW 3928   1.540   3.998   3.849
 1305SOL    HW1 3929   1.479   3.923   3.872
 1305SOL    HW2 3930   1.562   4.050   3.932
 1306SOL     OW 3931   1.303   4.562   3.766
 1306SOL    HW1 3932   1.337   4.469   3.781
 1306SOL    HW2 3933   1.321   4.589   3.671
 1307SOL     OW 3934   0.815   4.296   4.049
 1307SOL    HW1 3935   0.822   4.207   4.003
 1307SOL    HW2 3936   0.721   4.330   4.041
 1308SOL     OW 3937   0.473   4.224   3.915
 1308SOL    HW1 3938   0.534   4.304   3.919
 1308SOL    HW2 3939   0.378   4.255   3.922
 1309SOL     OW 3940   1.302   4.579   4.033
 1309SOL    HW1 3941   1.216   4.548   4.075
 1309SOL    HW2 3942   1.298   4.565   3.934
 1310SOL     OW 3943   1.726   3.859   4.247
 1310SOL    HW1 3944   1.799   3.842   4.180
 1310SOL    HW2 3945   1.695   3.772   4.285
 1311SOL     OW 3946   1.280   4.651   4.396
 1311SOL    HW1 3947   1.340   4.570   4.398
 1311SOL    HW2 3948   1.320   4.720   4.336
 1312SOL     OW 3949   1.841   3.899   4.687
 1312SOL    HW1 3950   1.880   3.814   4.651
 1312SOL    HW2 3951   1.743   3.901   4.668
 1313SOL     OW 3952   0.263   4.050   4.444
 1313SOL    HW1 3953   0.184   4.101   4.410
 1313SOL    HW2 3954   0.254   4.035   4.542
 1314SOL     OW 3955   0.916   4.634   4.015
 1314SOL    HW1 3956   0.979   4.672   3.947
 1314SOL    HW2 3957   0.956   4.551   4.054
 1315SOL     OW 3958   0.075   4.069   3.757
 1315SOL    HW1 3959  -0.017   4.041   3.728
 1315SOL    HW2 3960   0.106   4.146   3.701
 1316SOL     OW 3961   0.072   3.890   4.042
 1316SOL    HW1 3962   0.055   3.973   3.988
 1316SOL    HW2 3963   0.162   3.853   4.020
 1317SOL     OW 3964   1.674   4.607   4.978
 1317SOL    HW1 3965   1.647   4.518   4.941
 1317SOL    HW2 3966   1.675   4.675   4.905
 1318SOL     OW 3967   1.225   4.049   4.173
 1318SOL    HW1 3968   1.290   3.975   4.162
 1318SOL    HW2 3969   1.245   4.099   4.257
 1319SOL     OW 3970   0.594   4.469   4.376
 1319SOL    HW1 3971   0.644   4.554   4.357
 1319SOL    HW2 3972   0.506   4.471   4.328
 1320SOL     OW 3973   0.428   4.148   4.244
 1320SOL    HW1 3974   0.458   4.076   4.182
 1320SOL    HW2 3975   0.389   4.108   4.327
 1321SOL     OW 3976   1.352   3.776   3.892
 1321SOL    HW1 3977   1.387   3.735   3.808
 1321SOL    HW2 3978   1.262   3.738   3.912
 1322SOL     OW 3979   1.300   4.177   4.415
 1322SOL    HW1 3980   1.241   4.257   4.419
 1322SOL    HW2 3981   1.315   4.142   4.508
 1323SOL     OW 3982   1.593   3.945   4.606
 1323SOL    HW1 3983   1.509   3.944   4.660
 1323SOL    HW2 3984   1.595   4.028   4.550
 1324SOL     OW 3985   2.092   0.628   0.113
 1324SOL    HW1 3986   1.999   0.626   0.150
 1324SOL    HW2 3987   2.093   0.589   0.021
 1325SOL     OW 3988   2.087   0.275   0.996
 1325SOL    HW1 3989   2.122   0.258   1.088
 1325SOL    HW2 3990   1.999   0.230   0.984
 1326SOL     OW 3991   1.881   0.368   0.647
 1326SOL    HW1 3992   1.799   0.411   0.686
 1326SOL    HW2 3993   1.853   0.295   0.584
 1327SOL     OW 3994   2.431   1.275   1.165
 1327SOL    HW1 3995   2.338   1.268   1.128
 1327SOL    HW2 3996   2.442   1.364   1.209
 1328SOL     OW 3997   3.417   1.511   0.703
 1328SOL    HW1 3998   3.360   1.495   0.784
 1328SOL    HW2 3999   3.358   1.521   0.623
 1329SOL     OW 4000   2.997   0.703   0.717
 1329SOL    HW1 4001   3.054   0.781   0.692
 1329SOL    HW2 4002   2.937   0.729   0.793
 1330SOL     OW 4003   3.617   0.607   0.231
 1330SOL    HW1 4004   3.605   0.594   0.132
 1330SOL    HW2 4005   3.587   0.526   0.280
 1331SOL     OW 4006   2.630   1.144   1.023
 1331SOL    HW1 4007   2.552   1.161   1.083
 1331SOL    HW2 4008   2.664   1.231   0.987
 1332SOL     OW 4009   2.712   0.798   1.823
 1332SOL    HW1 4010   2.708   0.874   1.888
 1332SOL    HW2 4011   2.734   0.834   1.732
 1333SOL     OW 4012   2.547   1.012   0.665
 1333SOL    HW1 4013   2.616   0.996   0.735
 1333SOL    HW2 4014   2.474   1.069   0.703
 1334SOL     OW 4015   2.548   1.161   1.803
 1334SOL    HW1 4016   2.608   1.240   1.817
 1334SOL    HW2 4017   2.462   1.192   1.762
 1335SOL     OW 4018   2.197   1.435   1.061
 1335SOL    HW1 4019   2.119   1.404   1.008
 1335SOL    HW2 4020   2.255   1.493   1.004
 1336SOL     OW 4021   3.322   1.505   1.339
 1336SOL    HW1 4022   3.346   1.599   1.365
 1336SOL    HW2 4023   3.306   1.451   1.421
 1337SOL     OW 4024   2.300   0.392   1.499
 1337SOL    HW1 4025   2.382   0.336   1.508
 1337SOL    HW2 4026   2.219   0.334   1.503
 1338SOL     OW 4027   3.465   0.447   0.737
 1338SOL    HW1 4028   3.391   0.493   0.687
 1338SOL    HW2 4029   3.516   0.515   0.790
 1339SOL     OW 4030   2.093   1.713   0.483
 1339SOL    HW1 4031   2.127   1.790   0.537
 1339SOL    HW2 4032   2.137   1.713   0.393
 1340SOL     OW 4033   2.989   1.341   1.690
 1340SOL    HW1 4034   3.036   1.341   1.778
 1340SOL    HW2 4035   2.941   1.254   1.679
 1341SOL     OW 4036   2.092   1.434   0.538
 1341SOL    HW1 4037   2.066   1.530   0.538
 1341SOL    HW2 4038   2.021   1.380   0.583
 1342SOL     OW 4039   2.102   1.091   0.886
 1342SOL    HW1 4040   2.116   1.007   0.938
 1342SOL    HW2 4041   2.047   1.155   0.941
 1343SOL     OW 4042   2.482   1.786   1.439
 1343SOL    HW1 4043   2.390   1.769   1.474
 1343SOL    HW2 4044   2.510   1.878   1.465
 1344SOL     OW 4045   2.468   0.964   0.123
 1344SOL    HW1 4046   2.475   1.048   0.069
 1344SOL    HW2 4047   2.514   0.977   0.211
 1345SOL     OW 4048   3.456   0.114   1.480
 1345SOL    HW1 4049   3.438   0.181   1.408
 1345SOL    HW2 4050   3.453   0.160   1.569
 1346SOL     OW 4051   1.984   0.643   0.563
 1346SOL    HW1 4052   1.939   0.555   0.580
 1346SOL    HW2 4053   1.983   0.697   0.647
 1347SOL     OW 4054   3.704   1.767   0.359
 1347SOL    HW1 4055   3.758   1.738   0.439
 1347SOL    HW2 4056   3.734   1.857   0.330
 1348SOL     OW 4057   1.889   1.596   0.117
 1348SOL    HW1 4058   1.870   1.500   0.138
 1348SOL    HW2 4059   1.856   1.654   0.192
 1349SOL     OW 4060   3.551   0.922   0.612
 1349SOL    HW1 4061   3.646   0.893   0.620
 1349SOL    HW2 4062   3.543   0.987   0.537
 1350SOL     OW 4063   3.503   1.108   0.432
 1350SOL    HW1 4064   3.589   1.110   0.380
 1350SOL    HW2 4065   3.517   1.155   0.520
 1351SOL     OW 4066   1.975   0.737   1.597
 1351SOL    HW1 4067   2.063   0.724   1.642
 1351SOL    HW2 4068   1.962   0.834   1.575
 1352SOL     OW 4069   2.475   1.365   0.726
 1352SOL    HW1 4070   2.426   1.278   0.735
 1352SOL    HW2 4071   2.452   1.408   0.639
 1353SOL     OW 4072   3.155   1.228   1.423
 1353SOL    HW1 4073   3.192   1.155   1.365
 1353SOL    HW2 4074   3.207   1.233   1.508
 1354SOL     OW 4075   2.671   0.004   0.502
 1354SOL    HW1 4076   2.711   0.095   0.493
 1354SOL    HW2 4077   2.571   0.012   0.508
 1355SOL     OW 4078   2.059   0.976   1.264
 1355SOL    HW1 4079   2.148   0.931   1.250
 1355SOL    HW2 4080   1.986   0.911   1.245
 1356SOL     OW 4081   3.387   0.999   0.190
 1356SOL    HW1 4082   3.324   0.923   0.203
 1356SOL    HW2 4083   3.435   1.017   0.276
 1357SOL     OW 4084   3.049   1.792   1.616
 1357SOL    HW1 4085   3.073   1.852   1.540
 1357SOL    HW2 4086   3.056   1.697   1.586
 1358SOL     OW 4087   2.179   0.251   1.801
 1358SOL    HW1 4088   2.250   0.322   1.807
 1358SOL    HW2 4089   2.091   0.290   1.829
 1359SOL     OW 4090   3.328   1.417   0.953
 1359SOL    HW1 4091   3.269   1.423   1.033
 1359SOL    HW2 4092   3.313   1.329   0.907
 1360SOL     OW 4093   3.529   1.714   0.572
 1360SOL    HW1 4094   3.488   1.691   0.484
 1360SOL    HW2 4095   3.511   1.640   0.637
 1361SOL     OW 4096   2.460   0.729   0.270
 1361SOL    HW1 4097   2.484   0.798   0.202
 1361SOL    HW2 4098   2.382   0.762   0.324
 1362SOL     OW 4099   3.143   0.345   0.944
 1362SOL    HW1 4100   3.057   0.295   0.931
 1362SOL    HW2 4101   3.205   0.291   1.000
 1363SOL     OW 4102   3.438   1.662   0.307
 1363SOL    HW1 4103   3.527   1.708   0.310
 1363SOL    HW2 4104   3.417   1.638   0.212
 1364SOL     OW 4105   2.669   0.605   1.465
 1364SOL    HW1 4106   2.622   0.602   1.554
 1364SOL    HW2 4107   2.618   0.550   1.399
 1365SOL     OW 4108   3.256   0.469   1.674
 1365SOL    HW1 4109   3.236   0.512   1.762
 1365SOL    HW2 4110   3.334   0.407   1.683
 1366SOL     OW 4111   2.835   0.890   1.572
 1366SOL    HW1 4112   2.881   0.806   1.543
 1366SOL    HW2 4113   2.779   0.924   1.497
 1367SOL     OW 4114   2.853   0.410   1.242
 1367SOL    HW1 4115   2.776   0.444   1.296
 1367SOL    HW2 4116   2.819   0.359   1.163
 1368SOL     OW 4117   2.903   0.701   0.429
 1368SOL    HW1 4118   2.929   0.697   0.525
 1368SOL    HW2 4119   2.818   0.650   0.415
 1369SOL     OW 4120   1.938   0.811   0.789
 1369SOL    HW1 4121   2.037   0.799   0.798
 1369SOL    HW2 4122   1.914   0.906   0.810
 1370SOL     OW 4123   1.992   1.821   1.571
 1370SOL    HW1 4124   1.982   1.806   1.670
 1370SOL    HW2 4125   1.906   1.857   1.535
 1371SOL     OW 4126   2.727   0.348   0.195
 1371SOL    HW1 4127   2.786   0.411   0.146
 1371SOL    HW2 4128   2.746   0.254   0.166
 1372SOL     OW 4129   3.581   0.585   1.831
 1372SOL    HW1 4130   3.555   0.674   1.795
 1372SOL    HW2 4131   3.579   0.517   1.758
 1373SOL     OW 4132   3.224   1.144   0.545
 1373SOL    HW1 4133   3.307   1.115   0.497
 1373SOL    HW2 4134   3.175   1.211   0.489
 1374SOL     OW 4135   2.412   0.196   0.885
 1374SOL    HW1 4136   2.407   0.191   0.985
 1374SOL    HW2 4137   2.414   0.292   0.856
 1375SOL     OW 4138   2.870   1.456   0.477
 1375SOL    HW1 4139   2.824   1.528   0.425
 1375SOL    HW2 4140   2.866   1.476   0.575
 1376SOL     OW 4141   2.213   1.801   0.853
 1376SOL    HW1 4142   2.263   1.715   0.859
 1376SOL    HW2 4143   2.278   1.878   0.850
 1377SOL     OW 4144   3.657   1.066   0.873
 1377SOL    HW1 4145   3.595   1.051   0.797
 1377SOL    HW2 4146   3.605   1.077   0.958
 1378SOL     OW 4147   3.089   1.550   1.506
 1378SOL    HW1 4148   3.095   1.473   1.570
 1378SOL    HW2 4149   3.037   1.524   1.426
 1379SOL     OW 4150   2.183   0.943   0.242
 1379SOL    HW1 4151   2.265   0.982   0.200
 1379SOL    HW2 4152   2.156   0.861   0.193
 1380SOL     OW 4153   3.320   0.735   0.728
 1380SOL    HW1 4154   3.315   0.670   0.803
 1380SOL    HW2 4155   3.400   0.794   0.741
 1381SOL     OW 4156   2.323   1.266   1.727
 1381SOL    HW1 4157   2.273   1.267   1.641
 1381SOL    HW2 4158   2.260   1.248   1.803
 1382SOL     OW 4159   2.973   1.776   0.237
 1382SOL    HW1 4160   2.913   1.714   0.287
 1382SOL    HW2 4161   3.004   1.732   0.152
 1383SOL     OW 4162   2.064   0.285   1.498
 1383SOL    HW1 4163   1.984   0.345   1.485
 1383SOL    HW2 4164   2.054   0.236   1.584
 1384SOL     OW 4165   3.494   1.377   0.081
 1384SOL    HW1 4166   3.462   1.471   0.071
 1384SOL    HW2 4167   3.418   1.314   0.069
 1385SOL     OW 4168   2.326   1.743   0.323
 1385SOL    HW1 4169   2.359   1.782   0.409
 1385SOL    HW2 4170   2.402   1.736   0.258
 1386SOL     OW 4171   3.262   0.107   0.426
 1386SOL    HW1 4172   3.238   0.070   0.336
 1386SOL    HW2 4173   3.361   0.123   0.430
 1387SOL     OW 4174   2.111   1.785   1.241
 1387SOL    HW1 4175   2.168   1.720   1.291
 1387SOL    HW2 4176   2.095   1.752   1.148
 1388SOL     OW 4177   2.802   1.698   0.904
 1388SOL    HW1 4178   2.882   1.641   0.925
 1388SOL    HW2 4179   2.753   1.658   0.827
 1389SOL     OW 4180   2.244   0.700   0.480
 1389SOL    HW1 4181   2.289   0.610   0.477
 1389SOL    HW2 4182   2.150   0.689   0.513
 1390SOL     OW 4183   3.409   0.222   1.729
 1390SOL    HW1 4184   3.404   0.259   1.821
 1390SOL    HW2 4185   3.337   0.153   1.717
 1391SOL     OW 4186   2.476   0.122   0.117
 1391SOL    HW1 4187   2.574   0.100   0.124
 1391SOL    HW2 4188   2.445   0.105   0.024
 1392SOL     OW 4189   2.643   0.264   1.749
 1392SOL    HW1 4190   2.710   0.203   1.792
 1392SOL    HW2 4191   2.570   0.283   1.814
 1393SOL     OW 4192   2.750   1.514   1.195
 1393SOL    HW1 4193   2.727   1.489   1.101
 1393SOL    HW2 4194   2.811   1.445   1.234
 1394SOL     OW 4195   3.213   0.590   1.433
 1394SOL    HW1 4196   3.241   0.547   1.518
 1394SOL    HW2 4197   3.238   0.686   1.434
 1395SOL     OW 4198   2.665   1.402   0.924
 1395SOL    HW1 4199   2.755   1.416   0.882
 1395SOL    HW2 4200   2.594   1.404   0.853
 1396SOL     OW 4201   2.784   0.503   0.899
 1396SOL    HW1 4202   2.759   0.494   0.803
 1396SOL    HW2 4203   2.832   0.421   0.930
 1397SOL     OW 4204   2.401   0.064   0.512
 1397SOL    HW1 4205   2.320   0.065   0.570
 1397SOL    HW2 4206   2.404   0.147   0.457
 1398SOL     OW 4207   3.296   1.188   0.041
 1398SOL    HW1 4208   3.328   1.112   0.098
 1398SOL    HW2 4209   3.204   1.215   0.071
 1399SOL     OW 4210   2.159   0.035   0.171
 1399SOL    HW1 4211   2.208   0.119   0.150
 1399SOL    HW2 4212   2.221  -0.030   0.216
 1400SOL     OW 4213   2.797   0.236   0.480
 1400SOL    HW1 4214   2.749   0.277   0.402
 1400SOL    HW2 4215   2.896   0.234   0.461
 1401SOL     OW 4216   2.938   0.683   1.464
 1401SOL    HW1 4217   2.858   0.622   1.467
 1401SOL    HW2 4218   3.019   0.630   1.440
 1402SOL     OW 4219   3.089   1.570   0.793
 1402SOL    HW1 4220   3.110   1.644   0.728
 1402SOL    HW2 4221   3.157   1.570   0.866
 1403SOL     OW 4222   2.321   1.152   0.741
 1403SOL    HW1 4223   2.250   1.125   0.806
 1403SOL    HW2 4224   2.295   1.124   0.648
 1404SOL     OW 4225   3.133   1.797   0.591
 1404SOL    HW1 4226   3.177   1.861   0.527
 1404SOL    HW2 4227   3.083   1.849   0.661
 1405SOL     OW 4228   2.894   0.549   0.016
 1405SOL    HW1 4229   2.853   0.631  -0.023
 1405SOL    HW2 4230   2.958   0.575   0.089
 1406SOL     OW 4231   1.940   0.556   1.386
 1406SOL    HW1 4232   2.032   0.555   1.345
 1406SOL    HW2 4233   1.934   0.630   1.453
 1407SOL     OW 4234   2.423   0.222   1.147
 1407SOL    HW1 4235   2.461   0.138   1.184
 1407SOL    HW2 4236   2.335   0.241   1.191
 1408SOL     OW 4237   2.728   0.454   0.642
 1408SOL    HW1 4238   2.696   0.526   0.580
 1408SOL    HW2 4239   2.752   0.373   0.589
 1409SOL     OW 4240   2.879   0.039   0.753
 1409SOL    HW1 4241   2.807   0.044   0.684
 1409SOL    HW2 4242   2.855  -0.030   0.822
 1410SOL     OW 4243   3.291   1.173   0.867
 1410SOL    HW1 4244   3.236   1.089   0.860
 1410SOL    HW2 4245   3.317   1.202   0.775
 1411SOL     OW 4246   3.328   0.590   0.992
 1411SOL    HW1 4247   3.298   0.495   0.999
 1411SOL    HW2 4248   3.401   0.606   1.058
 1412SOL     OW 4249   3.719   0.833   0.377
 1412SOL    HW1 4250   3.761   0.769   0.441
 1412SOL    HW2 4251   3.681   0.782   0.299
 1413SOL     OW 4252   2.350   1.385   0.174
 1413SOL    HW1 4253   2.263   1.370   0.221
 1413SOL    HW2 4254   2.333   1.411   0.079
 1414SOL     OW 4255   3.526   1.280   0.657
 1414SOL    HW1 4256   3.625   1.288   0.671
 1414SOL    HW2 4257   3.481   1.364   0.688
 1415SOL     OW 4258   3.252   0.575   0.078
 1415SOL    HW1 4259   3.198   0.554   0.159
 1415SOL    HW2 4260   3.343   0.534   0.087
 1416SOL     OW 4261   2.389   0.256   0.328
 1416SOL    HW1 4262   2.416   0.197   0.253
 1416SOL    HW2 4263   2.389   0.351   0.297
 1417SOL     OW 4264   3.616   1.223   1.588
 1417SOL    HW1 4265   3.707   1.184   1.575
 1417SOL    HW2 4266   3.624   1.319   1.612
 1418SOL     OW 4267   2.926   1.347   1.340
 1418SOL    HW1 4268   2.846   1.324   1.395
 1418SOL    HW2 4269   3.009   1.321   1.389
 1419SOL     OW 4270   3.454   1.629   1.625
 1419SOL    HW1 4271   3.481   1.663   1.535
 1419SOL    HW2 4272   3.533   1.591   1.671
 1420SOL     OW 4273   2.973   1.195   1.100
 1420SOL    HW1 4274   2.933   1.239   1.181
 1420SOL    HW2 4275   2.932   1.232   1.017
 1421SOL     OW 4276   3.500   1.099   1.079
 1421SOL    HW1 4277   3.505   1.180   1.138
 1421SOL    HW2 4278   3.414   1.101   1.028
 1422SOL     OW 4279   2.777   0.089   1.402
 1422SOL    HW1 4280   2.802   0.069   1.307
 1422SOL    HW2 4281   2.849   0.145   1.444
 1423SOL     OW 4282   2.842   1.116   1.719
 1423SOL    HW1 4283   2.743   1.122   1.729
 1423SOL    HW2 4284   2.865   1.036   1.663
 1424SOL     OW 4285   2.567   1.050   0.368
 1424SOL    HW1 4286   2.553   1.057   0.467
 1424SOL    HW2 4287   2.651   0.999   0.350
 1425SOL     OW 4288   2.272   0.813   1.251
 1425SOL    HW1 4289   2.358   0.825   1.301
 1425SOL    HW2 4290   2.230   0.726   1.278
 1426SOL     OW 4291   3.136   0.386   1.262
 1426SOL    HW1 4292   3.157   0.460   1.326
 1426SOL    HW2 4293   3.047   0.403   1.219
 1427SOL     OW 4294   1.926   1.564   1.331
 1427SOL    HW1 4295   1.880   1.646   1.297
 1427SOL    HW2 4296   2.024   1.583   1.340
 1428SOL     OW 4297   2.229   1.100   0.501
 1428SOL    HW1 4298   2.222   1.183   0.445
 1428SOL    HW2 4299   2.233   1.020   0.441
 1429SOL     OW 4300   2.428   0.537   0.865
 1429SOL    HW1 4301   2.440   0.603   0.791
 1429SOL    HW2 4302   2.474   0.571   0.948
 1430SOL     OW 4303   3.114   1.348   0.388
 1430SOL    HW1 4304   3.164   1.425   0.428
 1430SOL    HW2 4305   3.019   1.350   0.420
 1431SOL     OW 4306   3.134   1.445   1.142
 1431SOL    HW1 4307   3.181   1.458   1.229
 1431SOL    HW2 4308   3.068   1.371   1.151
 1432SOL     OW 4309   3.444   0.639   0.472
 1432SOL    HW1 4310   3.413   0.700   0.545
 1432SOL    HW2 4311   3.494   0.691   0.403
 1433SOL     OW 4312   2.216   1.510   1.329
 1433SOL    HW1 4313   2.195   1.466   1.242
 1433SOL    HW2 4314   2.313   1.536   1.332
 1434SOL     OW 4315   2.264   0.751   1.598
 1434SOL    HW1 4316   2.332   0.806   1.551
 1434SOL    HW2 4317   2.304   0.663   1.625
 1435SOL     OW 4318   3.449   0.779   1.670
 1435SOL    HW1 4319   3.357   0.817   1.665
 1435SOL    HW2 4320   3.509   0.826   1.605
 1436SOL     OW 4321   2.875   0.105   1.770
 1436SOL    HW1 4322   2.881   0.190   1.718
 1436SOL    HW2 4323   2.907   0.029   1.713
 1437SOL     OW 4324   2.366   0.050   1.740
 1437SOL    HW1 4325   2.324  -0.007   1.670
 1437SOL    HW2 4326   2.300   0.119   1.772
 1438SOL     OW 4327   2.435   0.870   1.029
 1438SOL    HW1 4328   2.479   0.959   1.020
 1438SOL    HW2 4329   2.372   0.870   1.106
 1439SOL     OW 4330   3.222   0.862   1.045
 1439SOL    HW1 4331   3.147   0.862   0.979
 1439SOL    HW2 4332   3.259   0.770   1.054
 1440SOL     OW 4333   3.071   0.525   0.275
 1440SOL    HW1 4334   3.084   0.441   0.329
 1440SOL    HW2 4335   3.042   0.599   0.335
 1441SOL     OW 4336   2.169   0.213   1.231
 1441SOL    HW1 4337   2.146   0.250   1.321
 1441SOL    HW2 4338   2.139   0.118   1.225
 1442SOL     OW 4339   1.899   1.310   1.282
 1442SOL    HW1 4340   1.952   1.261   1.350
 1442SOL    HW2 4341   1.921   1.408   1.287
 1443SOL     OW 4342   2.594   0.634   1.064
 1443SOL    HW1 4343   2.653   0.608   0.988
 1443SOL    HW2 4344   2.566   0.730   1.053
 1444SOL     OW 4345   3.590   0.935   1.854
 1444SOL    HW1 4346   3.544   0.928   1.765
 1444SOL    HW2 4347   3.528   0.979   1.920
 1445SOL     OW 4348   2.169   0.063   0.618
 1445SOL    HW1 4349   2.158   0.157   0.651
 1445SOL    HW2 4350   2.164   0.000   0.695
 1446SOL     OW 4351   3.484   0.367   0.374
 1446SOL    HW1 4352   3.486   0.291   0.438
 1446SOL    HW2 4353   3.436   0.444   0.414
 1447SOL     OW 4354   2.885   0.766   0.966
 1447SOL    HW1 4355   2.900   0.787   1.062
 1447SOL    HW2 4356   2.855   0.671   0.957
 1448SOL     OW 4357   2.842   1.573   1.700
 1448SOL    HW1 4358   2.822   1.617   1.612
 1448SOL    HW2 4359   2.881   1.482   1.684
 1449SOL     OW 4360   3.721   1.518   1.605
 1449SOL    HW1 4361   3.735   1.545   1.510
 1449SOL    HW2 4362   3.804   1.540   1.658
 1450SOL     OW 4363   2.212   0.898   1.804
 1450SOL    HW1 4364   2.288   0.942   1.852
 1450SOL    HW2 4365   2.247   0.851   1.722
 1451SOL     OW 4366   3.402   0.274   0.125
 1451SOL    HW1 4367   3.341   0.199   0.148
 1451SOL    HW2 4368   3.424   0.326   0.208
 1452SOL     OW 4369   3.165   0.838   0.042
 1452SOL    HW1 4370   3.199   0.745   0.057
 1452SOL    HW2 4371   3.183   0.865  -0.053
 1453SOL     OW 4372   2.930   1.333   0.849
 1453SOL    HW1 4373   2.937   1.249   0.794
 1453SOL    HW2 4374   2.992   1.402   0.813
 1454SOL     OW 4375   2.181   0.810   0.949
 1454SOL    HW1 4376   2.274   0.846   0.954
 1454SOL    HW2 4377   2.175   0.725   1.001
 1455SOL     OW 4378   2.201   0.509   1.006
 1455SOL    HW1 4379   2.149   0.426   0.989
 1455SOL    HW2 4380   2.278   0.514   0.942
 1456SOL     OW 4381   3.000   0.380   1.678
 1456SOL    HW1 4382   2.955   0.443   1.742
 1456SOL    HW2 4383   3.093   0.411   1.661
 1457SOL     OW 4384   3.022   0.207   1.477
 1457SOL    HW1 4385   3.022   0.271   1.554
 1457SOL    HW2 4386   3.050   0.255   1.394
 1458SOL     OW 4387   1.870   1.326   0.200
 1458SOL    HW1 4388   1.777   1.347   0.169
 1458SOL    HW2 4389   1.880   1.227   0.213
 1459SOL     OW 4390   1.950   1.801   0.927
 1459SOL    HW1 4391   1.908   1.715   0.900
 1459SOL    HW2 4392   2.044   1.804   0.893
 1460SOL     OW 4393   2.366   1.568   0.910
 1460SOL    HW1 4394   2.432   1.642   0.919
 1460SOL    HW2 4395   2.410   1.489   0.868
 1461SOL     OW 4396   2.864   0.796   1.238
 1461SOL    HW1 4397   2.905   0.764   1.324
 1461SOL    HW2 4398   2.768   0.769   1.235
 1462SOL     OW 4399   1.902   0.544   1.114
 1462SOL    HW1 4400   1.987   0.511   1.073
 1462SOL    HW2 4401   1.915   0.559   1.212
 1463SOL     OW 4402   2.051   0.520   1.722
 1463SOL    HW1 4403   2.110   0.480   1.652
 1463SOL    HW2 4404   1.993   0.591   1.681
 1464SOL     OW 4405   3.231   0.950   1.660
 1464SOL    HW1 4406   3.270   1.039   1.680
 1464SOL    HW2 4407   3.241   0.930   1.563
 1465SOL     OW 4408   2.677   0.572   0.325
 1465SOL    HW1 4409   2.684   0.483   0.279
 1465SOL    HW2 4410   2.583   0.606   0.317
 1466SOL     OW 4411   3.519   0.604   1.206
 1466SOL    HW1 4412   3.481   0.535   1.268
 1466SOL    HW2 4413   3.601   0.568   1.162
 1467SOL     OW 4414   2.114   1.564   1.744
 1467SOL    HW1 4415   2.084   1.621   1.820
 1467SOL    HW2 4416   2.107   1.467   1.770
 1468SOL     OW 4417   2.533   0.464   1.269
 1468SOL    HW1 4418   2.499   0.375   1.239
 1468SOL    HW2 4419   2.559   0.518   1.189
 1469SOL     OW 4420   2.792   1.678   1.465
 1469SOL    HW1 4421   2.768   1.660   1.370
 1469SOL    HW2 4422   2.822   1.772   1.475
 1470SOL     OW 4423   2.335   0.500   0.191
 1470SOL    HW1 4424   2.396   0.580   0.195
 1470SOL    HW2 4425   2.240   0.531   0.198
 1471SOL     OW 4426   2.021   1.137   1.466
 1471SOL    HW1 4427   2.043   1.076   1.542
 1471SOL    HW2 4428   2.031   1.088   1.380
 1472SOL     OW 4429   3.209   1.059   1.234
 1472SOL    HW1 4430   3.233   0.996   1.160
 1472SOL    HW2 4431   3.119   1.099   1.216
 1473SOL     OW 4432   3.164   0.855   0.309
 1473SOL    HW1 4433   3.078   0.824   0.351
 1473SOL    HW2 4434   3.160   0.841   0.210
 1474SOL     OW 4435   3.621   1.747   1.154
 1474SOL    HW1 4436   3.682   1.777   1.081
 1474SOL    HW2 4437   3.583   1.658   1.132
 1475SOL     OW 4438   3.114   1.731   1.128
 1475SOL    HW1 4439   3.198   1.736   1.074
 1475SOL    HW2 4440   3.091   1.635   1.146
 1476SOL     OW 4441   1.945   1.258   1.022
 1476SOL    HW1 4442   1.940   1.257   1.122
 1476SOL    HW2 4443   1.862   1.217   0.984
 1477SOL     OW 4444   2.550   1.662   1.716
 1477SOL    HW1 4445   2.494   1.743   1.725
 1477SOL    HW2 4446   2.602   1.666   1.630
 1478SOL     OW 4447   2.765   0.086   0.133
 1478SOL    HW1 4448   2.816   0.087   0.047
 1478SOL    HW2 4449   2.821   0.044   0.204
 1479SOL     OW 4450   3.588   0.135   0.523
 1479SOL    HW1 4451   3.661   0.118   0.456
 1479SOL    HW2 4452   3.557   0.048   0.561
 1480SOL     OW 4453   3.250   1.573   0.477
 1480SOL    HW1 4454   3.317   1.585   0.403
 1480SOL    HW2 4455   3.210   1.662   0.500
 1481SOL     OW 4456   1.992   1.794   1.851
 1481SOL    HW1 4457   1.951   1.720   1.904
 1481SOL    HW2 4458   2.056   1.845   1.909
 1482SOL     OW 4459   3.142   0.927   0.672
 1482SOL    HW1 4460   3.202   0.846   0.674
 1482SOL    HW2 4461   3.182   0.996   0.612
 1483SOL     OW 4462   2.692   1.273   1.422
 1483SOL    HW1 4463   2.687   1.306   1.517
 1483SOL    HW2 4464   2.606   1.292   1.376
 1484SOL     OW 4465   2.534   1.616   0.154
 1484SOL    HW1 4466   2.543   1.626   0.055
 1484SOL    HW2 4467   2.494   1.527   0.175
 1485SOL     OW 4468   3.512   1.720   1.394
 1485SOL    HW1 4469   3.565   1.730   1.310
 1485SOL    HW2 4470   3.485   1.810   1.428
 1486SOL     OW 4471   3.703   0.175   0.963
 1486SOL    HW1 4472   3.742   0.090   0.927
 1486SOL    HW2 4473   3.605   0.177   0.944
 1487SOL     OW 4474   2.125   0.326   0.720
 1487SOL    HW1 4475   2.046   0.377   0.686
 1487SOL    HW2 4476   2.116   0.311   0.818
 1488SOL     OW 4477   3.056   1.612   0.031
 1488SOL    HW1 4478   3.062   1.519   0.068
 1488SOL    HW2 4479   2.997   1.612  -0.049
 1489SOL     OW 4480   2.684   1.002   1.372
 1489SOL    HW1 4481   2.724   1.001   1.280
 1489SOL    HW2 4482   2.694   1.094   1.412
 1490SOL     OW 4483   2.778   0.910   0.291
 1490SOL    HW1 4484   2.841   0.948   0.223
 1490SOL    HW2 4485   2.818   0.827   0.330
 1491SOL     OW 4486   3.366   1.607   0.044
 1491SOL    HW1 4487   3.274   1.644   0.051
 1491SOL    HW2 4488   3.404   1.627  -0.046
 1492SOL     OW 4489   2.234   1.288   1.490
 1492SOL    HW1 4490   2.221   1.381   1.456
 1492SOL    HW2 4491   2.150   1.236   1.477
 1493SOL     OW 4492   3.476   1.292   1.289
 1493SOL    HW1 4493   3.536   1.295   1.369
 1493SOL    HW2 4494   3.401   1.356   1.302
 1494SOL     OW 4495   2.901   1.098   0.696
 1494SOL    HW1 4496   2.831   1.051   0.750
 1494SOL    HW2 4497   2.960   1.030   0.653
 1495SOL     OW 4498   2.876   0.236   0.971
 1495SOL    HW1 4499   2.868   0.200   0.878
 1495SOL    HW2 4500   2.874   0.160   1.036
 1496SOL     OW 4501   2.452   1.487   0.491
 1496SOL    HW1 4502   2.494   1.429   0.421
 1496SOL    HW2 4503   2.408   1.566   0.447
 1497SOL     OW 4504   3.571   0.385   1.381
 1497SOL    HW1 4505   3.644   0.454   1.385
 1497SOL    HW2 4506   3.599   0.310   1.322
 1498SOL     OW 4507   2.117   1.348   0.290
 1498SOL    HW1 4508   2.021   1.349   0.263
 1498SOL    HW2 4509   2.129   1.401   0.374
 1499SOL     OW 4510   1.967   1.013   1.726
 1499SOL    HW1 4511   1.890   0.980   1.780
 1499SOL    HW2 4512   2.052   0.983   1.768
 1500SOL     OW 4513   2.534   0.203   1.489
 1500SOL    HW1 4514   2.624   0.187   1.449
 1500SOL    HW2 4515   2.542   0.208   1.588
 1501SOL     OW 4516   3.302   0.856   1.398
 1501SOL    HW1 4517   3.245   0.908   1.335
 1501SOL    HW2 4518   3.398   0.868   1.374
 1502SOL     OW 4519   3.045   1.335   0.119
 1502SOL    HW1 4520   2.946   1.324   0.121
 1502SOL    HW2 4521   3.079   1.350   0.212
 1503SOL     OW 4522   2.475   0.842   1.431
 1503SOL    HW1 4523   2.531   0.923   1.414
 1503SOL    HW2 4524   2.534   0.762   1.434
 1504SOL     OW 4525   3.355   1.767   0.959
 1504SOL    HW1 4526   3.388   1.831   0.890
 1504SOL    HW2 4527   3.421   1.761   1.034
 1505SOL     OW 4528   2.578   0.565   1.708
 1505SOL    HW1 4529   2.597   0.630   1.782
 1505SOL    HW2 4530   2.638   0.485   1.717
 1506SOL     OW 4531   3.312   1.220   1.633
 1506SOL    HW1 4532   3.303   1.210   1.732
 1506SOL    HW2 4533   3.408   1.213   1.607
 1507SOL     OW 4534   2.252   1.741   1.560
 1507SOL    HW1 4535   2.161   1.782   1.558
 1507SOL    HW2 4536   2.245   1.647   1.592
 1508SOL     OW 4537   3.536   0.883   1.254
 1508SOL    HW1 4538   3.509   0.794   1.217
 1508SOL    HW2 4539   3.537   0.951   1.181
 1509SOL     OW 4540   3.087   0.325   0.449
 1509SOL    HW1 4541   3.152   0.251   0.438
 1509SOL    HW2 4542   3.107   0.375   0.533
 1510SOL     OW 4543   2.456   0.745   0.652
 1510SOL    HW1 4544   2.506   0.830   0.633
 1510SOL    HW2 4545   2.368   0.747   0.604
 1511SOL     OW 4546   3.639   0.342   1.642
 1511SOL    HW1 4547   3.622   0.373   1.548
 1511SOL    HW2 4548   3.555   0.305   1.680
 1512SOL     OW 4549   3.592   0.934   1.517
 1512SOL    HW1 4550   3.630   1.025   1.532
 1512SOL    HW2 4551   3.584   0.917   1.418
 1513SOL     OW 4552   2.721   1.374   0.016
 1513SOL    HW1 4553   2.675   1.389   0.104
 1513SOL    HW2 4554   2.765   1.459  -0.014
 1514SOL     OW 4555   2.523   1.790   0.953
 1514SOL    HW1 4556   2.477   1.878   0.940
 1514SOL    HW2 4557   2.622   1.802   0.946
 1515SOL     OW 4558   2.721   0.956   0.861
 1515SOL    HW1 4559   2.775   0.887   0.909
 1515SOL    HW2 4560   2.689   1.025   0.927
 1516SOL     OW 4561   2.945   0.984   0.087
 1516SOL    HW1 4562   2.922   1.037   0.005
 1516SOL    HW2 4563   3.026   0.928   0.068
 1517SOL     OW 4564   3.723   1.569   0.851
 1517SOL    HW1 4565   3.652   1.557   0.781
 1517SOL    HW2 4566   3.724   1.490   0.911
 1518SOL     OW 4567   2.083   1.314   1.844
 1518SOL    HW1 4568   2.018   1.241   1.823
 1518SOL    HW2 4569   2.087   1.328   1.942
 1519SOL     OW 4570   1.941   1.240   0.653
 1519SOL    HW1 4571   1.940   1.193   0.741
 1519SOL    HW2 4572   2.023   1.212   0.602
 1520SOL     OW 4573   2.534   1.391   1.624
 1520SOL    HW1 4574   2.456   1.341   1.662
 1520SOL    HW2 4575   2.531   1.486   1.655
 1521SOL     OW 4576   3.686   0.192   1.227
 1521SOL    HW1 4577   3.682   0.102   1.271
 1521SOL    HW2 4578   3.689   0.181   1.128
 1522SOL     OW 4579   2.290   0.424   0.520
 1522SOL    HW1 4580   2.320   0.352   0.458
 1522SOL    HW2 4581   2.251   0.384   0.603
 1523SOL     OW 4582   3.567   1.487   1.104
 1523SOL    HW1 4583   3.474   1.462   1.077
 1523SOL    HW2 4584   3.593   1.437   1.186
 1524SOL     OW 4585   2.179   0.547   1.280
 1524SOL    HW1 4586   2.217   0.488   1.352
 1524SOL    HW2 4587   2.219   0.521   1.192
 1525SOL     OW 4588   2.674   1.586   0.687
 1525SOL    HW1 4589   2.706   1.596   0.593
 1525SOL    HW2 4590   2.595   1.524   0.689
 1526SOL     OW 4591   3.286   0.214   1.112
 1526SOL    HW1 4592   3.338   0.149   1.167
 1526SOL    HW2 4593   3.237   0.277   1.173
 1527SOL     OW 4594   2.863   0.034   1.154
 1527SOL    HW1 4595   2.800  -0.038   1.123
 1527SOL    HW2 4596   2.956  -0.002   1.154
 1528SOL     OW 4597   2.632   1.330   0.301
 1528SOL    HW1 4598   2.586   1.243   0.318
 1528SOL    HW2 4599   2.723   1.327   0.342
 1529SOL     OW 4600   2.480   1.567   1.284
 1529SOL    HW1 4601   2.475   1.649   1.341
 1529SOL    HW2 4602   2.569   1.564   1.239
 1530SOL     OW 4603   3.214   0.052   0.168
 1530SOL    HW1 4604   3.249   0.011   0.084
 1530SOL    HW2 4605   3.124   0.014   0.188
 1531SOL     OW 4606   3.162   0.453   0.691
 1531SOL    HW1 4607   3.103   0.533   0.695
 1531SOL    HW2 4608   3.177   0.418   0.784
 1532SOL     OW 4609   3.455   0.221   0.882
 1532SOL    HW1 4610   3.371   0.220   0.936
 1532SOL    HW2 4611   3.457   0.304   0.826
 1533SOL     OW 4612   1.901   1.077   0.300
 1533SOL    HW1 4613   2.000   1.066   0.291
 1533SOL    HW2 4614   1.861   0.991   0.332
 1534SOL     OW 4615   2.737   1.646   0.337
 1534SOL    HW1 4616   2.660   1.611   0.283
 1534SOL    HW2 4617   2.705   1.717   0.399
 1535SOL     OW 4618   2.092   0.628   1.975
 1535SOL    HW1 4619   1.999   0.626   2.012
 1535SOL    HW2 4620   2.093   0.589   1.883
 1536SOL     OW 4621   2.087   0.275   2.858
 1536SOL    HW1 4622   2.122   0.258   2.950
 1536SOL    HW2 4623   1.999   0.230   2.846
 1537SOL     OW 4624   1.881   0.368   2.509
 1537SOL    HW1 4625   1.799   0.411   2.548
 1537SOL    HW2 4626   1.853   0.295   2.446
 1538SOL     OW 4627   2.431   1.275   3.027
 1538SOL    HW1 4628   2.338   1.268   2.990
 1538SOL    HW2 4629   2.442   1.364   3.071
 1539SOL     OW 4630   3.417   1.511   2.565
 1539SOL    HW1 4631   3.360   1.495   2.646
 1539SOL    HW2 4632   3.358   1.521   2.485
 1540SOL     OW 4633   2.997   0.703   2.579
 1540SOL    HW1 4634   3.054   0.781   2.554
 1540SOL    HW2 4635   2.937   0.729   2.655
 1541SOL     OW 4636   3.617   0.607   2.093
 1541SOL    HW1 4637   3.605   0.594   1.994
 1541SOL    HW2 4638   3.587   0.526   2.142
 1542SOL     OW 4639   2.630   1.144   2.885
 1542SOL    HW1 4640   2.552   1.161   2.945
 1542SOL    HW2 4641   2.664   1.231   2.849
 1543SOL     OW 4642   2.712   0.798   3.685
 1543SOL    HW1 4643   2.708   0.874   3.750
 1543SOL    HW2 4644   2.734   0.834   3.594
 1544SOL     OW 4645   2.547   1.012   2.527
 1544SOL    HW1 4646   2.616   0.996   2.597
 1544SOL    HW2 4647   2.474   1.069   2.565
 1545SOL     OW 4648   2.548   1.161   3.665
 1545SOL    HW1 4649   2.608   1.240   3.679
 1545SOL    HW2 4650   2.462   1.192   3.624
 1546SOL     OW 4651   2.197   1.435   2.923
 1546SOL    HW1 4652   2.119   1.404   2.870
 1546SOL    HW2 4653   2.255   1.493   2.866
 1547SOL     OW 4654   3.322   1.505   3.201
 1547SOL    HW1 4655   3.346   1.599   3.227
 1547SOL    HW2 4656   3.306   1.451   3.283
 1548SOL     OW 4657   2.300   0.392   3.361
 1548SOL    HW1 4658   2.382   0.336   3.370
 1548SOL    HW2 4659   2.219   0.334   3.365
 1549SOL     OW 4660   3.465   0.447   2.599
 1549SOL    HW1 4661   3.391   0.493   2.549
 1549SOL    HW2 4662   3.516   0.515   2.652
 1550SOL     OW 4663   2.093   1.713   2.345
 1550SOL    HW1 4664   2.127   1.790   2.399
 1550SOL    HW2 4665   2.137   1.713   2.255
 1551SOL     OW 4666   2.989   1.341   3.552
 1551SOL    HW1 4667   3.036   1.341   3.640
 1551SOL    HW2 4668   2.941   1.254   3.541
 1552SOL     OW 4669   2.092   1.434   2.400
 1552SOL    HW1 4670   2.066   1.530   2.400
 1552SOL    HW2 4671   2.021   1.380   2.445
 1553SOL     OW 4672   2.102   1.091   2.748
 1553SOL    HW1 4673   2.116   1.007   2.800
 1553SOL    HW2 4674   2.047   1.155   2.803
 1554SOL     OW 4675   2.482   1.786   3.301
 1554SOL    HW1 4676   2.390   1.769   3.336
 1554SOL    HW2 4677   2.510   1.878   3.327
 1555SOL     OW 4678   2.468   0.964   1.985
 1555SOL    HW1 4679   2.475   1.048   1.931
 1555SOL    HW2 4680   2.514   0.977   2.073
 1556SOL     OW 4681   3.456   0.114   3.342
 1556SOL    HW1 4682   3.438   0.181   3.270
 1556SOL    HW2 4683   3.453   0.160   3.431
 1557SOL     OW 4684   1.984   0.643   2.425
 1557SOL    HW1 4685   1.939   0.555   2.442
 1557SOL    HW2 4686   1.983   0.697   2.509
 1558SOL     OW 4687   3.704   1.767   2.221
 1558SOL    HW1 4688   3.758   1.738   2.301
 1558SOL    HW2 4689   3.734   1.857   2.192
 1559SOL     OW 4690   1.889   1.596   1.979
 1559SOL    HW1 4691   1.870   1.500   2.000
 1559SOL    HW2 4692   1.856   1.654   2.054
 1560SOL     OW 4693   3.551   0.922   2.474
 1560SOL    HW1 4694   3.646   0.893   2.482
 1560SOL    HW2 4695   3.543   0.987   2.399
 1561SOL     OW 4696   3.503   1.108   2.294
 1561SOL    HW1 4697   3.589   1.110   2.242
 1561SOL    HW2 4698   3.517   1.155   2.382
 1562SOL     OW 4699   1.975   0.737   3.459
 1562SOL    HW1 4700   2.063   0.724   3.504
 1562SOL    HW2 4701   1.962   0.834   3.437
 1563SOL     OW 4702   2.475   1.365   2.588
 1563SOL    HW1 4703   2.426   1.278   2.597
 1563SOL    HW2 4704   2.452   1.408   2.501
 1564SOL     OW 4705   3.155   1.228   3.285
 1564SOL    HW1 4706   3.192   1.155   3.227
 1564SOL    HW2 4707   3.207   1.233   3.370
 1565SOL     OW 4708   2.671   0.004   2.364
 1565SOL    HW1 4709   2.711   0.095   2.355
 1565SOL    HW2 4710   2.571   0.012   2.370
 1566SOL     OW 4711   2.059   0.976   3.126
 1566SOL    HW1 4712   2.148   0.931   3.112
 1566SOL    HW2 4713   1.986   0.911   3.107
 1567SOL     OW 4714   3.387   0.999   2.052
 1567SOL    HW1 4715   3.324   0.923   2.065
 1567SOL    HW2 4716   3.435   1.017   2.138
 1568SOL     OW 4717   3.049   1.792   3.478
 1568SOL    HW1 4718   3.073   1.852   3.402
 1568SOL    HW2 4719   3.056   1.697   3.448
 1569SOL     OW 4720   2.179   0.251   3.663
 1569SOL    HW1 4721   2.250   0.322   3.669
 1569SOL    HW2 4722   2.091   0.290   3.691
 1570SOL     OW 4723   3.328   1.417   2.815
 1570SOL    HW1 4724   3.269   1.423   2.895
 1570SOL    HW2 4725   3.313   1.329   2.769
 1571SOL     OW 4726   3.529   1.714   2.434
 1571SOL    HW1 4727   3.488   1.691   2.346
 1571SOL    HW2 4728   3.511   1.640   2.499
 1572SOL     OW 4729   2.460   0.729   2.132
 1572SOL    HW1 4730   2.484   0.798   2.064
 1572SOL    HW2 4731   2.382   0.762   2.186
 1573SOL     OW 4732   3.143   0.345   2.806
 1573SOL    HW1 4733   3.057   0.295   2.793
 1573SOL    HW2 4734   3.205   0.291   2.862
 1574SOL     OW 4735   3.438   1.662   2.169
 1574SOL    HW1 4736   3.527   1.708   2.172
 1574SOL    HW2 4737   3.417   1.638   2.074
 1575SOL     OW 4738   2.669   0.605   3.327
 1575SOL    HW1 4739   2.622   0.602   3.416
 1575SOL    HW2 4740   2.618   0.550   3.261
 1576SOL     OW 4741   3.256   0.469   3.536
 1576SOL    HW1 4742   3.236   0.512   3.624
 1576SOL    HW2 4743   3.334   0.407   3.545
 1577SOL     OW 4744   2.835   0.890   3.434
 1577SOL    HW1 4745   2.881   0.806   3.405
 1577SOL    HW2 4746   2.779   0.924   3.359
 1578SOL     OW 4747   2.853   0.410   3.104
 1578SOL    HW1 4748   2.776   0.444   3.158
 1578SOL    HW2 4749   2.819   0.359   3.025
 1579SOL     OW 4750   2.903   0.701   2.291
 1579SOL    HW1 4751   2.929   0.697   2.387
 1579SOL    HW2 4752   2.818   0.650   2.277
 1580SOL     OW 4753   1.938   0.811   2.651
 1580SOL    HW1 4754   2.037   0.799   2.660
 1580SOL    HW2 4755   1.914   0.906   2.672
 1581SOL     OW 4756   1.992   1.821   3.433
 1581SOL    HW1 4757   1.982   1.806   3.532
 1581SOL    HW2 4758   1.906   1.857   3.397
 1582SOL     OW 4759   2.727   0.348   2.057
 1582SOL    HW1 4760   2.786   0.411   2.008
 1582SOL    HW2 4761   2.746   0.254   2.028
 1583SOL     OW 4762   3.581   0.585   3.693
 1583SOL    HW1 4763   3.555   0.674   3.657
 1583SOL    HW2 4764   3.579   0.517   3.620
 1584SOL     OW 4765   3.224   1.144   2.407
 1584SOL    HW1 4766   3.307   1.115   2.359
 1584SOL    HW2 4767   3.175   1.211   2.351
 1585SOL     OW 4768   2.412   0.196   2.747
 1585SOL    HW1 4769   2.407   0.191   2.847
 1585SOL    HW2 4770   2.414   0.292   2.718
 1586SOL     OW 4771   2.870   1.456   2.339
 1586SOL    HW1 4772   2.824   1.528   2.287
 1586SOL    HW2 4773   2.866   1.476   2.437
 1587SOL     OW 4774   2.213   1.801   2.715
 1587SOL    HW1 4775   2.263   1.715   2.721
 1587SOL    HW2 4776   2.278   1.878   2.712
 1588SOL     OW 4777   3.657   1.066   2.735
 1588SOL    HW1 4778   3.595   1.051   2.659
 1588SOL    HW2 4779   3.605   1.077   2.820
 1589SOL     OW 4780   3.089   1.550   3.368
 1589SOL    HW1 4781   3.095   1.473   3.432
 1589SOL    HW2 4782   3.037   1.524   3.288
 1590SOL     OW 4783   2.183   0.943   2.104
 1590SOL    HW1 4784   2.265   0.982   2.062
 1590SOL    HW2 4785   2.156   0.861   2.055
 1591SOL     OW 4786   3.320   0.735   2.590
 1591SOL    HW1 4787   3.315   0.670   2.665
 1591SOL    HW2 4788   3.400   0.794   2.603
 1592SOL     OW 4789   2.323   1.266   3.589
 1592SOL    HW1 4790   2.273   1.267   3.503
 1592SOL    HW2 4791   2.260   1.248   3.665
 1593SOL     OW 4792   2.973   1.776   2.099
 1593SOL    HW1 4793   2.913   1.714   2.149
 1593SOL    HW2 4794   3.004   1.732   2.014
 1594SOL     OW 4795   2.064   0.285   3.360
 1594SOL    HW1 4796   1.984   0.345   3.347
 1594SOL    HW2 4797   2.054   0.236   3.446
 1595SOL     OW 4798   3.494   1.377   1.943
 1595SOL    HW1 4799   3.462   1.471   1.933
 1595SOL    HW2 4800   3.418   1.314   1.931
 1596SOL     OW 4801   2.326   1.743   2.185
 1596SOL    HW1 4802   2.359   1.782   2.271
 1596SOL    HW2 4803   2.402   1.736   2.120
 1597SOL     OW 4804   3.262   0.107   2.288
 1597SOL    HW1 4805   3.238   0.070   2.198
 1597SOL    HW2 4806   3.361   0.123   2.292
 1598SOL     OW 4807   2.111   1.785   3.103
 1598SOL    HW1 4808   2.168   1.720   3.153
 1598SOL    HW2 4809   2.095   1.752   3.010
 1599SOL     OW 4810   2.802   1.698   2.766
 1599SOL    HW1 4811   2.882   1.641   2.787
 1599SOL    HW2 4812   2.753   1.658   2.689
 1600SOL     OW 4813   2.244   0.700   2.342
 1600SOL    HW1 4814   2.289   0.610   2.339
 1600SOL    HW2 4815   2.150   0.689   2.375
 1601SOL     OW 4816   3.409   0.222   3.591
 1601SOL    HW1 4817   3.404   0.259   3.683
 1601SOL    HW2 4818   3.337   0.153   3.579
 1602SOL     OW 4819   2.476   0.122   1.979
 1602SOL    HW1 4820   2.574   0.100   1.986
 1602SOL    HW2 4821   2.445   0.105   1.886
 1603SOL     OW 4822   2.643   0.264   3.611
 1603SOL    HW1 4823   2.710   0.203   3.654
 1603SOL    HW2 4824   2.570   0.283   3.676
 1604SOL     OW 4825   2.750   1.514   3.057
 1604SOL    HW1 4826   2.727   1.489   2.963
 1604SOL    HW2 4827   2.811   1.445   3.096
 1605SOL     OW 4828   3.213   0.590   3.295
 1605SOL    HW1 4829   3.241   0.547   3.380
 1605SOL    HW2 4830   3.238   0.686   3.296
 1606SOL     OW 4831   2.665   1.402   2.786
 1606SOL    HW1 4832   2.755   1.416   2.744
 1606SOL    HW2 4833   2.594   1.404   2.715
 1607SOL     OW 4834   2.784   0.503   2.761
 1607SOL    HW1 4835   2.759   0.494   2.665
 1607SOL    HW2 4836   2.832   0.421   2.792
 1608SOL     OW 4837   2.401   0.064   2.374
 1608SOL    HW1 4838   2.320   0.065   2.432
 1608SOL    HW2 4839   2.404   0.147   2.319
 1609SOL     OW 4840   3.296   1.188   1.903
 1609SOL    HW1 4841   3.328   1.112   1.960
 1609SOL    HW2 4842   3.204   1.215   1.933
 1610SOL     OW 4843   2.159   0.035   2.033
 1610SOL    HW1 4844   2.208   0.119   2.012
 1610SOL    HW2 4845   2.221  -0.030   2.078
 1611SOL     OW 4846   2.797   0.236   2.342
 1611SOL    HW1 4847   2.749   0.277   2.264
 1611SOL    HW2 4848   2.896   0.234   2.323
 1612SOL     OW 4849   2.938   0.683   3.326
 1612SOL    HW1 4850   2.858   0.622   3.329
 1612SOL    HW2 4851   3.019   0.630   3.302
 1613SOL     OW 4852   3.089   1.570   2.655
 1613SOL    HW1 4853   3.110   1.644   2.590
 1613SOL    HW2 4854   3.157   1.570   2.728
 1614SOL     OW 4855   2.321   1.152   2.603
 1614SOL    HW1 4856   2.250   1.125   2.668
 1614SOL    HW2 4857   2.295   1.124   2.510
 1615SOL     OW 4858   3.133   1.797   2.453
 1615SOL    HW1 4859   3.177   1.861   2.389
 1615SOL    HW2 4860   3.083   1.849   2.523
 1616SOL     OW 4861   2.894   0.549   1.878
 1616SOL    HW1 4862   2.853   0.631   1.839
 1616SOL    HW2 4863   2.958   0.575   1.951
 1617SOL     OW 4864   1.940   0.556   3.248
 1617SOL    HW1 4865   2.032   0.555   3.207
 1617SOL    HW2 4866   1.934   0.630   3.315
 1618SOL     OW 4867   2.423   0.222   3.009
 1618SOL    HW1 4868   2.461   0.138   3.046
 1618SOL    HW2 4869   2.335   0.241   3.053
 1619SOL     OW 4870   2.728   0.454   2.504
 1619SOL    HW1 4871   2.696   0.526   2.442
 1619SOL    HW2 4872   2.752   0.373   2.451
 1620SOL     OW 4873   2.879   0.039   2.615
 1620SOL    HW1 4874   2.807   0.044   2.546
 1620SOL    HW2 4875   2.855  -0.030   2.684
 1621SOL     OW 4876   3.291   1.173   2.729
 1621SOL    HW1 4877   3.236   1.089   2.722
 1621SOL    HW2 4878   3.317   1.202   2.637
 1622SOL     OW 4879   3.328   0.590   2.854
 1622SOL    HW1 4880   3.298   0.495   2.861
 1622SOL    HW2 4881   3.401   0.606   2.920
 1623SOL     OW 4882   3.719   0.833   2.239
 1623SOL    HW1 4883   3.761   0.769   2.303
 1623SOL    HW2 4884   3.681   0.782   2.161
 1624SOL     OW 4885   2.350   1.385   2.036
 1624SOL    HW1 4886   2.263   1.370   2.083
 1624SOL    HW2 4887   2.333   1.411   1.941
 1625SOL     OW 4888   3.526   1.280   2.519
 1625SOL    HW1 4889   3.625   1.288   2.533
 1625SOL    HW2 4890   3.481   1.364   2.550
 1626SOL     OW 4891   3.252   0.575   1.940
 1626SOL    HW1 4892   3.198   0.554   2.021
 1626SOL    HW2 4893   3.343   0.534   1.949
 1627SOL     OW 4894   2.389   0.256   2.190
 1627SOL    HW1 4895   2.416   0.197   2.115
 1627SOL    HW2 4896   2.389   0.351   2.159
 1628SOL     OW 4897   3.616   1.223   3.450
 1628SOL    HW1 4898   3.707   1.184   3.437
 1628SOL    HW2 4899   3.624   1.319   3.474
 1629SOL     OW 4900   2.926   1.347   3.202
 1629SOL    HW1 4901   2.846   1.324   3.257
 1629SOL    HW2 4902   3.009   1.321   3.251
 1630SOL     OW 4903   3.454   1.629   3.487
 1630SOL    HW1 4904   3.481   1.663   3.397
 1630SOL    HW2 4905   3.533   1.591   3.533
 1631SOL     OW 4906   2.973   1.195   2.962
 1631SOL    HW1 4907   2.933   1.239   3.043
 1631SOL    HW2 4908   2.932   1.232   2.879
 1632SOL     OW 4909   3.500   1.099   2.941
 1632SOL    HW1 4910   3.505   1.180   3.000
 1632SOL    HW2 4911   3.414   1.101   2.890
 1633SOL     OW 4912   2.777   0.089   3.264
 1633SOL    HW1 4913   2.802   0.069   3.169
 1633SOL    HW2 4914   2.849   0.145   3.306
 1634SOL     OW 4915   2.842   1.116   3.581
 1634SOL    HW1 4916   2.743   1.122   3.591
 1634SOL    HW2 4917   2.865   1.036   3.525
 1635SOL     OW 4918   2.567   1.050   2.230
 1635SOL    HW1 4919   2.553   1.057   2.329
 1635SOL    HW2 4920   2.651   0.999   2.212
 1636SOL     OW 4921   2.272   0.813   3.113
 1636SOL    HW1 4922   2.358   0.825   3.163
 1636SOL    HW2 4923   2.230   0.726   3.140
 1637SOL     OW 4924   3.136   0.386   3.124
 1637SOL    HW1 4925   3.157   0.460   3.188
 1637SOL    HW2 4926   3.047   0.403   3.081
 1638SOL     OW 4927   1.926   1.564   3.193
 1638SOL    HW1 4928   1.880   1.646   3.159
 1638SOL    HW2 4929   2.024   1.583   3.202
 1639SOL     OW 4930   2.229   1.100   2.363
 1639SOL    HW1 4931   2.222   1.183   2.307
 1639SOL    HW2 4932   2.233   1.020   2.303
 1640SOL     OW 4933   2.428   0.537   2.727
 1640SOL    HW1 4934   2.440   0.603   2.653
 1640SOL    HW2 4935   2.474   0.571   2.810
 1641SOL     OW 4936   3.114   1.348   2.250
 1641SOL    HW1 4937   3.164   1.425   2.290
 1641SOL    HW2 4938   3.019   1.350   2.282
 1642SOL     OW 4939   3.134   1.445   3.004
 1642SOL    HW1 4940   3.181   1.458   3.091
 1642SOL    HW2 4941   3.068   1.371   3.013
 1643SOL     OW 4942   3.444   0.639   2.334
 1643SOL    HW1 4943   3.413   0.700   2.407
 1643SOL    HW2 4944   3.494   0.691   2.265
 1644SOL     OW 4945   2.216   1.510   3.191
 1644SOL    HW1 4946   2.195   1.466   3.104
 1644SOL    HW2 4947   2.313   1.536   3.194
 1645SOL     OW 4948   2.264   0.751   3.460
 1645SOL    HW1 4949   2.332   0.806   3.413
 1645SOL    HW2 4950   2.304   0.663   3.487
 1646SOL     OW 4951   3.449   0.779   3.532
 1646SOL    HW1 4952   3.357   0.817   3.527
 1646SOL    HW2 4953   3.509   0.826   3.467
 1647SOL     OW 4954   2.875   0.105   3.632
 1647SOL    HW1 4955   2.881   0.190   3.580
 1647SOL    HW2 4956   2.907   0.029   3.575
 1648SOL     OW 4957   2.366   0.050   3.602
 1648SOL    HW1 4958   2.324  -0.007   3.532
 1648SOL    HW2 4959   2.300   0.119   3.634
 1649SOL     OW 4960   2.435   0.870   2.891
 1649SOL    HW1 4961   2.479   0.959   2.882
 1649SOL    HW2 4962   2.372   0.870   2.968
 1650SOL     OW 4963   3.222   0.862   2.907
 1650SOL    HW1 4964   3.147   0.862   2.841
 1650SOL    HW2 4965   3.259   0.770   2.916
 1651SOL     OW 4966   3.071   0.525   2.137
 1651SOL    HW1 4967   3.084   0.441   2.191
 1651SOL    HW2 4968   3.042   0.599   2.197
 1652SOL     OW 4969   2.169   0.213   3.093
 1652SOL    HW1 4970   2.146   0.250   3.183
 1652SOL    HW2 4971   2.139   0.118   3.087
 1653SOL     OW 4972   1.899   1.310   3.144
 1653SOL    HW1 4973   1.952   1.261   3.212
 1653SOL    HW2 4974   1.921   1.408   3.149
 1654SOL     OW 4975   2.594   0.634   2.926
 1654SOL    HW1 4976   2.653   0.608   2.850
 1654SOL    HW2 4977   2.566   0.730   2.915
 1655SOL     OW 4978   3.590   0.935   3.716
 1655SOL    HW1 4979   3.544   0.928   3.627
 1655SOL    HW2 4980   3.528   0.979   3.782
 1656SOL     OW 4981   2.169   0.063   2.480
 1656SOL    HW1 4982   2.158   0.157   2.513
 1656SOL    HW2 4983   2.164   0.000   2.557
 1657SOL     OW 4984   3.484   0.367   2.236
 1657SOL    HW1 4985   3.486   0.291   2.300
 1657SOL    HW2 4986   3.436   0.444   2.276
 1658SOL     OW 4987   2.885   0.766   2.828
 1658SOL    HW1 4988   2.900   0.787   2.924
 1658SOL    HW2 4989   2.855   0.671   2.819
 1659SOL     OW 4990   2.842   1.573   3.562
 1659SOL    HW1 4991   2.822   1.617   3.474
 1659SOL    HW2 4992   2.881   1.482   3.546
 1660SOL     OW 4993   3.721   1.518   3.467
 1660SOL    HW1 4994   3.735   1.545   3.372
 1660SOL    HW2 4995   3.804   1.540   3.520
 1661SOL     OW 4996   2.212   0.898   3.666
 1661SOL    HW1 4997   2.288   0.942   3.714
 1661SOL    HW2 4998   2.247   0.851   3.584
 1662SOL     OW 4999   3.402   0.274   1.987
 1662SOL    HW1 5000   3.341   0.199   2.010
 1662SOL    HW2 5001   3.424   0.326   2.070
 1663SOL     OW 5002   3.165   0.838   1.904
 1663SOL    HW1 5003   3.199   0.745   1.919
 1663SOL    HW2 5004   3.183   0.865   1.809
 1664SOL     OW 5005   2.930   1.333   2.711
 1664SOL    HW1 5006   2.937   1.249   2.656
 1664SOL    HW2 5007   2.992   1.402   2.675
 1665SOL     OW 5008   2.181   0.810   2.811
 1665SOL    HW1 5009   2.274   0.846   2.816
 1665SOL    HW2 5010   2.175   0.725   2.863
 1666SOL     OW 5011   2.201   0.509   2.868
 1666SOL    HW1 5012   2.149   0.426   2.851
 1666SOL    HW2 5013   2.278   0.514   2.804
 1667SOL     OW 5014   3.000   0.380   3.540
 1667SOL    HW1 5015   2.955   0.443   3.604
 1667SOL    HW2 5016   3.093   0.411   3.523
 1668SOL     OW 5017   3.022   0.207   3.339
 1668SOL    HW1 5018   3.022   0.271   3.416
 1668SOL    HW2 5019   3.050   0.255   3.256
 1669SOL     OW 5020   1.870   1.326   2.062
 1669SOL    HW1 5021   1.777   1.347   2.031
 1669SOL    HW2 5022   1.880   1.227   2.075
 1670SOL     OW 5023   1.950   1.801   2.789
 1670SOL    HW1 5024   1.908   1.715   2.762
 1670SOL    HW2 5025   2.044   1.804   2.755
 1671SOL     OW 5026   2.366   1.568   2.772
 1671SOL    HW1 5027   2.432   1.642   2.781
 1671SOL    HW2 5028   2.410   1.489   2.730
 1672SOL     OW 5029   2.864   0.796   3.100
 1672SOL    HW1 5030   2.905   0.764   3.186
 1672SOL    HW2 5031   2.768   0.769   3.097
 1673SOL     OW 5032   1.902   0.544   2.976
 1673SOL    HW1 5033   1.987   0.511   2.935
 1673SOL    HW2 5034   1.915   0.559   3.074
 1674SOL     OW 5035   2.051   0.520   3.584
 1674SOL    HW1 5036   2.110   0.480   3.514
 1674SOL    HW2 5037   1.993   0.591   3.543
 1675SOL     OW 5038   3.231   0.950   3.522
 1675SOL    HW1 5039   3.270   1.039   3.542
 1675SOL    HW2 5040   3.241   0.930   3.425
 1676SOL     OW 5041   2.677   0.572   2.187
 1676SOL    HW1 5042   2.684   0.483   2.141
 1676SOL    HW2 5043   2.583   0.606   2.179
 1677SOL     OW 5044   3.519   0.604   3.068
 1677SOL    HW1 5045   3.481   0.535   3.130
 1677SOL    HW2 5046   3.601   0.568   3.024
 1678SOL     OW 5047   2.114   1.564   3.606
 1678SOL    HW1 5048   2.084   1.621   3.682
 1678SOL    HW2 5049   2.107   1.467   3.632
 1679SOL     OW 5050   2.533   0.464   3.131
 1679SOL    HW1 5051   2.499   0.375   3.101
 1679SOL    HW2 5052   2.559   0.518   3.051
 1680SOL     OW 5053   2.792   1.678   3.327
 1680SOL    HW1 5054   2.768   1.660   3.232
 1680SOL    HW2 5055   2.822   1.772   3.337
 1681SOL     OW 5056   2.335   0.500   2.053
 1681SOL    HW1 5057   2.396   0.580   2.057
 1681SOL    HW2 5058   2.240   0.531   2.060
 1682SOL     OW 5059   2.021   1.137   3.328
 1682SOL    HW1 5060   2.043   1.076   3.404
 1682SOL    HW2 5061   2.031   1.088   3.242
 1683SOL     OW 5062   3.209   1.059   3.096
 1683SOL    HW1 5063   3.233   0.996   3.022
 1683SOL    HW2 5064   3.119   1.099   3.078
 1684SOL     OW 5065   3.164   0.855   2.171
 1684SOL    HW1 5066   3.078   0.824   2.213
 1684SOL    HW2 5067   3.160   0.841   2.072
 1685SOL     OW 5068   3.621   1.747   3.016
 1685SOL    HW1 5069   3.682   1.777   2.943
 1685SOL    HW2 5070   3.583   1.658   2.994
 1686SOL     OW 5071   3.114   1.731   2.990
 1686SOL    HW1 5072   3.198   1.736   2.936
 1686SOL    HW2 5073   3.091   1.635   3.008
 1687SOL     OW 5074   1.945   1.258   2.884
 1687SOL    HW1 5075   1.940   1.257   2.984
 1687SOL    HW2 5076   1.862   1.217   2.846
 1688SOL     OW 5077   2.550   1.662   3.578
 1688SOL    HW1 5078   2.494   1.743   3.587
 1688SOL    HW2 5079   2.602   1.666   3.492
 1689SOL     OW 5080   3.588   0.135   2.385
 1689SOL    HW1 5081   3.661   0.118   2.318
 1689SOL    HW2 5082   3.557   0.048   2.423
 1690SOL     OW 5083   3.250   1.573   2.339
 1690SOL    HW1 5084   3.317   1.585   2.265
 1690SOL    HW2 5085   3.210   1.662   2.362
 1691SOL     OW 5086   1.992   1.794   3.713
 1691SOL    HW1 5087   1.951   1.720   3.766
 1691SOL    HW2 5088   2.056   1.845   3.771
 1692SOL     OW 5089   3.142   0.927   2.534
 1692SOL    HW1 5090   3.202   0.846   2.536
 1692SOL    HW2 5091   3.182   0.996   2.474
 1693SOL     OW 5092   2.692   1.273   3.284
 1693SOL    HW1 5093   2.687   1.306   3.379
 1693SOL    HW2 5094   2.606   1.292   3.238
 1694SOL     OW 5095   2.534   1.616   2.016
 1694SOL    HW1 5096   2.543   1.626   1.917
 1694SOL    HW2 5097   2.494   1.527   2.037
 1695SOL     OW 5098   3.512   1.720   3.256
 1695SOL    HW1 5099   3.565   1.730   3.172
 1695SOL    HW2 5100   3.485   1.810   3.290
 1696SOL     OW 5101   3.703   0.175   2.825
 1696SOL    HW1 5102   3.742   0.090   2.789
 1696SOL    HW2 5103   3.605   0.177   2.806
 1697SOL     OW 5104   2.125   0.326   2.582
 1697SOL    HW1 5105   2.046   0.377   2.548
 1697SOL    HW2 5106   2.116   0.311   2.680
 1698SOL     OW 5107   3.056   1.612   1.893
 1698SOL    HW1 5108   3.062   1.519   1.930
 1698SOL    HW2 5109   2.997   1.612   1.813
 1699SOL     OW 5110   2.684   1.002   3.234
 1699SOL    HW1 5111   2.724   1.001   3.142
 1699SOL    HW2 5112   2.694   1.094   3.274
 1700SOL     OW 5113   2.778   0.910   2.153
 1700SOL    HW1 5114   2.841   0.948   2.085
 1700SOL    HW2 5115   2.818   0.827   2.192
 1701SOL     OW 5116   3.366   1.607   1.906
 1701SOL    HW1 5117   3.274   1.644   1.913
 1701SOL    HW2 5118   3.404   1.627   1.816
 1702SOL     OW 5119   2.234   1.288   3.352
 1702SOL    HW1 5120   2.221   1.381   3.318
 1702SOL    HW2 5121   2.150   1.236   3.339
 1703SOL     OW 5122   3.476   1.292   3.151
 1703SOL    HW1 5123   3.536   1.295   3.231
 1703SOL    HW2 5124   3.401   1.356   3.164
 1704SOL     OW 5125   2.901   1.098   2.558
 1704SOL    HW1 5126   2.831   1.051   2.612
 1704SOL    HW2 5127   2.960   1.030   2.515
 1705SOL     OW 5128   2.876   0.236   2.833
 1705SOL    HW1 5129   2.868   0.200   2.740
 1705SOL    HW2 5130   2.874   0.160   2.898
 1706SOL     OW 5131   2.452   1.487   2.353
 1706SOL    HW1 5132   2.494   1.429   2.283
 1706SOL    HW2 5133   2.408   1.566   2.309
 1707SOL     OW 5134   3.571   0.385   3.243
 1707SOL    HW1 5135   3.644   0.454   3.247
 1707SOL    HW2 5136   3.599   0.310   3.184
 1708SOL     OW 5137   2.117   1.348   2.152
 1708SOL    HW1 5138   2.021   1.349   2.125
 1708SOL    HW2 5139   2.129   1.401   2.236
 1709SOL     OW 5140   1.967   1.013   3.588
 1709SOL    HW1 5141   1.890   0.980   3.642
 1709SOL    HW2 5142   2.052   0.983   3.630
 1710SOL     OW 5143   2.534   0.203   3.351
 1710SOL    HW1 5144   2.624   0.187   3.311
 1710SOL    HW2 5145   2.542   0.208   3.450
 1711SOL     OW 5146   1.937   0.345   1.895
 1711SOL    HW1 5147   1.845   0.317   1.866
 1711SOL    HW2 5148   1.968   0.422   1.839
 1712SOL     OW 5149   3.302   0.856   3.260
 1712SOL    HW1 5150   3.245   0.908   3.197
 1712SOL    HW2 5151   3.398   0.868   3.236
 1713SOL     OW 5152   1.934   0.166   2.180
 1713SOL    HW1 5153   1.917   0.249   2.126
 1713SOL    HW2 5154   2.024   0.129   2.158
 1714SOL     OW 5155   3.045   1.335   1.981
 1714SOL    HW1 5156   2.946   1.324   1.983
 1714SOL    HW2 5157   3.079   1.350   2.074
 1715SOL     OW 5158   2.475   0.842   3.293
 1715SOL    HW1 5159   2.531   0.923   3.276
 1715SOL    HW2 5160   2.534   0.762   3.296
 1716SOL     OW 5161   3.355   1.767   2.821
 1716SOL    HW1 5162   3.388   1.831   2.752
 1716SOL    HW2 5163   3.421   1.761   2.896
 1717SOL     OW 5164   2.578   0.565   3.570
 1717SOL    HW1 5165   2.597   0.630   3.644
 1717SOL    HW2 5166   2.638   0.485   3.579
 1718SOL     OW 5167   3.312   1.220   3.495
 1718SOL    HW1 5168   3.303   1.210   3.594
 1718SOL    HW2 5169   3.408   1.213   3.469
 1719SOL     OW 5170   2.252   1.741   3.422
 1719SOL    HW1 5171   2.161   1.782   3.420
 1719SOL    HW2 5172   2.245   1.647   3.454
 1720SOL     OW 5173   3.536   0.883   3.116
 1720SOL    HW1 5174   3.509   0.794   3.079
 1720SOL    HW2 5175   3.537   0.951   3.043
 1721SOL     OW 5176   3.087   0.325   2.311
 1721SOL    HW1 5177   3.152   0.251   2.300
 1721SOL    HW2 5178   3.107   0.375   2.395
 1722SOL     OW 5179   2.456   0.745   2.514
 1722SOL    HW1 5180   2.506   0.830   2.495
 1722SOL    HW2 5181   2.368   0.747   2.466
 1723SOL     OW 5182   3.639   0.342   3.504
 1723SOL    HW1 5183   3.622   0.373   3.410
 1723SOL    HW2 5184   3.555   0.305   3.542
 1724SOL     OW 5185   3.592   0.934   3.379
 1724SOL    HW1 5186   3.630   1.025   3.394
 1724SOL    HW2 5187   3.584   0.917   3.280
 1725SOL     OW 5188   2.721   1.374   1.878
 1725SOL    HW1 5189   2.675   1.389   1.966
 1725SOL    HW2 5190   2.765   1.459   1.848
 1726SOL     OW 5191   2.523   1.790   2.815
 1726SOL    HW1 5192   2.477   1.878   2.802
 1726SOL    HW2 5193   2.622   1.802   2.808
 1727SOL     OW 5194   2.721   0.956   2.723
 1727SOL    HW1 5195   2.775   0.887   2.771
 1727SOL    HW2 5196   2.689   1.025   2.789
 1728SOL     OW 5197   2.945   0.984   1.949
 1728SOL    HW1 5198   2.922   1.037   1.867
 1728SOL    HW2 5199   3.026   0.928   1.930
 1729SOL     OW 5200   3.723   1.569   2.713
 1729SOL    HW1 5201   3.652   1.557   2.643
 1729SOL    HW2 5202   3.724   1.490   2.773
 1730SOL     OW 5203   2.083   1.314   3.706
 1730SOL    HW1 5204   2.018   1.241   3.685
 1730SOL    HW2 5205   2.087   1.328   3.804
 1731SOL     OW 5206   1.941   1.240   2.515
 1731SOL    HW1 5207   1.940   1.193   2.603
 1731SOL    HW2 5208   2.023   1.212   2.464
 1732SOL     OW 5209   2.534   1.391   3.486
 1732SOL    HW1 5210   2.456   1.341   3.524
 1732SOL    HW2 5211   2.531   1.486   3.517
 1733SOL     OW 5212   3.686   0.192   3.089
 1733SOL    HW1 5213   3.682   0.102   3.133
 1733SOL    HW2 5214   3.689   0.181   2.990
 1734SOL     OW 5215   2.290   0.424   2.382
 1734SOL    HW1 5216   2.320   0.352   2.320
 1734SOL    HW2 5217   2.251   0.384   2.465
 1735SOL     OW 5218   3.567   1.487   2.966
 1735SOL    HW1 5219   3.474   1.462   2.939
 1735SOL    HW2 5220   3.593   1.437   3.048
 1736SOL     OW 5221   2.179   0.547   3.142
 1736SOL    HW1 5222   2.217   0.488   3.214
 1736SOL    HW2 5223   2.219   0.521   3.054
 1737SOL     OW 5224   2.674   1.586   2.549
 1737SOL    HW1 5225   2.706   1.596   2.455
 1737SOL    HW2 5226   2.595   1.524   2.551
 1738SOL     OW 5227   3.286   0.214   2.974
 1738SOL    HW1 5228   3.338   0.149   3.029
 1738SOL    HW2 5229   3.237   0.277   3.035
 1739SOL     OW 5230   2.863   0.034   3.016
 1739SOL    HW1 5231   2.800  -0.038   2.985
 1739SOL    HW2 5232   2.956  -0.002   3.016
 1740SOL     OW 5233   2.632   1.330   2.163
 1740SOL    HW1 5234   2.586   1.243   2.180
 1740SOL    HW2 5235   2.723   1.327   2.204
 1741SOL     OW 5236   2.480   1.567   3.146
 1741SOL    HW1 5237   2.475   1.649   3.203
 1741SOL    HW2 5238   2.569   1.564   3.101
 1742SOL     OW 5239   3.214   0.052   2.030
 1742SOL    HW1 5240   3.249   0.011   1.946
 1742SOL    HW2 5241   3.124   0.014   2.050
 1743SOL     OW 5242   3.162   0.453   2.553
 1743SOL    HW1 5243   3.103   0.533   2.557
 1743SOL    HW2 5244   3.177   0.418   2.646
 1744SOL     OW 5245   3.455   0.221   2.744
 1744SOL    HW1 5246   3.371   0.220   2.798
 1744SOL    HW2 5247   3.457   0.304   2.688
 1745SOL     OW 5248   1.901   1.077   2.162
 1745SOL    HW1 5249   2.000   1.066   2.153
 1745SOL    HW2 5250   1.861   0.991   2.194
 1746SOL     OW 5251   2.737   1.646   2.199
 1746SOL    HW1 5252   2.660   1.611   2.145
 1746SOL    HW2 5253   2.705   1.717   2.261
 1747SOL     OW 5254   2.092   0.628   3.837
 1747SOL    HW1 5255   1.999   0.626   3.874
 1747SOL    HW2 5256   2.093   0.589   3.745
 1748SOL     OW 5257   2.087   0.275   4.720
 1748SOL    HW1 5258   2.122   0.258   4.812
 1748SOL    HW2 5259   1.999   0.230   4.708
 1749SOL     OW 5260   1.881   0.368   4.371
 1749SOL    HW1 5261   1.799   0.411   4.410
 1749SOL    HW2 5262   1.853   0.295   4.308
 1750SOL     OW 5263   3.417   1.511   4.427
 1750SOL    HW1 5264   3.360   1.495   4.508
 1750SOL    HW2 5265   3.358   1.521   4.347
 1751SOL     OW 5266   2.997   0.703   4.441
 1751SOL    HW1 5267   3.054   0.781   4.416
 1751SOL    HW2 5268   2.937   0.729   4.517
 1752SOL     OW 5269   3.617   0.607   3.955
 1752SOL    HW1 5270   3.605   0.594   3.856
 1752SOL    HW2 5271   3.587   0.526   4.004
 1753SOL     OW 5272   2.547   1.012   4.389
 1753SOL    HW1 5273   2.616   0.996   4.459
 1753SOL    HW2 5274   2.474   1.069   4.427
 1754SOL     OW 5275   3.465   0.447   4.461
 1754SOL    HW1 5276   3.391   0.493   4.411
 1754SOL    HW2 5277   3.516   0.515   4.514
 1755SOL     OW 5278   2.093   1.713   4.207
 1755SOL    HW1 5279   2.127   1.790   4.261
 1755SOL    HW2 5280   2.137   1.713   4.117
 1756SOL     OW 5281   2.092   1.434   4.262
 1756SOL    HW1 5282   2.066   1.530   4.262
 1756SOL    HW2 5283   2.021   1.380   4.307
 1757SOL     OW 5284   2.102   1.091   4.610
 1757SOL    HW1 5285   2.116   1.007   4.662
 1757SOL    HW2 5286   2.047   1.155   4.665
 1758SOL     OW 5287   2.468   0.964   3.847
 1758SOL    HW1 5288   2.475   1.048   3.793
 1758SOL    HW2 5289   2.514   0.977   3.935
 1759SOL     OW 5290   1.984   0.643   4.287
 1759SOL    HW1 5291   1.939   0.555   4.304
 1759SOL    HW2 5292   1.983   0.697   4.371
 1760SOL     OW 5293   3.704   1.767   4.083
 1760SOL    HW1 5294   3.758   1.738   4.163
 1760SOL    HW2 5295   3.734   1.857   4.054
 1761SOL     OW 5296   1.889   1.596   3.841
 1761SOL    HW1 5297   1.870   1.500   3.862
 1761SOL    HW2 5298   1.856   1.654   3.916
 1762SOL     OW 5299   3.551   0.922   4.336
 1762SOL    HW1 5300   3.646   0.893   4.344
 1762SOL    HW2 5301   3.543   0.987   4.261
 1763SOL     OW 5302   3.503   1.108   4.156
 1763SOL    HW1 5303   3.589   1.110   4.104
 1763SOL    HW2 5304   3.517   1.155   4.244
 1764SOL     OW 5305   2.475   1.365   4.450
 1764SOL    HW1 5306   2.426   1.278   4.459
 1764SOL    HW2 5307   2.452   1.408   4.363
 1765SOL     OW 5308   2.671   0.004   4.226
 1765SOL    HW1 5309   2.711   0.095   4.217
 1765SOL    HW2 5310   2.571   0.012   4.232
 1766SOL     OW 5311   3.387   0.999   3.914
 1766SOL    HW1 5312   3.324   0.923   3.927
 1766SOL    HW2 5313   3.435   1.017   4.000
 1767SOL     OW 5314   3.328   1.417   4.677
 1767SOL    HW1 5315   3.269   1.423   4.757
 1767SOL    HW2 5316   3.313   1.329   4.631
 1768SOL     OW 5317   3.529   1.714   4.296
 1768SOL    HW1 5318   3.488   1.691   4.208
 1768SOL    HW2 5319   3.511   1.640   4.361
 1769SOL     OW 5320   2.460   0.729   3.994
 1769SOL    HW1 5321   2.484   0.798   3.926
 1769SOL    HW2 5322   2.382   0.762   4.048
 1770SOL     OW 5323   3.143   0.345   4.668
 1770SOL    HW1 5324   3.057   0.295   4.655
 1770SOL    HW2 5325   3.205   0.291   4.724
 1771SOL     OW 5326   3.438   1.662   4.031
 1771SOL    HW1 5327   3.527   1.708   4.034
 1771SOL    HW2 5328   3.417   1.638   3.936
 1772SOL     OW 5329   2.903   0.701   4.153
 1772SOL    HW1 5330   2.929   0.697   4.249
 1772SOL    HW2 5331   2.818   0.650   4.139
 1773SOL     OW 5332   1.938   0.811   4.513
 1773SOL    HW1 5333   2.037   0.799   4.522
 1773SOL    HW2 5334   1.914   0.906   4.534
 1774SOL     OW 5335   2.727   0.348   3.919
 1774SOL    HW1 5336   2.786   0.411   3.870
 1774SOL    HW2 5337   2.746   0.254   3.890
 1775SOL     OW 5338   3.224   1.144   4.269
 1775SOL    HW1 5339   3.307   1.115   4.221
 1775SOL    HW2 5340   3.175   1.211   4.213
 1776SOL     OW 5341   2.870   1.456   4.201
 1776SOL    HW1 5342   2.824   1.528   4.149
 1776SOL    HW2 5343   2.866   1.476   4.299
 1777SOL     OW 5344   2.213   1.801   4.577
 1777SOL    HW1 5345   2.263   1.715   4.583
 1777SOL    HW2 5346   2.278   1.878   4.574
 1778SOL     OW 5347   3.657   1.066   4.597
 1778SOL    HW1 5348   3.595   1.051   4.521
 1778SOL    HW2 5349   3.605   1.077   4.682
 1779SOL     OW 5350   2.183   0.943   3.966
 1779SOL    HW1 5351   2.265   0.982   3.924
 1779SOL    HW2 5352   2.156   0.861   3.917
 1780SOL     OW 5353   3.320   0.735   4.452
 1780SOL    HW1 5354   3.315   0.670   4.527
 1780SOL    HW2 5355   3.400   0.794   4.465
 1781SOL     OW 5356   2.973   1.776   3.961
 1781SOL    HW1 5357   2.913   1.714   4.011
 1781SOL    HW2 5358   3.004   1.732   3.876
 1782SOL     OW 5359   3.494   1.377   3.805
 1782SOL    HW1 5360   3.462   1.471   3.795
 1782SOL    HW2 5361   3.418   1.314   3.793
 1783SOL     OW 5362   2.326   1.743   4.047
 1783SOL    HW1 5363   2.359   1.782   4.133
 1783SOL    HW2 5364   2.402   1.736   3.982
 1784SOL     OW 5365   3.262   0.107   4.150
 1784SOL    HW1 5366   3.238   0.070   4.060
 1784SOL    HW2 5367   3.361   0.123   4.154
 1785SOL     OW 5368   2.244   0.700   4.204
 1785SOL    HW1 5369   2.289   0.610   4.201
 1785SOL    HW2 5370   2.150   0.689   4.237
 1786SOL     OW 5371   2.476   0.122   3.841
 1786SOL    HW1 5372   2.574   0.100   3.848
 1786SOL    HW2 5373   2.445   0.105   3.748
 1787SOL     OW 5374   2.401   0.064   4.236
 1787SOL    HW1 5375   2.320   0.065   4.294
 1787SOL    HW2 5376   2.404   0.147   4.181
 1788SOL     OW 5377   3.296   1.188   3.765
 1788SOL    HW1 5378   3.328   1.112   3.822
 1788SOL    HW2 5379   3.204   1.215   3.795
 1789SOL     OW 5380   2.159   0.035   3.895
 1789SOL    HW1 5381   2.208   0.119   3.874
 1789SOL    HW2 5382   2.221  -0.030   3.940
 1790SOL     OW 5383   2.797   0.236   4.204
 1790SOL    HW1 5384   2.749   0.277   4.126
 1790SOL    HW2 5385   2.896   0.234   4.185
 1791SOL     OW 5386   3.089   1.570   4.517
 1791SOL    HW1 5387   3.110   1.644   4.452
 1791SOL    HW2 5388   3.157   1.570   4.590
 1792SOL     OW 5389   2.321   1.152   4.465
 1792SOL    HW1 5390   2.250   1.125   4.530
 1792SOL    HW2 5391   2.295   1.124   4.372
 1793SOL     OW 5392   3.133   1.797   4.315
 1793SOL    HW1 5393   3.177   1.861   4.251
 1793SOL    HW2 5394   3.083   1.849   4.385
 1794SOL     OW 5395   2.894   0.549   3.740
 1794SOL    HW1 5396   2.853   0.631   3.701
 1794SOL    HW2 5397   2.958   0.575   3.813
 1795SOL     OW 5398   2.728   0.454   4.366
 1795SOL    HW1 5399   2.696   0.526   4.304
 1795SOL    HW2 5400   2.752   0.373   4.313
 1796SOL     OW 5401   2.879   0.039   4.477
 1796SOL    HW1 5402   2.807   0.044   4.408
 1796SOL    HW2 5403   2.855  -0.030   4.546
 1797SOL     OW 5404   3.719   0.833   4.101
 1797SOL    HW1 5405   3.761   0.769   4.165
 1797SOL    HW2 5406   3.681   0.782   4.023
 1798SOL     OW 5407   2.350   1.385   3.898
 1798SOL    HW1 5408   2.263   1.370   3.945
 1798SOL    HW2 5409   2.333   1.411   3.803
 1799SOL     OW 5410   3.526   1.280   4.381
 1799SOL    HW1 5411   3.625   1.288   4.395
 1799SOL    HW2 5412   3.481   1.364   4.412
 1800SOL     OW 5413   3.252   0.575   3.802
 1800SOL    HW1 5414   3.198   0.554   3.883
 1800SOL    HW2 5415   3.343   0.534   3.811
 1801SOL     OW 5416   2.389   0.256   4.052
 1801SOL    HW1 5417   2.416   0.197   3.977
 1801SOL    HW2 5418   2.389   0.351   4.021
 1802SOL     OW 5419   2.567   1.050   4.092
 1802SOL    HW1 5420   2.553   1.057   4.191
 1802SOL    HW2 5421   2.651   0.999   4.074
 1803SOL     OW 5422   2.229   1.100   4.225
 1803SOL    HW1 5423   2.222   1.183   4.169
 1803SOL    HW2 5424   2.233   1.020   4.165
 1804SOL     OW 5425   2.428   0.537   4.589
 1804SOL    HW1 5426   2.440   0.603   4.515
 1804SOL    HW2 5427   2.474   0.571   4.672
 1805SOL     OW 5428   3.114   1.348   4.112
 1805SOL    HW1 5429   3.164   1.425   4.152
 1805SOL    HW2 5430   3.019   1.350   4.144
 1806SOL     OW 5431   3.444   0.639   4.196
 1806SOL    HW1 5432   3.413   0.700   4.269
 1806SOL    HW2 5433   3.494   0.691   4.127
 1807SOL     OW 5434   3.071   0.525   3.999
 1807SOL    HW1 5435   3.084   0.441   4.053
 1807SOL    HW2 5436   3.042   0.599   4.059
 1808SOL     OW 5437   2.594   0.634   4.788
 1808SOL    HW1 5438   2.653   0.608   4.712
 1808SOL    HW2 5439   2.566   0.730   4.777
 1809SOL     OW 5440   2.169   0.063   4.342
 1809SOL    HW1 5441   2.158   0.157   4.375
 1809SOL    HW2 5442   2.164   0.000   4.419
 1810SOL     OW 5443   3.484   0.367   4.098
 1810SOL    HW1 5444   3.486   0.291   4.162
 1810SOL    HW2 5445   3.436   0.444   4.138
 1811SOL     OW 5446   3.402   0.274   3.849
 1811SOL    HW1 5447   3.341   0.199   3.872
 1811SOL    HW2 5448   3.424   0.326   3.932
 1812SOL     OW 5449   3.165   0.838   3.766
 1812SOL    HW1 5450   3.199   0.745   3.781
 1812SOL    HW2 5451   3.183   0.865   3.671
 1813SOL     OW 5452   2.930   1.333   4.573
 1813SOL    HW1 5453   2.937   1.249   4.518
 1813SOL    HW2 5454   2.992   1.402   4.537
 1814SOL     OW 5455   1.870   1.326   3.924
 1814SOL    HW1 5456   1.777   1.347   3.893
 1814SOL    HW2 5457   1.880   1.227   3.937
 1815SOL     OW 5458   1.950   1.801   4.651
 1815SOL    HW1 5459   1.908   1.715   4.624
 1815SOL    HW2 5460   2.044   1.804   4.617
 1816SOL     OW 5461   2.366   1.568   4.634
 1816SOL    HW1 5462   2.432   1.642   4.643
 1816SOL    HW2 5463   2.410   1.489   4.592
 1817SOL     OW 5464   2.677   0.572   4.049
 1817SOL    HW1 5465   2.684   0.483   4.003
 1817SOL    HW2 5466   2.583   0.606   4.041
 1818SOL     OW 5467   2.335   0.500   3.915
 1818SOL    HW1 5468   2.396   0.580   3.919
 1818SOL    HW2 5469   2.240   0.531   3.922
 1819SOL     OW 5470   3.164   0.855   4.033
 1819SOL    HW1 5471   3.078   0.824   4.075
 1819SOL    HW2 5472   3.160   0.841   3.934
 1820SOL     OW 5473   3.588   0.135   4.247
 1820SOL    HW1 5474   3.661   0.118   4.180
 1820SOL    HW2 5475   3.557   0.048   4.285
 1821SOL     OW 5476   3.250   1.573   4.201
 1821SOL    HW1 5477   3.317   1.585   4.127
 1821SOL    HW2 5478   3.210   1.662   4.224
 1822SOL     OW 5479   3.142   0.927   4.396
 1822SOL    HW1 5480   3.202   0.846   4.398
 1822SOL    HW2 5481   3.182   0.996   4.336
 1823SOL     OW 5482   2.534   1.616   3.878
 1823SOL    HW1 5483   2.543   1.626   3.779
 1823SOL    HW2 5484   2.494   1.527   3.899
 1824SOL     OW 5485   3.703   0.175   4.687
 1824SOL    HW1 5486   3.742   0.090   4.651
 1824SOL    HW2 5487   3.605   0.177   4.668
 1825SOL     OW 5488   2.125   0.326   4.444
 1825SOL    HW1 5489   2.046   0.377   4.410
 1825SOL    HW2 5490   2.116   0.311   4.542
 1826SOL     OW 5491   3.056   1.612   3.755
 1826SOL    HW1 5492   3.062   1.519   3.792
 1826SOL    HW2 5493   2.997   1.612   3.675
 1827SOL     OW 5494   2.778   0.910   4.015
 1827SOL    HW1 5495   2.841   0.948   3.947
 1827SOL    HW2 5496   2.818   0.827   4.054
 1828SOL     OW 5497   3.366   1.607   3.768
 1828SOL    HW1 5498   3.274   1.644   3.775
 1828SOL    HW2 5499   3.404   1.627   3.678
 1829SOL     OW 5500   2.901   1.098   4.420
 1829SOL    HW1 5501   2.831   1.051   4.474
 1829SOL    HW2 5502   2.960   1.030   4.377
 1830SOL     OW 5503   2.452   1.487   4.215
 1830SOL    HW1 5504   2.494   1.429   4.145
 1830SOL    HW2 5505   2.408   1.566   4.171
 1831SOL     OW 5506   2.117   1.348   4.014
 1831SOL    HW1 5507   2.021   1.349   3.987
 1831SOL    HW2 5508   2.129   1.401   4.098
 1832SOL     OW 5509   1.937   0.345   3.757
 1832SOL    HW1 5510   1.845   0.317   3.728
 1832SOL    HW2 5511   1.968   0.422   3.701
 1833SOL     OW 5512   1.934   0.166   4.042
 1833SOL    HW1 5513   1.917   0.249   3.988
 1833SOL    HW2 5514   2.024   0.129   4.020
 1834SOL     OW 5515   3.045   1.335   3.843
 1834SOL    HW1 5516   2.946   1.324   3.845
 1834SOL    HW2 5517   3.079   1.350   3.936
 1835SOL     OW 5518   3.087   0.325   4.173
 1835SOL    HW1 5519   3.152   0.251   4.162
 1835SOL    HW2 5520   3.107   0.375   4.257
 1836SOL     OW 5521   2.456   0.745   4.376
 1836SOL    HW1 5522   2.506   0.830   4.357
 1836SOL    HW2 5523   2.368   0.747   4.328
 1837SOL     OW 5524   2.721   1.374   3.740
 1837SOL    HW1 5525   2.675   1.389   3.828
 1837SOL    HW2 5526   2.765   1.459   3.710
 1838SOL     OW 5527   2.523   1.790   4.677
 1838SOL    HW1 5528   2.477   1.878   4.664
 1838SOL    HW2 5529   2.622   1.802   4.670
 1839SOL     OW 5530   2.721   0.956   4.585
 1839SOL    HW1 5531   2.775   0.887   4.633
 1839SOL    HW2 5532   2.689   1.025   4.651
 1840SOL     OW 5533   2.945   0.984   3.811
 1840SOL    HW1 5534   2.922   1.037   3.729
 1840SOL    HW2 5535   3.026   0.928   3.792
 1841SOL     OW 5536   3.723   1.569   4.575
 1841SOL    HW1 5537   3.652   1.557   4.505
 1841SOL    HW2 5538   3.724   1.490   4.635
 1842SOL     OW 5539   1.941   1.240   4.377
 1842SOL    HW1 5540   1.940   1.193   4.465
 1842SOL    HW2 5541   2.023   1.212   4.326
 1843SOL     OW 5542   3.686   0.192   4.951
 1843SOL    HW1 5543   3.682   0.102   4.995
 1843SOL    HW2 5544   3.689   0.181   4.852
 1844SOL     OW 5545   2.290   0.424   4.244
 1844SOL    HW1 5546   2.320   0.352   4.182
 1844SOL    HW2 5547   2.251   0.384   4.327
 1845SOL     OW 5548   2.674   1.586   4.411
 1845SOL    HW1 5549   2.706   1.596   4.317
 1845SOL    HW2 5550   2.595   1.524   4.413
 1846SOL     OW 5551   2.632   1.330   4.025
 1846SOL    HW1 5552   2.586   1.243   4.042
 1846SOL    HW2 5553   2.723   1.327   4.066
 1847SOL     OW 5554   3.214   0.052   3.892
 1847SOL    HW1 5555   3.249   0.011   3.808
 1847SOL    HW2 5556   3.124   0.014   3.912
 1848SOL     OW 5557   3.162   0.453   4.415
 1848SOL    HW1 5558   3.103   0.533   4.419
 1848SOL    HW2 5559   3.177   0.418   4.508
 1849SOL     OW 5560   3.455   0.221   4.606
 1849SOL    HW1 5561   3.371   0.220   4.660
 1849SOL    HW2 5562   3.457   0.304   4.550
 1850SOL     OW 5563   1.901   1.077   4.024
 1850SOL    HW1 5564   2.000   1.066   4.015
 1850SOL    HW2 5565   1.861   0.991   4.056
 1851SOL     OW 5566   2.737   1.646   4.061
 1851SOL    HW1 5567   2.660   1.611   4.007
 1851SOL    HW2 5568   2.705   1.717   4.123
 1852SOL     OW 5569   2.092   2.490   0.113
 1852SOL    HW1 5570   1.999   2.488   0.150
 1852SOL    HW2 5571   2.093   2.451   0.021
 1853SOL     OW 5572   2.087   2.137   0.996
 1853SOL    HW1 5573   2.122   2.120   1.088
 1853SOL    HW2 5574   1.999   2.092   0.984
 1854SOL     OW 5575   1.881   2.230   0.647
 1854SOL    HW1 5576   1.799   2.273   0.686
 1854SOL    HW2 5577   1.853   2.157   0.584
 1855SOL     OW 5578   2.431   3.137   1.165
 1855SOL    HW1 5579   2.338   3.130   1.128
 1855SOL    HW2 5580   2.442   3.226   1.209
 1856SOL     OW 5581   3.417   3.373   0.703
 1856SOL    HW1 5582   3.360   3.357   0.784
 1856SOL    HW2 5583   3.358   3.383   0.623
 1857SOL     OW 5584   2.997   2.565   0.717
 1857SOL    HW1 5585   3.054   2.643   0.692
 1857SOL    HW2 5586   2.937   2.591   0.793
 1858SOL     OW 5587   3.617   2.469   0.231
 1858SOL    HW1 5588   3.605   2.456   0.132
 1858SOL    HW2 5589   3.587   2.388   0.280
 1859SOL     OW 5590   2.630   3.006   1.023
 1859SOL    HW1 5591   2.552   3.023   1.083
 1859SOL    HW2 5592   2.664   3.093   0.987
 1860SOL     OW 5593   2.712   2.660   1.823
 1860SOL    HW1 5594   2.708   2.736   1.888
 1860SOL    HW2 5595   2.734   2.696   1.732
 1861SOL     OW 5596   2.547   2.874   0.665
 1861SOL    HW1 5597   2.616   2.858   0.735
 1861SOL    HW2 5598   2.474   2.931   0.703
 1862SOL     OW 5599   2.548   3.023   1.803
 1862SOL    HW1 5600   2.608   3.102   1.817
 1862SOL    HW2 5601   2.462   3.054   1.762
 1863SOL     OW 5602   2.197   3.297   1.061
 1863SOL    HW1 5603   2.119   3.266   1.008
 1863SOL    HW2 5604   2.255   3.355   1.004
 1864SOL     OW 5605   3.322   3.367   1.339
 1864SOL    HW1 5606   3.346   3.461   1.365
 1864SOL    HW2 5607   3.306   3.313   1.421
 1865SOL     OW 5608   2.300   2.254   1.499
 1865SOL    HW1 5609   2.382   2.198   1.508
 1865SOL    HW2 5610   2.219   2.196   1.503
 1866SOL     OW 5611   3.465   2.309   0.737
 1866SOL    HW1 5612   3.391   2.355   0.687
 1866SOL    HW2 5613   3.516   2.377   0.790
 1867SOL     OW 5614   2.093   3.575   0.483
 1867SOL    HW1 5615   2.127   3.652   0.537
 1867SOL    HW2 5616   2.137   3.575   0.393
 1868SOL     OW 5617   2.989   3.203   1.690
 1868SOL    HW1 5618   3.036   3.203   1.778
 1868SOL    HW2 5619   2.941   3.116   1.679
 1869SOL     OW 5620   2.092   3.296   0.538
 1869SOL    HW1 5621   2.066   3.392   0.538
 1869SOL    HW2 5622   2.021   3.242   0.583
 1870SOL     OW 5623   2.102   2.953   0.886
 1870SOL    HW1 5624   2.116   2.869   0.938
 1870SOL    HW2 5625   2.047   3.017   0.941
 1871SOL     OW 5626   2.482   3.648   1.439
 1871SOL    HW1 5627   2.390   3.631   1.474
 1871SOL    HW2 5628   2.510   3.740   1.465
 1872SOL     OW 5629   2.468   2.826   0.123
 1872SOL    HW1 5630   2.475   2.910   0.069
 1872SOL    HW2 5631   2.514   2.839   0.211
 1873SOL     OW 5632   3.456   1.976   1.480
 1873SOL    HW1 5633   3.438   2.043   1.408
 1873SOL    HW2 5634   3.453   2.022   1.569
 1874SOL     OW 5635   1.984   2.505   0.563
 1874SOL    HW1 5636   1.939   2.417   0.580
 1874SOL    HW2 5637   1.983   2.559   0.647
 1875SOL     OW 5638   3.704   3.629   0.359
 1875SOL    HW1 5639   3.758   3.600   0.439
 1875SOL    HW2 5640   3.734   3.719   0.330
 1876SOL     OW 5641   1.889   3.458   0.117
 1876SOL    HW1 5642   1.870   3.362   0.138
 1876SOL    HW2 5643   1.856   3.516   0.192
 1877SOL     OW 5644   3.551   2.784   0.612
 1877SOL    HW1 5645   3.646   2.755   0.620
 1877SOL    HW2 5646   3.543   2.849   0.537
 1878SOL     OW 5647   3.503   2.970   0.432
 1878SOL    HW1 5648   3.589   2.972   0.380
 1878SOL    HW2 5649   3.517   3.017   0.520
 1879SOL     OW 5650   1.975   2.599   1.597
 1879SOL    HW1 5651   2.063   2.586   1.642
 1879SOL    HW2 5652   1.962   2.696   1.575
 1880SOL     OW 5653   2.475   3.227   0.726
 1880SOL    HW1 5654   2.426   3.140   0.735
 1880SOL    HW2 5655   2.452   3.270   0.639
 1881SOL     OW 5656   3.155   3.090   1.423
 1881SOL    HW1 5657   3.192   3.017   1.365
 1881SOL    HW2 5658   3.207   3.095   1.508
 1882SOL     OW 5659   2.671   1.866   0.502
 1882SOL    HW1 5660   2.711   1.957   0.493
 1882SOL    HW2 5661   2.571   1.874   0.508
 1883SOL     OW 5662   2.059   2.838   1.264
 1883SOL    HW1 5663   2.148   2.793   1.250
 1883SOL    HW2 5664   1.986   2.773   1.245
 1884SOL     OW 5665   3.387   2.861   0.190
 1884SOL    HW1 5666   3.324   2.785   0.203
 1884SOL    HW2 5667   3.435   2.879   0.276
 1885SOL     OW 5668   3.049   3.654   1.616
 1885SOL    HW1 5669   3.073   3.714   1.540
 1885SOL    HW2 5670   3.056   3.559   1.586
 1886SOL     OW 5671   2.179   2.113   1.801
 1886SOL    HW1 5672   2.250   2.184   1.807
 1886SOL    HW2 5673   2.091   2.152   1.829
 1887SOL     OW 5674   3.328   3.279   0.953
 1887SOL    HW1 5675   3.269   3.285   1.033
 1887SOL    HW2 5676   3.313   3.191   0.907
 1888SOL     OW 5677   3.529   3.576   0.572
 1888SOL    HW1 5678   3.488   3.553   0.484
 1888SOL    HW2 5679   3.511   3.502   0.637
 1889SOL     OW 5680   2.460   2.591   0.270
 1889SOL    HW1 5681   2.484   2.660   0.202
 1889SOL    HW2 5682   2.382   2.624   0.324
 1890SOL     OW 5683   3.143   2.207   0.944
 1890SOL    HW1 5684   3.057   2.157   0.931
 1890SOL    HW2 5685   3.205   2.153   1.000
 1891SOL     OW 5686   3.438   3.524   0.307
 1891SOL    HW1 5687   3.527   3.570   0.310
 1891SOL    HW2 5688   3.417   3.500   0.212
 1892SOL     OW 5689   2.669   2.467   1.465
 1892SOL    HW1 5690   2.622   2.464   1.554
 1892SOL    HW2 5691   2.618   2.412   1.399
 1893SOL     OW 5692   3.256   2.331   1.674
 1893SOL    HW1 5693   3.236   2.374   1.762
 1893SOL    HW2 5694   3.334   2.269   1.683
 1894SOL     OW 5695   2.835   2.752   1.572
 1894SOL    HW1 5696   2.881   2.668   1.543
 1894SOL    HW2 5697   2.779   2.786   1.497
 1895SOL     OW 5698   2.853   2.272   1.242
 1895SOL    HW1 5699   2.776   2.306   1.296
 1895SOL    HW2 5700   2.819   2.221   1.163
 1896SOL     OW 5701   2.903   2.563   0.429
 1896SOL    HW1 5702   2.929   2.559   0.525
 1896SOL    HW2 5703   2.818   2.512   0.415
 1897SOL     OW 5704   1.938   2.673   0.789
 1897SOL    HW1 5705   2.037   2.661   0.798
 1897SOL    HW2 5706   1.914   2.768   0.810
 1898SOL     OW 5707   1.992   3.683   1.571
 1898SOL    HW1 5708   1.982   3.668   1.670
 1898SOL    HW2 5709   1.906   3.719   1.535
 1899SOL     OW 5710   2.727   2.210   0.195
 1899SOL    HW1 5711   2.786   2.273   0.146
 1899SOL    HW2 5712   2.746   2.116   0.166
 1900SOL     OW 5713   3.581   2.447   1.831
 1900SOL    HW1 5714   3.555   2.536   1.795
 1900SOL    HW2 5715   3.579   2.379   1.758
 1901SOL     OW 5716   3.224   3.006   0.545
 1901SOL    HW1 5717   3.307   2.977   0.497
 1901SOL    HW2 5718   3.175   3.073   0.489
 1902SOL     OW 5719   2.412   2.058   0.885
 1902SOL    HW1 5720   2.407   2.053   0.985
 1902SOL    HW2 5721   2.414   2.154   0.856
 1903SOL     OW 5722   2.870   3.318   0.477
 1903SOL    HW1 5723   2.824   3.390   0.425
 1903SOL    HW2 5724   2.866   3.338   0.575
 1904SOL     OW 5725   2.213   3.663   0.853
 1904SOL    HW1 5726   2.263   3.577   0.859
 1904SOL    HW2 5727   2.278   3.740   0.850
 1905SOL     OW 5728   3.657   2.928   0.873
 1905SOL    HW1 5729   3.595   2.913   0.797
 1905SOL    HW2 5730   3.605   2.939   0.958
 1906SOL     OW 5731   3.089   3.412   1.506
 1906SOL    HW1 5732   3.095   3.335   1.570
 1906SOL    HW2 5733   3.037   3.386   1.426
 1907SOL     OW 5734   2.183   2.805   0.242
 1907SOL    HW1 5735   2.265   2.844   0.200
 1907SOL    HW2 5736   2.156   2.723   0.193
 1908SOL     OW 5737   3.320   2.597   0.728
 1908SOL    HW1 5738   3.315   2.532   0.803
 1908SOL    HW2 5739   3.400   2.656   0.741
 1909SOL     OW 5740   2.323   3.128   1.727
 1909SOL    HW1 5741   2.273   3.129   1.641
 1909SOL    HW2 5742   2.260   3.110   1.803
 1910SOL     OW 5743   2.973   3.638   0.237
 1910SOL    HW1 5744   2.913   3.576   0.287
 1910SOL    HW2 5745   3.004   3.594   0.152
 1911SOL     OW 5746   2.064   2.147   1.498
 1911SOL    HW1 5747   1.984   2.207   1.485
 1911SOL    HW2 5748   2.054   2.098   1.584
 1912SOL     OW 5749   3.494   3.239   0.081
 1912SOL    HW1 5750   3.462   3.333   0.071
 1912SOL    HW2 5751   3.418   3.176   0.069
 1913SOL     OW 5752   2.326   3.605   0.323
 1913SOL    HW1 5753   2.359   3.644   0.409
 1913SOL    HW2 5754   2.402   3.598   0.258
 1914SOL     OW 5755   3.262   1.969   0.426
 1914SOL    HW1 5756   3.238   1.932   0.336
 1914SOL    HW2 5757   3.361   1.985   0.430
 1915SOL     OW 5758   2.111   3.647   1.241
 1915SOL    HW1 5759   2.168   3.582   1.291
 1915SOL    HW2 5760   2.095   3.614   1.148
 1916SOL     OW 5761   2.802   3.560   0.904
 1916SOL    HW1 5762   2.882   3.503   0.925
 1916SOL    HW2 5763   2.753   3.520   0.827
 1917SOL     OW 5764   2.244   2.562   0.480
 1917SOL    HW1 5765   2.289   2.472   0.477
 1917SOL    HW2 5766   2.150   2.551   0.513
 1918SOL     OW 5767   3.409   2.084   1.729
 1918SOL    HW1 5768   3.404   2.121   1.821
 1918SOL    HW2 5769   3.337   2.015   1.717
 1919SOL     OW 5770   2.643   2.126   1.749
 1919SOL    HW1 5771   2.710   2.065   1.792
 1919SOL    HW2 5772   2.570   2.145   1.814
 1920SOL     OW 5773   2.750   3.376   1.195
 1920SOL    HW1 5774   2.727   3.351   1.101
 1920SOL    HW2 5775   2.811   3.307   1.234
 1921SOL     OW 5776   3.213   2.452   1.433
 1921SOL    HW1 5777   3.241   2.409   1.518
 1921SOL    HW2 5778   3.238   2.548   1.434
 1922SOL     OW 5779   2.665   3.264   0.924
 1922SOL    HW1 5780   2.755   3.278   0.882
 1922SOL    HW2 5781   2.594   3.266   0.853
 1923SOL     OW 5782   2.784   2.365   0.899
 1923SOL    HW1 5783   2.759   2.356   0.803
 1923SOL    HW2 5784   2.832   2.283   0.930
 1924SOL     OW 5785   2.401   1.926   0.512
 1924SOL    HW1 5786   2.320   1.927   0.570
 1924SOL    HW2 5787   2.404   2.009   0.457
 1925SOL     OW 5788   3.296   3.050   0.041
 1925SOL    HW1 5789   3.328   2.974   0.098
 1925SOL    HW2 5790   3.204   3.077   0.071
 1926SOL     OW 5791   2.159   1.897   0.171
 1926SOL    HW1 5792   2.208   1.981   0.150
 1926SOL    HW2 5793   2.221   1.832   0.216
 1927SOL     OW 5794   2.797   2.098   0.480
 1927SOL    HW1 5795   2.749   2.139   0.402
 1927SOL    HW2 5796   2.896   2.096   0.461
 1928SOL     OW 5797   2.938   2.545   1.464
 1928SOL    HW1 5798   2.858   2.484   1.467
 1928SOL    HW2 5799   3.019   2.492   1.440
 1929SOL     OW 5800   3.089   3.432   0.793
 1929SOL    HW1 5801   3.110   3.506   0.728
 1929SOL    HW2 5802   3.157   3.432   0.866
 1930SOL     OW 5803   2.321   3.014   0.741
 1930SOL    HW1 5804   2.250   2.987   0.806
 1930SOL    HW2 5805   2.295   2.986   0.648
 1931SOL     OW 5806   3.133   3.659   0.591
 1931SOL    HW1 5807   3.177   3.723   0.527
 1931SOL    HW2 5808   3.083   3.711   0.661
 1932SOL     OW 5809   2.894   2.411   0.016
 1932SOL    HW1 5810   2.853   2.493  -0.023
 1932SOL    HW2 5811   2.958   2.437   0.089
 1933SOL     OW 5812   1.940   2.418   1.386
 1933SOL    HW1 5813   2.032   2.417   1.345
 1933SOL    HW2 5814   1.934   2.492   1.453
 1934SOL     OW 5815   2.423   2.084   1.147
 1934SOL    HW1 5816   2.461   2.000   1.184
 1934SOL    HW2 5817   2.335   2.103   1.191
 1935SOL     OW 5818   2.728   2.316   0.642
 1935SOL    HW1 5819   2.696   2.388   0.580
 1935SOL    HW2 5820   2.752   2.235   0.589
 1936SOL     OW 5821   2.879   1.901   0.753
 1936SOL    HW1 5822   2.807   1.906   0.684
 1936SOL    HW2 5823   2.855   1.832   0.822
 1937SOL     OW 5824   3.291   3.035   0.867
 1937SOL    HW1 5825   3.236   2.951   0.860
 1937SOL    HW2 5826   3.317   3.064   0.775
 1938SOL     OW 5827   3.328   2.452   0.992
 1938SOL    HW1 5828   3.298   2.357   0.999
 1938SOL    HW2 5829   3.401   2.468   1.058
 1939SOL     OW 5830   3.719   2.695   0.377
 1939SOL    HW1 5831   3.761   2.631   0.441
 1939SOL    HW2 5832   3.681   2.644   0.299
 1940SOL     OW 5833   2.350   3.247   0.174
 1940SOL    HW1 5834   2.263   3.232   0.221
 1940SOL    HW2 5835   2.333   3.273   0.079
 1941SOL     OW 5836   3.526   3.142   0.657
 1941SOL    HW1 5837   3.625   3.150   0.671
 1941SOL    HW2 5838   3.481   3.226   0.688
 1942SOL     OW 5839   3.252   2.437   0.078
 1942SOL    HW1 5840   3.198   2.416   0.159
 1942SOL    HW2 5841   3.343   2.396   0.087
 1943SOL     OW 5842   2.389   2.118   0.328
 1943SOL    HW1 5843   2.416   2.059   0.253
 1943SOL    HW2 5844   2.389   2.213   0.297
 1944SOL     OW 5845   3.616   3.085   1.588
 1944SOL    HW1 5846   3.707   3.046   1.575
 1944SOL    HW2 5847   3.624   3.181   1.612
 1945SOL     OW 5848   2.926   3.209   1.340
 1945SOL    HW1 5849   2.846   3.186   1.395
 1945SOL    HW2 5850   3.009   3.183   1.389
 1946SOL     OW 5851   3.454   3.491   1.625
 1946SOL    HW1 5852   3.481   3.525   1.535
 1946SOL    HW2 5853   3.533   3.453   1.671
 1947SOL     OW 5854   2.973   3.057   1.100
 1947SOL    HW1 5855   2.933   3.101   1.181
 1947SOL    HW2 5856   2.932   3.094   1.017
 1948SOL     OW 5857   3.500   2.961   1.079
 1948SOL    HW1 5858   3.505   3.042   1.138
 1948SOL    HW2 5859   3.414   2.963   1.028
 1949SOL     OW 5860   2.777   1.951   1.402
 1949SOL    HW1 5861   2.802   1.931   1.307
 1949SOL    HW2 5862   2.849   2.007   1.444
 1950SOL     OW 5863   2.842   2.978   1.719
 1950SOL    HW1 5864   2.743   2.984   1.729
 1950SOL    HW2 5865   2.865   2.898   1.663
 1951SOL     OW 5866   2.567   2.912   0.368
 1951SOL    HW1 5867   2.553   2.919   0.467
 1951SOL    HW2 5868   2.651   2.861   0.350
 1952SOL     OW 5869   2.272   2.675   1.251
 1952SOL    HW1 5870   2.358   2.687   1.301
 1952SOL    HW2 5871   2.230   2.588   1.278
 1953SOL     OW 5872   3.136   2.248   1.262
 1953SOL    HW1 5873   3.157   2.322   1.326
 1953SOL    HW2 5874   3.047   2.265   1.219
 1954SOL     OW 5875   1.926   3.426   1.331
 1954SOL    HW1 5876   1.880   3.508   1.297
 1954SOL    HW2 5877   2.024   3.445   1.340
 1955SOL     OW 5878   2.229   2.962   0.501
 1955SOL    HW1 5879   2.222   3.045   0.445
 1955SOL    HW2 5880   2.233   2.882   0.441
 1956SOL     OW 5881   2.428   2.399   0.865
 1956SOL    HW1 5882   2.440   2.465   0.791
 1956SOL    HW2 5883   2.474   2.433   0.948
 1957SOL     OW 5884   3.114   3.210   0.388
 1957SOL    HW1 5885   3.164   3.287   0.428
 1957SOL    HW2 5886   3.019   3.212   0.420
 1958SOL     OW 5887   3.134   3.307   1.142
 1958SOL    HW1 5888   3.181   3.320   1.229
 1958SOL    HW2 5889   3.068   3.233   1.151
 1959SOL     OW 5890   3.444   2.501   0.472
 1959SOL    HW1 5891   3.413   2.562   0.545
 1959SOL    HW2 5892   3.494   2.553   0.403
 1960SOL     OW 5893   2.216   3.372   1.329
 1960SOL    HW1 5894   2.195   3.328   1.242
 1960SOL    HW2 5895   2.313   3.398   1.332
 1961SOL     OW 5896   2.264   2.613   1.598
 1961SOL    HW1 5897   2.332   2.668   1.551
 1961SOL    HW2 5898   2.304   2.525   1.625
 1962SOL     OW 5899   3.449   2.641   1.670
 1962SOL    HW1 5900   3.357   2.679   1.665
 1962SOL    HW2 5901   3.509   2.688   1.605
 1963SOL     OW 5902   2.875   1.967   1.770
 1963SOL    HW1 5903   2.881   2.052   1.718
 1963SOL    HW2 5904   2.907   1.891   1.713
 1964SOL     OW 5905   2.366   1.912   1.740
 1964SOL    HW1 5906   2.324   1.855   1.670
 1964SOL    HW2 5907   2.300   1.981   1.772
 1965SOL     OW 5908   2.435   2.732   1.029
 1965SOL    HW1 5909   2.479   2.821   1.020
 1965SOL    HW2 5910   2.372   2.732   1.106
 1966SOL     OW 5911   3.222   2.724   1.045
 1966SOL    HW1 5912   3.147   2.724   0.979
 1966SOL    HW2 5913   3.259   2.632   1.054
 1967SOL     OW 5914   3.071   2.387   0.275
 1967SOL    HW1 5915   3.084   2.303   0.329
 1967SOL    HW2 5916   3.042   2.461   0.335
 1968SOL     OW 5917   2.169   2.075   1.231
 1968SOL    HW1 5918   2.146   2.112   1.321
 1968SOL    HW2 5919   2.139   1.980   1.225
 1969SOL     OW 5920   1.899   3.172   1.282
 1969SOL    HW1 5921   1.952   3.123   1.350
 1969SOL    HW2 5922   1.921   3.270   1.287
 1970SOL     OW 5923   2.594   2.496   1.064
 1970SOL    HW1 5924   2.653   2.470   0.988
 1970SOL    HW2 5925   2.566   2.592   1.053
 1971SOL     OW 5926   3.590   2.797   1.854
 1971SOL    HW1 5927   3.544   2.790   1.765
 1971SOL    HW2 5928   3.528   2.841   1.920
 1972SOL     OW 5929   2.169   1.925   0.618
 1972SOL    HW1 5930   2.158   2.019   0.651
 1972SOL    HW2 5931   2.164   1.862   0.695
 1973SOL     OW 5932   3.484   2.229   0.374
 1973SOL    HW1 5933   3.486   2.153   0.438
 1973SOL    HW2 5934   3.436   2.306   0.414
 1974SOL     OW 5935   2.885   2.628   0.966
 1974SOL    HW1 5936   2.900   2.649   1.062
 1974SOL    HW2 5937   2.855   2.533   0.957
 1975SOL     OW 5938   2.842   3.435   1.700
 1975SOL    HW1 5939   2.822   3.479   1.612
 1975SOL    HW2 5940   2.881   3.344   1.684
 1976SOL     OW 5941   3.721   3.380   1.605
 1976SOL    HW1 5942   3.735   3.407   1.510
 1976SOL    HW2 5943   3.804   3.402   1.658
 1977SOL     OW 5944   2.212   2.760   1.804
 1977SOL    HW1 5945   2.288   2.804   1.852
 1977SOL    HW2 5946   2.247   2.713   1.722
 1978SOL     OW 5947   3.402   2.136   0.125
 1978SOL    HW1 5948   3.341   2.061   0.148
 1978SOL    HW2 5949   3.424   2.188   0.208
 1979SOL     OW 5950   3.165   2.700   0.042
 1979SOL    HW1 5951   3.199   2.607   0.057
 1979SOL    HW2 5952   3.183   2.727  -0.053
 1980SOL     OW 5953   2.930   3.195   0.849
 1980SOL    HW1 5954   2.937   3.111   0.794
 1980SOL    HW2 5955   2.992   3.264   0.813
 1981SOL     OW 5956   2.181   2.672   0.949
 1981SOL    HW1 5957   2.274   2.708   0.954
 1981SOL    HW2 5958   2.175   2.587   1.001
 1982SOL     OW 5959   2.201   2.371   1.006
 1982SOL    HW1 5960   2.149   2.288   0.989
 1982SOL    HW2 5961   2.278   2.376   0.942
 1983SOL     OW 5962   3.000   2.242   1.678
 1983SOL    HW1 5963   2.955   2.305   1.742
 1983SOL    HW2 5964   3.093   2.273   1.661
 1984SOL     OW 5965   3.022   2.069   1.477
 1984SOL    HW1 5966   3.022   2.133   1.554
 1984SOL    HW2 5967   3.050   2.117   1.394
 1985SOL     OW 5968   1.870   3.188   0.200
 1985SOL    HW1 5969   1.777   3.209   0.169
 1985SOL    HW2 5970   1.880   3.089   0.213
 1986SOL     OW 5971   1.950   3.663   0.927
 1986SOL    HW1 5972   1.908   3.577   0.900
 1986SOL    HW2 5973   2.044   3.666   0.893
 1987SOL     OW 5974   2.366   3.430   0.910
 1987SOL    HW1 5975   2.432   3.504   0.919
 1987SOL    HW2 5976   2.410   3.351   0.868
 1988SOL     OW 5977   2.864   2.658   1.238
 1988SOL    HW1 5978   2.905   2.626   1.324
 1988SOL    HW2 5979   2.768   2.631   1.235
 1989SOL     OW 5980   1.902   2.406   1.114
 1989SOL    HW1 5981   1.987   2.373   1.073
 1989SOL    HW2 5982   1.915   2.421   1.212
 1990SOL     OW 5983   2.051   2.382   1.722
 1990SOL    HW1 5984   2.110   2.342   1.652
 1990SOL    HW2 5985   1.993   2.453   1.681
 1991SOL     OW 5986   3.231   2.812   1.660
 1991SOL    HW1 5987   3.270   2.901   1.680
 1991SOL    HW2 5988   3.241   2.792   1.563
 1992SOL     OW 5989   2.677   2.434   0.325
 1992SOL    HW1 5990   2.684   2.345   0.279
 1992SOL    HW2 5991   2.583   2.468   0.317
 1993SOL     OW 5992   3.519   2.466   1.206
 1993SOL    HW1 5993   3.481   2.397   1.268
 1993SOL    HW2 5994   3.601   2.430   1.162
 1994SOL     OW 5995   2.114   3.426   1.744
 1994SOL    HW1 5996   2.084   3.483   1.820
 1994SOL    HW2 5997   2.107   3.329   1.770
 1995SOL     OW 5998   2.533   2.326   1.269
 1995SOL    HW1 5999   2.499   2.237   1.239
 1995SOL    HW2 6000   2.559   2.380   1.189
 1996SOL     OW 6001   2.792   3.540   1.465
 1996SOL    HW1 6002   2.768   3.522   1.370
 1996SOL    HW2 6003   2.822   3.634   1.475
 1997SOL     OW 6004   2.335   2.362   0.191
 1997SOL    HW1 6005   2.396   2.442   0.195
 1997SOL    HW2 6006   2.240   2.393   0.198
 1998SOL     OW 6007   2.021   2.999   1.466
 1998SOL    HW1 6008   2.043   2.938   1.542
 1998SOL    HW2 6009   2.031   2.950   1.380
 1999SOL     OW 6010   3.209   2.921   1.234
 1999SOL    HW1 6011   3.233   2.858   1.160
 1999SOL    HW2 6012   3.119   2.961   1.216
 2000SOL     OW 6013   3.164   2.717   0.309
 2000SOL    HW1 6014   3.078   2.686   0.351
 2000SOL    HW2 6015   3.160   2.703   0.210
 2001SOL     OW 6016   3.621   3.609   1.154
 2001SOL    HW1 6017   3.682   3.639   1.081
 2001SOL    HW2 6018   3.583   3.520   1.132
 2002SOL     OW 6019   3.114   3.593   1.128
 2002SOL    HW1 6020   3.198   3.598   1.074
 2002SOL    HW2 6021   3.091   3.497   1.146
 2003SOL     OW 6022   1.945   3.120   1.022
 2003SOL    HW1 6023   1.940   3.119   1.122
 2003SOL    HW2 6024   1.862   3.079   0.984
 2004SOL     OW 6025   2.550   3.524   1.716
 2004SOL    HW1 6026   2.494   3.605   1.725
 2004SOL    HW2 6027   2.602   3.528   1.630
 2005SOL     OW 6028   2.765   1.948   0.133
 2005SOL    HW1 6029   2.816   1.949   0.047
 2005SOL    HW2 6030   2.821   1.906   0.204
 2006SOL     OW 6031   3.588   1.997   0.523
 2006SOL    HW1 6032   3.661   1.980   0.456
 2006SOL    HW2 6033   3.557   1.910   0.561
 2007SOL     OW 6034   3.250   3.435   0.477
 2007SOL    HW1 6035   3.317   3.447   0.403
 2007SOL    HW2 6036   3.210   3.524   0.500
 2008SOL     OW 6037   1.992   3.656   1.851
 2008SOL    HW1 6038   1.951   3.582   1.904
 2008SOL    HW2 6039   2.056   3.707   1.909
 2009SOL     OW 6040   3.142   2.789   0.672
 2009SOL    HW1 6041   3.202   2.708   0.674
 2009SOL    HW2 6042   3.182   2.858   0.612
 2010SOL     OW 6043   2.692   3.135   1.422
 2010SOL    HW1 6044   2.687   3.168   1.517
 2010SOL    HW2 6045   2.606   3.154   1.376
 2011SOL     OW 6046   2.534   3.478   0.154
 2011SOL    HW1 6047   2.543   3.488   0.055
 2011SOL    HW2 6048   2.494   3.389   0.175
 2012SOL     OW 6049   3.512   3.582   1.394
 2012SOL    HW1 6050   3.565   3.592   1.310
 2012SOL    HW2 6051   3.485   3.672   1.428
 2013SOL     OW 6052   3.703   2.037   0.963
 2013SOL    HW1 6053   3.742   1.952   0.927
 2013SOL    HW2 6054   3.605   2.039   0.944
 2014SOL     OW 6055   2.125   2.188   0.720
 2014SOL    HW1 6056   2.046   2.239   0.686
 2014SOL    HW2 6057   2.116   2.173   0.818
 2015SOL     OW 6058   3.056   3.474   0.031
 2015SOL    HW1 6059   3.062   3.381   0.068
 2015SOL    HW2 6060   2.997   3.474  -0.049
 2016SOL     OW 6061   2.684   2.864   1.372
 2016SOL    HW1 6062   2.724   2.863   1.280
 2016SOL    HW2 6063   2.694   2.956   1.412
 2017SOL     OW 6064   2.778   2.772   0.291
 2017SOL    HW1 6065   2.841   2.810   0.223
 2017SOL    HW2 6066   2.818   2.689   0.330
 2018SOL     OW 6067   3.366   3.469   0.044
 2018SOL    HW1 6068   3.274   3.506   0.051
 2018SOL    HW2 6069   3.404   3.489  -0.046
 2019SOL     OW 6070   2.234   3.150   1.490
 2019SOL    HW1 6071   2.221   3.243   1.456
 2019SOL    HW2 6072   2.150   3.098   1.477
 2020SOL     OW 6073   3.476   3.154   1.289
 2020SOL    HW1 6074   3.536   3.157   1.369
 2020SOL    HW2 6075   3.401   3.218   1.302
 2021SOL     OW 6076   2.901   2.960   0.696
 2021SOL    HW1 6077   2.831   2.913   0.750
 2021SOL    HW2 6078   2.960   2.892   0.653
 2022SOL     OW 6079   2.876   2.098   0.971
 2022SOL    HW1 6080   2.868   2.062   0.878
 2022SOL    HW2 6081   2.874   2.022   1.036
 2023SOL     OW 6082   2.452   3.349   0.491
 2023SOL    HW1 6083   2.494   3.291   0.421
 2023SOL    HW2 6084   2.408   3.428   0.447
 2024SOL     OW 6085   3.571   2.247   1.381
 2024SOL    HW1 6086   3.644   2.316   1.385
 2024SOL    HW2 6087   3.599   2.172   1.322
 2025SOL     OW 6088   2.117   3.210   0.290
 2025SOL    HW1 6089   2.021   3.211   0.263
 2025SOL    HW2 6090   2.129   3.263   0.374
 2026SOL     OW 6091   1.967   2.875   1.726
 2026SOL    HW1 6092   1.890   2.842   1.780
 2026SOL    HW2 6093   2.052   2.845   1.768
 2027SOL     OW 6094   2.534   2.065   1.489
 2027SOL    HW1 6095   2.624   2.049   1.449
 2027SOL    HW2 6096   2.542   2.070   1.588
 2028SOL     OW 6097   3.302   2.718   1.398
 2028SOL    HW1 6098   3.245   2.770   1.335
 2028SOL    HW2 6099   3.398   2.730   1.374
 2029SOL     OW 6100   1.934   2.028   0.318
 2029SOL    HW1 6101   1.917   2.111   0.264
 2029SOL    HW2 6102   2.024   1.991   0.296
 2030SOL     OW 6103   3.045   3.197   0.119
 2030SOL    HW1 6104   2.946   3.186   0.121
 2030SOL    HW2 6105   3.079   3.212   0.212
 2031SOL     OW 6106   2.475   2.704   1.431
 2031SOL    HW1 6107   2.531   2.785   1.414
 2031SOL    HW2 6108   2.534   2.624   1.434
 2032SOL     OW 6109   3.355   3.629   0.959
 2032SOL    HW1 6110   3.388   3.693   0.890
 2032SOL    HW2 6111   3.421   3.623   1.034
 2033SOL     OW 6112   2.578   2.427   1.708
 2033SOL    HW1 6113   2.597   2.492   1.782
 2033SOL    HW2 6114   2.638   2.347   1.717
 2034SOL     OW 6115   3.312   3.082   1.633
 2034SOL    HW1 6116   3.303   3.072   1.732
 2034SOL    HW2 6117   3.408   3.075   1.607
 2035SOL     OW 6118   2.252   3.603   1.560
 2035SOL    HW1 6119   2.161   3.644   1.558
 2035SOL    HW2 6120   2.245   3.509   1.592
 2036SOL     OW 6121   3.536   2.745   1.254
 2036SOL    HW1 6122   3.509   2.656   1.217
 2036SOL    HW2 6123   3.537   2.813   1.181
 2037SOL     OW 6124   3.087   2.187   0.449
 2037SOL    HW1 6125   3.152   2.113   0.438
 2037SOL    HW2 6126   3.107   2.237   0.533
 2038SOL     OW 6127   2.456   2.607   0.652
 2038SOL    HW1 6128   2.506   2.692   0.633
 2038SOL    HW2 6129   2.368   2.609   0.604
 2039SOL     OW 6130   3.639   2.204   1.642
 2039SOL    HW1 6131   3.622   2.235   1.548
 2039SOL    HW2 6132   3.555   2.167   1.680
 2040SOL     OW 6133   3.592   2.796   1.517
 2040SOL    HW1 6134   3.630   2.887   1.532
 2040SOL    HW2 6135   3.584   2.779   1.418
 2041SOL     OW 6136   2.721   3.236   0.016
 2041SOL    HW1 6137   2.675   3.251   0.104
 2041SOL    HW2 6138   2.765   3.321  -0.014
 2042SOL     OW 6139   2.523   3.652   0.953
 2042SOL    HW1 6140   2.477   3.740   0.940
 2042SOL    HW2 6141   2.622   3.664   0.946
 2043SOL     OW 6142   2.721   2.818   0.861
 2043SOL    HW1 6143   2.775   2.749   0.909
 2043SOL    HW2 6144   2.689   2.887   0.927
 2044SOL     OW 6145   2.945   2.846   0.087
 2044SOL    HW1 6146   2.922   2.899   0.005
 2044SOL    HW2 6147   3.026   2.790   0.068
 2045SOL     OW 6148   3.723   3.431   0.851
 2045SOL    HW1 6149   3.652   3.419   0.781
 2045SOL    HW2 6150   3.724   3.352   0.911
 2046SOL     OW 6151   2.083   3.176   1.844
 2046SOL    HW1 6152   2.018   3.103   1.823
 2046SOL    HW2 6153   2.087   3.190   1.942
 2047SOL     OW 6154   1.941   3.102   0.653
 2047SOL    HW1 6155   1.940   3.055   0.741
 2047SOL    HW2 6156   2.023   3.074   0.602
 2048SOL     OW 6157   2.534   3.253   1.624
 2048SOL    HW1 6158   2.456   3.203   1.662
 2048SOL    HW2 6159   2.531   3.348   1.655
 2049SOL     OW 6160   3.686   2.054   1.227
 2049SOL    HW1 6161   3.682   1.964   1.271
 2049SOL    HW2 6162   3.689   2.043   1.128
 2050SOL     OW 6163   2.290   2.286   0.520
 2050SOL    HW1 6164   2.320   2.214   0.458
 2050SOL    HW2 6165   2.251   2.246   0.603
 2051SOL     OW 6166   3.567   3.349   1.104
 2051SOL    HW1 6167   3.474   3.324   1.077
 2051SOL    HW2 6168   3.593   3.299   1.186
 2052SOL     OW 6169   2.179   2.409   1.280
 2052SOL    HW1 6170   2.217   2.350   1.352
 2052SOL    HW2 6171   2.219   2.383   1.192
 2053SOL     OW 6172   2.674   3.448   0.687
 2053SOL    HW1 6173   2.706   3.458   0.593
 2053SOL    HW2 6174   2.595   3.386   0.689
 2054SOL     OW 6175   3.286   2.076   1.112
 2054SOL    HW1 6176   3.338   2.011   1.167
 2054SOL    HW2 6177   3.237   2.139   1.173
 2055SOL     OW 6178   2.863   1.896   1.154
 2055SOL    HW1 6179   2.800   1.824   1.123
 2055SOL    HW2 6180   2.956   1.860   1.154
 2056SOL     OW 6181   2.632   3.192   0.301
 2056SOL    HW1 6182   2.586   3.105   0.318
 2056SOL    HW2 6183   2.723   3.189   0.342
 2057SOL     OW 6184   2.480   3.429   1.284
 2057SOL    HW1 6185   2.475   3.511   1.341
 2057SOL    HW2 6186   2.569   3.426   1.239
 2058SOL     OW 6187   3.214   1.914   0.168
 2058SOL    HW1 6188   3.249   1.873   0.084
 2058SOL    HW2 6189   3.124   1.876   0.188
 2059SOL     OW 6190   3.162   2.315   0.691
 2059SOL    HW1 6191   3.103   2.395   0.695
 2059SOL    HW2 6192   3.177   2.280   0.784
 2060SOL     OW 6193   3.455   2.083   0.882
 2060SOL    HW1 6194   3.371   2.082   0.936
 2060SOL    HW2 6195   3.457   2.166   0.826
 2061SOL     OW 6196   1.901   2.939   0.300
 2061SOL    HW1 6197   2.000   2.928   0.291
 2061SOL    HW2 6198   1.861   2.853   0.332
 2062SOL     OW 6199   2.737   3.508   0.337
 2062SOL    HW1 6200   2.660   3.473   0.283
 2062SOL    HW2 6201   2.705   3.579   0.399
 2063SOL     OW 6202   2.092   2.490   1.975
 2063SOL    HW1 6203   1.999   2.488   2.012
 2063SOL    HW2 6204   2.093   2.451   1.883
 2064SOL     OW 6205   2.087   2.137   2.858
 2064SOL    HW1 6206   2.122   2.120   2.950
 2064SOL    HW2 6207   1.999   2.092   2.846
 2065SOL     OW 6208   1.881   2.230   2.509
 2065SOL    HW1 6209   1.799   2.273   2.548
 2065SOL    HW2 6210   1.853   2.157   2.446
 2066SOL     OW 6211   2.431   3.137   3.027
 2066SOL    HW1 6212   2.338   3.130   2.990
 2066SOL    HW2 6213   2.442   3.226   3.071
 2067SOL     OW 6214   3.417   3.373   2.565
 2067SOL    HW1 6215   3.360   3.357   2.646
 2067SOL    HW2 6216   3.358   3.383   2.485
 2068SOL     OW 6217   2.997   2.565   2.579
 2068SOL    HW1 6218   3.054   2.643   2.554
 2068SOL    HW2 6219   2.937   2.591   2.655
 2069SOL     OW 6220   3.617   2.469   2.093
 2069SOL    HW1 6221   3.605   2.456   1.994
 2069SOL    HW2 6222   3.587   2.388   2.142
 2070SOL     OW 6223   2.630   3.006   2.885
 2070SOL    HW1 6224   2.552   3.023   2.945
 2070SOL    HW2 6225   2.664   3.093   2.849
 2071SOL     OW 6226   2.712   2.660   3.685
 2071SOL    HW1 6227   2.708   2.736   3.750
 2071SOL    HW2 6228   2.734   2.696   3.594
 2072SOL     OW 6229   2.547   2.874   2.527
 2072SOL    HW1 6230   2.616   2.858   2.597
 2072SOL    HW2 6231   2.474   2.931   2.565
 2073SOL     OW 6232   2.548   3.023   3.665
 2073SOL    HW1 6233   2.608   3.102   3.679
 2073SOL    HW2 6234   2.462   3.054   3.624
 2074SOL     OW 6235   2.197   3.297   2.923
 2074SOL    HW1 6236   2.119   3.266   2.870
 2074SOL    HW2 6237   2.255   3.355   2.866
 2075SOL     OW 6238   3.322   3.367   3.201
 2075SOL    HW1 6239   3.346   3.461   3.227
 2075SOL    HW2 6240   3.306   3.313   3.283
 2076SOL     OW 6241   2.300   2.254   3.361
 2076SOL    HW1 6242   2.382   2.198   3.370
 2076SOL    HW2 6243   2.219   2.196   3.365
 2077SOL     OW 6244   3.465   2.309   2.599
 2077SOL    HW1 6245   3.391   2.355   2.549
 2077SOL    HW2 6246   3.516   2.377   2.652
 2078SOL     OW 6247   2.093   3.575   2.345
 2078SOL    HW1 6248   2.127   3.652   2.399
 2078SOL    HW2 6249   2.137   3.575   2.255
 2079SOL     OW 6250   2.989   3.203   3.552
 2079SOL    HW1 6251   3.036   3.203   3.640
 2079SOL    HW2 6252   2.941   3.116   3.541
 2080SOL     OW 6253   2.092   3.296   2.400
 2080SOL    HW1 6254   2.066   3.392   2.400
 2080SOL    HW2 6255   2.021   3.242   2.445
 2081SOL     OW 6256   2.102   2.953   2.748
 2081SOL    HW1 6257   2.116   2.869   2.800
 2081SOL    HW2 6258   2.047   3.017   2.803
 2082SOL     OW 6259   2.482   3.648   3.301
 2082SOL    HW1 6260   2.390   3.631   3.336
 2082SOL    HW2 6261   2.510   3.740   3.327
 2083SOL     OW 6262   2.468   2.826   1.985
 2083SOL    HW1 6263   2.475   2.910   1.931
 2083SOL    HW2 6264   2.514   2.839   2.073
 2084SOL     OW 6265   3.456   1.976   3.342
 2084SOL    HW1 6266   3.438   2.043   3.270
 2084SOL    HW2 6267   3.453   2.022   3.431
 2085SOL     OW 6268   1.984   2.505   2.425
 2085SOL    HW1 6269   1.939   2.417   2.442
 2085SOL    HW2 6270   1.983   2.559   2.509
 2086SOL     OW 6271   3.704   3.629   2.221
 2086SOL    HW1 6272   3.758   3.600   2.301
 2086SOL    HW2 6273   3.734   3.719   2.192
 2087SOL     OW 6274   1.889   3.458   1.979
 2087SOL    HW1 6275   1.870   3.362   2.000
 2087SOL    HW2 6276   1.856   3.516   2.054
 2088SOL     OW 6277   3.551   2.784   2.474
 2088SOL    HW1 6278   3.646   2.755   2.482
 2088SOL    HW2 6279   3.543   2.849   2.399
 2089SOL     OW 6280   3.503   2.970   2.294
 2089SOL    HW1 6281   3.589   2.972   2.242
 2089SOL    HW2 6282   3.517   3.017   2.382
 2090SOL     OW 6283   1.975   2.599   3.459
 2090SOL    HW1 6284   2.063   2.586   3.504
 2090SOL    HW2 6285   1.962   2.696   3.437
 2091SOL     OW 6286   2.475   3.227   2.588
 2091SOL    HW1 6287   2.426   3.140   2.597
 2091SOL    HW2 6288   2.452   3.270   2.501
 2092SOL     OW 6289   3.155   3.090   3.285
 2092SOL    HW1 6290   3.192   3.017   3.227
 2092SOL    HW2 6291   3.207   3.095   3.370
 2093SOL     OW 6292   2.671   1.866   2.364
 2093SOL    HW1 6293   2.711   1.957   2.355
 2093SOL    HW2 6294   2.571   1.874   2.370
 2094SOL     OW 6295   2.059   2.838   3.126
 2094SOL    HW1 6296   2.148   2.793   3.112
 2094SOL    HW2 6297   1.986   2.773   3.107
 2095SOL     OW 6298   3.387   2.861   2.052
 2095SOL    HW1 6299   3.324   2.785   2.065
 2095SOL    HW2 6300   3.435   2.879   2.138
 2096SOL     OW 6301   3.049   3.654   3.478
 2096SOL    HW1 6302   3.073   3.714   3.402
 2096SOL    HW2 6303   3.056   3.559   3.448
 2097SOL     OW 6304   2.179   2.113   3.663
 2097SOL    HW1 6305   2.250   2.184   3.669
 2097SOL    HW2 6306   2.091   2.152   3.691
 2098SOL     OW 6307   3.328   3.279   2.815
 2098SOL    HW1 6308   3.269   3.285   2.895
 2098SOL    HW2 6309   3.313   3.191   2.769
 2099SOL     OW 6310   3.529   3.576   2.434
 2099SOL    HW1 6311   3.488   3.553   2.346
 2099SOL    HW2 6312   3.511   3.502   2.499
 2100SOL     OW 6313   2.460   2.591   2.132
 2100SOL    HW1 6314   2.484   2.660   2.064
 2100SOL    HW2 6315   2.382   2.624   2.186
 2101SOL     OW 6316   3.143   2.207   2.806
 2101SOL    HW1 6317   3.057   2.157   2.793
 2101SOL    HW2 6318   3.205   2.153   2.862
 2102SOL     OW 6319   3.438   3.524   2.169
 2102SOL    HW1 6320   3.527   3.570   2.172
 2102SOL    HW2 6321   3.417   3.500   2.074
 2103SOL     OW 6322   2.669   2.467   3.327
 2103SOL    HW1 6323   2.622   2.464   3.416
 2103SOL    HW2 6324   2.618   2.412   3.261
 2104SOL     OW 6325   3.256   2.331   3.536
 2104SOL    HW1 6326   3.236   2.374   3.624
 2104SOL    HW2 6327   3.334   2.269   3.545
 2105SOL     OW 6328   2.835   2.752   3.434
 2105SOL    HW1 6329   2.881   2.668   3.405
 2105SOL    HW2 6330   2.779   2.786   3.359
 2106SOL     OW 6331   2.853   2.272   3.104
 2106SOL    HW1 6332   2.776   2.306   3.158
 2106SOL    HW2 6333   2.819   2.221   3.025
 2107SOL     OW 6334   2.903   2.563   2.291
 2107SOL    HW1 6335   2.929   2.559   2.387
 2107SOL    HW2 6336   2.818   2.512   2.277
 2108SOL     OW 6337   1.938   2.673   2.651
 2108SOL    HW1 6338   2.037   2.661   2.660
 2108SOL    HW2 6339   1.914   2.768   2.672
 2109SOL     OW 6340   1.992   3.683   3.433
 2109SOL    HW1 6341   1.982   3.668   3.532
 2109SOL    HW2 6342   1.906   3.719   3.397
 2110SOL     OW 6343   2.727   2.210   2.057
 2110SOL    HW1 6344   2.786   2.273   2.008
 2110SOL    HW2 6345   2.746   2.116   2.028
 2111SOL     OW 6346   3.581   2.447   3.693
 2111SOL    HW1 6347   3.555   2.536   3.657
 2111SOL    HW2 6348   3.579   2.379   3.620
 2112SOL     OW 6349   3.224   3.006   2.407
 2112SOL    HW1 6350   3.307   2.977   2.359
 2112SOL    HW2 6351   3.175   3.073   2.351
 2113SOL     OW 6352   2.412   2.058   2.747
 2113SOL    HW1 6353   2.407   2.053   2.847
 2113SOL    HW2 6354   2.414   2.154   2.718
 2114SOL     OW 6355   2.870   3.318   2.339
 2114SOL    HW1 6356   2.824   3.390   2.287
 2114SOL    HW2 6357   2.866   3.338   2.437
 2115SOL     OW 6358   2.213   3.663   2.715
 2115SOL    HW1 6359   2.263   3.577   2.721
 2115SOL    HW2 6360   2.278   3.740   2.712
 2116SOL     OW 6361   3.657   2.928   2.735
 2116SOL    HW1 6362   3.595   2.913   2.659
 2116SOL    HW2 6363   3.605   2.939   2.820
 2117SOL     OW 6364   3.089   3.412   3.368
 2117SOL    HW1 6365   3.095   3.335   3.432
 2117SOL    HW2 6366   3.037   3.386   3.288
 2118SOL     OW 6367   2.183   2.805   2.104
 2118SOL    HW1 6368   2.265   2.844   2.062
 2118SOL    HW2 6369   2.156   2.723   2.055
 2119SOL     OW 6370   3.320   2.597   2.590
 2119SOL    HW1 6371   3.315   2.532   2.665
 2119SOL    HW2 6372   3.400   2.656   2.603
 2120SOL     OW 6373   2.323   3.128   3.589
 2120SOL    HW1 6374   2.273   3.129   3.503
 2120SOL    HW2 6375   2.260   3.110   3.665
 2121SOL     OW 6376   2.973   3.638   2.099
 2121SOL    HW1 6377   2.913   3.576   2.149
 2121SOL    HW2 6378   3.004   3.594   2.014
 2122SOL     OW 6379   2.064   2.147   3.360
 2122SOL    HW1 6380   1.984   2.207   3.347
 2122SOL    HW2 6381   2.054   2.098   3.446
 2123SOL     OW 6382   3.494   3.239   1.943
 2123SOL    HW1 6383   3.462   3.333   1.933
 2123SOL    HW2 6384   3.418   3.176   1.931
 2124SOL     OW 6385   2.326   3.605   2.185
 2124SOL    HW1 6386   2.359   3.644   2.271
 2124SOL    HW2 6387   2.402   3.598   2.120
 2125SOL     OW 6388   3.262   1.969   2.288
 2125SOL    HW1 6389   3.238   1.932   2.198
 2125SOL    HW2 6390   3.361   1.985   2.292
 2126SOL     OW 6391   2.111   3.647   3.103
 2126SOL    HW1 6392   2.168   3.582   3.153
 2126SOL    HW2 6393   2.095   3.614   3.010
 2127SOL     OW 6394   2.802   3.560   2.766
 2127SOL    HW1 6395   2.882   3.503   2.787
 2127SOL    HW2 6396   2.753   3.520   2.689
 2128SOL     OW 6397   3.409   2.084   3.591
 2128SOL    HW1 6398   3.404   2.121   3.683
 2128SOL    HW2 6399   3.337   2.015   3.579
 2129SOL     OW 6400   2.476   1.984   1.979
 2129SOL    HW1 6401   2.574   1.962   1.986
 2129SOL    HW2 6402   2.445   1.967   1.886
 2130SOL     OW 6403   2.643   2.126   3.611
 2130SOL    HW1 6404   2.710   2.065   3.654
 2130SOL    HW2 6405   2.570   2.145   3.676
 2131SOL     OW 6406   2.750   3.376   3.057
 2131SOL    HW1 6407   2.727   3.351   2.963
 2131SOL    HW2 6408   2.811   3.307   3.096
 2132SOL     OW 6409   3.213   2.452   3.295
 2132SOL    HW1 6410   3.241   2.409   3.380
 2132SOL    HW2 6411   3.238   2.548   3.296
 2133SOL     OW 6412   2.665   3.264   2.786
 2133SOL    HW1 6413   2.755   3.278   2.744
 2133SOL    HW2 6414   2.594   3.266   2.715
 2134SOL     OW 6415   2.784   2.365   2.761
 2134SOL    HW1 6416   2.759   2.356   2.665
 2134SOL    HW2 6417   2.832   2.283   2.792
 2135SOL     OW 6418   3.296   3.050   1.903
 2135SOL    HW1 6419   3.328   2.974   1.960
 2135SOL    HW2 6420   3.204   3.077   1.933
 2136SOL     OW 6421   2.159   1.897   2.033
 2136SOL    HW1 6422   2.208   1.981   2.012
 2136SOL    HW2 6423   2.221   1.832   2.078
 2137SOL     OW 6424   2.797   2.098   2.342
 2137SOL    HW1 6425   2.749   2.139   2.264
 2137SOL    HW2 6426   2.896   2.096   2.323
 2138SOL     OW 6427   2.938   2.545   3.326
 2138SOL    HW1 6428   2.858   2.484   3.329
 2138SOL    HW2 6429   3.019   2.492   3.302
 2139SOL     OW 6430   3.089   3.432   2.655
 2139SOL    HW1 6431   3.110   3.506   2.590
 2139SOL    HW2 6432   3.157   3.432   2.728
 2140SOL     OW 6433   2.321   3.014   2.603
 2140SOL    HW1 6434   2.250   2.987   2.668
 2140SOL    HW2 6435   2.295   2.986   2.510
 2141SOL     OW 6436   3.133   3.659   2.453
 2141SOL    HW1 6437   3.177   3.723   2.389
 2141SOL    HW2 6438   3.083   3.711   2.523
 2142SOL     OW 6439   2.894   2.411   1.878
 2142SOL    HW1 6440   2.853   2.493   1.839
 2142SOL    HW2 6441   2.958   2.437   1.951
 2143SOL     OW 6442   1.940   2.418   3.248
 2143SOL    HW1 6443   2.032   2.417   3.207
 2143SOL    HW2 6444   1.934   2.492   3.315
 2144SOL     OW 6445   2.423   2.084   3.009
 2144SOL    HW1 6446   2.461   2.000   3.046
 2144SOL    HW2 6447   2.335   2.103   3.053
 2145SOL     OW 6448   2.728   2.316   2.504
 2145SOL    HW1 6449   2.696   2.388   2.442
 2145SOL    HW2 6450   2.752   2.235   2.451
 2146SOL     OW 6451   2.879   1.901   2.615
 2146SOL    HW1 6452   2.807   1.906   2.546
 2146SOL    HW2 6453   2.855   1.832   2.684
 2147SOL     OW 6454   3.291   3.035   2.729
 2147SOL    HW1 6455   3.236   2.951   2.722
 2147SOL    HW2 6456   3.317   3.064   2.637
 2148SOL     OW 6457   3.328   2.452   2.854
 2148SOL    HW1 6458   3.298   2.357   2.861
 2148SOL    HW2 6459   3.401   2.468   2.920
 2149SOL     OW 6460   3.719   2.695   2.239
 2149SOL    HW1 6461   3.761   2.631   2.303
 2149SOL    HW2 6462   3.681   2.644   2.161
 2150SOL     OW 6463   2.350   3.247   2.036
 2150SOL    HW1 6464   2.263   3.232   2.083
 2150SOL    HW2 6465   2.333   3.273   1.941
 2151SOL     OW 6466   3.526   3.142   2.519
 2151SOL    HW1 6467   3.625   3.150   2.533
 2151SOL    HW2 6468   3.481   3.226   2.550
 2152SOL     OW 6469   3.252   2.437   1.940
 2152SOL    HW1 6470   3.198   2.416   2.021
 2152SOL    HW2 6471   3.343   2.396   1.949
 2153SOL     OW 6472   3.616   3.085   3.450
 2153SOL    HW1 6473   3.707   3.046   3.437
 2153SOL    HW2 6474   3.624   3.181   3.474
 2154SOL     OW 6475   2.926   3.209   3.202
 2154SOL    HW1 6476   2.846   3.186   3.257
 2154SOL    HW2 6477   3.009   3.183   3.251
 2155SOL     OW 6478   3.454   3.491   3.487
 2155SOL    HW1 6479   3.481   3.525   3.397
 2155SOL    HW2 6480   3.533   3.453   3.533
 2156SOL     OW 6481   2.973   3.057   2.962
 2156SOL    HW1 6482   2.933   3.101   3.043
 2156SOL    HW2 6483   2.932   3.094   2.879
 2157SOL     OW 6484   3.500   2.961   2.941
 2157SOL    HW1 6485   3.505   3.042   3.000
 2157SOL    HW2 6486   3.414   2.963   2.890
 2158SOL     OW 6487   2.777   1.951   3.264
 2158SOL    HW1 6488   2.802   1.931   3.169
 2158SOL    HW2 6489   2.849   2.007   3.306
 2159SOL     OW 6490   2.842   2.978   3.581
 2159SOL    HW1 6491   2.743   2.984   3.591
 2159SOL    HW2 6492   2.865   2.898   3.525
 2160SOL     OW 6493   2.567   2.912   2.230
 2160SOL    HW1 6494   2.553   2.919   2.329
 2160SOL    HW2 6495   2.651   2.861   2.212
 2161SOL     OW 6496   2.272   2.675   3.113
 2161SOL    HW1 6497   2.358   2.687   3.163
 2161SOL    HW2 6498   2.230   2.588   3.140
 2162SOL     OW 6499   3.136   2.248   3.124
 2162SOL    HW1 6500   3.157   2.322   3.188
 2162SOL    HW2 6501   3.047   2.265   3.081
 2163SOL     OW 6502   1.926   3.426   3.193
 2163SOL    HW1 6503   1.880   3.508   3.159
 2163SOL    HW2 6504   2.024   3.445   3.202
 2164SOL     OW 6505   2.229   2.962   2.363
 2164SOL    HW1 6506   2.222   3.045   2.307
 2164SOL    HW2 6507   2.233   2.882   2.303
 2165SOL     OW 6508   3.114   3.210   2.250
 2165SOL    HW1 6509   3.164   3.287   2.290
 2165SOL    HW2 6510   3.019   3.212   2.282
 2166SOL     OW 6511   3.134   3.307   3.004
 2166SOL    HW1 6512   3.181   3.320   3.091
 2166SOL    HW2 6513   3.068   3.233   3.013
 2167SOL     OW 6514   3.444   2.501   2.334
 2167SOL    HW1 6515   3.413   2.562   2.407
 2167SOL    HW2 6516   3.494   2.553   2.265
 2168SOL     OW 6517   2.216   3.372   3.191
 2168SOL    HW1 6518   2.195   3.328   3.104
 2168SOL    HW2 6519   2.313   3.398   3.194
 2169SOL     OW 6520   2.264   2.613   3.460
 2169SOL    HW1 6521   2.332   2.668   3.413
 2169SOL    HW2 6522   2.304   2.525   3.487
 2170SOL     OW 6523   3.449   2.641   3.532
 2170SOL    HW1 6524   3.357   2.679   3.527
 2170SOL    HW2 6525   3.509   2.688   3.467
 2171SOL     OW 6526   2.875   1.967   3.632
 2171SOL    HW1 6527   2.881   2.052   3.580
 2171SOL    HW2 6528   2.907   1.891   3.575
 2172SOL     OW 6529   2.366   1.912   3.602
 2172SOL    HW1 6530   2.324   1.855   3.532
 2172SOL    HW2 6531   2.300   1.981   3.634
 2173SOL     OW 6532   2.435   2.732   2.891
 2173SOL    HW1 6533   2.479   2.821   2.882
 2173SOL    HW2 6534   2.372   2.732   2.968
 2174SOL     OW 6535   3.222   2.724   2.907
 2174SOL    HW1 6536   3.147   2.724   2.841
 2174SOL    HW2 6537   3.259   2.632   2.916
 2175SOL     OW 6538   3.071   2.387   2.137
 2175SOL    HW1 6539   3.084   2.303   2.191
 2175SOL    HW2 6540   3.042   2.461   2.197
 2176SOL     OW 6541   2.169   2.075   3.093
 2176SOL    HW1 6542   2.146   2.112   3.183
 2176SOL    HW2 6543   2.139   1.980   3.087
 2177SOL     OW 6544   1.899   3.172   3.144
 2177SOL    HW1 6545   1.952   3.123   3.212
 2177SOL    HW2 6546   1.921   3.270   3.149
 2178SOL     OW 6547   2.594   2.496   2.926
 2178SOL    HW1 6548   2.653   2.470   2.850
 2178SOL    HW2 6549   2.566   2.592   2.915
 2179SOL     OW 6550   3.590   2.797   3.716
 2179SOL    HW1 6551   3.544   2.790   3.627
 2179SOL    HW2 6552   3.528   2.841   3.782
 2180SOL     OW 6553   2.169   1.925   2.480
 2180SOL    HW1 6554   2.158   2.019   2.513
 2180SOL    HW2 6555   2.164   1.862   2.557
 2181SOL     OW 6556   3.484   2.229   2.236
 2181SOL    HW1 6557   3.486   2.153   2.300
 2181SOL    HW2 6558   3.436   2.306   2.276
 2182SOL     OW 6559   2.885   2.628   2.828
 2182SOL    HW1 6560   2.900   2.649   2.924
 2182SOL    HW2 6561   2.855   2.533   2.819
 2183SOL     OW 6562   2.842   3.435   3.562
 2183SOL    HW1 6563   2.822   3.479   3.474
 2183SOL    HW2 6564   2.881   3.344   3.546
 2184SOL     OW 6565   3.721   3.380   3.467
 2184SOL    HW1 6566   3.735   3.407   3.372
 2184SOL    HW2 6567   3.804   3.402   3.520
 2185SOL     OW 6568   2.212   2.760   3.666
 2185SOL    HW1 6569   2.288   2.804   3.714
 2185SOL    HW2 6570   2.247   2.713   3.584
 2186SOL     OW 6571   3.402   2.136   1.987
 2186SOL    HW1 6572   3.341   2.061   2.010
 2186SOL    HW2 6573   3.424   2.188   2.070
 2187SOL     OW 6574   3.165   2.700   1.904
 2187SOL    HW1 6575   3.199   2.607   1.919
 2187SOL    HW2 6576   3.183   2.727   1.809
 2188SOL     OW 6577   2.930   3.195   2.711
 2188SOL    HW1 6578   2.937   3.111   2.656
 2188SOL    HW2 6579   2.992   3.264   2.675
 2189SOL     OW 6580   2.181   2.672   2.811
 2189SOL    HW1 6581   2.274   2.708   2.816
 2189SOL    HW2 6582   2.175   2.587   2.863
 2190SOL     OW 6583   2.201   2.371   2.868
 2190SOL    HW1 6584   2.149   2.288   2.851
 2190SOL    HW2 6585   2.278   2.376   2.804
 2191SOL     OW 6586   3.000   2.242   3.540
 2191SOL    HW1 6587   2.955   2.305   3.604
 2191SOL    HW2 6588   3.093   2.273   3.523
 2192SOL     OW 6589   3.022   2.069   3.339
 2192SOL    HW1 6590   3.022   2.133   3.416
 2192SOL    HW2 6591   3.050   2.117   3.256
 2193SOL     OW 6592   1.870   3.188   2.062
 2193SOL    HW1 6593   1.777   3.209   2.031
 2193SOL    HW2 6594   1.880   3.089   2.075
 2194SOL     OW 6595   1.950   3.663   2.789
 2194SOL    HW1 6596   1.908   3.577   2.762
 2194SOL    HW2 6597   2.044   3.666   2.755
 2195SOL     OW 6598   2.366   3.430   2.772
 2195SOL    HW1 6599   2.432   3.504   2.781
 2195SOL    HW2 6600   2.410   3.351   2.730
 2196SOL     OW 6601   2.864   2.658   3.100
 2196SOL    HW1 6602   2.905   2.626   3.186
 2196SOL    HW2 6603   2.768   2.631   3.097
 2197SOL     OW 6604   1.902   2.406   2.976
 2197SOL    HW1 6605   1.987   2.373   2.935
 2197SOL    HW2 6606   1.915   2.421   3.074
 2198SOL     OW 6607   2.051   2.382   3.584
 2198SOL    HW1 6608   2.110   2.342   3.514
 2198SOL    HW2 6609   1.993   2.453   3.543
 2199SOL     OW 6610   3.231   2.812   3.522
 2199SOL    HW1 6611   3.270   2.901   3.542
 2199SOL    HW2 6612   3.241   2.792   3.425
 2200SOL     OW 6613   2.677   2.434   2.187
 2200SOL    HW1 6614   2.684   2.345   2.141
 2200SOL    HW2 6615   2.583   2.468   2.179
 2201SOL     OW 6616   3.519   2.466   3.068
 2201SOL    HW1 6617   3.481   2.397   3.130
 2201SOL    HW2 6618   3.601   2.430   3.024
 2202SOL     OW 6619   2.114   3.426   3.606
 2202SOL    HW1 6620   2.084   3.483   3.682
 2202SOL    HW2 6621   2.107   3.329   3.632
 2203SOL     OW 6622   2.533   2.326   3.131
 2203SOL    HW1 6623   2.499   2.237   3.101
 2203SOL    HW2 6624   2.559   2.380   3.051
 2204SOL     OW 6625   2.792   3.540   3.327
 2204SOL    HW1 6626   2.768   3.522   3.232
 2204SOL    HW2 6627   2.822   3.634   3.337
 2205SOL     OW 6628   2.021   2.999   3.328
 2205SOL    HW1 6629   2.043   2.938   3.404
 2205SOL    HW2 6630   2.031   2.950   3.242
 2206SOL     OW 6631   3.209   2.921   3.096
 2206SOL    HW1 6632   3.233   2.858   3.022
 2206SOL    HW2 6633   3.119   2.961   3.078
 2207SOL     OW 6634   3.164   2.717   2.171
 2207SOL    HW1 6635   3.078   2.686   2.213
 2207SOL    HW2 6636   3.160   2.703   2.072
 2208SOL     OW 6637   3.621   3.609   3.016
 2208SOL    HW1 6638   3.682   3.639   2.943
 2208SOL    HW2 6639   3.583   3.520   2.994
 2209SOL     OW 6640   3.114   3.593   2.990
 2209SOL    HW1 6641   3.198   3.598   2.936
 2209SOL    HW2 6642   3.091   3.497   3.008
 2210SOL     OW 6643   1.945   3.120   2.884
 2210SOL    HW1 6644   1.940   3.119   2.984
 2210SOL    HW2 6645   1.862   3.079   2.846
 2211SOL     OW 6646   2.550   3.524   3.578
 2211SOL    HW1 6647   2.494   3.605   3.587
 2211SOL    HW2 6648   2.602   3.528   3.492
 2212SOL     OW 6649   3.588   1.997   2.385
 2212SOL    HW1 6650   3.661   1.980   2.318
 2212SOL    HW2 6651   3.557   1.910   2.423
 2213SOL     OW 6652   3.250   3.435   2.339
 2213SOL    HW1 6653   3.317   3.447   2.265
 2213SOL    HW2 6654   3.210   3.524   2.362
 2214SOL     OW 6655   1.992   3.656   3.713
 2214SOL    HW1 6656   1.951   3.582   3.766
 2214SOL    HW2 6657   2.056   3.707   3.771
 2215SOL     OW 6658   3.142   2.789   2.534
 2215SOL    HW1 6659   3.202   2.708   2.536
 2215SOL    HW2 6660   3.182   2.858   2.474
 2216SOL     OW 6661   2.692   3.135   3.284
 2216SOL    HW1 6662   2.687   3.168   3.379
 2216SOL    HW2 6663   2.606   3.154   3.238
 2217SOL     OW 6664   2.534   3.478   2.016
 2217SOL    HW1 6665   2.543   3.488   1.917
 2217SOL    HW2 6666   2.494   3.389   2.037
 2218SOL     OW 6667   3.512   3.582   3.256
 2218SOL    HW1 6668   3.565   3.592   3.172
 2218SOL    HW2 6669   3.485   3.672   3.290
 2219SOL     OW 6670   3.703   2.037   2.825
 2219SOL    HW1 6671   3.742   1.952   2.789
 2219SOL    HW2 6672   3.605   2.039   2.806
 2220SOL     OW 6673   2.125   2.188   2.582
 2220SOL    HW1 6674   2.046   2.239   2.548
 2220SOL    HW2 6675   2.116   2.173   2.680
 2221SOL     OW 6676   3.056   3.474   1.893
 2221SOL    HW1 6677   3.062   3.381   1.930
 2221SOL    HW2 6678   2.997   3.474   1.813
 2222SOL     OW 6679   2.684   2.864   3.234
 2222SOL    HW1 6680   2.724   2.863   3.142
 2222SOL    HW2 6681   2.694   2.956   3.274
 2223SOL     OW 6682   2.778   2.772   2.153
 2223SOL    HW1 6683   2.841   2.810   2.085
 2223SOL    HW2 6684   2.818   2.689   2.192
 2224SOL     OW 6685   3.366   3.469   1.906
 2224SOL    HW1 6686   3.274   3.506   1.913
 2224SOL    HW2 6687   3.404   3.489   1.816
 2225SOL     OW 6688   2.234   3.150   3.352
 2225SOL    HW1 6689   2.221   3.243   3.318
 2225SOL    HW2 6690   2.150   3.098   3.339
 2226SOL     OW 6691   3.476   3.154   3.151
 2226SOL    HW1 6692   3.536   3.157   3.231
 2226SOL    HW2 6693   3.401   3.218   3.164
 2227SOL     OW 6694   2.901   2.960   2.558
 2227SOL    HW1 6695   2.831   2.913   2.612
 2227SOL    HW2 6696   2.960   2.892   2.515
 2228SOL     OW 6697   2.876   2.098   2.833
 2228SOL    HW1 6698   2.868   2.062   2.740
 2228SOL    HW2 6699   2.874   2.022   2.898
 2229SOL     OW 6700   2.452   3.349   2.353
 2229SOL    HW1 6701   2.494   3.291   2.283
 2229SOL    HW2 6702   2.408   3.428   2.309
 2230SOL     OW 6703   3.571   2.247   3.243
 2230SOL    HW1 6704   3.644   2.316   3.247
 2230SOL    HW2 6705   3.599   2.172   3.184
 2231SOL     OW 6706   2.117   3.210   2.152
 2231SOL    HW1 6707   2.021   3.211   2.125
 2231SOL    HW2 6708   2.129   3.263   2.236
 2232SOL     OW 6709   1.967   2.875   3.588
 2232SOL    HW1 6710   1.890   2.842   3.642
 2232SOL    HW2 6711   2.052   2.845   3.630
 2233SOL     OW 6712   2.534   2.065   3.351
 2233SOL    HW1 6713   2.624   2.049   3.311
 2233SOL    HW2 6714   2.542   2.070   3.450
 2234SOL     OW 6715   1.937   2.207   1.895
 2234SOL    HW1 6716   1.845   2.179   1.866
 2234SOL    HW2 6717   1.968   2.284   1.839
 2235SOL     OW 6718   3.302   2.718   3.260
 2235SOL    HW1 6719   3.245   2.770   3.197
 2235SOL    HW2 6720   3.398   2.730   3.236
 2236SOL     OW 6721   1.934   2.028   2.180
 2236SOL    HW1 6722   1.917   2.111   2.126
 2236SOL    HW2 6723   2.024   1.991   2.158
 2237SOL     OW 6724   3.045   3.197   1.981
 2237SOL    HW1 6725   2.946   3.186   1.983
 2237SOL    HW2 6726   3.079   3.212   2.074
 2238SOL     OW 6727   2.475   2.704   3.293
 2238SOL    HW1 6728   2.531   2.785   3.276
 2238SOL    HW2 6729   2.534   2.624   3.296
 2239SOL     OW 6730   3.355   3.629   2.821
 2239SOL    HW1 6731   3.388   3.693   2.752
 2239SOL    HW2 6732   3.421   3.623   2.896
 2240SOL     OW 6733   2.578   2.427   3.570
 2240SOL    HW1 6734   2.597   2.492   3.644
 2240SOL    HW2 6735   2.638   2.347   3.579
 2241SOL     OW 6736   3.312   3.082   3.495
 2241SOL    HW1 6737   3.303   3.072   3.594
 2241SOL    HW2 6738   3.408   3.075   3.469
 2242SOL     OW 6739   2.252   3.603   3.422
 2242SOL    HW1 6740   2.161   3.644   3.420
 2242SOL    HW2 6741   2.245   3.509   3.454
 2243SOL     OW 6742   3.536   2.745   3.116
 2243SOL    HW1 6743   3.509   2.656   3.079
 2243SOL    HW2 6744   3.537   2.813   3.043
 2244SOL     OW 6745   3.087   2.187   2.311
 2244SOL    HW1 6746   3.152   2.113   2.300
 2244SOL    HW2 6747   3.107   2.237   2.395
 2245SOL     OW 6748   3.639   2.204   3.504
 2245SOL    HW1 6749   3.622   2.235   3.410
 2245SOL    HW2 6750   3.555   2.167   3.542
 2246SOL     OW 6751   3.592   2.796   3.379
 2246SOL    HW1 6752   3.630   2.887   3.394
 2246SOL    HW2 6753   3.584   2.779   3.280
 2247SOL     OW 6754   2.721   3.236   1.878
 2247SOL    HW1 6755   2.675   3.251   1.966
 2247SOL    HW2 6756   2.765   3.321   1.848
 2248SOL     OW 6757   2.523   3.652   2.815
 2248SOL    HW1 6758   2.477   3.740   2.802
 2248SOL    HW2 6759   2.622   3.664   2.808
 2249SOL     OW 6760   2.721   2.818   2.723
 2249SOL    HW1 6761   2.775   2.749   2.771
 2249SOL    HW2 6762   2.689   2.887   2.789
 2250SOL     OW 6763   2.945   2.846   1.949
 2250SOL    HW1 6764   2.922   2.899   1.867
 2250SOL    HW2 6765   3.026   2.790   1.930
 2251SOL     OW 6766   3.723   3.431   2.713
 2251SOL    HW1 6767   3.652   3.419   2.643
 2251SOL    HW2 6768   3.724   3.352   2.773
 2252SOL     OW 6769   2.083   3.176   3.706
 2252SOL    HW1 6770   2.018   3.103   3.685
 2252SOL    HW2 6771   2.087   3.190   3.804
 2253SOL     OW 6772   1.941   3.102   2.515
 2253SOL    HW1 6773   1.940   3.055   2.603
 2253SOL    HW2 6774   2.023   3.074   2.464
 2254SOL     OW 6775   2.534   3.253   3.486
 2254SOL    HW1 6776   2.456   3.203   3.524
 2254SOL    HW2 6777   2.531   3.348   3.517
 2255SOL     OW 6778   3.686   2.054   3.089
 2255SOL    HW1 6779   3.682   1.964   3.133
 2255SOL    HW2 6780   3.689   2.043   2.990
 2256SOL     OW 6781   3.567   3.349   2.966
 2256SOL    HW1 6782   3.474   3.324   2.939
 2256SOL    HW2 6783   3.593   3.299   3.048
 2257SOL     OW 6784   2.179   2.409   3.142
 2257SOL    HW1 6785   2.217   2.350   3.214
 2257SOL    HW2 6786   2.219   2.383   3.054
 2258SOL     OW 6787   2.674   3.448   2.549
 2258SOL    HW1 6788   2.706   3.458   2.455
 2258SOL    HW2 6789   2.595   3.386   2.551
 2259SOL     OW 6790   3.286   2.076   2.974
 2259SOL    HW1 6791   3.338   2.011   3.029
 2259SOL    HW2 6792   3.237   2.139   3.035
 2260SOL     OW 6793   2.863   1.896   3.016
 2260SOL    HW1 6794   2.800   1.824   2.985
 2260SOL    HW2 6795   2.956   1.860   3.016
 2261SOL     OW 6796   2.632   3.192   2.163
 2261SOL    HW1 6797   2.586   3.105   2.180
 2261SOL    HW2 6798   2.723   3.189   2.204
 2262SOL     OW 6799   2.480   3.429   3.146
 2262SOL    HW1 6800   2.475   3.511   3.203
 2262SOL    HW2 6801   2.569   3.426   3.101
 2263SOL     OW 6802   3.214   1.914   2.030
 2263SOL    HW1 6803   3.249   1.873   1.946
 2263SOL    HW2 6804   3.124   1.876   2.050
 2264SOL     OW 6805   3.162   2.315   2.553
 2264SOL    HW1 6806   3.103   2.395   2.557
 2264SOL    HW2 6807   3.177   2.280   2.646
 2265SOL     OW 6808   3.455   2.083   2.744
 2265SOL    HW1 6809   3.371   2.082   2.798
 2265SOL    HW2 6810   3.457   2.166   2.688
 2266SOL     OW 6811   1.901   2.939   2.162
 2266SOL    HW1 6812   2.000   2.928   2.153
 2266SOL    HW2 6813   1.861   2.853   2.194
 2267SOL     OW 6814   2.737   3.508   2.199
 2267SOL    HW1 6815   2.660   3.473   2.145
 2267SOL    HW2 6816   2.705   3.579   2.261
 2268SOL     OW 6817   2.092   2.490   3.837
 2268SOL    HW1 6818   1.999   2.488   3.874
 2268SOL    HW2 6819   2.093   2.451   3.745
 2269SOL     OW 6820   2.087   2.137   4.720
 2269SOL    HW1 6821   2.122   2.120   4.812
 2269SOL    HW2 6822   1.999   2.092   4.708
 2270SOL     OW 6823   1.881   2.230   4.371
 2270SOL    HW1 6824   1.799   2.273   4.410
 2270SOL    HW2 6825   1.853   2.157   4.308
 2271SOL     OW 6826   3.417   3.373   4.427
 2271SOL    HW1 6827   3.360   3.357   4.508
 2271SOL    HW2 6828   3.358   3.383   4.347
 2272SOL     OW 6829   2.997   2.565   4.441
 2272SOL    HW1 6830   3.054   2.643   4.416
 2272SOL    HW2 6831   2.937   2.591   4.517
 2273SOL     OW 6832   3.617   2.469   3.955
 2273SOL    HW1 6833   3.605   2.456   3.856
 2273SOL    HW2 6834   3.587   2.388   4.004
 2274SOL     OW 6835   2.547   2.874   4.389
 2274SOL    HW1 6836   2.616   2.858   4.459
 2274SOL    HW2 6837   2.474   2.931   4.427
 2275SOL     OW 6838   3.465   2.309   4.461
 2275SOL    HW1 6839   3.391   2.355   4.411
 2275SOL    HW2 6840   3.516   2.377   4.514
 2276SOL     OW 6841   2.093   3.575   4.207
 2276SOL    HW1 6842   2.127   3.652   4.261
 2276SOL    HW2 6843   2.137   3.575   4.117
 2277SOL     OW 6844   2.092   3.296   4.262
 2277SOL    HW1 6845   2.066   3.392   4.262
 2277SOL    HW2 6846   2.021   3.242   4.307
 2278SOL     OW 6847   2.102   2.953   4.610
 2278SOL    HW1 6848   2.116   2.869   4.662
 2278SOL    HW2 6849   2.047   3.017   4.665
 2279SOL     OW 6850   2.468   2.826   3.847
 2279SOL    HW1 6851   2.475   2.910   3.793
 2279SOL    HW2 6852   2.514   2.839   3.935
 2280SOL     OW 6853   1.984   2.505   4.287
 2280SOL    HW1 6854   1.939   2.417   4.304
 2280SOL    HW2 6855   1.983   2.559   4.371
 2281SOL     OW 6856   3.704   3.629   4.083
 2281SOL    HW1 6857   3.758   3.600   4.163
 2281SOL    HW2 6858   3.734   3.719   4.054
 2282SOL     OW 6859   1.889   3.458   3.841
 2282SOL    HW1 6860   1.870   3.362   3.862
 2282SOL    HW2 6861   1.856   3.516   3.916
 2283SOL     OW 6862   3.551   2.784   4.336
 2283SOL    HW1 6863   3.646   2.755   4.344
 2283SOL    HW2 6864   3.543   2.849   4.261
 2284SOL     OW 6865   3.503   2.970   4.156
 2284SOL    HW1 6866   3.589   2.972   4.104
 2284SOL    HW2 6867   3.517   3.017   4.244
 2285SOL     OW 6868   2.475   3.227   4.450
 2285SOL    HW1 6869   2.426   3.140   4.459
 2285SOL    HW2 6870   2.452   3.270   4.363
 2286SOL     OW 6871   2.671   1.866   4.226
 2286SOL    HW1 6872   2.711   1.957   4.217
 2286SOL    HW2 6873   2.571   1.874   4.232
 2287SOL     OW 6874   3.387   2.861   3.914
 2287SOL    HW1 6875   3.324   2.785   3.927
 2287SOL    HW2 6876   3.435   2.879   4.000
 2288SOL     OW 6877   3.328   3.279   4.677
 2288SOL    HW1 6878   3.269   3.285   4.757
 2288SOL    HW2 6879   3.313   3.191   4.631
 2289SOL     OW 6880   3.529   3.576   4.296
 2289SOL    HW1 6881   3.488   3.553   4.208
 2289SOL    HW2 6882   3.511   3.502   4.361
 2290SOL     OW 6883   2.460   2.591   3.994
 2290SOL    HW1 6884   2.484   2.660   3.926
 2290SOL    HW2 6885   2.382   2.624   4.048
 2291SOL     OW 6886   3.143   2.207   4.668
 2291SOL    HW1 6887   3.057   2.157   4.655
 2291SOL    HW2 6888   3.205   2.153   4.724
 2292SOL     OW 6889   3.438   3.524   4.031
 2292SOL    HW1 6890   3.527   3.570   4.034
 2292SOL    HW2 6891   3.417   3.500   3.936
 2293SOL     OW 6892   2.903   2.563   4.153
 2293SOL    HW1 6893   2.929   2.559   4.249
 2293SOL    HW2 6894   2.818   2.512   4.139
 2294SOL     OW 6895   1.938   2.673   4.513
 2294SOL    HW1 6896   2.037   2.661   4.522
 2294SOL    HW2 6897   1.914   2.768   4.534
 2295SOL     OW 6898   2.727   2.210   3.919
 2295SOL    HW1 6899   2.786   2.273   3.870
 2295SOL    HW2 6900   2.746   2.116   3.890
 2296SOL     OW 6901   3.224   3.006   4.269
 2296SOL    HW1 6902   3.307   2.977   4.221
 2296SOL    HW2 6903   3.175   3.073   4.213
 2297SOL     OW 6904   2.412   2.058   4.609
 2297SOL    HW1 6905   2.407   2.053   4.709
 2297SOL    HW2 6906   2.414   2.154   4.580
 2298SOL     OW 6907   2.870   3.318   4.201
 2298SOL    HW1 6908   2.824   3.390   4.149
 2298SOL    HW2 6909   2.866   3.338   4.299
 2299SOL     OW 6910   2.213   3.663   4.577
 2299SOL    HW1 6911   2.263   3.577   4.583
 2299SOL    HW2 6912   2.278   3.740   4.574
 2300SOL     OW 6913   3.657   2.928   4.597
 2300SOL    HW1 6914   3.595   2.913   4.521
 2300SOL    HW2 6915   3.605   2.939   4.682
 2301SOL     OW 6916   2.183   2.805   3.966
 2301SOL    HW1 6917   2.265   2.844   3.924
 2301SOL    HW2 6918   2.156   2.723   3.917
 2302SOL     OW 6919   3.320   2.597   4.452
 2302SOL    HW1 6920   3.315   2.532   4.527
 2302SOL    HW2 6921   3.400   2.656   4.465
 2303SOL     OW 6922   2.973   3.638   3.961
 2303SOL    HW1 6923   2.913   3.576   4.011
 2303SOL    HW2 6924   3.004   3.594   3.876
 2304SOL     OW 6925   3.494   3.239   3.805
 2304SOL    HW1 6926   3.462   3.333   3.795
 2304SOL    HW2 6927   3.418   3.176   3.793
 2305SOL     OW 6928   2.326   3.605   4.047
 2305SOL    HW1 6929   2.359   3.644   4.133
 2305SOL    HW2 6930   2.402   3.598   3.982
 2306SOL     OW 6931   3.262   1.969   4.150
 2306SOL    HW1 6932   3.238   1.932   4.060
 2306SOL    HW2 6933   3.361   1.985   4.154
 2307SOL     OW 6934   2.244   2.562   4.204
 2307SOL    HW1 6935   2.289   2.472   4.201
 2307SOL    HW2 6936   2.150   2.551   4.237
 2308SOL     OW 6937   2.476   1.984   3.841
 2308SOL    HW1 6938   2.574   1.962   3.848
 2308SOL    HW2 6939   2.445   1.967   3.748
 2309SOL     OW 6940   2.401   1.926   4.236
 2309SOL    HW1 6941   2.320   1.927   4.294
 2309SOL    HW2 6942   2.404   2.009   4.181
 2310SOL     OW 6943   3.296   3.050   3.765
 2310SOL    HW1 6944   3.328   2.974   3.822
 2310SOL    HW2 6945   3.204   3.077   3.795
 2311SOL     OW 6946   2.159   1.897   3.895
 2311SOL    HW1 6947   2.208   1.981   3.874
 2311SOL    HW2 6948   2.221   1.832   3.940
 2312SOL     OW 6949   2.797   2.098   4.204
 2312SOL    HW1 6950   2.749   2.139   4.126
 2312SOL    HW2 6951   2.896   2.096   4.185
 2313SOL     OW 6952   3.089   3.432   4.517
 2313SOL    HW1 6953   3.110   3.506   4.452
 2313SOL    HW2 6954   3.157   3.432   4.590
 2314SOL     OW 6955   2.321   3.014   4.465
 2314SOL    HW1 6956   2.250   2.987   4.530
 2314SOL    HW2 6957   2.295   2.986   4.372
 2315SOL     OW 6958   3.133   3.659   4.315
 2315SOL    HW1 6959   3.177   3.723   4.251
 2315SOL    HW2 6960   3.083   3.711   4.385
 2316SOL     OW 6961   2.894   2.411   3.740
 2316SOL    HW1 6962   2.853   2.493   3.701
 2316SOL    HW2 6963   2.958   2.437   3.813
 2317SOL     OW 6964   2.728   2.316   4.366
 2317SOL    HW1 6965   2.696   2.388   4.304
 2317SOL    HW2 6966   2.752   2.235   4.313
 2318SOL     OW 6967   2.879   1.901   4.477
 2318SOL    HW1 6968   2.807   1.906   4.408
 2318SOL    HW2 6969   2.855   1.832   4.546
 2319SOL     OW 6970   3.719   2.695   4.101
 2319SOL    HW1 6971   3.761   2.631   4.165
 2319SOL    HW2 6972   3.681   2.644   4.023
 2320SOL     OW 6973   2.350   3.247   3.898
 2320SOL    HW1 6974   2.263   3.232   3.945
 2320SOL    HW2 6975   2.333   3.273   3.803
 2321SOL     OW 6976   3.526   3.142   4.381
 2321SOL    HW1 6977   3.625   3.150   4.395
 2321SOL    HW2 6978   3.481   3.226   4.412
 2322SOL     OW 6979   3.252   2.437   3.802
 2322SOL    HW1 6980   3.198   2.416   3.883
 2322SOL    HW2 6981   3.343   2.396   3.811
 2323SOL     OW 6982   2.389   2.118   4.052
 2323SOL    HW1 6983   2.416   2.059   3.977
 2323SOL    HW2 6984   2.389   2.213   4.021
 2324SOL     OW 6985   2.567   2.912   4.092
 2324SOL    HW1 6986   2.553   2.919   4.191
 2324SOL    HW2 6987   2.651   2.861   4.074
 2325SOL     OW 6988   2.229   2.962   4.225
 2325SOL    HW1 6989   2.222   3.045   4.169
 2325SOL    HW2 6990   2.233   2.882   4.165
 2326SOL     OW 6991   2.428   2.399   4.589
 2326SOL    HW1 6992   2.440   2.465   4.515
 2326SOL    HW2 6993   2.474   2.433   4.672
 2327SOL     OW 6994   3.114   3.210   4.112
 2327SOL    HW1 6995   3.164   3.287   4.152
 2327SOL    HW2 6996   3.019   3.212   4.144
 2328SOL     OW 6997   3.444   2.501   4.196
 2328SOL    HW1 6998   3.413   2.562   4.269
 2328SOL    HW2 6999   3.494   2.553   4.127
 2329SOL     OW 7000   3.071   2.387   3.999
 2329SOL    HW1 7001   3.084   2.303   4.053
 2329SOL    HW2 7002   3.042   2.461   4.059
 2330SOL     OW 7003   2.594   2.496   4.788
 2330SOL    HW1 7004   2.653   2.470   4.712
 2330SOL    HW2 7005   2.566   2.592   4.777
 2331SOL     OW 7006   2.169   1.925   4.342
 2331SOL    HW1 7007   2.158   2.019   4.375
 2331SOL    HW2 7008   2.164   1.862   4.419
 2332SOL     OW 7009   3.484   2.229   4.098
 2332SOL    HW1 7010   3.486   2.153   4.162
 2332SOL    HW2 7011   3.436   2.306   4.138
 2333SOL     OW 7012   3.402   2.136   3.849
 2333SOL    HW1 7013   3.341   2.061   3.872
 2333SOL    HW2 7014   3.424   2.188   3.932
 2334SOL     OW 7015   3.165   2.700   3.766
 2334SOL    HW1 7016   3.199   2.607   3.781
 2334SOL    HW2 7017   3.183   2.727   3.671
 2335SOL     OW 7018   2.930   3.195   4.573
 2335SOL    HW1 7019   2.937   3.111   4.518
 2335SOL    HW2 7020   2.992   3.264   4.537
 2336SOL     OW 7021   1.870   3.188   3.924
 2336SOL    HW1 7022   1.777   3.209   3.893
 2336SOL    HW2 7023   1.880   3.089   3.937
 2337SOL     OW 7024   1.950   3.663   4.651
 2337SOL    HW1 7025   1.908   3.577   4.624
 2337SOL    HW2 7026   2.044   3.666   4.617
 2338SOL     OW 7027   2.366   3.430   4.634
 2338SOL    HW1 7028   2.432   3.504   4.643
 2338SOL    HW2 7029   2.410   3.351   4.592
 2339SOL     OW 7030   2.677   2.434   4.049
 2339SOL    HW1 7031   2.684   2.345   4.003
 2339SOL    HW2 7032   2.583   2.468   4.041
 2340SOL     OW 7033   2.335   2.362   3.915
 2340SOL    HW1 7034   2.396   2.442   3.919
 2340SOL    HW2 7035   2.240   2.393   3.922
 2341SOL     OW 7036   3.164   2.717   4.033
 2341SOL    HW1 7037   3.078   2.686   4.075
 2341SOL    HW2 7038   3.160   2.703   3.934
 2342SOL     OW 7039   3.588   1.997   4.247
 2342SOL    HW1 7040   3.661   1.980   4.180
 2342SOL    HW2 7041   3.557   1.910   4.285
 2343SOL     OW 7042   3.250   3.435   4.201
 2343SOL    HW1 7043   3.317   3.447   4.127
 2343SOL    HW2 7044   3.210   3.524   4.224
 2344SOL     OW 7045   3.142   2.789   4.396
 2344SOL    HW1 7046   3.202   2.708   4.398
 2344SOL    HW2 7047   3.182   2.858   4.336
 2345SOL     OW 7048   2.534   3.478   3.878
 2345SOL    HW1 7049   2.543   3.488   3.779
 2345SOL    HW2 7050   2.494   3.389   3.899
 2346SOL     OW 7051   3.703   2.037   4.687
 2346SOL    HW1 7052   3.742   1.952   4.651
 2346SOL    HW2 7053   3.605   2.039   4.668
 2347SOL     OW 7054   2.125   2.188   4.444
 2347SOL    HW1 7055   2.046   2.239   4.410
 2347SOL    HW2 7056   2.116   2.173   4.542
 2348SOL     OW 7057   3.056   3.474   3.755
 2348SOL    HW1 7058   3.062   3.381   3.792
 2348SOL    HW2 7059   2.997   3.474   3.675
 2349SOL     OW 7060   2.778   2.772   4.015
 2349SOL    HW1 7061   2.841   2.810   3.947
 2349SOL    HW2 7062   2.818   2.689   4.054
 2350SOL     OW 7063   3.366   3.469   3.768
 2350SOL    HW1 7064   3.274   3.506   3.775
 2350SOL    HW2 7065   3.404   3.489   3.678
 2351SOL     OW 7066   2.901   2.960   4.420
 2351SOL    HW1 7067   2.831   2.913   4.474
 2351SOL    HW2 7068   2.960   2.892   4.377
 2352SOL     OW 7069   2.452   3.349   4.215
 2352SOL    HW1 7070   2.494   3.291   4.145
 2352SOL    HW2 7071   2.408   3.428   4.171
 2353SOL     OW 7072   2.117   3.210   4.014
 2353SOL    HW1 7073   2.021   3.211   3.987
 2353SOL    HW2 7074   2.129   3.263   4.098
 2354SOL     OW 7075   1.937   2.207   3.757
 2354SOL    HW1 7076   1.845   2.179   3.728
 2354SOL    HW2 7077   1.968   2.284   3.701
 2355SOL     OW 7078   1.934   2.028   4.042
 2355SOL    HW1 7079   1.917   2.111   3.988
 2355SOL    HW2 7080   2.024   1.991   4.020
 2356SOL     OW 7081   3.045   3.197   3.843
 2356SOL    HW1 7082   2.946   3.186   3.845
 2356SOL    HW2 7083   3.079   3.212   3.936
 2357SOL     OW 7084   3.087   2.187   4.173
 2357SOL    HW1 7085   3.152   2.113   4.162
 2357SOL    HW2 7086   3.107   2.237   4.257
 2358SOL     OW 7087   2.456   2.607   4.376
 2358SOL    HW1 7088   2.506   2.692   4.357
 2358SOL    HW2 7089   2.368   2.609   4.328
 2359SOL     OW 7090   2.721   3.236   3.740
 2359SOL    HW1 7091   2.675   3.251   3.828
 2359SOL    HW2 7092   2.765   3.321   3.710
 2360SOL     OW 7093   2.523   3.652   4.677
 2360SOL    HW1 7094   2.477   3.740   4.664
 2360SOL    HW2 7095   2.622   3.664   4.670
 2361SOL     OW 7096   2.721   2.818   4.585
 2361SOL    HW1 7097   2.775   2.749   4.633
 2361SOL    HW2 7098   2.689   2.887   4.651
 2362SOL     OW 7099   2.945   2.846   3.811
 2362SOL    HW1 7100   2.922   2.899   3.729
 2362SOL    HW2 7101   3.026   2.790   3.792
 2363SOL     OW 7102   3.723   3.431   4.575
 2363SOL    HW1 7103   3.652   3.419   4.505
 2363SOL    HW2 7104   3.724   3.352   4.635
 2364SOL     OW 7105   1.941   3.102   4.377
 2364SOL    HW1 7106   1.940   3.055   4.465
 2364SOL    HW2 7107   2.023   3.074   4.326
 2365SOL     OW 7108   2.290   2.286   4.244
 2365SOL    HW1 7109   2.320   2.214   4.182
 2365SOL    HW2 7110   2.251   2.246   4.327
 2366SOL     OW 7111   2.674   3.448   4.411
 2366SOL    HW1 7112   2.706   3.458   4.317
 2366SOL    HW2 7113   2.595   3.386   4.413
 2367SOL     OW 7114   2.632   3.192   4.025
 2367SOL    HW1 7115   2.586   3.105   4.042
 2367SOL    HW2 7116   2.723   3.189   4.066
 2368SOL     OW 7117   3.214   1.914   3.892
 2368SOL    HW1 7118   3.249   1.873   3.808
 2368SOL    HW2 7119   3.124   1.876   3.912
 2369SOL     OW 7120   3.162   2.315   4.415
 2369SOL    HW1 7121   3.103   2.395   4.419
 2369SOL    HW2 7122   3.177   2.280   4.508
 2370SOL     OW 7123   3.455   2.083   4.606
 2370SOL    HW1 7124   3.371   2.082   4.660
 2370SOL    HW2 7125   3.457   2.166   4.550
 2371SOL     OW 7126   1.901   2.939   4.024
 2371SOL    HW1 7127   2.000   2.928   4.015
 2371SOL    HW2 7128   1.861   2.853   4.056
 2372SOL     OW 7129   2.737   3.508   4.061
 2372SOL    HW1 7130   2.660   3.473   4.007
 2372SOL    HW2 7131   2.705   3.579   4.123
 2373SOL     OW 7132   2.092   4.352   0.113
 2373SOL    HW1 7133   1.999   4.350   0.150
 2373SOL    HW2 7134   2.093   4.313   0.021
 2374SOL     OW 7135   2.087   3.999   0.996
 2374SOL    HW1 7136   2.122   3.982   1.088
 2374SOL    HW2 7137   1.999   3.954   0.984
 2375SOL     OW 7138   1.881   4.092   0.647
 2375SOL    HW1 7139   1.799   4.135   0.686
 2375SOL    HW2 7140   1.853   4.019   0.584
 2376SOL     OW 7141   2.997   4.427   0.717
 2376SOL    HW1 7142   3.054   4.505   0.692
 2376SOL    HW2 7143   2.937   4.453   0.793
 2377SOL     OW 7144   3.617   4.331   0.231
 2377SOL    HW1 7145   3.605   4.318   0.132
 2377SOL    HW2 7146   3.587   4.250   0.280
 2378SOL     OW 7147   2.712   4.522   1.823
 2378SOL    HW1 7148   2.708   4.598   1.888
 2378SOL    HW2 7149   2.734   4.558   1.732
 2379SOL     OW 7150   2.547   4.736   0.665
 2379SOL    HW1 7151   2.616   4.720   0.735
 2379SOL    HW2 7152   2.474   4.793   0.703
 2380SOL     OW 7153   2.300   4.116   1.499
 2380SOL    HW1 7154   2.382   4.060   1.508
 2380SOL    HW2 7155   2.219   4.058   1.503
 2381SOL     OW 7156   3.465   4.171   0.737
 2381SOL    HW1 7157   3.391   4.217   0.687
 2381SOL    HW2 7158   3.516   4.239   0.790
 2382SOL     OW 7159   3.456   3.838   1.480
 2382SOL    HW1 7160   3.438   3.905   1.408
 2382SOL    HW2 7161   3.453   3.884   1.569
 2383SOL     OW 7162   1.984   4.367   0.563
 2383SOL    HW1 7163   1.939   4.279   0.580
 2383SOL    HW2 7164   1.983   4.421   0.647
 2384SOL     OW 7165   1.975   4.461   1.597
 2384SOL    HW1 7166   2.063   4.448   1.642
 2384SOL    HW2 7167   1.962   4.558   1.575
 2385SOL     OW 7168   2.671   3.728   0.502
 2385SOL    HW1 7169   2.711   3.819   0.493
 2385SOL    HW2 7170   2.571   3.736   0.508
 2386SOL     OW 7171   2.179   3.975   1.801
 2386SOL    HW1 7172   2.250   4.046   1.807
 2386SOL    HW2 7173   2.091   4.014   1.829
 2387SOL     OW 7174   2.460   4.453   0.270
 2387SOL    HW1 7175   2.484   4.522   0.202
 2387SOL    HW2 7176   2.382   4.486   0.324
 2388SOL     OW 7177   3.143   4.069   0.944
 2388SOL    HW1 7178   3.057   4.019   0.931
 2388SOL    HW2 7179   3.205   4.015   1.000
 2389SOL     OW 7180   2.669   4.329   1.465
 2389SOL    HW1 7181   2.622   4.326   1.554
 2389SOL    HW2 7182   2.618   4.274   1.399
 2390SOL     OW 7183   3.256   4.193   1.674
 2390SOL    HW1 7184   3.236   4.236   1.762
 2390SOL    HW2 7185   3.334   4.131   1.683
 2391SOL     OW 7186   2.835   4.614   1.572
 2391SOL    HW1 7187   2.881   4.530   1.543
 2391SOL    HW2 7188   2.779   4.648   1.497
 2392SOL     OW 7189   2.853   4.134   1.242
 2392SOL    HW1 7190   2.776   4.168   1.296
 2392SOL    HW2 7191   2.819   4.083   1.163
 2393SOL     OW 7192   2.903   4.425   0.429
 2393SOL    HW1 7193   2.929   4.421   0.525
 2393SOL    HW2 7194   2.818   4.374   0.415
 2394SOL     OW 7195   1.938   4.535   0.789
 2394SOL    HW1 7196   2.037   4.523   0.798
 2394SOL    HW2 7197   1.914   4.630   0.810
 2395SOL     OW 7198   2.727   4.072   0.195
 2395SOL    HW1 7199   2.786   4.135   0.146
 2395SOL    HW2 7200   2.746   3.978   0.166
 2396SOL     OW 7201   3.581   4.309   1.831
 2396SOL    HW1 7202   3.555   4.398   1.795
 2396SOL    HW2 7203   3.579   4.241   1.758
 2397SOL     OW 7204   2.412   3.920   0.885
 2397SOL    HW1 7205   2.407   3.915   0.985
 2397SOL    HW2 7206   2.414   4.016   0.856
 2398SOL     OW 7207   3.320   4.459   0.728
 2398SOL    HW1 7208   3.315   4.394   0.803
 2398SOL    HW2 7209   3.400   4.518   0.741
 2399SOL     OW 7210   2.064   4.009   1.498
 2399SOL    HW1 7211   1.984   4.069   1.485
 2399SOL    HW2 7212   2.054   3.960   1.584
 2400SOL     OW 7213   3.262   3.831   0.426
 2400SOL    HW1 7214   3.238   3.794   0.336
 2400SOL    HW2 7215   3.361   3.847   0.430
 2401SOL     OW 7216   2.244   4.424   0.480
 2401SOL    HW1 7217   2.289   4.334   0.477
 2401SOL    HW2 7218   2.150   4.413   0.513
 2402SOL     OW 7219   3.409   3.946   1.729
 2402SOL    HW1 7220   3.404   3.983   1.821
 2402SOL    HW2 7221   3.337   3.877   1.717
 2403SOL     OW 7222   2.643   3.988   1.749
 2403SOL    HW1 7223   2.710   3.927   1.792
 2403SOL    HW2 7224   2.570   4.007   1.814
 2404SOL     OW 7225   3.213   4.314   1.433
 2404SOL    HW1 7226   3.241   4.271   1.518
 2404SOL    HW2 7227   3.238   4.410   1.434
 2405SOL     OW 7228   2.784   4.227   0.899
 2405SOL    HW1 7229   2.759   4.218   0.803
 2405SOL    HW2 7230   2.832   4.145   0.930
 2406SOL     OW 7231   2.401   3.788   0.512
 2406SOL    HW1 7232   2.320   3.789   0.570
 2406SOL    HW2 7233   2.404   3.871   0.457
 2407SOL     OW 7234   2.159   3.759   0.171
 2407SOL    HW1 7235   2.208   3.843   0.150
 2407SOL    HW2 7236   2.221   3.694   0.216
 2408SOL     OW 7237   2.797   3.960   0.480
 2408SOL    HW1 7238   2.749   4.001   0.402
 2408SOL    HW2 7239   2.896   3.958   0.461
 2409SOL     OW 7240   2.938   4.407   1.464
 2409SOL    HW1 7241   2.858   4.346   1.467
 2409SOL    HW2 7242   3.019   4.354   1.440
 2410SOL     OW 7243   2.894   4.273   0.016
 2410SOL    HW1 7244   2.853   4.355  -0.023
 2410SOL    HW2 7245   2.958   4.299   0.089
 2411SOL     OW 7246   1.940   4.280   1.386
 2411SOL    HW1 7247   2.032   4.279   1.345
 2411SOL    HW2 7248   1.934   4.354   1.453
 2412SOL     OW 7249   2.423   3.946   1.147
 2412SOL    HW1 7250   2.461   3.862   1.184
 2412SOL    HW2 7251   2.335   3.965   1.191
 2413SOL     OW 7252   2.728   4.178   0.642
 2413SOL    HW1 7253   2.696   4.250   0.580
 2413SOL    HW2 7254   2.752   4.097   0.589
 2414SOL     OW 7255   2.879   3.763   0.753
 2414SOL    HW1 7256   2.807   3.768   0.684
 2414SOL    HW2 7257   2.855   3.694   0.822
 2415SOL     OW 7258   3.328   4.314   0.992
 2415SOL    HW1 7259   3.298   4.219   0.999
 2415SOL    HW2 7260   3.401   4.330   1.058
 2416SOL     OW 7261   3.719   4.557   0.377
 2416SOL    HW1 7262   3.761   4.493   0.441
 2416SOL    HW2 7263   3.681   4.506   0.299
 2417SOL     OW 7264   3.252   4.299   0.078
 2417SOL    HW1 7265   3.198   4.278   0.159
 2417SOL    HW2 7266   3.343   4.258   0.087
 2418SOL     OW 7267   2.389   3.980   0.328
 2418SOL    HW1 7268   2.416   3.921   0.253
 2418SOL    HW2 7269   2.389   4.075   0.297
 2419SOL     OW 7270   2.777   3.813   1.402
 2419SOL    HW1 7271   2.802   3.793   1.307
 2419SOL    HW2 7272   2.849   3.869   1.444
 2420SOL     OW 7273   2.272   4.537   1.251
 2420SOL    HW1 7274   2.358   4.549   1.301
 2420SOL    HW2 7275   2.230   4.450   1.278
 2421SOL     OW 7276   3.136   4.110   1.262
 2421SOL    HW1 7277   3.157   4.184   1.326
 2421SOL    HW2 7278   3.047   4.127   1.219
 2422SOL     OW 7279   2.428   4.261   0.865
 2422SOL    HW1 7280   2.440   4.327   0.791
 2422SOL    HW2 7281   2.474   4.295   0.948
 2423SOL     OW 7282   3.444   4.363   0.472
 2423SOL    HW1 7283   3.413   4.424   0.545
 2423SOL    HW2 7284   3.494   4.415   0.403
 2424SOL     OW 7285   2.264   4.475   1.598
 2424SOL    HW1 7286   2.332   4.530   1.551
 2424SOL    HW2 7287   2.304   4.387   1.625
 2425SOL     OW 7288   3.449   4.503   1.670
 2425SOL    HW1 7289   3.357   4.541   1.665
 2425SOL    HW2 7290   3.509   4.550   1.605
 2426SOL     OW 7291   2.875   3.829   1.770
 2426SOL    HW1 7292   2.881   3.914   1.718
 2426SOL    HW2 7293   2.907   3.753   1.713
 2427SOL     OW 7294   2.366   3.774   1.740
 2427SOL    HW1 7295   2.324   3.717   1.670
 2427SOL    HW2 7296   2.300   3.843   1.772
 2428SOL     OW 7297   2.435   4.594   1.029
 2428SOL    HW1 7298   2.479   4.683   1.020
 2428SOL    HW2 7299   2.372   4.594   1.106
 2429SOL     OW 7300   3.222   4.586   1.045
 2429SOL    HW1 7301   3.147   4.586   0.979
 2429SOL    HW2 7302   3.259   4.494   1.054
 2430SOL     OW 7303   3.071   4.249   0.275
 2430SOL    HW1 7304   3.084   4.165   0.329
 2430SOL    HW2 7305   3.042   4.323   0.335
 2431SOL     OW 7306   2.169   3.937   1.231
 2431SOL    HW1 7307   2.146   3.974   1.321
 2431SOL    HW2 7308   2.139   3.842   1.225
 2432SOL     OW 7309   2.594   4.358   1.064
 2432SOL    HW1 7310   2.653   4.332   0.988
 2432SOL    HW2 7311   2.566   4.454   1.053
 2433SOL     OW 7312   3.590   4.659   1.854
 2433SOL    HW1 7313   3.544   4.652   1.765
 2433SOL    HW2 7314   3.528   4.703   1.920
 2434SOL     OW 7315   2.169   3.787   0.618
 2434SOL    HW1 7316   2.158   3.881   0.651
 2434SOL    HW2 7317   2.164   3.724   0.695
 2435SOL     OW 7318   3.484   4.091   0.374
 2435SOL    HW1 7319   3.486   4.015   0.438
 2435SOL    HW2 7320   3.436   4.168   0.414
 2436SOL     OW 7321   2.885   4.490   0.966
 2436SOL    HW1 7322   2.900   4.511   1.062
 2436SOL    HW2 7323   2.855   4.395   0.957
 2437SOL     OW 7324   3.402   3.998   0.125
 2437SOL    HW1 7325   3.341   3.923   0.148
 2437SOL    HW2 7326   3.424   4.050   0.208
 2438SOL     OW 7327   3.165   4.562   0.042
 2438SOL    HW1 7328   3.199   4.469   0.057
 2438SOL    HW2 7329   3.183   4.589  -0.053
 2439SOL     OW 7330   2.181   4.534   0.949
 2439SOL    HW1 7331   2.274   4.570   0.954
 2439SOL    HW2 7332   2.175   4.449   1.001
 2440SOL     OW 7333   2.201   4.233   1.006
 2440SOL    HW1 7334   2.149   4.150   0.989
 2440SOL    HW2 7335   2.278   4.238   0.942
 2441SOL     OW 7336   3.000   4.104   1.678
 2441SOL    HW1 7337   2.955   4.167   1.742
 2441SOL    HW2 7338   3.093   4.135   1.661
 2442SOL     OW 7339   3.022   3.931   1.477
 2442SOL    HW1 7340   3.022   3.995   1.554
 2442SOL    HW2 7341   3.050   3.979   1.394
 2443SOL     OW 7342   2.864   4.520   1.238
 2443SOL    HW1 7343   2.905   4.488   1.324
 2443SOL    HW2 7344   2.768   4.493   1.235
 2444SOL     OW 7345   1.902   4.268   1.114
 2444SOL    HW1 7346   1.987   4.235   1.073
 2444SOL    HW2 7347   1.915   4.283   1.212
 2445SOL     OW 7348   2.051   4.244   1.722
 2445SOL    HW1 7349   2.110   4.204   1.652
 2445SOL    HW2 7350   1.993   4.315   1.681
 2446SOL     OW 7351   2.677   4.296   0.325
 2446SOL    HW1 7352   2.684   4.207   0.279
 2446SOL    HW2 7353   2.583   4.330   0.317
 2447SOL     OW 7354   3.519   4.328   1.206
 2447SOL    HW1 7355   3.481   4.259   1.268
 2447SOL    HW2 7356   3.601   4.292   1.162
 2448SOL     OW 7357   2.533   4.188   1.269
 2448SOL    HW1 7358   2.499   4.099   1.239
 2448SOL    HW2 7359   2.559   4.242   1.189
 2449SOL     OW 7360   2.335   4.224   0.191
 2449SOL    HW1 7361   2.396   4.304   0.195
 2449SOL    HW2 7362   2.240   4.255   0.198
 2450SOL     OW 7363   3.164   4.579   0.309
 2450SOL    HW1 7364   3.078   4.548   0.351
 2450SOL    HW2 7365   3.160   4.565   0.210
 2451SOL     OW 7366   2.765   3.810   0.133
 2451SOL    HW1 7367   2.816   3.811   0.047
 2451SOL    HW2 7368   2.821   3.768   0.204
 2452SOL     OW 7369   3.588   3.859   0.523
 2452SOL    HW1 7370   3.661   3.842   0.456
 2452SOL    HW2 7371   3.557   3.772   0.561
 2453SOL     OW 7372   3.142   4.651   0.672
 2453SOL    HW1 7373   3.202   4.570   0.674
 2453SOL    HW2 7374   3.182   4.720   0.612
 2454SOL     OW 7375   3.703   3.899   0.963
 2454SOL    HW1 7376   3.742   3.814   0.927
 2454SOL    HW2 7377   3.605   3.901   0.944
 2455SOL     OW 7378   2.125   4.050   0.720
 2455SOL    HW1 7379   2.046   4.101   0.686
 2455SOL    HW2 7380   2.116   4.035   0.818
 2456SOL     OW 7381   2.876   3.960   0.971
 2456SOL    HW1 7382   2.868   3.924   0.878
 2456SOL    HW2 7383   2.874   3.884   1.036
 2457SOL     OW 7384   3.571   4.109   1.381
 2457SOL    HW1 7385   3.644   4.178   1.385
 2457SOL    HW2 7386   3.599   4.034   1.322
 2458SOL     OW 7387   1.967   4.737   1.726
 2458SOL    HW1 7388   1.890   4.704   1.780
 2458SOL    HW2 7389   2.052   4.707   1.768
 2459SOL     OW 7390   2.534   3.927   1.489
 2459SOL    HW1 7391   2.624   3.911   1.449
 2459SOL    HW2 7392   2.542   3.932   1.588
 2460SOL     OW 7393   3.302   4.580   1.398
 2460SOL    HW1 7394   3.245   4.632   1.335
 2460SOL    HW2 7395   3.398   4.592   1.374
 2461SOL     OW 7396   1.934   3.890   0.318
 2461SOL    HW1 7397   1.917   3.973   0.264
 2461SOL    HW2 7398   2.024   3.853   0.296
 2462SOL     OW 7399   2.475   4.566   1.431
 2462SOL    HW1 7400   2.531   4.647   1.414
 2462SOL    HW2 7401   2.534   4.486   1.434
 2463SOL     OW 7402   2.578   4.289   1.708
 2463SOL    HW1 7403   2.597   4.354   1.782
 2463SOL    HW2 7404   2.638   4.209   1.717
 2464SOL     OW 7405   3.536   4.607   1.254
 2464SOL    HW1 7406   3.509   4.518   1.217
 2464SOL    HW2 7407   3.537   4.675   1.181
 2465SOL     OW 7408   3.087   4.049   0.449
 2465SOL    HW1 7409   3.152   3.975   0.438
 2465SOL    HW2 7410   3.107   4.099   0.533
 2466SOL     OW 7411   2.456   4.469   0.652
 2466SOL    HW1 7412   2.506   4.554   0.633
 2466SOL    HW2 7413   2.368   4.471   0.604
 2467SOL     OW 7414   3.639   4.066   1.642
 2467SOL    HW1 7415   3.622   4.097   1.548
 2467SOL    HW2 7416   3.555   4.029   1.680
 2468SOL     OW 7417   3.592   4.658   1.517
 2468SOL    HW1 7418   3.630   4.749   1.532
 2468SOL    HW2 7419   3.584   4.641   1.418
 2469SOL     OW 7420   3.686   3.916   1.227
 2469SOL    HW1 7421   3.682   3.826   1.271
 2469SOL    HW2 7422   3.689   3.905   1.128
 2470SOL     OW 7423   2.290   4.148   0.520
 2470SOL    HW1 7424   2.320   4.076   0.458
 2470SOL    HW2 7425   2.251   4.108   0.603
 2471SOL     OW 7426   2.179   4.271   1.280
 2471SOL    HW1 7427   2.217   4.212   1.352
 2471SOL    HW2 7428   2.219   4.245   1.192
 2472SOL     OW 7429   3.286   3.938   1.112
 2472SOL    HW1 7430   3.338   3.873   1.167
 2472SOL    HW2 7431   3.237   4.001   1.173
 2473SOL     OW 7432   2.863   3.758   1.154
 2473SOL    HW1 7433   2.800   3.686   1.123
 2473SOL    HW2 7434   2.956   3.722   1.154
 2474SOL     OW 7435   3.214   3.776   0.168
 2474SOL    HW1 7436   3.249   3.735   0.084
 2474SOL    HW2 7437   3.124   3.738   0.188
 2475SOL     OW 7438   3.162   4.177   0.691
 2475SOL    HW1 7439   3.103   4.257   0.695
 2475SOL    HW2 7440   3.177   4.142   0.784
 2476SOL     OW 7441   3.455   3.945   0.882
 2476SOL    HW1 7442   3.371   3.944   0.936
 2476SOL    HW2 7443   3.457   4.028   0.826
 2477SOL     OW 7444   2.092   4.352   1.975
 2477SOL    HW1 7445   1.999   4.350   2.012
 2477SOL    HW2 7446   2.093   4.313   1.883
 2478SOL     OW 7447   2.087   3.999   2.858
 2478SOL    HW1 7448   2.122   3.982   2.950
 2478SOL    HW2 7449   1.999   3.954   2.846
 2479SOL     OW 7450   1.881   4.092   2.509
 2479SOL    HW1 7451   1.799   4.135   2.548
 2479SOL    HW2 7452   1.853   4.019   2.446
 2480SOL     OW 7453   2.997   4.427   2.579
 2480SOL    HW1 7454   3.054   4.505   2.554
 2480SOL    HW2 7455   2.937   4.453   2.655
 2481SOL     OW 7456   3.617   4.331   2.093
 2481SOL    HW1 7457   3.605   4.318   1.994
 2481SOL    HW2 7458   3.587   4.250   2.142
 2482SOL     OW 7459   2.712   4.522   3.685
 2482SOL    HW1 7460   2.708   4.598   3.750
 2482SOL    HW2 7461   2.734   4.558   3.594
 2483SOL     OW 7462   2.547   4.736   2.527
 2483SOL    HW1 7463   2.616   4.720   2.597
 2483SOL    HW2 7464   2.474   4.793   2.565
 2484SOL     OW 7465   2.300   4.116   3.361
 2484SOL    HW1 7466   2.382   4.060   3.370
 2484SOL    HW2 7467   2.219   4.058   3.365
 2485SOL     OW 7468   3.465   4.171   2.599
 2485SOL    HW1 7469   3.391   4.217   2.549
 2485SOL    HW2 7470   3.516   4.239   2.652
 2486SOL     OW 7471   3.456   3.838   3.342
 2486SOL    HW1 7472   3.438   3.905   3.270
 2486SOL    HW2 7473   3.453   3.884   3.431
 2487SOL     OW 7474   1.984   4.367   2.425
 2487SOL    HW1 7475   1.939   4.279   2.442
 2487SOL    HW2 7476   1.983   4.421   2.509
 2488SOL     OW 7477   1.975   4.461   3.459
 2488SOL    HW1 7478   2.063   4.448   3.504
 2488SOL    HW2 7479   1.962   4.558   3.437
 2489SOL     OW 7480   2.671   3.728   2.364
 2489SOL    HW1 7481   2.711   3.819   2.355
 2489SOL    HW2 7482   2.571   3.736   2.370
 2490SOL     OW 7483   2.179   3.975   3.663
 2490SOL    HW1 7484   2.250   4.046   3.669
 2490SOL    HW2 7485   2.091   4.014   3.691
 2491SOL     OW 7486   2.460   4.453   2.132
 2491SOL    HW1 7487   2.484   4.522   2.064
 2491SOL    HW2 7488   2.382   4.486   2.186
 2492SOL     OW 7489   3.143   4.069   2.806
 2492SOL    HW1 7490   3.057   4.019   2.793
 2492SOL    HW2 7491   3.205   4.015   2.862
 2493SOL     OW 7492   2.669   4.329   3.327
 2493SOL    HW1 7493   2.622   4.326   3.416
 2493SOL    HW2 7494   2.618   4.274   3.261
 2494SOL     OW 7495   3.256   4.193   3.536
 2494SOL    HW1 7496   3.236   4.236   3.624
 2494SOL    HW2 7497   3.334   4.131   3.545
 2495SOL     OW 7498   2.835   4.614   3.434
 2495SOL    HW1 7499   2.881   4.530   3.405
 2495SOL    HW2 7500   2.779   4.648   3.359
 2496SOL     OW 7501   2.853   4.134   3.104
 2496SOL    HW1 7502   2.776   4.168   3.158
 2496SOL    HW2 7503   2.819   4.083   3.025
 2497SOL     OW 7504   2.903   4.425   2.291
 2497SOL    HW1 7505   2.929   4.421   2.387
 2497SOL    HW2 7506   2.818   4.374   2.277
 2498SOL     OW 7507   1.938   4.535   2.651
 2498SOL    HW1 7508   2.037   4.523   2.660
 2498SOL    HW2 7509   1.914   4.630   2.672
 2499SOL     OW 7510   2.727   4.072   2.057
 2499SOL    HW1 7511   2.786   4.135   2.008
 2499SOL    HW2 7512   2.746   3.978   2.028
 2500SOL     OW 7513   3.581   4.309   3.693
 2500SOL    HW1 7514   3.555   4.398   3.657
 2500SOL    HW2 7515   3.579   4.241   3.620
 2501SOL     OW 7516   2.412   3.920   2.747
 2501SOL    HW1 7517   2.407   3.915   2.847
 2501SOL    HW2 7518   2.414   4.016   2.718
 2502SOL     OW 7519   3.320   4.459   2.590
 2502SOL    HW1 7520   3.315   4.394   2.665
 2502SOL    HW2 7521   3.400   4.518   2.603
 2503SOL     OW 7522   2.064   4.009   3.360
 2503SOL    HW1 7523   1.984   4.069   3.347
 2503SOL    HW2 7524   2.054   3.960   3.446
 2504SOL     OW 7525   3.262   3.831   2.288
 2504SOL    HW1 7526   3.238   3.794   2.198
 2504SOL    HW2 7527   3.361   3.847   2.292
 2505SOL     OW 7528   2.244   4.424   2.342
 2505SOL    HW1 7529   2.289   4.334   2.339
 2505SOL    HW2 7530   2.150   4.413   2.375
 2506SOL     OW 7531   3.409   3.946   3.591
 2506SOL    HW1 7532   3.404   3.983   3.683
 2506SOL    HW2 7533   3.337   3.877   3.579
 2507SOL     OW 7534   2.476   3.846   1.979
 2507SOL    HW1 7535   2.574   3.824   1.986
 2507SOL    HW2 7536   2.445   3.829   1.886
 2508SOL     OW 7537   2.643   3.988   3.611
 2508SOL    HW1 7538   2.710   3.927   3.654
 2508SOL    HW2 7539   2.570   4.007   3.676
 2509SOL     OW 7540   3.213   4.314   3.295
 2509SOL    HW1 7541   3.241   4.271   3.380
 2509SOL    HW2 7542   3.238   4.410   3.296
 2510SOL     OW 7543   2.784   4.227   2.761
 2510SOL    HW1 7544   2.759   4.218   2.665
 2510SOL    HW2 7545   2.832   4.145   2.792
 2511SOL     OW 7546   2.401   3.788   2.374
 2511SOL    HW1 7547   2.320   3.789   2.432
 2511SOL    HW2 7548   2.404   3.871   2.319
 2512SOL     OW 7549   2.159   3.759   2.033
 2512SOL    HW1 7550   2.208   3.843   2.012
 2512SOL    HW2 7551   2.221   3.694   2.078
 2513SOL     OW 7552   2.797   3.960   2.342
 2513SOL    HW1 7553   2.749   4.001   2.264
 2513SOL    HW2 7554   2.896   3.958   2.323
 2514SOL     OW 7555   2.938   4.407   3.326
 2514SOL    HW1 7556   2.858   4.346   3.329
 2514SOL    HW2 7557   3.019   4.354   3.302
 2515SOL     OW 7558   2.894   4.273   1.878
 2515SOL    HW1 7559   2.853   4.355   1.839
 2515SOL    HW2 7560   2.958   4.299   1.951
 2516SOL     OW 7561   1.940   4.280   3.248
 2516SOL    HW1 7562   2.032   4.279   3.207
 2516SOL    HW2 7563   1.934   4.354   3.315
 2517SOL     OW 7564   2.423   3.946   3.009
 2517SOL    HW1 7565   2.461   3.862   3.046
 2517SOL    HW2 7566   2.335   3.965   3.053
 2518SOL     OW 7567   2.728   4.178   2.504
 2518SOL    HW1 7568   2.696   4.250   2.442
 2518SOL    HW2 7569   2.752   4.097   2.451
 2519SOL     OW 7570   2.879   3.763   2.615
 2519SOL    HW1 7571   2.807   3.768   2.546
 2519SOL    HW2 7572   2.855   3.694   2.684
 2520SOL     OW 7573   3.328   4.314   2.854
 2520SOL    HW1 7574   3.298   4.219   2.861
 2520SOL    HW2 7575   3.401   4.330   2.920
 2521SOL     OW 7576   3.719   4.557   2.239
 2521SOL    HW1 7577   3.761   4.493   2.303
 2521SOL    HW2 7578   3.681   4.506   2.161
 2522SOL     OW 7579   3.252   4.299   1.940
 2522SOL    HW1 7580   3.198   4.278   2.021
 2522SOL    HW2 7581   3.343   4.258   1.949
 2523SOL     OW 7582   2.389   3.980   2.190
 2523SOL    HW1 7583   2.416   3.921   2.115
 2523SOL    HW2 7584   2.389   4.075   2.159
 2524SOL     OW 7585   2.777   3.813   3.264
 2524SOL    HW1 7586   2.802   3.793   3.169
 2524SOL    HW2 7587   2.849   3.869   3.306
 2525SOL     OW 7588   2.272   4.537   3.113
 2525SOL    HW1 7589   2.358   4.549   3.163
 2525SOL    HW2 7590   2.230   4.450   3.140
 2526SOL     OW 7591   3.136   4.110   3.124
 2526SOL    HW1 7592   3.157   4.184   3.188
 2526SOL    HW2 7593   3.047   4.127   3.081
 2527SOL     OW 7594   2.428   4.261   2.727
 2527SOL    HW1 7595   2.440   4.327   2.653
 2527SOL    HW2 7596   2.474   4.295   2.810
 2528SOL     OW 7597   3.444   4.363   2.334
 2528SOL    HW1 7598   3.413   4.424   2.407
 2528SOL    HW2 7599   3.494   4.415   2.265
 2529SOL     OW 7600   2.264   4.475   3.460
 2529SOL    HW1 7601   2.332   4.530   3.413
 2529SOL    HW2 7602   2.304   4.387   3.487
 2530SOL     OW 7603   3.449   4.503   3.532
 2530SOL    HW1 7604   3.357   4.541   3.527
 2530SOL    HW2 7605   3.509   4.550   3.467
 2531SOL     OW 7606   2.875   3.829   3.632
 2531SOL    HW1 7607   2.881   3.914   3.580
 2531SOL    HW2 7608   2.907   3.753   3.575
 2532SOL     OW 7609   2.366   3.774   3.602
 2532SOL    HW1 7610   2.324   3.717   3.532
 2532SOL    HW2 7611   2.300   3.843   3.634
 2533SOL     OW 7612   2.435   4.594   2.891
 2533SOL    HW1 7613   2.479   4.683   2.882
 2533SOL    HW2 7614   2.372   4.594   2.968
 2534SOL     OW 7615   3.222   4.586   2.907
 2534SOL    HW1 7616   3.147   4.586   2.841
 2534SOL    HW2 7617   3.259   4.494   2.916
 2535SOL     OW 7618   3.071   4.249   2.137
 2535SOL    HW1 7619   3.084   4.165   2.191
 2535SOL    HW2 7620   3.042   4.323   2.197
 2536SOL     OW 7621   2.169   3.937   3.093
 2536SOL    HW1 7622   2.146   3.974   3.183
 2536SOL    HW2 7623   2.139   3.842   3.087
 2537SOL     OW 7624   2.594   4.358   2.926
 2537SOL    HW1 7625   2.653   4.332   2.850
 2537SOL    HW2 7626   2.566   4.454   2.915
 2538SOL     OW 7627   3.590   4.659   3.716
 2538SOL    HW1 7628   3.544   4.652   3.627
 2538SOL    HW2 7629   3.528   4.703   3.782
 2539SOL     OW 7630   2.169   3.787   2.480
 2539SOL    HW1 7631   2.158   3.881   2.513
 2539SOL    HW2 7632   2.164   3.724   2.557
 2540SOL     OW 7633   3.484   4.091   2.236
 2540SOL    HW1 7634   3.486   4.015   2.300
 2540SOL    HW2 7635   3.436   4.168   2.276
 2541SOL     OW 7636   2.885   4.490   2.828
 2541SOL    HW1 7637   2.900   4.511   2.924
 2541SOL    HW2 7638   2.855   4.395   2.819
 2542SOL     OW 7639   3.402   3.998   1.987
 2542SOL    HW1 7640   3.341   3.923   2.010
 2542SOL    HW2 7641   3.424   4.050   2.070
 2543SOL     OW 7642   3.165   4.562   1.904
 2543SOL    HW1 7643   3.199   4.469   1.919
 2543SOL    HW2 7644   3.183   4.589   1.809
 2544SOL     OW 7645   2.181   4.534   2.811
 2544SOL    HW1 7646   2.274   4.570   2.816
 2544SOL    HW2 7647   2.175   4.449   2.863
 2545SOL     OW 7648   2.201   4.233   2.868
 2545SOL    HW1 7649   2.149   4.150   2.851
 2545SOL    HW2 7650   2.278   4.238   2.804
 2546SOL     OW 7651   3.000   4.104   3.540
 2546SOL    HW1 7652   2.955   4.167   3.604
 2546SOL    HW2 7653   3.093   4.135   3.523
 2547SOL     OW 7654   3.022   3.931   3.339
 2547SOL    HW1 7655   3.022   3.995   3.416
 2547SOL    HW2 7656   3.050   3.979   3.256
 2548SOL     OW 7657   2.864   4.520   3.100
 2548SOL    HW1 7658   2.905   4.488   3.186
 2548SOL    HW2 7659   2.768   4.493   3.097
 2549SOL     OW 7660   1.902   4.268   2.976
 2549SOL    HW1 7661   1.987   4.235   2.935
 2549SOL    HW2 7662   1.915   4.283   3.074
 2550SOL     OW 7663   2.051   4.244   3.584
 2550SOL    HW1 7664   2.110   4.204   3.514
 2550SOL    HW2 7665   1.993   4.315   3.543
 2551SOL     OW 7666   2.677   4.296   2.187
 2551SOL    HW1 7667   2.684   4.207   2.141
 2551SOL    HW2 7668   2.583   4.330   2.179
 2552SOL     OW 7669   3.519   4.328   3.068
 2552SOL    HW1 7670   3.481   4.259   3.130
 2552SOL    HW2 7671   3.601   4.292   3.024
 2553SOL     OW 7672   2.533   4.188   3.131
 2553SOL    HW1 7673   2.499   4.099   3.101
 2553SOL    HW2 7674   2.559   4.242   3.051
 2554SOL     OW 7675   2.335   4.224   2.053
 2554SOL    HW1 7676   2.396   4.304   2.057
 2554SOL    HW2 7677   2.240   4.255   2.060
 2555SOL     OW 7678   3.164   4.579   2.171
 2555SOL    HW1 7679   3.078   4.548   2.213
 2555SOL    HW2 7680   3.160   4.565   2.072
 2556SOL     OW 7681   3.588   3.859   2.385
 2556SOL    HW1 7682   3.661   3.842   2.318
 2556SOL    HW2 7683   3.557   3.772   2.423
 2557SOL     OW 7684   3.142   4.651   2.534
 2557SOL    HW1 7685   3.202   4.570   2.536
 2557SOL    HW2 7686   3.182   4.720   2.474
 2558SOL     OW 7687   3.703   3.899   2.825
 2558SOL    HW1 7688   3.742   3.814   2.789
 2558SOL    HW2 7689   3.605   3.901   2.806
 2559SOL     OW 7690   2.125   4.050   2.582
 2559SOL    HW1 7691   2.046   4.101   2.548
 2559SOL    HW2 7692   2.116   4.035   2.680
 2560SOL     OW 7693   2.778   4.634   2.153
 2560SOL    HW1 7694   2.841   4.672   2.085
 2560SOL    HW2 7695   2.818   4.551   2.192
 2561SOL     OW 7696   2.876   3.960   2.833
 2561SOL    HW1 7697   2.868   3.924   2.740
 2561SOL    HW2 7698   2.874   3.884   2.898
 2562SOL     OW 7699   3.571   4.109   3.243
 2562SOL    HW1 7700   3.644   4.178   3.247
 2562SOL    HW2 7701   3.599   4.034   3.184
 2563SOL     OW 7702   1.967   4.737   3.588
 2563SOL    HW1 7703   1.890   4.704   3.642
 2563SOL    HW2 7704   2.052   4.707   3.630
 2564SOL     OW 7705   2.534   3.927   3.351
 2564SOL    HW1 7706   2.624   3.911   3.311
 2564SOL    HW2 7707   2.542   3.932   3.450
 2565SOL     OW 7708   1.937   4.069   1.895
 2565SOL    HW1 7709   1.845   4.041   1.866
 2565SOL    HW2 7710   1.968   4.146   1.839
 2566SOL     OW 7711   3.302   4.580   3.260
 2566SOL    HW1 7712   3.245   4.632   3.197
 2566SOL    HW2 7713   3.398   4.592   3.236
 2567SOL     OW 7714   1.934   3.890   2.180
 2567SOL    HW1 7715   1.917   3.973   2.126
 2567SOL    HW2 7716   2.024   3.853   2.158
 2568SOL     OW 7717   2.475   4.566   3.293
 2568SOL    HW1 7718   2.531   4.647   3.276
 2568SOL    HW2 7719   2.534   4.486   3.296
 2569SOL     OW 7720   2.578   4.289   3.570
 2569SOL    HW1 7721   2.597   4.354   3.644
 2569SOL    HW2 7722   2.638   4.209   3.579
 2570SOL     OW 7723   3.536   4.607   3.116
 2570SOL    HW1 7724   3.509   4.518   3.079
 2570SOL    HW2 7725   3.537   4.675   3.043
 2571SOL     OW 7726   3.087   4.049   2.311
 2571SOL    HW1 7727   3.152   3.975   2.300
 2571SOL    HW2 7728   3.107   4.099   2.395
 2572SOL     OW 7729   2.456   4.469   2.514
 2572SOL    HW1 7730   2.506   4.554   2.495
 2572SOL    HW2 7731   2.368   4.471   2.466
 2573SOL     OW 7732   3.639   4.066   3.504
 2573SOL    HW1 7733   3.622   4.097   3.410
 2573SOL    HW2 7734   3.555   4.029   3.542
 2574SOL     OW 7735   3.592   4.658   3.379
 2574SOL    HW1 7736   3.630   4.749   3.394
 2574SOL    HW2 7737   3.584   4.641   3.280
 2575SOL     OW 7738   3.686   3.916   3.089
 2575SOL    HW1 7739   3.682   3.826   3.133
 2575SOL    HW2 7740   3.689   3.905   2.990
 2576SOL     OW 7741   2.290   4.148   2.382
 2576SOL    HW1 7742   2.320   4.076   2.320
 2576SOL    HW2 7743   2.251   4.108   2.465
 2577SOL     OW 7744   2.179   4.271   3.142
 2577SOL    HW1 7745   2.217   4.212   3.214
 2577SOL    HW2 7746   2.219   4.245   3.054
 2578SOL     OW 7747   3.286   3.938   2.974
 2578SOL    HW1 7748   3.338   3.873   3.029
 2578SOL    HW2 7749   3.237   4.001   3.035
 2579SOL     OW 7750   2.863   3.758   3.016
 2579SOL    HW1 7751   2.800   3.686   2.985
 2579SOL    HW2 7752   2.956   3.722   3.016
 2580SOL     OW 7753   3.214   3.776   2.030
 2580SOL    HW1 7754   3.249   3.735   1.946
 2580SOL    HW2 7755   3.124   3.738   2.050
 2581SOL     OW 7756   3.162   4.177   2.553
 2581SOL    HW1 7757   3.103   4.257   2.557
 2581SOL    HW2 7758   3.177   4.142   2.646
 2582SOL     OW 7759   3.455   3.945   2.744
 2582SOL    HW1 7760   3.371   3.944   2.798
 2582SOL    HW2 7761   3.457   4.028   2.688
 2583SOL     OW 7762   2.092   4.352   3.837
 2583SOL    HW1 7763   1.999   4.350   3.874
 2583SOL    HW2 7764   2.093   4.313   3.745
 2584SOL     OW 7765   2.087   3.999   4.720
 2584SOL    HW1 7766   2.122   3.982   4.812
 2584SOL    HW2 7767   1.999   3.954   4.708
 2585SOL     OW 7768   1.881   4.092   4.371
 2585SOL    HW1 7769   1.799   4.135   4.410
 2585SOL    HW2 7770   1.853   4.019   4.308
 2586SOL     OW 7771   2.997   4.427   4.441
 2586SOL    HW1 7772   3.054   4.505   4.416
 2586SOL    HW2 7773   2.937   4.453   4.517
 2587SOL     OW 7774   3.617   4.331   3.955
 2587SOL    HW1 7775   3.605   4.318   3.856
 2587SOL    HW2 7776   3.587   4.250   4.004
 2588SOL     OW 7777   2.547   4.736   4.389
 2588SOL    HW1 7778   2.616   4.720   4.459
 2588SOL    HW2 7779   2.474   4.793   4.427
 2589SOL     OW 7780   3.465   4.171   4.461
 2589SOL    HW1 7781   3.391   4.217   4.411
 2589SOL    HW2 7782   3.516   4.239   4.514
 2590SOL     OW 7783   1.984   4.367   4.287
 2590SOL    HW1 7784   1.939   4.279   4.304
 2590SOL    HW2 7785   1.983   4.421   4.371
 2591SOL     OW 7786   2.671   3.728   4.226
 2591SOL    HW1 7787   2.711   3.819   4.217
 2591SOL    HW2 7788   2.571   3.736   4.232
 2592SOL     OW 7789   2.460   4.453   3.994
 2592SOL    HW1 7790   2.484   4.522   3.926
 2592SOL    HW2 7791   2.382   4.486   4.048
 2593SOL     OW 7792   3.143   4.069   4.668
 2593SOL    HW1 7793   3.057   4.019   4.655
 2593SOL    HW2 7794   3.205   4.015   4.724
 2594SOL     OW 7795   2.903   4.425   4.153
 2594SOL    HW1 7796   2.929   4.421   4.249
 2594SOL    HW2 7797   2.818   4.374   4.139
 2595SOL     OW 7798   1.938   4.535   4.513
 2595SOL    HW1 7799   2.037   4.523   4.522
 2595SOL    HW2 7800   1.914   4.630   4.534
 2596SOL     OW 7801   2.727   4.072   3.919
 2596SOL    HW1 7802   2.786   4.135   3.870
 2596SOL    HW2 7803   2.746   3.978   3.890
 2597SOL     OW 7804   2.412   3.920   4.609
 2597SOL    HW1 7805   2.407   3.915   4.709
 2597SOL    HW2 7806   2.414   4.016   4.580
 2598SOL     OW 7807   3.320   4.459   4.452
 2598SOL    HW1 7808   3.315   4.394   4.527
 2598SOL    HW2 7809   3.400   4.518   4.465
 2599SOL     OW 7810   3.262   3.831   4.150
 2599SOL    HW1 7811   3.238   3.794   4.060
 2599SOL    HW2 7812   3.361   3.847   4.154
 2600SOL     OW 7813   2.244   4.424   4.204
 2600SOL    HW1 7814   2.289   4.334   4.201
 2600SOL    HW2 7815   2.150   4.413   4.237
 2601SOL     OW 7816   2.476   3.846   3.841
 2601SOL    HW1 7817   2.574   3.824   3.848
 2601SOL    HW2 7818   2.445   3.829   3.748
 2602SOL     OW 7819   2.401   3.788   4.236
 2602SOL    HW1 7820   2.320   3.789   4.294
 2602SOL    HW2 7821   2.404   3.871   4.181
 2603SOL     OW 7822   2.159   3.759   3.895
 2603SOL    HW1 7823   2.208   3.843   3.874
 2603SOL    HW2 7824   2.221   3.694   3.940
 2604SOL     OW 7825   2.797   3.960   4.204
 2604SOL    HW1 7826   2.749   4.001   4.126
 2604SOL    HW2 7827   2.896   3.958   4.185
 2605SOL     OW 7828   2.894   4.273   3.740
 2605SOL    HW1 7829   2.853   4.355   3.701
 2605SOL    HW2 7830   2.958   4.299   3.813
 2606SOL     OW 7831   2.728   4.178   4.366
 2606SOL    HW1 7832   2.696   4.250   4.304
 2606SOL    HW2 7833   2.752   4.097   4.313
 2607SOL     OW 7834   2.879   3.763   4.477
 2607SOL    HW1 7835   2.807   3.768   4.408
 2607SOL    HW2 7836   2.855   3.694   4.546
 2608SOL     OW 7837   3.719   4.557   4.101
 2608SOL    HW1 7838   3.761   4.493   4.165
 2608SOL    HW2 7839   3.681   4.506   4.023
 2609SOL     OW 7840   3.252   4.299   3.802
 2609SOL    HW1 7841   3.198   4.278   3.883
 2609SOL    HW2 7842   3.343   4.258   3.811
 2610SOL     OW 7843   2.389   3.980   4.052
 2610SOL    HW1 7844   2.416   3.921   3.977
 2610SOL    HW2 7845   2.389   4.075   4.021
 2611SOL     OW 7846   2.973   4.919   4.824
 2611SOL    HW1 7847   2.933   4.963   4.905
 2611SOL    HW2 7848   2.932   4.956   4.741
 2612SOL     OW 7849   2.428   4.261   4.589
 2612SOL    HW1 7850   2.440   4.327   4.515
 2612SOL    HW2 7851   2.474   4.295   4.672
 2613SOL     OW 7852   3.444   4.363   4.196
 2613SOL    HW1 7853   3.413   4.424   4.269
 2613SOL    HW2 7854   3.494   4.415   4.127
 2614SOL     OW 7855   3.071   4.249   3.999
 2614SOL    HW1 7856   3.084   4.165   4.053
 2614SOL    HW2 7857   3.042   4.323   4.059
 2615SOL     OW 7858   2.594   4.358   4.788
 2615SOL    HW1 7859   2.653   4.332   4.712
 2615SOL    HW2 7860   2.566   4.454   4.777
 2616SOL     OW 7861   2.169   3.787   4.342
 2616SOL    HW1 7862   2.158   3.881   4.375
 2616SOL    HW2 7863   2.164   3.724   4.419
 2617SOL     OW 7864   3.484   4.091   4.098
 2617SOL    HW1 7865   3.486   4.015   4.162
 2617SOL    HW2 7866   3.436   4.168   4.138
 2618SOL     OW 7867   3.402   3.998   3.849
 2618SOL    HW1 7868   3.341   3.923   3.872
 2618SOL    HW2 7869   3.424   4.050   3.932
 2619SOL     OW 7870   3.165   4.562   3.766
 2619SOL    HW1 7871   3.199   4.469   3.781
 2619SOL    HW2 7872   3.183   4.589   3.671
 2620SOL     OW 7873   2.677   4.296   4.049
 2620SOL    HW1 7874   2.684   4.207   4.003
 2620SOL    HW2 7875   2.583   4.330   4.041
 2621SOL     OW 7876   2.335   4.224   3.915
 2621SOL    HW1 7877   2.396   4.304   3.919
 2621SOL    HW2 7878   2.240   4.255   3.922
 2622SOL     OW 7879   3.164   4.579   4.033
 2622SOL    HW1 7880   3.078   4.548   4.075
 2622SOL    HW2 7881   3.160   4.565   3.934
 2623SOL     OW 7882   3.588   3.859   4.247
 2623SOL    HW1 7883   3.661   3.842   4.180
 2623SOL    HW2 7884   3.557   3.772   4.285
 2624SOL     OW 7885   3.142   4.651   4.396
 2624SOL    HW1 7886   3.202   4.570   4.398
 2624SOL    HW2 7887   3.182   4.720   4.336
 2625SOL     OW 7888   3.703   3.899   4.687
 2625SOL    HW1 7889   3.742   3.814   4.651
 2625SOL    HW2 7890   3.605   3.901   4.668
 2626SOL     OW 7891   2.125   4.050   4.444
 2626SOL    HW1 7892   2.046   4.101   4.410
 2626SOL    HW2 7893   2.116   4.035   4.542
 2627SOL     OW 7894   2.778   4.634   4.015
 2627SOL    HW1 7895   2.841   4.672   3.947
 2627SOL    HW2 7896   2.818   4.551   4.054
 2628SOL     OW 7897   1.937   4.069   3.757
 2628SOL    HW1 7898   1.845   4.041   3.728
 2628SOL    HW2 7899   1.968   4.146   3.701
 2629SOL     OW 7900   1.934   3.890   4.042
 2629SOL    HW1 7901   1.917   3.973   3.988
 2629SOL    HW2 7902   2.024   3.853   4.020
 2630SOL     OW 7903   3.536   4.607   4.978
 2630SOL    HW1 7904   3.509   4.518   4.941
 2630SOL    HW2 7905   3.537   4.675   4.905
 2631SOL     OW 7906   3.087   4.049   4.173
 2631SOL    HW1 7907   3.152   3.975   4.162
 2631SOL    HW2 7908   3.107   4.099   4.257
 2632SOL     OW 7909   2.456   4.469   4.376
 2632SOL    HW1 7910   2.506   4.554   4.357
 2632SOL    HW2 7911   2.368   4.471   4.328
 2633SOL     OW 7912   2.290   4.148   4.244
 2633SOL    HW1 7913   2.320   4.076   4.182
 2633SOL    HW2 7914   2.251   4.108   4.327
 2634SOL     OW 7915   3.214   3.776   3.892
 2634SOL    HW1 7916   3.249   3.735   3.808
 2634SOL    HW2 7917   3.124   3.738   3.912
 2635SOL     OW 7918   3.162   4.177   4.415
 2635SOL    HW1 7919   3.103   4.257   4.419
 2635SOL    HW2 7920   3.177   4.142   4.508
 2636SOL     OW 7921   3.455   3.945   4.606
 2636SOL    HW1 7922   3.371   3.944   4.660
 2636SOL    HW2 7923   3.457   4.028   4.550
 2637SOL     OW 7924   3.954   0.628   0.113
 2637SOL    HW1 7925   3.861   0.626   0.150
 2637SOL    HW2 7926   3.955   0.589   0.021
 2638SOL     OW 7927   3.949   0.275   0.996
 2638SOL    HW1 7928   3.984   0.258   1.088
 2638SOL    HW2 7929   3.861   0.230   0.984
 2639SOL     OW 7930   3.743   0.368   0.647
 2639SOL    HW1 7931   3.661   0.411   0.686
 2639SOL    HW2 7932   3.715   0.295   0.584
 2640SOL     OW 7933   4.293   1.275   1.165
 2640SOL    HW1 7934   4.200   1.268   1.128
 2640SOL    HW2 7935   4.304   1.364   1.209
 2641SOL     OW 7936   4.492   1.144   1.023
 2641SOL    HW1 7937   4.414   1.161   1.083
 2641SOL    HW2 7938   4.526   1.231   0.987
 2642SOL     OW 7939   4.574   0.798   1.823
 2642SOL    HW1 7940   4.570   0.874   1.888
 2642SOL    HW2 7941   4.596   0.834   1.732
 2643SOL     OW 7942   4.409   1.012   0.665
 2643SOL    HW1 7943   4.478   0.996   0.735
 2643SOL    HW2 7944   4.336   1.069   0.703
 2644SOL     OW 7945   4.410   1.161   1.803
 2644SOL    HW1 7946   4.470   1.240   1.817
 2644SOL    HW2 7947   4.324   1.192   1.762
 2645SOL     OW 7948   4.059   1.435   1.061
 2645SOL    HW1 7949   3.981   1.404   1.008
 2645SOL    HW2 7950   4.117   1.493   1.004
 2646SOL     OW 7951   4.162   0.392   1.499
 2646SOL    HW1 7952   4.244   0.336   1.508
 2646SOL    HW2 7953   4.081   0.334   1.503
 2647SOL     OW 7954   3.955   1.713   0.483
 2647SOL    HW1 7955   3.989   1.790   0.537
 2647SOL    HW2 7956   3.999   1.713   0.393
 2648SOL     OW 7957   3.954   1.434   0.538
 2648SOL    HW1 7958   3.928   1.530   0.538
 2648SOL    HW2 7959   3.883   1.380   0.583
 2649SOL     OW 7960   3.964   1.091   0.886
 2649SOL    HW1 7961   3.978   1.007   0.938
 2649SOL    HW2 7962   3.909   1.155   0.941
 2650SOL     OW 7963   4.344   1.786   1.439
 2650SOL    HW1 7964   4.252   1.769   1.474
 2650SOL    HW2 7965   4.372   1.878   1.465
 2651SOL     OW 7966   4.330   0.964   0.123
 2651SOL    HW1 7967   4.337   1.048   0.069
 2651SOL    HW2 7968   4.376   0.977   0.211
 2652SOL     OW 7969   3.846   0.643   0.563
 2652SOL    HW1 7970   3.801   0.555   0.580
 2652SOL    HW2 7971   3.845   0.697   0.647
 2653SOL     OW 7972   3.751   1.596   0.117
 2653SOL    HW1 7973   3.732   1.500   0.138
 2653SOL    HW2 7974   3.718   1.654   0.192
 2654SOL     OW 7975   3.837   0.737   1.597
 2654SOL    HW1 7976   3.925   0.724   1.642
 2654SOL    HW2 7977   3.824   0.834   1.575
 2655SOL     OW 7978   4.337   1.365   0.726
 2655SOL    HW1 7979   4.288   1.278   0.735
 2655SOL    HW2 7980   4.314   1.408   0.639
 2656SOL     OW 7981   4.533   0.004   0.502
 2656SOL    HW1 7982   4.573   0.095   0.493
 2656SOL    HW2 7983   4.433   0.012   0.508
 2657SOL     OW 7984   3.921   0.976   1.264
 2657SOL    HW1 7985   4.010   0.931   1.250
 2657SOL    HW2 7986   3.848   0.911   1.245
 2658SOL     OW 7987   4.041   0.251   1.801
 2658SOL    HW1 7988   4.112   0.322   1.807
 2658SOL    HW2 7989   3.953   0.290   1.829
 2659SOL     OW 7990   4.322   0.729   0.270
 2659SOL    HW1 7991   4.346   0.798   0.202
 2659SOL    HW2 7992   4.244   0.762   0.324
 2660SOL     OW 7993   4.531   0.605   1.465
 2660SOL    HW1 7994   4.484   0.602   1.554
 2660SOL    HW2 7995   4.480   0.550   1.399
 2661SOL     OW 7996   3.800   0.811   0.789
 2661SOL    HW1 7997   3.899   0.799   0.798
 2661SOL    HW2 7998   3.776   0.906   0.810
 2662SOL     OW 7999   3.854   1.821   1.571
 2662SOL    HW1 8000   3.844   1.806   1.670
 2662SOL    HW2 8001   3.768   1.857   1.535
 2663SOL     OW 8002   4.589   0.348   0.195
 2663SOL    HW1 8003   4.648   0.411   0.146
 2663SOL    HW2 8004   4.608   0.254   0.166
 2664SOL     OW 8005   4.274   0.196   0.885
 2664SOL    HW1 8006   4.269   0.191   0.985
 2664SOL    HW2 8007   4.276   0.292   0.856
 2665SOL     OW 8008   4.732   1.456   0.477
 2665SOL    HW1 8009   4.686   1.528   0.425
 2665SOL    HW2 8010   4.728   1.476   0.575
 2666SOL     OW 8011   4.075   1.801   0.853
 2666SOL    HW1 8012   4.125   1.715   0.859
 2666SOL    HW2 8013   4.140   1.878   0.850
 2667SOL     OW 8014   4.045   0.943   0.242
 2667SOL    HW1 8015   4.127   0.982   0.200
 2667SOL    HW2 8016   4.018   0.861   0.193
 2668SOL     OW 8017   4.185   1.266   1.727
 2668SOL    HW1 8018   4.135   1.267   1.641
 2668SOL    HW2 8019   4.122   1.248   1.803
 2669SOL     OW 8020   4.835   1.776   0.237
 2669SOL    HW1 8021   4.775   1.714   0.287
 2669SOL    HW2 8022   4.866   1.732   0.152
 2670SOL     OW 8023   3.926   0.285   1.498
 2670SOL    HW1 8024   3.846   0.345   1.485
 2670SOL    HW2 8025   3.916   0.236   1.584
 2671SOL     OW 8026   4.188   1.743   0.323
 2671SOL    HW1 8027   4.221   1.782   0.409
 2671SOL    HW2 8028   4.264   1.736   0.258
 2672SOL     OW 8029   3.973   1.785   1.241
 2672SOL    HW1 8030   4.030   1.720   1.291
 2672SOL    HW2 8031   3.957   1.752   1.148
 2673SOL     OW 8032   4.106   0.700   0.480
 2673SOL    HW1 8033   4.151   0.610   0.477
 2673SOL    HW2 8034   4.012   0.689   0.513
 2674SOL     OW 8035   4.338   0.122   0.117
 2674SOL    HW1 8036   4.436   0.100   0.124
 2674SOL    HW2 8037   4.307   0.105   0.024
 2675SOL     OW 8038   4.505   0.264   1.749
 2675SOL    HW1 8039   4.572   0.203   1.792
 2675SOL    HW2 8040   4.432   0.283   1.814
 2676SOL     OW 8041   4.527   1.402   0.924
 2676SOL    HW1 8042   4.617   1.416   0.882
 2676SOL    HW2 8043   4.456   1.404   0.853
 2677SOL     OW 8044   4.646   0.503   0.899
 2677SOL    HW1 8045   4.621   0.494   0.803
 2677SOL    HW2 8046   4.694   0.421   0.930
 2678SOL     OW 8047   4.263   0.064   0.512
 2678SOL    HW1 8048   4.182   0.065   0.570
 2678SOL    HW2 8049   4.266   0.147   0.457
 2679SOL     OW 8050   4.021   0.035   0.171
 2679SOL    HW1 8051   4.070   0.119   0.150
 2679SOL    HW2 8052   4.083  -0.030   0.216
 2680SOL     OW 8053   4.183   1.152   0.741
 2680SOL    HW1 8054   4.112   1.125   0.806
 2680SOL    HW2 8055   4.157   1.124   0.648
 2681SOL     OW 8056   3.802   0.556   1.386
 2681SOL    HW1 8057   3.894   0.555   1.345
 2681SOL    HW2 8058   3.796   0.630   1.453
 2682SOL     OW 8059   4.285   0.222   1.147
 2682SOL    HW1 8060   4.323   0.138   1.184
 2682SOL    HW2 8061   4.197   0.241   1.191
 2683SOL     OW 8062   4.212   1.385   0.174
 2683SOL    HW1 8063   4.125   1.370   0.221
 2683SOL    HW2 8064   4.195   1.411   0.079
 2684SOL     OW 8065   4.251   0.256   0.328
 2684SOL    HW1 8066   4.278   0.197   0.253
 2684SOL    HW2 8067   4.251   0.351   0.297
 2685SOL     OW 8068   4.639   0.089   1.402
 2685SOL    HW1 8069   4.664   0.069   1.307
 2685SOL    HW2 8070   4.711   0.145   1.444
 2686SOL     OW 8071   4.429   1.050   0.368
 2686SOL    HW1 8072   4.415   1.057   0.467
 2686SOL    HW2 8073   4.513   0.999   0.350
 2687SOL     OW 8074   4.134   0.813   1.251
 2687SOL    HW1 8075   4.220   0.825   1.301
 2687SOL    HW2 8076   4.092   0.726   1.278
 2688SOL     OW 8077   3.788   1.564   1.331
 2688SOL    HW1 8078   3.742   1.646   1.297
 2688SOL    HW2 8079   3.886   1.583   1.340
 2689SOL     OW 8080   4.091   1.100   0.501
 2689SOL    HW1 8081   4.084   1.183   0.445
 2689SOL    HW2 8082   4.095   1.020   0.441
 2690SOL     OW 8083   4.290   0.537   0.865
 2690SOL    HW1 8084   4.302   0.603   0.791
 2690SOL    HW2 8085   4.336   0.571   0.948
 2691SOL     OW 8086   4.078   1.510   1.329
 2691SOL    HW1 8087   4.057   1.466   1.242
 2691SOL    HW2 8088   4.175   1.536   1.332
 2692SOL     OW 8089   4.126   0.751   1.598
 2692SOL    HW1 8090   4.194   0.806   1.551
 2692SOL    HW2 8091   4.166   0.663   1.625
 2693SOL     OW 8092   4.228   0.050   1.740
 2693SOL    HW1 8093   4.186  -0.007   1.670
 2693SOL    HW2 8094   4.162   0.119   1.772
 2694SOL     OW 8095   4.297   0.870   1.029
 2694SOL    HW1 8096   4.341   0.959   1.020
 2694SOL    HW2 8097   4.234   0.870   1.106
 2695SOL     OW 8098   4.031   0.213   1.231
 2695SOL    HW1 8099   4.008   0.250   1.321
 2695SOL    HW2 8100   4.001   0.118   1.225
 2696SOL     OW 8101   3.761   1.310   1.282
 2696SOL    HW1 8102   3.814   1.261   1.350
 2696SOL    HW2 8103   3.783   1.408   1.287
 2697SOL     OW 8104   4.456   0.634   1.064
 2697SOL    HW1 8105   4.515   0.608   0.988
 2697SOL    HW2 8106   4.428   0.730   1.053
 2698SOL     OW 8107   4.031   0.063   0.618
 2698SOL    HW1 8108   4.020   0.157   0.651
 2698SOL    HW2 8109   4.026   0.000   0.695
 2699SOL     OW 8110   4.747   0.766   0.966
 2699SOL    HW1 8111   4.762   0.787   1.062
 2699SOL    HW2 8112   4.717   0.671   0.957
 2700SOL     OW 8113   4.704   1.573   1.700
 2700SOL    HW1 8114   4.684   1.617   1.612
 2700SOL    HW2 8115   4.743   1.482   1.684
 2701SOL     OW 8116   4.074   0.898   1.804
 2701SOL    HW1 8117   4.150   0.942   1.852
 2701SOL    HW2 8118   4.109   0.851   1.722
 2702SOL     OW 8119   4.043   0.810   0.949
 2702SOL    HW1 8120   4.136   0.846   0.954
 2702SOL    HW2 8121   4.037   0.725   1.001
 2703SOL     OW 8122   4.063   0.509   1.006
 2703SOL    HW1 8123   4.011   0.426   0.989
 2703SOL    HW2 8124   4.140   0.514   0.942
 2704SOL     OW 8125   3.732   1.326   0.200
 2704SOL    HW1 8126   3.639   1.347   0.169
 2704SOL    HW2 8127   3.742   1.227   0.213
 2705SOL     OW 8128   3.812   1.801   0.927
 2705SOL    HW1 8129   3.770   1.715   0.900
 2705SOL    HW2 8130   3.906   1.804   0.893
 2706SOL     OW 8131   4.228   1.568   0.910
 2706SOL    HW1 8132   4.294   1.642   0.919
 2706SOL    HW2 8133   4.272   1.489   0.868
 2707SOL     OW 8134   3.764   0.544   1.114
 2707SOL    HW1 8135   3.849   0.511   1.073
 2707SOL    HW2 8136   3.777   0.559   1.212
 2708SOL     OW 8137   3.913   0.520   1.722
 2708SOL    HW1 8138   3.972   0.480   1.652
 2708SOL    HW2 8139   3.855   0.591   1.681
 2709SOL     OW 8140   4.539   0.572   0.325
 2709SOL    HW1 8141   4.546   0.483   0.279
 2709SOL    HW2 8142   4.445   0.606   0.317
 2710SOL     OW 8143   3.976   1.564   1.744
 2710SOL    HW1 8144   3.946   1.621   1.820
 2710SOL    HW2 8145   3.969   1.467   1.770
 2711SOL     OW 8146   4.395   0.464   1.269
 2711SOL    HW1 8147   4.361   0.375   1.239
 2711SOL    HW2 8148   4.421   0.518   1.189
 2712SOL     OW 8149   4.197   0.500   0.191
 2712SOL    HW1 8150   4.258   0.580   0.195
 2712SOL    HW2 8151   4.102   0.531   0.198
 2713SOL     OW 8152   3.883   1.137   1.466
 2713SOL    HW1 8153   3.905   1.076   1.542
 2713SOL    HW2 8154   3.893   1.088   1.380
 2714SOL     OW 8155   3.807   1.258   1.022
 2714SOL    HW1 8156   3.802   1.257   1.122
 2714SOL    HW2 8157   3.724   1.217   0.984
 2715SOL     OW 8158   4.412   1.662   1.716
 2715SOL    HW1 8159   4.356   1.743   1.725
 2715SOL    HW2 8160   4.464   1.666   1.630
 2716SOL     OW 8161   4.627   0.086   0.133
 2716SOL    HW1 8162   4.678   0.087   0.047
 2716SOL    HW2 8163   4.683   0.044   0.204
 2717SOL     OW 8164   3.854   1.794   1.851
 2717SOL    HW1 8165   3.813   1.720   1.904
 2717SOL    HW2 8166   3.918   1.845   1.909
 2718SOL     OW 8167   4.554   1.273   1.422
 2718SOL    HW1 8168   4.549   1.306   1.517
 2718SOL    HW2 8169   4.468   1.292   1.376
 2719SOL     OW 8170   4.396   1.616   0.154
 2719SOL    HW1 8171   4.405   1.626   0.055
 2719SOL    HW2 8172   4.356   1.527   0.175
 2720SOL     OW 8173   3.987   0.326   0.720
 2720SOL    HW1 8174   3.908   0.377   0.686
 2720SOL    HW2 8175   3.978   0.311   0.818
 2721SOL     OW 8176   4.918   1.612   0.031
 2721SOL    HW1 8177   4.924   1.519   0.068
 2721SOL    HW2 8178   4.859   1.612  -0.049
 2722SOL     OW 8179   4.546   1.002   1.372
 2722SOL    HW1 8180   4.586   1.001   1.280
 2722SOL    HW2 8181   4.556   1.094   1.412
 2723SOL     OW 8182   4.096   1.288   1.490
 2723SOL    HW1 8183   4.083   1.381   1.456
 2723SOL    HW2 8184   4.012   1.236   1.477
 2724SOL     OW 8185   4.314   1.487   0.491
 2724SOL    HW1 8186   4.356   1.429   0.421
 2724SOL    HW2 8187   4.270   1.566   0.447
 2725SOL     OW 8188   3.979   1.348   0.290
 2725SOL    HW1 8189   3.883   1.349   0.263
 2725SOL    HW2 8190   3.991   1.401   0.374
 2726SOL     OW 8191   3.829   1.013   1.726
 2726SOL    HW1 8192   3.752   0.980   1.780
 2726SOL    HW2 8193   3.914   0.983   1.768
 2727SOL     OW 8194   4.396   0.203   1.489
 2727SOL    HW1 8195   4.486   0.187   1.449
 2727SOL    HW2 8196   4.404   0.208   1.588
 2728SOL     OW 8197   4.337   0.842   1.431
 2728SOL    HW1 8198   4.393   0.923   1.414
 2728SOL    HW2 8199   4.396   0.762   1.434
 2729SOL     OW 8200   4.440   0.565   1.708
 2729SOL    HW1 8201   4.459   0.630   1.782
 2729SOL    HW2 8202   4.500   0.485   1.717
 2730SOL     OW 8203   4.114   1.741   1.560
 2730SOL    HW1 8204   4.023   1.782   1.558
 2730SOL    HW2 8205   4.107   1.647   1.592
 2731SOL     OW 8206   4.318   0.745   0.652
 2731SOL    HW1 8207   4.368   0.830   0.633
 2731SOL    HW2 8208   4.230   0.747   0.604
 2732SOL     OW 8209   4.385   1.790   0.953
 2732SOL    HW1 8210   4.339   1.878   0.940
 2732SOL    HW2 8211   4.484   1.802   0.946
 2733SOL     OW 8212   4.583   0.956   0.861
 2733SOL    HW1 8213   4.637   0.887   0.909
 2733SOL    HW2 8214   4.551   1.025   0.927
 2734SOL     OW 8215   3.945   1.314   1.844
 2734SOL    HW1 8216   3.880   1.241   1.823
 2734SOL    HW2 8217   3.949   1.328   1.942
 2735SOL     OW 8218   3.803   1.240   0.653
 2735SOL    HW1 8219   3.802   1.193   0.741
 2735SOL    HW2 8220   3.885   1.212   0.602
 2736SOL     OW 8221   4.396   1.391   1.624
 2736SOL    HW1 8222   4.318   1.341   1.662
 2736SOL    HW2 8223   4.393   1.486   1.655
 2737SOL     OW 8224   4.152   0.424   0.520
 2737SOL    HW1 8225   4.182   0.352   0.458
 2737SOL    HW2 8226   4.113   0.384   0.603
 2738SOL     OW 8227   4.041   0.547   1.280
 2738SOL    HW1 8228   4.079   0.488   1.352
 2738SOL    HW2 8229   4.081   0.521   1.192
 2739SOL     OW 8230   4.536   1.586   0.687
 2739SOL    HW1 8231   4.568   1.596   0.593
 2739SOL    HW2 8232   4.457   1.524   0.689
 2740SOL     OW 8233   4.725   0.034   1.154
 2740SOL    HW1 8234   4.662  -0.038   1.123
 2740SOL    HW2 8235   4.818  -0.002   1.154
 2741SOL     OW 8236   4.494   1.330   0.301
 2741SOL    HW1 8237   4.448   1.243   0.318
 2741SOL    HW2 8238   4.585   1.327   0.342
 2742SOL     OW 8239   4.342   1.567   1.284
 2742SOL    HW1 8240   4.337   1.649   1.341
 2742SOL    HW2 8241   4.431   1.564   1.239
 2743SOL     OW 8242   3.763   1.077   0.300
 2743SOL    HW1 8243   3.862   1.066   0.291
 2743SOL    HW2 8244   3.723   0.991   0.332
 2744SOL     OW 8245   4.599   1.646   0.337
 2744SOL    HW1 8246   4.522   1.611   0.283
 2744SOL    HW2 8247   4.567   1.717   0.399
 2745SOL     OW 8248   3.954   0.628   1.975
 2745SOL    HW1 8249   3.861   0.626   2.012
 2745SOL    HW2 8250   3.955   0.589   1.883
 2746SOL     OW 8251   3.949   0.275   2.858
 2746SOL    HW1 8252   3.984   0.258   2.950
 2746SOL    HW2 8253   3.861   0.230   2.846
 2747SOL     OW 8254   3.743   0.368   2.509
 2747SOL    HW1 8255   3.661   0.411   2.548
 2747SOL    HW2 8256   3.715   0.295   2.446
 2748SOL     OW 8257   4.293   1.275   3.027
 2748SOL    HW1 8258   4.200   1.268   2.990
 2748SOL    HW2 8259   4.304   1.364   3.071
 2749SOL     OW 8260   4.492   1.144   2.885
 2749SOL    HW1 8261   4.414   1.161   2.945
 2749SOL    HW2 8262   4.526   1.231   2.849
 2750SOL     OW 8263   4.574   0.798   3.685
 2750SOL    HW1 8264   4.570   0.874   3.750
 2750SOL    HW2 8265   4.596   0.834   3.594
 2751SOL     OW 8266   4.409   1.012   2.527
 2751SOL    HW1 8267   4.478   0.996   2.597
 2751SOL    HW2 8268   4.336   1.069   2.565
 2752SOL     OW 8269   4.410   1.161   3.665
 2752SOL    HW1 8270   4.470   1.240   3.679
 2752SOL    HW2 8271   4.324   1.192   3.624
 2753SOL     OW 8272   4.059   1.435   2.923
 2753SOL    HW1 8273   3.981   1.404   2.870
 2753SOL    HW2 8274   4.117   1.493   2.866
 2754SOL     OW 8275   4.162   0.392   3.361
 2754SOL    HW1 8276   4.244   0.336   3.370
 2754SOL    HW2 8277   4.081   0.334   3.365
 2755SOL     OW 8278   3.955   1.713   2.345
 2755SOL    HW1 8279   3.989   1.790   2.399
 2755SOL    HW2 8280   3.999   1.713   2.255
 2756SOL     OW 8281   3.954   1.434   2.400
 2756SOL    HW1 8282   3.928   1.530   2.400
 2756SOL    HW2 8283   3.883   1.380   2.445
 2757SOL     OW 8284   3.964   1.091   2.748
 2757SOL    HW1 8285   3.978   1.007   2.800
 2757SOL    HW2 8286   3.909   1.155   2.803
 2758SOL     OW 8287   4.344   1.786   3.301
 2758SOL    HW1 8288   4.252   1.769   3.336
 2758SOL    HW2 8289   4.372   1.878   3.327
 2759SOL     OW 8290   4.330   0.964   1.985
 2759SOL    HW1 8291   4.337   1.048   1.931
 2759SOL    HW2 8292   4.376   0.977   2.073
 2760SOL     OW 8293   3.846   0.643   2.425
 2760SOL    HW1 8294   3.801   0.555   2.442
 2760SOL    HW2 8295   3.845   0.697   2.509
 2761SOL     OW 8296   3.751   1.596   1.979
 2761SOL    HW1 8297   3.732   1.500   2.000
 2761SOL    HW2 8298   3.718   1.654   2.054
 2762SOL     OW 8299   3.837   0.737   3.459
 2762SOL    HW1 8300   3.925   0.724   3.504
 2762SOL    HW2 8301   3.824   0.834   3.437
 2763SOL     OW 8302   4.337   1.365   2.588
 2763SOL    HW1 8303   4.288   1.278   2.597
 2763SOL    HW2 8304   4.314   1.408   2.501
 2764SOL     OW 8305   4.533   0.004   2.364
 2764SOL    HW1 8306   4.573   0.095   2.355
 2764SOL    HW2 8307   4.433   0.012   2.370
 2765SOL     OW 8308   3.921   0.976   3.126
 2765SOL    HW1 8309   4.010   0.931   3.112
 2765SOL    HW2 8310   3.848   0.911   3.107
 2766SOL     OW 8311   4.041   0.251   3.663
 2766SOL    HW1 8312   4.112   0.322   3.669
 2766SOL    HW2 8313   3.953   0.290   3.691
 2767SOL     OW 8314   4.322   0.729   2.132
 2767SOL    HW1 8315   4.346   0.798   2.064
 2767SOL    HW2 8316   4.244   0.762   2.186
 2768SOL     OW 8317   4.531   0.605   3.327
 2768SOL    HW1 8318   4.484   0.602   3.416
 2768SOL    HW2 8319   4.480   0.550   3.261
 2769SOL     OW 8320   3.800   0.811   2.651
 2769SOL    HW1 8321   3.899   0.799   2.660
 2769SOL    HW2 8322   3.776   0.906   2.672
 2770SOL     OW 8323   3.854   1.821   3.433
 2770SOL    HW1 8324   3.844   1.806   3.532
 2770SOL    HW2 8325   3.768   1.857   3.397
 2771SOL     OW 8326   4.589   0.348   2.057
 2771SOL    HW1 8327   4.648   0.411   2.008
 2771SOL    HW2 8328   4.608   0.254   2.028
 2772SOL     OW 8329   4.274   0.196   2.747
 2772SOL    HW1 8330   4.269   0.191   2.847
 2772SOL    HW2 8331   4.276   0.292   2.718
 2773SOL     OW 8332   4.732   1.456   2.339
 2773SOL    HW1 8333   4.686   1.528   2.287
 2773SOL    HW2 8334   4.728   1.476   2.437
 2774SOL     OW 8335   4.075   1.801   2.715
 2774SOL    HW1 8336   4.125   1.715   2.721
 2774SOL    HW2 8337   4.140   1.878   2.712
 2775SOL     OW 8338   4.045   0.943   2.104
 2775SOL    HW1 8339   4.127   0.982   2.062
 2775SOL    HW2 8340   4.018   0.861   2.055
 2776SOL     OW 8341   4.185   1.266   3.589
 2776SOL    HW1 8342   4.135   1.267   3.503
 2776SOL    HW2 8343   4.122   1.248   3.665
 2777SOL     OW 8344   4.835   1.776   2.099
 2777SOL    HW1 8345   4.775   1.714   2.149
 2777SOL    HW2 8346   4.866   1.732   2.014
 2778SOL     OW 8347   3.926   0.285   3.360
 2778SOL    HW1 8348   3.846   0.345   3.347
 2778SOL    HW2 8349   3.916   0.236   3.446
 2779SOL     OW 8350   4.188   1.743   2.185
 2779SOL    HW1 8351   4.221   1.782   2.271
 2779SOL    HW2 8352   4.264   1.736   2.120
 2780SOL     OW 8353   3.973   1.785   3.103
 2780SOL    HW1 8354   4.030   1.720   3.153
 2780SOL    HW2 8355   3.957   1.752   3.010
 2781SOL     OW 8356   4.106   0.700   2.342
 2781SOL    HW1 8357   4.151   0.610   2.339
 2781SOL    HW2 8358   4.012   0.689   2.375
 2782SOL     OW 8359   4.338   0.122   1.979
 2782SOL    HW1 8360   4.436   0.100   1.986
 2782SOL    HW2 8361   4.307   0.105   1.886
 2783SOL     OW 8362   4.505   0.264   3.611
 2783SOL    HW1 8363   4.572   0.203   3.654
 2783SOL    HW2 8364   4.432   0.283   3.676
 2784SOL     OW 8365   4.527   1.402   2.786
 2784SOL    HW1 8366   4.617   1.416   2.744
 2784SOL    HW2 8367   4.456   1.404   2.715
 2785SOL     OW 8368   4.646   0.503   2.761
 2785SOL    HW1 8369   4.621   0.494   2.665
 2785SOL    HW2 8370   4.694   0.421   2.792
 2786SOL     OW 8371   4.263   0.064   2.374
 2786SOL    HW1 8372   4.182   0.065   2.432
 2786SOL    HW2 8373   4.266   0.147   2.319
 2787SOL     OW 8374   4.021   0.035   2.033
 2787SOL    HW1 8375   4.070   0.119   2.012
 2787SOL    HW2 8376   4.083  -0.030   2.078
 2788SOL     OW 8377   4.183   1.152   2.603
 2788SOL    HW1 8378   4.112   1.125   2.668
 2788SOL    HW2 8379   4.157   1.124   2.510
 2789SOL     OW 8380   3.802   0.556   3.248
 2789SOL    HW1 8381   3.894   0.555   3.207
 2789SOL    HW2 8382   3.796   0.630   3.315
 2790SOL     OW 8383   4.285   0.222   3.009
 2790SOL    HW1 8384   4.323   0.138   3.046
 2790SOL    HW2 8385   4.197   0.241   3.053
 2791SOL     OW 8386   4.212   1.385   2.036
 2791SOL    HW1 8387   4.125   1.370   2.083
 2791SOL    HW2 8388   4.195   1.411   1.941
 2792SOL     OW 8389   4.251   0.256   2.190
 2792SOL    HW1 8390   4.278   0.197   2.115
 2792SOL    HW2 8391   4.251   0.351   2.159
 2793SOL     OW 8392   4.639   0.089   3.264
 2793SOL    HW1 8393   4.664   0.069   3.169
 2793SOL    HW2 8394   4.711   0.145   3.306
 2794SOL     OW 8395   4.429   1.050   2.230
 2794SOL    HW1 8396   4.415   1.057   2.329
 2794SOL    HW2 8397   4.513   0.999   2.212
 2795SOL     OW 8398   4.134   0.813   3.113
 2795SOL    HW1 8399   4.220   0.825   3.163
 2795SOL    HW2 8400   4.092   0.726   3.140
 2796SOL     OW 8401   3.788   1.564   3.193
 2796SOL    HW1 8402   3.742   1.646   3.159
 2796SOL    HW2 8403   3.886   1.583   3.202
 2797SOL     OW 8404   4.091   1.100   2.363
 2797SOL    HW1 8405   4.084   1.183   2.307
 2797SOL    HW2 8406   4.095   1.020   2.303
 2798SOL     OW 8407   4.290   0.537   2.727
 2798SOL    HW1 8408   4.302   0.603   2.653
 2798SOL    HW2 8409   4.336   0.571   2.810
 2799SOL     OW 8410   4.078   1.510   3.191
 2799SOL    HW1 8411   4.057   1.466   3.104
 2799SOL    HW2 8412   4.175   1.536   3.194
 2800SOL     OW 8413   4.126   0.751   3.460
 2800SOL    HW1 8414   4.194   0.806   3.413
 2800SOL    HW2 8415   4.166   0.663   3.487
 2801SOL     OW 8416   4.228   0.050   3.602
 2801SOL    HW1 8417   4.186  -0.007   3.532
 2801SOL    HW2 8418   4.162   0.119   3.634
 2802SOL     OW 8419   4.297   0.870   2.891
 2802SOL    HW1 8420   4.341   0.959   2.882
 2802SOL    HW2 8421   4.234   0.870   2.968
 2803SOL     OW 8422   4.031   0.213   3.093
 2803SOL    HW1 8423   4.008   0.250   3.183
 2803SOL    HW2 8424   4.001   0.118   3.087
 2804SOL     OW 8425   3.761   1.310   3.144
 2804SOL    HW1 8426   3.814   1.261   3.212
 2804SOL    HW2 8427   3.783   1.408   3.149
 2805SOL     OW 8428   4.456   0.634   2.926
 2805SOL    HW1 8429   4.515   0.608   2.850
 2805SOL    HW2 8430   4.428   0.730   2.915
 2806SOL     OW 8431   4.031   0.063   2.480
 2806SOL    HW1 8432   4.020   0.157   2.513
 2806SOL    HW2 8433   4.026   0.000   2.557
 2807SOL     OW 8434   4.747   0.766   2.828
 2807SOL    HW1 8435   4.762   0.787   2.924
 2807SOL    HW2 8436   4.717   0.671   2.819
 2808SOL     OW 8437   4.704   1.573   3.562
 2808SOL    HW1 8438   4.684   1.617   3.474
 2808SOL    HW2 8439   4.743   1.482   3.546
 2809SOL     OW 8440   4.074   0.898   3.666
 2809SOL    HW1 8441   4.150   0.942   3.714
 2809SOL    HW2 8442   4.109   0.851   3.584
 2810SOL     OW 8443   4.043   0.810   2.811
 2810SOL    HW1 8444   4.136   0.846   2.816
 2810SOL    HW2 8445   4.037   0.725   2.863
 2811SOL     OW 8446   4.063   0.509   2.868
 2811SOL    HW1 8447   4.011   0.426   2.851
 2811SOL    HW2 8448   4.140   0.514   2.804
 2812SOL     OW 8449   3.732   1.326   2.062
 2812SOL    HW1 8450   3.639   1.347   2.031
 2812SOL    HW2 8451   3.742   1.227   2.075
 2813SOL     OW 8452   3.812   1.801   2.789
 2813SOL    HW1 8453   3.770   1.715   2.762
 2813SOL    HW2 8454   3.906   1.804   2.755
 2814SOL     OW 8455   4.228   1.568   2.772
 2814SOL    HW1 8456   4.294   1.642   2.781
 2814SOL    HW2 8457   4.272   1.489   2.730
 2815SOL     OW 8458   3.764   0.544   2.976
 2815SOL    HW1 8459   3.849   0.511   2.935
 2815SOL    HW2 8460   3.777   0.559   3.074
 2816SOL     OW 8461   3.913   0.520   3.584
 2816SOL    HW1 8462   3.972   0.480   3.514
 2816SOL    HW2 8463   3.855   0.591   3.543
 2817SOL     OW 8464   4.539   0.572   2.187
 2817SOL    HW1 8465   4.546   0.483   2.141
 2817SOL    HW2 8466   4.445   0.606   2.179
 2818SOL     OW 8467   3.976   1.564   3.606
 2818SOL    HW1 8468   3.946   1.621   3.682
 2818SOL    HW2 8469   3.969   1.467   3.632
 2819SOL     OW 8470   4.395   0.464   3.131
 2819SOL    HW1 8471   4.361   0.375   3.101
 2819SOL    HW2 8472   4.421   0.518   3.051
 2820SOL     OW 8473   4.197   0.500   2.053
 2820SOL    HW1 8474   4.258   0.580   2.057
 2820SOL    HW2 8475   4.102   0.531   2.060
 2821SOL     OW 8476   3.883   1.137   3.328
 2821SOL    HW1 8477   3.905   1.076   3.404
 2821SOL    HW2 8478   3.893   1.088   3.242
 2822SOL     OW 8479   3.807   1.258   2.884
 2822SOL    HW1 8480   3.802   1.257   2.984
 2822SOL    HW2 8481   3.724   1.217   2.846
 2823SOL     OW 8482   4.412   1.662   3.578
 2823SOL    HW1 8483   4.356   1.743   3.587
 2823SOL    HW2 8484   4.464   1.666   3.492
 2824SOL     OW 8485   4.627   0.086   1.995
 2824SOL    HW1 8486   4.678   0.087   1.909
 2824SOL    HW2 8487   4.683   0.044   2.066
 2825SOL     OW 8488   3.854   1.794   3.713
 2825SOL    HW1 8489   3.813   1.720   3.766
 2825SOL    HW2 8490   3.918   1.845   3.771
 2826SOL     OW 8491   4.554   1.273   3.284
 2826SOL    HW1 8492   4.549   1.306   3.379
 2826SOL    HW2 8493   4.468   1.292   3.238
 2827SOL     OW 8494   4.396   1.616   2.016
 2827SOL    HW1 8495   4.405   1.626   1.917
 2827SOL    HW2 8496   4.356   1.527   2.037
 2828SOL     OW 8497   3.987   0.326   2.582
 2828SOL    HW1 8498   3.908   0.377   2.548
 2828SOL    HW2 8499   3.978   0.311   2.680
 2829SOL     OW 8500   4.546   1.002   3.234
 2829SOL    HW1 8501   4.586   1.001   3.142
 2829SOL    HW2 8502   4.556   1.094   3.274
 2830SOL     OW 8503   4.096   1.288   3.352
 2830SOL    HW1 8504   4.083   1.381   3.318
 2830SOL    HW2 8505   4.012   1.236   3.339
 2831SOL     OW 8506   4.314   1.487   2.353
 2831SOL    HW1 8507   4.356   1.429   2.283
 2831SOL    HW2 8508   4.270   1.566   2.309
 2832SOL     OW 8509   3.979   1.348   2.152
 2832SOL    HW1 8510   3.883   1.349   2.125
 2832SOL    HW2 8511   3.991   1.401   2.236
 2833SOL     OW 8512   3.829   1.013   3.588
 2833SOL    HW1 8513   3.752   0.980   3.642
 2833SOL    HW2 8514   3.914   0.983   3.630
 2834SOL     OW 8515   4.396   0.203   3.351
 2834SOL    HW1 8516   4.486   0.187   3.311
 2834SOL    HW2 8517   4.404   0.208   3.450
 2835SOL     OW 8518   3.799   0.345   1.895
 2835SOL    HW1 8519   3.707   0.317   1.866
 2835SOL    HW2 8520   3.830   0.422   1.839
 2836SOL     OW 8521   3.796   0.166   2.180
 2836SOL    HW1 8522   3.779   0.249   2.126
 2836SOL    HW2 8523   3.886   0.129   2.158
 2837SOL     OW 8524   4.337   0.842   3.293
 2837SOL    HW1 8525   4.393   0.923   3.276
 2837SOL    HW2 8526   4.396   0.762   3.296
 2838SOL     OW 8527   4.440   0.565   3.570
 2838SOL    HW1 8528   4.459   0.630   3.644
 2838SOL    HW2 8529   4.500   0.485   3.579
 2839SOL     OW 8530   4.114   1.741   3.422
 2839SOL    HW1 8531   4.023   1.782   3.420
 2839SOL    HW2 8532   4.107   1.647   3.454
 2840SOL     OW 8533   4.318   0.745   2.514
 2840SOL    HW1 8534   4.368   0.830   2.495
 2840SOL    HW2 8535   4.230   0.747   2.466
 2841SOL     OW 8536   4.385   1.790   2.815
 2841SOL    HW1 8537   4.339   1.878   2.802
 2841SOL    HW2 8538   4.484   1.802   2.808
 2842SOL     OW 8539   4.583   0.956   2.723
 2842SOL    HW1 8540   4.637   0.887   2.771
 2842SOL    HW2 8541   4.551   1.025   2.789
 2843SOL     OW 8542   3.945   1.314   3.706
 2843SOL    HW1 8543   3.880   1.241   3.685
 2843SOL    HW2 8544   3.949   1.328   3.804
 2844SOL     OW 8545   3.803   1.240   2.515
 2844SOL    HW1 8546   3.802   1.193   2.603
 2844SOL    HW2 8547   3.885   1.212   2.464
 2845SOL     OW 8548   4.396   1.391   3.486
 2845SOL    HW1 8549   4.318   1.341   3.524
 2845SOL    HW2 8550   4.393   1.486   3.517
 2846SOL     OW 8551   4.152   0.424   2.382
 2846SOL    HW1 8552   4.182   0.352   2.320
 2846SOL    HW2 8553   4.113   0.384   2.465
 2847SOL     OW 8554   4.041   0.547   3.142
 2847SOL    HW1 8555   4.079   0.488   3.214
 2847SOL    HW2 8556   4.081   0.521   3.054
 2848SOL     OW 8557   4.536   1.586   2.549
 2848SOL    HW1 8558   4.568   1.596   2.455
 2848SOL    HW2 8559   4.457   1.524   2.551
 2849SOL     OW 8560   4.725   0.034   3.016
 2849SOL    HW1 8561   4.662  -0.038   2.985
 2849SOL    HW2 8562   4.818  -0.002   3.016
 2850SOL     OW 8563   4.494   1.330   2.163
 2850SOL    HW1 8564   4.448   1.243   2.180
 2850SOL    HW2 8565   4.585   1.327   2.204
 2851SOL     OW 8566   4.342   1.567   3.146
 2851SOL    HW1 8567   4.337   1.649   3.203
 2851SOL    HW2 8568   4.431   1.564   3.101
 2852SOL     OW 8569   3.763   1.077   2.162
 2852SOL    HW1 8570   3.862   1.066   2.153
 2852SOL    HW2 8571   3.723   0.991   2.194
 2853SOL     OW 8572   4.599   1.646   2.199
 2853SOL    HW1 8573   4.522   1.611   2.145
 2853SOL    HW2 8574   4.567   1.717   2.261
 2854SOL     OW 8575   3.954   0.628   3.837
 2854SOL    HW1 8576   3.861   0.626   3.874
 2854SOL    HW2 8577   3.955   0.589   3.745
 2855SOL     OW 8578   3.949   0.275   4.720
 2855SOL    HW1 8579   3.984   0.258   4.812
 2855SOL    HW2 8580   3.861   0.230   4.708
 2856SOL     OW 8581   3.743   0.368   4.371
 2856SOL    HW1 8582   3.661   0.411   4.410
 2856SOL    HW2 8583   3.715   0.295   4.308
 2857SOL     OW 8584   4.492   1.144   4.747
 2857SOL    HW1 8585   4.414   1.161   4.807
 2857SOL    HW2 8586   4.526   1.231   4.711
 2858SOL     OW 8587   4.409   1.012   4.389
 2858SOL    HW1 8588   4.478   0.996   4.459
 2858SOL    HW2 8589   4.336   1.069   4.427
 2859SOL     OW 8590   3.955   1.713   4.207
 2859SOL    HW1 8591   3.989   1.790   4.261
 2859SOL    HW2 8592   3.999   1.713   4.117
 2860SOL     OW 8593   3.954   1.434   4.262
 2860SOL    HW1 8594   3.928   1.530   4.262
 2860SOL    HW2 8595   3.883   1.380   4.307
 2861SOL     OW 8596   3.964   1.091   4.610
 2861SOL    HW1 8597   3.978   1.007   4.662
 2861SOL    HW2 8598   3.909   1.155   4.665
 2862SOL     OW 8599   4.330   0.964   3.847
 2862SOL    HW1 8600   4.337   1.048   3.793
 2862SOL    HW2 8601   4.376   0.977   3.935
 2863SOL     OW 8602   3.846   0.643   4.287
 2863SOL    HW1 8603   3.801   0.555   4.304
 2863SOL    HW2 8604   3.845   0.697   4.371
 2864SOL     OW 8605   3.751   1.596   3.841
 2864SOL    HW1 8606   3.732   1.500   3.862
 2864SOL    HW2 8607   3.718   1.654   3.916
 2865SOL     OW 8608   4.337   1.365   4.450
 2865SOL    HW1 8609   4.288   1.278   4.459
 2865SOL    HW2 8610   4.314   1.408   4.363
 2866SOL     OW 8611   4.533   0.004   4.226
 2866SOL    HW1 8612   4.573   0.095   4.217
 2866SOL    HW2 8613   4.433   0.012   4.232
 2867SOL     OW 8614   4.322   0.729   3.994
 2867SOL    HW1 8615   4.346   0.798   3.926
 2867SOL    HW2 8616   4.244   0.762   4.048
 2868SOL     OW 8617   3.800   0.811   4.513
 2868SOL    HW1 8618   3.899   0.799   4.522
 2868SOL    HW2 8619   3.776   0.906   4.534
 2869SOL     OW 8620   4.589   0.348   3.919
 2869SOL    HW1 8621   4.648   0.411   3.870
 2869SOL    HW2 8622   4.608   0.254   3.890
 2870SOL     OW 8623   4.732   1.456   4.201
 2870SOL    HW1 8624   4.686   1.528   4.149
 2870SOL    HW2 8625   4.728   1.476   4.299
 2871SOL     OW 8626   4.075   1.801   4.577
 2871SOL    HW1 8627   4.125   1.715   4.583
 2871SOL    HW2 8628   4.140   1.878   4.574
 2872SOL     OW 8629   4.045   0.943   3.966
 2872SOL    HW1 8630   4.127   0.982   3.924
 2872SOL    HW2 8631   4.018   0.861   3.917
 2873SOL     OW 8632   4.835   1.776   3.961
 2873SOL    HW1 8633   4.775   1.714   4.011
 2873SOL    HW2 8634   4.866   1.732   3.876
 2874SOL     OW 8635   4.188   1.743   4.047
 2874SOL    HW1 8636   4.221   1.782   4.133
 2874SOL    HW2 8637   4.264   1.736   3.982
 2875SOL     OW 8638   4.106   0.700   4.204
 2875SOL    HW1 8639   4.151   0.610   4.201
 2875SOL    HW2 8640   4.012   0.689   4.237
 2876SOL     OW 8641   4.338   0.122   3.841
 2876SOL    HW1 8642   4.436   0.100   3.848
 2876SOL    HW2 8643   4.307   0.105   3.748
 2877SOL     OW 8644   4.527   1.402   4.648
 2877SOL    HW1 8645   4.617   1.416   4.606
 2877SOL    HW2 8646   4.456   1.404   4.577
 2878SOL     OW 8647   4.263   0.064   4.236
 2878SOL    HW1 8648   4.182   0.065   4.294
 2878SOL    HW2 8649   4.266   0.147   4.181
 2879SOL     OW 8650   4.021   0.035   3.895
 2879SOL    HW1 8651   4.070   0.119   3.874
 2879SOL    HW2 8652   4.083  -0.030   3.940
 2880SOL     OW 8653   4.183   1.152   4.465
 2880SOL    HW1 8654   4.112   1.125   4.530
 2880SOL    HW2 8655   4.157   1.124   4.372
 2881SOL     OW 8656   4.212   1.385   3.898
 2881SOL    HW1 8657   4.125   1.370   3.945
 2881SOL    HW2 8658   4.195   1.411   3.803
 2882SOL     OW 8659   4.251   0.256   4.052
 2882SOL    HW1 8660   4.278   0.197   3.977
 2882SOL    HW2 8661   4.251   0.351   4.021
 2883SOL     OW 8662   4.429   1.050   4.092
 2883SOL    HW1 8663   4.415   1.057   4.191
 2883SOL    HW2 8664   4.513   0.999   4.074
 2884SOL     OW 8665   4.998   0.386   4.986
 2884SOL    HW1 8666   5.019   0.460   5.050
 2884SOL    HW2 8667   4.909   0.403   4.943
 2885SOL     OW 8668   4.091   1.100   4.225
 2885SOL    HW1 8669   4.084   1.183   4.169
 2885SOL    HW2 8670   4.095   1.020   4.165
 2886SOL     OW 8671   4.290   0.537   4.589
 2886SOL    HW1 8672   4.302   0.603   4.515
 2886SOL    HW2 8673   4.336   0.571   4.672
 2887SOL     OW 8674   4.456   0.634   4.788
 2887SOL    HW1 8675   4.515   0.608   4.712
 2887SOL    HW2 8676   4.428   0.730   4.777
 2888SOL     OW 8677   4.031   0.063   4.342
 2888SOL    HW1 8678   4.020   0.157   4.375
 2888SOL    HW2 8679   4.026   0.000   4.419
 2889SOL     OW 8680   4.747   0.766   4.690
 2889SOL    HW1 8681   4.762   0.787   4.786
 2889SOL    HW2 8682   4.717   0.671   4.681
 2890SOL     OW 8683   3.732   1.326   3.924
 2890SOL    HW1 8684   3.639   1.347   3.893
 2890SOL    HW2 8685   3.742   1.227   3.937
 2891SOL     OW 8686   3.812   1.801   4.651
 2891SOL    HW1 8687   3.770   1.715   4.624
 2891SOL    HW2 8688   3.906   1.804   4.617
 2892SOL     OW 8689   4.228   1.568   4.634
 2892SOL    HW1 8690   4.294   1.642   4.643
 2892SOL    HW2 8691   4.272   1.489   4.592
 2893SOL     OW 8692   4.539   0.572   4.049
 2893SOL    HW1 8693   4.546   0.483   4.003
 2893SOL    HW2 8694   4.445   0.606   4.041
 2894SOL     OW 8695   4.197   0.500   3.915
 2894SOL    HW1 8696   4.258   0.580   3.919
 2894SOL    HW2 8697   4.102   0.531   3.922
 2895SOL     OW 8698   4.627   0.086   3.857
 2895SOL    HW1 8699   4.678   0.087   3.771
 2895SOL    HW2 8700   4.683   0.044   3.928
 2896SOL     OW 8701   4.396   1.616   3.878
 2896SOL    HW1 8702   4.405   1.626   3.779
 2896SOL    HW2 8703   4.356   1.527   3.899
 2897SOL     OW 8704   3.987   0.326   4.444
 2897SOL    HW1 8705   3.908   0.377   4.410
 2897SOL    HW2 8706   3.978   0.311   4.542
 2898SOL     OW 8707   4.314   1.487   4.215
 2898SOL    HW1 8708   4.356   1.429   4.145
 2898SOL    HW2 8709   4.270   1.566   4.171
 2899SOL     OW 8710   3.979   1.348   4.014
 2899SOL    HW1 8711   3.883   1.349   3.987
 2899SOL    HW2 8712   3.991   1.401   4.098
 2900SOL     OW 8713   3.799   0.345   3.757
 2900SOL    HW1 8714   3.707   0.317   3.728
 2900SOL    HW2 8715   3.830   0.422   3.701
 2901SOL     OW 8716   3.796   0.166   4.042
 2901SOL    HW1 8717   3.779   0.249   3.988
 2901SOL    HW2 8718   3.886   0.129   4.020
 2902SOL     OW 8719   4.318   0.745   4.376
 2902SOL    HW1 8720   4.368   0.830   4.357
 2902SOL    HW2 8721   4.230   0.747   4.328
 2903SOL     OW 8722   4.385   1.790   4.677
 2903SOL    HW1 8723   4.339   1.878   4.664
 2903SOL    HW2 8724   4.484   1.802   4.670
 2904SOL     OW 8725   4.583   0.956   4.585
 2904SOL    HW1 8726   4.637   0.887   4.633
 2904SOL    HW2 8727   4.551   1.025   4.651
 2905SOL     OW 8728   3.803   1.240   4.377
 2905SOL    HW1 8729   3.802   1.193   4.465
 2905SOL    HW2 8730   3.885   1.212   4.326
 2906SOL     OW 8731   4.152   0.424   4.244
 2906SOL    HW1 8732   4.182   0.352   4.182
 2906SOL    HW2 8733   4.113   0.384   4.327
 2907SOL     OW 8734   4.536   1.586   4.411
 2907SOL    HW1 8735   4.568   1.596   4.317
 2907SOL    HW2 8736   4.457   1.524   4.413
 2908SOL     OW 8737   4.494   1.330   4.025
 2908SOL    HW1 8738   4.448   1.243   4.042
 2908SOL    HW2 8739   4.585   1.327   4.066
 2909SOL     OW 8740   3.763   1.077   4.024
 2909SOL    HW1 8741   3.862   1.066   4.015
 2909SOL    HW2 8742   3.723   0.991   4.056
 2910SOL     OW 8743   4.599   1.646   4.061
 2910SOL    HW1 8744   4.522   1.611   4.007
 2910SOL    HW2 8745   4.567   1.717   4.123
 2911SOL     OW 8746   3.954   2.490   0.113
 2911SOL    HW1 8747   3.861   2.488   0.150
 2911SOL    HW2 8748   3.955   2.451   0.021
 2912SOL     OW 8749   3.949   2.137   0.996
 2912SOL    HW1 8750   3.984   2.120   1.088
 2912SOL    HW2 8751   3.861   2.092   0.984
 2913SOL     OW 8752   3.743   2.230   0.647
 2913SOL    HW1 8753   3.661   2.273   0.686
 2913SOL    HW2 8754   3.715   2.157   0.584
 2914SOL     OW 8755   4.293   3.137   1.165
 2914SOL    HW1 8756   4.200   3.130   1.128
 2914SOL    HW2 8757   4.304   3.226   1.209
 2915SOL     OW 8758   4.492   3.006   1.023
 2915SOL    HW1 8759   4.414   3.023   1.083
 2915SOL    HW2 8760   4.526   3.093   0.987
 2916SOL     OW 8761   4.574   2.660   1.823
 2916SOL    HW1 8762   4.570   2.736   1.888
 2916SOL    HW2 8763   4.596   2.696   1.732
 2917SOL     OW 8764   4.409   2.874   0.665
 2917SOL    HW1 8765   4.478   2.858   0.735
 2917SOL    HW2 8766   4.336   2.931   0.703
 2918SOL     OW 8767   4.410   3.023   1.803
 2918SOL    HW1 8768   4.470   3.102   1.817
 2918SOL    HW2 8769   4.324   3.054   1.762
 2919SOL     OW 8770   4.059   3.297   1.061
 2919SOL    HW1 8771   3.981   3.266   1.008
 2919SOL    HW2 8772   4.117   3.355   1.004
 2920SOL     OW 8773   4.162   2.254   1.499
 2920SOL    HW1 8774   4.244   2.198   1.508
 2920SOL    HW2 8775   4.081   2.196   1.503
 2921SOL     OW 8776   3.955   3.575   0.483
 2921SOL    HW1 8777   3.989   3.652   0.537
 2921SOL    HW2 8778   3.999   3.575   0.393
 2922SOL     OW 8779   3.954   3.296   0.538
 2922SOL    HW1 8780   3.928   3.392   0.538
 2922SOL    HW2 8781   3.883   3.242   0.583
 2923SOL     OW 8782   3.964   2.953   0.886
 2923SOL    HW1 8783   3.978   2.869   0.938
 2923SOL    HW2 8784   3.909   3.017   0.941
 2924SOL     OW 8785   4.344   3.648   1.439
 2924SOL    HW1 8786   4.252   3.631   1.474
 2924SOL    HW2 8787   4.372   3.740   1.465
 2925SOL     OW 8788   4.330   2.826   0.123
 2925SOL    HW1 8789   4.337   2.910   0.069
 2925SOL    HW2 8790   4.376   2.839   0.211
 2926SOL     OW 8791   3.846   2.505   0.563
 2926SOL    HW1 8792   3.801   2.417   0.580
 2926SOL    HW2 8793   3.845   2.559   0.647
 2927SOL     OW 8794   3.751   3.458   0.117
 2927SOL    HW1 8795   3.732   3.362   0.138
 2927SOL    HW2 8796   3.718   3.516   0.192
 2928SOL     OW 8797   3.837   2.599   1.597
 2928SOL    HW1 8798   3.925   2.586   1.642
 2928SOL    HW2 8799   3.824   2.696   1.575
 2929SOL     OW 8800   4.337   3.227   0.726
 2929SOL    HW1 8801   4.288   3.140   0.735
 2929SOL    HW2 8802   4.314   3.270   0.639
 2930SOL     OW 8803   4.533   1.866   0.502
 2930SOL    HW1 8804   4.573   1.957   0.493
 2930SOL    HW2 8805   4.433   1.874   0.508
 2931SOL     OW 8806   3.921   2.838   1.264
 2931SOL    HW1 8807   4.010   2.793   1.250
 2931SOL    HW2 8808   3.848   2.773   1.245
 2932SOL     OW 8809   4.041   2.113   1.801
 2932SOL    HW1 8810   4.112   2.184   1.807
 2932SOL    HW2 8811   3.953   2.152   1.829
 2933SOL     OW 8812   4.322   2.591   0.270
 2933SOL    HW1 8813   4.346   2.660   0.202
 2933SOL    HW2 8814   4.244   2.624   0.324
 2934SOL     OW 8815   4.531   2.467   1.465
 2934SOL    HW1 8816   4.484   2.464   1.554
 2934SOL    HW2 8817   4.480   2.412   1.399
 2935SOL     OW 8818   3.800   2.673   0.789
 2935SOL    HW1 8819   3.899   2.661   0.798
 2935SOL    HW2 8820   3.776   2.768   0.810
 2936SOL     OW 8821   3.854   3.683   1.571
 2936SOL    HW1 8822   3.844   3.668   1.670
 2936SOL    HW2 8823   3.768   3.719   1.535
 2937SOL     OW 8824   4.589   2.210   0.195
 2937SOL    HW1 8825   4.648   2.273   0.146
 2937SOL    HW2 8826   4.608   2.116   0.166
 2938SOL     OW 8827   4.274   2.058   0.885
 2938SOL    HW1 8828   4.269   2.053   0.985
 2938SOL    HW2 8829   4.276   2.154   0.856
 2939SOL     OW 8830   4.732   3.318   0.477
 2939SOL    HW1 8831   4.686   3.390   0.425
 2939SOL    HW2 8832   4.728   3.338   0.575
 2940SOL     OW 8833   4.075   3.663   0.853
 2940SOL    HW1 8834   4.125   3.577   0.859
 2940SOL    HW2 8835   4.140   3.740   0.850
 2941SOL     OW 8836   4.045   2.805   0.242
 2941SOL    HW1 8837   4.127   2.844   0.200
 2941SOL    HW2 8838   4.018   2.723   0.193
 2942SOL     OW 8839   4.185   3.128   1.727
 2942SOL    HW1 8840   4.135   3.129   1.641
 2942SOL    HW2 8841   4.122   3.110   1.803
 2943SOL     OW 8842   4.835   3.638   0.237
 2943SOL    HW1 8843   4.775   3.576   0.287
 2943SOL    HW2 8844   4.866   3.594   0.152
 2944SOL     OW 8845   3.926   2.147   1.498
 2944SOL    HW1 8846   3.846   2.207   1.485
 2944SOL    HW2 8847   3.916   2.098   1.584
 2945SOL     OW 8848   4.188   3.605   0.323
 2945SOL    HW1 8849   4.221   3.644   0.409
 2945SOL    HW2 8850   4.264   3.598   0.258
 2946SOL     OW 8851   3.973   3.647   1.241
 2946SOL    HW1 8852   4.030   3.582   1.291
 2946SOL    HW2 8853   3.957   3.614   1.148
 2947SOL     OW 8854   4.106   2.562   0.480
 2947SOL    HW1 8855   4.151   2.472   0.477
 2947SOL    HW2 8856   4.012   2.551   0.513
 2948SOL     OW 8857   4.505   2.126   1.749
 2948SOL    HW1 8858   4.572   2.065   1.792
 2948SOL    HW2 8859   4.432   2.145   1.814
 2949SOL     OW 8860   4.527   3.264   0.924
 2949SOL    HW1 8861   4.617   3.278   0.882
 2949SOL    HW2 8862   4.456   3.266   0.853
 2950SOL     OW 8863   4.646   2.365   0.899
 2950SOL    HW1 8864   4.621   2.356   0.803
 2950SOL    HW2 8865   4.694   2.283   0.930
 2951SOL     OW 8866   4.263   1.926   0.512
 2951SOL    HW1 8867   4.182   1.927   0.570
 2951SOL    HW2 8868   4.266   2.009   0.457
 2952SOL     OW 8869   4.021   1.897   0.171
 2952SOL    HW1 8870   4.070   1.981   0.150
 2952SOL    HW2 8871   4.083   1.832   0.216
 2953SOL     OW 8872   4.183   3.014   0.741
 2953SOL    HW1 8873   4.112   2.987   0.806
 2953SOL    HW2 8874   4.157   2.986   0.648
 2954SOL     OW 8875   3.802   2.418   1.386
 2954SOL    HW1 8876   3.894   2.417   1.345
 2954SOL    HW2 8877   3.796   2.492   1.453
 2955SOL     OW 8878   4.285   2.084   1.147
 2955SOL    HW1 8879   4.323   2.000   1.184
 2955SOL    HW2 8880   4.197   2.103   1.191
 2956SOL     OW 8881   4.212   3.247   0.174
 2956SOL    HW1 8882   4.125   3.232   0.221
 2956SOL    HW2 8883   4.195   3.273   0.079
 2957SOL     OW 8884   4.251   2.118   0.328
 2957SOL    HW1 8885   4.278   2.059   0.253
 2957SOL    HW2 8886   4.251   2.213   0.297
 2958SOL     OW 8887   4.639   1.951   1.402
 2958SOL    HW1 8888   4.664   1.931   1.307
 2958SOL    HW2 8889   4.711   2.007   1.444
 2959SOL     OW 8890   4.429   2.912   0.368
 2959SOL    HW1 8891   4.415   2.919   0.467
 2959SOL    HW2 8892   4.513   2.861   0.350
 2960SOL     OW 8893   4.134   2.675   1.251
 2960SOL    HW1 8894   4.220   2.687   1.301
 2960SOL    HW2 8895   4.092   2.588   1.278
 2961SOL     OW 8896   3.788   3.426   1.331
 2961SOL    HW1 8897   3.742   3.508   1.297
 2961SOL    HW2 8898   3.886   3.445   1.340
 2962SOL     OW 8899   4.091   2.962   0.501
 2962SOL    HW1 8900   4.084   3.045   0.445
 2962SOL    HW2 8901   4.095   2.882   0.441
 2963SOL     OW 8902   4.290   2.399   0.865
 2963SOL    HW1 8903   4.302   2.465   0.791
 2963SOL    HW2 8904   4.336   2.433   0.948
 2964SOL     OW 8905   4.078   3.372   1.329
 2964SOL    HW1 8906   4.057   3.328   1.242
 2964SOL    HW2 8907   4.175   3.398   1.332
 2965SOL     OW 8908   4.126   2.613   1.598
 2965SOL    HW1 8909   4.194   2.668   1.551
 2965SOL    HW2 8910   4.166   2.525   1.625
 2966SOL     OW 8911   4.228   1.912   1.740
 2966SOL    HW1 8912   4.186   1.855   1.670
 2966SOL    HW2 8913   4.162   1.981   1.772
 2967SOL     OW 8914   4.297   2.732   1.029
 2967SOL    HW1 8915   4.341   2.821   1.020
 2967SOL    HW2 8916   4.234   2.732   1.106
 2968SOL     OW 8917   4.031   2.075   1.231
 2968SOL    HW1 8918   4.008   2.112   1.321
 2968SOL    HW2 8919   4.001   1.980   1.225
 2969SOL     OW 8920   3.761   3.172   1.282
 2969SOL    HW1 8921   3.814   3.123   1.350
 2969SOL    HW2 8922   3.783   3.270   1.287
 2970SOL     OW 8923   4.456   2.496   1.064
 2970SOL    HW1 8924   4.515   2.470   0.988
 2970SOL    HW2 8925   4.428   2.592   1.053
 2971SOL     OW 8926   4.031   1.925   0.618
 2971SOL    HW1 8927   4.020   2.019   0.651
 2971SOL    HW2 8928   4.026   1.862   0.695
 2972SOL     OW 8929   4.747   2.628   0.966
 2972SOL    HW1 8930   4.762   2.649   1.062
 2972SOL    HW2 8931   4.717   2.533   0.957
 2973SOL     OW 8932   4.704   3.435   1.700
 2973SOL    HW1 8933   4.684   3.479   1.612
 2973SOL    HW2 8934   4.743   3.344   1.684
 2974SOL     OW 8935   4.074   2.760   1.804
 2974SOL    HW1 8936   4.150   2.804   1.852
 2974SOL    HW2 8937   4.109   2.713   1.722
 2975SOL     OW 8938   4.043   2.672   0.949
 2975SOL    HW1 8939   4.136   2.708   0.954
 2975SOL    HW2 8940   4.037   2.587   1.001
 2976SOL     OW 8941   4.063   2.371   1.006
 2976SOL    HW1 8942   4.011   2.288   0.989
 2976SOL    HW2 8943   4.140   2.376   0.942
 2977SOL     OW 8944   3.732   3.188   0.200
 2977SOL    HW1 8945   3.639   3.209   0.169
 2977SOL    HW2 8946   3.742   3.089   0.213
 2978SOL     OW 8947   3.812   3.663   0.927
 2978SOL    HW1 8948   3.770   3.577   0.900
 2978SOL    HW2 8949   3.906   3.666   0.893
 2979SOL     OW 8950   4.228   3.430   0.910
 2979SOL    HW1 8951   4.294   3.504   0.919
 2979SOL    HW2 8952   4.272   3.351   0.868
 2980SOL     OW 8953   3.764   2.406   1.114
 2980SOL    HW1 8954   3.849   2.373   1.073
 2980SOL    HW2 8955   3.777   2.421   1.212
 2981SOL     OW 8956   3.913   2.382   1.722
 2981SOL    HW1 8957   3.972   2.342   1.652
 2981SOL    HW2 8958   3.855   2.453   1.681
 2982SOL     OW 8959   4.539   2.434   0.325
 2982SOL    HW1 8960   4.546   2.345   0.279
 2982SOL    HW2 8961   4.445   2.468   0.317
 2983SOL     OW 8962   3.976   3.426   1.744
 2983SOL    HW1 8963   3.946   3.483   1.820
 2983SOL    HW2 8964   3.969   3.329   1.770
 2984SOL     OW 8965   4.395   2.326   1.269
 2984SOL    HW1 8966   4.361   2.237   1.239
 2984SOL    HW2 8967   4.421   2.380   1.189
 2985SOL     OW 8968   4.197   2.362   0.191
 2985SOL    HW1 8969   4.258   2.442   0.195
 2985SOL    HW2 8970   4.102   2.393   0.198
 2986SOL     OW 8971   3.883   2.999   1.466
 2986SOL    HW1 8972   3.905   2.938   1.542
 2986SOL    HW2 8973   3.893   2.950   1.380
 2987SOL     OW 8974   3.807   3.120   1.022
 2987SOL    HW1 8975   3.802   3.119   1.122
 2987SOL    HW2 8976   3.724   3.079   0.984
 2988SOL     OW 8977   4.412   3.524   1.716
 2988SOL    HW1 8978   4.356   3.605   1.725
 2988SOL    HW2 8979   4.464   3.528   1.630
 2989SOL     OW 8980   4.627   1.948   0.133
 2989SOL    HW1 8981   4.678   1.949   0.047
 2989SOL    HW2 8982   4.683   1.906   0.204
 2990SOL     OW 8983   3.854   3.656   1.851
 2990SOL    HW1 8984   3.813   3.582   1.904
 2990SOL    HW2 8985   3.918   3.707   1.909
 2991SOL     OW 8986   4.554   3.135   1.422
 2991SOL    HW1 8987   4.549   3.168   1.517
 2991SOL    HW2 8988   4.468   3.154   1.376
 2992SOL     OW 8989   4.396   3.478   0.154
 2992SOL    HW1 8990   4.405   3.488   0.055
 2992SOL    HW2 8991   4.356   3.389   0.175
 2993SOL     OW 8992   3.987   2.188   0.720
 2993SOL    HW1 8993   3.908   2.239   0.686
 2993SOL    HW2 8994   3.978   2.173   0.818
 2994SOL     OW 8995   4.918   3.474   0.031
 2994SOL    HW1 8996   4.924   3.381   0.068
 2994SOL    HW2 8997   4.859   3.474  -0.049
 2995SOL     OW 8998   4.546   2.864   1.372
 2995SOL    HW1 8999   4.586   2.863   1.280
 2995SOL    HW2 9000   4.556   2.956   1.412
 2996SOL     OW 9001   4.096   3.150   1.490
 2996SOL    HW1 9002   4.083   3.243   1.456
 2996SOL    HW2 9003   4.012   3.098   1.477
 2997SOL     OW 9004   4.314   3.349   0.491
 2997SOL    HW1 9005   4.356   3.291   0.421
 2997SOL    HW2 9006   4.270   3.428   0.447
 2998SOL     OW 9007   3.979   3.210   0.290
 2998SOL    HW1 9008   3.883   3.211   0.263
 2998SOL    HW2 9009   3.991   3.263   0.374
 2999SOL     OW 9010   3.829   2.875   1.726
 2999SOL    HW1 9011   3.752   2.842   1.780
 2999SOL    HW2 9012   3.914   2.845   1.768
 3000SOL     OW 9013   4.396   2.065   1.489
 3000SOL    HW1 9014   4.486   2.049   1.449
 3000SOL    HW2 9015   4.404   2.070   1.588
 3001SOL     OW 9016   3.796   2.028   0.318
 3001SOL    HW1 9017   3.779   2.111   0.264
 3001SOL    HW2 9018   3.886   1.991   0.296
 3002SOL     OW 9019   4.337   2.704   1.431
 3002SOL    HW1 9020   4.393   2.785   1.414
 3002SOL    HW2 9021   4.396   2.624   1.434
 3003SOL     OW 9022   4.440   2.427   1.708
 3003SOL    HW1 9023   4.459   2.492   1.782
 3003SOL    HW2 9024   4.500   2.347   1.717
 3004SOL     OW 9025   4.114   3.603   1.560
 3004SOL    HW1 9026   4.023   3.644   1.558
 3004SOL    HW2 9027   4.107   3.509   1.592
 3005SOL     OW 9028   4.318   2.607   0.652
 3005SOL    HW1 9029   4.368   2.692   0.633
 3005SOL    HW2 9030   4.230   2.609   0.604
 3006SOL     OW 9031   4.385   3.652   0.953
 3006SOL    HW1 9032   4.339   3.740   0.940
 3006SOL    HW2 9033   4.484   3.664   0.946
 3007SOL     OW 9034   4.583   2.818   0.861
 3007SOL    HW1 9035   4.637   2.749   0.909
 3007SOL    HW2 9036   4.551   2.887   0.927
 3008SOL     OW 9037   3.945   3.176   1.844
 3008SOL    HW1 9038   3.880   3.103   1.823
 3008SOL    HW2 9039   3.949   3.190   1.942
 3009SOL     OW 9040   3.803   3.102   0.653
 3009SOL    HW1 9041   3.802   3.055   0.741
 3009SOL    HW2 9042   3.885   3.074   0.602
 3010SOL     OW 9043   4.396   3.253   1.624
 3010SOL    HW1 9044   4.318   3.203   1.662
 3010SOL    HW2 9045   4.393   3.348   1.655
 3011SOL     OW 9046   4.152   2.286   0.520
 3011SOL    HW1 9047   4.182   2.214   0.458
 3011SOL    HW2 9048   4.113   2.246   0.603
 3012SOL     OW 9049   4.041   2.409   1.280
 3012SOL    HW1 9050   4.079   2.350   1.352
 3012SOL    HW2 9051   4.081   2.383   1.192
 3013SOL     OW 9052   4.536   3.448   0.687
 3013SOL    HW1 9053   4.568   3.458   0.593
 3013SOL    HW2 9054   4.457   3.386   0.689
 3014SOL     OW 9055   4.725   1.896   1.154
 3014SOL    HW1 9056   4.662   1.824   1.123
 3014SOL    HW2 9057   4.818   1.860   1.154
 3015SOL     OW 9058   4.494   3.192   0.301
 3015SOL    HW1 9059   4.448   3.105   0.318
 3015SOL    HW2 9060   4.585   3.189   0.342
 3016SOL     OW 9061   4.342   3.429   1.284
 3016SOL    HW1 9062   4.337   3.511   1.341
 3016SOL    HW2 9063   4.431   3.426   1.239
 3017SOL     OW 9064   3.763   2.939   0.300
 3017SOL    HW1 9065   3.862   2.928   0.291
 3017SOL    HW2 9066   3.723   2.853   0.332
 3018SOL     OW 9067   4.599   3.508   0.337
 3018SOL    HW1 9068   4.522   3.473   0.283
 3018SOL    HW2 9069   4.567   3.579   0.399
 3019SOL     OW 9070   3.954   2.490   1.975
 3019SOL    HW1 9071   3.861   2.488   2.012
 3019SOL    HW2 9072   3.955   2.451   1.883
 3020SOL     OW 9073   3.949   2.137   2.858
 3020SOL    HW1 9074   3.984   2.120   2.950
 3020SOL    HW2 9075   3.861   2.092   2.846
 3021SOL     OW 9076   3.743   2.230   2.509
 3021SOL    HW1 9077   3.661   2.273   2.548
 3021SOL    HW2 9078   3.715   2.157   2.446
 3022SOL     OW 9079   4.293   3.137   3.027
 3022SOL    HW1 9080   4.200   3.130   2.990
 3022SOL    HW2 9081   4.304   3.226   3.071
 3023SOL     OW 9082   4.492   3.006   2.885
 3023SOL    HW1 9083   4.414   3.023   2.945
 3023SOL    HW2 9084   4.526   3.093   2.849
 3024SOL     OW 9085   4.574   2.660   3.685
 3024SOL    HW1 9086   4.570   2.736   3.750
 3024SOL    HW2 9087   4.596   2.696   3.594
 3025SOL     OW 9088   4.409   2.874   2.527
 3025SOL    HW1 9089   4.478   2.858   2.597
 3025SOL    HW2 9090   4.336   2.931   2.565
 3026SOL     OW 9091   4.410   3.023   3.665
 3026SOL    HW1 9092   4.470   3.102   3.679
 3026SOL    HW2 9093   4.324   3.054   3.624
 3027SOL     OW 9094   4.059   3.297   2.923
 3027SOL    HW1 9095   3.981   3.266   2.870
 3027SOL    HW2 9096   4.117   3.355   2.866
 3028SOL     OW 9097   4.162   2.254   3.361
 3028SOL    HW1 9098   4.244   2.198   3.370
 3028SOL    HW2 9099   4.081   2.196   3.365
 3029SOL     OW 9100   3.955   3.575   2.345
 3029SOL    HW1 9101   3.989   3.652   2.399
 3029SOL    HW2 9102   3.999   3.575   2.255
 3030SOL     OW 9103   3.954   3.296   2.400
 3030SOL    HW1 9104   3.928   3.392   2.400
 3030SOL    HW2 9105   3.883   3.242   2.445
 3031SOL     OW 9106   3.964   2.953   2.748
 3031SOL    HW1 9107   3.978   2.869   2.800
 3031SOL    HW2 9108   3.909   3.017   2.803
 3032SOL     OW 9109   4.344   3.648   3.301
 3032SOL    HW1 9110   4.252   3.631   3.336
 3032SOL    HW2 9111   4.372   3.740   3.327
 3033SOL     OW 9112   4.330   2.826   1.985
 3033SOL    HW1 9113   4.337   2.910   1.931
 3033SOL    HW2 9114   4.376   2.839   2.073
 3034SOL     OW 9115   3.846   2.505   2.425
 3034SOL    HW1 9116   3.801   2.417   2.442
 3034SOL    HW2 9117   3.845   2.559   2.509
 3035SOL     OW 9118   3.751   3.458   1.979
 3035SOL    HW1 9119   3.732   3.362   2.000
 3035SOL    HW2 9120   3.718   3.516   2.054
 3036SOL     OW 9121   3.837   2.599   3.459
 3036SOL    HW1 9122   3.925   2.586   3.504
 3036SOL    HW2 9123   3.824   2.696   3.437
 3037SOL     OW 9124   4.337   3.227   2.588
 3037SOL    HW1 9125   4.288   3.140   2.597
 3037SOL    HW2 9126   4.314   3.270   2.501
 3038SOL     OW 9127   4.533   1.866   2.364
 3038SOL    HW1 9128   4.573   1.957   2.355
 3038SOL    HW2 9129   4.433   1.874   2.370
 3039SOL     OW 9130   3.921   2.838   3.126
 3039SOL    HW1 9131   4.010   2.793   3.112
 3039SOL    HW2 9132   3.848   2.773   3.107
 3040SOL     OW 9133   4.041   2.113   3.663
 3040SOL    HW1 9134   4.112   2.184   3.669
 3040SOL    HW2 9135   3.953   2.152   3.691
 3041SOL     OW 9136   4.322   2.591   2.132
 3041SOL    HW1 9137   4.346   2.660   2.064
 3041SOL    HW2 9138   4.244   2.624   2.186
 3042SOL     OW 9139   4.531   2.467   3.327
 3042SOL    HW1 9140   4.484   2.464   3.416
 3042SOL    HW2 9141   4.480   2.412   3.261
 3043SOL     OW 9142   3.800   2.673   2.651
 3043SOL    HW1 9143   3.899   2.661   2.660
 3043SOL    HW2 9144   3.776   2.768   2.672
 3044SOL     OW 9145   3.854   3.683   3.433
 3044SOL    HW1 9146   3.844   3.668   3.532
 3044SOL    HW2 9147   3.768   3.719   3.397
 3045SOL     OW 9148   4.589   2.210   2.057
 3045SOL    HW1 9149   4.648   2.273   2.008
 3045SOL    HW2 9150   4.608   2.116   2.028
 3046SOL     OW 9151   4.274   2.058   2.747
 3046SOL    HW1 9152   4.269   2.053   2.847
 3046SOL    HW2 9153   4.276   2.154   2.718
 3047SOL     OW 9154   4.732   3.318   2.339
 3047SOL    HW1 9155   4.686   3.390   2.287
 3047SOL    HW2 9156   4.728   3.338   2.437
 3048SOL     OW 9157   4.075   3.663   2.715
 3048SOL    HW1 9158   4.125   3.577   2.721
 3048SOL    HW2 9159   4.140   3.740   2.712
 3049SOL     OW 9160   4.045   2.805   2.104
 3049SOL    HW1 9161   4.127   2.844   2.062
 3049SOL    HW2 9162   4.018   2.723   2.055
 3050SOL     OW 9163   4.185   3.128   3.589
 3050SOL    HW1 9164   4.135   3.129   3.503
 3050SOL    HW2 9165   4.122   3.110   3.665
 3051SOL     OW 9166   4.835   3.638   2.099
 3051SOL    HW1 9167   4.775   3.576   2.149
 3051SOL    HW2 9168   4.866   3.594   2.014
 3052SOL     OW 9169   3.926   2.147   3.360
 3052SOL    HW1 9170   3.846   2.207   3.347
 3052SOL    HW2 9171   3.916   2.098   3.446
 3053SOL     OW 9172   4.188   3.605   2.185
 3053SOL    HW1 9173   4.221   3.644   2.271
 3053SOL    HW2 9174   4.264   3.598   2.120
 3054SOL     OW 9175   3.973   3.647   3.103
 3054SOL    HW1 9176   4.030   3.582   3.153
 3054SOL    HW2 9177   3.957   3.614   3.010
 3055SOL     OW 9178   4.106   2.562   2.342
 3055SOL    HW1 9179   4.151   2.472   2.339
 3055SOL    HW2 9180   4.012   2.551   2.375
 3056SOL     OW 9181   4.338   1.984   1.979
 3056SOL    HW1 9182   4.436   1.962   1.986
 3056SOL    HW2 9183   4.307   1.967   1.886
 3057SOL     OW 9184   4.505   2.126   3.611
 3057SOL    HW1 9185   4.572   2.065   3.654
 3057SOL    HW2 9186   4.432   2.145   3.676
 3058SOL     OW 9187   4.527   3.264   2.786
 3058SOL    HW1 9188   4.617   3.278   2.744
 3058SOL    HW2 9189   4.456   3.266   2.715
 3059SOL     OW 9190   4.646   2.365   2.761
 3059SOL    HW1 9191   4.621   2.356   2.665
 3059SOL    HW2 9192   4.694   2.283   2.792
 3060SOL     OW 9193   4.263   1.926   2.374
 3060SOL    HW1 9194   4.182   1.927   2.432
 3060SOL    HW2 9195   4.266   2.009   2.319
 3061SOL     OW 9196   4.021   1.897   2.033
 3061SOL    HW1 9197   4.070   1.981   2.012
 3061SOL    HW2 9198   4.083   1.832   2.078
 3062SOL     OW 9199   4.183   3.014   2.603
 3062SOL    HW1 9200   4.112   2.987   2.668
 3062SOL    HW2 9201   4.157   2.986   2.510
 3063SOL     OW 9202   3.802   2.418   3.248
 3063SOL    HW1 9203   3.894   2.417   3.207
 3063SOL    HW2 9204   3.796   2.492   3.315
 3064SOL     OW 9205   4.285   2.084   3.009
 3064SOL    HW1 9206   4.323   2.000   3.046
 3064SOL    HW2 9207   4.197   2.103   3.053
 3065SOL     OW 9208   4.212   3.247   2.036
 3065SOL    HW1 9209   4.125   3.232   2.083
 3065SOL    HW2 9210   4.195   3.273   1.941
 3066SOL     OW 9211   4.251   2.118   2.190
 3066SOL    HW1 9212   4.278   2.059   2.115
 3066SOL    HW2 9213   4.251   2.213   2.159
 3067SOL     OW 9214   4.639   1.951   3.264
 3067SOL    HW1 9215   4.664   1.931   3.169
 3067SOL    HW2 9216   4.711   2.007   3.306
 3068SOL     OW 9217   4.429   2.912   2.230
 3068SOL    HW1 9218   4.415   2.919   2.329
 3068SOL    HW2 9219   4.513   2.861   2.212
 3069SOL     OW 9220   4.134   2.675   3.113
 3069SOL    HW1 9221   4.220   2.687   3.163
 3069SOL    HW2 9222   4.092   2.588   3.140
 3070SOL     OW 9223   3.788   3.426   3.193
 3070SOL    HW1 9224   3.742   3.508   3.159
 3070SOL    HW2 9225   3.886   3.445   3.202
 3071SOL     OW 9226   4.091   2.962   2.363
 3071SOL    HW1 9227   4.084   3.045   2.307
 3071SOL    HW2 9228   4.095   2.882   2.303
 3072SOL     OW 9229   4.290   2.399   2.727
 3072SOL    HW1 9230   4.302   2.465   2.653
 3072SOL    HW2 9231   4.336   2.433   2.810
 3073SOL     OW 9232   4.078   3.372   3.191
 3073SOL    HW1 9233   4.057   3.328   3.104
 3073SOL    HW2 9234   4.175   3.398   3.194
 3074SOL     OW 9235   4.126   2.613   3.460
 3074SOL    HW1 9236   4.194   2.668   3.413
 3074SOL    HW2 9237   4.166   2.525   3.487
 3075SOL     OW 9238   4.228   1.912   3.602
 3075SOL    HW1 9239   4.186   1.855   3.532
 3075SOL    HW2 9240   4.162   1.981   3.634
 3076SOL     OW 9241   4.297   2.732   2.891
 3076SOL    HW1 9242   4.341   2.821   2.882
 3076SOL    HW2 9243   4.234   2.732   2.968
 3077SOL     OW 9244   4.031   2.075   3.093
 3077SOL    HW1 9245   4.008   2.112   3.183
 3077SOL    HW2 9246   4.001   1.980   3.087
 3078SOL     OW 9247   3.761   3.172   3.144
 3078SOL    HW1 9248   3.814   3.123   3.212
 3078SOL    HW2 9249   3.783   3.270   3.149
 3079SOL     OW 9250   4.456   2.496   2.926
 3079SOL    HW1 9251   4.515   2.470   2.850
 3079SOL    HW2 9252   4.428   2.592   2.915
 3080SOL     OW 9253   4.031   1.925   2.480
 3080SOL    HW1 9254   4.020   2.019   2.513
 3080SOL    HW2 9255   4.026   1.862   2.557
 3081SOL     OW 9256   4.747   2.628   2.828
 3081SOL    HW1 9257   4.762   2.649   2.924
 3081SOL    HW2 9258   4.717   2.533   2.819
 3082SOL     OW 9259   4.704   3.435   3.562
 3082SOL    HW1 9260   4.684   3.479   3.474
 3082SOL    HW2 9261   4.743   3.344   3.546
 3083SOL     OW 9262   4.074   2.760   3.666
 3083SOL    HW1 9263   4.150   2.804   3.714
 3083SOL    HW2 9264   4.109   2.713   3.584
 3084SOL     OW 9265   4.043   2.672   2.811
 3084SOL    HW1 9266   4.136   2.708   2.816
 3084SOL    HW2 9267   4.037   2.587   2.863
 3085SOL     OW 9268   4.063   2.371   2.868
 3085SOL    HW1 9269   4.011   2.288   2.851
 3085SOL    HW2 9270   4.140   2.376   2.804
 3086SOL     OW 9271   3.732   3.188   2.062
 3086SOL    HW1 9272   3.639   3.209   2.031
 3086SOL    HW2 9273   3.742   3.089   2.075
 3087SOL     OW 9274   3.812   3.663   2.789
 3087SOL    HW1 9275   3.770   3.577   2.762
 3087SOL    HW2 9276   3.906   3.666   2.755
 3088SOL     OW 9277   4.228   3.430   2.772
 3088SOL    HW1 9278   4.294   3.504   2.781
 3088SOL    HW2 9279   4.272   3.351   2.730
 3089SOL     OW 9280   3.764   2.406   2.976
 3089SOL    HW1 9281   3.849   2.373   2.935
 3089SOL    HW2 9282   3.777   2.421   3.074
 3090SOL     OW 9283   3.913   2.382   3.584
 3090SOL    HW1 9284   3.972   2.342   3.514
 3090SOL    HW2 9285   3.855   2.453   3.543
 3091SOL     OW 9286   4.539   2.434   2.187
 3091SOL    HW1 9287   4.546   2.345   2.141
 3091SOL    HW2 9288   4.445   2.468   2.179
 3092SOL     OW 9289   3.976   3.426   3.606
 3092SOL    HW1 9290   3.946   3.483   3.682
 3092SOL    HW2 9291   3.969   3.329   3.632
 3093SOL     OW 9292   4.395   2.326   3.131
 3093SOL    HW1 9293   4.361   2.237   3.101
 3093SOL    HW2 9294   4.421   2.380   3.051
 3094SOL     OW 9295   4.197   2.362   2.053
 3094SOL    HW1 9296   4.258   2.442   2.057
 3094SOL    HW2 9297   4.102   2.393   2.060
 3095SOL     OW 9298   3.883   2.999   3.328
 3095SOL    HW1 9299   3.905   2.938   3.404
 3095SOL    HW2 9300   3.893   2.950   3.242
 3096SOL     OW 9301   3.807   3.120   2.884
 3096SOL    HW1 9302   3.802   3.119   2.984
 3096SOL    HW2 9303   3.724   3.079   2.846
 3097SOL     OW 9304   4.412   3.524   3.578
 3097SOL    HW1 9305   4.356   3.605   3.587
 3097SOL    HW2 9306   4.464   3.528   3.492
 3098SOL     OW 9307   4.627   1.948   1.995
 3098SOL    HW1 9308   4.678   1.949   1.909
 3098SOL    HW2 9309   4.683   1.906   2.066
 3099SOL     OW 9310   3.854   3.656   3.713
 3099SOL    HW1 9311   3.813   3.582   3.766
 3099SOL    HW2 9312   3.918   3.707   3.771
 3100SOL     OW 9313   4.554   3.135   3.284
 3100SOL    HW1 9314   4.549   3.168   3.379
 3100SOL    HW2 9315   4.468   3.154   3.238
 3101SOL     OW 9316   4.396   3.478   2.016
 3101SOL    HW1 9317   4.405   3.488   1.917
 3101SOL    HW2 9318   4.356   3.389   2.037
 3102SOL     OW 9319   3.987   2.188   2.582
 3102SOL    HW1 9320   3.908   2.239   2.548
 3102SOL    HW2 9321   3.978   2.173   2.680
 3103SOL     OW 9322   4.546   2.864   3.234
 3103SOL    HW1 9323   4.586   2.863   3.142
 3103SOL    HW2 9324   4.556   2.956   3.274
 3104SOL     OW 9325   4.096   3.150   3.352
 3104SOL    HW1 9326   4.083   3.243   3.318
 3104SOL    HW2 9327   4.012   3.098   3.339
 3105SOL     OW 9328   4.314   3.349   2.353
 3105SOL    HW1 9329   4.356   3.291   2.283
 3105SOL    HW2 9330   4.270   3.428   2.309
 3106SOL     OW 9331   3.979   3.210   2.152
 3106SOL    HW1 9332   3.883   3.211   2.125
 3106SOL    HW2 9333   3.991   3.263   2.236
 3107SOL     OW 9334   3.829   2.875   3.588
 3107SOL    HW1 9335   3.752   2.842   3.642
 3107SOL    HW2 9336   3.914   2.845   3.630
 3108SOL     OW 9337   4.396   2.065   3.351
 3108SOL    HW1 9338   4.486   2.049   3.311
 3108SOL    HW2 9339   4.404   2.070   3.450
 3109SOL     OW 9340   3.799   2.207   1.895
 3109SOL    HW1 9341   3.707   2.179   1.866
 3109SOL    HW2 9342   3.830   2.284   1.839
 3110SOL     OW 9343   3.796   2.028   2.180
 3110SOL    HW1 9344   3.779   2.111   2.126
 3110SOL    HW2 9345   3.886   1.991   2.158
 3111SOL     OW 9346   4.337   2.704   3.293
 3111SOL    HW1 9347   4.393   2.785   3.276
 3111SOL    HW2 9348   4.396   2.624   3.296
 3112SOL     OW 9349   4.440   2.427   3.570
 3112SOL    HW1 9350   4.459   2.492   3.644
 3112SOL    HW2 9351   4.500   2.347   3.579
 3113SOL     OW 9352   4.114   3.603   3.422
 3113SOL    HW1 9353   4.023   3.644   3.420
 3113SOL    HW2 9354   4.107   3.509   3.454
 3114SOL     OW 9355   4.318   2.607   2.514
 3114SOL    HW1 9356   4.368   2.692   2.495
 3114SOL    HW2 9357   4.230   2.609   2.466
 3115SOL     OW 9358   4.385   3.652   2.815
 3115SOL    HW1 9359   4.339   3.740   2.802
 3115SOL    HW2 9360   4.484   3.664   2.808
 3116SOL     OW 9361   4.583   2.818   2.723
 3116SOL    HW1 9362   4.637   2.749   2.771
 3116SOL    HW2 9363   4.551   2.887   2.789
 3117SOL     OW 9364   3.945   3.176   3.706
 3117SOL    HW1 9365   3.880   3.103   3.685
 3117SOL    HW2 9366   3.949   3.190   3.804
 3118SOL     OW 9367   3.803   3.102   2.515
 3118SOL    HW1 9368   3.802   3.055   2.603
 3118SOL    HW2 9369   3.885   3.074   2.464
 3119SOL     OW 9370   4.396   3.253   3.486
 3119SOL    HW1 9371   4.318   3.203   3.524
 3119SOL    HW2 9372   4.393   3.348   3.517
 3120SOL     OW 9373   4.152   2.286   2.382
 3120SOL    HW1 9374   4.182   2.214   2.320
 3120SOL    HW2 9375   4.113   2.246   2.465
 3121SOL     OW 9376   4.041   2.409   3.142
 3121SOL    HW1 9377   4.079   2.350   3.214
 3121SOL    HW2 9378   4.081   2.383   3.054
 3122SOL     OW 9379   4.536   3.448   2.549
 3122SOL    HW1 9380   4.568   3.458   2.455
 3122SOL    HW2 9381   4.457   3.386   2.551
 3123SOL     OW 9382   4.725   1.896   3.016
 3123SOL    HW1 9383   4.662   1.824   2.985
 3123SOL    HW2 9384   4.818   1.860   3.016
 3124SOL     OW 9385   4.494   3.192   2.163
 3124SOL    HW1 9386   4.448   3.105   2.180
 3124SOL    HW2 9387   4.585   3.189   2.204
 3125SOL     OW 9388   4.342   3.429   3.146
 3125SOL    HW1 9389   4.337   3.511   3.203
 3125SOL    HW2 9390   4.431   3.426   3.101
 3126SOL     OW 9391   3.763   2.939   2.162
 3126SOL    HW1 9392   3.862   2.928   2.153
 3126SOL    HW2 9393   3.723   2.853   2.194
 3127SOL     OW 9394   4.599   3.508   2.199
 3127SOL    HW1 9395   4.522   3.473   2.145
 3127SOL    HW2 9396   4.567   3.579   2.261
 3128SOL     OW 9397   3.954   2.490   3.837
 3128SOL    HW1 9398   3.861   2.488   3.874
 3128SOL    HW2 9399   3.955   2.451   3.745
 3129SOL     OW 9400   3.949   2.137   4.720
 3129SOL    HW1 9401   3.984   2.120   4.812
 3129SOL    HW2 9402   3.861   2.092   4.708
 3130SOL     OW 9403   3.743   2.230   4.371
 3130SOL    HW1 9404   3.661   2.273   4.410
 3130SOL    HW2 9405   3.715   2.157   4.308
 3131SOL     OW 9406   4.492   3.006   4.747
 3131SOL    HW1 9407   4.414   3.023   4.807
 3131SOL    HW2 9408   4.526   3.093   4.711
 3132SOL     OW 9409   4.409   2.874   4.389
 3132SOL    HW1 9410   4.478   2.858   4.459
 3132SOL    HW2 9411   4.336   2.931   4.427
 3133SOL     OW 9412   3.955   3.575   4.207
 3133SOL    HW1 9413   3.989   3.652   4.261
 3133SOL    HW2 9414   3.999   3.575   4.117
 3134SOL     OW 9415   3.954   3.296   4.262
 3134SOL    HW1 9416   3.928   3.392   4.262
 3134SOL    HW2 9417   3.883   3.242   4.307
 3135SOL     OW 9418   3.964   2.953   4.610
 3135SOL    HW1 9419   3.978   2.869   4.662
 3135SOL    HW2 9420   3.909   3.017   4.665
 3136SOL     OW 9421   4.330   2.826   3.847
 3136SOL    HW1 9422   4.337   2.910   3.793
 3136SOL    HW2 9423   4.376   2.839   3.935
 3137SOL     OW 9424   3.846   2.505   4.287
 3137SOL    HW1 9425   3.801   2.417   4.304
 3137SOL    HW2 9426   3.845   2.559   4.371
 3138SOL     OW 9427   3.751   3.458   3.841
 3138SOL    HW1 9428   3.732   3.362   3.862
 3138SOL    HW2 9429   3.718   3.516   3.916
 3139SOL     OW 9430   4.337   3.227   4.450
 3139SOL    HW1 9431   4.288   3.140   4.459
 3139SOL    HW2 9432   4.314   3.270   4.363
 3140SOL     OW 9433   4.533   1.866   4.226
 3140SOL    HW1 9434   4.573   1.957   4.217
 3140SOL    HW2 9435   4.433   1.874   4.232
 3141SOL     OW 9436   4.322   2.591   3.994
 3141SOL    HW1 9437   4.346   2.660   3.926
 3141SOL    HW2 9438   4.244   2.624   4.048
 3142SOL     OW 9439   3.800   2.673   4.513
 3142SOL    HW1 9440   3.899   2.661   4.522
 3142SOL    HW2 9441   3.776   2.768   4.534
 3143SOL     OW 9442   4.589   2.210   3.919
 3143SOL    HW1 9443   4.648   2.273   3.870
 3143SOL    HW2 9444   4.608   2.116   3.890
 3144SOL     OW 9445   4.274   2.058   4.609
 3144SOL    HW1 9446   4.269   2.053   4.709
 3144SOL    HW2 9447   4.276   2.154   4.580
 3145SOL     OW 9448   4.732   3.318   4.201
 3145SOL    HW1 9449   4.686   3.390   4.149
 3145SOL    HW2 9450   4.728   3.338   4.299
 3146SOL     OW 9451   4.075   3.663   4.577
 3146SOL    HW1 9452   4.125   3.577   4.583
 3146SOL    HW2 9453   4.140   3.740   4.574
 3147SOL     OW 9454   4.045   2.805   3.966
 3147SOL    HW1 9455   4.127   2.844   3.924
 3147SOL    HW2 9456   4.018   2.723   3.917
 3148SOL     OW 9457   4.835   3.638   3.961
 3148SOL    HW1 9458   4.775   3.576   4.011
 3148SOL    HW2 9459   4.866   3.594   3.876
 3149SOL     OW 9460   4.188   3.605   4.047
 3149SOL    HW1 9461   4.221   3.644   4.133
 3149SOL    HW2 9462   4.264   3.598   3.982
 3150SOL     OW 9463   4.106   2.562   4.204
 3150SOL    HW1 9464   4.151   2.472   4.201
 3150SOL    HW2 9465   4.012   2.551   4.237
 3151SOL     OW 9466   4.338   1.984   3.841
 3151SOL    HW1 9467   4.436   1.962   3.848
 3151SOL    HW2 9468   4.307   1.967   3.748
 3152SOL     OW 9469   4.527   3.264   4.648
 3152SOL    HW1 9470   4.617   3.278   4.606
 3152SOL    HW2 9471   4.456   3.266   4.577
 3153SOL     OW 9472   4.263   1.926   4.236
 3153SOL    HW1 9473   4.182   1.927   4.294
 3153SOL    HW2 9474   4.266   2.009   4.181
 3154SOL     OW 9475   4.021   1.897   3.895
 3154SOL    HW1 9476   4.070   1.981   3.874
 3154SOL    HW2 9477   4.083   1.832   3.940
 3155SOL     OW 9478   4.183   3.014   4.465
 3155SOL    HW1 9479   4.112   2.987   4.530
 3155SOL    HW2 9480   4.157   2.986   4.372
 3156SOL     OW 9481   4.212   3.247   3.898
 3156SOL    HW1 9482   4.125   3.232   3.945
 3156SOL    HW2 9483   4.195   3.273   3.803
 3157SOL     OW 9484   4.251   2.118   4.052
 3157SOL    HW1 9485   4.278   2.059   3.977
 3157SOL    HW2 9486   4.251   2.213   4.021
 3158SOL     OW 9487   4.429   2.912   4.092
 3158SOL    HW1 9488   4.415   2.919   4.191
 3158SOL    HW2 9489   4.513   2.861   4.074
 3159SOL     OW 9490   4.998   2.248   4.986
 3159SOL    HW1 9491   5.019   2.322   5.050
 3159SOL    HW2 9492   4.909   2.265   4.943
 3160SOL     OW 9493   4.091   2.962   4.225
 3160SOL    HW1 9494   4.084   3.045   4.169
 3160SOL    HW2 9495   4.095   2.882   4.165
 3161SOL     OW 9496   4.290   2.399   4.589
 3161SOL    HW1 9497   4.302   2.465   4.515
 3161SOL    HW2 9498   4.336   2.433   4.672
 3162SOL     OW 9499   4.456   2.496   4.788
 3162SOL    HW1 9500   4.515   2.470   4.712
 3162SOL    HW2 9501   4.428   2.592   4.777
 3163SOL     OW 9502   4.031   1.925   4.342
 3163SOL    HW1 9503   4.020   2.019   4.375
 3163SOL    HW2 9504   4.026   1.862   4.419
 3164SOL     OW 9505   4.747   2.628   4.690
 3164SOL    HW1 9506   4.762   2.649   4.786
 3164SOL    HW2 9507   4.717   2.533   4.681
 3165SOL     OW 9508   3.732   3.188   3.924
 3165SOL    HW1 9509   3.639   3.209   3.893
 3165SOL    HW2 9510   3.742   3.089   3.937
 3166SOL     OW 9511   3.812   3.663   4.651
 3166SOL    HW1 9512   3.770   3.577   4.624
 3166SOL    HW2 9513   3.906   3.666   4.617
 3167SOL     OW 9514   4.228   3.430   4.634
 3167SOL    HW1 9515   4.294   3.504   4.643
 3167SOL    HW2 9516   4.272   3.351   4.592
 3168SOL     OW 9517   4.539   2.434   4.049
 3168SOL    HW1 9518   4.546   2.345   4.003
 3168SOL    HW2 9519   4.445   2.468   4.041
 3169SOL     OW 9520   4.197   2.362   3.915
 3169SOL    HW1 9521   4.258   2.442   3.919
 3169SOL    HW2 9522   4.102   2.393   3.922
 3170SOL     OW 9523   4.627   1.948   3.857
 3170SOL    HW1 9524   4.678   1.949   3.771
 3170SOL    HW2 9525   4.683   1.906   3.928
 3171SOL     OW 9526   4.396   3.478   3.878
 3171SOL    HW1 9527   4.405   3.488   3.779
 3171SOL    HW2 9528   4.356   3.389   3.899
 3172SOL     OW 9529   3.987   2.188   4.444
 3172SOL    HW1 9530   3.908   2.239   4.410
 3172SOL    HW2 9531   3.978   2.173   4.542
 3173SOL     OW 9532   4.314   3.349   4.215
 3173SOL    HW1 9533   4.356   3.291   4.145
 3173SOL    HW2 9534   4.270   3.428   4.171
 3174SOL     OW 9535   3.979   3.210   4.014
 3174SOL    HW1 9536   3.883   3.211   3.987
 3174SOL    HW2 9537   3.991   3.263   4.098
 3175SOL     OW 9538   3.799   2.207   3.757
 3175SOL    HW1 9539   3.707   2.179   3.728
 3175SOL    HW2 9540   3.830   2.284   3.701
 3176SOL     OW 9541   3.796   2.028   4.042
 3176SOL    HW1 9542   3.779   2.111   3.988
 3176SOL    HW2 9543   3.886   1.991   4.020
 3177SOL     OW 9544   4.318   2.607   4.376
 3177SOL    HW1 9545   4.368   2.692   4.357
 3177SOL    HW2 9546   4.230   2.609   4.328
 3178SOL     OW 9547   4.385   3.652   4.677
 3178SOL    HW1 9548   4.339   3.740   4.664
 3178SOL    HW2 9549   4.484   3.664   4.670
 3179SOL     OW 9550   4.583   2.818   4.585
 3179SOL    HW1 9551   4.637   2.749   4.633
 3179SOL    HW2 9552   4.551   2.887   4.651
 3180SOL     OW 9553   3.803   3.102   4.377
 3180SOL    HW1 9554   3.802   3.055   4.465
 3180SOL    HW2 9555   3.885   3.074   4.326
 3181SOL     OW 9556   4.152   2.286   4.244
 3181SOL    HW1 9557   4.182   2.214   4.182
 3181SOL    HW2 9558   4.113   2.246   4.327
 3182SOL     OW 9559   4.536   3.448   4.411
 3182SOL    HW1 9560   4.568   3.458   4.317
 3182SOL    HW2 9561   4.457   3.386   4.413
 3183SOL     OW 9562   4.494   3.192   4.025
 3183SOL    HW1 9563   4.448   3.105   4.042
 3183SOL    HW2 9564   4.585   3.189   4.066
 3184SOL     OW 9565   3.763   2.939   4.024
 3184SOL    HW1 9566   3.862   2.928   4.015
 3184SOL    HW2 9567   3.723   2.853   4.056
 3185SOL     OW 9568   4.599   3.508   4.061
 3185SOL    HW1 9569   4.522   3.473   4.007
 3185SOL    HW2 9570   4.567   3.579   4.123
 3186SOL     OW 9571   3.954   4.352   0.113
 3186SOL    HW1 9572   3.861   4.350   0.150
 3186SOL    HW2 9573   3.955   4.313   0.021
 3187SOL     OW 9574   3.949   3.999   0.996
 3187SOL    HW1 9575   3.984   3.982   1.088
 3187SOL    HW2 9576   3.861   3.954   0.984
 3188SOL     OW 9577   3.743   4.092   0.647
 3188SOL    HW1 9578   3.661   4.135   0.686
 3188SOL    HW2 9579   3.715   4.019   0.584
 3189SOL     OW 9580   4.574   4.522   1.823
 3189SOL    HW1 9581   4.570   4.598   1.888
 3189SOL    HW2 9582   4.596   4.558   1.732
 3190SOL     OW 9583   4.409   4.736   0.665
 3190SOL    HW1 9584   4.478   4.720   0.735
 3190SOL    HW2 9585   4.336   4.793   0.703
 3191SOL     OW 9586   4.162   4.116   1.499
 3191SOL    HW1 9587   4.244   4.060   1.508
 3191SOL    HW2 9588   4.081   4.058   1.503
 3192SOL     OW 9589   3.846   4.367   0.563
 3192SOL    HW1 9590   3.801   4.279   0.580
 3192SOL    HW2 9591   3.845   4.421   0.647
 3193SOL     OW 9592   3.837   4.461   1.597
 3193SOL    HW1 9593   3.925   4.448   1.642
 3193SOL    HW2 9594   3.824   4.558   1.575
 3194SOL     OW 9595   4.533   3.728   0.502
 3194SOL    HW1 9596   4.573   3.819   0.493
 3194SOL    HW2 9597   4.433   3.736   0.508
 3195SOL     OW 9598   4.041   3.975   1.801
 3195SOL    HW1 9599   4.112   4.046   1.807
 3195SOL    HW2 9600   3.953   4.014   1.829
 3196SOL     OW 9601   4.322   4.453   0.270
 3196SOL    HW1 9602   4.346   4.522   0.202
 3196SOL    HW2 9603   4.244   4.486   0.324
 3197SOL     OW 9604   4.531   4.329   1.465
 3197SOL    HW1 9605   4.484   4.326   1.554
 3197SOL    HW2 9606   4.480   4.274   1.399
 3198SOL     OW 9607   3.800   4.535   0.789
 3198SOL    HW1 9608   3.899   4.523   0.798
 3198SOL    HW2 9609   3.776   4.630   0.810
 3199SOL     OW 9610   4.589   4.072   0.195
 3199SOL    HW1 9611   4.648   4.135   0.146
 3199SOL    HW2 9612   4.608   3.978   0.166
 3200SOL     OW 9613   4.274   3.920   0.885
 3200SOL    HW1 9614   4.269   3.915   0.985
 3200SOL    HW2 9615   4.276   4.016   0.856
 3201SOL     OW 9616   3.926   4.009   1.498
 3201SOL    HW1 9617   3.846   4.069   1.485
 3201SOL    HW2 9618   3.916   3.960   1.584
 3202SOL     OW 9619   4.106   4.424   0.480
 3202SOL    HW1 9620   4.151   4.334   0.477
 3202SOL    HW2 9621   4.012   4.413   0.513
 3203SOL     OW 9622   4.505   3.988   1.749
 3203SOL    HW1 9623   4.572   3.927   1.792
 3203SOL    HW2 9624   4.432   4.007   1.814
 3204SOL     OW 9625   4.646   4.227   0.899
 3204SOL    HW1 9626   4.621   4.218   0.803
 3204SOL    HW2 9627   4.694   4.145   0.930
 3205SOL     OW 9628   4.263   3.788   0.512
 3205SOL    HW1 9629   4.182   3.789   0.570
 3205SOL    HW2 9630   4.266   3.871   0.457
 3206SOL     OW 9631   4.021   3.759   0.171
 3206SOL    HW1 9632   4.070   3.843   0.150
 3206SOL    HW2 9633   4.083   3.694   0.216
 3207SOL     OW 9634   3.802   4.280   1.386
 3207SOL    HW1 9635   3.894   4.279   1.345
 3207SOL    HW2 9636   3.796   4.354   1.453
 3208SOL     OW 9637   4.285   3.946   1.147
 3208SOL    HW1 9638   4.323   3.862   1.184
 3208SOL    HW2 9639   4.197   3.965   1.191
 3209SOL     OW 9640   4.251   3.980   0.328
 3209SOL    HW1 9641   4.278   3.921   0.253
 3209SOL    HW2 9642   4.251   4.075   0.297
 3210SOL     OW 9643   4.639   3.813   1.402
 3210SOL    HW1 9644   4.664   3.793   1.307
 3210SOL    HW2 9645   4.711   3.869   1.444
 3211SOL     OW 9646   4.134   4.537   1.251
 3211SOL    HW1 9647   4.220   4.549   1.301
 3211SOL    HW2 9648   4.092   4.450   1.278
 3212SOL     OW 9649   4.290   4.261   0.865
 3212SOL    HW1 9650   4.302   4.327   0.791
 3212SOL    HW2 9651   4.336   4.295   0.948
 3213SOL     OW 9652   4.126   4.475   1.598
 3213SOL    HW1 9653   4.194   4.530   1.551
 3213SOL    HW2 9654   4.166   4.387   1.625
 3214SOL     OW 9655   4.228   3.774   1.740
 3214SOL    HW1 9656   4.186   3.717   1.670
 3214SOL    HW2 9657   4.162   3.843   1.772
 3215SOL     OW 9658   4.297   4.594   1.029
 3215SOL    HW1 9659   4.341   4.683   1.020
 3215SOL    HW2 9660   4.234   4.594   1.106
 3216SOL     OW 9661   4.031   3.937   1.231
 3216SOL    HW1 9662   4.008   3.974   1.321
 3216SOL    HW2 9663   4.001   3.842   1.225
 3217SOL     OW 9664   4.456   4.358   1.064
 3217SOL    HW1 9665   4.515   4.332   0.988
 3217SOL    HW2 9666   4.428   4.454   1.053
 3218SOL     OW 9667   4.031   3.787   0.618
 3218SOL    HW1 9668   4.020   3.881   0.651
 3218SOL    HW2 9669   4.026   3.724   0.695
 3219SOL     OW 9670   4.747   4.490   0.966
 3219SOL    HW1 9671   4.762   4.511   1.062
 3219SOL    HW2 9672   4.717   4.395   0.957
 3220SOL     OW 9673   4.043   4.534   0.949
 3220SOL    HW1 9674   4.136   4.570   0.954
 3220SOL    HW2 9675   4.037   4.449   1.001
 3221SOL     OW 9676   4.063   4.233   1.006
 3221SOL    HW1 9677   4.011   4.150   0.989
 3221SOL    HW2 9678   4.140   4.238   0.942
 3222SOL     OW 9679   4.726   4.520   1.238
 3222SOL    HW1 9680   4.767   4.488   1.324
 3222SOL    HW2 9681   4.630   4.493   1.235
 3223SOL     OW 9682   3.764   4.268   1.114
 3223SOL    HW1 9683   3.849   4.235   1.073
 3223SOL    HW2 9684   3.777   4.283   1.212
 3224SOL     OW 9685   3.913   4.244   1.722
 3224SOL    HW1 9686   3.972   4.204   1.652
 3224SOL    HW2 9687   3.855   4.315   1.681
 3225SOL     OW 9688   4.539   4.296   0.325
 3225SOL    HW1 9689   4.546   4.207   0.279
 3225SOL    HW2 9690   4.445   4.330   0.317
 3226SOL     OW 9691   4.395   4.188   1.269
 3226SOL    HW1 9692   4.361   4.099   1.239
 3226SOL    HW2 9693   4.421   4.242   1.189
 3227SOL     OW 9694   4.197   4.224   0.191
 3227SOL    HW1 9695   4.258   4.304   0.195
 3227SOL    HW2 9696   4.102   4.255   0.198
 3228SOL     OW 9697   4.627   3.810   0.133
 3228SOL    HW1 9698   4.678   3.811   0.047
 3228SOL    HW2 9699   4.683   3.768   0.204
 3229SOL     OW 9700   3.987   4.050   0.720
 3229SOL    HW1 9701   3.908   4.101   0.686
 3229SOL    HW2 9702   3.978   4.035   0.818
 3230SOL     OW 9703   4.763   4.822   0.696
 3230SOL    HW1 9704   4.693   4.775   0.750
 3230SOL    HW2 9705   4.822   4.754   0.653
 3231SOL     OW 9706   3.829   4.737   1.726
 3231SOL    HW1 9707   3.752   4.704   1.780
 3231SOL    HW2 9708   3.914   4.707   1.768
 3232SOL     OW 9709   4.396   3.927   1.489
 3232SOL    HW1 9710   4.486   3.911   1.449
 3232SOL    HW2 9711   4.404   3.932   1.588
 3233SOL     OW 9712   3.796   3.890   0.318
 3233SOL    HW1 9713   3.779   3.973   0.264
 3233SOL    HW2 9714   3.886   3.853   0.296
 3234SOL     OW 9715   4.337   4.566   1.431
 3234SOL    HW1 9716   4.393   4.647   1.414
 3234SOL    HW2 9717   4.396   4.486   1.434
 3235SOL     OW 9718   4.440   4.289   1.708
 3235SOL    HW1 9719   4.459   4.354   1.782
 3235SOL    HW2 9720   4.500   4.209   1.717
 3236SOL     OW 9721   4.318   4.469   0.652
 3236SOL    HW1 9722   4.368   4.554   0.633
 3236SOL    HW2 9723   4.230   4.471   0.604
 3237SOL     OW 9724   4.583   4.680   0.861
 3237SOL    HW1 9725   4.637   4.611   0.909
 3237SOL    HW2 9726   4.551   4.749   0.927
 3238SOL     OW 9727   4.152   4.148   0.520
 3238SOL    HW1 9728   4.182   4.076   0.458
 3238SOL    HW2 9729   4.113   4.108   0.603
 3239SOL     OW 9730   4.041   4.271   1.280
 3239SOL    HW1 9731   4.079   4.212   1.352
 3239SOL    HW2 9732   4.081   4.245   1.192
 3240SOL     OW 9733   4.725   3.758   1.154
 3240SOL    HW1 9734   4.662   3.686   1.123
 3240SOL    HW2 9735   4.818   3.722   1.154
 3241SOL     OW 9736   3.954   4.352   1.975
 3241SOL    HW1 9737   3.861   4.350   2.012
 3241SOL    HW2 9738   3.955   4.313   1.883
 3242SOL     OW 9739   3.949   3.999   2.858
 3242SOL    HW1 9740   3.984   3.982   2.950
 3242SOL    HW2 9741   3.861   3.954   2.846
 3243SOL     OW 9742   3.743   4.092   2.509
 3243SOL    HW1 9743   3.661   4.135   2.548
 3243SOL    HW2 9744   3.715   4.019   2.446
 3244SOL     OW 9745   4.574   4.522   3.685
 3244SOL    HW1 9746   4.570   4.598   3.750
 3244SOL    HW2 9747   4.596   4.558   3.594
 3245SOL     OW 9748   4.409   4.736   2.527
 3245SOL    HW1 9749   4.478   4.720   2.597
 3245SOL    HW2 9750   4.336   4.793   2.565
 3246SOL     OW 9751   4.162   4.116   3.361
 3246SOL    HW1 9752   4.244   4.060   3.370
 3246SOL    HW2 9753   4.081   4.058   3.365
 3247SOL     OW 9754   3.846   4.367   2.425
 3247SOL    HW1 9755   3.801   4.279   2.442
 3247SOL    HW2 9756   3.845   4.421   2.509
 3248SOL     OW 9757   3.837   4.461   3.459
 3248SOL    HW1 9758   3.925   4.448   3.504
 3248SOL    HW2 9759   3.824   4.558   3.437
 3249SOL     OW 9760   4.533   3.728   2.364
 3249SOL    HW1 9761   4.573   3.819   2.355
 3249SOL    HW2 9762   4.433   3.736   2.370
 3250SOL     OW 9763   4.041   3.975   3.663
 3250SOL    HW1 9764   4.112   4.046   3.669
 3250SOL    HW2 9765   3.953   4.014   3.691
 3251SOL     OW 9766   4.322   4.453   2.132
 3251SOL    HW1 9767   4.346   4.522   2.064
 3251SOL    HW2 9768   4.244   4.486   2.186
 3252SOL     OW 9769   4.531   4.329   3.327
 3252SOL    HW1 9770   4.484   4.326   3.416
 3252SOL    HW2 9771   4.480   4.274   3.261
 3253SOL     OW 9772   3.800   4.535   2.651
 3253SOL    HW1 9773   3.899   4.523   2.660
 3253SOL    HW2 9774   3.776   4.630   2.672
 3254SOL     OW 9775   4.589   4.072   2.057
 3254SOL    HW1 9776   4.648   4.135   2.008
 3254SOL    HW2 9777   4.608   3.978   2.028
 3255SOL     OW 9778   4.274   3.920   2.747
 3255SOL    HW1 9779   4.269   3.915   2.847
 3255SOL    HW2 9780   4.276   4.016   2.718
 3256SOL     OW 9781   3.926   4.009   3.360
 3256SOL    HW1 9782   3.846   4.069   3.347
 3256SOL    HW2 9783   3.916   3.960   3.446
 3257SOL     OW 9784   4.106   4.424   2.342
 3257SOL    HW1 9785   4.151   4.334   2.339
 3257SOL    HW2 9786   4.012   4.413   2.375
 3258SOL     OW 9787   4.338   3.846   1.979
 3258SOL    HW1 9788   4.436   3.824   1.986
 3258SOL    HW2 9789   4.307   3.829   1.886
 3259SOL     OW 9790   4.505   3.988   3.611
 3259SOL    HW1 9791   4.572   3.927   3.654
 3259SOL    HW2 9792   4.432   4.007   3.676
 3260SOL     OW 9793   4.646   4.227   2.761
 3260SOL    HW1 9794   4.621   4.218   2.665
 3260SOL    HW2 9795   4.694   4.145   2.792
 3261SOL     OW 9796   4.263   3.788   2.374
 3261SOL    HW1 9797   4.182   3.789   2.432
 3261SOL    HW2 9798   4.266   3.871   2.319
 3262SOL     OW 9799   4.021   3.759   2.033
 3262SOL    HW1 9800   4.070   3.843   2.012
 3262SOL    HW2 9801   4.083   3.694   2.078
 3263SOL     OW 9802   3.802   4.280   3.248
 3263SOL    HW1 9803   3.894   4.279   3.207
 3263SOL    HW2 9804   3.796   4.354   3.315
 3264SOL     OW 9805   4.285   3.946   3.009
 3264SOL    HW1 9806   4.323   3.862   3.046
 3264SOL    HW2 9807   4.197   3.965   3.053
 3265SOL     OW 9808   4.251   3.980   2.190
 3265SOL    HW1 9809   4.278   3.921   2.115
 3265SOL    HW2 9810   4.251   4.075   2.159
 3266SOL     OW 9811   4.639   3.813   3.264
 3266SOL    HW1 9812   4.664   3.793   3.169
 3266SOL    HW2 9813   4.711   3.869   3.306
 3267SOL     OW 9814   4.134   4.537   3.113
 3267SOL    HW1 9815   4.220   4.549   3.163
 3267SOL    HW2 9816   4.092   4.450   3.140
 3268SOL     OW 9817   4.290   4.261   2.727
 3268SOL    HW1 9818   4.302   4.327   2.653
 3268SOL    HW2 9819   4.336   4.295   2.810
 3269SOL     OW 9820   4.126   4.475   3.460
 3269SOL    HW1 9821   4.194   4.530   3.413
 3269SOL    HW2 9822   4.166   4.387   3.487
 3270SOL     OW 9823   4.228   3.774   3.602
 3270SOL    HW1 9824   4.186   3.717   3.532
 3270SOL    HW2 9825   4.162   3.843   3.634
 3271SOL     OW 9826   4.297   4.594   2.891
 3271SOL    HW1 9827   4.341   4.683   2.882
 3271SOL    HW2 9828   4.234   4.594   2.968
 3272SOL     OW 9829   4.031   3.937   3.093
 3272SOL    HW1 9830   4.008   3.974   3.183
 3272SOL    HW2 9831   4.001   3.842   3.087
 3273SOL     OW 9832   4.456   4.358   2.926
 3273SOL    HW1 9833   4.515   4.332   2.850
 3273SOL    HW2 9834   4.428   4.454   2.915
 3274SOL     OW 9835   4.031   3.787   2.480
 3274SOL    HW1 9836   4.020   3.881   2.513
 3274SOL    HW2 9837   4.026   3.724   2.557
 3275SOL     OW 9838   4.747   4.490   2.828
 3275SOL    HW1 9839   4.762   4.511   2.924
 3275SOL    HW2 9840   4.717   4.395   2.819
 3276SOL     OW 9841   4.043   4.534   2.811
 3276SOL    HW1 9842   4.136   4.570   2.816
 3276SOL    HW2 9843   4.037   4.449   2.863
 3277SOL     OW 9844   4.063   4.233   2.868
 3277SOL    HW1 9845   4.011   4.150   2.851
 3277SOL    HW2 9846   4.140   4.238   2.804
 3278SOL     OW 9847   4.726   4.520   3.100
 3278SOL    HW1 9848   4.767   4.488   3.186
 3278SOL    HW2 9849   4.630   4.493   3.097
 3279SOL     OW 9850   3.764   4.268   2.976
 3279SOL    HW1 9851   3.849   4.235   2.935
 3279SOL    HW2 9852   3.777   4.283   3.074
 3280SOL     OW 9853   3.913   4.244   3.584
 3280SOL    HW1 9854   3.972   4.204   3.514
 3280SOL    HW2 9855   3.855   4.315   3.543
 3281SOL     OW 9856   4.539   4.296   2.187
 3281SOL    HW1 9857   4.546   4.207   2.141
 3281SOL    HW2 9858   4.445   4.330   2.179
 3282SOL     OW 9859   4.395   4.188   3.131
 3282SOL    HW1 9860   4.361   4.099   3.101
 3282SOL    HW2 9861   4.421   4.242   3.051
 3283SOL     OW 9862   4.197   4.224   2.053
 3283SOL    HW1 9863   4.258   4.304   2.057
 3283SOL    HW2 9864   4.102   4.255   2.060
 3284SOL     OW 9865   4.627   3.810   1.995
 3284SOL    HW1 9866   4.678   3.811   1.909
 3284SOL    HW2 9867   4.683   3.768   2.066
 3285SOL     OW 9868   3.987   4.050   2.582
 3285SOL    HW1 9869   3.908   4.101   2.548
 3285SOL    HW2 9870   3.978   4.035   2.680
 3286SOL     OW 9871   4.763   4.822   2.558
 3286SOL    HW1 9872   4.693   4.775   2.612
 3286SOL    HW2 9873   4.822   4.754   2.515
 3287SOL     OW 9874   3.829   4.737   3.588
 3287SOL    HW1 9875   3.752   4.704   3.642
 3287SOL    HW2 9876   3.914   4.707   3.630
 3288SOL     OW 9877   4.396   3.927   3.351
 3288SOL    HW1 9878   4.486   3.911   3.311
 3288SOL    HW2 9879   4.404   3.932   3.450
 3289SOL     OW 9880   3.799   4.069   1.895
 3289SOL    HW1 9881   3.707   4.041   1.866
 3289SOL    HW2 9882   3.830   4.146   1.839
 3290SOL     OW 9883   3.796   3.890   2.180
 3290SOL    HW1 9884   3.779   3.973   2.126
 3290SOL    HW2 9885   3.886   3.853   2.158
 3291SOL     OW 9886   4.337   4.566   3.293
 3291SOL    HW1 9887   4.393   4.647   3.276
 3291SOL    HW2 9888   4.396   4.486   3.296
 3292SOL     OW 9889   4.440   4.289   3.570
 3292SOL    HW1 9890   4.459   4.354   3.644
 3292SOL    HW2 9891   4.500   4.209   3.579
 3293SOL     OW 9892   4.318   4.469   2.514
 3293SOL    HW1 9893   4.368   4.554   2.495
 3293SOL    HW2 9894   4.230   4.471   2.466
 3294SOL     OW 9895   4.583   4.680   2.723
 3294SOL    HW1 9896   4.637   4.611   2.771
 3294SOL    HW2 9897   4.551   4.749   2.789
 3295SOL     OW 9898   4.152   4.148   2.382
 3295SOL    HW1 9899   4.182   4.076   2.320
 3295SOL    HW2 9900   4.113   4.108   2.465
 3296SOL     OW 9901   4.041   4.271   3.142
 3296SOL    HW1 9902   4.079   4.212   3.214
 3296SOL    HW2 9903   4.081   4.245   3.054
 3297SOL     OW 9904   4.725   3.758   3.016
 3297SOL    HW1 9905   4.662   3.686   2.985
 3297SOL    HW2 9906   4.818   3.722   3.016
 3298SOL     OW 9907   3.954   4.352   3.837
 3298SOL    HW1 9908   3.861   4.350   3.874
 3298SOL    HW2 9909   3.955   4.313   3.745
 3299SOL     OW 9910   3.949   3.999   4.720
 3299SOL    HW1 9911   3.984   3.982   4.812
 3299SOL    HW2 9912   3.861   3.954   4.708
 3300SOL     OW 9913   3.743   4.092   4.371
 3300SOL    HW1 9914   3.661   4.135   4.410
 3300SOL    HW2 9915   3.715   4.019   4.308
 3301SOL     OW 9916   4.409   4.736   4.389
 3301SOL    HW1 9917   4.478   4.720   4.459
 3301SOL    HW2 9918   4.336   4.793   4.427
 3302SOL     OW 9919   3.846   4.367   4.287
 3302SOL    HW1 9920   3.801   4.279   4.304
 3302SOL    HW2 9921   3.845   4.421   4.371
 3303SOL     OW 9922   4.533   3.728   4.226
 3303SOL    HW1 9923   4.573   3.819   4.217
 3303SOL    HW2 9924   4.433   3.736   4.232
 3304SOL     OW 9925   4.322   4.453   3.994
 3304SOL    HW1 9926   4.346   4.522   3.926
 3304SOL    HW2 9927   4.244   4.486   4.048
 3305SOL     OW 9928   3.800   4.535   4.513
 3305SOL    HW1 9929   3.899   4.523   4.522
 3305SOL    HW2 9930   3.776   4.630   4.534
 3306SOL     OW 9931   4.589   4.072   3.919
 3306SOL    HW1 9932   4.648   4.135   3.870
 3306SOL    HW2 9933   4.608   3.978   3.890
 3307SOL     OW 9934   4.274   3.920   4.609
 3307SOL    HW1 9935   4.269   3.915   4.709
 3307SOL    HW2 9936   4.276   4.016   4.580
 3308SOL     OW 9937   4.106   4.424   4.204
 3308SOL    HW1 9938   4.151   4.334   4.201
 3308SOL    HW2 9939   4.012   4.413   4.237
 3309SOL     OW 9940   4.338   3.846   3.841
 3309SOL    HW1 9941   4.436   3.824   3.848
 3309SOL    HW2 9942   4.307   3.829   3.748
 3310SOL     OW 9943   4.263   3.788   4.236
 3310SOL    HW1 9944   4.182   3.789   4.294
 3310SOL    HW2 9945   4.266   3.871   4.181
 3311SOL     OW 9946   4.021   3.759   3.895
 3311SOL    HW1 9947   4.070   3.843   3.874
 3311SOL    HW2 9948   4.083   3.694   3.940
 3312SOL     OW 9949   4.251   3.980   4.052
 3312SOL    HW1 9950   4.278   3.921   3.977
 3312SOL    HW2 9951   4.251   4.075   4.021
 3313SOL     OW 9952   4.998   4.110   4.986
 3313SOL    HW1 9953   5.019   4.184   5.050
 3313SOL    HW2 9954   4.909   4.127   4.943
 3314SOL     OW 9955   4.290   4.261   4.589
 3314SOL    HW1 9956   4.302   4.327   4.515
 3314SOL    HW2 9957   4.336   4.295   4.672
 3315SOL     OW 9958   4.456   4.358   4.788
 3315SOL    HW1 9959   4.515   4.332   4.712
 3315SOL    HW2 9960   4.428   4.454   4.777
 3316SOL     OW 9961   4.031   3.787   4.342
 3316SOL    HW1 9962   4.020   3.881   4.375
 3316SOL    HW2 9963   4.026   3.724   4.419
 3317SOL     OW 9964   4.747   4.490   4.690
 3317SOL    HW1 9965   4.762   4.511   4.786
 3317SOL    HW2 9966   4.717   4.395   4.681
 3318SOL     OW 9967   4.539   4.296   4.049
 3318SOL    HW1 9968   4.546   4.207   4.003
 3318SOL    HW2 9969   4.445   4.330   4.041
 3319SOL     OW 9970   4.197   4.224   3.915
 3319SOL    HW1 9971   4.258   4.304   3.919
 3319SOL    HW2 9972   4.102   4.255   3.922
 3320SOL     OW 9973   4.627   3.810   3.857
 3320SOL    HW1 9974   4.678   3.811   3.771
 3320SOL    HW2 9975   4.683   3.768   3.928
 3321SOL     OW 9976   3.987   4.050   4.444
 3321SOL    HW1 9977   3.908   4.101   4.410
 3321SOL    HW2 9978   3.978   4.035   4.542
 3322SOL     OW 9979   4.763   4.822   4.420
 3322SOL    HW1 9980   4.693   4.775   4.474
 3322SOL    HW2 9981   4.822   4.754   4.377
 3323SOL     OW 9982   3.799   4.069   3.757
 3323SOL    HW1 9983   3.707   4.041   3.728
 3323SOL    HW2 9984   3.830   4.146   3.701
 3324SOL     OW 9985   3.796   3.890   4.042
 3324SOL    HW1 9986   3.779   3.973   3.988
 3324SOL    HW2 9987   3.886   3.853   4.020
 3325SOL     OW 9988   4.318   4.469   4.376
 3325SOL    HW1 9989   4.368   4.554   4.357
 3325SOL    HW2 9990   4.230   4.471   4.328
 3326SOL     OW 9991   4.583   4.680   4.585
 3326SOL    HW1 9992   4.637   4.611   4.633
 3326SOL    HW2 9993   4.551   4.749   4.651
 3327SOL     OW 9994   4.152   4.148   4.244
 3327SOL    HW1 9995   4.182   4.076   4.182
 3327SOL    HW2 9996   4.113   4.108   4.327
   4.68387   4.68387   4.68387
