mobley_1363784_GMX.gro created by acpype (v: 2023.10.27) on Thu May 21 00:02:49 2026
   17
    1MOL     C1    1   2.369   2.366   2.293
    1MOL     C2    2   2.159   2.259   2.320
    1MOL     C3    3   2.319   2.231   2.482
    1MOL     C4    4   2.242   2.340   2.244
    1MOL     C5    5   2.410   2.310   2.414
    1MOL     C6    6   2.195   2.398   2.115
    1MOL     C7    7   2.546   2.336   2.468
    1MOL     N1    8   2.194   2.203   2.438
    1MOL     H1    9   2.438   2.429   2.236
    1MOL     H2   10   2.058   2.235   2.287
    1MOL     H3   11   2.345   2.185   2.577
    1MOL     H4   12   2.145   2.321   2.054
    1MOL     H5   13   2.126   2.481   2.131
    1MOL     H6   14   2.279   2.438   2.056
    1MOL     H7   15   2.551   2.436   2.512
    1MOL     H8   16   2.573   2.263   2.546
    1MOL     H9   17   2.623   2.328   2.390
   4.65468   4.65468   4.65468
