; mobley_3515580_GMX_OPLS.top created by acpype (v: 2023.10.27) on Thu May 21 00:03:50 2026

; Include forcefield parameters
#include "ffoplsaa.itp"

; Include mobley_3515580_GMX.itp topology
#include "mobley_3515580_GMX.itp"

; Ligand position restraints
#ifdef POSRES_LIG
#include "posre_mobley_3515580.itp"
#endif

[ system ]
 mobley_3515580

[ molecules ]
; Compound        nmols
 mobley_3515580   1     
