SAMPL4_037
    17
   3.0990000  -1.7440000   0.1850000   1.9830000  -1.0940000  -0.3420000
   3.2450000  -1.8690000   1.5660000   1.0130000  -0.5690000   0.5120000
   2.2760000  -1.3450000   2.4210000   1.1600000  -0.6940000   1.8940000
  -0.9020000   0.4730000   2.0990000   2.4300000  -1.4720000   3.7680000
   0.2060000  -0.1760000   2.7180000   3.8540000  -2.1530000  -0.4810000
   1.8690000  -0.9960000  -1.4180000   4.1170000  -2.3770000   1.9700000
   0.1470000  -0.0620000   0.0950000  -1.5870000   0.8390000   2.8680000
  -1.4190000  -0.2330000   1.4430000  -0.5360000   1.3160000   1.5080000
   3.2540000  -1.9460000   3.9670000
