; mobley_3515580_GMX_OPLS.itp created by acpype (v: 2023.10.27) on Thu May 21 00:03:50 2026

; For OPLS atomtypes manual fine tuning
; AC_at:OPLS_at:OPLScode: Possible_Alternatives (see ffoplsaa.atp and ffoplsaanb.itp)
; ca:CA:opls_145: ['166', '501', '502']
; c3:CT:opls_135: ['136', '137', '149', '157', '158', '206', '209', '210', '223B', '224B', '245', '246', '274', '283', '284', '285', '292', '292B', '293B', '296', '307', '308', '505']
; oh:OH:opls_154: ['167']
; os:x:opls_x: []
; ha:HA:opls_146: []
; h1:HC:opls_140: []
; ho:HO:opls_155: ['168']

[ moleculetype ]
;name            nrexcl
 mobley_3515580   3

[ atoms ]
;   nr  type  resi  res  atom  cgnr     charge      mass       ; qtot   bond_type
     1 opls_145     1   MOL    C1    1    -0.125000     12.01100 ; qtot -0.125  CA  
     2 opls_145     1   MOL    C2    2    -0.130000     12.01100 ; qtot -0.255  CA  
     3 opls_145     1   MOL    C3    3    -0.188000     12.01100 ; qtot -0.443  CA  
     4 opls_145     1   MOL    C4    4    -0.176000     12.01100 ; qtot -0.619  CA  
     5 opls_145     1   MOL    C5    5     0.101100     12.01100 ; qtot -0.518  CA  
     6 opls_145     1   MOL    C6    6     0.101100     12.01100 ; qtot -0.417  CA  
     7 opls_135     1   MOL    C7    7     0.110700     12.01100 ; qtot -0.306  CT  
     8 opls_154     1   MOL    O1    8    -0.478099     15.99940 ; qtot -0.784  OH  
     9 opls_x     1   MOL    O2    9    -0.303900      0.00000 ; qtot -1.088  x   
    10 opls_146     1   MOL    H1   10     0.134000      1.00800 ; qtot -0.954  HA  
    11 opls_146     1   MOL    H2   11     0.134000      1.00800 ; qtot -0.820  HA  
    12 opls_146     1   MOL    H3   12     0.135000      1.00800 ; qtot -0.685  HA  
    13 opls_146     1   MOL    H4   13     0.139000      1.00800 ; qtot -0.546  HA  
    14 opls_140     1   MOL    H5   14     0.044033      1.00800 ; qtot -0.502  HC  
    15 opls_140     1   MOL    H6   15     0.044033      1.00800 ; qtot -0.458  HC  
    16 opls_140     1   MOL    H7   16     0.044033      1.00800 ; qtot -0.414  HC  
    17 opls_155     1   MOL    H8   17     0.414000      1.00800 ; qtot -0.000  HO  

[ bonds ]
;   ai     aj funct   r             k
     1      2   1 ;    1.3986e-01    2.9644e+05 ;     C1 - C2         CA - CA    
     1      3   1 ;    1.3986e-01    2.9644e+05 ;     C1 - C3         CA - CA    
     1     10   1 ;    1.0860e-01    3.0183e+05 ;     C1 - H1         CA - HA    
     2      4   1 ;    1.3986e-01    2.9644e+05 ;     C2 - C4         CA - CA    
     2     11   1 ;    1.0860e-01    3.0183e+05 ;     C2 - H2         CA - HA    
     3      5   1 ;    1.3986e-01    2.9644e+05 ;     C3 - C5         CA - CA    
     3     12   1 ;    1.0860e-01    3.0183e+05 ;     C3 - H3         CA - HA    
     4      6   1 ;    1.3986e-01    2.9644e+05 ;     C4 - C6         CA - CA    
     4     13   1 ;    1.0860e-01    3.0183e+05 ;     C4 - H4         CA - HA    
     5      6   1 ;    1.3986e-01    2.9644e+05 ;     C5 - C6         CA - CA    
     5      8   1 ;    1.3644e-01    2.9167e+05 ;     C5 - O1         CA - OH    
     6      9   1 ;    1.3688e-01    2.8731e+05 ;     C6 - O2         CA - x     
     7      9   1 ;    1.4273e-01    2.3620e+05 ;     C7 - O2         CT - x     
     7     14   1 ;    1.0969e-01    2.8804e+05 ;     C7 - H5         CT - HC    
     7     15   1 ;    1.0969e-01    2.8804e+05 ;     C7 - H6         CT - HC    
     7     16   1 ;    1.0969e-01    2.8804e+05 ;     C7 - H7         CT - HC    
     8     17   1 ;    9.7250e-02    4.4811e+05 ;     O1 - H8         OH - HO    

[ pairs ]
;   ai     aj    funct
     1      6      1 ;     C1 - C6    
     1      8      1 ;     C1 - O1    
     1     13      1 ;     C1 - H4    
     2      5      1 ;     C2 - C5    
     2      9      1 ;     C2 - O2    
     2     12      1 ;     C2 - H3    
     3      4      1 ;     C3 - C4    
     3      9      1 ;     C3 - O2    
     3     11      1 ;     C3 - H2    
     3     17      1 ;     C3 - H8    
     4      7      1 ;     C4 - C7    
     4      8      1 ;     C4 - O1    
     5      7      1 ;     C5 - C7    
     5     13      1 ;     C5 - H4    
     6     11      1 ;     C6 - H2    
     6     12      1 ;     C6 - H3    
     6     14      1 ;     C6 - H5    
     6     15      1 ;     C6 - H6    
     6     16      1 ;     C6 - H7    
     6     17      1 ;     C6 - H8    
     8      9      1 ;     O1 - O2    
     8     12      1 ;     O1 - H3    
     9     13      1 ;     O2 - H4    
    10      4      1 ;     H1 - C4    
    10      5      1 ;     H1 - C5    
    10     11      1 ;     H1 - H2    
    10     12      1 ;     H1 - H3    
    11     13      1 ;     H2 - H4    

[ angles ]
;   ai     aj     ak    funct   theta         cth
     1      2      4      1 ;    1.2002e+02    5.3279e+02 ;     C1 - C2   - C4       CA -   CA - CA  
     1      2     11      1 ;    1.1988e+02    3.7572e+02 ;     C1 - C2   - H2       CA -   CA - HA  
     1      3      5      1 ;    1.2002e+02    5.3279e+02 ;     C1 - C3   - C5       CA -   CA - CA  
     1      3     12      1 ;    1.1988e+02    3.7572e+02 ;     C1 - C3   - H3       CA -   CA - HA  
     2      1      3      1 ;    1.2002e+02    5.3279e+02 ;     C2 - C1   - C3       CA -   CA - CA  
     2      1     10      1 ;    1.1988e+02    3.7572e+02 ;     C2 - C1   - H1       CA -   CA - HA  
     2      4      6      1 ;    1.2002e+02    5.3279e+02 ;     C2 - C4   - C6       CA -   CA - CA  
     2      4     13      1 ;    1.1988e+02    3.7572e+02 ;     C2 - C4   - H4       CA -   CA - HA  
     3      1     10      1 ;    1.1988e+02    3.7572e+02 ;     C3 - C1   - H1       CA -   CA - HA  
     3      5      6      1 ;    1.2002e+02    5.3279e+02 ;     C3 - C5   - C6       CA -   CA - CA  
     3      5      8      1 ;    1.1990e+02    6.5990e+02 ;     C3 - C5   - O1       CA -   CA - OH  
     4      2     11      1 ;    1.1988e+02    3.7572e+02 ;     C4 - C2   - H2       CA -   CA - HA  
     4      6      5      1 ;    1.2002e+02    5.3279e+02 ;     C4 - C6   - C5       CA -   CA - CA  
     4      6      9      1 ;    1.1911e+02    6.6107e+02 ;     C4 - C6   - O2       CA -   CA - x   
     5      3     12      1 ;    1.1988e+02    3.7572e+02 ;     C5 - C3   - H3       CA -   CA - HA  
     5      6      9      1 ;    1.1911e+02    6.6107e+02 ;     C5 - C6   - O2       CA -   CA - x   
     5      8     17      1 ;    1.0858e+02    5.6409e+02 ;     C5 - O1   - H8       CA -   OH - HO  
     6      4     13      1 ;    1.1988e+02    3.7572e+02 ;     C6 - C4   - H4       CA -   CA - HA  
     6      5      8      1 ;    1.1990e+02    6.5990e+02 ;     C6 - C5   - O1       CA -   CA - OH  
     6      9      7      1 ;    1.1839e+02    7.3856e+02 ;     C6 - O2   - C7       CA -    x - CT  
     9      7     14      1 ;    1.1034e+02    4.7028e+02 ;     O2 - C7   - H5        x -   CT - HC  
     9      7     15      1 ;    1.1034e+02    4.7028e+02 ;     O2 - C7   - H6        x -   CT - HC  
     9      7     16      1 ;    1.1034e+02    4.7028e+02 ;     O2 - C7   - H7        x -   CT - HC  
    14      7     15      1 ;    1.0855e+02    2.9824e+02 ;     H5 - C7   - H6       HC -   CT - HC  
    14      7     16      1 ;    1.0855e+02    2.9824e+02 ;     H5 - C7   - H7       HC -   CT - HC  
    15      7     16      1 ;    1.0855e+02    2.9824e+02 ;     H6 - C7   - H7       HC -   CT - HC  

[ dihedrals ] ; propers
; for gromacs 4.5 or higher, using funct 9
;    i      j      k      l   func   phase     kd      pn
     1      2      4      6      9 ;   180.00  15.16700   2 ;     C1-    C2-    C4-    C6
     1      2      4     13      9 ;   180.00  15.16700   2 ;     C1-    C2-    C4-    H4
     1      3      5      6      9 ;   180.00  15.16700   2 ;     C1-    C3-    C5-    C6
     1      3      5      8      9 ;   180.00  15.16700   2 ;     C1-    C3-    C5-    O1
     2      1      3      5      9 ;   180.00  15.16700   2 ;     C2-    C1-    C3-    C5
     2      1      3     12      9 ;   180.00  15.16700   2 ;     C2-    C1-    C3-    H3
     2      4      6      5      9 ;   180.00  15.16700   2 ;     C2-    C4-    C6-    C5
     2      4      6      9      9 ;   180.00  15.16700   2 ;     C2-    C4-    C6-    O2
     3      1      2      4      9 ;   180.00  15.16700   2 ;     C3-    C1-    C2-    C4
     3      1      2     11      9 ;   180.00  15.16700   2 ;     C3-    C1-    C2-    H2
     3      5      6      4      9 ;   180.00  15.16700   2 ;     C3-    C5-    C6-    C4
     3      5      6      9      9 ;   180.00  15.16700   2 ;     C3-    C5-    C6-    O2
     3      5      8     17      9 ;   180.00   3.57732   2 ;     C3-    C5-    O1-    H8
     4      6      5      8      9 ;   180.00  15.16700   2 ;     C4-    C6-    C5-    O1
     4      6      9      7      9 ;   180.00   6.94544   2 ;     C4-    C6-    O2-    C7
     5      6      4     13      9 ;   180.00  15.16700   2 ;     C5-    C6-    C4-    H4
     5      6      9      7      9 ;   180.00   6.94544   2 ;     C5-    C6-    O2-    C7
     6      4      2     11      9 ;   180.00  15.16700   2 ;     C6-    C4-    C2-    H2
     6      5      3     12      9 ;   180.00  15.16700   2 ;     C6-    C5-    C3-    H3
     6      5      8     17      9 ;   180.00   3.57732   2 ;     C6-    C5-    O1-    H8
     6      9      7     14      9 ;     0.00   1.60387   3 ;     C6-    O2-    C7-    H5
     6      9      7     15      9 ;     0.00   1.60387   3 ;     C6-    O2-    C7-    H6
     6      9      7     16      9 ;     0.00   1.60387   3 ;     C6-    O2-    C7-    H7
     8      5      3     12      9 ;   180.00  15.16700   2 ;     O1-    C5-    C3-    H3
     8      5      6      9      9 ;   180.00  15.16700   2 ;     O1-    C5-    C6-    O2
     9      6      4     13      9 ;   180.00  15.16700   2 ;     O2-    C6-    C4-    H4
    10      1      2      4      9 ;   180.00  15.16700   2 ;     H1-    C1-    C2-    C4
    10      1      2     11      9 ;   180.00  15.16700   2 ;     H1-    C1-    C2-    H2
    10      1      3      5      9 ;   180.00  15.16700   2 ;     H1-    C1-    C3-    C5
    10      1      3     12      9 ;   180.00  15.16700   2 ;     H1-    C1-    C3-    H3
    11      2      4     13      9 ;   180.00  15.16700   2 ;     H2-    C2-    C4-    H4

[ dihedrals ] ; impropers
; treated as propers in GROMACS to use correct AMBER analytical function
;    i      j      k      l   func   phase     kd      pn
     1      4      2     11      4 ;   180.00   4.60240   2 ;     C1-    C4-    C2-    H2
     1      5      3     12      4 ;   180.00   4.60240   2 ;     C1-    C5-    C3-    H3
     2      6      4     13      4 ;   180.00   4.60240   2 ;     C2-    C6-    C4-    H4
     3      6      5      8      4 ;   180.00   4.60240   2 ;     C3-    C6-    C5-    O1
     4      5      6      9      4 ;   180.00   4.60240   2 ;     C4-    C5-    C6-    O2
    10      1      3      2      4 ;   180.00   4.60240   2 ;     H1-    C1-    C3-    C2
