mobley_3980099_GMX.gro created by acpype (v: 2023.10.27) on Wed May 20 23:44:47 2026
 2412
    1MOL     C1    1   2.283   2.278   2.132
    1MOL     C2    2   2.176   2.338   2.199
    1MOL     C3    3   2.388   2.222   2.204
    1MOL     C4    4   2.174   2.341   2.339
    1MOL     C5    5   2.386   2.225   2.344
    1MOL     C6    6   2.279   2.284   2.411
    1MOL    CL1    7   2.038   2.417   2.415
    1MOL    CL2    8   2.519   2.152   2.427
    1MOL    CL3    9   2.277   2.288   2.585
    1MOL     H1   10   2.284   2.276   2.023
    1MOL     H2   11   2.095   2.381   2.141
    1MOL     H3   12   2.470   2.176   2.150
   14SOL     OW   13   1.460   1.505   1.339
   14SOL    HW1   14   1.484   1.599   1.365
   14SOL    HW2   15   1.444   1.451   1.421
   18SOL     OW   16   1.127   1.341   1.690
   18SOL    HW1   17   1.174   1.341   1.778
   18SOL    HW2   18   1.079   1.254   1.679
   31SOL     OW   19   1.293   1.228   1.423
   31SOL    HW1   20   1.330   1.155   1.365
   31SOL    HW2   21   1.345   1.233   1.508
   35SOL     OW   22   1.187   1.792   1.616
   35SOL    HW1   23   1.211   1.852   1.540
   35SOL    HW2   24   1.194   1.697   1.586
   37SOL     OW   25   1.466   1.417   0.953
   37SOL    HW1   26   1.407   1.423   1.033
   37SOL    HW2   27   1.451   1.329   0.907
   56SOL     OW   28   1.227   1.550   1.506
   56SOL    HW1   29   1.233   1.473   1.570
   56SOL    HW2   30   1.175   1.524   1.426
   95SOL     OW   31   1.754   1.223   1.588
   95SOL    HW1   32   1.845   1.184   1.575
   95SOL    HW2   33   1.762   1.319   1.612
   96SOL     OW   34   1.064   1.347   1.340
   96SOL    HW1   35   0.984   1.324   1.395
   96SOL    HW2   36   1.147   1.321   1.389
   97SOL     OW   37   1.592   1.629   1.625
   97SOL    HW1   38   1.619   1.663   1.535
   97SOL    HW2   39   1.671   1.591   1.671
  109SOL     OW   40   1.272   1.445   1.142
  109SOL    HW1   41   1.319   1.458   1.229
  109SOL    HW2   42   1.206   1.371   1.151
  113SOL     OW   43   1.587   0.779   1.670
  113SOL    HW1   44   1.495   0.817   1.665
  113SOL    HW2   45   1.647   0.826   1.605
  122SOL     OW   46   1.728   0.935   1.854
  122SOL    HW1   47   1.682   0.928   1.765
  122SOL    HW2   48   1.666   0.979   1.920
  126SOL     OW   49   0.980   1.573   1.700
  126SOL    HW1   50   0.960   1.617   1.612
  126SOL    HW2   51   1.019   1.482   1.684
  127SOL     OW   52   1.859   1.518   1.605
  127SOL    HW1   53   1.873   1.545   1.510
  127SOL    HW2   54   1.942   1.540   1.658
  142SOL     OW   55   1.369   0.950   1.660
  142SOL    HW1   56   1.408   1.039   1.680
  142SOL    HW2   57   1.379   0.930   1.563
  147SOL     OW   58   0.930   1.678   1.465
  147SOL    HW1   59   0.906   1.660   1.370
  147SOL    HW2   60   0.960   1.772   1.475
  152SOL     OW   61   1.759   1.747   1.154
  152SOL    HW1   62   1.820   1.777   1.081
  152SOL    HW2   63   1.721   1.658   1.132
  153SOL     OW   64   1.252   1.731   1.128
  153SOL    HW1   65   1.336   1.736   1.074
  153SOL    HW2   66   1.229   1.635   1.146
  155SOL     OW   67   0.688   1.662   1.716
  155SOL    HW1   68   0.632   1.743   1.725
  155SOL    HW2   69   0.740   1.666   1.630
  163SOL     OW   70   1.650   1.720   1.394
  163SOL    HW1   71   1.703   1.730   1.310
  163SOL    HW2   72   1.623   1.810   1.428
  171SOL     OW   73   1.614   1.292   1.289
  171SOL    HW1   74   1.674   1.295   1.369
  171SOL    HW2   75   1.539   1.356   1.302
  184SOL     OW   76   1.493   1.767   0.959
  184SOL    HW1   77   1.526   1.831   0.890
  184SOL    HW2   78   1.559   1.761   1.034
  186SOL     OW   79   1.450   1.220   1.633
  186SOL    HW1   80   1.441   1.210   1.732
  186SOL    HW2   81   1.546   1.213   1.607
  192SOL     OW   82   1.730   0.934   1.517
  192SOL    HW1   83   1.768   1.025   1.532
  192SOL    HW2   84   1.722   0.917   1.418
  197SOL     OW   85   1.861   1.569   0.851
  197SOL    HW1   86   1.790   1.557   0.781
  197SOL    HW2   87   1.862   1.490   0.911
  203SOL     OW   88   1.705   1.487   1.104
  203SOL    HW1   89   1.612   1.462   1.077
  203SOL    HW2   90   1.731   1.437   1.186
  219SOL     OW   91   1.555   1.511   2.565
  219SOL    HW1   92   1.498   1.495   2.646
  219SOL    HW2   93   1.496   1.521   2.485
  221SOL     OW   94   1.755   0.607   2.093
  221SOL    HW1   95   1.743   0.594   1.994
  221SOL    HW2   96   1.725   0.526   2.142
  227SOL     OW   97   1.460   1.505   3.201
  227SOL    HW1   98   1.484   1.599   3.227
  227SOL    HW2   99   1.444   1.451   3.283
  238SOL     OW  100   1.842   1.767   2.221
  238SOL    HW1  101   1.896   1.738   2.301
  238SOL    HW2  102   1.872   1.857   2.192
  240SOL     OW  103   1.689   0.922   2.474
  240SOL    HW1  104   1.784   0.893   2.482
  240SOL    HW2  105   1.681   0.987   2.399
  241SOL     OW  106   1.641   1.108   2.294
  241SOL    HW1  107   1.727   1.110   2.242
  241SOL    HW2  108   1.655   1.155   2.382
  244SOL     OW  109   1.293   1.228   3.285
  244SOL    HW1  110   1.330   1.155   3.227
  244SOL    HW2  111   1.345   1.233   3.370
  247SOL     OW  112   1.525   0.999   2.052
  247SOL    HW1  113   1.462   0.923   2.065
  247SOL    HW2  114   1.573   1.017   2.138
  248SOL     OW  115   1.187   1.792   3.478
  248SOL    HW1  116   1.211   1.852   3.402
  248SOL    HW2  117   1.194   1.697   3.448
  250SOL     OW  118   1.466   1.417   2.815
  250SOL    HW1  119   1.407   1.423   2.895
  250SOL    HW2  120   1.451   1.329   2.769
  251SOL     OW  121   1.667   1.714   2.434
  251SOL    HW1  122   1.626   1.691   2.346
  251SOL    HW2  123   1.649   1.640   2.499
  254SOL     OW  124   1.576   1.662   2.169
  254SOL    HW1  125   1.665   1.708   2.172
  254SOL    HW2  126   1.555   1.638   2.074
  264SOL     OW  127   1.362   1.144   2.407
  264SOL    HW1  128   1.445   1.115   2.359
  264SOL    HW2  129   1.313   1.211   2.351
  266SOL     OW  130   1.008   1.456   2.339
  266SOL    HW1  131   0.962   1.528   2.287
  266SOL    HW2  132   1.004   1.476   2.437
  268SOL     OW  133   1.795   1.066   2.735
  268SOL    HW1  134   1.733   1.051   2.659
  268SOL    HW2  135   1.743   1.077   2.820
  269SOL     OW  136   1.227   1.550   3.368
  269SOL    HW1  137   1.233   1.473   3.432
  269SOL    HW2  138   1.175   1.524   3.288
  271SOL     OW  139   1.458   0.735   2.590
  271SOL    HW1  140   1.453   0.670   2.665
  271SOL    HW2  141   1.538   0.794   2.603
  273SOL     OW  142   1.111   1.776   2.099
  273SOL    HW1  143   1.051   1.714   2.149
  273SOL    HW2  144   1.142   1.732   2.014
  275SOL     OW  145   1.632   1.377   1.943
  275SOL    HW1  146   1.600   1.471   1.933
  275SOL    HW2  147   1.556   1.314   1.931
  279SOL     OW  148   0.940   1.698   2.766
  279SOL    HW1  149   1.020   1.641   2.787
  279SOL    HW2  150   0.891   1.658   2.689
  284SOL     OW  151   0.888   1.514   3.057
  284SOL    HW1  152   0.865   1.489   2.963
  284SOL    HW2  153   0.949   1.445   3.096
  286SOL     OW  154   0.803   1.402   2.786
  286SOL    HW1  155   0.893   1.416   2.744
  286SOL    HW2  156   0.732   1.404   2.715
  289SOL     OW  157   1.434   1.188   1.903
  289SOL    HW1  158   1.466   1.112   1.960
  289SOL    HW2  159   1.342   1.215   1.933
  293SOL     OW  160   1.227   1.570   2.655
  293SOL    HW1  161   1.248   1.644   2.590
  293SOL    HW2  162   1.295   1.570   2.728
  295SOL     OW  163   1.271   1.797   2.453
  295SOL    HW1  164   1.315   1.861   2.389
  295SOL    HW2  165   1.221   1.849   2.523
  301SOL     OW  166   1.429   1.173   2.729
  301SOL    HW1  167   1.374   1.089   2.722
  301SOL    HW2  168   1.455   1.202   2.637
  303SOL     OW  169   1.857   0.833   2.239
  303SOL    HW1  170   1.899   0.769   2.303
  303SOL    HW2  171   1.819   0.782   2.161
  305SOL     OW  172   1.664   1.280   2.519
  305SOL    HW1  173   1.763   1.288   2.533
  305SOL    HW2  174   1.619   1.364   2.550
  308SOL     OW  175   1.754   1.223   3.450
  308SOL    HW1  176   1.845   1.184   3.437
  308SOL    HW2  177   1.762   1.319   3.474
  309SOL     OW  178   1.064   1.347   3.202
  309SOL    HW1  179   0.984   1.324   3.257
  309SOL    HW2  180   1.147   1.321   3.251
  310SOL     OW  181   1.592   1.629   3.487
  310SOL    HW1  182   1.619   1.663   3.397
  310SOL    HW2  183   1.671   1.591   3.533
  311SOL     OW  184   1.111   1.195   2.962
  311SOL    HW1  185   1.071   1.239   3.043
  311SOL    HW2  186   1.070   1.232   2.879
  312SOL     OW  187   1.638   1.099   2.941
  312SOL    HW1  188   1.643   1.180   3.000
  312SOL    HW2  189   1.552   1.101   2.890
  321SOL     OW  190   1.252   1.348   2.250
  321SOL    HW1  191   1.302   1.425   2.290
  321SOL    HW2  192   1.157   1.350   2.282
  322SOL     OW  193   1.272   1.445   3.004
  322SOL    HW1  194   1.319   1.458   3.091
  322SOL    HW2  195   1.206   1.371   3.013
  323SOL     OW  196   1.582   0.639   2.334
  323SOL    HW1  197   1.551   0.700   2.407
  323SOL    HW2  198   1.632   0.691   2.265
  340SOL     OW  199   1.859   1.518   3.467
  340SOL    HW1  200   1.873   1.545   3.372
  340SOL    HW2  201   1.942   1.540   3.520
  343SOL     OW  202   1.303   0.838   1.904
  343SOL    HW1  203   1.337   0.745   1.919
  343SOL    HW2  204   1.321   0.865   1.809
  344SOL     OW  205   1.068   1.333   2.711
  344SOL    HW1  206   1.075   1.249   2.656
  344SOL    HW2  207   1.130   1.402   2.675
  363SOL     OW  208   1.347   1.059   3.096
  363SOL    HW1  209   1.371   0.996   3.022
  363SOL    HW2  210   1.257   1.099   3.078
  364SOL     OW  211   1.302   0.855   2.171
  364SOL    HW1  212   1.216   0.824   2.213
  364SOL    HW2  213   1.298   0.841   2.072
  365SOL     OW  214   1.759   1.747   3.016
  365SOL    HW1  215   1.820   1.777   2.943
  365SOL    HW2  216   1.721   1.658   2.994
  366SOL     OW  217   1.252   1.731   2.990
  366SOL    HW1  218   1.336   1.736   2.936
  366SOL    HW2  219   1.229   1.635   3.008
  370SOL     OW  220   1.388   1.573   2.339
  370SOL    HW1  221   1.455   1.585   2.265
  370SOL    HW2  222   1.348   1.662   2.362
  372SOL     OW  223   1.280   0.927   2.534
  372SOL    HW1  224   1.340   0.846   2.536
  372SOL    HW2  225   1.320   0.996   2.474
  374SOL     OW  226   0.672   1.616   2.016
  374SOL    HW1  227   0.681   1.626   1.917
  374SOL    HW2  228   0.632   1.527   2.037
  375SOL     OW  229   1.650   1.720   3.256
  375SOL    HW1  230   1.703   1.730   3.172
  375SOL    HW2  231   1.623   1.810   3.290
  378SOL     OW  232   1.194   1.612   1.893
  378SOL    HW1  233   1.200   1.519   1.930
  378SOL    HW2  234   1.135   1.612   1.813
  381SOL     OW  235   1.504   1.607   1.906
  381SOL    HW1  236   1.412   1.644   1.913
  381SOL    HW2  237   1.542   1.627   1.816
  383SOL     OW  238   1.614   1.292   3.151
  383SOL    HW1  239   1.674   1.295   3.231
  383SOL    HW2  240   1.539   1.356   3.164
  384SOL     OW  241   1.039   1.098   2.558
  384SOL    HW1  242   0.969   1.051   2.612
  384SOL    HW2  243   1.098   1.030   2.515
  394SOL     OW  244   1.183   1.335   1.981
  394SOL    HW1  245   1.084   1.324   1.983
  394SOL    HW2  246   1.217   1.350   2.074
  396SOL     OW  247   1.493   1.767   2.821
  396SOL    HW1  248   1.526   1.831   2.752
  396SOL    HW2  249   1.559   1.761   2.896
  400SOL     OW  250   1.674   0.883   3.116
  400SOL    HW1  251   1.647   0.794   3.079
  400SOL    HW2  252   1.675   0.951   3.043
  405SOL     OW  253   0.859   1.374   1.878
  405SOL    HW1  254   0.813   1.389   1.966
  405SOL    HW2  255   0.903   1.459   1.848
  406SOL     OW  256   0.661   1.790   2.815
  406SOL    HW1  257   0.615   1.878   2.802
  406SOL    HW2  258   0.760   1.802   2.808
  408SOL     OW  259   1.083   0.984   1.949
  408SOL    HW1  260   1.060   1.037   1.867
  408SOL    HW2  261   1.164   0.928   1.930
  409SOL     OW  262   1.861   1.569   2.713
  409SOL    HW1  263   1.790   1.557   2.643
  409SOL    HW2  264   1.862   1.490   2.773
  415SOL     OW  265   1.705   1.487   2.966
  415SOL    HW1  266   1.612   1.462   2.939
  415SOL    HW2  267   1.731   1.437   3.048
  417SOL     OW  268   0.812   1.586   2.549
  417SOL    HW1  269   0.844   1.596   2.455
  417SOL    HW2  270   0.733   1.524   2.551
  420SOL     OW  271   0.770   1.330   2.163
  420SOL    HW1  272   0.724   1.243   2.180
  420SOL    HW2  273   0.861   1.327   2.204
  426SOL     OW  274   0.875   1.646   2.199
  426SOL    HW1  275   0.798   1.611   2.145
  426SOL    HW2  276   0.843   1.717   2.261
  529SOL     OW  277   0.850   2.660   1.823
  529SOL    HW1  278   0.846   2.736   1.888
  529SOL    HW2  279   0.872   2.696   1.732
  533SOL     OW  280   1.460   3.367   1.339
  533SOL    HW1  281   1.484   3.461   1.365
  533SOL    HW2  282   1.444   3.313   1.421
  535SOL     OW  283   1.603   2.309   0.737
  535SOL    HW1  284   1.529   2.355   0.687
  535SOL    HW2  285   1.654   2.377   0.790
  537SOL     OW  286   1.127   3.203   1.690
  537SOL    HW1  287   1.174   3.203   1.778
  537SOL    HW2  288   1.079   3.116   1.679
  542SOL     OW  289   1.594   1.976   1.480
  542SOL    HW1  290   1.576   2.043   1.408
  542SOL    HW2  291   1.591   2.022   1.569
  550SOL     OW  292   1.293   3.090   1.423
  550SOL    HW1  293   1.330   3.017   1.365
  550SOL    HW2  294   1.345   3.095   1.508
  559SOL     OW  295   1.281   2.207   0.944
  559SOL    HW1  296   1.195   2.157   0.931
  559SOL    HW2  297   1.343   2.153   1.000
  561SOL     OW  298   0.807   2.467   1.465
  561SOL    HW1  299   0.760   2.464   1.554
  561SOL    HW2  300   0.756   2.412   1.399
  562SOL     OW  301   1.394   2.331   1.674
  562SOL    HW1  302   1.374   2.374   1.762
  562SOL    HW2  303   1.472   2.269   1.683
  563SOL     OW  304   0.973   2.752   1.572
  563SOL    HW1  305   1.019   2.668   1.543
  563SOL    HW2  306   0.917   2.786   1.497
  564SOL     OW  307   0.991   2.272   1.242
  564SOL    HW1  308   0.914   2.306   1.296
  564SOL    HW2  309   0.957   2.221   1.163
  569SOL     OW  310   1.719   2.447   1.831
  569SOL    HW1  311   1.693   2.536   1.795
  569SOL    HW2  312   1.717   2.379   1.758
  574SOL     OW  313   1.795   2.928   0.873
  574SOL    HW1  314   1.733   2.913   0.797
  574SOL    HW2  315   1.743   2.939   0.958
  575SOL     OW  316   1.227   3.412   1.506
  575SOL    HW1  317   1.233   3.335   1.570
  575SOL    HW2  318   1.175   3.386   1.426
  577SOL     OW  319   1.458   2.597   0.728
  577SOL    HW1  320   1.453   2.532   0.803
  577SOL    HW2  321   1.538   2.656   0.741
  587SOL     OW  322   1.547   2.084   1.729
  587SOL    HW1  323   1.542   2.121   1.821
  587SOL    HW2  324   1.475   2.015   1.717
  588SOL     OW  325   0.781   2.126   1.749
  588SOL    HW1  326   0.848   2.065   1.792
  588SOL    HW2  327   0.708   2.145   1.814
  590SOL     OW  328   1.351   2.452   1.433
  590SOL    HW1  329   1.379   2.409   1.518
  590SOL    HW2  330   1.376   2.548   1.434
  597SOL     OW  331   1.076   2.545   1.464
  597SOL    HW1  332   0.996   2.484   1.467
  597SOL    HW2  333   1.157   2.492   1.440
  607SOL     OW  334   1.466   2.452   0.992
  607SOL    HW1  335   1.436   2.357   0.999
  607SOL    HW2  336   1.539   2.468   1.058
  613SOL     OW  337   1.754   3.085   1.588
  613SOL    HW1  338   1.845   3.046   1.575
  613SOL    HW2  339   1.762   3.181   1.612
  614SOL     OW  340   1.064   3.209   1.340
  614SOL    HW1  341   0.984   3.186   1.395
  614SOL    HW2  342   1.147   3.183   1.389
  615SOL     OW  343   1.592   3.491   1.625
  615SOL    HW1  344   1.619   3.525   1.535
  615SOL    HW2  345   1.671   3.453   1.671
  617SOL     OW  346   1.638   2.961   1.079
  617SOL    HW1  347   1.643   3.042   1.138
  617SOL    HW2  348   1.552   2.963   1.028
  618SOL     OW  349   0.915   1.951   1.402
  618SOL    HW1  350   0.940   1.931   1.307
  618SOL    HW2  351   0.987   2.007   1.444
  619SOL     OW  352   0.980   2.978   1.719
  619SOL    HW1  353   0.881   2.984   1.729
  619SOL    HW2  354   1.003   2.898   1.663
  622SOL     OW  355   1.274   2.248   1.262
  622SOL    HW1  356   1.295   2.322   1.326
  622SOL    HW2  357   1.185   2.265   1.219
  631SOL     OW  358   1.587   2.641   1.670
  631SOL    HW1  359   1.495   2.679   1.665
  631SOL    HW2  360   1.647   2.688   1.605
  632SOL     OW  361   1.013   1.967   1.770
  632SOL    HW1  362   1.019   2.052   1.718
  632SOL    HW2  363   1.045   1.891   1.713
  635SOL     OW  364   1.360   2.724   1.045
  635SOL    HW1  365   1.285   2.724   0.979
  635SOL    HW2  366   1.397   2.632   1.054
  640SOL     OW  367   1.728   2.797   1.854
  640SOL    HW1  368   1.682   2.790   1.765
  640SOL    HW2  369   1.666   2.841   1.920
  645SOL     OW  370   1.859   3.380   1.605
  645SOL    HW1  371   1.873   3.407   1.510
  645SOL    HW2  372   1.942   3.402   1.658
  652SOL     OW  373   1.138   2.242   1.678
  652SOL    HW1  374   1.093   2.305   1.742
  652SOL    HW2  375   1.231   2.273   1.661
  653SOL     OW  376   1.160   2.069   1.477
  653SOL    HW1  377   1.160   2.133   1.554
  653SOL    HW2  378   1.188   2.117   1.394
  657SOL     OW  379   1.002   2.658   1.238
  657SOL    HW1  380   1.043   2.626   1.324
  657SOL    HW2  381   0.906   2.631   1.235
  660SOL     OW  382   1.369   2.812   1.660
  660SOL    HW1  383   1.408   2.901   1.680
  660SOL    HW2  384   1.379   2.792   1.563
  662SOL     OW  385   1.657   2.466   1.206
  662SOL    HW1  386   1.619   2.397   1.268
  662SOL    HW2  387   1.739   2.430   1.162
  668SOL     OW  388   1.347   2.921   1.234
  668SOL    HW1  389   1.371   2.858   1.160
  668SOL    HW2  390   1.257   2.961   1.216
  681SOL     OW  391   1.650   3.582   1.394
  681SOL    HW1  392   1.703   3.592   1.310
  681SOL    HW2  393   1.623   3.672   1.428
  682SOL     OW  394   1.841   2.037   0.963
  682SOL    HW1  395   1.880   1.952   0.927
  682SOL    HW2  396   1.743   2.039   0.944
  689SOL     OW  397   1.614   3.154   1.289
  689SOL    HW1  398   1.674   3.157   1.369
  689SOL    HW2  399   1.539   3.218   1.302
  693SOL     OW  400   1.709   2.247   1.381
  693SOL    HW1  401   1.782   2.316   1.385
  693SOL    HW2  402   1.737   2.172   1.322
  698SOL     OW  403   1.440   2.718   1.398
  698SOL    HW1  404   1.383   2.770   1.335
  698SOL    HW2  405   1.536   2.730   1.374
  703SOL     OW  406   0.716   2.427   1.708
  703SOL    HW1  407   0.735   2.492   1.782
  703SOL    HW2  408   0.776   2.347   1.717
  704SOL     OW  409   1.450   3.082   1.633
  704SOL    HW1  410   1.441   3.072   1.732
  704SOL    HW2  411   1.546   3.075   1.607
  706SOL     OW  412   1.674   2.745   1.254
  706SOL    HW1  413   1.647   2.656   1.217
  706SOL    HW2  414   1.675   2.813   1.181
  709SOL     OW  415   1.777   2.204   1.642
  709SOL    HW1  416   1.760   2.235   1.548
  709SOL    HW2  417   1.693   2.167   1.680
  710SOL     OW  418   1.730   2.796   1.517
  710SOL    HW1  419   1.768   2.887   1.532
  710SOL    HW2  420   1.722   2.779   1.418
  719SOL     OW  421   1.824   2.054   1.227
  719SOL    HW1  422   1.820   1.964   1.271
  719SOL    HW2  423   1.827   2.043   1.128
  721SOL     OW  424   1.705   3.349   1.104
  721SOL    HW1  425   1.612   3.324   1.077
  721SOL    HW2  426   1.731   3.299   1.186
  724SOL     OW  427   1.424   2.076   1.112
  724SOL    HW1  428   1.476   2.011   1.167
  724SOL    HW2  429   1.375   2.139   1.173
  725SOL     OW  430   1.001   1.896   1.154
  725SOL    HW1  431   0.938   1.824   1.123
  725SOL    HW2  432   1.094   1.860   1.154
  730SOL     OW  433   1.593   2.083   0.882
  730SOL    HW1  434   1.509   2.082   0.936
  730SOL    HW2  435   1.595   2.166   0.826
  737SOL     OW  436   1.555   3.373   2.565
  737SOL    HW1  437   1.498   3.357   2.646
  737SOL    HW2  438   1.496   3.383   2.485
  738SOL     OW  439   1.135   2.565   2.579
  738SOL    HW1  440   1.192   2.643   2.554
  738SOL    HW2  441   1.075   2.591   2.655
  739SOL     OW  442   1.755   2.469   2.093
  739SOL    HW1  443   1.743   2.456   1.994
  739SOL    HW2  444   1.725   2.388   2.142
  740SOL     OW  445   0.768   3.006   2.885
  740SOL    HW1  446   0.690   3.023   2.945
  740SOL    HW2  447   0.802   3.093   2.849
  742SOL     OW  448   0.685   2.874   2.527
  742SOL    HW1  449   0.754   2.858   2.597
  742SOL    HW2  450   0.612   2.931   2.565
  745SOL     OW  451   1.460   3.367   3.201
  745SOL    HW1  452   1.484   3.461   3.227
  745SOL    HW2  453   1.444   3.313   3.283
  747SOL     OW  454   1.603   2.309   2.599
  747SOL    HW1  455   1.529   2.355   2.549
  747SOL    HW2  456   1.654   2.377   2.652
  753SOL     OW  457   0.606   2.826   1.985
  753SOL    HW1  458   0.613   2.910   1.931
  753SOL    HW2  459   0.652   2.839   2.073
  754SOL     OW  460   1.594   1.976   3.342
  754SOL    HW1  461   1.576   2.043   3.270
  754SOL    HW2  462   1.591   2.022   3.431
  756SOL     OW  463   1.842   3.629   2.221
  756SOL    HW1  464   1.896   3.600   2.301
  756SOL    HW2  465   1.872   3.719   2.192
  758SOL     OW  466   1.689   2.784   2.474
  758SOL    HW1  467   1.784   2.755   2.482
  758SOL    HW2  468   1.681   2.849   2.399
  759SOL     OW  469   1.641   2.970   2.294
  759SOL    HW1  470   1.727   2.972   2.242
  759SOL    HW2  471   1.655   3.017   2.382
  762SOL     OW  472   1.293   3.090   3.285
  762SOL    HW1  473   1.330   3.017   3.227
  762SOL    HW2  474   1.345   3.095   3.370
  763SOL     OW  475   0.809   1.866   2.364
  763SOL    HW1  476   0.849   1.957   2.355
  763SOL    HW2  477   0.709   1.874   2.370
  765SOL     OW  478   1.525   2.861   2.052
  765SOL    HW1  479   1.462   2.785   2.065
  765SOL    HW2  480   1.573   2.879   2.138
  768SOL     OW  481   1.466   3.279   2.815
  768SOL    HW1  482   1.407   3.285   2.895
  768SOL    HW2  483   1.451   3.191   2.769
  769SOL     OW  484   1.667   3.576   2.434
  769SOL    HW1  485   1.626   3.553   2.346
  769SOL    HW2  486   1.649   3.502   2.499
  770SOL     OW  487   0.598   2.591   2.132
  770SOL    HW1  488   0.622   2.660   2.064
  770SOL    HW2  489   0.520   2.624   2.186
  771SOL     OW  490   1.281   2.207   2.806
  771SOL    HW1  491   1.195   2.157   2.793
  771SOL    HW2  492   1.343   2.153   2.862
  772SOL     OW  493   1.576   3.524   2.169
  772SOL    HW1  494   1.665   3.570   2.172
  772SOL    HW2  495   1.555   3.500   2.074
  774SOL     OW  496   1.394   2.331   3.536
  774SOL    HW1  497   1.374   2.374   3.624
  774SOL    HW2  498   1.472   2.269   3.545
  776SOL     OW  499   0.991   2.272   3.104
  776SOL    HW1  500   0.914   2.306   3.158
  776SOL    HW2  501   0.957   2.221   3.025
  777SOL     OW  502   1.041   2.563   2.291
  777SOL    HW1  503   1.067   2.559   2.387
  777SOL    HW2  504   0.956   2.512   2.277
  780SOL     OW  505   0.865   2.210   2.057
  780SOL    HW1  506   0.924   2.273   2.008
  780SOL    HW2  507   0.884   2.116   2.028
  781SOL     OW  508   1.719   2.447   3.693
  781SOL    HW1  509   1.693   2.536   3.657
  781SOL    HW2  510   1.717   2.379   3.620
  782SOL     OW  511   1.362   3.006   2.407
  782SOL    HW1  512   1.445   2.977   2.359
  782SOL    HW2  513   1.313   3.073   2.351
  784SOL     OW  514   1.008   3.318   2.339
  784SOL    HW1  515   0.962   3.390   2.287
  784SOL    HW2  516   1.004   3.338   2.437
  786SOL     OW  517   1.795   2.928   2.735
  786SOL    HW1  518   1.733   2.913   2.659
  786SOL    HW2  519   1.743   2.939   2.820
  789SOL     OW  520   1.458   2.597   2.590
  789SOL    HW1  521   1.453   2.532   2.665
  789SOL    HW2  522   1.538   2.656   2.603
  793SOL     OW  523   1.632   3.239   1.943
  793SOL    HW1  524   1.600   3.333   1.933
  793SOL    HW2  525   1.556   3.176   1.931
  795SOL     OW  526   1.400   1.969   2.288
  795SOL    HW1  527   1.376   1.932   2.198
  795SOL    HW2  528   1.499   1.985   2.292
  799SOL     OW  529   1.547   2.084   3.591
  799SOL    HW1  530   1.542   2.121   3.683
  799SOL    HW2  531   1.475   2.015   3.579
  800SOL     OW  532   0.614   1.984   1.979
  800SOL    HW1  533   0.712   1.962   1.986
  800SOL    HW2  534   0.583   1.967   1.886
  803SOL     OW  535   1.351   2.452   3.295
  803SOL    HW1  536   1.379   2.409   3.380
  803SOL    HW2  537   1.376   2.548   3.296
  805SOL     OW  538   0.922   2.365   2.761
  805SOL    HW1  539   0.897   2.356   2.665
  805SOL    HW2  540   0.970   2.283   2.792
  806SOL     OW  541   0.539   1.926   2.374
  806SOL    HW1  542   0.458   1.927   2.432
  806SOL    HW2  543   0.542   2.009   2.319
  807SOL     OW  544   1.434   3.050   1.903
  807SOL    HW1  545   1.466   2.974   1.960
  807SOL    HW2  546   1.342   3.077   1.933
  809SOL     OW  547   0.935   2.098   2.342
  809SOL    HW1  548   0.887   2.139   2.264
  809SOL    HW2  549   1.034   2.096   2.323
  810SOL     OW  550   1.076   2.545   3.326
  810SOL    HW1  551   0.996   2.484   3.329
  810SOL    HW2  552   1.157   2.492   3.302
  811SOL     OW  553   1.227   3.432   2.655
  811SOL    HW1  554   1.248   3.506   2.590
  811SOL    HW2  555   1.295   3.432   2.728
  813SOL     OW  556   1.271   3.659   2.453
  813SOL    HW1  557   1.315   3.723   2.389
  813SOL    HW2  558   1.221   3.711   2.523
  814SOL     OW  559   1.032   2.411   1.878
  814SOL    HW1  560   0.991   2.493   1.839
  814SOL    HW2  561   1.096   2.437   1.951
  817SOL     OW  562   0.866   2.316   2.504
  817SOL    HW1  563   0.834   2.388   2.442
  817SOL    HW2  564   0.890   2.235   2.451
  818SOL     OW  565   1.017   1.901   2.615
  818SOL    HW1  566   0.945   1.906   2.546
  818SOL    HW2  567   0.993   1.832   2.684
  819SOL     OW  568   1.429   3.035   2.729
  819SOL    HW1  569   1.374   2.951   2.722
  819SOL    HW2  570   1.455   3.064   2.637
  820SOL     OW  571   1.466   2.452   2.854
  820SOL    HW1  572   1.436   2.357   2.861
  820SOL    HW2  573   1.539   2.468   2.920
  821SOL     OW  574   1.857   2.695   2.239
  821SOL    HW1  575   1.899   2.631   2.303
  821SOL    HW2  576   1.819   2.644   2.161
  823SOL     OW  577   1.664   3.142   2.519
  823SOL    HW1  578   1.763   3.150   2.533
  823SOL    HW2  579   1.619   3.226   2.550
  824SOL     OW  580   1.390   2.437   1.940
  824SOL    HW1  581   1.336   2.416   2.021
  824SOL    HW2  582   1.481   2.396   1.949
  825SOL     OW  583   0.527   2.118   2.190
  825SOL    HW1  584   0.554   2.059   2.115
  825SOL    HW2  585   0.527   2.213   2.159
  826SOL     OW  586   1.754   3.085   3.450
  826SOL    HW1  587   1.845   3.046   3.437
  826SOL    HW2  588   1.762   3.181   3.474
  827SOL     OW  589   1.064   3.209   3.202
  827SOL    HW1  590   0.984   3.186   3.257
  827SOL    HW2  591   1.147   3.183   3.251
  829SOL     OW  592   1.111   3.057   2.962
  829SOL    HW1  593   1.071   3.101   3.043
  829SOL    HW2  594   1.070   3.094   2.879
  830SOL     OW  595   1.638   2.961   2.941
  830SOL    HW1  596   1.643   3.042   3.000
  830SOL    HW2  597   1.552   2.963   2.890
  831SOL     OW  598   0.915   1.951   3.264
  831SOL    HW1  599   0.940   1.931   3.169
  831SOL    HW2  600   0.987   2.007   3.306
  833SOL     OW  601   0.705   2.912   2.230
  833SOL    HW1  602   0.691   2.919   2.329
  833SOL    HW2  603   0.789   2.861   2.212
  835SOL     OW  604   1.274   2.248   3.124
  835SOL    HW1  605   1.295   2.322   3.188
  835SOL    HW2  606   1.185   2.265   3.081
  838SOL     OW  607   0.566   2.399   2.727
  838SOL    HW1  608   0.578   2.465   2.653
  838SOL    HW2  609   0.612   2.433   2.810
  839SOL     OW  610   1.252   3.210   2.250
  839SOL    HW1  611   1.302   3.287   2.290
  839SOL    HW2  612   1.157   3.212   2.282
  840SOL     OW  613   1.272   3.307   3.004
  840SOL    HW1  614   1.319   3.320   3.091
  840SOL    HW2  615   1.206   3.233   3.013
  841SOL     OW  616   1.582   2.501   2.334
  841SOL    HW1  617   1.551   2.562   2.407
  841SOL    HW2  618   1.632   2.553   2.265
  844SOL     OW  619   1.587   2.641   3.532
  844SOL    HW1  620   1.495   2.679   3.527
  844SOL    HW2  621   1.647   2.688   3.467
  848SOL     OW  622   1.360   2.724   2.907
  848SOL    HW1  623   1.285   2.724   2.841
  848SOL    HW2  624   1.397   2.632   2.916
  849SOL     OW  625   1.209   2.387   2.137
  849SOL    HW1  626   1.222   2.303   2.191
  849SOL    HW2  627   1.180   2.461   2.197
  852SOL     OW  628   0.732   2.496   2.926
  852SOL    HW1  629   0.791   2.470   2.850
  852SOL    HW2  630   0.704   2.592   2.915
  853SOL     OW  631   1.728   2.797   3.716
  853SOL    HW1  632   1.682   2.790   3.627
  853SOL    HW2  633   1.666   2.841   3.782
  855SOL     OW  634   1.622   2.229   2.236
  855SOL    HW1  635   1.624   2.153   2.300
  855SOL    HW2  636   1.574   2.306   2.276
  856SOL     OW  637   1.023   2.628   2.828
  856SOL    HW1  638   1.038   2.649   2.924
  856SOL    HW2  639   0.993   2.533   2.819
  858SOL     OW  640   1.859   3.380   3.467
  858SOL    HW1  641   1.873   3.407   3.372
  858SOL    HW2  642   1.942   3.402   3.520
  860SOL     OW  643   1.540   2.136   1.987
  860SOL    HW1  644   1.479   2.061   2.010
  860SOL    HW2  645   1.562   2.188   2.070
  861SOL     OW  646   1.303   2.700   1.904
  861SOL    HW1  647   1.337   2.607   1.919
  861SOL    HW2  648   1.321   2.727   1.809
  862SOL     OW  649   1.068   3.195   2.711
  862SOL    HW1  650   1.075   3.111   2.656
  862SOL    HW2  651   1.130   3.264   2.675
  865SOL     OW  652   1.138   2.242   3.540
  865SOL    HW1  653   1.093   2.305   3.604
  865SOL    HW2  654   1.231   2.273   3.523
  866SOL     OW  655   1.160   2.069   3.339
  866SOL    HW1  656   1.160   2.133   3.416
  866SOL    HW2  657   1.188   2.117   3.256
  870SOL     OW  658   1.002   2.658   3.100
  870SOL    HW1  659   1.043   2.626   3.186
  870SOL    HW2  660   0.906   2.631   3.097
  873SOL     OW  661   1.369   2.812   3.522
  873SOL    HW1  662   1.408   2.901   3.542
  873SOL    HW2  663   1.379   2.792   3.425
  874SOL     OW  664   0.815   2.434   2.187
  874SOL    HW1  665   0.822   2.345   2.141
  874SOL    HW2  666   0.721   2.468   2.179
  875SOL     OW  667   1.657   2.466   3.068
  875SOL    HW1  668   1.619   2.397   3.130
  875SOL    HW2  669   1.739   2.430   3.024
  881SOL     OW  670   1.347   2.921   3.096
  881SOL    HW1  671   1.371   2.858   3.022
  881SOL    HW2  672   1.257   2.961   3.078
  882SOL     OW  673   1.302   2.717   2.171
  882SOL    HW1  674   1.216   2.686   2.213
  882SOL    HW2  675   1.298   2.703   2.072
  883SOL     OW  676   1.759   3.609   3.016
  883SOL    HW1  677   1.820   3.639   2.943
  883SOL    HW2  678   1.721   3.520   2.994
  887SOL     OW  679   1.726   1.997   2.385
  887SOL    HW1  680   1.799   1.980   2.318
  887SOL    HW2  681   1.695   1.910   2.423
  888SOL     OW  682   1.388   3.435   2.339
  888SOL    HW1  683   1.455   3.447   2.265
  888SOL    HW2  684   1.348   3.524   2.362
  890SOL     OW  685   1.280   2.789   2.534
  890SOL    HW1  686   1.340   2.708   2.536
  890SOL    HW2  687   1.320   2.858   2.474
  893SOL     OW  688   1.650   3.582   3.256
  893SOL    HW1  689   1.703   3.592   3.172
  893SOL    HW2  690   1.623   3.672   3.290
  894SOL     OW  691   1.841   2.037   2.825
  894SOL    HW1  692   1.880   1.952   2.789
  894SOL    HW2  693   1.743   2.039   2.806
  896SOL     OW  694   1.194   3.474   1.893
  896SOL    HW1  695   1.200   3.381   1.930
  896SOL    HW2  696   1.135   3.474   1.813
  898SOL     OW  697   0.916   2.772   2.153
  898SOL    HW1  698   0.979   2.810   2.085
  898SOL    HW2  699   0.956   2.689   2.192
  899SOL     OW  700   1.504   3.469   1.906
  899SOL    HW1  701   1.412   3.506   1.913
  899SOL    HW2  702   1.542   3.489   1.816
  901SOL     OW  703   1.614   3.154   3.151
  901SOL    HW1  704   1.674   3.157   3.231
  901SOL    HW2  705   1.539   3.218   3.164
  902SOL     OW  706   1.039   2.960   2.558
  902SOL    HW1  707   0.969   2.913   2.612
  902SOL    HW2  708   1.098   2.892   2.515
  903SOL     OW  709   1.014   2.098   2.833
  903SOL    HW1  710   1.006   2.062   2.740
  903SOL    HW2  711   1.012   2.022   2.898
  905SOL     OW  712   1.709   2.247   3.243
  905SOL    HW1  713   1.782   2.316   3.247
  905SOL    HW2  714   1.737   2.172   3.184
  910SOL     OW  715   1.440   2.718   3.260
  910SOL    HW1  716   1.383   2.770   3.197
  910SOL    HW2  717   1.536   2.730   3.236
  912SOL     OW  718   1.183   3.197   1.981
  912SOL    HW1  719   1.084   3.186   1.983
  912SOL    HW2  720   1.217   3.212   2.074
  914SOL     OW  721   1.493   3.629   2.821
  914SOL    HW1  722   1.526   3.693   2.752
  914SOL    HW2  723   1.559   3.623   2.896
  916SOL     OW  724   1.450   3.082   3.495
  916SOL    HW1  725   1.441   3.072   3.594
  916SOL    HW2  726   1.546   3.075   3.469
  918SOL     OW  727   1.674   2.745   3.116
  918SOL    HW1  728   1.647   2.656   3.079
  918SOL    HW2  729   1.675   2.813   3.043
  919SOL     OW  730   1.225   2.187   2.311
  919SOL    HW1  731   1.290   2.113   2.300
  919SOL    HW2  732   1.245   2.237   2.395
  920SOL     OW  733   0.594   2.607   2.514
  920SOL    HW1  734   0.644   2.692   2.495
  920SOL    HW2  735   0.506   2.609   2.466
  921SOL     OW  736   1.777   2.204   3.504
  921SOL    HW1  737   1.760   2.235   3.410
  921SOL    HW2  738   1.693   2.167   3.542
  922SOL     OW  739   1.730   2.796   3.379
  922SOL    HW1  740   1.768   2.887   3.394
  922SOL    HW2  741   1.722   2.779   3.280
  923SOL     OW  742   0.859   3.236   1.878
  923SOL    HW1  743   0.813   3.251   1.966
  923SOL    HW2  744   0.903   3.321   1.848
  925SOL     OW  745   0.859   2.818   2.723
  925SOL    HW1  746   0.913   2.749   2.771
  925SOL    HW2  747   0.827   2.887   2.789
  926SOL     OW  748   1.083   2.846   1.949
  926SOL    HW1  749   1.060   2.899   1.867
  926SOL    HW2  750   1.164   2.790   1.930
  927SOL     OW  751   1.861   3.431   2.713
  927SOL    HW1  752   1.790   3.419   2.643
  927SOL    HW2  753   1.862   3.352   2.773
  931SOL     OW  754   1.824   2.054   3.089
  931SOL    HW1  755   1.820   1.964   3.133
  931SOL    HW2  756   1.827   2.043   2.990
  933SOL     OW  757   1.705   3.349   2.966
  933SOL    HW1  758   1.612   3.324   2.939
  933SOL    HW2  759   1.731   3.299   3.048
  936SOL     OW  760   1.424   2.076   2.974
  936SOL    HW1  761   1.476   2.011   3.029
  936SOL    HW2  762   1.375   2.139   3.035
  937SOL     OW  763   1.001   1.896   3.016
  937SOL    HW1  764   0.938   1.824   2.985
  937SOL    HW2  765   1.094   1.860   3.016
  938SOL     OW  766   0.770   3.192   2.163
  938SOL    HW1  767   0.724   3.105   2.180
  938SOL    HW2  768   0.861   3.189   2.204
  940SOL     OW  769   1.352   1.914   2.030
  940SOL    HW1  770   1.387   1.873   1.946
  940SOL    HW2  771   1.262   1.876   2.050
  941SOL     OW  772   1.300   2.315   2.553
  941SOL    HW1  773   1.241   2.395   2.557
  941SOL    HW2  774   1.315   2.280   2.646
  942SOL     OW  775   1.593   2.083   2.744
  942SOL    HW1  776   1.509   2.082   2.798
  942SOL    HW2  777   1.595   2.166   2.688
  948SOL     OW  778   1.755   2.469   3.955
  948SOL    HW1  779   1.743   2.456   3.856
  948SOL    HW2  780   1.725   2.388   4.004
  994SOL     OW  781   1.390   2.437   3.802
  994SOL    HW1  782   1.336   2.416   3.883
  994SOL    HW2  783   1.481   2.396   3.811
 1004SOL     OW  784   1.540   2.136   3.849
 1004SOL    HW1  785   1.479   2.061   3.872
 1004SOL    HW2  786   1.562   2.188   3.932
 1160SOL     OW  787   1.400   3.831   2.288
 1160SOL    HW1  788   1.376   3.794   2.198
 1160SOL    HW2  789   1.499   3.847   2.292
 1207SOL     OW  790   1.726   3.859   2.385
 1207SOL    HW1  791   1.799   3.842   2.318
 1207SOL    HW2  792   1.695   3.772   2.423
 1209SOL     OW  793   1.841   3.899   2.825
 1209SOL    HW1  794   1.880   3.814   2.789
 1209SOL    HW2  795   1.743   3.901   2.806
 1229SOL     OW  796   1.352   3.776   2.030
 1229SOL    HW1  797   1.387   3.735   1.946
 1229SOL    HW2  798   1.262   3.738   2.050
 1282SOL     OW  799   2.431   1.275   1.165
 1282SOL    HW1  800   2.338   1.268   1.128
 1282SOL    HW2  801   2.442   1.364   1.209
 1286SOL     OW  802   2.630   1.144   1.023
 1286SOL    HW1  803   2.552   1.161   1.083
 1286SOL    HW2  804   2.664   1.231   0.987
 1287SOL     OW  805   2.712   0.798   1.823
 1287SOL    HW1  806   2.708   0.874   1.888
 1287SOL    HW2  807   2.734   0.834   1.732
 1289SOL     OW  808   2.548   1.161   1.803
 1289SOL    HW1  809   2.608   1.240   1.817
 1289SOL    HW2  810   2.462   1.192   1.762
 1290SOL     OW  811   2.197   1.435   1.061
 1290SOL    HW1  812   2.119   1.404   1.008
 1290SOL    HW2  813   2.255   1.493   1.004
 1291SOL     OW  814   3.322   1.505   1.339
 1291SOL    HW1  815   3.346   1.599   1.365
 1291SOL    HW2  816   3.306   1.451   1.421
 1295SOL     OW  817   2.989   1.341   1.690
 1295SOL    HW1  818   3.036   1.341   1.778
 1295SOL    HW2  819   2.941   1.254   1.679
 1298SOL     OW  820   2.482   1.786   1.439
 1298SOL    HW1  821   2.390   1.769   1.474
 1298SOL    HW2  822   2.510   1.878   1.465
 1306SOL     OW  823   1.975   0.737   1.597
 1306SOL    HW1  824   2.063   0.724   1.642
 1306SOL    HW2  825   1.962   0.834   1.575
 1308SOL     OW  826   3.155   1.228   1.423
 1308SOL    HW1  827   3.192   1.155   1.365
 1308SOL    HW2  828   3.207   1.233   1.508
 1310SOL     OW  829   2.059   0.976   1.264
 1310SOL    HW1  830   2.148   0.931   1.250
 1310SOL    HW2  831   1.986   0.911   1.245
 1312SOL     OW  832   3.049   1.792   1.616
 1312SOL    HW1  833   3.073   1.852   1.540
 1312SOL    HW2  834   3.056   1.697   1.586
 1321SOL     OW  835   2.835   0.890   1.572
 1321SOL    HW1  836   2.881   0.806   1.543
 1321SOL    HW2  837   2.779   0.924   1.497
 1325SOL     OW  838   1.992   1.821   1.571
 1325SOL    HW1  839   1.982   1.806   1.670
 1325SOL    HW2  840   1.906   1.857   1.535
 1331SOL     OW  841   2.213   1.801   0.853
 1331SOL    HW1  842   2.263   1.715   0.859
 1331SOL    HW2  843   2.278   1.878   0.850
 1333SOL     OW  844   3.089   1.550   1.506
 1333SOL    HW1  845   3.095   1.473   1.570
 1333SOL    HW2  846   3.037   1.524   1.426
 1336SOL     OW  847   2.323   1.266   1.727
 1336SOL    HW1  848   2.273   1.267   1.641
 1336SOL    HW2  849   2.260   1.248   1.803
 1342SOL     OW  850   2.111   1.785   1.241
 1342SOL    HW1  851   2.168   1.720   1.291
 1342SOL    HW2  852   2.095   1.752   1.148
 1343SOL     OW  853   2.802   1.698   0.904
 1343SOL    HW1  854   2.882   1.641   0.925
 1343SOL    HW2  855   2.753   1.658   0.827
 1348SOL     OW  856   2.750   1.514   1.195
 1348SOL    HW1  857   2.727   1.489   1.101
 1348SOL    HW2  858   2.811   1.445   1.234
 1350SOL     OW  859   2.665   1.402   0.924
 1350SOL    HW1  860   2.755   1.416   0.882
 1350SOL    HW2  861   2.594   1.404   0.853
 1373SOL     OW  862   2.926   1.347   1.340
 1373SOL    HW1  863   2.846   1.324   1.395
 1373SOL    HW2  864   3.009   1.321   1.389
 1374SOL     OW  865   3.454   1.629   1.625
 1374SOL    HW1  866   3.481   1.663   1.535
 1374SOL    HW2  867   3.533   1.591   1.671
 1375SOL     OW  868   2.973   1.195   1.100
 1375SOL    HW1  869   2.933   1.239   1.181
 1375SOL    HW2  870   2.932   1.232   1.017
 1378SOL     OW  871   2.842   1.116   1.719
 1378SOL    HW1  872   2.743   1.122   1.729
 1378SOL    HW2  873   2.865   1.036   1.663
 1380SOL     OW  874   2.272   0.813   1.251
 1380SOL    HW1  875   2.358   0.825   1.301
 1380SOL    HW2  876   2.230   0.726   1.278
 1382SOL     OW  877   1.926   1.564   1.331
 1382SOL    HW1  878   1.880   1.646   1.297
 1382SOL    HW2  879   2.024   1.583   1.340
 1386SOL     OW  880   3.134   1.445   1.142
 1386SOL    HW1  881   3.181   1.458   1.229
 1386SOL    HW2  882   3.068   1.371   1.151
 1388SOL     OW  883   2.216   1.510   1.329
 1388SOL    HW1  884   2.195   1.466   1.242
 1388SOL    HW2  885   2.313   1.536   1.332
 1389SOL     OW  886   2.264   0.751   1.598
 1389SOL    HW1  887   2.332   0.806   1.551
 1389SOL    HW2  888   2.304   0.663   1.625
 1397SOL     OW  889   1.899   1.310   1.282
 1397SOL    HW1  890   1.952   1.261   1.350
 1397SOL    HW2  891   1.921   1.408   1.287
 1403SOL     OW  892   2.842   1.573   1.700
 1403SOL    HW1  893   2.822   1.617   1.612
 1403SOL    HW2  894   2.881   1.482   1.684
 1404SOL     OW  895   3.721   1.518   1.605
 1404SOL    HW1  896   3.735   1.545   1.510
 1404SOL    HW2  897   3.804   1.540   1.658
 1405SOL     OW  898   2.212   0.898   1.804
 1405SOL    HW1  899   2.288   0.942   1.852
 1405SOL    HW2  900   2.247   0.851   1.722
 1414SOL     OW  901   1.950   1.801   0.927
 1414SOL    HW1  902   1.908   1.715   0.900
 1414SOL    HW2  903   2.044   1.804   0.893
 1415SOL     OW  904   2.366   1.568   0.910
 1415SOL    HW1  905   2.432   1.642   0.919
 1415SOL    HW2  906   2.410   1.489   0.868
 1419SOL     OW  907   3.231   0.950   1.660
 1419SOL    HW1  908   3.270   1.039   1.680
 1419SOL    HW2  909   3.241   0.930   1.563
 1422SOL     OW  910   2.114   1.564   1.744
 1422SOL    HW1  911   2.084   1.621   1.820
 1422SOL    HW2  912   2.107   1.467   1.770
 1424SOL     OW  913   2.792   1.678   1.465
 1424SOL    HW1  914   2.768   1.660   1.370
 1424SOL    HW2  915   2.822   1.772   1.475
 1426SOL     OW  916   2.021   1.137   1.466
 1426SOL    HW1  917   2.043   1.076   1.542
 1426SOL    HW2  918   2.031   1.088   1.380
 1430SOL     OW  919   3.114   1.731   1.128
 1430SOL    HW1  920   3.198   1.736   1.074
 1430SOL    HW2  921   3.091   1.635   1.146
 1431SOL     OW  922   1.945   1.258   1.022
 1431SOL    HW1  923   1.940   1.257   1.122
 1431SOL    HW2  924   1.862   1.217   0.984
 1432SOL     OW  925   2.550   1.662   1.716
 1432SOL    HW1  926   2.494   1.743   1.725
 1432SOL    HW2  927   2.602   1.666   1.630
 1436SOL     OW  928   1.992   1.794   1.851
 1436SOL    HW1  929   1.951   1.720   1.904
 1436SOL    HW2  930   2.056   1.845   1.909
 1438SOL     OW  931   2.692   1.273   1.422
 1438SOL    HW1  932   2.687   1.306   1.517
 1438SOL    HW2  933   2.606   1.292   1.376
 1440SOL     OW  934   3.512   1.720   1.394
 1440SOL    HW1  935   3.565   1.730   1.310
 1440SOL    HW2  936   3.485   1.810   1.428
 1444SOL     OW  937   2.684   1.002   1.372
 1444SOL    HW1  938   2.724   1.001   1.280
 1444SOL    HW2  939   2.694   1.094   1.412
 1447SOL     OW  940   2.234   1.288   1.490
 1447SOL    HW1  941   2.221   1.381   1.456
 1447SOL    HW2  942   2.150   1.236   1.477
 1454SOL     OW  943   1.967   1.013   1.726
 1454SOL    HW1  944   1.890   0.980   1.780
 1454SOL    HW2  945   2.052   0.983   1.768
 1460SOL     OW  946   2.475   0.842   1.431
 1460SOL    HW1  947   2.531   0.923   1.414
 1460SOL    HW2  948   2.534   0.762   1.434
 1461SOL     OW  949   3.355   1.767   0.959
 1461SOL    HW1  950   3.388   1.831   0.890
 1461SOL    HW2  951   3.421   1.761   1.034
 1463SOL     OW  952   3.312   1.220   1.633
 1463SOL    HW1  953   3.303   1.210   1.732
 1463SOL    HW2  954   3.408   1.213   1.607
 1464SOL     OW  955   2.252   1.741   1.560
 1464SOL    HW1  956   2.161   1.782   1.558
 1464SOL    HW2  957   2.245   1.647   1.592
 1471SOL     OW  958   2.523   1.790   0.953
 1471SOL    HW1  959   2.477   1.878   0.940
 1471SOL    HW2  960   2.622   1.802   0.946
 1475SOL     OW  961   2.083   1.314   1.844
 1475SOL    HW1  962   2.018   1.241   1.823
 1475SOL    HW2  963   2.087   1.328   1.942
 1477SOL     OW  964   2.534   1.391   1.624
 1477SOL    HW1  965   2.456   1.341   1.662
 1477SOL    HW2  966   2.531   1.486   1.655
 1482SOL     OW  967   2.674   1.586   0.687
 1482SOL    HW1  968   2.706   1.596   0.593
 1482SOL    HW2  969   2.595   1.524   0.689
 1486SOL     OW  970   2.480   1.567   1.284
 1486SOL    HW1  971   2.475   1.649   1.341
 1486SOL    HW2  972   2.569   1.564   1.239
 1492SOL     OW  973   2.092   0.628   1.975
 1492SOL    HW1  974   1.999   0.626   2.012
 1492SOL    HW2  975   2.093   0.589   1.883
 1495SOL     OW  976   2.431   1.275   3.027
 1495SOL    HW1  977   2.338   1.268   2.990
 1495SOL    HW2  978   2.442   1.364   3.071
 1496SOL     OW  979   3.417   1.511   2.565
 1496SOL    HW1  980   3.360   1.495   2.646
 1496SOL    HW2  981   3.358   1.521   2.485
 1497SOL     OW  982   2.997   0.703   2.579
 1497SOL    HW1  983   3.054   0.781   2.554
 1497SOL    HW2  984   2.937   0.729   2.655
 1499SOL     OW  985   2.630   1.144   2.885
 1499SOL    HW1  986   2.552   1.161   2.945
 1499SOL    HW2  987   2.664   1.231   2.849
 1501SOL     OW  988   2.547   1.012   2.527
 1501SOL    HW1  989   2.616   0.996   2.597
 1501SOL    HW2  990   2.474   1.069   2.565
 1503SOL     OW  991   2.197   1.435   2.923
 1503SOL    HW1  992   2.119   1.404   2.870
 1503SOL    HW2  993   2.255   1.493   2.866
 1504SOL     OW  994   3.322   1.505   3.201
 1504SOL    HW1  995   3.346   1.599   3.227
 1504SOL    HW2  996   3.306   1.451   3.283
 1507SOL     OW  997   2.093   1.713   2.345
 1507SOL    HW1  998   2.127   1.790   2.399
 1507SOL    HW2  999   2.137   1.713   2.255
 1508SOL     OW 1000   2.989   1.341   3.552
 1508SOL    HW1 1001   3.036   1.341   3.640
 1508SOL    HW2 1002   2.941   1.254   3.541
 1509SOL     OW 1003   2.092   1.434   2.400
 1509SOL    HW1 1004   2.066   1.530   2.400
 1509SOL    HW2 1005   2.021   1.380   2.445
 1510SOL     OW 1006   2.102   1.091   2.748
 1510SOL    HW1 1007   2.116   1.007   2.800
 1510SOL    HW2 1008   2.047   1.155   2.803
 1511SOL     OW 1009   2.482   1.786   3.301
 1511SOL    HW1 1010   2.390   1.769   3.336
 1511SOL    HW2 1011   2.510   1.878   3.327
 1512SOL     OW 1012   2.468   0.964   1.985
 1512SOL    HW1 1013   2.475   1.048   1.931
 1512SOL    HW2 1014   2.514   0.977   2.073
 1514SOL     OW 1015   1.984   0.643   2.425
 1514SOL    HW1 1016   1.939   0.555   2.442
 1514SOL    HW2 1017   1.983   0.697   2.509
 1515SOL     OW 1018   3.704   1.767   2.221
 1515SOL    HW1 1019   3.758   1.738   2.301
 1515SOL    HW2 1020   3.734   1.857   2.192
 1516SOL     OW 1021   1.889   1.596   1.979
 1516SOL    HW1 1022   1.870   1.500   2.000
 1516SOL    HW2 1023   1.856   1.654   2.054
 1518SOL     OW 1024   3.503   1.108   2.294
 1518SOL    HW1 1025   3.589   1.110   2.242
 1518SOL    HW2 1026   3.517   1.155   2.382
 1520SOL     OW 1027   2.475   1.365   2.588
 1520SOL    HW1 1028   2.426   1.278   2.597
 1520SOL    HW2 1029   2.452   1.408   2.501
 1521SOL     OW 1030   3.155   1.228   3.285
 1521SOL    HW1 1031   3.192   1.155   3.227
 1521SOL    HW2 1032   3.207   1.233   3.370
 1523SOL     OW 1033   2.059   0.976   3.126
 1523SOL    HW1 1034   2.148   0.931   3.112
 1523SOL    HW2 1035   1.986   0.911   3.107
 1524SOL     OW 1036   3.387   0.999   2.052
 1524SOL    HW1 1037   3.324   0.923   2.065
 1524SOL    HW2 1038   3.435   1.017   2.138
 1525SOL     OW 1039   3.049   1.792   3.478
 1525SOL    HW1 1040   3.073   1.852   3.402
 1525SOL    HW2 1041   3.056   1.697   3.448
 1527SOL     OW 1042   3.328   1.417   2.815
 1527SOL    HW1 1043   3.269   1.423   2.895
 1527SOL    HW2 1044   3.313   1.329   2.769
 1528SOL     OW 1045   3.529   1.714   2.434
 1528SOL    HW1 1046   3.488   1.691   2.346
 1528SOL    HW2 1047   3.511   1.640   2.499
 1529SOL     OW 1048   2.460   0.729   2.132
 1529SOL    HW1 1049   2.484   0.798   2.064
 1529SOL    HW2 1050   2.382   0.762   2.186
 1531SOL     OW 1051   3.438   1.662   2.169
 1531SOL    HW1 1052   3.527   1.708   2.172
 1531SOL    HW2 1053   3.417   1.638   2.074
 1536SOL     OW 1054   2.903   0.701   2.291
 1536SOL    HW1 1055   2.929   0.697   2.387
 1536SOL    HW2 1056   2.818   0.650   2.277
 1537SOL     OW 1057   1.938   0.811   2.651
 1537SOL    HW1 1058   2.037   0.799   2.660
 1537SOL    HW2 1059   1.914   0.906   2.672
 1538SOL     OW 1060   1.992   1.821   3.433
 1538SOL    HW1 1061   1.982   1.806   3.532
 1538SOL    HW2 1062   1.906   1.857   3.397
 1541SOL     OW 1063   3.224   1.144   2.407
 1541SOL    HW1 1064   3.307   1.115   2.359
 1541SOL    HW2 1065   3.175   1.211   2.351
 1543SOL     OW 1066   2.870   1.456   2.339
 1543SOL    HW1 1067   2.824   1.528   2.287
 1543SOL    HW2 1068   2.866   1.476   2.437
 1544SOL     OW 1069   2.213   1.801   2.715
 1544SOL    HW1 1070   2.263   1.715   2.721
 1544SOL    HW2 1071   2.278   1.878   2.712
 1546SOL     OW 1072   3.089   1.550   3.368
 1546SOL    HW1 1073   3.095   1.473   3.432
 1546SOL    HW2 1074   3.037   1.524   3.288
 1547SOL     OW 1075   2.183   0.943   2.104
 1547SOL    HW1 1076   2.265   0.982   2.062
 1547SOL    HW2 1077   2.156   0.861   2.055
 1549SOL     OW 1078   2.323   1.266   3.589
 1549SOL    HW1 1079   2.273   1.267   3.503
 1549SOL    HW2 1080   2.260   1.248   3.665
 1550SOL     OW 1081   2.973   1.776   2.099
 1550SOL    HW1 1082   2.913   1.714   2.149
 1550SOL    HW2 1083   3.004   1.732   2.014
 1552SOL     OW 1084   3.494   1.377   1.943
 1552SOL    HW1 1085   3.462   1.471   1.933
 1552SOL    HW2 1086   3.418   1.314   1.931
 1553SOL     OW 1087   2.326   1.743   2.185
 1553SOL    HW1 1088   2.359   1.782   2.271
 1553SOL    HW2 1089   2.402   1.736   2.120
 1555SOL     OW 1090   2.111   1.785   3.103
 1555SOL    HW1 1091   2.168   1.720   3.153
 1555SOL    HW2 1092   2.095   1.752   3.010
 1556SOL     OW 1093   2.802   1.698   2.766
 1556SOL    HW1 1094   2.882   1.641   2.787
 1556SOL    HW2 1095   2.753   1.658   2.689
 1557SOL     OW 1096   2.244   0.700   2.342
 1557SOL    HW1 1097   2.289   0.610   2.339
 1557SOL    HW2 1098   2.150   0.689   2.375
 1561SOL     OW 1099   2.750   1.514   3.057
 1561SOL    HW1 1100   2.727   1.489   2.963
 1561SOL    HW2 1101   2.811   1.445   3.096
 1563SOL     OW 1102   2.665   1.402   2.786
 1563SOL    HW1 1103   2.755   1.416   2.744
 1563SOL    HW2 1104   2.594   1.404   2.715
 1566SOL     OW 1105   3.296   1.188   1.903
 1566SOL    HW1 1106   3.328   1.112   1.960
 1566SOL    HW2 1107   3.204   1.215   1.933
 1570SOL     OW 1108   3.089   1.570   2.655
 1570SOL    HW1 1109   3.110   1.644   2.590
 1570SOL    HW2 1110   3.157   1.570   2.728
 1571SOL     OW 1111   2.321   1.152   2.603
 1571SOL    HW1 1112   2.250   1.125   2.668
 1571SOL    HW2 1113   2.295   1.124   2.510
 1572SOL     OW 1114   3.133   1.797   2.453
 1572SOL    HW1 1115   3.177   1.861   2.389
 1572SOL    HW2 1116   3.083   1.849   2.523
 1578SOL     OW 1117   3.291   1.173   2.729
 1578SOL    HW1 1118   3.236   1.089   2.722
 1578SOL    HW2 1119   3.317   1.202   2.637
 1581SOL     OW 1120   2.350   1.385   2.036
 1581SOL    HW1 1121   2.263   1.370   2.083
 1581SOL    HW2 1122   2.333   1.411   1.941
 1582SOL     OW 1123   3.526   1.280   2.519
 1582SOL    HW1 1124   3.625   1.288   2.533
 1582SOL    HW2 1125   3.481   1.364   2.550
 1586SOL     OW 1126   2.926   1.347   3.202
 1586SOL    HW1 1127   2.846   1.324   3.257
 1586SOL    HW2 1128   3.009   1.321   3.251
 1588SOL     OW 1129   2.973   1.195   2.962
 1588SOL    HW1 1130   2.933   1.239   3.043
 1588SOL    HW2 1131   2.932   1.232   2.879
 1592SOL     OW 1132   2.567   1.050   2.230
 1592SOL    HW1 1133   2.553   1.057   2.329
 1592SOL    HW2 1134   2.651   0.999   2.212
 1593SOL     OW 1135   2.272   0.813   3.113
 1593SOL    HW1 1136   2.358   0.825   3.163
 1593SOL    HW2 1137   2.230   0.726   3.140
 1595SOL     OW 1138   1.926   1.564   3.193
 1595SOL    HW1 1139   1.880   1.646   3.159
 1595SOL    HW2 1140   2.024   1.583   3.202
 1596SOL     OW 1141   2.229   1.100   2.363
 1596SOL    HW1 1142   2.222   1.183   2.307
 1596SOL    HW2 1143   2.233   1.020   2.303
 1598SOL     OW 1144   3.114   1.348   2.250
 1598SOL    HW1 1145   3.164   1.425   2.290
 1598SOL    HW2 1146   3.019   1.350   2.282
 1599SOL     OW 1147   3.134   1.445   3.004
 1599SOL    HW1 1148   3.181   1.458   3.091
 1599SOL    HW2 1149   3.068   1.371   3.013
 1601SOL     OW 1150   2.216   1.510   3.191
 1601SOL    HW1 1151   2.195   1.466   3.104
 1601SOL    HW2 1152   2.313   1.536   3.194
 1606SOL     OW 1153   2.435   0.870   2.891
 1606SOL    HW1 1154   2.479   0.959   2.882
 1606SOL    HW2 1155   2.372   0.870   2.968
 1610SOL     OW 1156   1.899   1.310   3.144
 1610SOL    HW1 1157   1.952   1.261   3.212
 1610SOL    HW2 1158   1.921   1.408   3.149
 1611SOL     OW 1159   2.594   0.634   2.926
 1611SOL    HW1 1160   2.653   0.608   2.850
 1611SOL    HW2 1161   2.566   0.730   2.915
 1615SOL     OW 1162   2.885   0.766   2.828
 1615SOL    HW1 1163   2.900   0.787   2.924
 1615SOL    HW2 1164   2.855   0.671   2.819
 1616SOL     OW 1165   2.842   1.573   3.562
 1616SOL    HW1 1166   2.822   1.617   3.474
 1616SOL    HW2 1167   2.881   1.482   3.546
 1620SOL     OW 1168   3.165   0.838   1.904
 1620SOL    HW1 1169   3.199   0.745   1.919
 1620SOL    HW2 1170   3.183   0.865   1.809
 1621SOL     OW 1171   2.930   1.333   2.711
 1621SOL    HW1 1172   2.937   1.249   2.656
 1621SOL    HW2 1173   2.992   1.402   2.675
 1622SOL     OW 1174   2.181   0.810   2.811
 1622SOL    HW1 1175   2.274   0.846   2.816
 1622SOL    HW2 1176   2.175   0.725   2.863
 1626SOL     OW 1177   1.870   1.326   2.062
 1626SOL    HW1 1178   1.777   1.347   2.031
 1626SOL    HW2 1179   1.880   1.227   2.075
 1627SOL     OW 1180   1.950   1.801   2.789
 1627SOL    HW1 1181   1.908   1.715   2.762
 1627SOL    HW2 1182   2.044   1.804   2.755
 1628SOL     OW 1183   2.366   1.568   2.772
 1628SOL    HW1 1184   2.432   1.642   2.781
 1628SOL    HW2 1185   2.410   1.489   2.730
 1629SOL     OW 1186   2.864   0.796   3.100
 1629SOL    HW1 1187   2.905   0.764   3.186
 1629SOL    HW2 1188   2.768   0.769   3.097
 1633SOL     OW 1189   2.677   0.572   2.187
 1633SOL    HW1 1190   2.684   0.483   2.141
 1633SOL    HW2 1191   2.583   0.606   2.179
 1635SOL     OW 1192   2.114   1.564   3.606
 1635SOL    HW1 1193   2.084   1.621   3.682
 1635SOL    HW2 1194   2.107   1.467   3.632
 1637SOL     OW 1195   2.792   1.678   3.327
 1637SOL    HW1 1196   2.768   1.660   3.232
 1637SOL    HW2 1197   2.822   1.772   3.337
 1638SOL     OW 1198   2.335   0.500   2.053
 1638SOL    HW1 1199   2.396   0.580   2.057
 1638SOL    HW2 1200   2.240   0.531   2.060
 1639SOL     OW 1201   2.021   1.137   3.328
 1639SOL    HW1 1202   2.043   1.076   3.404
 1639SOL    HW2 1203   2.031   1.088   3.242
 1640SOL     OW 1204   3.209   1.059   3.096
 1640SOL    HW1 1205   3.233   0.996   3.022
 1640SOL    HW2 1206   3.119   1.099   3.078
 1641SOL     OW 1207   3.164   0.855   2.171
 1641SOL    HW1 1208   3.078   0.824   2.213
 1641SOL    HW2 1209   3.160   0.841   2.072
 1642SOL     OW 1210   3.621   1.747   3.016
 1642SOL    HW1 1211   3.682   1.777   2.943
 1642SOL    HW2 1212   3.583   1.658   2.994
 1643SOL     OW 1213   3.114   1.731   2.990
 1643SOL    HW1 1214   3.198   1.736   2.936
 1643SOL    HW2 1215   3.091   1.635   3.008
 1644SOL     OW 1216   1.945   1.258   2.884
 1644SOL    HW1 1217   1.940   1.257   2.984
 1644SOL    HW2 1218   1.862   1.217   2.846
 1645SOL     OW 1219   2.550   1.662   3.578
 1645SOL    HW1 1220   2.494   1.743   3.587
 1645SOL    HW2 1221   2.602   1.666   3.492
 1647SOL     OW 1222   3.250   1.573   2.339
 1647SOL    HW1 1223   3.317   1.585   2.265
 1647SOL    HW2 1224   3.210   1.662   2.362
 1648SOL     OW 1225   1.992   1.794   3.713
 1648SOL    HW1 1226   1.951   1.720   3.766
 1648SOL    HW2 1227   2.056   1.845   3.771
 1649SOL     OW 1228   3.142   0.927   2.534
 1649SOL    HW1 1229   3.202   0.846   2.536
 1649SOL    HW2 1230   3.182   0.996   2.474
 1650SOL     OW 1231   2.692   1.273   3.284
 1650SOL    HW1 1232   2.687   1.306   3.379
 1650SOL    HW2 1233   2.606   1.292   3.238
 1651SOL     OW 1234   2.534   1.616   2.016
 1651SOL    HW1 1235   2.543   1.626   1.917
 1651SOL    HW2 1236   2.494   1.527   2.037
 1652SOL     OW 1237   3.512   1.720   3.256
 1652SOL    HW1 1238   3.565   1.730   3.172
 1652SOL    HW2 1239   3.485   1.810   3.290
 1655SOL     OW 1240   3.056   1.612   1.893
 1655SOL    HW1 1241   3.062   1.519   1.930
 1655SOL    HW2 1242   2.997   1.612   1.813
 1656SOL     OW 1243   2.684   1.002   3.234
 1656SOL    HW1 1244   2.724   1.001   3.142
 1656SOL    HW2 1245   2.694   1.094   3.274
 1657SOL     OW 1246   2.778   0.910   2.153
 1657SOL    HW1 1247   2.841   0.948   2.085
 1657SOL    HW2 1248   2.818   0.827   2.192
 1658SOL     OW 1249   3.366   1.607   1.906
 1658SOL    HW1 1250   3.274   1.644   1.913
 1658SOL    HW2 1251   3.404   1.627   1.816
 1659SOL     OW 1252   2.234   1.288   3.352
 1659SOL    HW1 1253   2.221   1.381   3.318
 1659SOL    HW2 1254   2.150   1.236   3.339
 1660SOL     OW 1255   3.476   1.292   3.151
 1660SOL    HW1 1256   3.536   1.295   3.231
 1660SOL    HW2 1257   3.401   1.356   3.164
 1661SOL     OW 1258   2.901   1.098   2.558
 1661SOL    HW1 1259   2.831   1.051   2.612
 1661SOL    HW2 1260   2.960   1.030   2.515
 1663SOL     OW 1261   2.452   1.487   2.353
 1663SOL    HW1 1262   2.494   1.429   2.283
 1663SOL    HW2 1263   2.408   1.566   2.309
 1665SOL     OW 1264   2.117   1.348   2.152
 1665SOL    HW1 1265   2.021   1.349   2.125
 1665SOL    HW2 1266   2.129   1.401   2.236
 1671SOL     OW 1267   3.045   1.335   1.981
 1671SOL    HW1 1268   2.946   1.324   1.983
 1671SOL    HW2 1269   3.079   1.350   2.074
 1672SOL     OW 1270   2.475   0.842   3.293
 1672SOL    HW1 1271   2.531   0.923   3.276
 1672SOL    HW2 1272   2.534   0.762   3.296
 1673SOL     OW 1273   3.355   1.767   2.821
 1673SOL    HW1 1274   3.388   1.831   2.752
 1673SOL    HW2 1275   3.421   1.761   2.896
 1676SOL     OW 1276   2.252   1.741   3.422
 1676SOL    HW1 1277   2.161   1.782   3.420
 1676SOL    HW2 1278   2.245   1.647   3.454
 1679SOL     OW 1279   2.456   0.745   2.514
 1679SOL    HW1 1280   2.506   0.830   2.495
 1679SOL    HW2 1281   2.368   0.747   2.466
 1682SOL     OW 1282   2.721   1.374   1.878
 1682SOL    HW1 1283   2.675   1.389   1.966
 1682SOL    HW2 1284   2.765   1.459   1.848
 1683SOL     OW 1285   2.523   1.790   2.815
 1683SOL    HW1 1286   2.477   1.878   2.802
 1683SOL    HW2 1287   2.622   1.802   2.808
 1684SOL     OW 1288   2.721   0.956   2.723
 1684SOL    HW1 1289   2.775   0.887   2.771
 1684SOL    HW2 1290   2.689   1.025   2.789
 1685SOL     OW 1291   2.945   0.984   1.949
 1685SOL    HW1 1292   2.922   1.037   1.867
 1685SOL    HW2 1293   3.026   0.928   1.930
 1686SOL     OW 1294   3.723   1.569   2.713
 1686SOL    HW1 1295   3.652   1.557   2.643
 1686SOL    HW2 1296   3.724   1.490   2.773
 1687SOL     OW 1297   2.083   1.314   3.706
 1687SOL    HW1 1298   2.018   1.241   3.685
 1687SOL    HW2 1299   2.087   1.328   3.804
 1688SOL     OW 1300   1.941   1.240   2.515
 1688SOL    HW1 1301   1.940   1.193   2.603
 1688SOL    HW2 1302   2.023   1.212   2.464
 1689SOL     OW 1303   2.534   1.391   3.486
 1689SOL    HW1 1304   2.456   1.341   3.524
 1689SOL    HW2 1305   2.531   1.486   3.517
 1692SOL     OW 1306   3.567   1.487   2.966
 1692SOL    HW1 1307   3.474   1.462   2.939
 1692SOL    HW2 1308   3.593   1.437   3.048
 1694SOL     OW 1309   2.674   1.586   2.549
 1694SOL    HW1 1310   2.706   1.596   2.455
 1694SOL    HW2 1311   2.595   1.524   2.551
 1697SOL     OW 1312   2.632   1.330   2.163
 1697SOL    HW1 1313   2.586   1.243   2.180
 1697SOL    HW2 1314   2.723   1.327   2.204
 1698SOL     OW 1315   2.480   1.567   3.146
 1698SOL    HW1 1316   2.475   1.649   3.203
 1698SOL    HW2 1317   2.569   1.564   3.101
 1702SOL     OW 1318   1.901   1.077   2.162
 1702SOL    HW1 1319   2.000   1.066   2.153
 1702SOL    HW2 1320   1.861   0.991   2.194
 1703SOL     OW 1321   2.737   1.646   2.199
 1703SOL    HW1 1322   2.660   1.611   2.145
 1703SOL    HW2 1323   2.705   1.717   2.261
 1716SOL     OW 1324   1.889   1.596   3.841
 1716SOL    HW1 1325   1.870   1.500   3.862
 1716SOL    HW2 1326   1.856   1.654   3.916
 1771SOL     OW 1327   2.534   1.616   3.878
 1771SOL    HW1 1328   2.543   1.626   3.779
 1771SOL    HW2 1329   2.494   1.527   3.899
 1774SOL     OW 1330   3.056   1.612   3.755
 1774SOL    HW1 1331   3.062   1.519   3.792
 1774SOL    HW2 1332   2.997   1.612   3.675
 1784SOL     OW 1333   2.721   1.374   3.740
 1784SOL    HW1 1334   2.675   1.389   3.828
 1784SOL    HW2 1335   2.765   1.459   3.710
 1798SOL     OW 1336   2.087   2.137   0.996
 1798SOL    HW1 1337   2.122   2.120   1.088
 1798SOL    HW2 1338   1.999   2.092   0.984
 1799SOL     OW 1339   1.881   2.230   0.647
 1799SOL    HW1 1340   1.799   2.273   0.686
 1799SOL    HW2 1341   1.853   2.157   0.584
 1800SOL     OW 1342   2.431   3.137   1.165
 1800SOL    HW1 1343   2.338   3.130   1.128
 1800SOL    HW2 1344   2.442   3.226   1.209
 1802SOL     OW 1345   2.997   2.565   0.717
 1802SOL    HW1 1346   3.054   2.643   0.692
 1802SOL    HW2 1347   2.937   2.591   0.793
 1804SOL     OW 1348   2.630   3.006   1.023
 1804SOL    HW1 1349   2.552   3.023   1.083
 1804SOL    HW2 1350   2.664   3.093   0.987
 1805SOL     OW 1351   2.712   2.660   1.823
 1805SOL    HW1 1352   2.708   2.736   1.888
 1805SOL    HW2 1353   2.734   2.696   1.732
 1806SOL     OW 1354   2.547   2.874   0.665
 1806SOL    HW1 1355   2.616   2.858   0.735
 1806SOL    HW2 1356   2.474   2.931   0.703
 1807SOL     OW 1357   2.548   3.023   1.803
 1807SOL    HW1 1358   2.608   3.102   1.817
 1807SOL    HW2 1359   2.462   3.054   1.762
 1808SOL     OW 1360   2.197   3.297   1.061
 1808SOL    HW1 1361   2.119   3.266   1.008
 1808SOL    HW2 1362   2.255   3.355   1.004
 1809SOL     OW 1363   3.322   3.367   1.339
 1809SOL    HW1 1364   3.346   3.461   1.365
 1809SOL    HW2 1365   3.306   3.313   1.421
 1810SOL     OW 1366   2.300   2.254   1.499
 1810SOL    HW1 1367   2.382   2.198   1.508
 1810SOL    HW2 1368   2.219   2.196   1.503
 1813SOL     OW 1369   2.989   3.203   1.690
 1813SOL    HW1 1370   3.036   3.203   1.778
 1813SOL    HW2 1371   2.941   3.116   1.679
 1815SOL     OW 1372   2.102   2.953   0.886
 1815SOL    HW1 1373   2.116   2.869   0.938
 1815SOL    HW2 1374   2.047   3.017   0.941
 1816SOL     OW 1375   2.482   3.648   1.439
 1816SOL    HW1 1376   2.390   3.631   1.474
 1816SOL    HW2 1377   2.510   3.740   1.465
 1818SOL     OW 1378   3.456   1.976   1.480
 1818SOL    HW1 1379   3.438   2.043   1.408
 1818SOL    HW2 1380   3.453   2.022   1.569
 1819SOL     OW 1381   1.984   2.505   0.563
 1819SOL    HW1 1382   1.939   2.417   0.580
 1819SOL    HW2 1383   1.983   2.559   0.647
 1824SOL     OW 1384   1.975   2.599   1.597
 1824SOL    HW1 1385   2.063   2.586   1.642
 1824SOL    HW2 1386   1.962   2.696   1.575
 1826SOL     OW 1387   3.155   3.090   1.423
 1826SOL    HW1 1388   3.192   3.017   1.365
 1826SOL    HW2 1389   3.207   3.095   1.508
 1828SOL     OW 1390   2.059   2.838   1.264
 1828SOL    HW1 1391   2.148   2.793   1.250
 1828SOL    HW2 1392   1.986   2.773   1.245
 1830SOL     OW 1393   3.049   3.654   1.616
 1830SOL    HW1 1394   3.073   3.714   1.540
 1830SOL    HW2 1395   3.056   3.559   1.586
 1831SOL     OW 1396   2.179   2.113   1.801
 1831SOL    HW1 1397   2.250   2.184   1.807
 1831SOL    HW2 1398   2.091   2.152   1.829
 1835SOL     OW 1399   3.143   2.207   0.944
 1835SOL    HW1 1400   3.057   2.157   0.931
 1835SOL    HW2 1401   3.205   2.153   1.000
 1837SOL     OW 1402   2.669   2.467   1.465
 1837SOL    HW1 1403   2.622   2.464   1.554
 1837SOL    HW2 1404   2.618   2.412   1.399
 1838SOL     OW 1405   3.256   2.331   1.674
 1838SOL    HW1 1406   3.236   2.374   1.762
 1838SOL    HW2 1407   3.334   2.269   1.683
 1839SOL     OW 1408   2.835   2.752   1.572
 1839SOL    HW1 1409   2.881   2.668   1.543
 1839SOL    HW2 1410   2.779   2.786   1.497
 1840SOL     OW 1411   2.853   2.272   1.242
 1840SOL    HW1 1412   2.776   2.306   1.296
 1840SOL    HW2 1413   2.819   2.221   1.163
 1842SOL     OW 1414   1.938   2.673   0.789
 1842SOL    HW1 1415   2.037   2.661   0.798
 1842SOL    HW2 1416   1.914   2.768   0.810
 1843SOL     OW 1417   1.992   3.683   1.571
 1843SOL    HW1 1418   1.982   3.668   1.670
 1843SOL    HW2 1419   1.906   3.719   1.535
 1845SOL     OW 1420   3.581   2.447   1.831
 1845SOL    HW1 1421   3.555   2.536   1.795
 1845SOL    HW2 1422   3.579   2.379   1.758
 1847SOL     OW 1423   2.412   2.058   0.885
 1847SOL    HW1 1424   2.407   2.053   0.985
 1847SOL    HW2 1425   2.414   2.154   0.856
 1851SOL     OW 1426   3.089   3.412   1.506
 1851SOL    HW1 1427   3.095   3.335   1.570
 1851SOL    HW2 1428   3.037   3.386   1.426
 1854SOL     OW 1429   2.323   3.128   1.727
 1854SOL    HW1 1430   2.273   3.129   1.641
 1854SOL    HW2 1431   2.260   3.110   1.803
 1856SOL     OW 1432   2.064   2.147   1.498
 1856SOL    HW1 1433   1.984   2.207   1.485
 1856SOL    HW2 1434   2.054   2.098   1.584
 1860SOL     OW 1435   2.111   3.647   1.241
 1860SOL    HW1 1436   2.168   3.582   1.291
 1860SOL    HW2 1437   2.095   3.614   1.148
 1863SOL     OW 1438   3.409   2.084   1.729
 1863SOL    HW1 1439   3.404   2.121   1.821
 1863SOL    HW2 1440   3.337   2.015   1.717
 1864SOL     OW 1441   2.643   2.126   1.749
 1864SOL    HW1 1442   2.710   2.065   1.792
 1864SOL    HW2 1443   2.570   2.145   1.814
 1865SOL     OW 1444   2.750   3.376   1.195
 1865SOL    HW1 1445   2.727   3.351   1.101
 1865SOL    HW2 1446   2.811   3.307   1.234
 1866SOL     OW 1447   3.213   2.452   1.433
 1866SOL    HW1 1448   3.241   2.409   1.518
 1866SOL    HW2 1449   3.238   2.548   1.434
 1867SOL     OW 1450   2.665   3.264   0.924
 1867SOL    HW1 1451   2.755   3.278   0.882
 1867SOL    HW2 1452   2.594   3.266   0.853
 1868SOL     OW 1453   2.784   2.365   0.899
 1868SOL    HW1 1454   2.759   2.356   0.803
 1868SOL    HW2 1455   2.832   2.283   0.930
 1873SOL     OW 1456   2.938   2.545   1.464
 1873SOL    HW1 1457   2.858   2.484   1.467
 1873SOL    HW2 1458   3.019   2.492   1.440
 1875SOL     OW 1459   2.321   3.014   0.741
 1875SOL    HW1 1460   2.250   2.987   0.806
 1875SOL    HW2 1461   2.295   2.986   0.648
 1878SOL     OW 1462   1.940   2.418   1.386
 1878SOL    HW1 1463   2.032   2.417   1.345
 1878SOL    HW2 1464   1.934   2.492   1.453
 1879SOL     OW 1465   2.423   2.084   1.147
 1879SOL    HW1 1466   2.461   2.000   1.184
 1879SOL    HW2 1467   2.335   2.103   1.191
 1880SOL     OW 1468   2.728   2.316   0.642
 1880SOL    HW1 1469   2.696   2.388   0.580
 1880SOL    HW2 1470   2.752   2.235   0.589
 1881SOL     OW 1471   2.879   1.901   0.753
 1881SOL    HW1 1472   2.807   1.906   0.684
 1881SOL    HW2 1473   2.855   1.832   0.822
 1883SOL     OW 1474   3.328   2.452   0.992
 1883SOL    HW1 1475   3.298   2.357   0.999
 1883SOL    HW2 1476   3.401   2.468   1.058
 1889SOL     OW 1477   3.616   3.085   1.588
 1889SOL    HW1 1478   3.707   3.046   1.575
 1889SOL    HW2 1479   3.624   3.181   1.612
 1890SOL     OW 1480   2.926   3.209   1.340
 1890SOL    HW1 1481   2.846   3.186   1.395
 1890SOL    HW2 1482   3.009   3.183   1.389
 1892SOL     OW 1483   2.973   3.057   1.100
 1892SOL    HW1 1484   2.933   3.101   1.181
 1892SOL    HW2 1485   2.932   3.094   1.017
 1894SOL     OW 1486   2.777   1.951   1.402
 1894SOL    HW1 1487   2.802   1.931   1.307
 1894SOL    HW2 1488   2.849   2.007   1.444
 1895SOL     OW 1489   2.842   2.978   1.719
 1895SOL    HW1 1490   2.743   2.984   1.729
 1895SOL    HW2 1491   2.865   2.898   1.663
 1897SOL     OW 1492   2.272   2.675   1.251
 1897SOL    HW1 1493   2.358   2.687   1.301
 1897SOL    HW2 1494   2.230   2.588   1.278
 1898SOL     OW 1495   3.136   2.248   1.262
 1898SOL    HW1 1496   3.157   2.322   1.326
 1898SOL    HW2 1497   3.047   2.265   1.219
 1899SOL     OW 1498   1.926   3.426   1.331
 1899SOL    HW1 1499   1.880   3.508   1.297
 1899SOL    HW2 1500   2.024   3.445   1.340
 1901SOL     OW 1501   2.428   2.399   0.865
 1901SOL    HW1 1502   2.440   2.465   0.791
 1901SOL    HW2 1503   2.474   2.433   0.948
 1903SOL     OW 1504   3.134   3.307   1.142
 1903SOL    HW1 1505   3.181   3.320   1.229
 1903SOL    HW2 1506   3.068   3.233   1.151
 1905SOL     OW 1507   2.216   3.372   1.329
 1905SOL    HW1 1508   2.195   3.328   1.242
 1905SOL    HW2 1509   2.313   3.398   1.332
 1906SOL     OW 1510   2.264   2.613   1.598
 1906SOL    HW1 1511   2.332   2.668   1.551
 1906SOL    HW2 1512   2.304   2.525   1.625
 1907SOL     OW 1513   3.449   2.641   1.670
 1907SOL    HW1 1514   3.357   2.679   1.665
 1907SOL    HW2 1515   3.509   2.688   1.605
 1908SOL     OW 1516   2.875   1.967   1.770
 1908SOL    HW1 1517   2.881   2.052   1.718
 1908SOL    HW2 1518   2.907   1.891   1.713
 1909SOL     OW 1519   2.366   1.912   1.740
 1909SOL    HW1 1520   2.324   1.855   1.670
 1909SOL    HW2 1521   2.300   1.981   1.772
 1910SOL     OW 1522   2.435   2.732   1.029
 1910SOL    HW1 1523   2.479   2.821   1.020
 1910SOL    HW2 1524   2.372   2.732   1.106
 1911SOL     OW 1525   3.222   2.724   1.045
 1911SOL    HW1 1526   3.147   2.724   0.979
 1911SOL    HW2 1527   3.259   2.632   1.054
 1913SOL     OW 1528   2.169   2.075   1.231
 1913SOL    HW1 1529   2.146   2.112   1.321
 1913SOL    HW2 1530   2.139   1.980   1.225
 1914SOL     OW 1531   1.899   3.172   1.282
 1914SOL    HW1 1532   1.952   3.123   1.350
 1914SOL    HW2 1533   1.921   3.270   1.287
 1915SOL     OW 1534   2.594   2.496   1.064
 1915SOL    HW1 1535   2.653   2.470   0.988
 1915SOL    HW2 1536   2.566   2.592   1.053
 1916SOL     OW 1537   3.590   2.797   1.854
 1916SOL    HW1 1538   3.544   2.790   1.765
 1916SOL    HW2 1539   3.528   2.841   1.920
 1917SOL     OW 1540   2.169   1.925   0.618
 1917SOL    HW1 1541   2.158   2.019   0.651
 1917SOL    HW2 1542   2.164   1.862   0.695
 1919SOL     OW 1543   2.885   2.628   0.966
 1919SOL    HW1 1544   2.900   2.649   1.062
 1919SOL    HW2 1545   2.855   2.533   0.957
 1920SOL     OW 1546   2.842   3.435   1.700
 1920SOL    HW1 1547   2.822   3.479   1.612
 1920SOL    HW2 1548   2.881   3.344   1.684
 1922SOL     OW 1549   2.212   2.760   1.804
 1922SOL    HW1 1550   2.288   2.804   1.852
 1922SOL    HW2 1551   2.247   2.713   1.722
 1926SOL     OW 1552   2.181   2.672   0.949
 1926SOL    HW1 1553   2.274   2.708   0.954
 1926SOL    HW2 1554   2.175   2.587   1.001
 1927SOL     OW 1555   2.201   2.371   1.006
 1927SOL    HW1 1556   2.149   2.288   0.989
 1927SOL    HW2 1557   2.278   2.376   0.942
 1928SOL     OW 1558   3.000   2.242   1.678
 1928SOL    HW1 1559   2.955   2.305   1.742
 1928SOL    HW2 1560   3.093   2.273   1.661
 1929SOL     OW 1561   3.022   2.069   1.477
 1929SOL    HW1 1562   3.022   2.133   1.554
 1929SOL    HW2 1563   3.050   2.117   1.394
 1932SOL     OW 1564   2.366   3.430   0.910
 1932SOL    HW1 1565   2.432   3.504   0.919
 1932SOL    HW2 1566   2.410   3.351   0.868
 1933SOL     OW 1567   2.864   2.658   1.238
 1933SOL    HW1 1568   2.905   2.626   1.324
 1933SOL    HW2 1569   2.768   2.631   1.235
 1934SOL     OW 1570   1.902   2.406   1.114
 1934SOL    HW1 1571   1.987   2.373   1.073
 1934SOL    HW2 1572   1.915   2.421   1.212
 1935SOL     OW 1573   2.051   2.382   1.722
 1935SOL    HW1 1574   2.110   2.342   1.652
 1935SOL    HW2 1575   1.993   2.453   1.681
 1936SOL     OW 1576   3.231   2.812   1.660
 1936SOL    HW1 1577   3.270   2.901   1.680
 1936SOL    HW2 1578   3.241   2.792   1.563
 1938SOL     OW 1579   3.519   2.466   1.206
 1938SOL    HW1 1580   3.481   2.397   1.268
 1938SOL    HW2 1581   3.601   2.430   1.162
 1939SOL     OW 1582   2.114   3.426   1.744
 1939SOL    HW1 1583   2.084   3.483   1.820
 1939SOL    HW2 1584   2.107   3.329   1.770
 1940SOL     OW 1585   2.533   2.326   1.269
 1940SOL    HW1 1586   2.499   2.237   1.239
 1940SOL    HW2 1587   2.559   2.380   1.189
 1941SOL     OW 1588   2.792   3.540   1.465
 1941SOL    HW1 1589   2.768   3.522   1.370
 1941SOL    HW2 1590   2.822   3.634   1.475
 1943SOL     OW 1591   2.021   2.999   1.466
 1943SOL    HW1 1592   2.043   2.938   1.542
 1943SOL    HW2 1593   2.031   2.950   1.380
 1944SOL     OW 1594   3.209   2.921   1.234
 1944SOL    HW1 1595   3.233   2.858   1.160
 1944SOL    HW2 1596   3.119   2.961   1.216
 1948SOL     OW 1597   1.945   3.120   1.022
 1948SOL    HW1 1598   1.940   3.119   1.122
 1948SOL    HW2 1599   1.862   3.079   0.984
 1949SOL     OW 1600   2.550   3.524   1.716
 1949SOL    HW1 1601   2.494   3.605   1.725
 1949SOL    HW2 1602   2.602   3.528   1.630
 1953SOL     OW 1603   1.992   3.656   1.851
 1953SOL    HW1 1604   1.951   3.582   1.904
 1953SOL    HW2 1605   2.056   3.707   1.909
 1955SOL     OW 1606   2.692   3.135   1.422
 1955SOL    HW1 1607   2.687   3.168   1.517
 1955SOL    HW2 1608   2.606   3.154   1.376
 1959SOL     OW 1609   2.125   2.188   0.720
 1959SOL    HW1 1610   2.046   2.239   0.686
 1959SOL    HW2 1611   2.116   2.173   0.818
 1961SOL     OW 1612   2.684   2.864   1.372
 1961SOL    HW1 1613   2.724   2.863   1.280
 1961SOL    HW2 1614   2.694   2.956   1.412
 1964SOL     OW 1615   2.234   3.150   1.490
 1964SOL    HW1 1616   2.221   3.243   1.456
 1964SOL    HW2 1617   2.150   3.098   1.477
 1965SOL     OW 1618   3.476   3.154   1.289
 1965SOL    HW1 1619   3.536   3.157   1.369
 1965SOL    HW2 1620   3.401   3.218   1.302
 1967SOL     OW 1621   2.876   2.098   0.971
 1967SOL    HW1 1622   2.868   2.062   0.878
 1967SOL    HW2 1623   2.874   2.022   1.036
 1969SOL     OW 1624   3.571   2.247   1.381
 1969SOL    HW1 1625   3.644   2.316   1.385
 1969SOL    HW2 1626   3.599   2.172   1.322
 1971SOL     OW 1627   1.967   2.875   1.726
 1971SOL    HW1 1628   1.890   2.842   1.780
 1971SOL    HW2 1629   2.052   2.845   1.768
 1972SOL     OW 1630   2.534   2.065   1.489
 1972SOL    HW1 1631   2.624   2.049   1.449
 1972SOL    HW2 1632   2.542   2.070   1.588
 1974SOL     OW 1633   3.302   2.718   1.398
 1974SOL    HW1 1634   3.245   2.770   1.335
 1974SOL    HW2 1635   3.398   2.730   1.374
 1977SOL     OW 1636   2.475   2.704   1.431
 1977SOL    HW1 1637   2.531   2.785   1.414
 1977SOL    HW2 1638   2.534   2.624   1.434
 1979SOL     OW 1639   2.578   2.427   1.708
 1979SOL    HW1 1640   2.597   2.492   1.782
 1979SOL    HW2 1641   2.638   2.347   1.717
 1980SOL     OW 1642   3.312   3.082   1.633
 1980SOL    HW1 1643   3.303   3.072   1.732
 1980SOL    HW2 1644   3.408   3.075   1.607
 1981SOL     OW 1645   2.252   3.603   1.560
 1981SOL    HW1 1646   2.161   3.644   1.558
 1981SOL    HW2 1647   2.245   3.509   1.592
 1982SOL     OW 1648   3.536   2.745   1.254
 1982SOL    HW1 1649   3.509   2.656   1.217
 1982SOL    HW2 1650   3.537   2.813   1.181
 1984SOL     OW 1651   2.456   2.607   0.652
 1984SOL    HW1 1652   2.506   2.692   0.633
 1984SOL    HW2 1653   2.368   2.609   0.604
 1985SOL     OW 1654   3.639   2.204   1.642
 1985SOL    HW1 1655   3.622   2.235   1.548
 1985SOL    HW2 1656   3.555   2.167   1.680
 1986SOL     OW 1657   3.592   2.796   1.517
 1986SOL    HW1 1658   3.630   2.887   1.532
 1986SOL    HW2 1659   3.584   2.779   1.418
 1989SOL     OW 1660   2.721   2.818   0.861
 1989SOL    HW1 1661   2.775   2.749   0.909
 1989SOL    HW2 1662   2.689   2.887   0.927
 1992SOL     OW 1663   2.083   3.176   1.844
 1992SOL    HW1 1664   2.018   3.103   1.823
 1992SOL    HW2 1665   2.087   3.190   1.942
 1994SOL     OW 1666   2.534   3.253   1.624
 1994SOL    HW1 1667   2.456   3.203   1.662
 1994SOL    HW2 1668   2.531   3.348   1.655
 1995SOL     OW 1669   3.686   2.054   1.227
 1995SOL    HW1 1670   3.682   1.964   1.271
 1995SOL    HW2 1671   3.689   2.043   1.128
 1996SOL     OW 1672   2.290   2.286   0.520
 1996SOL    HW1 1673   2.320   2.214   0.458
 1996SOL    HW2 1674   2.251   2.246   0.603
 1998SOL     OW 1675   2.179   2.409   1.280
 1998SOL    HW1 1676   2.217   2.350   1.352
 1998SOL    HW2 1677   2.219   2.383   1.192
 2000SOL     OW 1678   3.286   2.076   1.112
 2000SOL    HW1 1679   3.338   2.011   1.167
 2000SOL    HW2 1680   3.237   2.139   1.173
 2001SOL     OW 1681   2.863   1.896   1.154
 2001SOL    HW1 1682   2.800   1.824   1.123
 2001SOL    HW2 1683   2.956   1.860   1.154
 2003SOL     OW 1684   2.480   3.429   1.284
 2003SOL    HW1 1685   2.475   3.511   1.341
 2003SOL    HW2 1686   2.569   3.426   1.239
 2009SOL     OW 1687   2.092   2.490   1.975
 2009SOL    HW1 1688   1.999   2.488   2.012
 2009SOL    HW2 1689   2.093   2.451   1.883
 2010SOL     OW 1690   2.087   2.137   2.858
 2010SOL    HW1 1691   2.122   2.120   2.950
 2010SOL    HW2 1692   1.999   2.092   2.846
 2011SOL     OW 1693   1.881   2.230   2.509
 2011SOL    HW1 1694   1.799   2.273   2.548
 2011SOL    HW2 1695   1.853   2.157   2.446
 2012SOL     OW 1696   2.431   3.137   3.027
 2012SOL    HW1 1697   2.338   3.130   2.990
 2012SOL    HW2 1698   2.442   3.226   3.071
 2013SOL     OW 1699   3.417   3.373   2.565
 2013SOL    HW1 1700   3.360   3.357   2.646
 2013SOL    HW2 1701   3.358   3.383   2.485
 2014SOL     OW 1702   2.997   2.565   2.579
 2014SOL    HW1 1703   3.054   2.643   2.554
 2014SOL    HW2 1704   2.937   2.591   2.655
 2015SOL     OW 1705   3.617   2.469   2.093
 2015SOL    HW1 1706   3.605   2.456   1.994
 2015SOL    HW2 1707   3.587   2.388   2.142
 2016SOL     OW 1708   2.630   3.006   2.885
 2016SOL    HW1 1709   2.552   3.023   2.945
 2016SOL    HW2 1710   2.664   3.093   2.849
 2017SOL     OW 1711   2.712   2.660   3.685
 2017SOL    HW1 1712   2.708   2.736   3.750
 2017SOL    HW2 1713   2.734   2.696   3.594
 2018SOL     OW 1714   2.547   2.874   2.527
 2018SOL    HW1 1715   2.616   2.858   2.597
 2018SOL    HW2 1716   2.474   2.931   2.565
 2019SOL     OW 1717   2.548   3.023   3.665
 2019SOL    HW1 1718   2.608   3.102   3.679
 2019SOL    HW2 1719   2.462   3.054   3.624
 2020SOL     OW 1720   2.197   3.297   2.923
 2020SOL    HW1 1721   2.119   3.266   2.870
 2020SOL    HW2 1722   2.255   3.355   2.866
 2021SOL     OW 1723   3.322   3.367   3.201
 2021SOL    HW1 1724   3.346   3.461   3.227
 2021SOL    HW2 1725   3.306   3.313   3.283
 2022SOL     OW 1726   2.300   2.254   3.361
 2022SOL    HW1 1727   2.382   2.198   3.370
 2022SOL    HW2 1728   2.219   2.196   3.365
 2023SOL     OW 1729   3.465   2.309   2.599
 2023SOL    HW1 1730   3.391   2.355   2.549
 2023SOL    HW2 1731   3.516   2.377   2.652
 2024SOL     OW 1732   2.093   3.575   2.345
 2024SOL    HW1 1733   2.127   3.652   2.399
 2024SOL    HW2 1734   2.137   3.575   2.255
 2025SOL     OW 1735   2.989   3.203   3.552
 2025SOL    HW1 1736   3.036   3.203   3.640
 2025SOL    HW2 1737   2.941   3.116   3.541
 2026SOL     OW 1738   2.092   3.296   2.400
 2026SOL    HW1 1739   2.066   3.392   2.400
 2026SOL    HW2 1740   2.021   3.242   2.445
 2027SOL     OW 1741   2.102   2.953   2.748
 2027SOL    HW1 1742   2.116   2.869   2.800
 2027SOL    HW2 1743   2.047   3.017   2.803
 2028SOL     OW 1744   2.482   3.648   3.301
 2028SOL    HW1 1745   2.390   3.631   3.336
 2028SOL    HW2 1746   2.510   3.740   3.327
 2029SOL     OW 1747   2.468   2.826   1.985
 2029SOL    HW1 1748   2.475   2.910   1.931
 2029SOL    HW2 1749   2.514   2.839   2.073
 2030SOL     OW 1750   3.456   1.976   3.342
 2030SOL    HW1 1751   3.438   2.043   3.270
 2030SOL    HW2 1752   3.453   2.022   3.431
 2032SOL     OW 1753   1.889   3.458   1.979
 2032SOL    HW1 1754   1.870   3.362   2.000
 2032SOL    HW2 1755   1.856   3.516   2.054
 2033SOL     OW 1756   3.551   2.784   2.474
 2033SOL    HW1 1757   3.646   2.755   2.482
 2033SOL    HW2 1758   3.543   2.849   2.399
 2034SOL     OW 1759   3.503   2.970   2.294
 2034SOL    HW1 1760   3.589   2.972   2.242
 2034SOL    HW2 1761   3.517   3.017   2.382
 2035SOL     OW 1762   1.975   2.599   3.459
 2035SOL    HW1 1763   2.063   2.586   3.504
 2035SOL    HW2 1764   1.962   2.696   3.437
 2036SOL     OW 1765   2.475   3.227   2.588
 2036SOL    HW1 1766   2.426   3.140   2.597
 2036SOL    HW2 1767   2.452   3.270   2.501
 2037SOL     OW 1768   3.155   3.090   3.285
 2037SOL    HW1 1769   3.192   3.017   3.227
 2037SOL    HW2 1770   3.207   3.095   3.370
 2038SOL     OW 1771   2.671   1.866   2.364
 2038SOL    HW1 1772   2.711   1.957   2.355
 2038SOL    HW2 1773   2.571   1.874   2.370
 2039SOL     OW 1774   2.059   2.838   3.126
 2039SOL    HW1 1775   2.148   2.793   3.112
 2039SOL    HW2 1776   1.986   2.773   3.107
 2040SOL     OW 1777   3.387   2.861   2.052
 2040SOL    HW1 1778   3.324   2.785   2.065
 2040SOL    HW2 1779   3.435   2.879   2.138
 2042SOL     OW 1780   2.179   2.113   3.663
 2042SOL    HW1 1781   2.250   2.184   3.669
 2042SOL    HW2 1782   2.091   2.152   3.691
 2043SOL     OW 1783   3.328   3.279   2.815
 2043SOL    HW1 1784   3.269   3.285   2.895
 2043SOL    HW2 1785   3.313   3.191   2.769
 2045SOL     OW 1786   2.460   2.591   2.132
 2045SOL    HW1 1787   2.484   2.660   2.064
 2045SOL    HW2 1788   2.382   2.624   2.186
 2046SOL     OW 1789   3.143   2.207   2.806
 2046SOL    HW1 1790   3.057   2.157   2.793
 2046SOL    HW2 1791   3.205   2.153   2.862
 2047SOL     OW 1792   3.438   3.524   2.169
 2047SOL    HW1 1793   3.527   3.570   2.172
 2047SOL    HW2 1794   3.417   3.500   2.074
 2048SOL     OW 1795   2.669   2.467   3.327
 2048SOL    HW1 1796   2.622   2.464   3.416
 2048SOL    HW2 1797   2.618   2.412   3.261
 2049SOL     OW 1798   3.256   2.331   3.536
 2049SOL    HW1 1799   3.236   2.374   3.624
 2049SOL    HW2 1800   3.334   2.269   3.545
 2050SOL     OW 1801   2.835   2.752   3.434
 2050SOL    HW1 1802   2.881   2.668   3.405
 2050SOL    HW2 1803   2.779   2.786   3.359
 2051SOL     OW 1804   2.853   2.272   3.104
 2051SOL    HW1 1805   2.776   2.306   3.158
 2051SOL    HW2 1806   2.819   2.221   3.025
 2052SOL     OW 1807   2.903   2.563   2.291
 2052SOL    HW1 1808   2.929   2.559   2.387
 2052SOL    HW2 1809   2.818   2.512   2.277
 2053SOL     OW 1810   1.938   2.673   2.651
 2053SOL    HW1 1811   2.037   2.661   2.660
 2053SOL    HW2 1812   1.914   2.768   2.672
 2055SOL     OW 1813   2.727   2.210   2.057
 2055SOL    HW1 1814   2.786   2.273   2.008
 2055SOL    HW2 1815   2.746   2.116   2.028
 2057SOL     OW 1816   3.224   3.006   2.407
 2057SOL    HW1 1817   3.307   2.977   2.359
 2057SOL    HW2 1818   3.175   3.073   2.351
 2058SOL     OW 1819   2.412   2.058   2.747
 2058SOL    HW1 1820   2.407   2.053   2.847
 2058SOL    HW2 1821   2.414   2.154   2.718
 2059SOL     OW 1822   2.870   3.318   2.339
 2059SOL    HW1 1823   2.824   3.390   2.287
 2059SOL    HW2 1824   2.866   3.338   2.437
 2060SOL     OW 1825   2.213   3.663   2.715
 2060SOL    HW1 1826   2.263   3.577   2.721
 2060SOL    HW2 1827   2.278   3.740   2.712
 2061SOL     OW 1828   3.657   2.928   2.735
 2061SOL    HW1 1829   3.595   2.913   2.659
 2061SOL    HW2 1830   3.605   2.939   2.820
 2062SOL     OW 1831   3.089   3.412   3.368
 2062SOL    HW1 1832   3.095   3.335   3.432
 2062SOL    HW2 1833   3.037   3.386   3.288
 2063SOL     OW 1834   2.183   2.805   2.104
 2063SOL    HW1 1835   2.265   2.844   2.062
 2063SOL    HW2 1836   2.156   2.723   2.055
 2064SOL     OW 1837   3.320   2.597   2.590
 2064SOL    HW1 1838   3.315   2.532   2.665
 2064SOL    HW2 1839   3.400   2.656   2.603
 2065SOL     OW 1840   2.323   3.128   3.589
 2065SOL    HW1 1841   2.273   3.129   3.503
 2065SOL    HW2 1842   2.260   3.110   3.665
 2066SOL     OW 1843   2.973   3.638   2.099
 2066SOL    HW1 1844   2.913   3.576   2.149
 2066SOL    HW2 1845   3.004   3.594   2.014
 2067SOL     OW 1846   2.064   2.147   3.360
 2067SOL    HW1 1847   1.984   2.207   3.347
 2067SOL    HW2 1848   2.054   2.098   3.446
 2068SOL     OW 1849   3.494   3.239   1.943
 2068SOL    HW1 1850   3.462   3.333   1.933
 2068SOL    HW2 1851   3.418   3.176   1.931
 2069SOL     OW 1852   2.326   3.605   2.185
 2069SOL    HW1 1853   2.359   3.644   2.271
 2069SOL    HW2 1854   2.402   3.598   2.120
 2070SOL     OW 1855   3.262   1.969   2.288
 2070SOL    HW1 1856   3.238   1.932   2.198
 2070SOL    HW2 1857   3.361   1.985   2.292
 2071SOL     OW 1858   2.111   3.647   3.103
 2071SOL    HW1 1859   2.168   3.582   3.153
 2071SOL    HW2 1860   2.095   3.614   3.010
 2072SOL     OW 1861   2.802   3.560   2.766
 2072SOL    HW1 1862   2.882   3.503   2.787
 2072SOL    HW2 1863   2.753   3.520   2.689
 2073SOL     OW 1864   2.244   2.562   2.342
 2073SOL    HW1 1865   2.289   2.472   2.339
 2073SOL    HW2 1866   2.150   2.551   2.375
 2074SOL     OW 1867   3.409   2.084   3.591
 2074SOL    HW1 1868   3.404   2.121   3.683
 2074SOL    HW2 1869   3.337   2.015   3.579
 2075SOL     OW 1870   2.476   1.984   1.979
 2075SOL    HW1 1871   2.574   1.962   1.986
 2075SOL    HW2 1872   2.445   1.967   1.886
 2076SOL     OW 1873   2.643   2.126   3.611
 2076SOL    HW1 1874   2.710   2.065   3.654
 2076SOL    HW2 1875   2.570   2.145   3.676
 2077SOL     OW 1876   2.750   3.376   3.057
 2077SOL    HW1 1877   2.727   3.351   2.963
 2077SOL    HW2 1878   2.811   3.307   3.096
 2078SOL     OW 1879   3.213   2.452   3.295
 2078SOL    HW1 1880   3.241   2.409   3.380
 2078SOL    HW2 1881   3.238   2.548   3.296
 2079SOL     OW 1882   2.665   3.264   2.786
 2079SOL    HW1 1883   2.755   3.278   2.744
 2079SOL    HW2 1884   2.594   3.266   2.715
 2080SOL     OW 1885   2.784   2.365   2.761
 2080SOL    HW1 1886   2.759   2.356   2.665
 2080SOL    HW2 1887   2.832   2.283   2.792
 2081SOL     OW 1888   2.401   1.926   2.374
 2081SOL    HW1 1889   2.320   1.927   2.432
 2081SOL    HW2 1890   2.404   2.009   2.319
 2082SOL     OW 1891   3.296   3.050   1.903
 2082SOL    HW1 1892   3.328   2.974   1.960
 2082SOL    HW2 1893   3.204   3.077   1.933
 2083SOL     OW 1894   2.159   1.897   2.033
 2083SOL    HW1 1895   2.208   1.981   2.012
 2083SOL    HW2 1896   2.221   1.832   2.078
 2084SOL     OW 1897   2.797   2.098   2.342
 2084SOL    HW1 1898   2.749   2.139   2.264
 2084SOL    HW2 1899   2.896   2.096   2.323
 2085SOL     OW 1900   2.938   2.545   3.326
 2085SOL    HW1 1901   2.858   2.484   3.329
 2085SOL    HW2 1902   3.019   2.492   3.302
 2086SOL     OW 1903   3.089   3.432   2.655
 2086SOL    HW1 1904   3.110   3.506   2.590
 2086SOL    HW2 1905   3.157   3.432   2.728
 2087SOL     OW 1906   2.321   3.014   2.603
 2087SOL    HW1 1907   2.250   2.987   2.668
 2087SOL    HW2 1908   2.295   2.986   2.510
 2088SOL     OW 1909   3.133   3.659   2.453
 2088SOL    HW1 1910   3.177   3.723   2.389
 2088SOL    HW2 1911   3.083   3.711   2.523
 2089SOL     OW 1912   2.894   2.411   1.878
 2089SOL    HW1 1913   2.853   2.493   1.839
 2089SOL    HW2 1914   2.958   2.437   1.951
 2090SOL     OW 1915   1.940   2.418   3.248
 2090SOL    HW1 1916   2.032   2.417   3.207
 2090SOL    HW2 1917   1.934   2.492   3.315
 2091SOL     OW 1918   2.423   2.084   3.009
 2091SOL    HW1 1919   2.461   2.000   3.046
 2091SOL    HW2 1920   2.335   2.103   3.053
 2092SOL     OW 1921   2.728   2.316   2.504
 2092SOL    HW1 1922   2.696   2.388   2.442
 2092SOL    HW2 1923   2.752   2.235   2.451
 2093SOL     OW 1924   2.879   1.901   2.615
 2093SOL    HW1 1925   2.807   1.906   2.546
 2093SOL    HW2 1926   2.855   1.832   2.684
 2094SOL     OW 1927   3.291   3.035   2.729
 2094SOL    HW1 1928   3.236   2.951   2.722
 2094SOL    HW2 1929   3.317   3.064   2.637
 2095SOL     OW 1930   3.328   2.452   2.854
 2095SOL    HW1 1931   3.298   2.357   2.861
 2095SOL    HW2 1932   3.401   2.468   2.920
 2096SOL     OW 1933   3.719   2.695   2.239
 2096SOL    HW1 1934   3.761   2.631   2.303
 2096SOL    HW2 1935   3.681   2.644   2.161
 2097SOL     OW 1936   2.350   3.247   2.036
 2097SOL    HW1 1937   2.263   3.232   2.083
 2097SOL    HW2 1938   2.333   3.273   1.941
 2098SOL     OW 1939   3.526   3.142   2.519
 2098SOL    HW1 1940   3.625   3.150   2.533
 2098SOL    HW2 1941   3.481   3.226   2.550
 2099SOL     OW 1942   3.252   2.437   1.940
 2099SOL    HW1 1943   3.198   2.416   2.021
 2099SOL    HW2 1944   3.343   2.396   1.949
 2101SOL     OW 1945   2.926   3.209   3.202
 2101SOL    HW1 1946   2.846   3.186   3.257
 2101SOL    HW2 1947   3.009   3.183   3.251
 2103SOL     OW 1948   2.973   3.057   2.962
 2103SOL    HW1 1949   2.933   3.101   3.043
 2103SOL    HW2 1950   2.932   3.094   2.879
 2104SOL     OW 1951   3.500   2.961   2.941
 2104SOL    HW1 1952   3.505   3.042   3.000
 2104SOL    HW2 1953   3.414   2.963   2.890
 2105SOL     OW 1954   2.777   1.951   3.264
 2105SOL    HW1 1955   2.802   1.931   3.169
 2105SOL    HW2 1956   2.849   2.007   3.306
 2106SOL     OW 1957   2.842   2.978   3.581
 2106SOL    HW1 1958   2.743   2.984   3.591
 2106SOL    HW2 1959   2.865   2.898   3.525
 2107SOL     OW 1960   2.567   2.912   2.230
 2107SOL    HW1 1961   2.553   2.919   2.329
 2107SOL    HW2 1962   2.651   2.861   2.212
 2108SOL     OW 1963   2.272   2.675   3.113
 2108SOL    HW1 1964   2.358   2.687   3.163
 2108SOL    HW2 1965   2.230   2.588   3.140
 2109SOL     OW 1966   3.136   2.248   3.124
 2109SOL    HW1 1967   3.157   2.322   3.188
 2109SOL    HW2 1968   3.047   2.265   3.081
 2110SOL     OW 1969   1.926   3.426   3.193
 2110SOL    HW1 1970   1.880   3.508   3.159
 2110SOL    HW2 1971   2.024   3.445   3.202
 2111SOL     OW 1972   2.229   2.962   2.363
 2111SOL    HW1 1973   2.222   3.045   2.307
 2111SOL    HW2 1974   2.233   2.882   2.303
 2112SOL     OW 1975   2.428   2.399   2.727
 2112SOL    HW1 1976   2.440   2.465   2.653
 2112SOL    HW2 1977   2.474   2.433   2.810
 2113SOL     OW 1978   3.114   3.210   2.250
 2113SOL    HW1 1979   3.164   3.287   2.290
 2113SOL    HW2 1980   3.019   3.212   2.282
 2114SOL     OW 1981   3.134   3.307   3.004
 2114SOL    HW1 1982   3.181   3.320   3.091
 2114SOL    HW2 1983   3.068   3.233   3.013
 2115SOL     OW 1984   3.444   2.501   2.334
 2115SOL    HW1 1985   3.413   2.562   2.407
 2115SOL    HW2 1986   3.494   2.553   2.265
 2116SOL     OW 1987   2.216   3.372   3.191
 2116SOL    HW1 1988   2.195   3.328   3.104
 2116SOL    HW2 1989   2.313   3.398   3.194
 2117SOL     OW 1990   2.264   2.613   3.460
 2117SOL    HW1 1991   2.332   2.668   3.413
 2117SOL    HW2 1992   2.304   2.525   3.487
 2118SOL     OW 1993   3.449   2.641   3.532
 2118SOL    HW1 1994   3.357   2.679   3.527
 2118SOL    HW2 1995   3.509   2.688   3.467
 2119SOL     OW 1996   2.875   1.967   3.632
 2119SOL    HW1 1997   2.881   2.052   3.580
 2119SOL    HW2 1998   2.907   1.891   3.575
 2120SOL     OW 1999   2.366   1.912   3.602
 2120SOL    HW1 2000   2.324   1.855   3.532
 2120SOL    HW2 2001   2.300   1.981   3.634
 2121SOL     OW 2002   2.435   2.732   2.891
 2121SOL    HW1 2003   2.479   2.821   2.882
 2121SOL    HW2 2004   2.372   2.732   2.968
 2122SOL     OW 2005   3.222   2.724   2.907
 2122SOL    HW1 2006   3.147   2.724   2.841
 2122SOL    HW2 2007   3.259   2.632   2.916
 2123SOL     OW 2008   3.071   2.387   2.137
 2123SOL    HW1 2009   3.084   2.303   2.191
 2123SOL    HW2 2010   3.042   2.461   2.197
 2124SOL     OW 2011   2.169   2.075   3.093
 2124SOL    HW1 2012   2.146   2.112   3.183
 2124SOL    HW2 2013   2.139   1.980   3.087
 2125SOL     OW 2014   1.899   3.172   3.144
 2125SOL    HW1 2015   1.952   3.123   3.212
 2125SOL    HW2 2016   1.921   3.270   3.149
 2126SOL     OW 2017   2.594   2.496   2.926
 2126SOL    HW1 2018   2.653   2.470   2.850
 2126SOL    HW2 2019   2.566   2.592   2.915
 2128SOL     OW 2020   2.169   1.925   2.480
 2128SOL    HW1 2021   2.158   2.019   2.513
 2128SOL    HW2 2022   2.164   1.862   2.557
 2129SOL     OW 2023   3.484   2.229   2.236
 2129SOL    HW1 2024   3.486   2.153   2.300
 2129SOL    HW2 2025   3.436   2.306   2.276
 2130SOL     OW 2026   2.885   2.628   2.828
 2130SOL    HW1 2027   2.900   2.649   2.924
 2130SOL    HW2 2028   2.855   2.533   2.819
 2133SOL     OW 2029   2.212   2.760   3.666
 2133SOL    HW1 2030   2.288   2.804   3.714
 2133SOL    HW2 2031   2.247   2.713   3.584
 2134SOL     OW 2032   3.402   2.136   1.987
 2134SOL    HW1 2033   3.341   2.061   2.010
 2134SOL    HW2 2034   3.424   2.188   2.070
 2135SOL     OW 2035   3.165   2.700   1.904
 2135SOL    HW1 2036   3.199   2.607   1.919
 2135SOL    HW2 2037   3.183   2.727   1.809
 2136SOL     OW 2038   2.930   3.195   2.711
 2136SOL    HW1 2039   2.937   3.111   2.656
 2136SOL    HW2 2040   2.992   3.264   2.675
 2137SOL     OW 2041   2.181   2.672   2.811
 2137SOL    HW1 2042   2.274   2.708   2.816
 2137SOL    HW2 2043   2.175   2.587   2.863
 2138SOL     OW 2044   2.201   2.371   2.868
 2138SOL    HW1 2045   2.149   2.288   2.851
 2138SOL    HW2 2046   2.278   2.376   2.804
 2139SOL     OW 2047   3.000   2.242   3.540
 2139SOL    HW1 2048   2.955   2.305   3.604
 2139SOL    HW2 2049   3.093   2.273   3.523
 2140SOL     OW 2050   3.022   2.069   3.339
 2140SOL    HW1 2051   3.022   2.133   3.416
 2140SOL    HW2 2052   3.050   2.117   3.256
 2141SOL     OW 2053   1.870   3.188   2.062
 2141SOL    HW1 2054   1.777   3.209   2.031
 2141SOL    HW2 2055   1.880   3.089   2.075
 2142SOL     OW 2056   1.950   3.663   2.789
 2142SOL    HW1 2057   1.908   3.577   2.762
 2142SOL    HW2 2058   2.044   3.666   2.755
 2143SOL     OW 2059   2.366   3.430   2.772
 2143SOL    HW1 2060   2.432   3.504   2.781
 2143SOL    HW2 2061   2.410   3.351   2.730
 2144SOL     OW 2062   2.864   2.658   3.100
 2144SOL    HW1 2063   2.905   2.626   3.186
 2144SOL    HW2 2064   2.768   2.631   3.097
 2145SOL     OW 2065   1.902   2.406   2.976
 2145SOL    HW1 2066   1.987   2.373   2.935
 2145SOL    HW2 2067   1.915   2.421   3.074
 2146SOL     OW 2068   2.051   2.382   3.584
 2146SOL    HW1 2069   2.110   2.342   3.514
 2146SOL    HW2 2070   1.993   2.453   3.543
 2147SOL     OW 2071   3.231   2.812   3.522
 2147SOL    HW1 2072   3.270   2.901   3.542
 2147SOL    HW2 2073   3.241   2.792   3.425
 2148SOL     OW 2074   2.677   2.434   2.187
 2148SOL    HW1 2075   2.684   2.345   2.141
 2148SOL    HW2 2076   2.583   2.468   2.179
 2149SOL     OW 2077   3.519   2.466   3.068
 2149SOL    HW1 2078   3.481   2.397   3.130
 2149SOL    HW2 2079   3.601   2.430   3.024
 2150SOL     OW 2080   2.114   3.426   3.606
 2150SOL    HW1 2081   2.084   3.483   3.682
 2150SOL    HW2 2082   2.107   3.329   3.632
 2151SOL     OW 2083   2.533   2.326   3.131
 2151SOL    HW1 2084   2.499   2.237   3.101
 2151SOL    HW2 2085   2.559   2.380   3.051
 2152SOL     OW 2086   2.792   3.540   3.327
 2152SOL    HW1 2087   2.768   3.522   3.232
 2152SOL    HW2 2088   2.822   3.634   3.337
 2153SOL     OW 2089   2.021   2.999   3.328
 2153SOL    HW1 2090   2.043   2.938   3.404
 2153SOL    HW2 2091   2.031   2.950   3.242
 2154SOL     OW 2092   3.209   2.921   3.096
 2154SOL    HW1 2093   3.233   2.858   3.022
 2154SOL    HW2 2094   3.119   2.961   3.078
 2155SOL     OW 2095   3.164   2.717   2.171
 2155SOL    HW1 2096   3.078   2.686   2.213
 2155SOL    HW2 2097   3.160   2.703   2.072
 2157SOL     OW 2098   3.114   3.593   2.990
 2157SOL    HW1 2099   3.198   3.598   2.936
 2157SOL    HW2 2100   3.091   3.497   3.008
 2158SOL     OW 2101   1.945   3.120   2.884
 2158SOL    HW1 2102   1.940   3.119   2.984
 2158SOL    HW2 2103   1.862   3.079   2.846
 2160SOL     OW 2104   3.588   1.997   2.385
 2160SOL    HW1 2105   3.661   1.980   2.318
 2160SOL    HW2 2106   3.557   1.910   2.423
 2161SOL     OW 2107   3.250   3.435   2.339
 2161SOL    HW1 2108   3.317   3.447   2.265
 2161SOL    HW2 2109   3.210   3.524   2.362
 2163SOL     OW 2110   3.142   2.789   2.534
 2163SOL    HW1 2111   3.202   2.708   2.536
 2163SOL    HW2 2112   3.182   2.858   2.474
 2164SOL     OW 2113   2.692   3.135   3.284
 2164SOL    HW1 2114   2.687   3.168   3.379
 2164SOL    HW2 2115   2.606   3.154   3.238
 2165SOL     OW 2116   2.534   3.478   2.016
 2165SOL    HW1 2117   2.543   3.488   1.917
 2165SOL    HW2 2118   2.494   3.389   2.037
 2167SOL     OW 2119   3.703   2.037   2.825
 2167SOL    HW1 2120   3.742   1.952   2.789
 2167SOL    HW2 2121   3.605   2.039   2.806
 2168SOL     OW 2122   3.056   3.474   1.893
 2168SOL    HW1 2123   3.062   3.381   1.930
 2168SOL    HW2 2124   2.997   3.474   1.813
 2169SOL     OW 2125   2.684   2.864   3.234
 2169SOL    HW1 2126   2.724   2.863   3.142
 2169SOL    HW2 2127   2.694   2.956   3.274
 2170SOL     OW 2128   2.778   2.772   2.153
 2170SOL    HW1 2129   2.841   2.810   2.085
 2170SOL    HW2 2130   2.818   2.689   2.192
 2171SOL     OW 2131   3.366   3.469   1.906
 2171SOL    HW1 2132   3.274   3.506   1.913
 2171SOL    HW2 2133   3.404   3.489   1.816
 2172SOL     OW 2134   2.234   3.150   3.352
 2172SOL    HW1 2135   2.221   3.243   3.318
 2172SOL    HW2 2136   2.150   3.098   3.339
 2173SOL     OW 2137   3.476   3.154   3.151
 2173SOL    HW1 2138   3.536   3.157   3.231
 2173SOL    HW2 2139   3.401   3.218   3.164
 2174SOL     OW 2140   2.901   2.960   2.558
 2174SOL    HW1 2141   2.831   2.913   2.612
 2174SOL    HW2 2142   2.960   2.892   2.515
 2175SOL     OW 2143   2.876   2.098   2.833
 2175SOL    HW1 2144   2.868   2.062   2.740
 2175SOL    HW2 2145   2.874   2.022   2.898
 2176SOL     OW 2146   2.452   3.349   2.353
 2176SOL    HW1 2147   2.494   3.291   2.283
 2176SOL    HW2 2148   2.408   3.428   2.309
 2177SOL     OW 2149   3.571   2.247   3.243
 2177SOL    HW1 2150   3.644   2.316   3.247
 2177SOL    HW2 2151   3.599   2.172   3.184
 2178SOL     OW 2152   2.117   3.210   2.152
 2178SOL    HW1 2153   2.021   3.211   2.125
 2178SOL    HW2 2154   2.129   3.263   2.236
 2179SOL     OW 2155   1.967   2.875   3.588
 2179SOL    HW1 2156   1.890   2.842   3.642
 2179SOL    HW2 2157   2.052   2.845   3.630
 2180SOL     OW 2158   2.534   2.065   3.351
 2180SOL    HW1 2159   2.624   2.049   3.311
 2180SOL    HW2 2160   2.542   2.070   3.450
 2181SOL     OW 2161   1.937   2.207   1.895
 2181SOL    HW1 2162   1.845   2.179   1.866
 2181SOL    HW2 2163   1.968   2.284   1.839
 2182SOL     OW 2164   3.302   2.718   3.260
 2182SOL    HW1 2165   3.245   2.770   3.197
 2182SOL    HW2 2166   3.398   2.730   3.236
 2183SOL     OW 2167   1.934   2.028   2.180
 2183SOL    HW1 2168   1.917   2.111   2.126
 2183SOL    HW2 2169   2.024   1.991   2.158
 2184SOL     OW 2170   3.045   3.197   1.981
 2184SOL    HW1 2171   2.946   3.186   1.983
 2184SOL    HW2 2172   3.079   3.212   2.074
 2185SOL     OW 2173   2.475   2.704   3.293
 2185SOL    HW1 2174   2.531   2.785   3.276
 2185SOL    HW2 2175   2.534   2.624   3.296
 2187SOL     OW 2176   2.578   2.427   3.570
 2187SOL    HW1 2177   2.597   2.492   3.644
 2187SOL    HW2 2178   2.638   2.347   3.579
 2188SOL     OW 2179   3.312   3.082   3.495
 2188SOL    HW1 2180   3.303   3.072   3.594
 2188SOL    HW2 2181   3.408   3.075   3.469
 2189SOL     OW 2182   2.252   3.603   3.422
 2189SOL    HW1 2183   2.161   3.644   3.420
 2189SOL    HW2 2184   2.245   3.509   3.454
 2190SOL     OW 2185   3.536   2.745   3.116
 2190SOL    HW1 2186   3.509   2.656   3.079
 2190SOL    HW2 2187   3.537   2.813   3.043
 2191SOL     OW 2188   3.087   2.187   2.311
 2191SOL    HW1 2189   3.152   2.113   2.300
 2191SOL    HW2 2190   3.107   2.237   2.395
 2192SOL     OW 2191   2.456   2.607   2.514
 2192SOL    HW1 2192   2.506   2.692   2.495
 2192SOL    HW2 2193   2.368   2.609   2.466
 2194SOL     OW 2194   3.592   2.796   3.379
 2194SOL    HW1 2195   3.630   2.887   3.394
 2194SOL    HW2 2196   3.584   2.779   3.280
 2195SOL     OW 2197   2.721   3.236   1.878
 2195SOL    HW1 2198   2.675   3.251   1.966
 2195SOL    HW2 2199   2.765   3.321   1.848
 2196SOL     OW 2200   2.523   3.652   2.815
 2196SOL    HW1 2201   2.477   3.740   2.802
 2196SOL    HW2 2202   2.622   3.664   2.808
 2197SOL     OW 2203   2.721   2.818   2.723
 2197SOL    HW1 2204   2.775   2.749   2.771
 2197SOL    HW2 2205   2.689   2.887   2.789
 2198SOL     OW 2206   2.945   2.846   1.949
 2198SOL    HW1 2207   2.922   2.899   1.867
 2198SOL    HW2 2208   3.026   2.790   1.930
 2200SOL     OW 2209   2.083   3.176   3.706
 2200SOL    HW1 2210   2.018   3.103   3.685
 2200SOL    HW2 2211   2.087   3.190   3.804
 2201SOL     OW 2212   1.941   3.102   2.515
 2201SOL    HW1 2213   1.940   3.055   2.603
 2201SOL    HW2 2214   2.023   3.074   2.464
 2202SOL     OW 2215   2.534   3.253   3.486
 2202SOL    HW1 2216   2.456   3.203   3.524
 2202SOL    HW2 2217   2.531   3.348   3.517
 2203SOL     OW 2218   3.686   2.054   3.089
 2203SOL    HW1 2219   3.682   1.964   3.133
 2203SOL    HW2 2220   3.689   2.043   2.990
 2205SOL     OW 2221   2.179   2.409   3.142
 2205SOL    HW1 2222   2.217   2.350   3.214
 2205SOL    HW2 2223   2.219   2.383   3.054
 2206SOL     OW 2224   2.674   3.448   2.549
 2206SOL    HW1 2225   2.706   3.458   2.455
 2206SOL    HW2 2226   2.595   3.386   2.551
 2207SOL     OW 2227   3.286   2.076   2.974
 2207SOL    HW1 2228   3.338   2.011   3.029
 2207SOL    HW2 2229   3.237   2.139   3.035
 2208SOL     OW 2230   2.863   1.896   3.016
 2208SOL    HW1 2231   2.800   1.824   2.985
 2208SOL    HW2 2232   2.956   1.860   3.016
 2209SOL     OW 2233   2.632   3.192   2.163
 2209SOL    HW1 2234   2.586   3.105   2.180
 2209SOL    HW2 2235   2.723   3.189   2.204
 2210SOL     OW 2236   2.480   3.429   3.146
 2210SOL    HW1 2237   2.475   3.511   3.203
 2210SOL    HW2 2238   2.569   3.426   3.101
 2211SOL     OW 2239   3.214   1.914   2.030
 2211SOL    HW1 2240   3.249   1.873   1.946
 2211SOL    HW2 2241   3.124   1.876   2.050
 2212SOL     OW 2242   3.162   2.315   2.553
 2212SOL    HW1 2243   3.103   2.395   2.557
 2212SOL    HW2 2244   3.177   2.280   2.646
 2213SOL     OW 2245   3.455   2.083   2.744
 2213SOL    HW1 2246   3.371   2.082   2.798
 2213SOL    HW2 2247   3.457   2.166   2.688
 2214SOL     OW 2248   1.901   2.939   2.162
 2214SOL    HW1 2249   2.000   2.928   2.153
 2214SOL    HW2 2250   1.861   2.853   2.194
 2215SOL     OW 2251   2.737   3.508   2.199
 2215SOL    HW1 2252   2.660   3.473   2.145
 2215SOL    HW2 2253   2.705   3.579   2.261
 2216SOL     OW 2254   2.092   2.490   3.837
 2216SOL    HW1 2255   1.999   2.488   3.874
 2216SOL    HW2 2256   2.093   2.451   3.745
 2225SOL     OW 2257   2.468   2.826   3.847
 2225SOL    HW1 2258   2.475   2.910   3.793
 2225SOL    HW2 2259   2.514   2.839   3.935
 2235SOL     OW 2260   2.460   2.591   3.994
 2235SOL    HW1 2261   2.484   2.660   3.926
 2235SOL    HW2 2262   2.382   2.624   4.048
 2240SOL     OW 2263   2.727   2.210   3.919
 2240SOL    HW1 2264   2.786   2.273   3.870
 2240SOL    HW2 2265   2.746   2.116   3.890
 2245SOL     OW 2266   2.183   2.805   3.966
 2245SOL    HW1 2267   2.265   2.844   3.924
 2245SOL    HW2 2268   2.156   2.723   3.917
 2253SOL     OW 2269   2.476   1.984   3.841
 2253SOL    HW1 2270   2.574   1.962   3.848
 2253SOL    HW2 2271   2.445   1.967   3.748
 2256SOL     OW 2272   2.159   1.897   3.895
 2256SOL    HW1 2273   2.208   1.981   3.874
 2256SOL    HW2 2274   2.221   1.832   3.940
 2260SOL     OW 2275   2.894   2.411   3.740
 2260SOL    HW1 2276   2.853   2.493   3.701
 2260SOL    HW2 2277   2.958   2.437   3.813
 2266SOL     OW 2278   2.389   2.118   4.052
 2266SOL    HW1 2279   2.416   2.059   3.977
 2266SOL    HW2 2280   2.389   2.213   4.021
 2276SOL     OW 2281   3.165   2.700   3.766
 2276SOL    HW1 2282   3.199   2.607   3.781
 2276SOL    HW2 2283   3.183   2.727   3.671
 2279SOL     OW 2284   2.335   2.362   3.915
 2279SOL    HW1 2285   2.396   2.442   3.919
 2279SOL    HW2 2286   2.240   2.393   3.922
 2291SOL     OW 2287   1.937   2.207   3.757
 2291SOL    HW1 2288   1.845   2.179   3.728
 2291SOL    HW2 2289   1.968   2.284   3.701
 2296SOL     OW 2290   2.721   3.236   3.740
 2296SOL    HW1 2291   2.675   3.251   3.828
 2296SOL    HW2 2292   2.765   3.321   3.710
 2299SOL     OW 2293   2.945   2.846   3.811
 2299SOL    HW1 2294   2.922   2.899   3.729
 2299SOL    HW2 2295   3.026   2.790   3.792
 2321SOL     OW 2296   2.179   3.975   1.801
 2321SOL    HW1 2297   2.250   4.046   1.807
 2321SOL    HW2 2298   2.091   4.014   1.829
 2359SOL     OW 2299   2.875   3.829   1.770
 2359SOL    HW1 2300   2.881   3.914   1.718
 2359SOL    HW2 2301   2.907   3.753   1.713
 2360SOL     OW 2302   2.366   3.774   1.740
 2360SOL    HW1 2303   2.324   3.717   1.670
 2360SOL    HW2 2304   2.300   3.843   1.772
 2415SOL     OW 2305   2.671   3.728   2.364
 2415SOL    HW1 2306   2.711   3.819   2.355
 2415SOL    HW2 2307   2.571   3.736   2.370
 2425SOL     OW 2308   2.412   3.920   2.747
 2425SOL    HW1 2309   2.407   3.915   2.847
 2425SOL    HW2 2310   2.414   4.016   2.718
 2431SOL     OW 2311   2.476   3.846   1.979
 2431SOL    HW1 2312   2.574   3.824   1.986
 2431SOL    HW2 2313   2.445   3.829   1.886
 2435SOL     OW 2314   2.401   3.788   2.374
 2435SOL    HW1 2315   2.320   3.789   2.432
 2435SOL    HW2 2316   2.404   3.871   2.319
 2436SOL     OW 2317   2.159   3.759   2.033
 2436SOL    HW1 2318   2.208   3.843   2.012
 2436SOL    HW2 2319   2.221   3.694   2.078
 2437SOL     OW 2320   2.797   3.960   2.342
 2437SOL    HW1 2321   2.749   4.001   2.264
 2437SOL    HW2 2322   2.896   3.958   2.323
 2443SOL     OW 2323   2.879   3.763   2.615
 2443SOL    HW1 2324   2.807   3.768   2.546
 2443SOL    HW2 2325   2.855   3.694   2.684
 2447SOL     OW 2326   2.389   3.980   2.190
 2447SOL    HW1 2327   2.416   3.921   2.115
 2447SOL    HW2 2328   2.389   4.075   2.159
 2462SOL     OW 2329   2.169   3.787   2.480
 2462SOL    HW1 2330   2.158   3.881   2.513
 2462SOL    HW2 2331   2.164   3.724   2.557
 2485SOL     OW 2332   1.934   3.890   2.180
 2485SOL    HW1 2333   1.917   3.973   2.126
 2485SOL    HW2 2334   2.024   3.853   2.158
 2496SOL     OW 2335   2.863   3.758   3.016
 2496SOL    HW1 2336   2.800   3.686   2.985
 2496SOL    HW2 2337   2.956   3.722   3.016
 2497SOL     OW 2338   3.214   3.776   2.030
 2497SOL    HW1 2339   3.249   3.735   1.946
 2497SOL    HW2 2340   3.124   3.738   2.050
 2568SOL     OW 2341   3.854   1.821   1.571
 2568SOL    HW1 2342   3.844   1.806   1.670
 2568SOL    HW2 2343   3.768   1.857   1.535
 2615SOL     OW 2344   3.854   1.794   1.851
 2615SOL    HW1 2345   3.813   1.720   1.904
 2615SOL    HW2 2346   3.918   1.845   1.909
 2649SOL     OW 2347   3.955   1.713   2.345
 2649SOL    HW1 2348   3.989   1.790   2.399
 2649SOL    HW2 2349   3.999   1.713   2.255
 2655SOL     OW 2350   3.751   1.596   1.979
 2655SOL    HW1 2351   3.732   1.500   2.000
 2655SOL    HW2 2352   3.718   1.654   2.054
 2699SOL     OW 2353   3.732   1.326   2.062
 2699SOL    HW1 2354   3.639   1.347   2.031
 2699SOL    HW2 2355   3.742   1.227   2.075
 2700SOL     OW 2356   3.812   1.801   2.789
 2700SOL    HW1 2357   3.770   1.715   2.762
 2700SOL    HW2 2358   3.906   1.804   2.755
 2794SOL     OW 2359   3.837   2.599   1.597
 2794SOL    HW1 2360   3.925   2.586   1.642
 2794SOL    HW2 2361   3.824   2.696   1.575
 2815SOL     OW 2362   3.802   2.418   1.386
 2815SOL    HW1 2363   3.894   2.417   1.345
 2815SOL    HW2 2364   3.796   2.492   1.453
 2840SOL     OW 2365   3.913   2.382   1.722
 2840SOL    HW1 2366   3.972   2.342   1.652
 2840SOL    HW2 2367   3.855   2.453   1.681
 2854SOL     OW 2368   3.829   2.875   1.726
 2854SOL    HW1 2369   3.752   2.842   1.780
 2854SOL    HW2 2370   3.914   2.845   1.768
 2871SOL     OW 2371   3.954   2.490   1.975
 2871SOL    HW1 2372   3.861   2.488   2.012
 2871SOL    HW2 2373   3.955   2.451   1.883
 2872SOL     OW 2374   3.949   2.137   2.858
 2872SOL    HW1 2375   3.984   2.120   2.950
 2872SOL    HW2 2376   3.861   2.092   2.846
 2873SOL     OW 2377   3.743   2.230   2.509
 2873SOL    HW1 2378   3.661   2.273   2.548
 2873SOL    HW2 2379   3.715   2.157   2.446
 2885SOL     OW 2380   3.846   2.505   2.425
 2885SOL    HW1 2381   3.801   2.417   2.442
 2885SOL    HW2 2382   3.845   2.559   2.509
 2893SOL     OW 2383   3.800   2.673   2.651
 2893SOL    HW1 2384   3.899   2.661   2.660
 2893SOL    HW2 2385   3.776   2.768   2.672
 2907SOL     OW 2386   4.021   1.897   2.033
 2907SOL    HW1 2387   4.070   1.981   2.012
 2907SOL    HW2 2388   4.083   1.832   2.078
 2925SOL     OW 2389   4.031   1.925   2.480
 2925SOL    HW1 2390   4.020   2.019   2.513
 2925SOL    HW2 2391   4.026   1.862   2.557
 2930SOL     OW 2392   3.732   3.188   2.062
 2930SOL    HW1 2393   3.639   3.209   2.031
 2930SOL    HW2 2394   3.742   3.089   2.075
 2933SOL     OW 2395   3.764   2.406   2.976
 2933SOL    HW1 2396   3.849   2.373   2.935
 2933SOL    HW2 2397   3.777   2.421   3.074
 2944SOL     OW 2398   3.987   2.188   2.582
 2944SOL    HW1 2399   3.908   2.239   2.548
 2944SOL    HW2 2400   3.978   2.173   2.680
 2951SOL     OW 2401   3.799   2.207   1.895
 2951SOL    HW1 2402   3.707   2.179   1.866
 2951SOL    HW2 2403   3.830   2.284   1.839
 2952SOL     OW 2404   3.796   2.028   2.180
 2952SOL    HW1 2405   3.779   2.111   2.126
 2952SOL    HW2 2406   3.886   1.991   2.158
 2959SOL     OW 2407   3.803   3.102   2.515
 2959SOL    HW1 2408   3.802   3.055   2.603
 2959SOL    HW2 2409   3.885   3.074   2.464
 2965SOL     OW 2410   3.763   2.939   2.162
 2965SOL    HW1 2411   3.862   2.928   2.153
 2965SOL    HW2 2412   3.723   2.853   2.194
   4.56217   4.56217   4.56217
