mobley_3980099_GMX.gro created by acpype (v: 2023.10.27) on Wed May 20 23:44:47 2026
   12
    1MOL     C1    1   2.283   2.278   2.132
    1MOL     C2    2   2.176   2.338   2.199
    1MOL     C3    3   2.388   2.222   2.204
    1MOL     C4    4   2.174   2.341   2.339
    1MOL     C5    5   2.386   2.225   2.344
    1MOL     C6    6   2.279   2.284   2.411
    1MOL    CL1    7   2.038   2.417   2.415
    1MOL    CL2    8   2.519   2.152   2.427
    1MOL    CL3    9   2.277   2.288   2.585
    1MOL     H1   10   2.284   2.276   2.023
    1MOL     H2   11   2.095   2.381   2.141
    1MOL     H3   12   2.470   2.176   2.150
   4.56217   4.56217   4.56217
