mobley_3980099_GMX.gro created by acpype (v: 2023.10.27) on Wed May 20 23:44:47 2026
 9348
    1MOL     C1    1   2.283   2.278   2.132
    1MOL     C2    2   2.176   2.338   2.199
    1MOL     C3    3   2.388   2.222   2.204
    1MOL     C4    4   2.174   2.341   2.339
    1MOL     C5    5   2.386   2.225   2.344
    1MOL     C6    6   2.279   2.284   2.411
    1MOL    CL1    7   2.038   2.417   2.415
    1MOL    CL2    8   2.519   2.152   2.427
    1MOL    CL3    9   2.277   2.288   2.585
    1MOL     H1   10   2.284   2.276   2.023
    1MOL     H2   11   2.095   2.381   2.141
    1MOL     H3   12   2.470   2.176   2.150
    2SOL     OW   13   0.230   0.628   0.113
    2SOL    HW1   14   0.137   0.626   0.150
    2SOL    HW2   15   0.231   0.589   0.021
    3SOL     OW   16   0.225   0.275   0.996
    3SOL    HW1   17   0.260   0.258   1.088
    3SOL    HW2   18   0.137   0.230   0.984
    4SOL     OW   19   0.019   0.368   0.647
    4SOL    HW1   20  -0.063   0.411   0.686
    4SOL    HW2   21  -0.009   0.295   0.584
    5SOL     OW   22   0.569   1.275   1.165
    5SOL    HW1   23   0.476   1.268   1.128
    5SOL    HW2   24   0.580   1.364   1.209
    6SOL     OW   25   1.555   1.511   0.703
    6SOL    HW1   26   1.498   1.495   0.784
    6SOL    HW2   27   1.496   1.521   0.623
    7SOL     OW   28   1.135   0.703   0.717
    7SOL    HW1   29   1.192   0.781   0.692
    7SOL    HW2   30   1.075   0.729   0.793
    8SOL     OW   31   1.755   0.607   0.231
    8SOL    HW1   32   1.743   0.594   0.132
    8SOL    HW2   33   1.725   0.526   0.280
    9SOL     OW   34   0.768   1.144   1.023
    9SOL    HW1   35   0.690   1.161   1.083
    9SOL    HW2   36   0.802   1.231   0.987
   10SOL     OW   37   0.850   0.798   1.823
   10SOL    HW1   38   0.846   0.874   1.888
   10SOL    HW2   39   0.872   0.834   1.732
   11SOL     OW   40   0.685   1.012   0.665
   11SOL    HW1   41   0.754   0.996   0.735
   11SOL    HW2   42   0.612   1.069   0.703
   12SOL     OW   43   0.686   1.161   1.803
   12SOL    HW1   44   0.746   1.240   1.817
   12SOL    HW2   45   0.600   1.192   1.762
   13SOL     OW   46   0.335   1.435   1.061
   13SOL    HW1   47   0.257   1.404   1.008
   13SOL    HW2   48   0.393   1.493   1.004
   14SOL     OW   49   1.460   1.505   1.339
   14SOL    HW1   50   1.484   1.599   1.365
   14SOL    HW2   51   1.444   1.451   1.421
   15SOL     OW   52   0.438   0.392   1.499
   15SOL    HW1   53   0.520   0.336   1.508
   15SOL    HW2   54   0.357   0.334   1.503
   16SOL     OW   55   1.603   0.447   0.737
   16SOL    HW1   56   1.529   0.493   0.687
   16SOL    HW2   57   1.654   0.515   0.790
   17SOL     OW   58   0.231   1.713   0.483
   17SOL    HW1   59   0.265   1.790   0.537
   17SOL    HW2   60   0.275   1.713   0.393
   18SOL     OW   61   1.127   1.341   1.690
   18SOL    HW1   62   1.174   1.341   1.778
   18SOL    HW2   63   1.079   1.254   1.679
   19SOL     OW   64   0.230   1.434   0.538
   19SOL    HW1   65   0.204   1.530   0.538
   19SOL    HW2   66   0.159   1.380   0.583
   20SOL     OW   67   0.240   1.091   0.886
   20SOL    HW1   68   0.254   1.007   0.938
   20SOL    HW2   69   0.185   1.155   0.941
   21SOL     OW   70   0.620   1.786   1.439
   21SOL    HW1   71   0.528   1.769   1.474
   21SOL    HW2   72   0.648   1.878   1.465
   22SOL     OW   73   0.606   0.964   0.123
   22SOL    HW1   74   0.613   1.048   0.069
   22SOL    HW2   75   0.652   0.977   0.211
   23SOL     OW   76   1.594   0.114   1.480
   23SOL    HW1   77   1.576   0.181   1.408
   23SOL    HW2   78   1.591   0.160   1.569
   24SOL     OW   79   0.122   0.643   0.563
   24SOL    HW1   80   0.077   0.555   0.580
   24SOL    HW2   81   0.121   0.697   0.647
   25SOL     OW   82   1.842   1.767   0.359
   25SOL    HW1   83   1.896   1.738   0.439
   25SOL    HW2   84   1.872   1.857   0.330
   26SOL     OW   85   0.027   1.596   0.117
   26SOL    HW1   86   0.008   1.500   0.138
   26SOL    HW2   87  -0.006   1.654   0.192
   27SOL     OW   88   1.689   0.922   0.612
   27SOL    HW1   89   1.784   0.893   0.620
   27SOL    HW2   90   1.681   0.987   0.537
   28SOL     OW   91   1.641   1.108   0.432
   28SOL    HW1   92   1.727   1.110   0.380
   28SOL    HW2   93   1.655   1.155   0.520
   29SOL     OW   94   0.113   0.737   1.597
   29SOL    HW1   95   0.201   0.724   1.642
   29SOL    HW2   96   0.100   0.834   1.575
   30SOL     OW   97   0.613   1.365   0.726
   30SOL    HW1   98   0.564   1.278   0.735
   30SOL    HW2   99   0.590   1.408   0.639
   31SOL     OW  100   1.293   1.228   1.423
   31SOL    HW1  101   1.330   1.155   1.365
   31SOL    HW2  102   1.345   1.233   1.508
   32SOL     OW  103   0.809   0.004   0.502
   32SOL    HW1  104   0.849   0.095   0.493
   32SOL    HW2  105   0.709   0.012   0.508
   33SOL     OW  106   0.197   0.976   1.264
   33SOL    HW1  107   0.286   0.931   1.250
   33SOL    HW2  108   0.124   0.911   1.245
   34SOL     OW  109   1.525   0.999   0.190
   34SOL    HW1  110   1.462   0.923   0.203
   34SOL    HW2  111   1.573   1.017   0.276
   35SOL     OW  112   1.187   1.792   1.616
   35SOL    HW1  113   1.211   1.852   1.540
   35SOL    HW2  114   1.194   1.697   1.586
   36SOL     OW  115   0.317   0.251   1.801
   36SOL    HW1  116   0.388   0.322   1.807
   36SOL    HW2  117   0.229   0.290   1.829
   37SOL     OW  118   1.466   1.417   0.953
   37SOL    HW1  119   1.407   1.423   1.033
   37SOL    HW2  120   1.451   1.329   0.907
   38SOL     OW  121   1.667   1.714   0.572
   38SOL    HW1  122   1.626   1.691   0.484
   38SOL    HW2  123   1.649   1.640   0.637
   39SOL     OW  124   0.598   0.729   0.270
   39SOL    HW1  125   0.622   0.798   0.202
   39SOL    HW2  126   0.520   0.762   0.324
   40SOL     OW  127   1.281   0.345   0.944
   40SOL    HW1  128   1.195   0.295   0.931
   40SOL    HW2  129   1.343   0.291   1.000
   41SOL     OW  130   1.576   1.662   0.307
   41SOL    HW1  131   1.665   1.708   0.310
   41SOL    HW2  132   1.555   1.638   0.212
   42SOL     OW  133   0.807   0.605   1.465
   42SOL    HW1  134   0.760   0.602   1.554
   42SOL    HW2  135   0.756   0.550   1.399
   43SOL     OW  136   1.394   0.469   1.674
   43SOL    HW1  137   1.374   0.512   1.762
   43SOL    HW2  138   1.472   0.407   1.683
   44SOL     OW  139   0.973   0.890   1.572
   44SOL    HW1  140   1.019   0.806   1.543
   44SOL    HW2  141   0.917   0.924   1.497
   45SOL     OW  142   0.991   0.410   1.242
   45SOL    HW1  143   0.914   0.444   1.296
   45SOL    HW2  144   0.957   0.359   1.163
   46SOL     OW  145   1.041   0.701   0.429
   46SOL    HW1  146   1.067   0.697   0.525
   46SOL    HW2  147   0.956   0.650   0.415
   47SOL     OW  148   0.076   0.811   0.789
   47SOL    HW1  149   0.175   0.799   0.798
   47SOL    HW2  150   0.052   0.906   0.810
   48SOL     OW  151   0.130   1.821   1.571
   48SOL    HW1  152   0.120   1.806   1.670
   48SOL    HW2  153   0.044   1.857   1.535
   49SOL     OW  154   0.865   0.348   0.195
   49SOL    HW1  155   0.924   0.411   0.146
   49SOL    HW2  156   0.884   0.254   0.166
   50SOL     OW  157   1.719   0.585   1.831
   50SOL    HW1  158   1.693   0.674   1.795
   50SOL    HW2  159   1.717   0.517   1.758
   51SOL     OW  160   1.362   1.144   0.545
   51SOL    HW1  161   1.445   1.115   0.497
   51SOL    HW2  162   1.313   1.211   0.489
   52SOL     OW  163   0.550   0.196   0.885
   52SOL    HW1  164   0.545   0.191   0.985
   52SOL    HW2  165   0.552   0.292   0.856
   53SOL     OW  166   1.008   1.456   0.477
   53SOL    HW1  167   0.962   1.528   0.425
   53SOL    HW2  168   1.004   1.476   0.575
   54SOL     OW  169   0.351   1.801   0.853
   54SOL    HW1  170   0.401   1.715   0.859
   54SOL    HW2  171   0.416   1.878   0.850
   55SOL     OW  172   1.795   1.066   0.873
   55SOL    HW1  173   1.733   1.051   0.797
   55SOL    HW2  174   1.743   1.077   0.958
   56SOL     OW  175   1.227   1.550   1.506
   56SOL    HW1  176   1.233   1.473   1.570
   56SOL    HW2  177   1.175   1.524   1.426
   57SOL     OW  178   0.321   0.943   0.242
   57SOL    HW1  179   0.403   0.982   0.200
   57SOL    HW2  180   0.294   0.861   0.193
   58SOL     OW  181   1.458   0.735   0.728
   58SOL    HW1  182   1.453   0.670   0.803
   58SOL    HW2  183   1.538   0.794   0.741
   59SOL     OW  184   0.461   1.266   1.727
   59SOL    HW1  185   0.411   1.267   1.641
   59SOL    HW2  186   0.398   1.248   1.803
   60SOL     OW  187   1.111   1.776   0.237
   60SOL    HW1  188   1.051   1.714   0.287
   60SOL    HW2  189   1.142   1.732   0.152
   61SOL     OW  190   0.202   0.285   1.498
   61SOL    HW1  191   0.122   0.345   1.485
   61SOL    HW2  192   0.192   0.236   1.584
   62SOL     OW  193   1.632   1.377   0.081
   62SOL    HW1  194   1.600   1.471   0.071
   62SOL    HW2  195   1.556   1.314   0.069
   63SOL     OW  196   0.464   1.743   0.323
   63SOL    HW1  197   0.497   1.782   0.409
   63SOL    HW2  198   0.540   1.736   0.258
   64SOL     OW  199   1.400   0.107   0.426
   64SOL    HW1  200   1.376   0.070   0.336
   64SOL    HW2  201   1.499   0.123   0.430
   65SOL     OW  202   0.249   1.785   1.241
   65SOL    HW1  203   0.306   1.720   1.291
   65SOL    HW2  204   0.233   1.752   1.148
   66SOL     OW  205   0.940   1.698   0.904
   66SOL    HW1  206   1.020   1.641   0.925
   66SOL    HW2  207   0.891   1.658   0.827
   67SOL     OW  208   0.382   0.700   0.480
   67SOL    HW1  209   0.427   0.610   0.477
   67SOL    HW2  210   0.288   0.689   0.513
   68SOL     OW  211   1.547   0.222   1.729
   68SOL    HW1  212   1.542   0.259   1.821
   68SOL    HW2  213   1.475   0.153   1.717
   69SOL     OW  214   0.614   0.122   0.117
   69SOL    HW1  215   0.712   0.100   0.124
   69SOL    HW2  216   0.583   0.105   0.024
   70SOL     OW  217   0.781   0.264   1.749
   70SOL    HW1  218   0.848   0.203   1.792
   70SOL    HW2  219   0.708   0.283   1.814
   71SOL     OW  220   0.888   1.514   1.195
   71SOL    HW1  221   0.865   1.489   1.101
   71SOL    HW2  222   0.949   1.445   1.234
   72SOL     OW  223   1.351   0.590   1.433
   72SOL    HW1  224   1.379   0.547   1.518
   72SOL    HW2  225   1.376   0.686   1.434
   73SOL     OW  226   0.803   1.402   0.924
   73SOL    HW1  227   0.893   1.416   0.882
   73SOL    HW2  228   0.732   1.404   0.853
   74SOL     OW  229   0.922   0.503   0.899
   74SOL    HW1  230   0.897   0.494   0.803
   74SOL    HW2  231   0.970   0.421   0.930
   75SOL     OW  232   0.539   0.064   0.512
   75SOL    HW1  233   0.458   0.065   0.570
   75SOL    HW2  234   0.542   0.147   0.457
   76SOL     OW  235   1.434   1.188   0.041
   76SOL    HW1  236   1.466   1.112   0.098
   76SOL    HW2  237   1.342   1.215   0.071
   77SOL     OW  238   0.297   0.035   0.171
   77SOL    HW1  239   0.346   0.119   0.150
   77SOL    HW2  240   0.359  -0.030   0.216
   78SOL     OW  241   0.935   0.236   0.480
   78SOL    HW1  242   0.887   0.277   0.402
   78SOL    HW2  243   1.034   0.234   0.461
   79SOL     OW  244   1.076   0.683   1.464
   79SOL    HW1  245   0.996   0.622   1.467
   79SOL    HW2  246   1.157   0.630   1.440
   80SOL     OW  247   1.227   1.570   0.793
   80SOL    HW1  248   1.248   1.644   0.728
   80SOL    HW2  249   1.295   1.570   0.866
   81SOL     OW  250   0.459   1.152   0.741
   81SOL    HW1  251   0.388   1.125   0.806
   81SOL    HW2  252   0.433   1.124   0.648
   82SOL     OW  253   1.271   1.797   0.591
   82SOL    HW1  254   1.315   1.861   0.527
   82SOL    HW2  255   1.221   1.849   0.661
   83SOL     OW  256   1.032   0.549   0.016
   83SOL    HW1  257   0.991   0.631  -0.023
   83SOL    HW2  258   1.096   0.575   0.089
   84SOL     OW  259   0.078   0.556   1.386
   84SOL    HW1  260   0.170   0.555   1.345
   84SOL    HW2  261   0.072   0.630   1.453
   85SOL     OW  262   0.561   0.222   1.147
   85SOL    HW1  263   0.599   0.138   1.184
   85SOL    HW2  264   0.473   0.241   1.191
   86SOL     OW  265   0.866   0.454   0.642
   86SOL    HW1  266   0.834   0.526   0.580
   86SOL    HW2  267   0.890   0.373   0.589
   87SOL     OW  268   1.017   0.039   0.753
   87SOL    HW1  269   0.945   0.044   0.684
   87SOL    HW2  270   0.993  -0.030   0.822
   88SOL     OW  271   1.429   1.173   0.867
   88SOL    HW1  272   1.374   1.089   0.860
   88SOL    HW2  273   1.455   1.202   0.775
   89SOL     OW  274   1.466   0.590   0.992
   89SOL    HW1  275   1.436   0.495   0.999
   89SOL    HW2  276   1.539   0.606   1.058
   90SOL     OW  277   1.857   0.833   0.377
   90SOL    HW1  278   1.899   0.769   0.441
   90SOL    HW2  279   1.819   0.782   0.299
   91SOL     OW  280   0.488   1.385   0.174
   91SOL    HW1  281   0.401   1.370   0.221
   91SOL    HW2  282   0.471   1.411   0.079
   92SOL     OW  283   1.664   1.280   0.657
   92SOL    HW1  284   1.763   1.288   0.671
   92SOL    HW2  285   1.619   1.364   0.688
   93SOL     OW  286   1.390   0.575   0.078
   93SOL    HW1  287   1.336   0.554   0.159
   93SOL    HW2  288   1.481   0.534   0.087
   94SOL     OW  289   0.527   0.256   0.328
   94SOL    HW1  290   0.554   0.197   0.253
   94SOL    HW2  291   0.527   0.351   0.297
   95SOL     OW  292   1.754   1.223   1.588
   95SOL    HW1  293   1.845   1.184   1.575
   95SOL    HW2  294   1.762   1.319   1.612
   96SOL     OW  295   1.064   1.347   1.340
   96SOL    HW1  296   0.984   1.324   1.395
   96SOL    HW2  297   1.147   1.321   1.389
   97SOL     OW  298   1.592   1.629   1.625
   97SOL    HW1  299   1.619   1.663   1.535
   97SOL    HW2  300   1.671   1.591   1.671
   98SOL     OW  301   1.111   1.195   1.100
   98SOL    HW1  302   1.071   1.239   1.181
   98SOL    HW2  303   1.070   1.232   1.017
   99SOL     OW  304   1.638   1.099   1.079
   99SOL    HW1  305   1.643   1.180   1.138
   99SOL    HW2  306   1.552   1.101   1.028
  100SOL     OW  307   0.915   0.089   1.402
  100SOL    HW1  308   0.940   0.069   1.307
  100SOL    HW2  309   0.987   0.145   1.444
  101SOL     OW  310   0.980   1.116   1.719
  101SOL    HW1  311   0.881   1.122   1.729
  101SOL    HW2  312   1.003   1.036   1.663
  102SOL     OW  313   0.705   1.050   0.368
  102SOL    HW1  314   0.691   1.057   0.467
  102SOL    HW2  315   0.789   0.999   0.350
  103SOL     OW  316   0.410   0.813   1.251
  103SOL    HW1  317   0.496   0.825   1.301
  103SOL    HW2  318   0.368   0.726   1.278
  104SOL     OW  319   1.274   0.386   1.262
  104SOL    HW1  320   1.295   0.460   1.326
  104SOL    HW2  321   1.185   0.403   1.219
  105SOL     OW  322   0.064   1.564   1.331
  105SOL    HW1  323   0.018   1.646   1.297
  105SOL    HW2  324   0.162   1.583   1.340
  106SOL     OW  325   0.367   1.100   0.501
  106SOL    HW1  326   0.360   1.183   0.445
  106SOL    HW2  327   0.371   1.020   0.441
  107SOL     OW  328   0.566   0.537   0.865
  107SOL    HW1  329   0.578   0.603   0.791
  107SOL    HW2  330   0.612   0.571   0.948
  108SOL     OW  331   1.252   1.348   0.388
  108SOL    HW1  332   1.302   1.425   0.428
  108SOL    HW2  333   1.157   1.350   0.420
  109SOL     OW  334   1.272   1.445   1.142
  109SOL    HW1  335   1.319   1.458   1.229
  109SOL    HW2  336   1.206   1.371   1.151
  110SOL     OW  337   1.582   0.639   0.472
  110SOL    HW1  338   1.551   0.700   0.545
  110SOL    HW2  339   1.632   0.691   0.403
  111SOL     OW  340   0.354   1.510   1.329
  111SOL    HW1  341   0.333   1.466   1.242
  111SOL    HW2  342   0.451   1.536   1.332
  112SOL     OW  343   0.402   0.751   1.598
  112SOL    HW1  344   0.470   0.806   1.551
  112SOL    HW2  345   0.442   0.663   1.625
  113SOL     OW  346   1.587   0.779   1.670
  113SOL    HW1  347   1.495   0.817   1.665
  113SOL    HW2  348   1.647   0.826   1.605
  114SOL     OW  349   1.013   0.105   1.770
  114SOL    HW1  350   1.019   0.190   1.718
  114SOL    HW2  351   1.045   0.029   1.713
  115SOL     OW  352   0.504   0.050   1.740
  115SOL    HW1  353   0.462  -0.007   1.670
  115SOL    HW2  354   0.438   0.119   1.772
  116SOL     OW  355   0.573   0.870   1.029
  116SOL    HW1  356   0.617   0.959   1.020
  116SOL    HW2  357   0.510   0.870   1.106
  117SOL     OW  358   1.360   0.862   1.045
  117SOL    HW1  359   1.285   0.862   0.979
  117SOL    HW2  360   1.397   0.770   1.054
  118SOL     OW  361   1.209   0.525   0.275
  118SOL    HW1  362   1.222   0.441   0.329
  118SOL    HW2  363   1.180   0.599   0.335
  119SOL     OW  364   0.307   0.213   1.231
  119SOL    HW1  365   0.284   0.250   1.321
  119SOL    HW2  366   0.277   0.118   1.225
  120SOL     OW  367   0.037   1.310   1.282
  120SOL    HW1  368   0.090   1.261   1.350
  120SOL    HW2  369   0.059   1.408   1.287
  121SOL     OW  370   0.732   0.634   1.064
  121SOL    HW1  371   0.791   0.608   0.988
  121SOL    HW2  372   0.704   0.730   1.053
  122SOL     OW  373   1.728   0.935   1.854
  122SOL    HW1  374   1.682   0.928   1.765
  122SOL    HW2  375   1.666   0.979   1.920
  123SOL     OW  376   0.307   0.063   0.618
  123SOL    HW1  377   0.296   0.157   0.651
  123SOL    HW2  378   0.302   0.000   0.695
  124SOL     OW  379   1.622   0.367   0.374
  124SOL    HW1  380   1.624   0.291   0.438
  124SOL    HW2  381   1.574   0.444   0.414
  125SOL     OW  382   1.023   0.766   0.966
  125SOL    HW1  383   1.038   0.787   1.062
  125SOL    HW2  384   0.993   0.671   0.957
  126SOL     OW  385   0.980   1.573   1.700
  126SOL    HW1  386   0.960   1.617   1.612
  126SOL    HW2  387   1.019   1.482   1.684
  127SOL     OW  388   1.859   1.518   1.605
  127SOL    HW1  389   1.873   1.545   1.510
  127SOL    HW2  390   1.942   1.540   1.658
  128SOL     OW  391   0.350   0.898   1.804
  128SOL    HW1  392   0.426   0.942   1.852
  128SOL    HW2  393   0.385   0.851   1.722
  129SOL     OW  394   1.540   0.274   0.125
  129SOL    HW1  395   1.479   0.199   0.148
  129SOL    HW2  396   1.562   0.326   0.208
  130SOL     OW  397   1.303   0.838   0.042
  130SOL    HW1  398   1.337   0.745   0.057
  130SOL    HW2  399   1.321   0.865  -0.053
  131SOL     OW  400   1.068   1.333   0.849
  131SOL    HW1  401   1.075   1.249   0.794
  131SOL    HW2  402   1.130   1.402   0.813
  132SOL     OW  403   0.319   0.810   0.949
  132SOL    HW1  404   0.412   0.846   0.954
  132SOL    HW2  405   0.313   0.725   1.001
  133SOL     OW  406   0.339   0.509   1.006
  133SOL    HW1  407   0.287   0.426   0.989
  133SOL    HW2  408   0.416   0.514   0.942
  134SOL     OW  409   1.138   0.380   1.678
  134SOL    HW1  410   1.093   0.443   1.742
  134SOL    HW2  411   1.231   0.411   1.661
  135SOL     OW  412   1.160   0.207   1.477
  135SOL    HW1  413   1.160   0.271   1.554
  135SOL    HW2  414   1.188   0.255   1.394
  136SOL     OW  415   0.008   1.326   0.200
  136SOL    HW1  416  -0.085   1.347   0.169
  136SOL    HW2  417   0.018   1.227   0.213
  137SOL     OW  418   0.088   1.801   0.927
  137SOL    HW1  419   0.046   1.715   0.900
  137SOL    HW2  420   0.182   1.804   0.893
  138SOL     OW  421   0.504   1.568   0.910
  138SOL    HW1  422   0.570   1.642   0.919
  138SOL    HW2  423   0.548   1.489   0.868
  139SOL     OW  424   1.002   0.796   1.238
  139SOL    HW1  425   1.043   0.764   1.324
  139SOL    HW2  426   0.906   0.769   1.235
  140SOL     OW  427   0.040   0.544   1.114
  140SOL    HW1  428   0.125   0.511   1.073
  140SOL    HW2  429   0.053   0.559   1.212
  141SOL     OW  430   0.189   0.520   1.722
  141SOL    HW1  431   0.248   0.480   1.652
  141SOL    HW2  432   0.131   0.591   1.681
  142SOL     OW  433   1.369   0.950   1.660
  142SOL    HW1  434   1.408   1.039   1.680
  142SOL    HW2  435   1.379   0.930   1.563
  143SOL     OW  436   0.815   0.572   0.325
  143SOL    HW1  437   0.822   0.483   0.279
  143SOL    HW2  438   0.721   0.606   0.317
  144SOL     OW  439   1.657   0.604   1.206
  144SOL    HW1  440   1.619   0.535   1.268
  144SOL    HW2  441   1.739   0.568   1.162
  145SOL     OW  442   0.252   1.564   1.744
  145SOL    HW1  443   0.222   1.621   1.820
  145SOL    HW2  444   0.245   1.467   1.770
  146SOL     OW  445   0.671   0.464   1.269
  146SOL    HW1  446   0.637   0.375   1.239
  146SOL    HW2  447   0.697   0.518   1.189
  147SOL     OW  448   0.930   1.678   1.465
  147SOL    HW1  449   0.906   1.660   1.370
  147SOL    HW2  450   0.960   1.772   1.475
  148SOL     OW  451   0.473   0.500   0.191
  148SOL    HW1  452   0.534   0.580   0.195
  148SOL    HW2  453   0.378   0.531   0.198
  149SOL     OW  454   0.159   1.137   1.466
  149SOL    HW1  455   0.181   1.076   1.542
  149SOL    HW2  456   0.169   1.088   1.380
  150SOL     OW  457   1.347   1.059   1.234
  150SOL    HW1  458   1.371   0.996   1.160
  150SOL    HW2  459   1.257   1.099   1.216
  151SOL     OW  460   1.302   0.855   0.309
  151SOL    HW1  461   1.216   0.824   0.351
  151SOL    HW2  462   1.298   0.841   0.210
  152SOL     OW  463   1.759   1.747   1.154
  152SOL    HW1  464   1.820   1.777   1.081
  152SOL    HW2  465   1.721   1.658   1.132
  153SOL     OW  466   1.252   1.731   1.128
  153SOL    HW1  467   1.336   1.736   1.074
  153SOL    HW2  468   1.229   1.635   1.146
  154SOL     OW  469   0.083   1.258   1.022
  154SOL    HW1  470   0.078   1.257   1.122
  154SOL    HW2  471   0.000   1.217   0.984
  155SOL     OW  472   0.688   1.662   1.716
  155SOL    HW1  473   0.632   1.743   1.725
  155SOL    HW2  474   0.740   1.666   1.630
  156SOL     OW  475   0.903   0.086   0.133
  156SOL    HW1  476   0.954   0.087   0.047
  156SOL    HW2  477   0.959   0.044   0.204
  157SOL     OW  478   1.726   0.135   0.523
  157SOL    HW1  479   1.799   0.118   0.456
  157SOL    HW2  480   1.695   0.048   0.561
  158SOL     OW  481   1.388   1.573   0.477
  158SOL    HW1  482   1.455   1.585   0.403
  158SOL    HW2  483   1.348   1.662   0.500
  159SOL     OW  484   0.130   1.794   1.851
  159SOL    HW1  485   0.089   1.720   1.904
  159SOL    HW2  486   0.194   1.845   1.909
  160SOL     OW  487   1.280   0.927   0.672
  160SOL    HW1  488   1.340   0.846   0.674
  160SOL    HW2  489   1.320   0.996   0.612
  161SOL     OW  490   0.830   1.273   1.422
  161SOL    HW1  491   0.825   1.306   1.517
  161SOL    HW2  492   0.744   1.292   1.376
  162SOL     OW  493   0.672   1.616   0.154
  162SOL    HW1  494   0.681   1.626   0.055
  162SOL    HW2  495   0.632   1.527   0.175
  163SOL     OW  496   1.650   1.720   1.394
  163SOL    HW1  497   1.703   1.730   1.310
  163SOL    HW2  498   1.623   1.810   1.428
  164SOL     OW  499   1.841   0.175   0.963
  164SOL    HW1  500   1.880   0.090   0.927
  164SOL    HW2  501   1.743   0.177   0.944
  165SOL     OW  502   0.263   0.326   0.720
  165SOL    HW1  503   0.184   0.377   0.686
  165SOL    HW2  504   0.254   0.311   0.818
  166SOL     OW  505   1.194   1.612   0.031
  166SOL    HW1  506   1.200   1.519   0.068
  166SOL    HW2  507   1.135   1.612  -0.049
  167SOL     OW  508   0.822   1.002   1.372
  167SOL    HW1  509   0.862   1.001   1.280
  167SOL    HW2  510   0.832   1.094   1.412
  168SOL     OW  511   0.916   0.910   0.291
  168SOL    HW1  512   0.979   0.948   0.223
  168SOL    HW2  513   0.956   0.827   0.330
  169SOL     OW  514   1.504   1.607   0.044
  169SOL    HW1  515   1.412   1.644   0.051
  169SOL    HW2  516   1.542   1.627  -0.046
  170SOL     OW  517   0.372   1.288   1.490
  170SOL    HW1  518   0.359   1.381   1.456
  170SOL    HW2  519   0.288   1.236   1.477
  171SOL     OW  520   1.614   1.292   1.289
  171SOL    HW1  521   1.674   1.295   1.369
  171SOL    HW2  522   1.539   1.356   1.302
  172SOL     OW  523   1.039   1.098   0.696
  172SOL    HW1  524   0.969   1.051   0.750
  172SOL    HW2  525   1.098   1.030   0.653
  173SOL     OW  526   1.014   0.236   0.971
  173SOL    HW1  527   1.006   0.200   0.878
  173SOL    HW2  528   1.012   0.160   1.036
  174SOL     OW  529   0.590   1.487   0.491
  174SOL    HW1  530   0.632   1.429   0.421
  174SOL    HW2  531   0.546   1.566   0.447
  175SOL     OW  532   1.709   0.385   1.381
  175SOL    HW1  533   1.782   0.454   1.385
  175SOL    HW2  534   1.737   0.310   1.322
  176SOL     OW  535   0.255   1.348   0.290
  176SOL    HW1  536   0.159   1.349   0.263
  176SOL    HW2  537   0.267   1.401   0.374
  177SOL     OW  538   0.105   1.013   1.726
  177SOL    HW1  539   0.028   0.980   1.780
  177SOL    HW2  540   0.190   0.983   1.768
  178SOL     OW  541   0.672   0.203   1.489
  178SOL    HW1  542   0.762   0.187   1.449
  178SOL    HW2  543   0.680   0.208   1.588
  179SOL     OW  544   0.075   0.345   0.033
  179SOL    HW1  545  -0.017   0.317   0.004
  179SOL    HW2  546   0.106   0.422  -0.023
  180SOL     OW  547   1.440   0.856   1.398
  180SOL    HW1  548   1.383   0.908   1.335
  180SOL    HW2  549   1.536   0.868   1.374
  181SOL     OW  550   0.072   0.166   0.318
  181SOL    HW1  551   0.055   0.249   0.264
  181SOL    HW2  552   0.162   0.129   0.296
  182SOL     OW  553   1.183   1.335   0.119
  182SOL    HW1  554   1.084   1.324   0.121
  182SOL    HW2  555   1.217   1.350   0.212
  183SOL     OW  556   0.613   0.842   1.431
  183SOL    HW1  557   0.669   0.923   1.414
  183SOL    HW2  558   0.672   0.762   1.434
  184SOL     OW  559   1.493   1.767   0.959
  184SOL    HW1  560   1.526   1.831   0.890
  184SOL    HW2  561   1.559   1.761   1.034
  185SOL     OW  562   0.716   0.565   1.708
  185SOL    HW1  563   0.735   0.630   1.782
  185SOL    HW2  564   0.776   0.485   1.717
  186SOL     OW  565   1.450   1.220   1.633
  186SOL    HW1  566   1.441   1.210   1.732
  186SOL    HW2  567   1.546   1.213   1.607
  187SOL     OW  568   0.390   1.741   1.560
  187SOL    HW1  569   0.299   1.782   1.558
  187SOL    HW2  570   0.383   1.647   1.592
  188SOL     OW  571   1.674   0.883   1.254
  188SOL    HW1  572   1.647   0.794   1.217
  188SOL    HW2  573   1.675   0.951   1.181
  189SOL     OW  574   1.225   0.325   0.449
  189SOL    HW1  575   1.290   0.251   0.438
  189SOL    HW2  576   1.245   0.375   0.533
  190SOL     OW  577   0.594   0.745   0.652
  190SOL    HW1  578   0.644   0.830   0.633
  190SOL    HW2  579   0.506   0.747   0.604
  191SOL     OW  580   1.777   0.342   1.642
  191SOL    HW1  581   1.760   0.373   1.548
  191SOL    HW2  582   1.693   0.305   1.680
  192SOL     OW  583   1.730   0.934   1.517
  192SOL    HW1  584   1.768   1.025   1.532
  192SOL    HW2  585   1.722   0.917   1.418
  193SOL     OW  586   0.859   1.374   0.016
  193SOL    HW1  587   0.813   1.389   0.104
  193SOL    HW2  588   0.903   1.459  -0.014
  194SOL     OW  589   0.661   1.790   0.953
  194SOL    HW1  590   0.615   1.878   0.940
  194SOL    HW2  591   0.760   1.802   0.946
  195SOL     OW  592   0.859   0.956   0.861
  195SOL    HW1  593   0.913   0.887   0.909
  195SOL    HW2  594   0.827   1.025   0.927
  196SOL     OW  595   1.083   0.984   0.087
  196SOL    HW1  596   1.060   1.037   0.005
  196SOL    HW2  597   1.164   0.928   0.068
  197SOL     OW  598   1.861   1.569   0.851
  197SOL    HW1  599   1.790   1.557   0.781
  197SOL    HW2  600   1.862   1.490   0.911
  198SOL     OW  601   0.221   1.314   1.844
  198SOL    HW1  602   0.156   1.241   1.823
  198SOL    HW2  603   0.225   1.328   1.942
  199SOL     OW  604   0.079   1.240   0.653
  199SOL    HW1  605   0.078   1.193   0.741
  199SOL    HW2  606   0.161   1.212   0.602
  200SOL     OW  607   0.672   1.391   1.624
  200SOL    HW1  608   0.594   1.341   1.662
  200SOL    HW2  609   0.669   1.486   1.655
  201SOL     OW  610   1.824   0.192   1.227
  201SOL    HW1  611   1.820   0.102   1.271
  201SOL    HW2  612   1.827   0.181   1.128
  202SOL     OW  613   0.428   0.424   0.520
  202SOL    HW1  614   0.458   0.352   0.458
  202SOL    HW2  615   0.389   0.384   0.603
  203SOL     OW  616   1.705   1.487   1.104
  203SOL    HW1  617   1.612   1.462   1.077
  203SOL    HW2  618   1.731   1.437   1.186
  204SOL     OW  619   0.317   0.547   1.280
  204SOL    HW1  620   0.355   0.488   1.352
  204SOL    HW2  621   0.357   0.521   1.192
  205SOL     OW  622   0.812   1.586   0.687
  205SOL    HW1  623   0.844   1.596   0.593
  205SOL    HW2  624   0.733   1.524   0.689
  206SOL     OW  625   1.424   0.214   1.112
  206SOL    HW1  626   1.476   0.149   1.167
  206SOL    HW2  627   1.375   0.277   1.173
  207SOL     OW  628   1.001   0.034   1.154
  207SOL    HW1  629   0.938  -0.038   1.123
  207SOL    HW2  630   1.094  -0.002   1.154
  208SOL     OW  631   0.770   1.330   0.301
  208SOL    HW1  632   0.724   1.243   0.318
  208SOL    HW2  633   0.861   1.327   0.342
  209SOL     OW  634   0.618   1.567   1.284
  209SOL    HW1  635   0.613   1.649   1.341
  209SOL    HW2  636   0.707   1.564   1.239
  210SOL     OW  637   1.352   0.052   0.168
  210SOL    HW1  638   1.387   0.011   0.084
  210SOL    HW2  639   1.262   0.014   0.188
  211SOL     OW  640   1.300   0.453   0.691
  211SOL    HW1  641   1.241   0.533   0.695
  211SOL    HW2  642   1.315   0.418   0.784
  212SOL     OW  643   1.593   0.221   0.882
  212SOL    HW1  644   1.509   0.220   0.936
  212SOL    HW2  645   1.595   0.304   0.826
  213SOL     OW  646   0.039   1.077   0.300
  213SOL    HW1  647   0.138   1.066   0.291
  213SOL    HW2  648  -0.001   0.991   0.332
  214SOL     OW  649   0.875   1.646   0.337
  214SOL    HW1  650   0.798   1.611   0.283
  214SOL    HW2  651   0.843   1.717   0.399
  215SOL     OW  652   0.230   0.628   1.975
  215SOL    HW1  653   0.137   0.626   2.012
  215SOL    HW2  654   0.231   0.589   1.883
  216SOL     OW  655   0.225   0.275   2.858
  216SOL    HW1  656   0.260   0.258   2.950
  216SOL    HW2  657   0.137   0.230   2.846
  217SOL     OW  658   0.019   0.368   2.509
  217SOL    HW1  659  -0.063   0.411   2.548
  217SOL    HW2  660  -0.009   0.295   2.446
  218SOL     OW  661   0.569   1.275   3.027
  218SOL    HW1  662   0.476   1.268   2.990
  218SOL    HW2  663   0.580   1.364   3.071
  219SOL     OW  664   1.555   1.511   2.565
  219SOL    HW1  665   1.498   1.495   2.646
  219SOL    HW2  666   1.496   1.521   2.485
  220SOL     OW  667   1.135   0.703   2.579
  220SOL    HW1  668   1.192   0.781   2.554
  220SOL    HW2  669   1.075   0.729   2.655
  221SOL     OW  670   1.755   0.607   2.093
  221SOL    HW1  671   1.743   0.594   1.994
  221SOL    HW2  672   1.725   0.526   2.142
  222SOL     OW  673   0.768   1.144   2.885
  222SOL    HW1  674   0.690   1.161   2.945
  222SOL    HW2  675   0.802   1.231   2.849
  223SOL     OW  676   0.850   0.798   3.685
  223SOL    HW1  677   0.846   0.874   3.750
  223SOL    HW2  678   0.872   0.834   3.594
  224SOL     OW  679   0.685   1.012   2.527
  224SOL    HW1  680   0.754   0.996   2.597
  224SOL    HW2  681   0.612   1.069   2.565
  225SOL     OW  682   0.686   1.161   3.665
  225SOL    HW1  683   0.746   1.240   3.679
  225SOL    HW2  684   0.600   1.192   3.624
  226SOL     OW  685   0.335   1.435   2.923
  226SOL    HW1  686   0.257   1.404   2.870
  226SOL    HW2  687   0.393   1.493   2.866
  227SOL     OW  688   1.460   1.505   3.201
  227SOL    HW1  689   1.484   1.599   3.227
  227SOL    HW2  690   1.444   1.451   3.283
  228SOL     OW  691   0.438   0.392   3.361
  228SOL    HW1  692   0.520   0.336   3.370
  228SOL    HW2  693   0.357   0.334   3.365
  229SOL     OW  694   1.603   0.447   2.599
  229SOL    HW1  695   1.529   0.493   2.549
  229SOL    HW2  696   1.654   0.515   2.652
  230SOL     OW  697   0.231   1.713   2.345
  230SOL    HW1  698   0.265   1.790   2.399
  230SOL    HW2  699   0.275   1.713   2.255
  231SOL     OW  700   1.127   1.341   3.552
  231SOL    HW1  701   1.174   1.341   3.640
  231SOL    HW2  702   1.079   1.254   3.541
  232SOL     OW  703   0.230   1.434   2.400
  232SOL    HW1  704   0.204   1.530   2.400
  232SOL    HW2  705   0.159   1.380   2.445
  233SOL     OW  706   0.240   1.091   2.748
  233SOL    HW1  707   0.254   1.007   2.800
  233SOL    HW2  708   0.185   1.155   2.803
  234SOL     OW  709   0.620   1.786   3.301
  234SOL    HW1  710   0.528   1.769   3.336
  234SOL    HW2  711   0.648   1.878   3.327
  235SOL     OW  712   0.606   0.964   1.985
  235SOL    HW1  713   0.613   1.048   1.931
  235SOL    HW2  714   0.652   0.977   2.073
  236SOL     OW  715   1.594   0.114   3.342
  236SOL    HW1  716   1.576   0.181   3.270
  236SOL    HW2  717   1.591   0.160   3.431
  237SOL     OW  718   0.122   0.643   2.425
  237SOL    HW1  719   0.077   0.555   2.442
  237SOL    HW2  720   0.121   0.697   2.509
  238SOL     OW  721   1.842   1.767   2.221
  238SOL    HW1  722   1.896   1.738   2.301
  238SOL    HW2  723   1.872   1.857   2.192
  239SOL     OW  724   0.027   1.596   1.979
  239SOL    HW1  725   0.008   1.500   2.000
  239SOL    HW2  726  -0.006   1.654   2.054
  240SOL     OW  727   1.689   0.922   2.474
  240SOL    HW1  728   1.784   0.893   2.482
  240SOL    HW2  729   1.681   0.987   2.399
  241SOL     OW  730   1.641   1.108   2.294
  241SOL    HW1  731   1.727   1.110   2.242
  241SOL    HW2  732   1.655   1.155   2.382
  242SOL     OW  733   0.113   0.737   3.459
  242SOL    HW1  734   0.201   0.724   3.504
  242SOL    HW2  735   0.100   0.834   3.437
  243SOL     OW  736   0.613   1.365   2.588
  243SOL    HW1  737   0.564   1.278   2.597
  243SOL    HW2  738   0.590   1.408   2.501
  244SOL     OW  739   1.293   1.228   3.285
  244SOL    HW1  740   1.330   1.155   3.227
  244SOL    HW2  741   1.345   1.233   3.370
  245SOL     OW  742   0.809   0.004   2.364
  245SOL    HW1  743   0.849   0.095   2.355
  245SOL    HW2  744   0.709   0.012   2.370
  246SOL     OW  745   0.197   0.976   3.126
  246SOL    HW1  746   0.286   0.931   3.112
  246SOL    HW2  747   0.124   0.911   3.107
  247SOL     OW  748   1.525   0.999   2.052
  247SOL    HW1  749   1.462   0.923   2.065
  247SOL    HW2  750   1.573   1.017   2.138
  248SOL     OW  751   1.187   1.792   3.478
  248SOL    HW1  752   1.211   1.852   3.402
  248SOL    HW2  753   1.194   1.697   3.448
  249SOL     OW  754   0.317   0.251   3.663
  249SOL    HW1  755   0.388   0.322   3.669
  249SOL    HW2  756   0.229   0.290   3.691
  250SOL     OW  757   1.466   1.417   2.815
  250SOL    HW1  758   1.407   1.423   2.895
  250SOL    HW2  759   1.451   1.329   2.769
  251SOL     OW  760   1.667   1.714   2.434
  251SOL    HW1  761   1.626   1.691   2.346
  251SOL    HW2  762   1.649   1.640   2.499
  252SOL     OW  763   0.598   0.729   2.132
  252SOL    HW1  764   0.622   0.798   2.064
  252SOL    HW2  765   0.520   0.762   2.186
  253SOL     OW  766   1.281   0.345   2.806
  253SOL    HW1  767   1.195   0.295   2.793
  253SOL    HW2  768   1.343   0.291   2.862
  254SOL     OW  769   1.576   1.662   2.169
  254SOL    HW1  770   1.665   1.708   2.172
  254SOL    HW2  771   1.555   1.638   2.074
  255SOL     OW  772   0.807   0.605   3.327
  255SOL    HW1  773   0.760   0.602   3.416
  255SOL    HW2  774   0.756   0.550   3.261
  256SOL     OW  775   1.394   0.469   3.536
  256SOL    HW1  776   1.374   0.512   3.624
  256SOL    HW2  777   1.472   0.407   3.545
  257SOL     OW  778   0.973   0.890   3.434
  257SOL    HW1  779   1.019   0.806   3.405
  257SOL    HW2  780   0.917   0.924   3.359
  258SOL     OW  781   0.991   0.410   3.104
  258SOL    HW1  782   0.914   0.444   3.158
  258SOL    HW2  783   0.957   0.359   3.025
  259SOL     OW  784   1.041   0.701   2.291
  259SOL    HW1  785   1.067   0.697   2.387
  259SOL    HW2  786   0.956   0.650   2.277
  260SOL     OW  787   0.076   0.811   2.651
  260SOL    HW1  788   0.175   0.799   2.660
  260SOL    HW2  789   0.052   0.906   2.672
  261SOL     OW  790   0.130   1.821   3.433
  261SOL    HW1  791   0.120   1.806   3.532
  261SOL    HW2  792   0.044   1.857   3.397
  262SOL     OW  793   0.865   0.348   2.057
  262SOL    HW1  794   0.924   0.411   2.008
  262SOL    HW2  795   0.884   0.254   2.028
  263SOL     OW  796   1.719   0.585   3.693
  263SOL    HW1  797   1.693   0.674   3.657
  263SOL    HW2  798   1.717   0.517   3.620
  264SOL     OW  799   1.362   1.144   2.407
  264SOL    HW1  800   1.445   1.115   2.359
  264SOL    HW2  801   1.313   1.211   2.351
  265SOL     OW  802   0.550   0.196   2.747
  265SOL    HW1  803   0.545   0.191   2.847
  265SOL    HW2  804   0.552   0.292   2.718
  266SOL     OW  805   1.008   1.456   2.339
  266SOL    HW1  806   0.962   1.528   2.287
  266SOL    HW2  807   1.004   1.476   2.437
  267SOL     OW  808   0.351   1.801   2.715
  267SOL    HW1  809   0.401   1.715   2.721
  267SOL    HW2  810   0.416   1.878   2.712
  268SOL     OW  811   1.795   1.066   2.735
  268SOL    HW1  812   1.733   1.051   2.659
  268SOL    HW2  813   1.743   1.077   2.820
  269SOL     OW  814   1.227   1.550   3.368
  269SOL    HW1  815   1.233   1.473   3.432
  269SOL    HW2  816   1.175   1.524   3.288
  270SOL     OW  817   0.321   0.943   2.104
  270SOL    HW1  818   0.403   0.982   2.062
  270SOL    HW2  819   0.294   0.861   2.055
  271SOL     OW  820   1.458   0.735   2.590
  271SOL    HW1  821   1.453   0.670   2.665
  271SOL    HW2  822   1.538   0.794   2.603
  272SOL     OW  823   0.461   1.266   3.589
  272SOL    HW1  824   0.411   1.267   3.503
  272SOL    HW2  825   0.398   1.248   3.665
  273SOL     OW  826   1.111   1.776   2.099
  273SOL    HW1  827   1.051   1.714   2.149
  273SOL    HW2  828   1.142   1.732   2.014
  274SOL     OW  829   0.202   0.285   3.360
  274SOL    HW1  830   0.122   0.345   3.347
  274SOL    HW2  831   0.192   0.236   3.446
  275SOL     OW  832   1.632   1.377   1.943
  275SOL    HW1  833   1.600   1.471   1.933
  275SOL    HW2  834   1.556   1.314   1.931
  276SOL     OW  835   0.464   1.743   2.185
  276SOL    HW1  836   0.497   1.782   2.271
  276SOL    HW2  837   0.540   1.736   2.120
  277SOL     OW  838   1.400   0.107   2.288
  277SOL    HW1  839   1.376   0.070   2.198
  277SOL    HW2  840   1.499   0.123   2.292
  278SOL     OW  841   0.249   1.785   3.103
  278SOL    HW1  842   0.306   1.720   3.153
  278SOL    HW2  843   0.233   1.752   3.010
  279SOL     OW  844   0.940   1.698   2.766
  279SOL    HW1  845   1.020   1.641   2.787
  279SOL    HW2  846   0.891   1.658   2.689
  280SOL     OW  847   0.382   0.700   2.342
  280SOL    HW1  848   0.427   0.610   2.339
  280SOL    HW2  849   0.288   0.689   2.375
  281SOL     OW  850   1.547   0.222   3.591
  281SOL    HW1  851   1.542   0.259   3.683
  281SOL    HW2  852   1.475   0.153   3.579
  282SOL     OW  853   0.614   0.122   1.979
  282SOL    HW1  854   0.712   0.100   1.986
  282SOL    HW2  855   0.583   0.105   1.886
  283SOL     OW  856   0.781   0.264   3.611
  283SOL    HW1  857   0.848   0.203   3.654
  283SOL    HW2  858   0.708   0.283   3.676
  284SOL     OW  859   0.888   1.514   3.057
  284SOL    HW1  860   0.865   1.489   2.963
  284SOL    HW2  861   0.949   1.445   3.096
  285SOL     OW  862   1.351   0.590   3.295
  285SOL    HW1  863   1.379   0.547   3.380
  285SOL    HW2  864   1.376   0.686   3.296
  286SOL     OW  865   0.803   1.402   2.786
  286SOL    HW1  866   0.893   1.416   2.744
  286SOL    HW2  867   0.732   1.404   2.715
  287SOL     OW  868   0.922   0.503   2.761
  287SOL    HW1  869   0.897   0.494   2.665
  287SOL    HW2  870   0.970   0.421   2.792
  288SOL     OW  871   0.539   0.064   2.374
  288SOL    HW1  872   0.458   0.065   2.432
  288SOL    HW2  873   0.542   0.147   2.319
  289SOL     OW  874   1.434   1.188   1.903
  289SOL    HW1  875   1.466   1.112   1.960
  289SOL    HW2  876   1.342   1.215   1.933
  290SOL     OW  877   0.297   0.035   2.033
  290SOL    HW1  878   0.346   0.119   2.012
  290SOL    HW2  879   0.359  -0.030   2.078
  291SOL     OW  880   0.935   0.236   2.342
  291SOL    HW1  881   0.887   0.277   2.264
  291SOL    HW2  882   1.034   0.234   2.323
  292SOL     OW  883   1.076   0.683   3.326
  292SOL    HW1  884   0.996   0.622   3.329
  292SOL    HW2  885   1.157   0.630   3.302
  293SOL     OW  886   1.227   1.570   2.655
  293SOL    HW1  887   1.248   1.644   2.590
  293SOL    HW2  888   1.295   1.570   2.728
  294SOL     OW  889   0.459   1.152   2.603
  294SOL    HW1  890   0.388   1.125   2.668
  294SOL    HW2  891   0.433   1.124   2.510
  295SOL     OW  892   1.271   1.797   2.453
  295SOL    HW1  893   1.315   1.861   2.389
  295SOL    HW2  894   1.221   1.849   2.523
  296SOL     OW  895   1.032   0.549   1.878
  296SOL    HW1  896   0.991   0.631   1.839
  296SOL    HW2  897   1.096   0.575   1.951
  297SOL     OW  898   0.078   0.556   3.248
  297SOL    HW1  899   0.170   0.555   3.207
  297SOL    HW2  900   0.072   0.630   3.315
  298SOL     OW  901   0.561   0.222   3.009
  298SOL    HW1  902   0.599   0.138   3.046
  298SOL    HW2  903   0.473   0.241   3.053
  299SOL     OW  904   0.866   0.454   2.504
  299SOL    HW1  905   0.834   0.526   2.442
  299SOL    HW2  906   0.890   0.373   2.451
  300SOL     OW  907   1.017   0.039   2.615
  300SOL    HW1  908   0.945   0.044   2.546
  300SOL    HW2  909   0.993  -0.030   2.684
  301SOL     OW  910   1.429   1.173   2.729
  301SOL    HW1  911   1.374   1.089   2.722
  301SOL    HW2  912   1.455   1.202   2.637
  302SOL     OW  913   1.466   0.590   2.854
  302SOL    HW1  914   1.436   0.495   2.861
  302SOL    HW2  915   1.539   0.606   2.920
  303SOL     OW  916   1.857   0.833   2.239
  303SOL    HW1  917   1.899   0.769   2.303
  303SOL    HW2  918   1.819   0.782   2.161
  304SOL     OW  919   0.488   1.385   2.036
  304SOL    HW1  920   0.401   1.370   2.083
  304SOL    HW2  921   0.471   1.411   1.941
  305SOL     OW  922   1.664   1.280   2.519
  305SOL    HW1  923   1.763   1.288   2.533
  305SOL    HW2  924   1.619   1.364   2.550
  306SOL     OW  925   1.390   0.575   1.940
  306SOL    HW1  926   1.336   0.554   2.021
  306SOL    HW2  927   1.481   0.534   1.949
  307SOL     OW  928   0.527   0.256   2.190
  307SOL    HW1  929   0.554   0.197   2.115
  307SOL    HW2  930   0.527   0.351   2.159
  308SOL     OW  931   1.754   1.223   3.450
  308SOL    HW1  932   1.845   1.184   3.437
  308SOL    HW2  933   1.762   1.319   3.474
  309SOL     OW  934   1.064   1.347   3.202
  309SOL    HW1  935   0.984   1.324   3.257
  309SOL    HW2  936   1.147   1.321   3.251
  310SOL     OW  937   1.592   1.629   3.487
  310SOL    HW1  938   1.619   1.663   3.397
  310SOL    HW2  939   1.671   1.591   3.533
  311SOL     OW  940   1.111   1.195   2.962
  311SOL    HW1  941   1.071   1.239   3.043
  311SOL    HW2  942   1.070   1.232   2.879
  312SOL     OW  943   1.638   1.099   2.941
  312SOL    HW1  944   1.643   1.180   3.000
  312SOL    HW2  945   1.552   1.101   2.890
  313SOL     OW  946   0.915   0.089   3.264
  313SOL    HW1  947   0.940   0.069   3.169
  313SOL    HW2  948   0.987   0.145   3.306
  314SOL     OW  949   0.980   1.116   3.581
  314SOL    HW1  950   0.881   1.122   3.591
  314SOL    HW2  951   1.003   1.036   3.525
  315SOL     OW  952   0.705   1.050   2.230
  315SOL    HW1  953   0.691   1.057   2.329
  315SOL    HW2  954   0.789   0.999   2.212
  316SOL     OW  955   0.410   0.813   3.113
  316SOL    HW1  956   0.496   0.825   3.163
  316SOL    HW2  957   0.368   0.726   3.140
  317SOL     OW  958   1.274   0.386   3.124
  317SOL    HW1  959   1.295   0.460   3.188
  317SOL    HW2  960   1.185   0.403   3.081
  318SOL     OW  961   0.064   1.564   3.193
  318SOL    HW1  962   0.018   1.646   3.159
  318SOL    HW2  963   0.162   1.583   3.202
  319SOL     OW  964   0.367   1.100   2.363
  319SOL    HW1  965   0.360   1.183   2.307
  319SOL    HW2  966   0.371   1.020   2.303
  320SOL     OW  967   0.566   0.537   2.727
  320SOL    HW1  968   0.578   0.603   2.653
  320SOL    HW2  969   0.612   0.571   2.810
  321SOL     OW  970   1.252   1.348   2.250
  321SOL    HW1  971   1.302   1.425   2.290
  321SOL    HW2  972   1.157   1.350   2.282
  322SOL     OW  973   1.272   1.445   3.004
  322SOL    HW1  974   1.319   1.458   3.091
  322SOL    HW2  975   1.206   1.371   3.013
  323SOL     OW  976   1.582   0.639   2.334
  323SOL    HW1  977   1.551   0.700   2.407
  323SOL    HW2  978   1.632   0.691   2.265
  324SOL     OW  979   0.354   1.510   3.191
  324SOL    HW1  980   0.333   1.466   3.104
  324SOL    HW2  981   0.451   1.536   3.194
  325SOL     OW  982   0.402   0.751   3.460
  325SOL    HW1  983   0.470   0.806   3.413
  325SOL    HW2  984   0.442   0.663   3.487
  326SOL     OW  985   1.587   0.779   3.532
  326SOL    HW1  986   1.495   0.817   3.527
  326SOL    HW2  987   1.647   0.826   3.467
  327SOL     OW  988   1.013   0.105   3.632
  327SOL    HW1  989   1.019   0.190   3.580
  327SOL    HW2  990   1.045   0.029   3.575
  328SOL     OW  991   0.504   0.050   3.602
  328SOL    HW1  992   0.462  -0.007   3.532
  328SOL    HW2  993   0.438   0.119   3.634
  329SOL     OW  994   0.573   0.870   2.891
  329SOL    HW1  995   0.617   0.959   2.882
  329SOL    HW2  996   0.510   0.870   2.968
  330SOL     OW  997   1.360   0.862   2.907
  330SOL    HW1  998   1.285   0.862   2.841
  330SOL    HW2  999   1.397   0.770   2.916
  331SOL     OW 1000   1.209   0.525   2.137
  331SOL    HW1 1001   1.222   0.441   2.191
  331SOL    HW2 1002   1.180   0.599   2.197
  332SOL     OW 1003   0.307   0.213   3.093
  332SOL    HW1 1004   0.284   0.250   3.183
  332SOL    HW2 1005   0.277   0.118   3.087
  333SOL     OW 1006   0.037   1.310   3.144
  333SOL    HW1 1007   0.090   1.261   3.212
  333SOL    HW2 1008   0.059   1.408   3.149
  334SOL     OW 1009   0.732   0.634   2.926
  334SOL    HW1 1010   0.791   0.608   2.850
  334SOL    HW2 1011   0.704   0.730   2.915
  335SOL     OW 1012   1.728   0.935   3.716
  335SOL    HW1 1013   1.682   0.928   3.627
  335SOL    HW2 1014   1.666   0.979   3.782
  336SOL     OW 1015   0.307   0.063   2.480
  336SOL    HW1 1016   0.296   0.157   2.513
  336SOL    HW2 1017   0.302   0.000   2.557
  337SOL     OW 1018   1.622   0.367   2.236
  337SOL    HW1 1019   1.624   0.291   2.300
  337SOL    HW2 1020   1.574   0.444   2.276
  338SOL     OW 1021   1.023   0.766   2.828
  338SOL    HW1 1022   1.038   0.787   2.924
  338SOL    HW2 1023   0.993   0.671   2.819
  339SOL     OW 1024   0.980   1.573   3.562
  339SOL    HW1 1025   0.960   1.617   3.474
  339SOL    HW2 1026   1.019   1.482   3.546
  340SOL     OW 1027   1.859   1.518   3.467
  340SOL    HW1 1028   1.873   1.545   3.372
  340SOL    HW2 1029   1.942   1.540   3.520
  341SOL     OW 1030   0.350   0.898   3.666
  341SOL    HW1 1031   0.426   0.942   3.714
  341SOL    HW2 1032   0.385   0.851   3.584
  342SOL     OW 1033   1.540   0.274   1.987
  342SOL    HW1 1034   1.479   0.199   2.010
  342SOL    HW2 1035   1.562   0.326   2.070
  343SOL     OW 1036   1.303   0.838   1.904
  343SOL    HW1 1037   1.337   0.745   1.919
  343SOL    HW2 1038   1.321   0.865   1.809
  344SOL     OW 1039   1.068   1.333   2.711
  344SOL    HW1 1040   1.075   1.249   2.656
  344SOL    HW2 1041   1.130   1.402   2.675
  345SOL     OW 1042   0.319   0.810   2.811
  345SOL    HW1 1043   0.412   0.846   2.816
  345SOL    HW2 1044   0.313   0.725   2.863
  346SOL     OW 1045   0.339   0.509   2.868
  346SOL    HW1 1046   0.287   0.426   2.851
  346SOL    HW2 1047   0.416   0.514   2.804
  347SOL     OW 1048   1.138   0.380   3.540
  347SOL    HW1 1049   1.093   0.443   3.604
  347SOL    HW2 1050   1.231   0.411   3.523
  348SOL     OW 1051   1.160   0.207   3.339
  348SOL    HW1 1052   1.160   0.271   3.416
  348SOL    HW2 1053   1.188   0.255   3.256
  349SOL     OW 1054   0.008   1.326   2.062
  349SOL    HW1 1055  -0.085   1.347   2.031
  349SOL    HW2 1056   0.018   1.227   2.075
  350SOL     OW 1057   0.088   1.801   2.789
  350SOL    HW1 1058   0.046   1.715   2.762
  350SOL    HW2 1059   0.182   1.804   2.755
  351SOL     OW 1060   0.504   1.568   2.772
  351SOL    HW1 1061   0.570   1.642   2.781
  351SOL    HW2 1062   0.548   1.489   2.730
  352SOL     OW 1063   1.002   0.796   3.100
  352SOL    HW1 1064   1.043   0.764   3.186
  352SOL    HW2 1065   0.906   0.769   3.097
  353SOL     OW 1066   0.040   0.544   2.976
  353SOL    HW1 1067   0.125   0.511   2.935
  353SOL    HW2 1068   0.053   0.559   3.074
  354SOL     OW 1069   0.189   0.520   3.584
  354SOL    HW1 1070   0.248   0.480   3.514
  354SOL    HW2 1071   0.131   0.591   3.543
  355SOL     OW 1072   1.369   0.950   3.522
  355SOL    HW1 1073   1.408   1.039   3.542
  355SOL    HW2 1074   1.379   0.930   3.425
  356SOL     OW 1075   0.815   0.572   2.187
  356SOL    HW1 1076   0.822   0.483   2.141
  356SOL    HW2 1077   0.721   0.606   2.179
  357SOL     OW 1078   1.657   0.604   3.068
  357SOL    HW1 1079   1.619   0.535   3.130
  357SOL    HW2 1080   1.739   0.568   3.024
  358SOL     OW 1081   0.252   1.564   3.606
  358SOL    HW1 1082   0.222   1.621   3.682
  358SOL    HW2 1083   0.245   1.467   3.632
  359SOL     OW 1084   0.671   0.464   3.131
  359SOL    HW1 1085   0.637   0.375   3.101
  359SOL    HW2 1086   0.697   0.518   3.051
  360SOL     OW 1087   0.930   1.678   3.327
  360SOL    HW1 1088   0.906   1.660   3.232
  360SOL    HW2 1089   0.960   1.772   3.337
  361SOL     OW 1090   0.473   0.500   2.053
  361SOL    HW1 1091   0.534   0.580   2.057
  361SOL    HW2 1092   0.378   0.531   2.060
  362SOL     OW 1093   0.159   1.137   3.328
  362SOL    HW1 1094   0.181   1.076   3.404
  362SOL    HW2 1095   0.169   1.088   3.242
  363SOL     OW 1096   1.347   1.059   3.096
  363SOL    HW1 1097   1.371   0.996   3.022
  363SOL    HW2 1098   1.257   1.099   3.078
  364SOL     OW 1099   1.302   0.855   2.171
  364SOL    HW1 1100   1.216   0.824   2.213
  364SOL    HW2 1101   1.298   0.841   2.072
  365SOL     OW 1102   1.759   1.747   3.016
  365SOL    HW1 1103   1.820   1.777   2.943
  365SOL    HW2 1104   1.721   1.658   2.994
  366SOL     OW 1105   1.252   1.731   2.990
  366SOL    HW1 1106   1.336   1.736   2.936
  366SOL    HW2 1107   1.229   1.635   3.008
  367SOL     OW 1108   0.083   1.258   2.884
  367SOL    HW1 1109   0.078   1.257   2.984
  367SOL    HW2 1110   0.000   1.217   2.846
  368SOL     OW 1111   0.688   1.662   3.578
  368SOL    HW1 1112   0.632   1.743   3.587
  368SOL    HW2 1113   0.740   1.666   3.492
  369SOL     OW 1114   1.726   0.135   2.385
  369SOL    HW1 1115   1.799   0.118   2.318
  369SOL    HW2 1116   1.695   0.048   2.423
  370SOL     OW 1117   1.388   1.573   2.339
  370SOL    HW1 1118   1.455   1.585   2.265
  370SOL    HW2 1119   1.348   1.662   2.362
  371SOL     OW 1120   0.130   1.794   3.713
  371SOL    HW1 1121   0.089   1.720   3.766
  371SOL    HW2 1122   0.194   1.845   3.771
  372SOL     OW 1123   1.280   0.927   2.534
  372SOL    HW1 1124   1.340   0.846   2.536
  372SOL    HW2 1125   1.320   0.996   2.474
  373SOL     OW 1126   0.830   1.273   3.284
  373SOL    HW1 1127   0.825   1.306   3.379
  373SOL    HW2 1128   0.744   1.292   3.238
  374SOL     OW 1129   0.672   1.616   2.016
  374SOL    HW1 1130   0.681   1.626   1.917
  374SOL    HW2 1131   0.632   1.527   2.037
  375SOL     OW 1132   1.650   1.720   3.256
  375SOL    HW1 1133   1.703   1.730   3.172
  375SOL    HW2 1134   1.623   1.810   3.290
  376SOL     OW 1135   1.841   0.175   2.825
  376SOL    HW1 1136   1.880   0.090   2.789
  376SOL    HW2 1137   1.743   0.177   2.806
  377SOL     OW 1138   0.263   0.326   2.582
  377SOL    HW1 1139   0.184   0.377   2.548
  377SOL    HW2 1140   0.254   0.311   2.680
  378SOL     OW 1141   1.194   1.612   1.893
  378SOL    HW1 1142   1.200   1.519   1.930
  378SOL    HW2 1143   1.135   1.612   1.813
  379SOL     OW 1144   0.822   1.002   3.234
  379SOL    HW1 1145   0.862   1.001   3.142
  379SOL    HW2 1146   0.832   1.094   3.274
  380SOL     OW 1147   0.916   0.910   2.153
  380SOL    HW1 1148   0.979   0.948   2.085
  380SOL    HW2 1149   0.956   0.827   2.192
  381SOL     OW 1150   1.504   1.607   1.906
  381SOL    HW1 1151   1.412   1.644   1.913
  381SOL    HW2 1152   1.542   1.627   1.816
  382SOL     OW 1153   0.372   1.288   3.352
  382SOL    HW1 1154   0.359   1.381   3.318
  382SOL    HW2 1155   0.288   1.236   3.339
  383SOL     OW 1156   1.614   1.292   3.151
  383SOL    HW1 1157   1.674   1.295   3.231
  383SOL    HW2 1158   1.539   1.356   3.164
  384SOL     OW 1159   1.039   1.098   2.558
  384SOL    HW1 1160   0.969   1.051   2.612
  384SOL    HW2 1161   1.098   1.030   2.515
  385SOL     OW 1162   1.014   0.236   2.833
  385SOL    HW1 1163   1.006   0.200   2.740
  385SOL    HW2 1164   1.012   0.160   2.898
  386SOL     OW 1165   0.590   1.487   2.353
  386SOL    HW1 1166   0.632   1.429   2.283
  386SOL    HW2 1167   0.546   1.566   2.309
  387SOL     OW 1168   1.709   0.385   3.243
  387SOL    HW1 1169   1.782   0.454   3.247
  387SOL    HW2 1170   1.737   0.310   3.184
  388SOL     OW 1171   0.255   1.348   2.152
  388SOL    HW1 1172   0.159   1.349   2.125
  388SOL    HW2 1173   0.267   1.401   2.236
  389SOL     OW 1174   0.105   1.013   3.588
  389SOL    HW1 1175   0.028   0.980   3.642
  389SOL    HW2 1176   0.190   0.983   3.630
  390SOL     OW 1177   0.672   0.203   3.351
  390SOL    HW1 1178   0.762   0.187   3.311
  390SOL    HW2 1179   0.680   0.208   3.450
  391SOL     OW 1180   0.075   0.345   1.895
  391SOL    HW1 1181  -0.017   0.317   1.866
  391SOL    HW2 1182   0.106   0.422   1.839
  392SOL     OW 1183   1.440   0.856   3.260
  392SOL    HW1 1184   1.383   0.908   3.197
  392SOL    HW2 1185   1.536   0.868   3.236
  393SOL     OW 1186   0.072   0.166   2.180
  393SOL    HW1 1187   0.055   0.249   2.126
  393SOL    HW2 1188   0.162   0.129   2.158
  394SOL     OW 1189   1.183   1.335   1.981
  394SOL    HW1 1190   1.084   1.324   1.983
  394SOL    HW2 1191   1.217   1.350   2.074
  395SOL     OW 1192   0.613   0.842   3.293
  395SOL    HW1 1193   0.669   0.923   3.276
  395SOL    HW2 1194   0.672   0.762   3.296
  396SOL     OW 1195   1.493   1.767   2.821
  396SOL    HW1 1196   1.526   1.831   2.752
  396SOL    HW2 1197   1.559   1.761   2.896
  397SOL     OW 1198   0.716   0.565   3.570
  397SOL    HW1 1199   0.735   0.630   3.644
  397SOL    HW2 1200   0.776   0.485   3.579
  398SOL     OW 1201   1.450   1.220   3.495
  398SOL    HW1 1202   1.441   1.210   3.594
  398SOL    HW2 1203   1.546   1.213   3.469
  399SOL     OW 1204   0.390   1.741   3.422
  399SOL    HW1 1205   0.299   1.782   3.420
  399SOL    HW2 1206   0.383   1.647   3.454
  400SOL     OW 1207   1.674   0.883   3.116
  400SOL    HW1 1208   1.647   0.794   3.079
  400SOL    HW2 1209   1.675   0.951   3.043
  401SOL     OW 1210   1.225   0.325   2.311
  401SOL    HW1 1211   1.290   0.251   2.300
  401SOL    HW2 1212   1.245   0.375   2.395
  402SOL     OW 1213   0.594   0.745   2.514
  402SOL    HW1 1214   0.644   0.830   2.495
  402SOL    HW2 1215   0.506   0.747   2.466
  403SOL     OW 1216   1.777   0.342   3.504
  403SOL    HW1 1217   1.760   0.373   3.410
  403SOL    HW2 1218   1.693   0.305   3.542
  404SOL     OW 1219   1.730   0.934   3.379
  404SOL    HW1 1220   1.768   1.025   3.394
  404SOL    HW2 1221   1.722   0.917   3.280
  405SOL     OW 1222   0.859   1.374   1.878
  405SOL    HW1 1223   0.813   1.389   1.966
  405SOL    HW2 1224   0.903   1.459   1.848
  406SOL     OW 1225   0.661   1.790   2.815
  406SOL    HW1 1226   0.615   1.878   2.802
  406SOL    HW2 1227   0.760   1.802   2.808
  407SOL     OW 1228   0.859   0.956   2.723
  407SOL    HW1 1229   0.913   0.887   2.771
  407SOL    HW2 1230   0.827   1.025   2.789
  408SOL     OW 1231   1.083   0.984   1.949
  408SOL    HW1 1232   1.060   1.037   1.867
  408SOL    HW2 1233   1.164   0.928   1.930
  409SOL     OW 1234   1.861   1.569   2.713
  409SOL    HW1 1235   1.790   1.557   2.643
  409SOL    HW2 1236   1.862   1.490   2.773
  410SOL     OW 1237   0.221   1.314   3.706
  410SOL    HW1 1238   0.156   1.241   3.685
  410SOL    HW2 1239   0.225   1.328   3.804
  411SOL     OW 1240   0.079   1.240   2.515
  411SOL    HW1 1241   0.078   1.193   2.603
  411SOL    HW2 1242   0.161   1.212   2.464
  412SOL     OW 1243   0.672   1.391   3.486
  412SOL    HW1 1244   0.594   1.341   3.524
  412SOL    HW2 1245   0.669   1.486   3.517
  413SOL     OW 1246   1.824   0.192   3.089
  413SOL    HW1 1247   1.820   0.102   3.133
  413SOL    HW2 1248   1.827   0.181   2.990
  414SOL     OW 1249   0.428   0.424   2.382
  414SOL    HW1 1250   0.458   0.352   2.320
  414SOL    HW2 1251   0.389   0.384   2.465
  415SOL     OW 1252   1.705   1.487   2.966
  415SOL    HW1 1253   1.612   1.462   2.939
  415SOL    HW2 1254   1.731   1.437   3.048
  416SOL     OW 1255   0.317   0.547   3.142
  416SOL    HW1 1256   0.355   0.488   3.214
  416SOL    HW2 1257   0.357   0.521   3.054
  417SOL     OW 1258   0.812   1.586   2.549
  417SOL    HW1 1259   0.844   1.596   2.455
  417SOL    HW2 1260   0.733   1.524   2.551
  418SOL     OW 1261   1.424   0.214   2.974
  418SOL    HW1 1262   1.476   0.149   3.029
  418SOL    HW2 1263   1.375   0.277   3.035
  419SOL     OW 1264   1.001   0.034   3.016
  419SOL    HW1 1265   0.938  -0.038   2.985
  419SOL    HW2 1266   1.094  -0.002   3.016
  420SOL     OW 1267   0.770   1.330   2.163
  420SOL    HW1 1268   0.724   1.243   2.180
  420SOL    HW2 1269   0.861   1.327   2.204
  421SOL     OW 1270   0.618   1.567   3.146
  421SOL    HW1 1271   0.613   1.649   3.203
  421SOL    HW2 1272   0.707   1.564   3.101
  422SOL     OW 1273   1.352   0.052   2.030
  422SOL    HW1 1274   1.387   0.011   1.946
  422SOL    HW2 1275   1.262   0.014   2.050
  423SOL     OW 1276   1.300   0.453   2.553
  423SOL    HW1 1277   1.241   0.533   2.557
  423SOL    HW2 1278   1.315   0.418   2.646
  424SOL     OW 1279   1.593   0.221   2.744
  424SOL    HW1 1280   1.509   0.220   2.798
  424SOL    HW2 1281   1.595   0.304   2.688
  425SOL     OW 1282   0.039   1.077   2.162
  425SOL    HW1 1283   0.138   1.066   2.153
  425SOL    HW2 1284  -0.001   0.991   2.194
  426SOL     OW 1285   0.875   1.646   2.199
  426SOL    HW1 1286   0.798   1.611   2.145
  426SOL    HW2 1287   0.843   1.717   2.261
  427SOL     OW 1288   0.230   0.628   3.837
  427SOL    HW1 1289   0.137   0.626   3.874
  427SOL    HW2 1290   0.231   0.589   3.745
  428SOL     OW 1291   0.225   0.275   4.720
  428SOL    HW1 1292   0.260   0.258   4.812
  428SOL    HW2 1293   0.137   0.230   4.708
  429SOL     OW 1294   0.019   0.368   4.371
  429SOL    HW1 1295  -0.063   0.411   4.410
  429SOL    HW2 1296  -0.009   0.295   4.308
  430SOL     OW 1297   1.755   0.607   3.955
  430SOL    HW1 1298   1.743   0.594   3.856
  430SOL    HW2 1299   1.725   0.526   4.004
  431SOL     OW 1300   0.685   1.012   4.389
  431SOL    HW1 1301   0.754   0.996   4.459
  431SOL    HW2 1302   0.612   1.069   4.427
  432SOL     OW 1303   1.603   0.447   4.461
  432SOL    HW1 1304   1.529   0.493   4.411
  432SOL    HW2 1305   1.654   0.515   4.514
  433SOL     OW 1306   0.231   1.713   4.207
  433SOL    HW1 1307   0.265   1.790   4.261
  433SOL    HW2 1308   0.275   1.713   4.117
  434SOL     OW 1309   0.230   1.434   4.262
  434SOL    HW1 1310   0.204   1.530   4.262
  434SOL    HW2 1311   0.159   1.380   4.307
  435SOL     OW 1312   0.240   1.091   4.610
  435SOL    HW1 1313   0.254   1.007   4.662
  435SOL    HW2 1314   0.185   1.155   4.665
  436SOL     OW 1315   0.606   0.964   3.847
  436SOL    HW1 1316   0.613   1.048   3.793
  436SOL    HW2 1317   0.652   0.977   3.935
  437SOL     OW 1318   0.122   0.643   4.287
  437SOL    HW1 1319   0.077   0.555   4.304
  437SOL    HW2 1320   0.121   0.697   4.371
  438SOL     OW 1321   1.842   1.767   4.083
  438SOL    HW1 1322   1.896   1.738   4.163
  438SOL    HW2 1323   1.872   1.857   4.054
  439SOL     OW 1324   0.027   1.596   3.841
  439SOL    HW1 1325   0.008   1.500   3.862
  439SOL    HW2 1326  -0.006   1.654   3.916
  440SOL     OW 1327   1.689   0.922   4.336
  440SOL    HW1 1328   1.784   0.893   4.344
  440SOL    HW2 1329   1.681   0.987   4.261
  441SOL     OW 1330   1.641   1.108   4.156
  441SOL    HW1 1331   1.727   1.110   4.104
  441SOL    HW2 1332   1.655   1.155   4.244
  442SOL     OW 1333   0.613   1.365   4.450
  442SOL    HW1 1334   0.564   1.278   4.459
  442SOL    HW2 1335   0.590   1.408   4.363
  443SOL     OW 1336   0.809   0.004   4.226
  443SOL    HW1 1337   0.849   0.095   4.217
  443SOL    HW2 1338   0.709   0.012   4.232
  444SOL     OW 1339   1.525   0.999   3.914
  444SOL    HW1 1340   1.462   0.923   3.927
  444SOL    HW2 1341   1.573   1.017   4.000
  445SOL     OW 1342   1.667   1.714   4.296
  445SOL    HW1 1343   1.626   1.691   4.208
  445SOL    HW2 1344   1.649   1.640   4.361
  446SOL     OW 1345   0.598   0.729   3.994
  446SOL    HW1 1346   0.622   0.798   3.926
  446SOL    HW2 1347   0.520   0.762   4.048
  447SOL     OW 1348   1.281   0.345   4.668
  447SOL    HW1 1349   1.195   0.295   4.655
  447SOL    HW2 1350   1.343   0.291   4.724
  448SOL     OW 1351   1.576   1.662   4.031
  448SOL    HW1 1352   1.665   1.708   4.034
  448SOL    HW2 1353   1.555   1.638   3.936
  449SOL     OW 1354   1.041   0.701   4.153
  449SOL    HW1 1355   1.067   0.697   4.249
  449SOL    HW2 1356   0.956   0.650   4.139
  450SOL     OW 1357   0.076   0.811   4.513
  450SOL    HW1 1358   0.175   0.799   4.522
  450SOL    HW2 1359   0.052   0.906   4.534
  451SOL     OW 1360   0.865   0.348   3.919
  451SOL    HW1 1361   0.924   0.411   3.870
  451SOL    HW2 1362   0.884   0.254   3.890
  452SOL     OW 1363   1.362   1.144   4.269
  452SOL    HW1 1364   1.445   1.115   4.221
  452SOL    HW2 1365   1.313   1.211   4.213
  453SOL     OW 1366   1.008   1.456   4.201
  453SOL    HW1 1367   0.962   1.528   4.149
  453SOL    HW2 1368   1.004   1.476   4.299
  454SOL     OW 1369   0.351   1.801   4.577
  454SOL    HW1 1370   0.401   1.715   4.583
  454SOL    HW2 1371   0.416   1.878   4.574
  455SOL     OW 1372   1.795   1.066   4.597
  455SOL    HW1 1373   1.733   1.051   4.521
  455SOL    HW2 1374   1.743   1.077   4.682
  456SOL     OW 1375   0.321   0.943   3.966
  456SOL    HW1 1376   0.403   0.982   3.924
  456SOL    HW2 1377   0.294   0.861   3.917
  457SOL     OW 1378   1.458   0.735   4.452
  457SOL    HW1 1379   1.453   0.670   4.527
  457SOL    HW2 1380   1.538   0.794   4.465
  458SOL     OW 1381   1.111   1.776   3.961
  458SOL    HW1 1382   1.051   1.714   4.011
  458SOL    HW2 1383   1.142   1.732   3.876
  459SOL     OW 1384   1.632   1.377   3.805
  459SOL    HW1 1385   1.600   1.471   3.795
  459SOL    HW2 1386   1.556   1.314   3.793
  460SOL     OW 1387   0.464   1.743   4.047
  460SOL    HW1 1388   0.497   1.782   4.133
  460SOL    HW2 1389   0.540   1.736   3.982
  461SOL     OW 1390   1.400   0.107   4.150
  461SOL    HW1 1391   1.376   0.070   4.060
  461SOL    HW2 1392   1.499   0.123   4.154
  462SOL     OW 1393   0.940   1.698   4.628
  462SOL    HW1 1394   1.020   1.641   4.649
  462SOL    HW2 1395   0.891   1.658   4.551
  463SOL     OW 1396   0.382   0.700   4.204
  463SOL    HW1 1397   0.427   0.610   4.201
  463SOL    HW2 1398   0.288   0.689   4.237
  464SOL     OW 1399   0.614   0.122   3.841
  464SOL    HW1 1400   0.712   0.100   3.848
  464SOL    HW2 1401   0.583   0.105   3.748
  465SOL     OW 1402   0.539   0.064   4.236
  465SOL    HW1 1403   0.458   0.065   4.294
  465SOL    HW2 1404   0.542   0.147   4.181
  466SOL     OW 1405   1.434   1.188   3.765
  466SOL    HW1 1406   1.466   1.112   3.822
  466SOL    HW2 1407   1.342   1.215   3.795
  467SOL     OW 1408   0.297   0.035   3.895
  467SOL    HW1 1409   0.346   0.119   3.874
  467SOL    HW2 1410   0.359  -0.030   3.940
  468SOL     OW 1411   0.935   0.236   4.204
  468SOL    HW1 1412   0.887   0.277   4.126
  468SOL    HW2 1413   1.034   0.234   4.185
  469SOL     OW 1414   0.459   1.152   4.465
  469SOL    HW1 1415   0.388   1.125   4.530
  469SOL    HW2 1416   0.433   1.124   4.372
  470SOL     OW 1417   1.271   1.797   4.315
  470SOL    HW1 1418   1.315   1.861   4.251
  470SOL    HW2 1419   1.221   1.849   4.385
  471SOL     OW 1420   1.032   0.549   3.740
  471SOL    HW1 1421   0.991   0.631   3.701
  471SOL    HW2 1422   1.096   0.575   3.813
  472SOL     OW 1423   0.866   0.454   4.366
  472SOL    HW1 1424   0.834   0.526   4.304
  472SOL    HW2 1425   0.890   0.373   4.313
  473SOL     OW 1426   1.857   0.833   4.101
  473SOL    HW1 1427   1.899   0.769   4.165
  473SOL    HW2 1428   1.819   0.782   4.023
  474SOL     OW 1429   0.488   1.385   3.898
  474SOL    HW1 1430   0.401   1.370   3.945
  474SOL    HW2 1431   0.471   1.411   3.803
  475SOL     OW 1432   1.664   1.280   4.381
  475SOL    HW1 1433   1.763   1.288   4.395
  475SOL    HW2 1434   1.619   1.364   4.412
  476SOL     OW 1435   1.390   0.575   3.802
  476SOL    HW1 1436   1.336   0.554   3.883
  476SOL    HW2 1437   1.481   0.534   3.811
  477SOL     OW 1438   0.527   0.256   4.052
  477SOL    HW1 1439   0.554   0.197   3.977
  477SOL    HW2 1440   0.527   0.351   4.021
  478SOL     OW 1441   0.705   1.050   4.092
  478SOL    HW1 1442   0.691   1.057   4.191
  478SOL    HW2 1443   0.789   0.999   4.074
  479SOL     OW 1444   0.367   1.100   4.225
  479SOL    HW1 1445   0.360   1.183   4.169
  479SOL    HW2 1446   0.371   1.020   4.165
  480SOL     OW 1447   1.252   1.348   4.112
  480SOL    HW1 1448   1.302   1.425   4.152
  480SOL    HW2 1449   1.157   1.350   4.144
  481SOL     OW 1450   1.582   0.639   4.196
  481SOL    HW1 1451   1.551   0.700   4.269
  481SOL    HW2 1452   1.632   0.691   4.127
  482SOL     OW 1453   1.209   0.525   3.999
  482SOL    HW1 1454   1.222   0.441   4.053
  482SOL    HW2 1455   1.180   0.599   4.059
  483SOL     OW 1456   0.307   0.063   4.342
  483SOL    HW1 1457   0.296   0.157   4.375
  483SOL    HW2 1458   0.302   0.000   4.419
  484SOL     OW 1459   1.622   0.367   4.098
  484SOL    HW1 1460   1.624   0.291   4.162
  484SOL    HW2 1461   1.574   0.444   4.138
  485SOL     OW 1462   1.023   0.766   4.690
  485SOL    HW1 1463   1.038   0.787   4.786
  485SOL    HW2 1464   0.993   0.671   4.681
  486SOL     OW 1465   1.540   0.274   3.849
  486SOL    HW1 1466   1.479   0.199   3.872
  486SOL    HW2 1467   1.562   0.326   3.932
  487SOL     OW 1468   1.303   0.838   3.766
  487SOL    HW1 1469   1.337   0.745   3.781
  487SOL    HW2 1470   1.321   0.865   3.671
  488SOL     OW 1471   0.008   1.326   3.924
  488SOL    HW1 1472  -0.085   1.347   3.893
  488SOL    HW2 1473   0.018   1.227   3.937
  489SOL     OW 1474   0.040   0.544   4.838
  489SOL    HW1 1475   0.125   0.511   4.797
  489SOL    HW2 1476   0.053   0.559   4.936
  490SOL     OW 1477   0.815   0.572   4.049
  490SOL    HW1 1478   0.822   0.483   4.003
  490SOL    HW2 1479   0.721   0.606   4.041
  491SOL     OW 1480   0.473   0.500   3.915
  491SOL    HW1 1481   0.534   0.580   3.919
  491SOL    HW2 1482   0.378   0.531   3.922
  492SOL     OW 1483   1.302   0.855   4.033
  492SOL    HW1 1484   1.216   0.824   4.075
  492SOL    HW2 1485   1.298   0.841   3.934
  493SOL     OW 1486   1.726   0.135   4.247
  493SOL    HW1 1487   1.799   0.118   4.180
  493SOL    HW2 1488   1.695   0.048   4.285
  494SOL     OW 1489   1.388   1.573   4.201
  494SOL    HW1 1490   1.455   1.585   4.127
  494SOL    HW2 1491   1.348   1.662   4.224
  495SOL     OW 1492   0.672   1.616   3.878
  495SOL    HW1 1493   0.681   1.626   3.779
  495SOL    HW2 1494   0.632   1.527   3.899
  496SOL     OW 1495   1.841   0.175   4.687
  496SOL    HW1 1496   1.880   0.090   4.651
  496SOL    HW2 1497   1.743   0.177   4.668
  497SOL     OW 1498   0.263   0.326   4.444
  497SOL    HW1 1499   0.184   0.377   4.410
  497SOL    HW2 1500   0.254   0.311   4.542
  498SOL     OW 1501   1.194   1.612   3.755
  498SOL    HW1 1502   1.200   1.519   3.792
  498SOL    HW2 1503   1.135   1.612   3.675
  499SOL     OW 1504   0.916   0.910   4.015
  499SOL    HW1 1505   0.979   0.948   3.947
  499SOL    HW2 1506   0.956   0.827   4.054
  500SOL     OW 1507   1.504   1.607   3.768
  500SOL    HW1 1508   1.412   1.644   3.775
  500SOL    HW2 1509   1.542   1.627   3.678
  501SOL     OW 1510   0.590   1.487   4.215
  501SOL    HW1 1511   0.632   1.429   4.145
  501SOL    HW2 1512   0.546   1.566   4.171
  502SOL     OW 1513   0.255   1.348   4.014
  502SOL    HW1 1514   0.159   1.349   3.987
  502SOL    HW2 1515   0.267   1.401   4.098
  503SOL     OW 1516   0.075   0.345   3.757
  503SOL    HW1 1517  -0.017   0.317   3.728
  503SOL    HW2 1518   0.106   0.422   3.701
  504SOL     OW 1519   0.072   0.166   4.042
  504SOL    HW1 1520   0.055   0.249   3.988
  504SOL    HW2 1521   0.162   0.129   4.020
  505SOL     OW 1522   1.183   1.335   3.843
  505SOL    HW1 1523   1.084   1.324   3.845
  505SOL    HW2 1524   1.217   1.350   3.936
  506SOL     OW 1525   1.225   0.325   4.173
  506SOL    HW1 1526   1.290   0.251   4.162
  506SOL    HW2 1527   1.245   0.375   4.257
  507SOL     OW 1528   0.594   0.745   4.376
  507SOL    HW1 1529   0.644   0.830   4.357
  507SOL    HW2 1530   0.506   0.747   4.328
  508SOL     OW 1531   0.859   1.374   3.740
  508SOL    HW1 1532   0.813   1.389   3.828
  508SOL    HW2 1533   0.903   1.459   3.710
  509SOL     OW 1534   0.661   1.790   4.677
  509SOL    HW1 1535   0.615   1.878   4.664
  509SOL    HW2 1536   0.760   1.802   4.670
  510SOL     OW 1537   0.859   0.956   4.585
  510SOL    HW1 1538   0.913   0.887   4.633
  510SOL    HW2 1539   0.827   1.025   4.651
  511SOL     OW 1540   1.083   0.984   3.811
  511SOL    HW1 1541   1.060   1.037   3.729
  511SOL    HW2 1542   1.164   0.928   3.792
  512SOL     OW 1543   0.079   1.240   4.377
  512SOL    HW1 1544   0.078   1.193   4.465
  512SOL    HW2 1545   0.161   1.212   4.326
  513SOL     OW 1546   0.428   0.424   4.244
  513SOL    HW1 1547   0.458   0.352   4.182
  513SOL    HW2 1548   0.389   0.384   4.327
  514SOL     OW 1549   1.705   1.487   4.828
  514SOL    HW1 1550   1.612   1.462   4.801
  514SOL    HW2 1551   1.731   1.437   4.910
  515SOL     OW 1552   0.812   1.586   4.411
  515SOL    HW1 1553   0.844   1.596   4.317
  515SOL    HW2 1554   0.733   1.524   4.413
  516SOL     OW 1555   0.770   1.330   4.025
  516SOL    HW1 1556   0.724   1.243   4.042
  516SOL    HW2 1557   0.861   1.327   4.066
  517SOL     OW 1558   1.352   0.052   3.892
  517SOL    HW1 1559   1.387   0.011   3.808
  517SOL    HW2 1560   1.262   0.014   3.912
  518SOL     OW 1561   1.300   0.453   4.415
  518SOL    HW1 1562   1.241   0.533   4.419
  518SOL    HW2 1563   1.315   0.418   4.508
  519SOL     OW 1564   0.039   1.077   4.024
  519SOL    HW1 1565   0.138   1.066   4.015
  519SOL    HW2 1566  -0.001   0.991   4.056
  520SOL     OW 1567   0.875   1.646   4.061
  520SOL    HW1 1568   0.798   1.611   4.007
  520SOL    HW2 1569   0.843   1.717   4.123
  521SOL     OW 1570   0.230   2.490   0.113
  521SOL    HW1 1571   0.137   2.488   0.150
  521SOL    HW2 1572   0.231   2.451   0.021
  522SOL     OW 1573   0.225   2.137   0.996
  522SOL    HW1 1574   0.260   2.120   1.088
  522SOL    HW2 1575   0.137   2.092   0.984
  523SOL     OW 1576   0.019   2.230   0.647
  523SOL    HW1 1577  -0.063   2.273   0.686
  523SOL    HW2 1578  -0.009   2.157   0.584
  524SOL     OW 1579   0.569   3.137   1.165
  524SOL    HW1 1580   0.476   3.130   1.128
  524SOL    HW2 1581   0.580   3.226   1.209
  525SOL     OW 1582   1.555   3.373   0.703
  525SOL    HW1 1583   1.498   3.357   0.784
  525SOL    HW2 1584   1.496   3.383   0.623
  526SOL     OW 1585   1.135   2.565   0.717
  526SOL    HW1 1586   1.192   2.643   0.692
  526SOL    HW2 1587   1.075   2.591   0.793
  527SOL     OW 1588   1.755   2.469   0.231
  527SOL    HW1 1589   1.743   2.456   0.132
  527SOL    HW2 1590   1.725   2.388   0.280
  528SOL     OW 1591   0.768   3.006   1.023
  528SOL    HW1 1592   0.690   3.023   1.083
  528SOL    HW2 1593   0.802   3.093   0.987
  529SOL     OW 1594   0.850   2.660   1.823
  529SOL    HW1 1595   0.846   2.736   1.888
  529SOL    HW2 1596   0.872   2.696   1.732
  530SOL     OW 1597   0.685   2.874   0.665
  530SOL    HW1 1598   0.754   2.858   0.735
  530SOL    HW2 1599   0.612   2.931   0.703
  531SOL     OW 1600   0.686   3.023   1.803
  531SOL    HW1 1601   0.746   3.102   1.817
  531SOL    HW2 1602   0.600   3.054   1.762
  532SOL     OW 1603   0.335   3.297   1.061
  532SOL    HW1 1604   0.257   3.266   1.008
  532SOL    HW2 1605   0.393   3.355   1.004
  533SOL     OW 1606   1.460   3.367   1.339
  533SOL    HW1 1607   1.484   3.461   1.365
  533SOL    HW2 1608   1.444   3.313   1.421
  534SOL     OW 1609   0.438   2.254   1.499
  534SOL    HW1 1610   0.520   2.198   1.508
  534SOL    HW2 1611   0.357   2.196   1.503
  535SOL     OW 1612   1.603   2.309   0.737
  535SOL    HW1 1613   1.529   2.355   0.687
  535SOL    HW2 1614   1.654   2.377   0.790
  536SOL     OW 1615   0.231   3.575   0.483
  536SOL    HW1 1616   0.265   3.652   0.537
  536SOL    HW2 1617   0.275   3.575   0.393
  537SOL     OW 1618   1.127   3.203   1.690
  537SOL    HW1 1619   1.174   3.203   1.778
  537SOL    HW2 1620   1.079   3.116   1.679
  538SOL     OW 1621   0.230   3.296   0.538
  538SOL    HW1 1622   0.204   3.392   0.538
  538SOL    HW2 1623   0.159   3.242   0.583
  539SOL     OW 1624   0.240   2.953   0.886
  539SOL    HW1 1625   0.254   2.869   0.938
  539SOL    HW2 1626   0.185   3.017   0.941
  540SOL     OW 1627   0.620   3.648   1.439
  540SOL    HW1 1628   0.528   3.631   1.474
  540SOL    HW2 1629   0.648   3.740   1.465
  541SOL     OW 1630   0.606   2.826   0.123
  541SOL    HW1 1631   0.613   2.910   0.069
  541SOL    HW2 1632   0.652   2.839   0.211
  542SOL     OW 1633   1.594   1.976   1.480
  542SOL    HW1 1634   1.576   2.043   1.408
  542SOL    HW2 1635   1.591   2.022   1.569
  543SOL     OW 1636   0.122   2.505   0.563
  543SOL    HW1 1637   0.077   2.417   0.580
  543SOL    HW2 1638   0.121   2.559   0.647
  544SOL     OW 1639   1.842   3.629   0.359
  544SOL    HW1 1640   1.896   3.600   0.439
  544SOL    HW2 1641   1.872   3.719   0.330
  545SOL     OW 1642   0.027   3.458   0.117
  545SOL    HW1 1643   0.008   3.362   0.138
  545SOL    HW2 1644  -0.006   3.516   0.192
  546SOL     OW 1645   1.689   2.784   0.612
  546SOL    HW1 1646   1.784   2.755   0.620
  546SOL    HW2 1647   1.681   2.849   0.537
  547SOL     OW 1648   1.641   2.970   0.432
  547SOL    HW1 1649   1.727   2.972   0.380
  547SOL    HW2 1650   1.655   3.017   0.520
  548SOL     OW 1651   0.113   2.599   1.597
  548SOL    HW1 1652   0.201   2.586   1.642
  548SOL    HW2 1653   0.100   2.696   1.575
  549SOL     OW 1654   0.613   3.227   0.726
  549SOL    HW1 1655   0.564   3.140   0.735
  549SOL    HW2 1656   0.590   3.270   0.639
  550SOL     OW 1657   1.293   3.090   1.423
  550SOL    HW1 1658   1.330   3.017   1.365
  550SOL    HW2 1659   1.345   3.095   1.508
  551SOL     OW 1660   0.809   1.866   0.502
  551SOL    HW1 1661   0.849   1.957   0.493
  551SOL    HW2 1662   0.709   1.874   0.508
  552SOL     OW 1663   0.197   2.838   1.264
  552SOL    HW1 1664   0.286   2.793   1.250
  552SOL    HW2 1665   0.124   2.773   1.245
  553SOL     OW 1666   1.525   2.861   0.190
  553SOL    HW1 1667   1.462   2.785   0.203
  553SOL    HW2 1668   1.573   2.879   0.276
  554SOL     OW 1669   1.187   3.654   1.616
  554SOL    HW1 1670   1.211   3.714   1.540
  554SOL    HW2 1671   1.194   3.559   1.586
  555SOL     OW 1672   0.317   2.113   1.801
  555SOL    HW1 1673   0.388   2.184   1.807
  555SOL    HW2 1674   0.229   2.152   1.829
  556SOL     OW 1675   1.466   3.279   0.953
  556SOL    HW1 1676   1.407   3.285   1.033
  556SOL    HW2 1677   1.451   3.191   0.907
  557SOL     OW 1678   1.667   3.576   0.572
  557SOL    HW1 1679   1.626   3.553   0.484
  557SOL    HW2 1680   1.649   3.502   0.637
  558SOL     OW 1681   0.598   2.591   0.270
  558SOL    HW1 1682   0.622   2.660   0.202
  558SOL    HW2 1683   0.520   2.624   0.324
  559SOL     OW 1684   1.281   2.207   0.944
  559SOL    HW1 1685   1.195   2.157   0.931
  559SOL    HW2 1686   1.343   2.153   1.000
  560SOL     OW 1687   1.576   3.524   0.307
  560SOL    HW1 1688   1.665   3.570   0.310
  560SOL    HW2 1689   1.555   3.500   0.212
  561SOL     OW 1690   0.807   2.467   1.465
  561SOL    HW1 1691   0.760   2.464   1.554
  561SOL    HW2 1692   0.756   2.412   1.399
  562SOL     OW 1693   1.394   2.331   1.674
  562SOL    HW1 1694   1.374   2.374   1.762
  562SOL    HW2 1695   1.472   2.269   1.683
  563SOL     OW 1696   0.973   2.752   1.572
  563SOL    HW1 1697   1.019   2.668   1.543
  563SOL    HW2 1698   0.917   2.786   1.497
  564SOL     OW 1699   0.991   2.272   1.242
  564SOL    HW1 1700   0.914   2.306   1.296
  564SOL    HW2 1701   0.957   2.221   1.163
  565SOL     OW 1702   1.041   2.563   0.429
  565SOL    HW1 1703   1.067   2.559   0.525
  565SOL    HW2 1704   0.956   2.512   0.415
  566SOL     OW 1705   0.076   2.673   0.789
  566SOL    HW1 1706   0.175   2.661   0.798
  566SOL    HW2 1707   0.052   2.768   0.810
  567SOL     OW 1708   0.130   3.683   1.571
  567SOL    HW1 1709   0.120   3.668   1.670
  567SOL    HW2 1710   0.044   3.719   1.535
  568SOL     OW 1711   0.865   2.210   0.195
  568SOL    HW1 1712   0.924   2.273   0.146
  568SOL    HW2 1713   0.884   2.116   0.166
  569SOL     OW 1714   1.719   2.447   1.831
  569SOL    HW1 1715   1.693   2.536   1.795
  569SOL    HW2 1716   1.717   2.379   1.758
  570SOL     OW 1717   1.362   3.006   0.545
  570SOL    HW1 1718   1.445   2.977   0.497
  570SOL    HW2 1719   1.313   3.073   0.489
  571SOL     OW 1720   0.550   2.058   0.885
  571SOL    HW1 1721   0.545   2.053   0.985
  571SOL    HW2 1722   0.552   2.154   0.856
  572SOL     OW 1723   1.008   3.318   0.477
  572SOL    HW1 1724   0.962   3.390   0.425
  572SOL    HW2 1725   1.004   3.338   0.575
  573SOL     OW 1726   0.351   3.663   0.853
  573SOL    HW1 1727   0.401   3.577   0.859
  573SOL    HW2 1728   0.416   3.740   0.850
  574SOL     OW 1729   1.795   2.928   0.873
  574SOL    HW1 1730   1.733   2.913   0.797
  574SOL    HW2 1731   1.743   2.939   0.958
  575SOL     OW 1732   1.227   3.412   1.506
  575SOL    HW1 1733   1.233   3.335   1.570
  575SOL    HW2 1734   1.175   3.386   1.426
  576SOL     OW 1735   0.321   2.805   0.242
  576SOL    HW1 1736   0.403   2.844   0.200
  576SOL    HW2 1737   0.294   2.723   0.193
  577SOL     OW 1738   1.458   2.597   0.728
  577SOL    HW1 1739   1.453   2.532   0.803
  577SOL    HW2 1740   1.538   2.656   0.741
  578SOL     OW 1741   0.461   3.128   1.727
  578SOL    HW1 1742   0.411   3.129   1.641
  578SOL    HW2 1743   0.398   3.110   1.803
  579SOL     OW 1744   1.111   3.638   0.237
  579SOL    HW1 1745   1.051   3.576   0.287
  579SOL    HW2 1746   1.142   3.594   0.152
  580SOL     OW 1747   0.202   2.147   1.498
  580SOL    HW1 1748   0.122   2.207   1.485
  580SOL    HW2 1749   0.192   2.098   1.584
  581SOL     OW 1750   1.632   3.239   0.081
  581SOL    HW1 1751   1.600   3.333   0.071
  581SOL    HW2 1752   1.556   3.176   0.069
  582SOL     OW 1753   0.464   3.605   0.323
  582SOL    HW1 1754   0.497   3.644   0.409
  582SOL    HW2 1755   0.540   3.598   0.258
  583SOL     OW 1756   1.400   1.969   0.426
  583SOL    HW1 1757   1.376   1.932   0.336
  583SOL    HW2 1758   1.499   1.985   0.430
  584SOL     OW 1759   0.249   3.647   1.241
  584SOL    HW1 1760   0.306   3.582   1.291
  584SOL    HW2 1761   0.233   3.614   1.148
  585SOL     OW 1762   0.940   3.560   0.904
  585SOL    HW1 1763   1.020   3.503   0.925
  585SOL    HW2 1764   0.891   3.520   0.827
  586SOL     OW 1765   0.382   2.562   0.480
  586SOL    HW1 1766   0.427   2.472   0.477
  586SOL    HW2 1767   0.288   2.551   0.513
  587SOL     OW 1768   1.547   2.084   1.729
  587SOL    HW1 1769   1.542   2.121   1.821
  587SOL    HW2 1770   1.475   2.015   1.717
  588SOL     OW 1771   0.781   2.126   1.749
  588SOL    HW1 1772   0.848   2.065   1.792
  588SOL    HW2 1773   0.708   2.145   1.814
  589SOL     OW 1774   0.888   3.376   1.195
  589SOL    HW1 1775   0.865   3.351   1.101
  589SOL    HW2 1776   0.949   3.307   1.234
  590SOL     OW 1777   1.351   2.452   1.433
  590SOL    HW1 1778   1.379   2.409   1.518
  590SOL    HW2 1779   1.376   2.548   1.434
  591SOL     OW 1780   0.803   3.264   0.924
  591SOL    HW1 1781   0.893   3.278   0.882
  591SOL    HW2 1782   0.732   3.266   0.853
  592SOL     OW 1783   0.922   2.365   0.899
  592SOL    HW1 1784   0.897   2.356   0.803
  592SOL    HW2 1785   0.970   2.283   0.930
  593SOL     OW 1786   0.539   1.926   0.512
  593SOL    HW1 1787   0.458   1.927   0.570
  593SOL    HW2 1788   0.542   2.009   0.457
  594SOL     OW 1789   1.434   3.050   0.041
  594SOL    HW1 1790   1.466   2.974   0.098
  594SOL    HW2 1791   1.342   3.077   0.071
  595SOL     OW 1792   0.297   1.897   0.171
  595SOL    HW1 1793   0.346   1.981   0.150
  595SOL    HW2 1794   0.359   1.832   0.216
  596SOL     OW 1795   0.935   2.098   0.480
  596SOL    HW1 1796   0.887   2.139   0.402
  596SOL    HW2 1797   1.034   2.096   0.461
  597SOL     OW 1798   1.076   2.545   1.464
  597SOL    HW1 1799   0.996   2.484   1.467
  597SOL    HW2 1800   1.157   2.492   1.440
  598SOL     OW 1801   1.227   3.432   0.793
  598SOL    HW1 1802   1.248   3.506   0.728
  598SOL    HW2 1803   1.295   3.432   0.866
  599SOL     OW 1804   0.459   3.014   0.741
  599SOL    HW1 1805   0.388   2.987   0.806
  599SOL    HW2 1806   0.433   2.986   0.648
  600SOL     OW 1807   1.271   3.659   0.591
  600SOL    HW1 1808   1.315   3.723   0.527
  600SOL    HW2 1809   1.221   3.711   0.661
  601SOL     OW 1810   1.032   2.411   0.016
  601SOL    HW1 1811   0.991   2.493  -0.023
  601SOL    HW2 1812   1.096   2.437   0.089
  602SOL     OW 1813   0.078   2.418   1.386
  602SOL    HW1 1814   0.170   2.417   1.345
  602SOL    HW2 1815   0.072   2.492   1.453
  603SOL     OW 1816   0.561   2.084   1.147
  603SOL    HW1 1817   0.599   2.000   1.184
  603SOL    HW2 1818   0.473   2.103   1.191
  604SOL     OW 1819   0.866   2.316   0.642
  604SOL    HW1 1820   0.834   2.388   0.580
  604SOL    HW2 1821   0.890   2.235   0.589
  605SOL     OW 1822   1.017   1.901   0.753
  605SOL    HW1 1823   0.945   1.906   0.684
  605SOL    HW2 1824   0.993   1.832   0.822
  606SOL     OW 1825   1.429   3.035   0.867
  606SOL    HW1 1826   1.374   2.951   0.860
  606SOL    HW2 1827   1.455   3.064   0.775
  607SOL     OW 1828   1.466   2.452   0.992
  607SOL    HW1 1829   1.436   2.357   0.999
  607SOL    HW2 1830   1.539   2.468   1.058
  608SOL     OW 1831   1.857   2.695   0.377
  608SOL    HW1 1832   1.899   2.631   0.441
  608SOL    HW2 1833   1.819   2.644   0.299
  609SOL     OW 1834   0.488   3.247   0.174
  609SOL    HW1 1835   0.401   3.232   0.221
  609SOL    HW2 1836   0.471   3.273   0.079
  610SOL     OW 1837   1.664   3.142   0.657
  610SOL    HW1 1838   1.763   3.150   0.671
  610SOL    HW2 1839   1.619   3.226   0.688
  611SOL     OW 1840   1.390   2.437   0.078
  611SOL    HW1 1841   1.336   2.416   0.159
  611SOL    HW2 1842   1.481   2.396   0.087
  612SOL     OW 1843   0.527   2.118   0.328
  612SOL    HW1 1844   0.554   2.059   0.253
  612SOL    HW2 1845   0.527   2.213   0.297
  613SOL     OW 1846   1.754   3.085   1.588
  613SOL    HW1 1847   1.845   3.046   1.575
  613SOL    HW2 1848   1.762   3.181   1.612
  614SOL     OW 1849   1.064   3.209   1.340
  614SOL    HW1 1850   0.984   3.186   1.395
  614SOL    HW2 1851   1.147   3.183   1.389
  615SOL     OW 1852   1.592   3.491   1.625
  615SOL    HW1 1853   1.619   3.525   1.535
  615SOL    HW2 1854   1.671   3.453   1.671
  616SOL     OW 1855   1.111   3.057   1.100
  616SOL    HW1 1856   1.071   3.101   1.181
  616SOL    HW2 1857   1.070   3.094   1.017
  617SOL     OW 1858   1.638   2.961   1.079
  617SOL    HW1 1859   1.643   3.042   1.138
  617SOL    HW2 1860   1.552   2.963   1.028
  618SOL     OW 1861   0.915   1.951   1.402
  618SOL    HW1 1862   0.940   1.931   1.307
  618SOL    HW2 1863   0.987   2.007   1.444
  619SOL     OW 1864   0.980   2.978   1.719
  619SOL    HW1 1865   0.881   2.984   1.729
  619SOL    HW2 1866   1.003   2.898   1.663
  620SOL     OW 1867   0.705   2.912   0.368
  620SOL    HW1 1868   0.691   2.919   0.467
  620SOL    HW2 1869   0.789   2.861   0.350
  621SOL     OW 1870   0.410   2.675   1.251
  621SOL    HW1 1871   0.496   2.687   1.301
  621SOL    HW2 1872   0.368   2.588   1.278
  622SOL     OW 1873   1.274   2.248   1.262
  622SOL    HW1 1874   1.295   2.322   1.326
  622SOL    HW2 1875   1.185   2.265   1.219
  623SOL     OW 1876   0.064   3.426   1.331
  623SOL    HW1 1877   0.018   3.508   1.297
  623SOL    HW2 1878   0.162   3.445   1.340
  624SOL     OW 1879   0.367   2.962   0.501
  624SOL    HW1 1880   0.360   3.045   0.445
  624SOL    HW2 1881   0.371   2.882   0.441
  625SOL     OW 1882   0.566   2.399   0.865
  625SOL    HW1 1883   0.578   2.465   0.791
  625SOL    HW2 1884   0.612   2.433   0.948
  626SOL     OW 1885   1.252   3.210   0.388
  626SOL    HW1 1886   1.302   3.287   0.428
  626SOL    HW2 1887   1.157   3.212   0.420
  627SOL     OW 1888   1.272   3.307   1.142
  627SOL    HW1 1889   1.319   3.320   1.229
  627SOL    HW2 1890   1.206   3.233   1.151
  628SOL     OW 1891   1.582   2.501   0.472
  628SOL    HW1 1892   1.551   2.562   0.545
  628SOL    HW2 1893   1.632   2.553   0.403
  629SOL     OW 1894   0.354   3.372   1.329
  629SOL    HW1 1895   0.333   3.328   1.242
  629SOL    HW2 1896   0.451   3.398   1.332
  630SOL     OW 1897   0.402   2.613   1.598
  630SOL    HW1 1898   0.470   2.668   1.551
  630SOL    HW2 1899   0.442   2.525   1.625
  631SOL     OW 1900   1.587   2.641   1.670
  631SOL    HW1 1901   1.495   2.679   1.665
  631SOL    HW2 1902   1.647   2.688   1.605
  632SOL     OW 1903   1.013   1.967   1.770
  632SOL    HW1 1904   1.019   2.052   1.718
  632SOL    HW2 1905   1.045   1.891   1.713
  633SOL     OW 1906   0.504   1.912   1.740
  633SOL    HW1 1907   0.462   1.855   1.670
  633SOL    HW2 1908   0.438   1.981   1.772
  634SOL     OW 1909   0.573   2.732   1.029
  634SOL    HW1 1910   0.617   2.821   1.020
  634SOL    HW2 1911   0.510   2.732   1.106
  635SOL     OW 1912   1.360   2.724   1.045
  635SOL    HW1 1913   1.285   2.724   0.979
  635SOL    HW2 1914   1.397   2.632   1.054
  636SOL     OW 1915   1.209   2.387   0.275
  636SOL    HW1 1916   1.222   2.303   0.329
  636SOL    HW2 1917   1.180   2.461   0.335
  637SOL     OW 1918   0.307   2.075   1.231
  637SOL    HW1 1919   0.284   2.112   1.321
  637SOL    HW2 1920   0.277   1.980   1.225
  638SOL     OW 1921   0.037   3.172   1.282
  638SOL    HW1 1922   0.090   3.123   1.350
  638SOL    HW2 1923   0.059   3.270   1.287
  639SOL     OW 1924   0.732   2.496   1.064
  639SOL    HW1 1925   0.791   2.470   0.988
  639SOL    HW2 1926   0.704   2.592   1.053
  640SOL     OW 1927   1.728   2.797   1.854
  640SOL    HW1 1928   1.682   2.790   1.765
  640SOL    HW2 1929   1.666   2.841   1.920
  641SOL     OW 1930   0.307   1.925   0.618
  641SOL    HW1 1931   0.296   2.019   0.651
  641SOL    HW2 1932   0.302   1.862   0.695
  642SOL     OW 1933   1.622   2.229   0.374
  642SOL    HW1 1934   1.624   2.153   0.438
  642SOL    HW2 1935   1.574   2.306   0.414
  643SOL     OW 1936   1.023   2.628   0.966
  643SOL    HW1 1937   1.038   2.649   1.062
  643SOL    HW2 1938   0.993   2.533   0.957
  644SOL     OW 1939   0.980   3.435   1.700
  644SOL    HW1 1940   0.960   3.479   1.612
  644SOL    HW2 1941   1.019   3.344   1.684
  645SOL     OW 1942   1.859   3.380   1.605
  645SOL    HW1 1943   1.873   3.407   1.510
  645SOL    HW2 1944   1.942   3.402   1.658
  646SOL     OW 1945   0.350   2.760   1.804
  646SOL    HW1 1946   0.426   2.804   1.852
  646SOL    HW2 1947   0.385   2.713   1.722
  647SOL     OW 1948   1.540   2.136   0.125
  647SOL    HW1 1949   1.479   2.061   0.148
  647SOL    HW2 1950   1.562   2.188   0.208
  648SOL     OW 1951   1.303   2.700   0.042
  648SOL    HW1 1952   1.337   2.607   0.057
  648SOL    HW2 1953   1.321   2.727  -0.053
  649SOL     OW 1954   1.068   3.195   0.849
  649SOL    HW1 1955   1.075   3.111   0.794
  649SOL    HW2 1956   1.130   3.264   0.813
  650SOL     OW 1957   0.319   2.672   0.949
  650SOL    HW1 1958   0.412   2.708   0.954
  650SOL    HW2 1959   0.313   2.587   1.001
  651SOL     OW 1960   0.339   2.371   1.006
  651SOL    HW1 1961   0.287   2.288   0.989
  651SOL    HW2 1962   0.416   2.376   0.942
  652SOL     OW 1963   1.138   2.242   1.678
  652SOL    HW1 1964   1.093   2.305   1.742
  652SOL    HW2 1965   1.231   2.273   1.661
  653SOL     OW 1966   1.160   2.069   1.477
  653SOL    HW1 1967   1.160   2.133   1.554
  653SOL    HW2 1968   1.188   2.117   1.394
  654SOL     OW 1969   0.008   3.188   0.200
  654SOL    HW1 1970  -0.085   3.209   0.169
  654SOL    HW2 1971   0.018   3.089   0.213
  655SOL     OW 1972   0.088   3.663   0.927
  655SOL    HW1 1973   0.046   3.577   0.900
  655SOL    HW2 1974   0.182   3.666   0.893
  656SOL     OW 1975   0.504   3.430   0.910
  656SOL    HW1 1976   0.570   3.504   0.919
  656SOL    HW2 1977   0.548   3.351   0.868
  657SOL     OW 1978   1.002   2.658   1.238
  657SOL    HW1 1979   1.043   2.626   1.324
  657SOL    HW2 1980   0.906   2.631   1.235
  658SOL     OW 1981   0.040   2.406   1.114
  658SOL    HW1 1982   0.125   2.373   1.073
  658SOL    HW2 1983   0.053   2.421   1.212
  659SOL     OW 1984   0.189   2.382   1.722
  659SOL    HW1 1985   0.248   2.342   1.652
  659SOL    HW2 1986   0.131   2.453   1.681
  660SOL     OW 1987   1.369   2.812   1.660
  660SOL    HW1 1988   1.408   2.901   1.680
  660SOL    HW2 1989   1.379   2.792   1.563
  661SOL     OW 1990   0.815   2.434   0.325
  661SOL    HW1 1991   0.822   2.345   0.279
  661SOL    HW2 1992   0.721   2.468   0.317
  662SOL     OW 1993   1.657   2.466   1.206
  662SOL    HW1 1994   1.619   2.397   1.268
  662SOL    HW2 1995   1.739   2.430   1.162
  663SOL     OW 1996   0.252   3.426   1.744
  663SOL    HW1 1997   0.222   3.483   1.820
  663SOL    HW2 1998   0.245   3.329   1.770
  664SOL     OW 1999   0.671   2.326   1.269
  664SOL    HW1 2000   0.637   2.237   1.239
  664SOL    HW2 2001   0.697   2.380   1.189
  665SOL     OW 2002   0.930   3.540   1.465
  665SOL    HW1 2003   0.906   3.522   1.370
  665SOL    HW2 2004   0.960   3.634   1.475
  666SOL     OW 2005   0.473   2.362   0.191
  666SOL    HW1 2006   0.534   2.442   0.195
  666SOL    HW2 2007   0.378   2.393   0.198
  667SOL     OW 2008   0.159   2.999   1.466
  667SOL    HW1 2009   0.181   2.938   1.542
  667SOL    HW2 2010   0.169   2.950   1.380
  668SOL     OW 2011   1.347   2.921   1.234
  668SOL    HW1 2012   1.371   2.858   1.160
  668SOL    HW2 2013   1.257   2.961   1.216
  669SOL     OW 2014   1.302   2.717   0.309
  669SOL    HW1 2015   1.216   2.686   0.351
  669SOL    HW2 2016   1.298   2.703   0.210
  670SOL     OW 2017   1.759   3.609   1.154
  670SOL    HW1 2018   1.820   3.639   1.081
  670SOL    HW2 2019   1.721   3.520   1.132
  671SOL     OW 2020   1.252   3.593   1.128
  671SOL    HW1 2021   1.336   3.598   1.074
  671SOL    HW2 2022   1.229   3.497   1.146
  672SOL     OW 2023   0.083   3.120   1.022
  672SOL    HW1 2024   0.078   3.119   1.122
  672SOL    HW2 2025   0.000   3.079   0.984
  673SOL     OW 2026   0.688   3.524   1.716
  673SOL    HW1 2027   0.632   3.605   1.725
  673SOL    HW2 2028   0.740   3.528   1.630
  674SOL     OW 2029   0.903   1.948   0.133
  674SOL    HW1 2030   0.954   1.949   0.047
  674SOL    HW2 2031   0.959   1.906   0.204
  675SOL     OW 2032   1.726   1.997   0.523
  675SOL    HW1 2033   1.799   1.980   0.456
  675SOL    HW2 2034   1.695   1.910   0.561
  676SOL     OW 2035   1.388   3.435   0.477
  676SOL    HW1 2036   1.455   3.447   0.403
  676SOL    HW2 2037   1.348   3.524   0.500
  677SOL     OW 2038   0.130   3.656   1.851
  677SOL    HW1 2039   0.089   3.582   1.904
  677SOL    HW2 2040   0.194   3.707   1.909
  678SOL     OW 2041   1.280   2.789   0.672
  678SOL    HW1 2042   1.340   2.708   0.674
  678SOL    HW2 2043   1.320   2.858   0.612
  679SOL     OW 2044   0.830   3.135   1.422
  679SOL    HW1 2045   0.825   3.168   1.517
  679SOL    HW2 2046   0.744   3.154   1.376
  680SOL     OW 2047   0.672   3.478   0.154
  680SOL    HW1 2048   0.681   3.488   0.055
  680SOL    HW2 2049   0.632   3.389   0.175
  681SOL     OW 2050   1.650   3.582   1.394
  681SOL    HW1 2051   1.703   3.592   1.310
  681SOL    HW2 2052   1.623   3.672   1.428
  682SOL     OW 2053   1.841   2.037   0.963
  682SOL    HW1 2054   1.880   1.952   0.927
  682SOL    HW2 2055   1.743   2.039   0.944
  683SOL     OW 2056   0.263   2.188   0.720
  683SOL    HW1 2057   0.184   2.239   0.686
  683SOL    HW2 2058   0.254   2.173   0.818
  684SOL     OW 2059   1.194   3.474   0.031
  684SOL    HW1 2060   1.200   3.381   0.068
  684SOL    HW2 2061   1.135   3.474  -0.049
  685SOL     OW 2062   0.822   2.864   1.372
  685SOL    HW1 2063   0.862   2.863   1.280
  685SOL    HW2 2064   0.832   2.956   1.412
  686SOL     OW 2065   0.916   2.772   0.291
  686SOL    HW1 2066   0.979   2.810   0.223
  686SOL    HW2 2067   0.956   2.689   0.330
  687SOL     OW 2068   1.504   3.469   0.044
  687SOL    HW1 2069   1.412   3.506   0.051
  687SOL    HW2 2070   1.542   3.489  -0.046
  688SOL     OW 2071   0.372   3.150   1.490
  688SOL    HW1 2072   0.359   3.243   1.456
  688SOL    HW2 2073   0.288   3.098   1.477
  689SOL     OW 2074   1.614   3.154   1.289
  689SOL    HW1 2075   1.674   3.157   1.369
  689SOL    HW2 2076   1.539   3.218   1.302
  690SOL     OW 2077   1.039   2.960   0.696
  690SOL    HW1 2078   0.969   2.913   0.750
  690SOL    HW2 2079   1.098   2.892   0.653
  691SOL     OW 2080   1.014   2.098   0.971
  691SOL    HW1 2081   1.006   2.062   0.878
  691SOL    HW2 2082   1.012   2.022   1.036
  692SOL     OW 2083   0.590   3.349   0.491
  692SOL    HW1 2084   0.632   3.291   0.421
  692SOL    HW2 2085   0.546   3.428   0.447
  693SOL     OW 2086   1.709   2.247   1.381
  693SOL    HW1 2087   1.782   2.316   1.385
  693SOL    HW2 2088   1.737   2.172   1.322
  694SOL     OW 2089   0.255   3.210   0.290
  694SOL    HW1 2090   0.159   3.211   0.263
  694SOL    HW2 2091   0.267   3.263   0.374
  695SOL     OW 2092   0.105   2.875   1.726
  695SOL    HW1 2093   0.028   2.842   1.780
  695SOL    HW2 2094   0.190   2.845   1.768
  696SOL     OW 2095   0.672   2.065   1.489
  696SOL    HW1 2096   0.762   2.049   1.449
  696SOL    HW2 2097   0.680   2.070   1.588
  697SOL     OW 2098   0.075   2.207   0.033
  697SOL    HW1 2099  -0.017   2.179   0.004
  697SOL    HW2 2100   0.106   2.284  -0.023
  698SOL     OW 2101   1.440   2.718   1.398
  698SOL    HW1 2102   1.383   2.770   1.335
  698SOL    HW2 2103   1.536   2.730   1.374
  699SOL     OW 2104   0.072   2.028   0.318
  699SOL    HW1 2105   0.055   2.111   0.264
  699SOL    HW2 2106   0.162   1.991   0.296
  700SOL     OW 2107   1.183   3.197   0.119
  700SOL    HW1 2108   1.084   3.186   0.121
  700SOL    HW2 2109   1.217   3.212   0.212
  701SOL     OW 2110   0.613   2.704   1.431
  701SOL    HW1 2111   0.669   2.785   1.414
  701SOL    HW2 2112   0.672   2.624   1.434
  702SOL     OW 2113   1.493   3.629   0.959
  702SOL    HW1 2114   1.526   3.693   0.890
  702SOL    HW2 2115   1.559   3.623   1.034
  703SOL     OW 2116   0.716   2.427   1.708
  703SOL    HW1 2117   0.735   2.492   1.782
  703SOL    HW2 2118   0.776   2.347   1.717
  704SOL     OW 2119   1.450   3.082   1.633
  704SOL    HW1 2120   1.441   3.072   1.732
  704SOL    HW2 2121   1.546   3.075   1.607
  705SOL     OW 2122   0.390   3.603   1.560
  705SOL    HW1 2123   0.299   3.644   1.558
  705SOL    HW2 2124   0.383   3.509   1.592
  706SOL     OW 2125   1.674   2.745   1.254
  706SOL    HW1 2126   1.647   2.656   1.217
  706SOL    HW2 2127   1.675   2.813   1.181
  707SOL     OW 2128   1.225   2.187   0.449
  707SOL    HW1 2129   1.290   2.113   0.438
  707SOL    HW2 2130   1.245   2.237   0.533
  708SOL     OW 2131   0.594   2.607   0.652
  708SOL    HW1 2132   0.644   2.692   0.633
  708SOL    HW2 2133   0.506   2.609   0.604
  709SOL     OW 2134   1.777   2.204   1.642
  709SOL    HW1 2135   1.760   2.235   1.548
  709SOL    HW2 2136   1.693   2.167   1.680
  710SOL     OW 2137   1.730   2.796   1.517
  710SOL    HW1 2138   1.768   2.887   1.532
  710SOL    HW2 2139   1.722   2.779   1.418
  711SOL     OW 2140   0.859   3.236   0.016
  711SOL    HW1 2141   0.813   3.251   0.104
  711SOL    HW2 2142   0.903   3.321  -0.014
  712SOL     OW 2143   0.661   3.652   0.953
  712SOL    HW1 2144   0.615   3.740   0.940
  712SOL    HW2 2145   0.760   3.664   0.946
  713SOL     OW 2146   0.859   2.818   0.861
  713SOL    HW1 2147   0.913   2.749   0.909
  713SOL    HW2 2148   0.827   2.887   0.927
  714SOL     OW 2149   1.083   2.846   0.087
  714SOL    HW1 2150   1.060   2.899   0.005
  714SOL    HW2 2151   1.164   2.790   0.068
  715SOL     OW 2152   1.861   3.431   0.851
  715SOL    HW1 2153   1.790   3.419   0.781
  715SOL    HW2 2154   1.862   3.352   0.911
  716SOL     OW 2155   0.221   3.176   1.844
  716SOL    HW1 2156   0.156   3.103   1.823
  716SOL    HW2 2157   0.225   3.190   1.942
  717SOL     OW 2158   0.079   3.102   0.653
  717SOL    HW1 2159   0.078   3.055   0.741
  717SOL    HW2 2160   0.161   3.074   0.602
  718SOL     OW 2161   0.672   3.253   1.624
  718SOL    HW1 2162   0.594   3.203   1.662
  718SOL    HW2 2163   0.669   3.348   1.655
  719SOL     OW 2164   1.824   2.054   1.227
  719SOL    HW1 2165   1.820   1.964   1.271
  719SOL    HW2 2166   1.827   2.043   1.128
  720SOL     OW 2167   0.428   2.286   0.520
  720SOL    HW1 2168   0.458   2.214   0.458
  720SOL    HW2 2169   0.389   2.246   0.603
  721SOL     OW 2170   1.705   3.349   1.104
  721SOL    HW1 2171   1.612   3.324   1.077
  721SOL    HW2 2172   1.731   3.299   1.186
  722SOL     OW 2173   0.317   2.409   1.280
  722SOL    HW1 2174   0.355   2.350   1.352
  722SOL    HW2 2175   0.357   2.383   1.192
  723SOL     OW 2176   0.812   3.448   0.687
  723SOL    HW1 2177   0.844   3.458   0.593
  723SOL    HW2 2178   0.733   3.386   0.689
  724SOL     OW 2179   1.424   2.076   1.112
  724SOL    HW1 2180   1.476   2.011   1.167
  724SOL    HW2 2181   1.375   2.139   1.173
  725SOL     OW 2182   1.001   1.896   1.154
  725SOL    HW1 2183   0.938   1.824   1.123
  725SOL    HW2 2184   1.094   1.860   1.154
  726SOL     OW 2185   0.770   3.192   0.301
  726SOL    HW1 2186   0.724   3.105   0.318
  726SOL    HW2 2187   0.861   3.189   0.342
  727SOL     OW 2188   0.618   3.429   1.284
  727SOL    HW1 2189   0.613   3.511   1.341
  727SOL    HW2 2190   0.707   3.426   1.239
  728SOL     OW 2191   1.352   1.914   0.168
  728SOL    HW1 2192   1.387   1.873   0.084
  728SOL    HW2 2193   1.262   1.876   0.188
  729SOL     OW 2194   1.300   2.315   0.691
  729SOL    HW1 2195   1.241   2.395   0.695
  729SOL    HW2 2196   1.315   2.280   0.784
  730SOL     OW 2197   1.593   2.083   0.882
  730SOL    HW1 2198   1.509   2.082   0.936
  730SOL    HW2 2199   1.595   2.166   0.826
  731SOL     OW 2200   0.039   2.939   0.300
  731SOL    HW1 2201   0.138   2.928   0.291
  731SOL    HW2 2202  -0.001   2.853   0.332
  732SOL     OW 2203   0.875   3.508   0.337
  732SOL    HW1 2204   0.798   3.473   0.283
  732SOL    HW2 2205   0.843   3.579   0.399
  733SOL     OW 2206   0.230   2.490   1.975
  733SOL    HW1 2207   0.137   2.488   2.012
  733SOL    HW2 2208   0.231   2.451   1.883
  734SOL     OW 2209   0.225   2.137   2.858
  734SOL    HW1 2210   0.260   2.120   2.950
  734SOL    HW2 2211   0.137   2.092   2.846
  735SOL     OW 2212   0.019   2.230   2.509
  735SOL    HW1 2213  -0.063   2.273   2.548
  735SOL    HW2 2214  -0.009   2.157   2.446
  736SOL     OW 2215   0.569   3.137   3.027
  736SOL    HW1 2216   0.476   3.130   2.990
  736SOL    HW2 2217   0.580   3.226   3.071
  737SOL     OW 2218   1.555   3.373   2.565
  737SOL    HW1 2219   1.498   3.357   2.646
  737SOL    HW2 2220   1.496   3.383   2.485
  738SOL     OW 2221   1.135   2.565   2.579
  738SOL    HW1 2222   1.192   2.643   2.554
  738SOL    HW2 2223   1.075   2.591   2.655
  739SOL     OW 2224   1.755   2.469   2.093
  739SOL    HW1 2225   1.743   2.456   1.994
  739SOL    HW2 2226   1.725   2.388   2.142
  740SOL     OW 2227   0.768   3.006   2.885
  740SOL    HW1 2228   0.690   3.023   2.945
  740SOL    HW2 2229   0.802   3.093   2.849
  741SOL     OW 2230   0.850   2.660   3.685
  741SOL    HW1 2231   0.846   2.736   3.750
  741SOL    HW2 2232   0.872   2.696   3.594
  742SOL     OW 2233   0.685   2.874   2.527
  742SOL    HW1 2234   0.754   2.858   2.597
  742SOL    HW2 2235   0.612   2.931   2.565
  743SOL     OW 2236   0.686   3.023   3.665
  743SOL    HW1 2237   0.746   3.102   3.679
  743SOL    HW2 2238   0.600   3.054   3.624
  744SOL     OW 2239   0.335   3.297   2.923
  744SOL    HW1 2240   0.257   3.266   2.870
  744SOL    HW2 2241   0.393   3.355   2.866
  745SOL     OW 2242   1.460   3.367   3.201
  745SOL    HW1 2243   1.484   3.461   3.227
  745SOL    HW2 2244   1.444   3.313   3.283
  746SOL     OW 2245   0.438   2.254   3.361
  746SOL    HW1 2246   0.520   2.198   3.370
  746SOL    HW2 2247   0.357   2.196   3.365
  747SOL     OW 2248   1.603   2.309   2.599
  747SOL    HW1 2249   1.529   2.355   2.549
  747SOL    HW2 2250   1.654   2.377   2.652
  748SOL     OW 2251   0.231   3.575   2.345
  748SOL    HW1 2252   0.265   3.652   2.399
  748SOL    HW2 2253   0.275   3.575   2.255
  749SOL     OW 2254   1.127   3.203   3.552
  749SOL    HW1 2255   1.174   3.203   3.640
  749SOL    HW2 2256   1.079   3.116   3.541
  750SOL     OW 2257   0.230   3.296   2.400
  750SOL    HW1 2258   0.204   3.392   2.400
  750SOL    HW2 2259   0.159   3.242   2.445
  751SOL     OW 2260   0.240   2.953   2.748
  751SOL    HW1 2261   0.254   2.869   2.800
  751SOL    HW2 2262   0.185   3.017   2.803
  752SOL     OW 2263   0.620   3.648   3.301
  752SOL    HW1 2264   0.528   3.631   3.336
  752SOL    HW2 2265   0.648   3.740   3.327
  753SOL     OW 2266   0.606   2.826   1.985
  753SOL    HW1 2267   0.613   2.910   1.931
  753SOL    HW2 2268   0.652   2.839   2.073
  754SOL     OW 2269   1.594   1.976   3.342
  754SOL    HW1 2270   1.576   2.043   3.270
  754SOL    HW2 2271   1.591   2.022   3.431
  755SOL     OW 2272   0.122   2.505   2.425
  755SOL    HW1 2273   0.077   2.417   2.442
  755SOL    HW2 2274   0.121   2.559   2.509
  756SOL     OW 2275   1.842   3.629   2.221
  756SOL    HW1 2276   1.896   3.600   2.301
  756SOL    HW2 2277   1.872   3.719   2.192
  757SOL     OW 2278   0.027   3.458   1.979
  757SOL    HW1 2279   0.008   3.362   2.000
  757SOL    HW2 2280  -0.006   3.516   2.054
  758SOL     OW 2281   1.689   2.784   2.474
  758SOL    HW1 2282   1.784   2.755   2.482
  758SOL    HW2 2283   1.681   2.849   2.399
  759SOL     OW 2284   1.641   2.970   2.294
  759SOL    HW1 2285   1.727   2.972   2.242
  759SOL    HW2 2286   1.655   3.017   2.382
  760SOL     OW 2287   0.113   2.599   3.459
  760SOL    HW1 2288   0.201   2.586   3.504
  760SOL    HW2 2289   0.100   2.696   3.437
  761SOL     OW 2290   0.613   3.227   2.588
  761SOL    HW1 2291   0.564   3.140   2.597
  761SOL    HW2 2292   0.590   3.270   2.501
  762SOL     OW 2293   1.293   3.090   3.285
  762SOL    HW1 2294   1.330   3.017   3.227
  762SOL    HW2 2295   1.345   3.095   3.370
  763SOL     OW 2296   0.809   1.866   2.364
  763SOL    HW1 2297   0.849   1.957   2.355
  763SOL    HW2 2298   0.709   1.874   2.370
  764SOL     OW 2299   0.197   2.838   3.126
  764SOL    HW1 2300   0.286   2.793   3.112
  764SOL    HW2 2301   0.124   2.773   3.107
  765SOL     OW 2302   1.525   2.861   2.052
  765SOL    HW1 2303   1.462   2.785   2.065
  765SOL    HW2 2304   1.573   2.879   2.138
  766SOL     OW 2305   1.187   3.654   3.478
  766SOL    HW1 2306   1.211   3.714   3.402
  766SOL    HW2 2307   1.194   3.559   3.448
  767SOL     OW 2308   0.317   2.113   3.663
  767SOL    HW1 2309   0.388   2.184   3.669
  767SOL    HW2 2310   0.229   2.152   3.691
  768SOL     OW 2311   1.466   3.279   2.815
  768SOL    HW1 2312   1.407   3.285   2.895
  768SOL    HW2 2313   1.451   3.191   2.769
  769SOL     OW 2314   1.667   3.576   2.434
  769SOL    HW1 2315   1.626   3.553   2.346
  769SOL    HW2 2316   1.649   3.502   2.499
  770SOL     OW 2317   0.598   2.591   2.132
  770SOL    HW1 2318   0.622   2.660   2.064
  770SOL    HW2 2319   0.520   2.624   2.186
  771SOL     OW 2320   1.281   2.207   2.806
  771SOL    HW1 2321   1.195   2.157   2.793
  771SOL    HW2 2322   1.343   2.153   2.862
  772SOL     OW 2323   1.576   3.524   2.169
  772SOL    HW1 2324   1.665   3.570   2.172
  772SOL    HW2 2325   1.555   3.500   2.074
  773SOL     OW 2326   0.807   2.467   3.327
  773SOL    HW1 2327   0.760   2.464   3.416
  773SOL    HW2 2328   0.756   2.412   3.261
  774SOL     OW 2329   1.394   2.331   3.536
  774SOL    HW1 2330   1.374   2.374   3.624
  774SOL    HW2 2331   1.472   2.269   3.545
  775SOL     OW 2332   0.973   2.752   3.434
  775SOL    HW1 2333   1.019   2.668   3.405
  775SOL    HW2 2334   0.917   2.786   3.359
  776SOL     OW 2335   0.991   2.272   3.104
  776SOL    HW1 2336   0.914   2.306   3.158
  776SOL    HW2 2337   0.957   2.221   3.025
  777SOL     OW 2338   1.041   2.563   2.291
  777SOL    HW1 2339   1.067   2.559   2.387
  777SOL    HW2 2340   0.956   2.512   2.277
  778SOL     OW 2341   0.076   2.673   2.651
  778SOL    HW1 2342   0.175   2.661   2.660
  778SOL    HW2 2343   0.052   2.768   2.672
  779SOL     OW 2344   0.130   3.683   3.433
  779SOL    HW1 2345   0.120   3.668   3.532
  779SOL    HW2 2346   0.044   3.719   3.397
  780SOL     OW 2347   0.865   2.210   2.057
  780SOL    HW1 2348   0.924   2.273   2.008
  780SOL    HW2 2349   0.884   2.116   2.028
  781SOL     OW 2350   1.719   2.447   3.693
  781SOL    HW1 2351   1.693   2.536   3.657
  781SOL    HW2 2352   1.717   2.379   3.620
  782SOL     OW 2353   1.362   3.006   2.407
  782SOL    HW1 2354   1.445   2.977   2.359
  782SOL    HW2 2355   1.313   3.073   2.351
  783SOL     OW 2356   0.550   2.058   2.747
  783SOL    HW1 2357   0.545   2.053   2.847
  783SOL    HW2 2358   0.552   2.154   2.718
  784SOL     OW 2359   1.008   3.318   2.339
  784SOL    HW1 2360   0.962   3.390   2.287
  784SOL    HW2 2361   1.004   3.338   2.437
  785SOL     OW 2362   0.351   3.663   2.715
  785SOL    HW1 2363   0.401   3.577   2.721
  785SOL    HW2 2364   0.416   3.740   2.712
  786SOL     OW 2365   1.795   2.928   2.735
  786SOL    HW1 2366   1.733   2.913   2.659
  786SOL    HW2 2367   1.743   2.939   2.820
  787SOL     OW 2368   1.227   3.412   3.368
  787SOL    HW1 2369   1.233   3.335   3.432
  787SOL    HW2 2370   1.175   3.386   3.288
  788SOL     OW 2371   0.321   2.805   2.104
  788SOL    HW1 2372   0.403   2.844   2.062
  788SOL    HW2 2373   0.294   2.723   2.055
  789SOL     OW 2374   1.458   2.597   2.590
  789SOL    HW1 2375   1.453   2.532   2.665
  789SOL    HW2 2376   1.538   2.656   2.603
  790SOL     OW 2377   0.461   3.128   3.589
  790SOL    HW1 2378   0.411   3.129   3.503
  790SOL    HW2 2379   0.398   3.110   3.665
  791SOL     OW 2380   1.111   3.638   2.099
  791SOL    HW1 2381   1.051   3.576   2.149
  791SOL    HW2 2382   1.142   3.594   2.014
  792SOL     OW 2383   0.202   2.147   3.360
  792SOL    HW1 2384   0.122   2.207   3.347
  792SOL    HW2 2385   0.192   2.098   3.446
  793SOL     OW 2386   1.632   3.239   1.943
  793SOL    HW1 2387   1.600   3.333   1.933
  793SOL    HW2 2388   1.556   3.176   1.931
  794SOL     OW 2389   0.464   3.605   2.185
  794SOL    HW1 2390   0.497   3.644   2.271
  794SOL    HW2 2391   0.540   3.598   2.120
  795SOL     OW 2392   1.400   1.969   2.288
  795SOL    HW1 2393   1.376   1.932   2.198
  795SOL    HW2 2394   1.499   1.985   2.292
  796SOL     OW 2395   0.249   3.647   3.103
  796SOL    HW1 2396   0.306   3.582   3.153
  796SOL    HW2 2397   0.233   3.614   3.010
  797SOL     OW 2398   0.940   3.560   2.766
  797SOL    HW1 2399   1.020   3.503   2.787
  797SOL    HW2 2400   0.891   3.520   2.689
  798SOL     OW 2401   0.382   2.562   2.342
  798SOL    HW1 2402   0.427   2.472   2.339
  798SOL    HW2 2403   0.288   2.551   2.375
  799SOL     OW 2404   1.547   2.084   3.591
  799SOL    HW1 2405   1.542   2.121   3.683
  799SOL    HW2 2406   1.475   2.015   3.579
  800SOL     OW 2407   0.614   1.984   1.979
  800SOL    HW1 2408   0.712   1.962   1.986
  800SOL    HW2 2409   0.583   1.967   1.886
  801SOL     OW 2410   0.781   2.126   3.611
  801SOL    HW1 2411   0.848   2.065   3.654
  801SOL    HW2 2412   0.708   2.145   3.676
  802SOL     OW 2413   0.888   3.376   3.057
  802SOL    HW1 2414   0.865   3.351   2.963
  802SOL    HW2 2415   0.949   3.307   3.096
  803SOL     OW 2416   1.351   2.452   3.295
  803SOL    HW1 2417   1.379   2.409   3.380
  803SOL    HW2 2418   1.376   2.548   3.296
  804SOL     OW 2419   0.803   3.264   2.786
  804SOL    HW1 2420   0.893   3.278   2.744
  804SOL    HW2 2421   0.732   3.266   2.715
  805SOL     OW 2422   0.922   2.365   2.761
  805SOL    HW1 2423   0.897   2.356   2.665
  805SOL    HW2 2424   0.970   2.283   2.792
  806SOL     OW 2425   0.539   1.926   2.374
  806SOL    HW1 2426   0.458   1.927   2.432
  806SOL    HW2 2427   0.542   2.009   2.319
  807SOL     OW 2428   1.434   3.050   1.903
  807SOL    HW1 2429   1.466   2.974   1.960
  807SOL    HW2 2430   1.342   3.077   1.933
  808SOL     OW 2431   0.297   1.897   2.033
  808SOL    HW1 2432   0.346   1.981   2.012
  808SOL    HW2 2433   0.359   1.832   2.078
  809SOL     OW 2434   0.935   2.098   2.342
  809SOL    HW1 2435   0.887   2.139   2.264
  809SOL    HW2 2436   1.034   2.096   2.323
  810SOL     OW 2437   1.076   2.545   3.326
  810SOL    HW1 2438   0.996   2.484   3.329
  810SOL    HW2 2439   1.157   2.492   3.302
  811SOL     OW 2440   1.227   3.432   2.655
  811SOL    HW1 2441   1.248   3.506   2.590
  811SOL    HW2 2442   1.295   3.432   2.728
  812SOL     OW 2443   0.459   3.014   2.603
  812SOL    HW1 2444   0.388   2.987   2.668
  812SOL    HW2 2445   0.433   2.986   2.510
  813SOL     OW 2446   1.271   3.659   2.453
  813SOL    HW1 2447   1.315   3.723   2.389
  813SOL    HW2 2448   1.221   3.711   2.523
  814SOL     OW 2449   1.032   2.411   1.878
  814SOL    HW1 2450   0.991   2.493   1.839
  814SOL    HW2 2451   1.096   2.437   1.951
  815SOL     OW 2452   0.078   2.418   3.248
  815SOL    HW1 2453   0.170   2.417   3.207
  815SOL    HW2 2454   0.072   2.492   3.315
  816SOL     OW 2455   0.561   2.084   3.009
  816SOL    HW1 2456   0.599   2.000   3.046
  816SOL    HW2 2457   0.473   2.103   3.053
  817SOL     OW 2458   0.866   2.316   2.504
  817SOL    HW1 2459   0.834   2.388   2.442
  817SOL    HW2 2460   0.890   2.235   2.451
  818SOL     OW 2461   1.017   1.901   2.615
  818SOL    HW1 2462   0.945   1.906   2.546
  818SOL    HW2 2463   0.993   1.832   2.684
  819SOL     OW 2464   1.429   3.035   2.729
  819SOL    HW1 2465   1.374   2.951   2.722
  819SOL    HW2 2466   1.455   3.064   2.637
  820SOL     OW 2467   1.466   2.452   2.854
  820SOL    HW1 2468   1.436   2.357   2.861
  820SOL    HW2 2469   1.539   2.468   2.920
  821SOL     OW 2470   1.857   2.695   2.239
  821SOL    HW1 2471   1.899   2.631   2.303
  821SOL    HW2 2472   1.819   2.644   2.161
  822SOL     OW 2473   0.488   3.247   2.036
  822SOL    HW1 2474   0.401   3.232   2.083
  822SOL    HW2 2475   0.471   3.273   1.941
  823SOL     OW 2476   1.664   3.142   2.519
  823SOL    HW1 2477   1.763   3.150   2.533
  823SOL    HW2 2478   1.619   3.226   2.550
  824SOL     OW 2479   1.390   2.437   1.940
  824SOL    HW1 2480   1.336   2.416   2.021
  824SOL    HW2 2481   1.481   2.396   1.949
  825SOL     OW 2482   0.527   2.118   2.190
  825SOL    HW1 2483   0.554   2.059   2.115
  825SOL    HW2 2484   0.527   2.213   2.159
  826SOL     OW 2485   1.754   3.085   3.450
  826SOL    HW1 2486   1.845   3.046   3.437
  826SOL    HW2 2487   1.762   3.181   3.474
  827SOL     OW 2488   1.064   3.209   3.202
  827SOL    HW1 2489   0.984   3.186   3.257
  827SOL    HW2 2490   1.147   3.183   3.251
  828SOL     OW 2491   1.592   3.491   3.487
  828SOL    HW1 2492   1.619   3.525   3.397
  828SOL    HW2 2493   1.671   3.453   3.533
  829SOL     OW 2494   1.111   3.057   2.962
  829SOL    HW1 2495   1.071   3.101   3.043
  829SOL    HW2 2496   1.070   3.094   2.879
  830SOL     OW 2497   1.638   2.961   2.941
  830SOL    HW1 2498   1.643   3.042   3.000
  830SOL    HW2 2499   1.552   2.963   2.890
  831SOL     OW 2500   0.915   1.951   3.264
  831SOL    HW1 2501   0.940   1.931   3.169
  831SOL    HW2 2502   0.987   2.007   3.306
  832SOL     OW 2503   0.980   2.978   3.581
  832SOL    HW1 2504   0.881   2.984   3.591
  832SOL    HW2 2505   1.003   2.898   3.525
  833SOL     OW 2506   0.705   2.912   2.230
  833SOL    HW1 2507   0.691   2.919   2.329
  833SOL    HW2 2508   0.789   2.861   2.212
  834SOL     OW 2509   0.410   2.675   3.113
  834SOL    HW1 2510   0.496   2.687   3.163
  834SOL    HW2 2511   0.368   2.588   3.140
  835SOL     OW 2512   1.274   2.248   3.124
  835SOL    HW1 2513   1.295   2.322   3.188
  835SOL    HW2 2514   1.185   2.265   3.081
  836SOL     OW 2515   0.064   3.426   3.193
  836SOL    HW1 2516   0.018   3.508   3.159
  836SOL    HW2 2517   0.162   3.445   3.202
  837SOL     OW 2518   0.367   2.962   2.363
  837SOL    HW1 2519   0.360   3.045   2.307
  837SOL    HW2 2520   0.371   2.882   2.303
  838SOL     OW 2521   0.566   2.399   2.727
  838SOL    HW1 2522   0.578   2.465   2.653
  838SOL    HW2 2523   0.612   2.433   2.810
  839SOL     OW 2524   1.252   3.210   2.250
  839SOL    HW1 2525   1.302   3.287   2.290
  839SOL    HW2 2526   1.157   3.212   2.282
  840SOL     OW 2527   1.272   3.307   3.004
  840SOL    HW1 2528   1.319   3.320   3.091
  840SOL    HW2 2529   1.206   3.233   3.013
  841SOL     OW 2530   1.582   2.501   2.334
  841SOL    HW1 2531   1.551   2.562   2.407
  841SOL    HW2 2532   1.632   2.553   2.265
  842SOL     OW 2533   0.354   3.372   3.191
  842SOL    HW1 2534   0.333   3.328   3.104
  842SOL    HW2 2535   0.451   3.398   3.194
  843SOL     OW 2536   0.402   2.613   3.460
  843SOL    HW1 2537   0.470   2.668   3.413
  843SOL    HW2 2538   0.442   2.525   3.487
  844SOL     OW 2539   1.587   2.641   3.532
  844SOL    HW1 2540   1.495   2.679   3.527
  844SOL    HW2 2541   1.647   2.688   3.467
  845SOL     OW 2542   1.013   1.967   3.632
  845SOL    HW1 2543   1.019   2.052   3.580
  845SOL    HW2 2544   1.045   1.891   3.575
  846SOL     OW 2545   0.504   1.912   3.602
  846SOL    HW1 2546   0.462   1.855   3.532
  846SOL    HW2 2547   0.438   1.981   3.634
  847SOL     OW 2548   0.573   2.732   2.891
  847SOL    HW1 2549   0.617   2.821   2.882
  847SOL    HW2 2550   0.510   2.732   2.968
  848SOL     OW 2551   1.360   2.724   2.907
  848SOL    HW1 2552   1.285   2.724   2.841
  848SOL    HW2 2553   1.397   2.632   2.916
  849SOL     OW 2554   1.209   2.387   2.137
  849SOL    HW1 2555   1.222   2.303   2.191
  849SOL    HW2 2556   1.180   2.461   2.197
  850SOL     OW 2557   0.307   2.075   3.093
  850SOL    HW1 2558   0.284   2.112   3.183
  850SOL    HW2 2559   0.277   1.980   3.087
  851SOL     OW 2560   0.037   3.172   3.144
  851SOL    HW1 2561   0.090   3.123   3.212
  851SOL    HW2 2562   0.059   3.270   3.149
  852SOL     OW 2563   0.732   2.496   2.926
  852SOL    HW1 2564   0.791   2.470   2.850
  852SOL    HW2 2565   0.704   2.592   2.915
  853SOL     OW 2566   1.728   2.797   3.716
  853SOL    HW1 2567   1.682   2.790   3.627
  853SOL    HW2 2568   1.666   2.841   3.782
  854SOL     OW 2569   0.307   1.925   2.480
  854SOL    HW1 2570   0.296   2.019   2.513
  854SOL    HW2 2571   0.302   1.862   2.557
  855SOL     OW 2572   1.622   2.229   2.236
  855SOL    HW1 2573   1.624   2.153   2.300
  855SOL    HW2 2574   1.574   2.306   2.276
  856SOL     OW 2575   1.023   2.628   2.828
  856SOL    HW1 2576   1.038   2.649   2.924
  856SOL    HW2 2577   0.993   2.533   2.819
  857SOL     OW 2578   0.980   3.435   3.562
  857SOL    HW1 2579   0.960   3.479   3.474
  857SOL    HW2 2580   1.019   3.344   3.546
  858SOL     OW 2581   1.859   3.380   3.467
  858SOL    HW1 2582   1.873   3.407   3.372
  858SOL    HW2 2583   1.942   3.402   3.520
  859SOL     OW 2584   0.350   2.760   3.666
  859SOL    HW1 2585   0.426   2.804   3.714
  859SOL    HW2 2586   0.385   2.713   3.584
  860SOL     OW 2587   1.540   2.136   1.987
  860SOL    HW1 2588   1.479   2.061   2.010
  860SOL    HW2 2589   1.562   2.188   2.070
  861SOL     OW 2590   1.303   2.700   1.904
  861SOL    HW1 2591   1.337   2.607   1.919
  861SOL    HW2 2592   1.321   2.727   1.809
  862SOL     OW 2593   1.068   3.195   2.711
  862SOL    HW1 2594   1.075   3.111   2.656
  862SOL    HW2 2595   1.130   3.264   2.675
  863SOL     OW 2596   0.319   2.672   2.811
  863SOL    HW1 2597   0.412   2.708   2.816
  863SOL    HW2 2598   0.313   2.587   2.863
  864SOL     OW 2599   0.339   2.371   2.868
  864SOL    HW1 2600   0.287   2.288   2.851
  864SOL    HW2 2601   0.416   2.376   2.804
  865SOL     OW 2602   1.138   2.242   3.540
  865SOL    HW1 2603   1.093   2.305   3.604
  865SOL    HW2 2604   1.231   2.273   3.523
  866SOL     OW 2605   1.160   2.069   3.339
  866SOL    HW1 2606   1.160   2.133   3.416
  866SOL    HW2 2607   1.188   2.117   3.256
  867SOL     OW 2608   0.008   3.188   2.062
  867SOL    HW1 2609  -0.085   3.209   2.031
  867SOL    HW2 2610   0.018   3.089   2.075
  868SOL     OW 2611   0.088   3.663   2.789
  868SOL    HW1 2612   0.046   3.577   2.762
  868SOL    HW2 2613   0.182   3.666   2.755
  869SOL     OW 2614   0.504   3.430   2.772
  869SOL    HW1 2615   0.570   3.504   2.781
  869SOL    HW2 2616   0.548   3.351   2.730
  870SOL     OW 2617   1.002   2.658   3.100
  870SOL    HW1 2618   1.043   2.626   3.186
  870SOL    HW2 2619   0.906   2.631   3.097
  871SOL     OW 2620   0.040   2.406   2.976
  871SOL    HW1 2621   0.125   2.373   2.935
  871SOL    HW2 2622   0.053   2.421   3.074
  872SOL     OW 2623   0.189   2.382   3.584
  872SOL    HW1 2624   0.248   2.342   3.514
  872SOL    HW2 2625   0.131   2.453   3.543
  873SOL     OW 2626   1.369   2.812   3.522
  873SOL    HW1 2627   1.408   2.901   3.542
  873SOL    HW2 2628   1.379   2.792   3.425
  874SOL     OW 2629   0.815   2.434   2.187
  874SOL    HW1 2630   0.822   2.345   2.141
  874SOL    HW2 2631   0.721   2.468   2.179
  875SOL     OW 2632   1.657   2.466   3.068
  875SOL    HW1 2633   1.619   2.397   3.130
  875SOL    HW2 2634   1.739   2.430   3.024
  876SOL     OW 2635   0.252   3.426   3.606
  876SOL    HW1 2636   0.222   3.483   3.682
  876SOL    HW2 2637   0.245   3.329   3.632
  877SOL     OW 2638   0.671   2.326   3.131
  877SOL    HW1 2639   0.637   2.237   3.101
  877SOL    HW2 2640   0.697   2.380   3.051
  878SOL     OW 2641   0.930   3.540   3.327
  878SOL    HW1 2642   0.906   3.522   3.232
  878SOL    HW2 2643   0.960   3.634   3.337
  879SOL     OW 2644   0.473   2.362   2.053
  879SOL    HW1 2645   0.534   2.442   2.057
  879SOL    HW2 2646   0.378   2.393   2.060
  880SOL     OW 2647   0.159   2.999   3.328
  880SOL    HW1 2648   0.181   2.938   3.404
  880SOL    HW2 2649   0.169   2.950   3.242
  881SOL     OW 2650   1.347   2.921   3.096
  881SOL    HW1 2651   1.371   2.858   3.022
  881SOL    HW2 2652   1.257   2.961   3.078
  882SOL     OW 2653   1.302   2.717   2.171
  882SOL    HW1 2654   1.216   2.686   2.213
  882SOL    HW2 2655   1.298   2.703   2.072
  883SOL     OW 2656   1.759   3.609   3.016
  883SOL    HW1 2657   1.820   3.639   2.943
  883SOL    HW2 2658   1.721   3.520   2.994
  884SOL     OW 2659   1.252   3.593   2.990
  884SOL    HW1 2660   1.336   3.598   2.936
  884SOL    HW2 2661   1.229   3.497   3.008
  885SOL     OW 2662   0.083   3.120   2.884
  885SOL    HW1 2663   0.078   3.119   2.984
  885SOL    HW2 2664   0.000   3.079   2.846
  886SOL     OW 2665   0.688   3.524   3.578
  886SOL    HW1 2666   0.632   3.605   3.587
  886SOL    HW2 2667   0.740   3.528   3.492
  887SOL     OW 2668   1.726   1.997   2.385
  887SOL    HW1 2669   1.799   1.980   2.318
  887SOL    HW2 2670   1.695   1.910   2.423
  888SOL     OW 2671   1.388   3.435   2.339
  888SOL    HW1 2672   1.455   3.447   2.265
  888SOL    HW2 2673   1.348   3.524   2.362
  889SOL     OW 2674   0.130   3.656   3.713
  889SOL    HW1 2675   0.089   3.582   3.766
  889SOL    HW2 2676   0.194   3.707   3.771
  890SOL     OW 2677   1.280   2.789   2.534
  890SOL    HW1 2678   1.340   2.708   2.536
  890SOL    HW2 2679   1.320   2.858   2.474
  891SOL     OW 2680   0.830   3.135   3.284
  891SOL    HW1 2681   0.825   3.168   3.379
  891SOL    HW2 2682   0.744   3.154   3.238
  892SOL     OW 2683   0.672   3.478   2.016
  892SOL    HW1 2684   0.681   3.488   1.917
  892SOL    HW2 2685   0.632   3.389   2.037
  893SOL     OW 2686   1.650   3.582   3.256
  893SOL    HW1 2687   1.703   3.592   3.172
  893SOL    HW2 2688   1.623   3.672   3.290
  894SOL     OW 2689   1.841   2.037   2.825
  894SOL    HW1 2690   1.880   1.952   2.789
  894SOL    HW2 2691   1.743   2.039   2.806
  895SOL     OW 2692   0.263   2.188   2.582
  895SOL    HW1 2693   0.184   2.239   2.548
  895SOL    HW2 2694   0.254   2.173   2.680
  896SOL     OW 2695   1.194   3.474   1.893
  896SOL    HW1 2696   1.200   3.381   1.930
  896SOL    HW2 2697   1.135   3.474   1.813
  897SOL     OW 2698   0.822   2.864   3.234
  897SOL    HW1 2699   0.862   2.863   3.142
  897SOL    HW2 2700   0.832   2.956   3.274
  898SOL     OW 2701   0.916   2.772   2.153
  898SOL    HW1 2702   0.979   2.810   2.085
  898SOL    HW2 2703   0.956   2.689   2.192
  899SOL     OW 2704   1.504   3.469   1.906
  899SOL    HW1 2705   1.412   3.506   1.913
  899SOL    HW2 2706   1.542   3.489   1.816
  900SOL     OW 2707   0.372   3.150   3.352
  900SOL    HW1 2708   0.359   3.243   3.318
  900SOL    HW2 2709   0.288   3.098   3.339
  901SOL     OW 2710   1.614   3.154   3.151
  901SOL    HW1 2711   1.674   3.157   3.231
  901SOL    HW2 2712   1.539   3.218   3.164
  902SOL     OW 2713   1.039   2.960   2.558
  902SOL    HW1 2714   0.969   2.913   2.612
  902SOL    HW2 2715   1.098   2.892   2.515
  903SOL     OW 2716   1.014   2.098   2.833
  903SOL    HW1 2717   1.006   2.062   2.740
  903SOL    HW2 2718   1.012   2.022   2.898
  904SOL     OW 2719   0.590   3.349   2.353
  904SOL    HW1 2720   0.632   3.291   2.283
  904SOL    HW2 2721   0.546   3.428   2.309
  905SOL     OW 2722   1.709   2.247   3.243
  905SOL    HW1 2723   1.782   2.316   3.247
  905SOL    HW2 2724   1.737   2.172   3.184
  906SOL     OW 2725   0.255   3.210   2.152
  906SOL    HW1 2726   0.159   3.211   2.125
  906SOL    HW2 2727   0.267   3.263   2.236
  907SOL     OW 2728   0.105   2.875   3.588
  907SOL    HW1 2729   0.028   2.842   3.642
  907SOL    HW2 2730   0.190   2.845   3.630
  908SOL     OW 2731   0.672   2.065   3.351
  908SOL    HW1 2732   0.762   2.049   3.311
  908SOL    HW2 2733   0.680   2.070   3.450
  909SOL     OW 2734   0.075   2.207   1.895
  909SOL    HW1 2735  -0.017   2.179   1.866
  909SOL    HW2 2736   0.106   2.284   1.839
  910SOL     OW 2737   1.440   2.718   3.260
  910SOL    HW1 2738   1.383   2.770   3.197
  910SOL    HW2 2739   1.536   2.730   3.236
  911SOL     OW 2740   0.072   2.028   2.180
  911SOL    HW1 2741   0.055   2.111   2.126
  911SOL    HW2 2742   0.162   1.991   2.158
  912SOL     OW 2743   1.183   3.197   1.981
  912SOL    HW1 2744   1.084   3.186   1.983
  912SOL    HW2 2745   1.217   3.212   2.074
  913SOL     OW 2746   0.613   2.704   3.293
  913SOL    HW1 2747   0.669   2.785   3.276
  913SOL    HW2 2748   0.672   2.624   3.296
  914SOL     OW 2749   1.493   3.629   2.821
  914SOL    HW1 2750   1.526   3.693   2.752
  914SOL    HW2 2751   1.559   3.623   2.896
  915SOL     OW 2752   0.716   2.427   3.570
  915SOL    HW1 2753   0.735   2.492   3.644
  915SOL    HW2 2754   0.776   2.347   3.579
  916SOL     OW 2755   1.450   3.082   3.495
  916SOL    HW1 2756   1.441   3.072   3.594
  916SOL    HW2 2757   1.546   3.075   3.469
  917SOL     OW 2758   0.390   3.603   3.422
  917SOL    HW1 2759   0.299   3.644   3.420
  917SOL    HW2 2760   0.383   3.509   3.454
  918SOL     OW 2761   1.674   2.745   3.116
  918SOL    HW1 2762   1.647   2.656   3.079
  918SOL    HW2 2763   1.675   2.813   3.043
  919SOL     OW 2764   1.225   2.187   2.311
  919SOL    HW1 2765   1.290   2.113   2.300
  919SOL    HW2 2766   1.245   2.237   2.395
  920SOL     OW 2767   0.594   2.607   2.514
  920SOL    HW1 2768   0.644   2.692   2.495
  920SOL    HW2 2769   0.506   2.609   2.466
  921SOL     OW 2770   1.777   2.204   3.504
  921SOL    HW1 2771   1.760   2.235   3.410
  921SOL    HW2 2772   1.693   2.167   3.542
  922SOL     OW 2773   1.730   2.796   3.379
  922SOL    HW1 2774   1.768   2.887   3.394
  922SOL    HW2 2775   1.722   2.779   3.280
  923SOL     OW 2776   0.859   3.236   1.878
  923SOL    HW1 2777   0.813   3.251   1.966
  923SOL    HW2 2778   0.903   3.321   1.848
  924SOL     OW 2779   0.661   3.652   2.815
  924SOL    HW1 2780   0.615   3.740   2.802
  924SOL    HW2 2781   0.760   3.664   2.808
  925SOL     OW 2782   0.859   2.818   2.723
  925SOL    HW1 2783   0.913   2.749   2.771
  925SOL    HW2 2784   0.827   2.887   2.789
  926SOL     OW 2785   1.083   2.846   1.949
  926SOL    HW1 2786   1.060   2.899   1.867
  926SOL    HW2 2787   1.164   2.790   1.930
  927SOL     OW 2788   1.861   3.431   2.713
  927SOL    HW1 2789   1.790   3.419   2.643
  927SOL    HW2 2790   1.862   3.352   2.773
  928SOL     OW 2791   0.221   3.176   3.706
  928SOL    HW1 2792   0.156   3.103   3.685
  928SOL    HW2 2793   0.225   3.190   3.804
  929SOL     OW 2794   0.079   3.102   2.515
  929SOL    HW1 2795   0.078   3.055   2.603
  929SOL    HW2 2796   0.161   3.074   2.464
  930SOL     OW 2797   0.672   3.253   3.486
  930SOL    HW1 2798   0.594   3.203   3.524
  930SOL    HW2 2799   0.669   3.348   3.517
  931SOL     OW 2800   1.824   2.054   3.089
  931SOL    HW1 2801   1.820   1.964   3.133
  931SOL    HW2 2802   1.827   2.043   2.990
  932SOL     OW 2803   0.428   2.286   2.382
  932SOL    HW1 2804   0.458   2.214   2.320
  932SOL    HW2 2805   0.389   2.246   2.465
  933SOL     OW 2806   1.705   3.349   2.966
  933SOL    HW1 2807   1.612   3.324   2.939
  933SOL    HW2 2808   1.731   3.299   3.048
  934SOL     OW 2809   0.317   2.409   3.142
  934SOL    HW1 2810   0.355   2.350   3.214
  934SOL    HW2 2811   0.357   2.383   3.054
  935SOL     OW 2812   0.812   3.448   2.549
  935SOL    HW1 2813   0.844   3.458   2.455
  935SOL    HW2 2814   0.733   3.386   2.551
  936SOL     OW 2815   1.424   2.076   2.974
  936SOL    HW1 2816   1.476   2.011   3.029
  936SOL    HW2 2817   1.375   2.139   3.035
  937SOL     OW 2818   1.001   1.896   3.016
  937SOL    HW1 2819   0.938   1.824   2.985
  937SOL    HW2 2820   1.094   1.860   3.016
  938SOL     OW 2821   0.770   3.192   2.163
  938SOL    HW1 2822   0.724   3.105   2.180
  938SOL    HW2 2823   0.861   3.189   2.204
  939SOL     OW 2824   0.618   3.429   3.146
  939SOL    HW1 2825   0.613   3.511   3.203
  939SOL    HW2 2826   0.707   3.426   3.101
  940SOL     OW 2827   1.352   1.914   2.030
  940SOL    HW1 2828   1.387   1.873   1.946
  940SOL    HW2 2829   1.262   1.876   2.050
  941SOL     OW 2830   1.300   2.315   2.553
  941SOL    HW1 2831   1.241   2.395   2.557
  941SOL    HW2 2832   1.315   2.280   2.646
  942SOL     OW 2833   1.593   2.083   2.744
  942SOL    HW1 2834   1.509   2.082   2.798
  942SOL    HW2 2835   1.595   2.166   2.688
  943SOL     OW 2836   0.039   2.939   2.162
  943SOL    HW1 2837   0.138   2.928   2.153
  943SOL    HW2 2838  -0.001   2.853   2.194
  944SOL     OW 2839   0.875   3.508   2.199
  944SOL    HW1 2840   0.798   3.473   2.145
  944SOL    HW2 2841   0.843   3.579   2.261
  945SOL     OW 2842   0.230   2.490   3.837
  945SOL    HW1 2843   0.137   2.488   3.874
  945SOL    HW2 2844   0.231   2.451   3.745
  946SOL     OW 2845   0.225   2.137   4.720
  946SOL    HW1 2846   0.260   2.120   4.812
  946SOL    HW2 2847   0.137   2.092   4.708
  947SOL     OW 2848   0.019   2.230   4.371
  947SOL    HW1 2849  -0.063   2.273   4.410
  947SOL    HW2 2850  -0.009   2.157   4.308
  948SOL     OW 2851   1.755   2.469   3.955
  948SOL    HW1 2852   1.743   2.456   3.856
  948SOL    HW2 2853   1.725   2.388   4.004
  949SOL     OW 2854   0.685   2.874   4.389
  949SOL    HW1 2855   0.754   2.858   4.459
  949SOL    HW2 2856   0.612   2.931   4.427
  950SOL     OW 2857   1.603   2.309   4.461
  950SOL    HW1 2858   1.529   2.355   4.411
  950SOL    HW2 2859   1.654   2.377   4.514
  951SOL     OW 2860   0.231   3.575   4.207
  951SOL    HW1 2861   0.265   3.652   4.261
  951SOL    HW2 2862   0.275   3.575   4.117
  952SOL     OW 2863   0.230   3.296   4.262
  952SOL    HW1 2864   0.204   3.392   4.262
  952SOL    HW2 2865   0.159   3.242   4.307
  953SOL     OW 2866   0.240   2.953   4.610
  953SOL    HW1 2867   0.254   2.869   4.662
  953SOL    HW2 2868   0.185   3.017   4.665
  954SOL     OW 2869   0.606   2.826   3.847
  954SOL    HW1 2870   0.613   2.910   3.793
  954SOL    HW2 2871   0.652   2.839   3.935
  955SOL     OW 2872   0.122   2.505   4.287
  955SOL    HW1 2873   0.077   2.417   4.304
  955SOL    HW2 2874   0.121   2.559   4.371
  956SOL     OW 2875   1.842   3.629   4.083
  956SOL    HW1 2876   1.896   3.600   4.163
  956SOL    HW2 2877   1.872   3.719   4.054
  957SOL     OW 2878   0.027   3.458   3.841
  957SOL    HW1 2879   0.008   3.362   3.862
  957SOL    HW2 2880  -0.006   3.516   3.916
  958SOL     OW 2881   1.689   2.784   4.336
  958SOL    HW1 2882   1.784   2.755   4.344
  958SOL    HW2 2883   1.681   2.849   4.261
  959SOL     OW 2884   1.641   2.970   4.156
  959SOL    HW1 2885   1.727   2.972   4.104
  959SOL    HW2 2886   1.655   3.017   4.244
  960SOL     OW 2887   0.613   3.227   4.450
  960SOL    HW1 2888   0.564   3.140   4.459
  960SOL    HW2 2889   0.590   3.270   4.363
  961SOL     OW 2890   0.809   1.866   4.226
  961SOL    HW1 2891   0.849   1.957   4.217
  961SOL    HW2 2892   0.709   1.874   4.232
  962SOL     OW 2893   1.525   2.861   3.914
  962SOL    HW1 2894   1.462   2.785   3.927
  962SOL    HW2 2895   1.573   2.879   4.000
  963SOL     OW 2896   1.667   3.576   4.296
  963SOL    HW1 2897   1.626   3.553   4.208
  963SOL    HW2 2898   1.649   3.502   4.361
  964SOL     OW 2899   0.598   2.591   3.994
  964SOL    HW1 2900   0.622   2.660   3.926
  964SOL    HW2 2901   0.520   2.624   4.048
  965SOL     OW 2902   1.281   2.207   4.668
  965SOL    HW1 2903   1.195   2.157   4.655
  965SOL    HW2 2904   1.343   2.153   4.724
  966SOL     OW 2905   1.576   3.524   4.031
  966SOL    HW1 2906   1.665   3.570   4.034
  966SOL    HW2 2907   1.555   3.500   3.936
  967SOL     OW 2908   1.041   2.563   4.153
  967SOL    HW1 2909   1.067   2.559   4.249
  967SOL    HW2 2910   0.956   2.512   4.139
  968SOL     OW 2911   0.076   2.673   4.513
  968SOL    HW1 2912   0.175   2.661   4.522
  968SOL    HW2 2913   0.052   2.768   4.534
  969SOL     OW 2914   0.865   2.210   3.919
  969SOL    HW1 2915   0.924   2.273   3.870
  969SOL    HW2 2916   0.884   2.116   3.890
  970SOL     OW 2917   1.362   3.006   4.269
  970SOL    HW1 2918   1.445   2.977   4.221
  970SOL    HW2 2919   1.313   3.073   4.213
  971SOL     OW 2920   1.008   3.318   4.201
  971SOL    HW1 2921   0.962   3.390   4.149
  971SOL    HW2 2922   1.004   3.338   4.299
  972SOL     OW 2923   0.351   3.663   4.577
  972SOL    HW1 2924   0.401   3.577   4.583
  972SOL    HW2 2925   0.416   3.740   4.574
  973SOL     OW 2926   1.795   2.928   4.597
  973SOL    HW1 2927   1.733   2.913   4.521
  973SOL    HW2 2928   1.743   2.939   4.682
  974SOL     OW 2929   0.321   2.805   3.966
  974SOL    HW1 2930   0.403   2.844   3.924
  974SOL    HW2 2931   0.294   2.723   3.917
  975SOL     OW 2932   1.458   2.597   4.452
  975SOL    HW1 2933   1.453   2.532   4.527
  975SOL    HW2 2934   1.538   2.656   4.465
  976SOL     OW 2935   1.111   3.638   3.961
  976SOL    HW1 2936   1.051   3.576   4.011
  976SOL    HW2 2937   1.142   3.594   3.876
  977SOL     OW 2938   1.632   3.239   3.805
  977SOL    HW1 2939   1.600   3.333   3.795
  977SOL    HW2 2940   1.556   3.176   3.793
  978SOL     OW 2941   0.464   3.605   4.047
  978SOL    HW1 2942   0.497   3.644   4.133
  978SOL    HW2 2943   0.540   3.598   3.982
  979SOL     OW 2944   1.400   1.969   4.150
  979SOL    HW1 2945   1.376   1.932   4.060
  979SOL    HW2 2946   1.499   1.985   4.154
  980SOL     OW 2947   0.940   3.560   4.628
  980SOL    HW1 2948   1.020   3.503   4.649
  980SOL    HW2 2949   0.891   3.520   4.551
  981SOL     OW 2950   0.382   2.562   4.204
  981SOL    HW1 2951   0.427   2.472   4.201
  981SOL    HW2 2952   0.288   2.551   4.237
  982SOL     OW 2953   0.614   1.984   3.841
  982SOL    HW1 2954   0.712   1.962   3.848
  982SOL    HW2 2955   0.583   1.967   3.748
  983SOL     OW 2956   0.539   1.926   4.236
  983SOL    HW1 2957   0.458   1.927   4.294
  983SOL    HW2 2958   0.542   2.009   4.181
  984SOL     OW 2959   1.434   3.050   3.765
  984SOL    HW1 2960   1.466   2.974   3.822
  984SOL    HW2 2961   1.342   3.077   3.795
  985SOL     OW 2962   0.297   1.897   3.895
  985SOL    HW1 2963   0.346   1.981   3.874
  985SOL    HW2 2964   0.359   1.832   3.940
  986SOL     OW 2965   0.935   2.098   4.204
  986SOL    HW1 2966   0.887   2.139   4.126
  986SOL    HW2 2967   1.034   2.096   4.185
  987SOL     OW 2968   0.459   3.014   4.465
  987SOL    HW1 2969   0.388   2.987   4.530
  987SOL    HW2 2970   0.433   2.986   4.372
  988SOL     OW 2971   1.271   3.659   4.315
  988SOL    HW1 2972   1.315   3.723   4.251
  988SOL    HW2 2973   1.221   3.711   4.385
  989SOL     OW 2974   1.032   2.411   3.740
  989SOL    HW1 2975   0.991   2.493   3.701
  989SOL    HW2 2976   1.096   2.437   3.813
  990SOL     OW 2977   0.866   2.316   4.366
  990SOL    HW1 2978   0.834   2.388   4.304
  990SOL    HW2 2979   0.890   2.235   4.313
  991SOL     OW 2980   1.857   2.695   4.101
  991SOL    HW1 2981   1.899   2.631   4.165
  991SOL    HW2 2982   1.819   2.644   4.023
  992SOL     OW 2983   0.488   3.247   3.898
  992SOL    HW1 2984   0.401   3.232   3.945
  992SOL    HW2 2985   0.471   3.273   3.803
  993SOL     OW 2986   1.664   3.142   4.381
  993SOL    HW1 2987   1.763   3.150   4.395
  993SOL    HW2 2988   1.619   3.226   4.412
  994SOL     OW 2989   1.390   2.437   3.802
  994SOL    HW1 2990   1.336   2.416   3.883
  994SOL    HW2 2991   1.481   2.396   3.811
  995SOL     OW 2992   0.527   2.118   4.052
  995SOL    HW1 2993   0.554   2.059   3.977
  995SOL    HW2 2994   0.527   2.213   4.021
  996SOL     OW 2995   0.705   2.912   4.092
  996SOL    HW1 2996   0.691   2.919   4.191
  996SOL    HW2 2997   0.789   2.861   4.074
  997SOL     OW 2998   0.367   2.962   4.225
  997SOL    HW1 2999   0.360   3.045   4.169
  997SOL    HW2 3000   0.371   2.882   4.165
  998SOL     OW 3001   1.252   3.210   4.112
  998SOL    HW1 3002   1.302   3.287   4.152
  998SOL    HW2 3003   1.157   3.212   4.144
  999SOL     OW 3004   1.582   2.501   4.196
  999SOL    HW1 3005   1.551   2.562   4.269
  999SOL    HW2 3006   1.632   2.553   4.127
 1000SOL     OW 3007   1.209   2.387   3.999
 1000SOL    HW1 3008   1.222   2.303   4.053
 1000SOL    HW2 3009   1.180   2.461   4.059
 1001SOL     OW 3010   0.307   1.925   4.342
 1001SOL    HW1 3011   0.296   2.019   4.375
 1001SOL    HW2 3012   0.302   1.862   4.419
 1002SOL     OW 3013   1.622   2.229   4.098
 1002SOL    HW1 3014   1.624   2.153   4.162
 1002SOL    HW2 3015   1.574   2.306   4.138
 1003SOL     OW 3016   1.023   2.628   4.690
 1003SOL    HW1 3017   1.038   2.649   4.786
 1003SOL    HW2 3018   0.993   2.533   4.681
 1004SOL     OW 3019   1.540   2.136   3.849
 1004SOL    HW1 3020   1.479   2.061   3.872
 1004SOL    HW2 3021   1.562   2.188   3.932
 1005SOL     OW 3022   1.303   2.700   3.766
 1005SOL    HW1 3023   1.337   2.607   3.781
 1005SOL    HW2 3024   1.321   2.727   3.671
 1006SOL     OW 3025   0.008   3.188   3.924
 1006SOL    HW1 3026  -0.085   3.209   3.893
 1006SOL    HW2 3027   0.018   3.089   3.937
 1007SOL     OW 3028   0.040   2.406   4.838
 1007SOL    HW1 3029   0.125   2.373   4.797
 1007SOL    HW2 3030   0.053   2.421   4.936
 1008SOL     OW 3031   0.815   2.434   4.049
 1008SOL    HW1 3032   0.822   2.345   4.003
 1008SOL    HW2 3033   0.721   2.468   4.041
 1009SOL     OW 3034   0.473   2.362   3.915
 1009SOL    HW1 3035   0.534   2.442   3.919
 1009SOL    HW2 3036   0.378   2.393   3.922
 1010SOL     OW 3037   1.302   2.717   4.033
 1010SOL    HW1 3038   1.216   2.686   4.075
 1010SOL    HW2 3039   1.298   2.703   3.934
 1011SOL     OW 3040   1.726   1.997   4.247
 1011SOL    HW1 3041   1.799   1.980   4.180
 1011SOL    HW2 3042   1.695   1.910   4.285
 1012SOL     OW 3043   1.388   3.435   4.201
 1012SOL    HW1 3044   1.455   3.447   4.127
 1012SOL    HW2 3045   1.348   3.524   4.224
 1013SOL     OW 3046   0.672   3.478   3.878
 1013SOL    HW1 3047   0.681   3.488   3.779
 1013SOL    HW2 3048   0.632   3.389   3.899
 1014SOL     OW 3049   1.841   2.037   4.687
 1014SOL    HW1 3050   1.880   1.952   4.651
 1014SOL    HW2 3051   1.743   2.039   4.668
 1015SOL     OW 3052   0.263   2.188   4.444
 1015SOL    HW1 3053   0.184   2.239   4.410
 1015SOL    HW2 3054   0.254   2.173   4.542
 1016SOL     OW 3055   1.194   3.474   3.755
 1016SOL    HW1 3056   1.200   3.381   3.792
 1016SOL    HW2 3057   1.135   3.474   3.675
 1017SOL     OW 3058   0.916   2.772   4.015
 1017SOL    HW1 3059   0.979   2.810   3.947
 1017SOL    HW2 3060   0.956   2.689   4.054
 1018SOL     OW 3061   1.504   3.469   3.768
 1018SOL    HW1 3062   1.412   3.506   3.775
 1018SOL    HW2 3063   1.542   3.489   3.678
 1019SOL     OW 3064   0.590   3.349   4.215
 1019SOL    HW1 3065   0.632   3.291   4.145
 1019SOL    HW2 3066   0.546   3.428   4.171
 1020SOL     OW 3067   0.255   3.210   4.014
 1020SOL    HW1 3068   0.159   3.211   3.987
 1020SOL    HW2 3069   0.267   3.263   4.098
 1021SOL     OW 3070   0.075   2.207   3.757
 1021SOL    HW1 3071  -0.017   2.179   3.728
 1021SOL    HW2 3072   0.106   2.284   3.701
 1022SOL     OW 3073   0.072   2.028   4.042
 1022SOL    HW1 3074   0.055   2.111   3.988
 1022SOL    HW2 3075   0.162   1.991   4.020
 1023SOL     OW 3076   1.183   3.197   3.843
 1023SOL    HW1 3077   1.084   3.186   3.845
 1023SOL    HW2 3078   1.217   3.212   3.936
 1024SOL     OW 3079   1.225   2.187   4.173
 1024SOL    HW1 3080   1.290   2.113   4.162
 1024SOL    HW2 3081   1.245   2.237   4.257
 1025SOL     OW 3082   0.594   2.607   4.376
 1025SOL    HW1 3083   0.644   2.692   4.357
 1025SOL    HW2 3084   0.506   2.609   4.328
 1026SOL     OW 3085   0.859   3.236   3.740
 1026SOL    HW1 3086   0.813   3.251   3.828
 1026SOL    HW2 3087   0.903   3.321   3.710
 1027SOL     OW 3088   0.661   3.652   4.677
 1027SOL    HW1 3089   0.615   3.740   4.664
 1027SOL    HW2 3090   0.760   3.664   4.670
 1028SOL     OW 3091   0.859   2.818   4.585
 1028SOL    HW1 3092   0.913   2.749   4.633
 1028SOL    HW2 3093   0.827   2.887   4.651
 1029SOL     OW 3094   1.083   2.846   3.811
 1029SOL    HW1 3095   1.060   2.899   3.729
 1029SOL    HW2 3096   1.164   2.790   3.792
 1030SOL     OW 3097   0.079   3.102   4.377
 1030SOL    HW1 3098   0.078   3.055   4.465
 1030SOL    HW2 3099   0.161   3.074   4.326
 1031SOL     OW 3100   0.428   2.286   4.244
 1031SOL    HW1 3101   0.458   2.214   4.182
 1031SOL    HW2 3102   0.389   2.246   4.327
 1032SOL     OW 3103   1.705   3.349   4.828
 1032SOL    HW1 3104   1.612   3.324   4.801
 1032SOL    HW2 3105   1.731   3.299   4.910
 1033SOL     OW 3106   0.812   3.448   4.411
 1033SOL    HW1 3107   0.844   3.458   4.317
 1033SOL    HW2 3108   0.733   3.386   4.413
 1034SOL     OW 3109   0.770   3.192   4.025
 1034SOL    HW1 3110   0.724   3.105   4.042
 1034SOL    HW2 3111   0.861   3.189   4.066
 1035SOL     OW 3112   1.352   1.914   3.892
 1035SOL    HW1 3113   1.387   1.873   3.808
 1035SOL    HW2 3114   1.262   1.876   3.912
 1036SOL     OW 3115   1.300   2.315   4.415
 1036SOL    HW1 3116   1.241   2.395   4.419
 1036SOL    HW2 3117   1.315   2.280   4.508
 1037SOL     OW 3118   0.039   2.939   4.024
 1037SOL    HW1 3119   0.138   2.928   4.015
 1037SOL    HW2 3120  -0.001   2.853   4.056
 1038SOL     OW 3121   0.875   3.508   4.061
 1038SOL    HW1 3122   0.798   3.473   4.007
 1038SOL    HW2 3123   0.843   3.579   4.123
 1039SOL     OW 3124   0.230   4.352   0.113
 1039SOL    HW1 3125   0.137   4.350   0.150
 1039SOL    HW2 3126   0.231   4.313   0.021
 1040SOL     OW 3127   0.225   3.999   0.996
 1040SOL    HW1 3128   0.260   3.982   1.088
 1040SOL    HW2 3129   0.137   3.954   0.984
 1041SOL     OW 3130   0.019   4.092   0.647
 1041SOL    HW1 3131  -0.063   4.135   0.686
 1041SOL    HW2 3132  -0.009   4.019   0.584
 1042SOL     OW 3133   1.755   4.331   0.231
 1042SOL    HW1 3134   1.743   4.318   0.132
 1042SOL    HW2 3135   1.725   4.250   0.280
 1043SOL     OW 3136   0.850   4.522   1.823
 1043SOL    HW1 3137   0.846   4.598   1.888
 1043SOL    HW2 3138   0.872   4.558   1.732
 1044SOL     OW 3139   0.685   4.736   0.665
 1044SOL    HW1 3140   0.754   4.720   0.735
 1044SOL    HW2 3141   0.612   4.793   0.703
 1045SOL     OW 3142   0.438   4.116   1.499
 1045SOL    HW1 3143   0.520   4.060   1.508
 1045SOL    HW2 3144   0.357   4.058   1.503
 1046SOL     OW 3145   1.603   4.171   0.737
 1046SOL    HW1 3146   1.529   4.217   0.687
 1046SOL    HW2 3147   1.654   4.239   0.790
 1047SOL     OW 3148   1.594   3.838   1.480
 1047SOL    HW1 3149   1.576   3.905   1.408
 1047SOL    HW2 3150   1.591   3.884   1.569
 1048SOL     OW 3151   0.122   4.367   0.563
 1048SOL    HW1 3152   0.077   4.279   0.580
 1048SOL    HW2 3153   0.121   4.421   0.647
 1049SOL     OW 3154   0.113   4.461   1.597
 1049SOL    HW1 3155   0.201   4.448   1.642
 1049SOL    HW2 3156   0.100   4.558   1.575
 1050SOL     OW 3157   0.809   3.728   0.502
 1050SOL    HW1 3158   0.849   3.819   0.493
 1050SOL    HW2 3159   0.709   3.736   0.508
 1051SOL     OW 3160   0.317   3.975   1.801
 1051SOL    HW1 3161   0.388   4.046   1.807
 1051SOL    HW2 3162   0.229   4.014   1.829
 1052SOL     OW 3163   0.598   4.453   0.270
 1052SOL    HW1 3164   0.622   4.522   0.202
 1052SOL    HW2 3165   0.520   4.486   0.324
 1053SOL     OW 3166   1.281   4.069   0.944
 1053SOL    HW1 3167   1.195   4.019   0.931
 1053SOL    HW2 3168   1.343   4.015   1.000
 1054SOL     OW 3169   0.807   4.329   1.465
 1054SOL    HW1 3170   0.760   4.326   1.554
 1054SOL    HW2 3171   0.756   4.274   1.399
 1055SOL     OW 3172   1.394   4.193   1.674
 1055SOL    HW1 3173   1.374   4.236   1.762
 1055SOL    HW2 3174   1.472   4.131   1.683
 1056SOL     OW 3175   0.991   4.134   1.242
 1056SOL    HW1 3176   0.914   4.168   1.296
 1056SOL    HW2 3177   0.957   4.083   1.163
 1057SOL     OW 3178   1.041   4.425   0.429
 1057SOL    HW1 3179   1.067   4.421   0.525
 1057SOL    HW2 3180   0.956   4.374   0.415
 1058SOL     OW 3181   0.076   4.535   0.789
 1058SOL    HW1 3182   0.175   4.523   0.798
 1058SOL    HW2 3183   0.052   4.630   0.810
 1059SOL     OW 3184   0.865   4.072   0.195
 1059SOL    HW1 3185   0.924   4.135   0.146
 1059SOL    HW2 3186   0.884   3.978   0.166
 1060SOL     OW 3187   1.719   4.309   1.831
 1060SOL    HW1 3188   1.693   4.398   1.795
 1060SOL    HW2 3189   1.717   4.241   1.758
 1061SOL     OW 3190   0.550   3.920   0.885
 1061SOL    HW1 3191   0.545   3.915   0.985
 1061SOL    HW2 3192   0.552   4.016   0.856
 1062SOL     OW 3193   1.458   4.459   0.728
 1062SOL    HW1 3194   1.453   4.394   0.803
 1062SOL    HW2 3195   1.538   4.518   0.741
 1063SOL     OW 3196   0.202   4.009   1.498
 1063SOL    HW1 3197   0.122   4.069   1.485
 1063SOL    HW2 3198   0.192   3.960   1.584
 1064SOL     OW 3199   1.400   3.831   0.426
 1064SOL    HW1 3200   1.376   3.794   0.336
 1064SOL    HW2 3201   1.499   3.847   0.430
 1065SOL     OW 3202   0.382   4.424   0.480
 1065SOL    HW1 3203   0.427   4.334   0.477
 1065SOL    HW2 3204   0.288   4.413   0.513
 1066SOL     OW 3205   1.547   3.946   1.729
 1066SOL    HW1 3206   1.542   3.983   1.821
 1066SOL    HW2 3207   1.475   3.877   1.717
 1067SOL     OW 3208   0.781   3.988   1.749
 1067SOL    HW1 3209   0.848   3.927   1.792
 1067SOL    HW2 3210   0.708   4.007   1.814
 1068SOL     OW 3211   1.351   4.314   1.433
 1068SOL    HW1 3212   1.379   4.271   1.518
 1068SOL    HW2 3213   1.376   4.410   1.434
 1069SOL     OW 3214   0.922   4.227   0.899
 1069SOL    HW1 3215   0.897   4.218   0.803
 1069SOL    HW2 3216   0.970   4.145   0.930
 1070SOL     OW 3217   0.539   3.788   0.512
 1070SOL    HW1 3218   0.458   3.789   0.570
 1070SOL    HW2 3219   0.542   3.871   0.457
 1071SOL     OW 3220   0.297   3.759   0.171
 1071SOL    HW1 3221   0.346   3.843   0.150
 1071SOL    HW2 3222   0.359   3.694   0.216
 1072SOL     OW 3223   0.935   3.960   0.480
 1072SOL    HW1 3224   0.887   4.001   0.402
 1072SOL    HW2 3225   1.034   3.958   0.461
 1073SOL     OW 3226   1.076   4.407   1.464
 1073SOL    HW1 3227   0.996   4.346   1.467
 1073SOL    HW2 3228   1.157   4.354   1.440
 1074SOL     OW 3229   1.032   4.273   0.016
 1074SOL    HW1 3230   0.991   4.355  -0.023
 1074SOL    HW2 3231   1.096   4.299   0.089
 1075SOL     OW 3232   0.078   4.280   1.386
 1075SOL    HW1 3233   0.170   4.279   1.345
 1075SOL    HW2 3234   0.072   4.354   1.453
 1076SOL     OW 3235   0.561   3.946   1.147
 1076SOL    HW1 3236   0.599   3.862   1.184
 1076SOL    HW2 3237   0.473   3.965   1.191
 1077SOL     OW 3238   0.866   4.178   0.642
 1077SOL    HW1 3239   0.834   4.250   0.580
 1077SOL    HW2 3240   0.890   4.097   0.589
 1078SOL     OW 3241   1.017   3.763   0.753
 1078SOL    HW1 3242   0.945   3.768   0.684
 1078SOL    HW2 3243   0.993   3.694   0.822
 1079SOL     OW 3244   1.466   4.314   0.992
 1079SOL    HW1 3245   1.436   4.219   0.999
 1079SOL    HW2 3246   1.539   4.330   1.058
 1080SOL     OW 3247   1.857   4.557   0.377
 1080SOL    HW1 3248   1.899   4.493   0.441
 1080SOL    HW2 3249   1.819   4.506   0.299
 1081SOL     OW 3250   1.390   4.299   0.078
 1081SOL    HW1 3251   1.336   4.278   0.159
 1081SOL    HW2 3252   1.481   4.258   0.087
 1082SOL     OW 3253   0.527   3.980   0.328
 1082SOL    HW1 3254   0.554   3.921   0.253
 1082SOL    HW2 3255   0.527   4.075   0.297
 1083SOL     OW 3256   0.915   3.813   1.402
 1083SOL    HW1 3257   0.940   3.793   1.307
 1083SOL    HW2 3258   0.987   3.869   1.444
 1084SOL     OW 3259   0.705   4.774   0.368
 1084SOL    HW1 3260   0.691   4.781   0.467
 1084SOL    HW2 3261   0.789   4.723   0.350
 1085SOL     OW 3262   0.410   4.537   1.251
 1085SOL    HW1 3263   0.496   4.549   1.301
 1085SOL    HW2 3264   0.368   4.450   1.278
 1086SOL     OW 3265   1.274   4.110   1.262
 1086SOL    HW1 3266   1.295   4.184   1.326
 1086SOL    HW2 3267   1.185   4.127   1.219
 1087SOL     OW 3268   0.566   4.261   0.865
 1087SOL    HW1 3269   0.578   4.327   0.791
 1087SOL    HW2 3270   0.612   4.295   0.948
 1088SOL     OW 3271   1.582   4.363   0.472
 1088SOL    HW1 3272   1.551   4.424   0.545
 1088SOL    HW2 3273   1.632   4.415   0.403
 1089SOL     OW 3274   1.587   4.503   1.670
 1089SOL    HW1 3275   1.495   4.541   1.665
 1089SOL    HW2 3276   1.647   4.550   1.605
 1090SOL     OW 3277   1.013   3.829   1.770
 1090SOL    HW1 3278   1.019   3.914   1.718
 1090SOL    HW2 3279   1.045   3.753   1.713
 1091SOL     OW 3280   0.504   3.774   1.740
 1091SOL    HW1 3281   0.462   3.717   1.670
 1091SOL    HW2 3282   0.438   3.843   1.772
 1092SOL     OW 3283   1.360   4.586   1.045
 1092SOL    HW1 3284   1.285   4.586   0.979
 1092SOL    HW2 3285   1.397   4.494   1.054
 1093SOL     OW 3286   1.209   4.249   0.275
 1093SOL    HW1 3287   1.222   4.165   0.329
 1093SOL    HW2 3288   1.180   4.323   0.335
 1094SOL     OW 3289   0.307   3.937   1.231
 1094SOL    HW1 3290   0.284   3.974   1.321
 1094SOL    HW2 3291   0.277   3.842   1.225
 1095SOL     OW 3292   0.732   4.358   1.064
 1095SOL    HW1 3293   0.791   4.332   0.988
 1095SOL    HW2 3294   0.704   4.454   1.053
 1096SOL     OW 3295   1.728   4.659   1.854
 1096SOL    HW1 3296   1.682   4.652   1.765
 1096SOL    HW2 3297   1.666   4.703   1.920
 1097SOL     OW 3298   0.307   3.787   0.618
 1097SOL    HW1 3299   0.296   3.881   0.651
 1097SOL    HW2 3300   0.302   3.724   0.695
 1098SOL     OW 3301   1.622   4.091   0.374
 1098SOL    HW1 3302   1.624   4.015   0.438
 1098SOL    HW2 3303   1.574   4.168   0.414
 1099SOL     OW 3304   1.540   3.998   0.125
 1099SOL    HW1 3305   1.479   3.923   0.148
 1099SOL    HW2 3306   1.562   4.050   0.208
 1100SOL     OW 3307   0.319   4.534   0.949
 1100SOL    HW1 3308   0.412   4.570   0.954
 1100SOL    HW2 3309   0.313   4.449   1.001
 1101SOL     OW 3310   0.339   4.233   1.006
 1101SOL    HW1 3311   0.287   4.150   0.989
 1101SOL    HW2 3312   0.416   4.238   0.942
 1102SOL     OW 3313   1.138   4.104   1.678
 1102SOL    HW1 3314   1.093   4.167   1.742
 1102SOL    HW2 3315   1.231   4.135   1.661
 1103SOL     OW 3316   1.160   3.931   1.477
 1103SOL    HW1 3317   1.160   3.995   1.554
 1103SOL    HW2 3318   1.188   3.979   1.394
 1104SOL     OW 3319   0.040   4.268   1.114
 1104SOL    HW1 3320   0.125   4.235   1.073
 1104SOL    HW2 3321   0.053   4.283   1.212
 1105SOL     OW 3322   0.189   4.244   1.722
 1105SOL    HW1 3323   0.248   4.204   1.652
 1105SOL    HW2 3324   0.131   4.315   1.681
 1106SOL     OW 3325   0.815   4.296   0.325
 1106SOL    HW1 3326   0.822   4.207   0.279
 1106SOL    HW2 3327   0.721   4.330   0.317
 1107SOL     OW 3328   1.657   4.328   1.206
 1107SOL    HW1 3329   1.619   4.259   1.268
 1107SOL    HW2 3330   1.739   4.292   1.162
 1108SOL     OW 3331   0.671   4.188   1.269
 1108SOL    HW1 3332   0.637   4.099   1.239
 1108SOL    HW2 3333   0.697   4.242   1.189
 1109SOL     OW 3334   0.473   4.224   0.191
 1109SOL    HW1 3335   0.534   4.304   0.195
 1109SOL    HW2 3336   0.378   4.255   0.198
 1110SOL     OW 3337   0.903   3.810   0.133
 1110SOL    HW1 3338   0.954   3.811   0.047
 1110SOL    HW2 3339   0.959   3.768   0.204
 1111SOL     OW 3340   1.726   3.859   0.523
 1111SOL    HW1 3341   1.799   3.842   0.456
 1111SOL    HW2 3342   1.695   3.772   0.561
 1112SOL     OW 3343   1.280   4.651   0.672
 1112SOL    HW1 3344   1.340   4.570   0.674
 1112SOL    HW2 3345   1.320   4.720   0.612
 1113SOL     OW 3346   1.841   3.899   0.963
 1113SOL    HW1 3347   1.880   3.814   0.927
 1113SOL    HW2 3348   1.743   3.901   0.944
 1114SOL     OW 3349   0.263   4.050   0.720
 1114SOL    HW1 3350   0.184   4.101   0.686
 1114SOL    HW2 3351   0.254   4.035   0.818
 1115SOL     OW 3352   1.014   3.960   0.971
 1115SOL    HW1 3353   1.006   3.924   0.878
 1115SOL    HW2 3354   1.012   3.884   1.036
 1116SOL     OW 3355   1.709   4.109   1.381
 1116SOL    HW1 3356   1.782   4.178   1.385
 1116SOL    HW2 3357   1.737   4.034   1.322
 1117SOL     OW 3358   0.105   4.737   1.726
 1117SOL    HW1 3359   0.028   4.704   1.780
 1117SOL    HW2 3360   0.190   4.707   1.768
 1118SOL     OW 3361   0.672   3.927   1.489
 1118SOL    HW1 3362   0.762   3.911   1.449
 1118SOL    HW2 3363   0.680   3.932   1.588
 1119SOL     OW 3364   0.075   4.069   0.033
 1119SOL    HW1 3365  -0.017   4.041   0.004
 1119SOL    HW2 3366   0.106   4.146  -0.023
 1120SOL     OW 3367   0.072   3.890   0.318
 1120SOL    HW1 3368   0.055   3.973   0.264
 1120SOL    HW2 3369   0.162   3.853   0.296
 1121SOL     OW 3370   0.716   4.289   1.708
 1121SOL    HW1 3371   0.735   4.354   1.782
 1121SOL    HW2 3372   0.776   4.209   1.717
 1122SOL     OW 3373   1.674   4.607   1.254
 1122SOL    HW1 3374   1.647   4.518   1.217
 1122SOL    HW2 3375   1.675   4.675   1.181
 1123SOL     OW 3376   1.225   4.049   0.449
 1123SOL    HW1 3377   1.290   3.975   0.438
 1123SOL    HW2 3378   1.245   4.099   0.533
 1124SOL     OW 3379   0.594   4.469   0.652
 1124SOL    HW1 3380   0.644   4.554   0.633
 1124SOL    HW2 3381   0.506   4.471   0.604
 1125SOL     OW 3382   1.777   4.066   1.642
 1125SOL    HW1 3383   1.760   4.097   1.548
 1125SOL    HW2 3384   1.693   4.029   1.680
 1126SOL     OW 3385   0.859   4.680   0.861
 1126SOL    HW1 3386   0.913   4.611   0.909
 1126SOL    HW2 3387   0.827   4.749   0.927
 1127SOL     OW 3388   1.824   3.916   1.227
 1127SOL    HW1 3389   1.820   3.826   1.271
 1127SOL    HW2 3390   1.827   3.905   1.128
 1128SOL     OW 3391   0.428   4.148   0.520
 1128SOL    HW1 3392   0.458   4.076   0.458
 1128SOL    HW2 3393   0.389   4.108   0.603
 1129SOL     OW 3394   0.317   4.271   1.280
 1129SOL    HW1 3395   0.355   4.212   1.352
 1129SOL    HW2 3396   0.357   4.245   1.192
 1130SOL     OW 3397   1.424   3.938   1.112
 1130SOL    HW1 3398   1.476   3.873   1.167
 1130SOL    HW2 3399   1.375   4.001   1.173
 1131SOL     OW 3400   1.001   3.758   1.154
 1131SOL    HW1 3401   0.938   3.686   1.123
 1131SOL    HW2 3402   1.094   3.722   1.154
 1132SOL     OW 3403   1.352   3.776   0.168
 1132SOL    HW1 3404   1.387   3.735   0.084
 1132SOL    HW2 3405   1.262   3.738   0.188
 1133SOL     OW 3406   1.300   4.177   0.691
 1133SOL    HW1 3407   1.241   4.257   0.695
 1133SOL    HW2 3408   1.315   4.142   0.784
 1134SOL     OW 3409   1.593   3.945   0.882
 1134SOL    HW1 3410   1.509   3.944   0.936
 1134SOL    HW2 3411   1.595   4.028   0.826
 1135SOL     OW 3412   0.230   4.352   1.975
 1135SOL    HW1 3413   0.137   4.350   2.012
 1135SOL    HW2 3414   0.231   4.313   1.883
 1136SOL     OW 3415   0.225   3.999   2.858
 1136SOL    HW1 3416   0.260   3.982   2.950
 1136SOL    HW2 3417   0.137   3.954   2.846
 1137SOL     OW 3418   0.019   4.092   2.509
 1137SOL    HW1 3419  -0.063   4.135   2.548
 1137SOL    HW2 3420  -0.009   4.019   2.446
 1138SOL     OW 3421   1.755   4.331   2.093
 1138SOL    HW1 3422   1.743   4.318   1.994
 1138SOL    HW2 3423   1.725   4.250   2.142
 1139SOL     OW 3424   0.850   4.522   3.685
 1139SOL    HW1 3425   0.846   4.598   3.750
 1139SOL    HW2 3426   0.872   4.558   3.594
 1140SOL     OW 3427   0.685   4.736   2.527
 1140SOL    HW1 3428   0.754   4.720   2.597
 1140SOL    HW2 3429   0.612   4.793   2.565
 1141SOL     OW 3430   0.438   4.116   3.361
 1141SOL    HW1 3431   0.520   4.060   3.370
 1141SOL    HW2 3432   0.357   4.058   3.365
 1142SOL     OW 3433   1.603   4.171   2.599
 1142SOL    HW1 3434   1.529   4.217   2.549
 1142SOL    HW2 3435   1.654   4.239   2.652
 1143SOL     OW 3436   1.594   3.838   3.342
 1143SOL    HW1 3437   1.576   3.905   3.270
 1143SOL    HW2 3438   1.591   3.884   3.431
 1144SOL     OW 3439   0.122   4.367   2.425
 1144SOL    HW1 3440   0.077   4.279   2.442
 1144SOL    HW2 3441   0.121   4.421   2.509
 1145SOL     OW 3442   0.113   4.461   3.459
 1145SOL    HW1 3443   0.201   4.448   3.504
 1145SOL    HW2 3444   0.100   4.558   3.437
 1146SOL     OW 3445   0.809   3.728   2.364
 1146SOL    HW1 3446   0.849   3.819   2.355
 1146SOL    HW2 3447   0.709   3.736   2.370
 1147SOL     OW 3448   0.317   3.975   3.663
 1147SOL    HW1 3449   0.388   4.046   3.669
 1147SOL    HW2 3450   0.229   4.014   3.691
 1148SOL     OW 3451   0.598   4.453   2.132
 1148SOL    HW1 3452   0.622   4.522   2.064
 1148SOL    HW2 3453   0.520   4.486   2.186
 1149SOL     OW 3454   1.281   4.069   2.806
 1149SOL    HW1 3455   1.195   4.019   2.793
 1149SOL    HW2 3456   1.343   4.015   2.862
 1150SOL     OW 3457   0.807   4.329   3.327
 1150SOL    HW1 3458   0.760   4.326   3.416
 1150SOL    HW2 3459   0.756   4.274   3.261
 1151SOL     OW 3460   1.394   4.193   3.536
 1151SOL    HW1 3461   1.374   4.236   3.624
 1151SOL    HW2 3462   1.472   4.131   3.545
 1152SOL     OW 3463   0.991   4.134   3.104
 1152SOL    HW1 3464   0.914   4.168   3.158
 1152SOL    HW2 3465   0.957   4.083   3.025
 1153SOL     OW 3466   1.041   4.425   2.291
 1153SOL    HW1 3467   1.067   4.421   2.387
 1153SOL    HW2 3468   0.956   4.374   2.277
 1154SOL     OW 3469   0.076   4.535   2.651
 1154SOL    HW1 3470   0.175   4.523   2.660
 1154SOL    HW2 3471   0.052   4.630   2.672
 1155SOL     OW 3472   0.865   4.072   2.057
 1155SOL    HW1 3473   0.924   4.135   2.008
 1155SOL    HW2 3474   0.884   3.978   2.028
 1156SOL     OW 3475   1.719   4.309   3.693
 1156SOL    HW1 3476   1.693   4.398   3.657
 1156SOL    HW2 3477   1.717   4.241   3.620
 1157SOL     OW 3478   0.550   3.920   2.747
 1157SOL    HW1 3479   0.545   3.915   2.847
 1157SOL    HW2 3480   0.552   4.016   2.718
 1158SOL     OW 3481   1.458   4.459   2.590
 1158SOL    HW1 3482   1.453   4.394   2.665
 1158SOL    HW2 3483   1.538   4.518   2.603
 1159SOL     OW 3484   0.202   4.009   3.360
 1159SOL    HW1 3485   0.122   4.069   3.347
 1159SOL    HW2 3486   0.192   3.960   3.446
 1160SOL     OW 3487   1.400   3.831   2.288
 1160SOL    HW1 3488   1.376   3.794   2.198
 1160SOL    HW2 3489   1.499   3.847   2.292
 1161SOL     OW 3490   0.382   4.424   2.342
 1161SOL    HW1 3491   0.427   4.334   2.339
 1161SOL    HW2 3492   0.288   4.413   2.375
 1162SOL     OW 3493   1.547   3.946   3.591
 1162SOL    HW1 3494   1.542   3.983   3.683
 1162SOL    HW2 3495   1.475   3.877   3.579
 1163SOL     OW 3496   0.614   3.846   1.979
 1163SOL    HW1 3497   0.712   3.824   1.986
 1163SOL    HW2 3498   0.583   3.829   1.886
 1164SOL     OW 3499   0.781   3.988   3.611
 1164SOL    HW1 3500   0.848   3.927   3.654
 1164SOL    HW2 3501   0.708   4.007   3.676
 1165SOL     OW 3502   1.351   4.314   3.295
 1165SOL    HW1 3503   1.379   4.271   3.380
 1165SOL    HW2 3504   1.376   4.410   3.296
 1166SOL     OW 3505   0.922   4.227   2.761
 1166SOL    HW1 3506   0.897   4.218   2.665
 1166SOL    HW2 3507   0.970   4.145   2.792
 1167SOL     OW 3508   0.539   3.788   2.374
 1167SOL    HW1 3509   0.458   3.789   2.432
 1167SOL    HW2 3510   0.542   3.871   2.319
 1168SOL     OW 3511   0.297   3.759   2.033
 1168SOL    HW1 3512   0.346   3.843   2.012
 1168SOL    HW2 3513   0.359   3.694   2.078
 1169SOL     OW 3514   0.935   3.960   2.342
 1169SOL    HW1 3515   0.887   4.001   2.264
 1169SOL    HW2 3516   1.034   3.958   2.323
 1170SOL     OW 3517   1.076   4.407   3.326
 1170SOL    HW1 3518   0.996   4.346   3.329
 1170SOL    HW2 3519   1.157   4.354   3.302
 1171SOL     OW 3520   1.032   4.273   1.878
 1171SOL    HW1 3521   0.991   4.355   1.839
 1171SOL    HW2 3522   1.096   4.299   1.951
 1172SOL     OW 3523   0.078   4.280   3.248
 1172SOL    HW1 3524   0.170   4.279   3.207
 1172SOL    HW2 3525   0.072   4.354   3.315
 1173SOL     OW 3526   0.561   3.946   3.009
 1173SOL    HW1 3527   0.599   3.862   3.046
 1173SOL    HW2 3528   0.473   3.965   3.053
 1174SOL     OW 3529   0.866   4.178   2.504
 1174SOL    HW1 3530   0.834   4.250   2.442
 1174SOL    HW2 3531   0.890   4.097   2.451
 1175SOL     OW 3532   1.017   3.763   2.615
 1175SOL    HW1 3533   0.945   3.768   2.546
 1175SOL    HW2 3534   0.993   3.694   2.684
 1176SOL     OW 3535   1.466   4.314   2.854
 1176SOL    HW1 3536   1.436   4.219   2.861
 1176SOL    HW2 3537   1.539   4.330   2.920
 1177SOL     OW 3538   1.857   4.557   2.239
 1177SOL    HW1 3539   1.899   4.493   2.303
 1177SOL    HW2 3540   1.819   4.506   2.161
 1178SOL     OW 3541   1.390   4.299   1.940
 1178SOL    HW1 3542   1.336   4.278   2.021
 1178SOL    HW2 3543   1.481   4.258   1.949
 1179SOL     OW 3544   0.527   3.980   2.190
 1179SOL    HW1 3545   0.554   3.921   2.115
 1179SOL    HW2 3546   0.527   4.075   2.159
 1180SOL     OW 3547   0.915   3.813   3.264
 1180SOL    HW1 3548   0.940   3.793   3.169
 1180SOL    HW2 3549   0.987   3.869   3.306
 1181SOL     OW 3550   0.705   4.774   2.230
 1181SOL    HW1 3551   0.691   4.781   2.329
 1181SOL    HW2 3552   0.789   4.723   2.212
 1182SOL     OW 3553   0.410   4.537   3.113
 1182SOL    HW1 3554   0.496   4.549   3.163
 1182SOL    HW2 3555   0.368   4.450   3.140
 1183SOL     OW 3556   1.274   4.110   3.124
 1183SOL    HW1 3557   1.295   4.184   3.188
 1183SOL    HW2 3558   1.185   4.127   3.081
 1184SOL     OW 3559   0.566   4.261   2.727
 1184SOL    HW1 3560   0.578   4.327   2.653
 1184SOL    HW2 3561   0.612   4.295   2.810
 1185SOL     OW 3562   1.582   4.363   2.334
 1185SOL    HW1 3563   1.551   4.424   2.407
 1185SOL    HW2 3564   1.632   4.415   2.265
 1186SOL     OW 3565   1.587   4.503   3.532
 1186SOL    HW1 3566   1.495   4.541   3.527
 1186SOL    HW2 3567   1.647   4.550   3.467
 1187SOL     OW 3568   1.013   3.829   3.632
 1187SOL    HW1 3569   1.019   3.914   3.580
 1187SOL    HW2 3570   1.045   3.753   3.575
 1188SOL     OW 3571   0.504   3.774   3.602
 1188SOL    HW1 3572   0.462   3.717   3.532
 1188SOL    HW2 3573   0.438   3.843   3.634
 1189SOL     OW 3574   1.360   4.586   2.907
 1189SOL    HW1 3575   1.285   4.586   2.841
 1189SOL    HW2 3576   1.397   4.494   2.916
 1190SOL     OW 3577   1.209   4.249   2.137
 1190SOL    HW1 3578   1.222   4.165   2.191
 1190SOL    HW2 3579   1.180   4.323   2.197
 1191SOL     OW 3580   0.307   3.937   3.093
 1191SOL    HW1 3581   0.284   3.974   3.183
 1191SOL    HW2 3582   0.277   3.842   3.087
 1192SOL     OW 3583   0.732   4.358   2.926
 1192SOL    HW1 3584   0.791   4.332   2.850
 1192SOL    HW2 3585   0.704   4.454   2.915
 1193SOL     OW 3586   1.728   4.659   3.716
 1193SOL    HW1 3587   1.682   4.652   3.627
 1193SOL    HW2 3588   1.666   4.703   3.782
 1194SOL     OW 3589   0.307   3.787   2.480
 1194SOL    HW1 3590   0.296   3.881   2.513
 1194SOL    HW2 3591   0.302   3.724   2.557
 1195SOL     OW 3592   1.622   4.091   2.236
 1195SOL    HW1 3593   1.624   4.015   2.300
 1195SOL    HW2 3594   1.574   4.168   2.276
 1196SOL     OW 3595   1.540   3.998   1.987
 1196SOL    HW1 3596   1.479   3.923   2.010
 1196SOL    HW2 3597   1.562   4.050   2.070
 1197SOL     OW 3598   0.319   4.534   2.811
 1197SOL    HW1 3599   0.412   4.570   2.816
 1197SOL    HW2 3600   0.313   4.449   2.863
 1198SOL     OW 3601   0.339   4.233   2.868
 1198SOL    HW1 3602   0.287   4.150   2.851
 1198SOL    HW2 3603   0.416   4.238   2.804
 1199SOL     OW 3604   1.138   4.104   3.540
 1199SOL    HW1 3605   1.093   4.167   3.604
 1199SOL    HW2 3606   1.231   4.135   3.523
 1200SOL     OW 3607   1.160   3.931   3.339
 1200SOL    HW1 3608   1.160   3.995   3.416
 1200SOL    HW2 3609   1.188   3.979   3.256
 1201SOL     OW 3610   0.040   4.268   2.976
 1201SOL    HW1 3611   0.125   4.235   2.935
 1201SOL    HW2 3612   0.053   4.283   3.074
 1202SOL     OW 3613   0.189   4.244   3.584
 1202SOL    HW1 3614   0.248   4.204   3.514
 1202SOL    HW2 3615   0.131   4.315   3.543
 1203SOL     OW 3616   0.815   4.296   2.187
 1203SOL    HW1 3617   0.822   4.207   2.141
 1203SOL    HW2 3618   0.721   4.330   2.179
 1204SOL     OW 3619   1.657   4.328   3.068
 1204SOL    HW1 3620   1.619   4.259   3.130
 1204SOL    HW2 3621   1.739   4.292   3.024
 1205SOL     OW 3622   0.671   4.188   3.131
 1205SOL    HW1 3623   0.637   4.099   3.101
 1205SOL    HW2 3624   0.697   4.242   3.051
 1206SOL     OW 3625   0.473   4.224   2.053
 1206SOL    HW1 3626   0.534   4.304   2.057
 1206SOL    HW2 3627   0.378   4.255   2.060
 1207SOL     OW 3628   1.726   3.859   2.385
 1207SOL    HW1 3629   1.799   3.842   2.318
 1207SOL    HW2 3630   1.695   3.772   2.423
 1208SOL     OW 3631   1.280   4.651   2.534
 1208SOL    HW1 3632   1.340   4.570   2.536
 1208SOL    HW2 3633   1.320   4.720   2.474
 1209SOL     OW 3634   1.841   3.899   2.825
 1209SOL    HW1 3635   1.880   3.814   2.789
 1209SOL    HW2 3636   1.743   3.901   2.806
 1210SOL     OW 3637   0.263   4.050   2.582
 1210SOL    HW1 3638   0.184   4.101   2.548
 1210SOL    HW2 3639   0.254   4.035   2.680
 1211SOL     OW 3640   0.916   4.634   2.153
 1211SOL    HW1 3641   0.979   4.672   2.085
 1211SOL    HW2 3642   0.956   4.551   2.192
 1212SOL     OW 3643   1.014   3.960   2.833
 1212SOL    HW1 3644   1.006   3.924   2.740
 1212SOL    HW2 3645   1.012   3.884   2.898
 1213SOL     OW 3646   1.709   4.109   3.243
 1213SOL    HW1 3647   1.782   4.178   3.247
 1213SOL    HW2 3648   1.737   4.034   3.184
 1214SOL     OW 3649   0.105   4.737   3.588
 1214SOL    HW1 3650   0.028   4.704   3.642
 1214SOL    HW2 3651   0.190   4.707   3.630
 1215SOL     OW 3652   0.672   3.927   3.351
 1215SOL    HW1 3653   0.762   3.911   3.311
 1215SOL    HW2 3654   0.680   3.932   3.450
 1216SOL     OW 3655   0.075   4.069   1.895
 1216SOL    HW1 3656  -0.017   4.041   1.866
 1216SOL    HW2 3657   0.106   4.146   1.839
 1217SOL     OW 3658   0.072   3.890   2.180
 1217SOL    HW1 3659   0.055   3.973   2.126
 1217SOL    HW2 3660   0.162   3.853   2.158
 1218SOL     OW 3661   0.716   4.289   3.570
 1218SOL    HW1 3662   0.735   4.354   3.644
 1218SOL    HW2 3663   0.776   4.209   3.579
 1219SOL     OW 3664   1.674   4.607   3.116
 1219SOL    HW1 3665   1.647   4.518   3.079
 1219SOL    HW2 3666   1.675   4.675   3.043
 1220SOL     OW 3667   1.225   4.049   2.311
 1220SOL    HW1 3668   1.290   3.975   2.300
 1220SOL    HW2 3669   1.245   4.099   2.395
 1221SOL     OW 3670   0.594   4.469   2.514
 1221SOL    HW1 3671   0.644   4.554   2.495
 1221SOL    HW2 3672   0.506   4.471   2.466
 1222SOL     OW 3673   1.777   4.066   3.504
 1222SOL    HW1 3674   1.760   4.097   3.410
 1222SOL    HW2 3675   1.693   4.029   3.542
 1223SOL     OW 3676   0.859   4.680   2.723
 1223SOL    HW1 3677   0.913   4.611   2.771
 1223SOL    HW2 3678   0.827   4.749   2.789
 1224SOL     OW 3679   1.824   3.916   3.089
 1224SOL    HW1 3680   1.820   3.826   3.133
 1224SOL    HW2 3681   1.827   3.905   2.990
 1225SOL     OW 3682   0.428   4.148   2.382
 1225SOL    HW1 3683   0.458   4.076   2.320
 1225SOL    HW2 3684   0.389   4.108   2.465
 1226SOL     OW 3685   0.317   4.271   3.142
 1226SOL    HW1 3686   0.355   4.212   3.214
 1226SOL    HW2 3687   0.357   4.245   3.054
 1227SOL     OW 3688   1.424   3.938   2.974
 1227SOL    HW1 3689   1.476   3.873   3.029
 1227SOL    HW2 3690   1.375   4.001   3.035
 1228SOL     OW 3691   1.001   3.758   3.016
 1228SOL    HW1 3692   0.938   3.686   2.985
 1228SOL    HW2 3693   1.094   3.722   3.016
 1229SOL     OW 3694   1.352   3.776   2.030
 1229SOL    HW1 3695   1.387   3.735   1.946
 1229SOL    HW2 3696   1.262   3.738   2.050
 1230SOL     OW 3697   1.300   4.177   2.553
 1230SOL    HW1 3698   1.241   4.257   2.557
 1230SOL    HW2 3699   1.315   4.142   2.646
 1231SOL     OW 3700   1.593   3.945   2.744
 1231SOL    HW1 3701   1.509   3.944   2.798
 1231SOL    HW2 3702   1.595   4.028   2.688
 1232SOL     OW 3703   0.230   4.352   3.837
 1232SOL    HW1 3704   0.137   4.350   3.874
 1232SOL    HW2 3705   0.231   4.313   3.745
 1233SOL     OW 3706   0.225   3.999   4.720
 1233SOL    HW1 3707   0.260   3.982   4.812
 1233SOL    HW2 3708   0.137   3.954   4.708
 1234SOL     OW 3709   0.019   4.092   4.371
 1234SOL    HW1 3710  -0.063   4.135   4.410
 1234SOL    HW2 3711  -0.009   4.019   4.308
 1235SOL     OW 3712   1.755   4.331   3.955
 1235SOL    HW1 3713   1.743   4.318   3.856
 1235SOL    HW2 3714   1.725   4.250   4.004
 1236SOL     OW 3715   0.685   4.736   4.389
 1236SOL    HW1 3716   0.754   4.720   4.459
 1236SOL    HW2 3717   0.612   4.793   4.427
 1237SOL     OW 3718   1.603   4.171   4.461
 1237SOL    HW1 3719   1.529   4.217   4.411
 1237SOL    HW2 3720   1.654   4.239   4.514
 1238SOL     OW 3721   0.122   4.367   4.287
 1238SOL    HW1 3722   0.077   4.279   4.304
 1238SOL    HW2 3723   0.121   4.421   4.371
 1239SOL     OW 3724   0.809   3.728   4.226
 1239SOL    HW1 3725   0.849   3.819   4.217
 1239SOL    HW2 3726   0.709   3.736   4.232
 1240SOL     OW 3727   0.598   4.453   3.994
 1240SOL    HW1 3728   0.622   4.522   3.926
 1240SOL    HW2 3729   0.520   4.486   4.048
 1241SOL     OW 3730   1.281   4.069   4.668
 1241SOL    HW1 3731   1.195   4.019   4.655
 1241SOL    HW2 3732   1.343   4.015   4.724
 1242SOL     OW 3733   1.041   4.425   4.153
 1242SOL    HW1 3734   1.067   4.421   4.249
 1242SOL    HW2 3735   0.956   4.374   4.139
 1243SOL     OW 3736   0.076   4.535   4.513
 1243SOL    HW1 3737   0.175   4.523   4.522
 1243SOL    HW2 3738   0.052   4.630   4.534
 1244SOL     OW 3739   0.865   4.072   3.919
 1244SOL    HW1 3740   0.924   4.135   3.870
 1244SOL    HW2 3741   0.884   3.978   3.890
 1245SOL     OW 3742   1.458   4.459   4.452
 1245SOL    HW1 3743   1.453   4.394   4.527
 1245SOL    HW2 3744   1.538   4.518   4.465
 1246SOL     OW 3745   1.400   3.831   4.150
 1246SOL    HW1 3746   1.376   3.794   4.060
 1246SOL    HW2 3747   1.499   3.847   4.154
 1247SOL     OW 3748   0.382   4.424   4.204
 1247SOL    HW1 3749   0.427   4.334   4.201
 1247SOL    HW2 3750   0.288   4.413   4.237
 1248SOL     OW 3751   0.614   3.846   3.841
 1248SOL    HW1 3752   0.712   3.824   3.848
 1248SOL    HW2 3753   0.583   3.829   3.748
 1249SOL     OW 3754   0.539   3.788   4.236
 1249SOL    HW1 3755   0.458   3.789   4.294
 1249SOL    HW2 3756   0.542   3.871   4.181
 1250SOL     OW 3757   0.297   3.759   3.895
 1250SOL    HW1 3758   0.346   3.843   3.874
 1250SOL    HW2 3759   0.359   3.694   3.940
 1251SOL     OW 3760   0.935   3.960   4.204
 1251SOL    HW1 3761   0.887   4.001   4.126
 1251SOL    HW2 3762   1.034   3.958   4.185
 1252SOL     OW 3763   1.032   4.273   3.740
 1252SOL    HW1 3764   0.991   4.355   3.701
 1252SOL    HW2 3765   1.096   4.299   3.813
 1253SOL     OW 3766   0.866   4.178   4.366
 1253SOL    HW1 3767   0.834   4.250   4.304
 1253SOL    HW2 3768   0.890   4.097   4.313
 1254SOL     OW 3769   1.857   4.557   4.101
 1254SOL    HW1 3770   1.899   4.493   4.165
 1254SOL    HW2 3771   1.819   4.506   4.023
 1255SOL     OW 3772   1.390   4.299   3.802
 1255SOL    HW1 3773   1.336   4.278   3.883
 1255SOL    HW2 3774   1.481   4.258   3.811
 1256SOL     OW 3775   0.527   3.980   4.052
 1256SOL    HW1 3776   0.554   3.921   3.977
 1256SOL    HW2 3777   0.527   4.075   4.021
 1257SOL     OW 3778   0.705   4.774   4.092
 1257SOL    HW1 3779   0.691   4.781   4.191
 1257SOL    HW2 3780   0.789   4.723   4.074
 1258SOL     OW 3781   1.582   4.363   4.196
 1258SOL    HW1 3782   1.551   4.424   4.269
 1258SOL    HW2 3783   1.632   4.415   4.127
 1259SOL     OW 3784   1.209   4.249   3.999
 1259SOL    HW1 3785   1.222   4.165   4.053
 1259SOL    HW2 3786   1.180   4.323   4.059
 1260SOL     OW 3787   0.307   3.787   4.342
 1260SOL    HW1 3788   0.296   3.881   4.375
 1260SOL    HW2 3789   0.302   3.724   4.419
 1261SOL     OW 3790   1.622   4.091   4.098
 1261SOL    HW1 3791   1.624   4.015   4.162
 1261SOL    HW2 3792   1.574   4.168   4.138
 1262SOL     OW 3793   1.540   3.998   3.849
 1262SOL    HW1 3794   1.479   3.923   3.872
 1262SOL    HW2 3795   1.562   4.050   3.932
 1263SOL     OW 3796   0.040   4.268   4.838
 1263SOL    HW1 3797   0.125   4.235   4.797
 1263SOL    HW2 3798   0.053   4.283   4.936
 1264SOL     OW 3799   0.815   4.296   4.049
 1264SOL    HW1 3800   0.822   4.207   4.003
 1264SOL    HW2 3801   0.721   4.330   4.041
 1265SOL     OW 3802   0.473   4.224   3.915
 1265SOL    HW1 3803   0.534   4.304   3.919
 1265SOL    HW2 3804   0.378   4.255   3.922
 1266SOL     OW 3805   1.726   3.859   4.247
 1266SOL    HW1 3806   1.799   3.842   4.180
 1266SOL    HW2 3807   1.695   3.772   4.285
 1267SOL     OW 3808   1.280   4.651   4.396
 1267SOL    HW1 3809   1.340   4.570   4.398
 1267SOL    HW2 3810   1.320   4.720   4.336
 1268SOL     OW 3811   1.841   3.899   4.687
 1268SOL    HW1 3812   1.880   3.814   4.651
 1268SOL    HW2 3813   1.743   3.901   4.668
 1269SOL     OW 3814   0.263   4.050   4.444
 1269SOL    HW1 3815   0.184   4.101   4.410
 1269SOL    HW2 3816   0.254   4.035   4.542
 1270SOL     OW 3817   0.916   4.634   4.015
 1270SOL    HW1 3818   0.979   4.672   3.947
 1270SOL    HW2 3819   0.956   4.551   4.054
 1271SOL     OW 3820   1.039   4.822   4.420
 1271SOL    HW1 3821   0.969   4.775   4.474
 1271SOL    HW2 3822   1.098   4.754   4.377
 1272SOL     OW 3823   0.075   4.069   3.757
 1272SOL    HW1 3824  -0.017   4.041   3.728
 1272SOL    HW2 3825   0.106   4.146   3.701
 1273SOL     OW 3826   0.072   3.890   4.042
 1273SOL    HW1 3827   0.055   3.973   3.988
 1273SOL    HW2 3828   0.162   3.853   4.020
 1274SOL     OW 3829   1.225   4.049   4.173
 1274SOL    HW1 3830   1.290   3.975   4.162
 1274SOL    HW2 3831   1.245   4.099   4.257
 1275SOL     OW 3832   0.594   4.469   4.376
 1275SOL    HW1 3833   0.644   4.554   4.357
 1275SOL    HW2 3834   0.506   4.471   4.328
 1276SOL     OW 3835   0.428   4.148   4.244
 1276SOL    HW1 3836   0.458   4.076   4.182
 1276SOL    HW2 3837   0.389   4.108   4.327
 1277SOL     OW 3838   1.352   3.776   3.892
 1277SOL    HW1 3839   1.387   3.735   3.808
 1277SOL    HW2 3840   1.262   3.738   3.912
 1278SOL     OW 3841   1.300   4.177   4.415
 1278SOL    HW1 3842   1.241   4.257   4.419
 1278SOL    HW2 3843   1.315   4.142   4.508
 1279SOL     OW 3844   2.092   0.628   0.113
 1279SOL    HW1 3845   1.999   0.626   0.150
 1279SOL    HW2 3846   2.093   0.589   0.021
 1280SOL     OW 3847   2.087   0.275   0.996
 1280SOL    HW1 3848   2.122   0.258   1.088
 1280SOL    HW2 3849   1.999   0.230   0.984
 1281SOL     OW 3850   1.881   0.368   0.647
 1281SOL    HW1 3851   1.799   0.411   0.686
 1281SOL    HW2 3852   1.853   0.295   0.584
 1282SOL     OW 3853   2.431   1.275   1.165
 1282SOL    HW1 3854   2.338   1.268   1.128
 1282SOL    HW2 3855   2.442   1.364   1.209
 1283SOL     OW 3856   3.417   1.511   0.703
 1283SOL    HW1 3857   3.360   1.495   0.784
 1283SOL    HW2 3858   3.358   1.521   0.623
 1284SOL     OW 3859   2.997   0.703   0.717
 1284SOL    HW1 3860   3.054   0.781   0.692
 1284SOL    HW2 3861   2.937   0.729   0.793
 1285SOL     OW 3862   3.617   0.607   0.231
 1285SOL    HW1 3863   3.605   0.594   0.132
 1285SOL    HW2 3864   3.587   0.526   0.280
 1286SOL     OW 3865   2.630   1.144   1.023
 1286SOL    HW1 3866   2.552   1.161   1.083
 1286SOL    HW2 3867   2.664   1.231   0.987
 1287SOL     OW 3868   2.712   0.798   1.823
 1287SOL    HW1 3869   2.708   0.874   1.888
 1287SOL    HW2 3870   2.734   0.834   1.732
 1288SOL     OW 3871   2.547   1.012   0.665
 1288SOL    HW1 3872   2.616   0.996   0.735
 1288SOL    HW2 3873   2.474   1.069   0.703
 1289SOL     OW 3874   2.548   1.161   1.803
 1289SOL    HW1 3875   2.608   1.240   1.817
 1289SOL    HW2 3876   2.462   1.192   1.762
 1290SOL     OW 3877   2.197   1.435   1.061
 1290SOL    HW1 3878   2.119   1.404   1.008
 1290SOL    HW2 3879   2.255   1.493   1.004
 1291SOL     OW 3880   3.322   1.505   1.339
 1291SOL    HW1 3881   3.346   1.599   1.365
 1291SOL    HW2 3882   3.306   1.451   1.421
 1292SOL     OW 3883   2.300   0.392   1.499
 1292SOL    HW1 3884   2.382   0.336   1.508
 1292SOL    HW2 3885   2.219   0.334   1.503
 1293SOL     OW 3886   3.465   0.447   0.737
 1293SOL    HW1 3887   3.391   0.493   0.687
 1293SOL    HW2 3888   3.516   0.515   0.790
 1294SOL     OW 3889   2.093   1.713   0.483
 1294SOL    HW1 3890   2.127   1.790   0.537
 1294SOL    HW2 3891   2.137   1.713   0.393
 1295SOL     OW 3892   2.989   1.341   1.690
 1295SOL    HW1 3893   3.036   1.341   1.778
 1295SOL    HW2 3894   2.941   1.254   1.679
 1296SOL     OW 3895   2.092   1.434   0.538
 1296SOL    HW1 3896   2.066   1.530   0.538
 1296SOL    HW2 3897   2.021   1.380   0.583
 1297SOL     OW 3898   2.102   1.091   0.886
 1297SOL    HW1 3899   2.116   1.007   0.938
 1297SOL    HW2 3900   2.047   1.155   0.941
 1298SOL     OW 3901   2.482   1.786   1.439
 1298SOL    HW1 3902   2.390   1.769   1.474
 1298SOL    HW2 3903   2.510   1.878   1.465
 1299SOL     OW 3904   2.468   0.964   0.123
 1299SOL    HW1 3905   2.475   1.048   0.069
 1299SOL    HW2 3906   2.514   0.977   0.211
 1300SOL     OW 3907   3.456   0.114   1.480
 1300SOL    HW1 3908   3.438   0.181   1.408
 1300SOL    HW2 3909   3.453   0.160   1.569
 1301SOL     OW 3910   1.984   0.643   0.563
 1301SOL    HW1 3911   1.939   0.555   0.580
 1301SOL    HW2 3912   1.983   0.697   0.647
 1302SOL     OW 3913   3.704   1.767   0.359
 1302SOL    HW1 3914   3.758   1.738   0.439
 1302SOL    HW2 3915   3.734   1.857   0.330
 1303SOL     OW 3916   1.889   1.596   0.117
 1303SOL    HW1 3917   1.870   1.500   0.138
 1303SOL    HW2 3918   1.856   1.654   0.192
 1304SOL     OW 3919   3.551   0.922   0.612
 1304SOL    HW1 3920   3.646   0.893   0.620
 1304SOL    HW2 3921   3.543   0.987   0.537
 1305SOL     OW 3922   3.503   1.108   0.432
 1305SOL    HW1 3923   3.589   1.110   0.380
 1305SOL    HW2 3924   3.517   1.155   0.520
 1306SOL     OW 3925   1.975   0.737   1.597
 1306SOL    HW1 3926   2.063   0.724   1.642
 1306SOL    HW2 3927   1.962   0.834   1.575
 1307SOL     OW 3928   2.475   1.365   0.726
 1307SOL    HW1 3929   2.426   1.278   0.735
 1307SOL    HW2 3930   2.452   1.408   0.639
 1308SOL     OW 3931   3.155   1.228   1.423
 1308SOL    HW1 3932   3.192   1.155   1.365
 1308SOL    HW2 3933   3.207   1.233   1.508
 1309SOL     OW 3934   2.671   0.004   0.502
 1309SOL    HW1 3935   2.711   0.095   0.493
 1309SOL    HW2 3936   2.571   0.012   0.508
 1310SOL     OW 3937   2.059   0.976   1.264
 1310SOL    HW1 3938   2.148   0.931   1.250
 1310SOL    HW2 3939   1.986   0.911   1.245
 1311SOL     OW 3940   3.387   0.999   0.190
 1311SOL    HW1 3941   3.324   0.923   0.203
 1311SOL    HW2 3942   3.435   1.017   0.276
 1312SOL     OW 3943   3.049   1.792   1.616
 1312SOL    HW1 3944   3.073   1.852   1.540
 1312SOL    HW2 3945   3.056   1.697   1.586
 1313SOL     OW 3946   2.179   0.251   1.801
 1313SOL    HW1 3947   2.250   0.322   1.807
 1313SOL    HW2 3948   2.091   0.290   1.829
 1314SOL     OW 3949   3.328   1.417   0.953
 1314SOL    HW1 3950   3.269   1.423   1.033
 1314SOL    HW2 3951   3.313   1.329   0.907
 1315SOL     OW 3952   3.529   1.714   0.572
 1315SOL    HW1 3953   3.488   1.691   0.484
 1315SOL    HW2 3954   3.511   1.640   0.637
 1316SOL     OW 3955   2.460   0.729   0.270
 1316SOL    HW1 3956   2.484   0.798   0.202
 1316SOL    HW2 3957   2.382   0.762   0.324
 1317SOL     OW 3958   3.143   0.345   0.944
 1317SOL    HW1 3959   3.057   0.295   0.931
 1317SOL    HW2 3960   3.205   0.291   1.000
 1318SOL     OW 3961   3.438   1.662   0.307
 1318SOL    HW1 3962   3.527   1.708   0.310
 1318SOL    HW2 3963   3.417   1.638   0.212
 1319SOL     OW 3964   2.669   0.605   1.465
 1319SOL    HW1 3965   2.622   0.602   1.554
 1319SOL    HW2 3966   2.618   0.550   1.399
 1320SOL     OW 3967   3.256   0.469   1.674
 1320SOL    HW1 3968   3.236   0.512   1.762
 1320SOL    HW2 3969   3.334   0.407   1.683
 1321SOL     OW 3970   2.835   0.890   1.572
 1321SOL    HW1 3971   2.881   0.806   1.543
 1321SOL    HW2 3972   2.779   0.924   1.497
 1322SOL     OW 3973   2.853   0.410   1.242
 1322SOL    HW1 3974   2.776   0.444   1.296
 1322SOL    HW2 3975   2.819   0.359   1.163
 1323SOL     OW 3976   2.903   0.701   0.429
 1323SOL    HW1 3977   2.929   0.697   0.525
 1323SOL    HW2 3978   2.818   0.650   0.415
 1324SOL     OW 3979   1.938   0.811   0.789
 1324SOL    HW1 3980   2.037   0.799   0.798
 1324SOL    HW2 3981   1.914   0.906   0.810
 1325SOL     OW 3982   1.992   1.821   1.571
 1325SOL    HW1 3983   1.982   1.806   1.670
 1325SOL    HW2 3984   1.906   1.857   1.535
 1326SOL     OW 3985   2.727   0.348   0.195
 1326SOL    HW1 3986   2.786   0.411   0.146
 1326SOL    HW2 3987   2.746   0.254   0.166
 1327SOL     OW 3988   3.581   0.585   1.831
 1327SOL    HW1 3989   3.555   0.674   1.795
 1327SOL    HW2 3990   3.579   0.517   1.758
 1328SOL     OW 3991   3.224   1.144   0.545
 1328SOL    HW1 3992   3.307   1.115   0.497
 1328SOL    HW2 3993   3.175   1.211   0.489
 1329SOL     OW 3994   2.412   0.196   0.885
 1329SOL    HW1 3995   2.407   0.191   0.985
 1329SOL    HW2 3996   2.414   0.292   0.856
 1330SOL     OW 3997   2.870   1.456   0.477
 1330SOL    HW1 3998   2.824   1.528   0.425
 1330SOL    HW2 3999   2.866   1.476   0.575
 1331SOL     OW 4000   2.213   1.801   0.853
 1331SOL    HW1 4001   2.263   1.715   0.859
 1331SOL    HW2 4002   2.278   1.878   0.850
 1332SOL     OW 4003   3.657   1.066   0.873
 1332SOL    HW1 4004   3.595   1.051   0.797
 1332SOL    HW2 4005   3.605   1.077   0.958
 1333SOL     OW 4006   3.089   1.550   1.506
 1333SOL    HW1 4007   3.095   1.473   1.570
 1333SOL    HW2 4008   3.037   1.524   1.426
 1334SOL     OW 4009   2.183   0.943   0.242
 1334SOL    HW1 4010   2.265   0.982   0.200
 1334SOL    HW2 4011   2.156   0.861   0.193
 1335SOL     OW 4012   3.320   0.735   0.728
 1335SOL    HW1 4013   3.315   0.670   0.803
 1335SOL    HW2 4014   3.400   0.794   0.741
 1336SOL     OW 4015   2.323   1.266   1.727
 1336SOL    HW1 4016   2.273   1.267   1.641
 1336SOL    HW2 4017   2.260   1.248   1.803
 1337SOL     OW 4018   2.973   1.776   0.237
 1337SOL    HW1 4019   2.913   1.714   0.287
 1337SOL    HW2 4020   3.004   1.732   0.152
 1338SOL     OW 4021   2.064   0.285   1.498
 1338SOL    HW1 4022   1.984   0.345   1.485
 1338SOL    HW2 4023   2.054   0.236   1.584
 1339SOL     OW 4024   3.494   1.377   0.081
 1339SOL    HW1 4025   3.462   1.471   0.071
 1339SOL    HW2 4026   3.418   1.314   0.069
 1340SOL     OW 4027   2.326   1.743   0.323
 1340SOL    HW1 4028   2.359   1.782   0.409
 1340SOL    HW2 4029   2.402   1.736   0.258
 1341SOL     OW 4030   3.262   0.107   0.426
 1341SOL    HW1 4031   3.238   0.070   0.336
 1341SOL    HW2 4032   3.361   0.123   0.430
 1342SOL     OW 4033   2.111   1.785   1.241
 1342SOL    HW1 4034   2.168   1.720   1.291
 1342SOL    HW2 4035   2.095   1.752   1.148
 1343SOL     OW 4036   2.802   1.698   0.904
 1343SOL    HW1 4037   2.882   1.641   0.925
 1343SOL    HW2 4038   2.753   1.658   0.827
 1344SOL     OW 4039   2.244   0.700   0.480
 1344SOL    HW1 4040   2.289   0.610   0.477
 1344SOL    HW2 4041   2.150   0.689   0.513
 1345SOL     OW 4042   3.409   0.222   1.729
 1345SOL    HW1 4043   3.404   0.259   1.821
 1345SOL    HW2 4044   3.337   0.153   1.717
 1346SOL     OW 4045   2.476   0.122   0.117
 1346SOL    HW1 4046   2.574   0.100   0.124
 1346SOL    HW2 4047   2.445   0.105   0.024
 1347SOL     OW 4048   2.643   0.264   1.749
 1347SOL    HW1 4049   2.710   0.203   1.792
 1347SOL    HW2 4050   2.570   0.283   1.814
 1348SOL     OW 4051   2.750   1.514   1.195
 1348SOL    HW1 4052   2.727   1.489   1.101
 1348SOL    HW2 4053   2.811   1.445   1.234
 1349SOL     OW 4054   3.213   0.590   1.433
 1349SOL    HW1 4055   3.241   0.547   1.518
 1349SOL    HW2 4056   3.238   0.686   1.434
 1350SOL     OW 4057   2.665   1.402   0.924
 1350SOL    HW1 4058   2.755   1.416   0.882
 1350SOL    HW2 4059   2.594   1.404   0.853
 1351SOL     OW 4060   2.784   0.503   0.899
 1351SOL    HW1 4061   2.759   0.494   0.803
 1351SOL    HW2 4062   2.832   0.421   0.930
 1352SOL     OW 4063   2.401   0.064   0.512
 1352SOL    HW1 4064   2.320   0.065   0.570
 1352SOL    HW2 4065   2.404   0.147   0.457
 1353SOL     OW 4066   3.296   1.188   0.041
 1353SOL    HW1 4067   3.328   1.112   0.098
 1353SOL    HW2 4068   3.204   1.215   0.071
 1354SOL     OW 4069   2.159   0.035   0.171
 1354SOL    HW1 4070   2.208   0.119   0.150
 1354SOL    HW2 4071   2.221  -0.030   0.216
 1355SOL     OW 4072   2.797   0.236   0.480
 1355SOL    HW1 4073   2.749   0.277   0.402
 1355SOL    HW2 4074   2.896   0.234   0.461
 1356SOL     OW 4075   2.938   0.683   1.464
 1356SOL    HW1 4076   2.858   0.622   1.467
 1356SOL    HW2 4077   3.019   0.630   1.440
 1357SOL     OW 4078   3.089   1.570   0.793
 1357SOL    HW1 4079   3.110   1.644   0.728
 1357SOL    HW2 4080   3.157   1.570   0.866
 1358SOL     OW 4081   2.321   1.152   0.741
 1358SOL    HW1 4082   2.250   1.125   0.806
 1358SOL    HW2 4083   2.295   1.124   0.648
 1359SOL     OW 4084   3.133   1.797   0.591
 1359SOL    HW1 4085   3.177   1.861   0.527
 1359SOL    HW2 4086   3.083   1.849   0.661
 1360SOL     OW 4087   2.894   0.549   0.016
 1360SOL    HW1 4088   2.853   0.631  -0.023
 1360SOL    HW2 4089   2.958   0.575   0.089
 1361SOL     OW 4090   1.940   0.556   1.386
 1361SOL    HW1 4091   2.032   0.555   1.345
 1361SOL    HW2 4092   1.934   0.630   1.453
 1362SOL     OW 4093   2.423   0.222   1.147
 1362SOL    HW1 4094   2.461   0.138   1.184
 1362SOL    HW2 4095   2.335   0.241   1.191
 1363SOL     OW 4096   2.728   0.454   0.642
 1363SOL    HW1 4097   2.696   0.526   0.580
 1363SOL    HW2 4098   2.752   0.373   0.589
 1364SOL     OW 4099   2.879   0.039   0.753
 1364SOL    HW1 4100   2.807   0.044   0.684
 1364SOL    HW2 4101   2.855  -0.030   0.822
 1365SOL     OW 4102   3.291   1.173   0.867
 1365SOL    HW1 4103   3.236   1.089   0.860
 1365SOL    HW2 4104   3.317   1.202   0.775
 1366SOL     OW 4105   3.328   0.590   0.992
 1366SOL    HW1 4106   3.298   0.495   0.999
 1366SOL    HW2 4107   3.401   0.606   1.058
 1367SOL     OW 4108   3.719   0.833   0.377
 1367SOL    HW1 4109   3.761   0.769   0.441
 1367SOL    HW2 4110   3.681   0.782   0.299
 1368SOL     OW 4111   2.350   1.385   0.174
 1368SOL    HW1 4112   2.263   1.370   0.221
 1368SOL    HW2 4113   2.333   1.411   0.079
 1369SOL     OW 4114   3.526   1.280   0.657
 1369SOL    HW1 4115   3.625   1.288   0.671
 1369SOL    HW2 4116   3.481   1.364   0.688
 1370SOL     OW 4117   3.252   0.575   0.078
 1370SOL    HW1 4118   3.198   0.554   0.159
 1370SOL    HW2 4119   3.343   0.534   0.087
 1371SOL     OW 4120   2.389   0.256   0.328
 1371SOL    HW1 4121   2.416   0.197   0.253
 1371SOL    HW2 4122   2.389   0.351   0.297
 1372SOL     OW 4123   3.616   1.223   1.588
 1372SOL    HW1 4124   3.707   1.184   1.575
 1372SOL    HW2 4125   3.624   1.319   1.612
 1373SOL     OW 4126   2.926   1.347   1.340
 1373SOL    HW1 4127   2.846   1.324   1.395
 1373SOL    HW2 4128   3.009   1.321   1.389
 1374SOL     OW 4129   3.454   1.629   1.625
 1374SOL    HW1 4130   3.481   1.663   1.535
 1374SOL    HW2 4131   3.533   1.591   1.671
 1375SOL     OW 4132   2.973   1.195   1.100
 1375SOL    HW1 4133   2.933   1.239   1.181
 1375SOL    HW2 4134   2.932   1.232   1.017
 1376SOL     OW 4135   3.500   1.099   1.079
 1376SOL    HW1 4136   3.505   1.180   1.138
 1376SOL    HW2 4137   3.414   1.101   1.028
 1377SOL     OW 4138   2.777   0.089   1.402
 1377SOL    HW1 4139   2.802   0.069   1.307
 1377SOL    HW2 4140   2.849   0.145   1.444
 1378SOL     OW 4141   2.842   1.116   1.719
 1378SOL    HW1 4142   2.743   1.122   1.729
 1378SOL    HW2 4143   2.865   1.036   1.663
 1379SOL     OW 4144   2.567   1.050   0.368
 1379SOL    HW1 4145   2.553   1.057   0.467
 1379SOL    HW2 4146   2.651   0.999   0.350
 1380SOL     OW 4147   2.272   0.813   1.251
 1380SOL    HW1 4148   2.358   0.825   1.301
 1380SOL    HW2 4149   2.230   0.726   1.278
 1381SOL     OW 4150   3.136   0.386   1.262
 1381SOL    HW1 4151   3.157   0.460   1.326
 1381SOL    HW2 4152   3.047   0.403   1.219
 1382SOL     OW 4153   1.926   1.564   1.331
 1382SOL    HW1 4154   1.880   1.646   1.297
 1382SOL    HW2 4155   2.024   1.583   1.340
 1383SOL     OW 4156   2.229   1.100   0.501
 1383SOL    HW1 4157   2.222   1.183   0.445
 1383SOL    HW2 4158   2.233   1.020   0.441
 1384SOL     OW 4159   2.428   0.537   0.865
 1384SOL    HW1 4160   2.440   0.603   0.791
 1384SOL    HW2 4161   2.474   0.571   0.948
 1385SOL     OW 4162   3.114   1.348   0.388
 1385SOL    HW1 4163   3.164   1.425   0.428
 1385SOL    HW2 4164   3.019   1.350   0.420
 1386SOL     OW 4165   3.134   1.445   1.142
 1386SOL    HW1 4166   3.181   1.458   1.229
 1386SOL    HW2 4167   3.068   1.371   1.151
 1387SOL     OW 4168   3.444   0.639   0.472
 1387SOL    HW1 4169   3.413   0.700   0.545
 1387SOL    HW2 4170   3.494   0.691   0.403
 1388SOL     OW 4171   2.216   1.510   1.329
 1388SOL    HW1 4172   2.195   1.466   1.242
 1388SOL    HW2 4173   2.313   1.536   1.332
 1389SOL     OW 4174   2.264   0.751   1.598
 1389SOL    HW1 4175   2.332   0.806   1.551
 1389SOL    HW2 4176   2.304   0.663   1.625
 1390SOL     OW 4177   3.449   0.779   1.670
 1390SOL    HW1 4178   3.357   0.817   1.665
 1390SOL    HW2 4179   3.509   0.826   1.605
 1391SOL     OW 4180   2.875   0.105   1.770
 1391SOL    HW1 4181   2.881   0.190   1.718
 1391SOL    HW2 4182   2.907   0.029   1.713
 1392SOL     OW 4183   2.366   0.050   1.740
 1392SOL    HW1 4184   2.324  -0.007   1.670
 1392SOL    HW2 4185   2.300   0.119   1.772
 1393SOL     OW 4186   2.435   0.870   1.029
 1393SOL    HW1 4187   2.479   0.959   1.020
 1393SOL    HW2 4188   2.372   0.870   1.106
 1394SOL     OW 4189   3.222   0.862   1.045
 1394SOL    HW1 4190   3.147   0.862   0.979
 1394SOL    HW2 4191   3.259   0.770   1.054
 1395SOL     OW 4192   3.071   0.525   0.275
 1395SOL    HW1 4193   3.084   0.441   0.329
 1395SOL    HW2 4194   3.042   0.599   0.335
 1396SOL     OW 4195   2.169   0.213   1.231
 1396SOL    HW1 4196   2.146   0.250   1.321
 1396SOL    HW2 4197   2.139   0.118   1.225
 1397SOL     OW 4198   1.899   1.310   1.282
 1397SOL    HW1 4199   1.952   1.261   1.350
 1397SOL    HW2 4200   1.921   1.408   1.287
 1398SOL     OW 4201   2.594   0.634   1.064
 1398SOL    HW1 4202   2.653   0.608   0.988
 1398SOL    HW2 4203   2.566   0.730   1.053
 1399SOL     OW 4204   3.590   0.935   1.854
 1399SOL    HW1 4205   3.544   0.928   1.765
 1399SOL    HW2 4206   3.528   0.979   1.920
 1400SOL     OW 4207   2.169   0.063   0.618
 1400SOL    HW1 4208   2.158   0.157   0.651
 1400SOL    HW2 4209   2.164   0.000   0.695
 1401SOL     OW 4210   3.484   0.367   0.374
 1401SOL    HW1 4211   3.486   0.291   0.438
 1401SOL    HW2 4212   3.436   0.444   0.414
 1402SOL     OW 4213   2.885   0.766   0.966
 1402SOL    HW1 4214   2.900   0.787   1.062
 1402SOL    HW2 4215   2.855   0.671   0.957
 1403SOL     OW 4216   2.842   1.573   1.700
 1403SOL    HW1 4217   2.822   1.617   1.612
 1403SOL    HW2 4218   2.881   1.482   1.684
 1404SOL     OW 4219   3.721   1.518   1.605
 1404SOL    HW1 4220   3.735   1.545   1.510
 1404SOL    HW2 4221   3.804   1.540   1.658
 1405SOL     OW 4222   2.212   0.898   1.804
 1405SOL    HW1 4223   2.288   0.942   1.852
 1405SOL    HW2 4224   2.247   0.851   1.722
 1406SOL     OW 4225   3.402   0.274   0.125
 1406SOL    HW1 4226   3.341   0.199   0.148
 1406SOL    HW2 4227   3.424   0.326   0.208
 1407SOL     OW 4228   3.165   0.838   0.042
 1407SOL    HW1 4229   3.199   0.745   0.057
 1407SOL    HW2 4230   3.183   0.865  -0.053
 1408SOL     OW 4231   2.930   1.333   0.849
 1408SOL    HW1 4232   2.937   1.249   0.794
 1408SOL    HW2 4233   2.992   1.402   0.813
 1409SOL     OW 4234   2.181   0.810   0.949
 1409SOL    HW1 4235   2.274   0.846   0.954
 1409SOL    HW2 4236   2.175   0.725   1.001
 1410SOL     OW 4237   2.201   0.509   1.006
 1410SOL    HW1 4238   2.149   0.426   0.989
 1410SOL    HW2 4239   2.278   0.514   0.942
 1411SOL     OW 4240   3.000   0.380   1.678
 1411SOL    HW1 4241   2.955   0.443   1.742
 1411SOL    HW2 4242   3.093   0.411   1.661
 1412SOL     OW 4243   3.022   0.207   1.477
 1412SOL    HW1 4244   3.022   0.271   1.554
 1412SOL    HW2 4245   3.050   0.255   1.394
 1413SOL     OW 4246   1.870   1.326   0.200
 1413SOL    HW1 4247   1.777   1.347   0.169
 1413SOL    HW2 4248   1.880   1.227   0.213
 1414SOL     OW 4249   1.950   1.801   0.927
 1414SOL    HW1 4250   1.908   1.715   0.900
 1414SOL    HW2 4251   2.044   1.804   0.893
 1415SOL     OW 4252   2.366   1.568   0.910
 1415SOL    HW1 4253   2.432   1.642   0.919
 1415SOL    HW2 4254   2.410   1.489   0.868
 1416SOL     OW 4255   2.864   0.796   1.238
 1416SOL    HW1 4256   2.905   0.764   1.324
 1416SOL    HW2 4257   2.768   0.769   1.235
 1417SOL     OW 4258   1.902   0.544   1.114
 1417SOL    HW1 4259   1.987   0.511   1.073
 1417SOL    HW2 4260   1.915   0.559   1.212
 1418SOL     OW 4261   2.051   0.520   1.722
 1418SOL    HW1 4262   2.110   0.480   1.652
 1418SOL    HW2 4263   1.993   0.591   1.681
 1419SOL     OW 4264   3.231   0.950   1.660
 1419SOL    HW1 4265   3.270   1.039   1.680
 1419SOL    HW2 4266   3.241   0.930   1.563
 1420SOL     OW 4267   2.677   0.572   0.325
 1420SOL    HW1 4268   2.684   0.483   0.279
 1420SOL    HW2 4269   2.583   0.606   0.317
 1421SOL     OW 4270   3.519   0.604   1.206
 1421SOL    HW1 4271   3.481   0.535   1.268
 1421SOL    HW2 4272   3.601   0.568   1.162
 1422SOL     OW 4273   2.114   1.564   1.744
 1422SOL    HW1 4274   2.084   1.621   1.820
 1422SOL    HW2 4275   2.107   1.467   1.770
 1423SOL     OW 4276   2.533   0.464   1.269
 1423SOL    HW1 4277   2.499   0.375   1.239
 1423SOL    HW2 4278   2.559   0.518   1.189
 1424SOL     OW 4279   2.792   1.678   1.465
 1424SOL    HW1 4280   2.768   1.660   1.370
 1424SOL    HW2 4281   2.822   1.772   1.475
 1425SOL     OW 4282   2.335   0.500   0.191
 1425SOL    HW1 4283   2.396   0.580   0.195
 1425SOL    HW2 4284   2.240   0.531   0.198
 1426SOL     OW 4285   2.021   1.137   1.466
 1426SOL    HW1 4286   2.043   1.076   1.542
 1426SOL    HW2 4287   2.031   1.088   1.380
 1427SOL     OW 4288   3.209   1.059   1.234
 1427SOL    HW1 4289   3.233   0.996   1.160
 1427SOL    HW2 4290   3.119   1.099   1.216
 1428SOL     OW 4291   3.164   0.855   0.309
 1428SOL    HW1 4292   3.078   0.824   0.351
 1428SOL    HW2 4293   3.160   0.841   0.210
 1429SOL     OW 4294   3.621   1.747   1.154
 1429SOL    HW1 4295   3.682   1.777   1.081
 1429SOL    HW2 4296   3.583   1.658   1.132
 1430SOL     OW 4297   3.114   1.731   1.128
 1430SOL    HW1 4298   3.198   1.736   1.074
 1430SOL    HW2 4299   3.091   1.635   1.146
 1431SOL     OW 4300   1.945   1.258   1.022
 1431SOL    HW1 4301   1.940   1.257   1.122
 1431SOL    HW2 4302   1.862   1.217   0.984
 1432SOL     OW 4303   2.550   1.662   1.716
 1432SOL    HW1 4304   2.494   1.743   1.725
 1432SOL    HW2 4305   2.602   1.666   1.630
 1433SOL     OW 4306   2.765   0.086   0.133
 1433SOL    HW1 4307   2.816   0.087   0.047
 1433SOL    HW2 4308   2.821   0.044   0.204
 1434SOL     OW 4309   3.588   0.135   0.523
 1434SOL    HW1 4310   3.661   0.118   0.456
 1434SOL    HW2 4311   3.557   0.048   0.561
 1435SOL     OW 4312   3.250   1.573   0.477
 1435SOL    HW1 4313   3.317   1.585   0.403
 1435SOL    HW2 4314   3.210   1.662   0.500
 1436SOL     OW 4315   1.992   1.794   1.851
 1436SOL    HW1 4316   1.951   1.720   1.904
 1436SOL    HW2 4317   2.056   1.845   1.909
 1437SOL     OW 4318   3.142   0.927   0.672
 1437SOL    HW1 4319   3.202   0.846   0.674
 1437SOL    HW2 4320   3.182   0.996   0.612
 1438SOL     OW 4321   2.692   1.273   1.422
 1438SOL    HW1 4322   2.687   1.306   1.517
 1438SOL    HW2 4323   2.606   1.292   1.376
 1439SOL     OW 4324   2.534   1.616   0.154
 1439SOL    HW1 4325   2.543   1.626   0.055
 1439SOL    HW2 4326   2.494   1.527   0.175
 1440SOL     OW 4327   3.512   1.720   1.394
 1440SOL    HW1 4328   3.565   1.730   1.310
 1440SOL    HW2 4329   3.485   1.810   1.428
 1441SOL     OW 4330   3.703   0.175   0.963
 1441SOL    HW1 4331   3.742   0.090   0.927
 1441SOL    HW2 4332   3.605   0.177   0.944
 1442SOL     OW 4333   2.125   0.326   0.720
 1442SOL    HW1 4334   2.046   0.377   0.686
 1442SOL    HW2 4335   2.116   0.311   0.818
 1443SOL     OW 4336   3.056   1.612   0.031
 1443SOL    HW1 4337   3.062   1.519   0.068
 1443SOL    HW2 4338   2.997   1.612  -0.049
 1444SOL     OW 4339   2.684   1.002   1.372
 1444SOL    HW1 4340   2.724   1.001   1.280
 1444SOL    HW2 4341   2.694   1.094   1.412
 1445SOL     OW 4342   2.778   0.910   0.291
 1445SOL    HW1 4343   2.841   0.948   0.223
 1445SOL    HW2 4344   2.818   0.827   0.330
 1446SOL     OW 4345   3.366   1.607   0.044
 1446SOL    HW1 4346   3.274   1.644   0.051
 1446SOL    HW2 4347   3.404   1.627  -0.046
 1447SOL     OW 4348   2.234   1.288   1.490
 1447SOL    HW1 4349   2.221   1.381   1.456
 1447SOL    HW2 4350   2.150   1.236   1.477
 1448SOL     OW 4351   3.476   1.292   1.289
 1448SOL    HW1 4352   3.536   1.295   1.369
 1448SOL    HW2 4353   3.401   1.356   1.302
 1449SOL     OW 4354   2.901   1.098   0.696
 1449SOL    HW1 4355   2.831   1.051   0.750
 1449SOL    HW2 4356   2.960   1.030   0.653
 1450SOL     OW 4357   2.876   0.236   0.971
 1450SOL    HW1 4358   2.868   0.200   0.878
 1450SOL    HW2 4359   2.874   0.160   1.036
 1451SOL     OW 4360   2.452   1.487   0.491
 1451SOL    HW1 4361   2.494   1.429   0.421
 1451SOL    HW2 4362   2.408   1.566   0.447
 1452SOL     OW 4363   3.571   0.385   1.381
 1452SOL    HW1 4364   3.644   0.454   1.385
 1452SOL    HW2 4365   3.599   0.310   1.322
 1453SOL     OW 4366   2.117   1.348   0.290
 1453SOL    HW1 4367   2.021   1.349   0.263
 1453SOL    HW2 4368   2.129   1.401   0.374
 1454SOL     OW 4369   1.967   1.013   1.726
 1454SOL    HW1 4370   1.890   0.980   1.780
 1454SOL    HW2 4371   2.052   0.983   1.768
 1455SOL     OW 4372   2.534   0.203   1.489
 1455SOL    HW1 4373   2.624   0.187   1.449
 1455SOL    HW2 4374   2.542   0.208   1.588
 1456SOL     OW 4375   1.937   0.345   0.033
 1456SOL    HW1 4376   1.845   0.317   0.004
 1456SOL    HW2 4377   1.968   0.422  -0.023
 1457SOL     OW 4378   3.302   0.856   1.398
 1457SOL    HW1 4379   3.245   0.908   1.335
 1457SOL    HW2 4380   3.398   0.868   1.374
 1458SOL     OW 4381   1.934   0.166   0.318
 1458SOL    HW1 4382   1.917   0.249   0.264
 1458SOL    HW2 4383   2.024   0.129   0.296
 1459SOL     OW 4384   3.045   1.335   0.119
 1459SOL    HW1 4385   2.946   1.324   0.121
 1459SOL    HW2 4386   3.079   1.350   0.212
 1460SOL     OW 4387   2.475   0.842   1.431
 1460SOL    HW1 4388   2.531   0.923   1.414
 1460SOL    HW2 4389   2.534   0.762   1.434
 1461SOL     OW 4390   3.355   1.767   0.959
 1461SOL    HW1 4391   3.388   1.831   0.890
 1461SOL    HW2 4392   3.421   1.761   1.034
 1462SOL     OW 4393   2.578   0.565   1.708
 1462SOL    HW1 4394   2.597   0.630   1.782
 1462SOL    HW2 4395   2.638   0.485   1.717
 1463SOL     OW 4396   3.312   1.220   1.633
 1463SOL    HW1 4397   3.303   1.210   1.732
 1463SOL    HW2 4398   3.408   1.213   1.607
 1464SOL     OW 4399   2.252   1.741   1.560
 1464SOL    HW1 4400   2.161   1.782   1.558
 1464SOL    HW2 4401   2.245   1.647   1.592
 1465SOL     OW 4402   3.536   0.883   1.254
 1465SOL    HW1 4403   3.509   0.794   1.217
 1465SOL    HW2 4404   3.537   0.951   1.181
 1466SOL     OW 4405   3.087   0.325   0.449
 1466SOL    HW1 4406   3.152   0.251   0.438
 1466SOL    HW2 4407   3.107   0.375   0.533
 1467SOL     OW 4408   2.456   0.745   0.652
 1467SOL    HW1 4409   2.506   0.830   0.633
 1467SOL    HW2 4410   2.368   0.747   0.604
 1468SOL     OW 4411   3.639   0.342   1.642
 1468SOL    HW1 4412   3.622   0.373   1.548
 1468SOL    HW2 4413   3.555   0.305   1.680
 1469SOL     OW 4414   3.592   0.934   1.517
 1469SOL    HW1 4415   3.630   1.025   1.532
 1469SOL    HW2 4416   3.584   0.917   1.418
 1470SOL     OW 4417   2.721   1.374   0.016
 1470SOL    HW1 4418   2.675   1.389   0.104
 1470SOL    HW2 4419   2.765   1.459  -0.014
 1471SOL     OW 4420   2.523   1.790   0.953
 1471SOL    HW1 4421   2.477   1.878   0.940
 1471SOL    HW2 4422   2.622   1.802   0.946
 1472SOL     OW 4423   2.721   0.956   0.861
 1472SOL    HW1 4424   2.775   0.887   0.909
 1472SOL    HW2 4425   2.689   1.025   0.927
 1473SOL     OW 4426   2.945   0.984   0.087
 1473SOL    HW1 4427   2.922   1.037   0.005
 1473SOL    HW2 4428   3.026   0.928   0.068
 1474SOL     OW 4429   3.723   1.569   0.851
 1474SOL    HW1 4430   3.652   1.557   0.781
 1474SOL    HW2 4431   3.724   1.490   0.911
 1475SOL     OW 4432   2.083   1.314   1.844
 1475SOL    HW1 4433   2.018   1.241   1.823
 1475SOL    HW2 4434   2.087   1.328   1.942
 1476SOL     OW 4435   1.941   1.240   0.653
 1476SOL    HW1 4436   1.940   1.193   0.741
 1476SOL    HW2 4437   2.023   1.212   0.602
 1477SOL     OW 4438   2.534   1.391   1.624
 1477SOL    HW1 4439   2.456   1.341   1.662
 1477SOL    HW2 4440   2.531   1.486   1.655
 1478SOL     OW 4441   3.686   0.192   1.227
 1478SOL    HW1 4442   3.682   0.102   1.271
 1478SOL    HW2 4443   3.689   0.181   1.128
 1479SOL     OW 4444   2.290   0.424   0.520
 1479SOL    HW1 4445   2.320   0.352   0.458
 1479SOL    HW2 4446   2.251   0.384   0.603
 1480SOL     OW 4447   3.567   1.487   1.104
 1480SOL    HW1 4448   3.474   1.462   1.077
 1480SOL    HW2 4449   3.593   1.437   1.186
 1481SOL     OW 4450   2.179   0.547   1.280
 1481SOL    HW1 4451   2.217   0.488   1.352
 1481SOL    HW2 4452   2.219   0.521   1.192
 1482SOL     OW 4453   2.674   1.586   0.687
 1482SOL    HW1 4454   2.706   1.596   0.593
 1482SOL    HW2 4455   2.595   1.524   0.689
 1483SOL     OW 4456   3.286   0.214   1.112
 1483SOL    HW1 4457   3.338   0.149   1.167
 1483SOL    HW2 4458   3.237   0.277   1.173
 1484SOL     OW 4459   2.863   0.034   1.154
 1484SOL    HW1 4460   2.800  -0.038   1.123
 1484SOL    HW2 4461   2.956  -0.002   1.154
 1485SOL     OW 4462   2.632   1.330   0.301
 1485SOL    HW1 4463   2.586   1.243   0.318
 1485SOL    HW2 4464   2.723   1.327   0.342
 1486SOL     OW 4465   2.480   1.567   1.284
 1486SOL    HW1 4466   2.475   1.649   1.341
 1486SOL    HW2 4467   2.569   1.564   1.239
 1487SOL     OW 4468   3.214   0.052   0.168
 1487SOL    HW1 4469   3.249   0.011   0.084
 1487SOL    HW2 4470   3.124   0.014   0.188
 1488SOL     OW 4471   3.162   0.453   0.691
 1488SOL    HW1 4472   3.103   0.533   0.695
 1488SOL    HW2 4473   3.177   0.418   0.784
 1489SOL     OW 4474   3.455   0.221   0.882
 1489SOL    HW1 4475   3.371   0.220   0.936
 1489SOL    HW2 4476   3.457   0.304   0.826
 1490SOL     OW 4477   1.901   1.077   0.300
 1490SOL    HW1 4478   2.000   1.066   0.291
 1490SOL    HW2 4479   1.861   0.991   0.332
 1491SOL     OW 4480   2.737   1.646   0.337
 1491SOL    HW1 4481   2.660   1.611   0.283
 1491SOL    HW2 4482   2.705   1.717   0.399
 1492SOL     OW 4483   2.092   0.628   1.975
 1492SOL    HW1 4484   1.999   0.626   2.012
 1492SOL    HW2 4485   2.093   0.589   1.883
 1493SOL     OW 4486   2.087   0.275   2.858
 1493SOL    HW1 4487   2.122   0.258   2.950
 1493SOL    HW2 4488   1.999   0.230   2.846
 1494SOL     OW 4489   1.881   0.368   2.509
 1494SOL    HW1 4490   1.799   0.411   2.548
 1494SOL    HW2 4491   1.853   0.295   2.446
 1495SOL     OW 4492   2.431   1.275   3.027
 1495SOL    HW1 4493   2.338   1.268   2.990
 1495SOL    HW2 4494   2.442   1.364   3.071
 1496SOL     OW 4495   3.417   1.511   2.565
 1496SOL    HW1 4496   3.360   1.495   2.646
 1496SOL    HW2 4497   3.358   1.521   2.485
 1497SOL     OW 4498   2.997   0.703   2.579
 1497SOL    HW1 4499   3.054   0.781   2.554
 1497SOL    HW2 4500   2.937   0.729   2.655
 1498SOL     OW 4501   3.617   0.607   2.093
 1498SOL    HW1 4502   3.605   0.594   1.994
 1498SOL    HW2 4503   3.587   0.526   2.142
 1499SOL     OW 4504   2.630   1.144   2.885
 1499SOL    HW1 4505   2.552   1.161   2.945
 1499SOL    HW2 4506   2.664   1.231   2.849
 1500SOL     OW 4507   2.712   0.798   3.685
 1500SOL    HW1 4508   2.708   0.874   3.750
 1500SOL    HW2 4509   2.734   0.834   3.594
 1501SOL     OW 4510   2.547   1.012   2.527
 1501SOL    HW1 4511   2.616   0.996   2.597
 1501SOL    HW2 4512   2.474   1.069   2.565
 1502SOL     OW 4513   2.548   1.161   3.665
 1502SOL    HW1 4514   2.608   1.240   3.679
 1502SOL    HW2 4515   2.462   1.192   3.624
 1503SOL     OW 4516   2.197   1.435   2.923
 1503SOL    HW1 4517   2.119   1.404   2.870
 1503SOL    HW2 4518   2.255   1.493   2.866
 1504SOL     OW 4519   3.322   1.505   3.201
 1504SOL    HW1 4520   3.346   1.599   3.227
 1504SOL    HW2 4521   3.306   1.451   3.283
 1505SOL     OW 4522   2.300   0.392   3.361
 1505SOL    HW1 4523   2.382   0.336   3.370
 1505SOL    HW2 4524   2.219   0.334   3.365
 1506SOL     OW 4525   3.465   0.447   2.599
 1506SOL    HW1 4526   3.391   0.493   2.549
 1506SOL    HW2 4527   3.516   0.515   2.652
 1507SOL     OW 4528   2.093   1.713   2.345
 1507SOL    HW1 4529   2.127   1.790   2.399
 1507SOL    HW2 4530   2.137   1.713   2.255
 1508SOL     OW 4531   2.989   1.341   3.552
 1508SOL    HW1 4532   3.036   1.341   3.640
 1508SOL    HW2 4533   2.941   1.254   3.541
 1509SOL     OW 4534   2.092   1.434   2.400
 1509SOL    HW1 4535   2.066   1.530   2.400
 1509SOL    HW2 4536   2.021   1.380   2.445
 1510SOL     OW 4537   2.102   1.091   2.748
 1510SOL    HW1 4538   2.116   1.007   2.800
 1510SOL    HW2 4539   2.047   1.155   2.803
 1511SOL     OW 4540   2.482   1.786   3.301
 1511SOL    HW1 4541   2.390   1.769   3.336
 1511SOL    HW2 4542   2.510   1.878   3.327
 1512SOL     OW 4543   2.468   0.964   1.985
 1512SOL    HW1 4544   2.475   1.048   1.931
 1512SOL    HW2 4545   2.514   0.977   2.073
 1513SOL     OW 4546   3.456   0.114   3.342
 1513SOL    HW1 4547   3.438   0.181   3.270
 1513SOL    HW2 4548   3.453   0.160   3.431
 1514SOL     OW 4549   1.984   0.643   2.425
 1514SOL    HW1 4550   1.939   0.555   2.442
 1514SOL    HW2 4551   1.983   0.697   2.509
 1515SOL     OW 4552   3.704   1.767   2.221
 1515SOL    HW1 4553   3.758   1.738   2.301
 1515SOL    HW2 4554   3.734   1.857   2.192
 1516SOL     OW 4555   1.889   1.596   1.979
 1516SOL    HW1 4556   1.870   1.500   2.000
 1516SOL    HW2 4557   1.856   1.654   2.054
 1517SOL     OW 4558   3.551   0.922   2.474
 1517SOL    HW1 4559   3.646   0.893   2.482
 1517SOL    HW2 4560   3.543   0.987   2.399
 1518SOL     OW 4561   3.503   1.108   2.294
 1518SOL    HW1 4562   3.589   1.110   2.242
 1518SOL    HW2 4563   3.517   1.155   2.382
 1519SOL     OW 4564   1.975   0.737   3.459
 1519SOL    HW1 4565   2.063   0.724   3.504
 1519SOL    HW2 4566   1.962   0.834   3.437
 1520SOL     OW 4567   2.475   1.365   2.588
 1520SOL    HW1 4568   2.426   1.278   2.597
 1520SOL    HW2 4569   2.452   1.408   2.501
 1521SOL     OW 4570   3.155   1.228   3.285
 1521SOL    HW1 4571   3.192   1.155   3.227
 1521SOL    HW2 4572   3.207   1.233   3.370
 1522SOL     OW 4573   2.671   0.004   2.364
 1522SOL    HW1 4574   2.711   0.095   2.355
 1522SOL    HW2 4575   2.571   0.012   2.370
 1523SOL     OW 4576   2.059   0.976   3.126
 1523SOL    HW1 4577   2.148   0.931   3.112
 1523SOL    HW2 4578   1.986   0.911   3.107
 1524SOL     OW 4579   3.387   0.999   2.052
 1524SOL    HW1 4580   3.324   0.923   2.065
 1524SOL    HW2 4581   3.435   1.017   2.138
 1525SOL     OW 4582   3.049   1.792   3.478
 1525SOL    HW1 4583   3.073   1.852   3.402
 1525SOL    HW2 4584   3.056   1.697   3.448
 1526SOL     OW 4585   2.179   0.251   3.663
 1526SOL    HW1 4586   2.250   0.322   3.669
 1526SOL    HW2 4587   2.091   0.290   3.691
 1527SOL     OW 4588   3.328   1.417   2.815
 1527SOL    HW1 4589   3.269   1.423   2.895
 1527SOL    HW2 4590   3.313   1.329   2.769
 1528SOL     OW 4591   3.529   1.714   2.434
 1528SOL    HW1 4592   3.488   1.691   2.346
 1528SOL    HW2 4593   3.511   1.640   2.499
 1529SOL     OW 4594   2.460   0.729   2.132
 1529SOL    HW1 4595   2.484   0.798   2.064
 1529SOL    HW2 4596   2.382   0.762   2.186
 1530SOL     OW 4597   3.143   0.345   2.806
 1530SOL    HW1 4598   3.057   0.295   2.793
 1530SOL    HW2 4599   3.205   0.291   2.862
 1531SOL     OW 4600   3.438   1.662   2.169
 1531SOL    HW1 4601   3.527   1.708   2.172
 1531SOL    HW2 4602   3.417   1.638   2.074
 1532SOL     OW 4603   2.669   0.605   3.327
 1532SOL    HW1 4604   2.622   0.602   3.416
 1532SOL    HW2 4605   2.618   0.550   3.261
 1533SOL     OW 4606   3.256   0.469   3.536
 1533SOL    HW1 4607   3.236   0.512   3.624
 1533SOL    HW2 4608   3.334   0.407   3.545
 1534SOL     OW 4609   2.835   0.890   3.434
 1534SOL    HW1 4610   2.881   0.806   3.405
 1534SOL    HW2 4611   2.779   0.924   3.359
 1535SOL     OW 4612   2.853   0.410   3.104
 1535SOL    HW1 4613   2.776   0.444   3.158
 1535SOL    HW2 4614   2.819   0.359   3.025
 1536SOL     OW 4615   2.903   0.701   2.291
 1536SOL    HW1 4616   2.929   0.697   2.387
 1536SOL    HW2 4617   2.818   0.650   2.277
 1537SOL     OW 4618   1.938   0.811   2.651
 1537SOL    HW1 4619   2.037   0.799   2.660
 1537SOL    HW2 4620   1.914   0.906   2.672
 1538SOL     OW 4621   1.992   1.821   3.433
 1538SOL    HW1 4622   1.982   1.806   3.532
 1538SOL    HW2 4623   1.906   1.857   3.397
 1539SOL     OW 4624   2.727   0.348   2.057
 1539SOL    HW1 4625   2.786   0.411   2.008
 1539SOL    HW2 4626   2.746   0.254   2.028
 1540SOL     OW 4627   3.581   0.585   3.693
 1540SOL    HW1 4628   3.555   0.674   3.657
 1540SOL    HW2 4629   3.579   0.517   3.620
 1541SOL     OW 4630   3.224   1.144   2.407
 1541SOL    HW1 4631   3.307   1.115   2.359
 1541SOL    HW2 4632   3.175   1.211   2.351
 1542SOL     OW 4633   2.412   0.196   2.747
 1542SOL    HW1 4634   2.407   0.191   2.847
 1542SOL    HW2 4635   2.414   0.292   2.718
 1543SOL     OW 4636   2.870   1.456   2.339
 1543SOL    HW1 4637   2.824   1.528   2.287
 1543SOL    HW2 4638   2.866   1.476   2.437
 1544SOL     OW 4639   2.213   1.801   2.715
 1544SOL    HW1 4640   2.263   1.715   2.721
 1544SOL    HW2 4641   2.278   1.878   2.712
 1545SOL     OW 4642   3.657   1.066   2.735
 1545SOL    HW1 4643   3.595   1.051   2.659
 1545SOL    HW2 4644   3.605   1.077   2.820
 1546SOL     OW 4645   3.089   1.550   3.368
 1546SOL    HW1 4646   3.095   1.473   3.432
 1546SOL    HW2 4647   3.037   1.524   3.288
 1547SOL     OW 4648   2.183   0.943   2.104
 1547SOL    HW1 4649   2.265   0.982   2.062
 1547SOL    HW2 4650   2.156   0.861   2.055
 1548SOL     OW 4651   3.320   0.735   2.590
 1548SOL    HW1 4652   3.315   0.670   2.665
 1548SOL    HW2 4653   3.400   0.794   2.603
 1549SOL     OW 4654   2.323   1.266   3.589
 1549SOL    HW1 4655   2.273   1.267   3.503
 1549SOL    HW2 4656   2.260   1.248   3.665
 1550SOL     OW 4657   2.973   1.776   2.099
 1550SOL    HW1 4658   2.913   1.714   2.149
 1550SOL    HW2 4659   3.004   1.732   2.014
 1551SOL     OW 4660   2.064   0.285   3.360
 1551SOL    HW1 4661   1.984   0.345   3.347
 1551SOL    HW2 4662   2.054   0.236   3.446
 1552SOL     OW 4663   3.494   1.377   1.943
 1552SOL    HW1 4664   3.462   1.471   1.933
 1552SOL    HW2 4665   3.418   1.314   1.931
 1553SOL     OW 4666   2.326   1.743   2.185
 1553SOL    HW1 4667   2.359   1.782   2.271
 1553SOL    HW2 4668   2.402   1.736   2.120
 1554SOL     OW 4669   3.262   0.107   2.288
 1554SOL    HW1 4670   3.238   0.070   2.198
 1554SOL    HW2 4671   3.361   0.123   2.292
 1555SOL     OW 4672   2.111   1.785   3.103
 1555SOL    HW1 4673   2.168   1.720   3.153
 1555SOL    HW2 4674   2.095   1.752   3.010
 1556SOL     OW 4675   2.802   1.698   2.766
 1556SOL    HW1 4676   2.882   1.641   2.787
 1556SOL    HW2 4677   2.753   1.658   2.689
 1557SOL     OW 4678   2.244   0.700   2.342
 1557SOL    HW1 4679   2.289   0.610   2.339
 1557SOL    HW2 4680   2.150   0.689   2.375
 1558SOL     OW 4681   3.409   0.222   3.591
 1558SOL    HW1 4682   3.404   0.259   3.683
 1558SOL    HW2 4683   3.337   0.153   3.579
 1559SOL     OW 4684   2.476   0.122   1.979
 1559SOL    HW1 4685   2.574   0.100   1.986
 1559SOL    HW2 4686   2.445   0.105   1.886
 1560SOL     OW 4687   2.643   0.264   3.611
 1560SOL    HW1 4688   2.710   0.203   3.654
 1560SOL    HW2 4689   2.570   0.283   3.676
 1561SOL     OW 4690   2.750   1.514   3.057
 1561SOL    HW1 4691   2.727   1.489   2.963
 1561SOL    HW2 4692   2.811   1.445   3.096
 1562SOL     OW 4693   3.213   0.590   3.295
 1562SOL    HW1 4694   3.241   0.547   3.380
 1562SOL    HW2 4695   3.238   0.686   3.296
 1563SOL     OW 4696   2.665   1.402   2.786
 1563SOL    HW1 4697   2.755   1.416   2.744
 1563SOL    HW2 4698   2.594   1.404   2.715
 1564SOL     OW 4699   2.784   0.503   2.761
 1564SOL    HW1 4700   2.759   0.494   2.665
 1564SOL    HW2 4701   2.832   0.421   2.792
 1565SOL     OW 4702   2.401   0.064   2.374
 1565SOL    HW1 4703   2.320   0.065   2.432
 1565SOL    HW2 4704   2.404   0.147   2.319
 1566SOL     OW 4705   3.296   1.188   1.903
 1566SOL    HW1 4706   3.328   1.112   1.960
 1566SOL    HW2 4707   3.204   1.215   1.933
 1567SOL     OW 4708   2.159   0.035   2.033
 1567SOL    HW1 4709   2.208   0.119   2.012
 1567SOL    HW2 4710   2.221  -0.030   2.078
 1568SOL     OW 4711   2.797   0.236   2.342
 1568SOL    HW1 4712   2.749   0.277   2.264
 1568SOL    HW2 4713   2.896   0.234   2.323
 1569SOL     OW 4714   2.938   0.683   3.326
 1569SOL    HW1 4715   2.858   0.622   3.329
 1569SOL    HW2 4716   3.019   0.630   3.302
 1570SOL     OW 4717   3.089   1.570   2.655
 1570SOL    HW1 4718   3.110   1.644   2.590
 1570SOL    HW2 4719   3.157   1.570   2.728
 1571SOL     OW 4720   2.321   1.152   2.603
 1571SOL    HW1 4721   2.250   1.125   2.668
 1571SOL    HW2 4722   2.295   1.124   2.510
 1572SOL     OW 4723   3.133   1.797   2.453
 1572SOL    HW1 4724   3.177   1.861   2.389
 1572SOL    HW2 4725   3.083   1.849   2.523
 1573SOL     OW 4726   2.894   0.549   1.878
 1573SOL    HW1 4727   2.853   0.631   1.839
 1573SOL    HW2 4728   2.958   0.575   1.951
 1574SOL     OW 4729   1.940   0.556   3.248
 1574SOL    HW1 4730   2.032   0.555   3.207
 1574SOL    HW2 4731   1.934   0.630   3.315
 1575SOL     OW 4732   2.423   0.222   3.009
 1575SOL    HW1 4733   2.461   0.138   3.046
 1575SOL    HW2 4734   2.335   0.241   3.053
 1576SOL     OW 4735   2.728   0.454   2.504
 1576SOL    HW1 4736   2.696   0.526   2.442
 1576SOL    HW2 4737   2.752   0.373   2.451
 1577SOL     OW 4738   2.879   0.039   2.615
 1577SOL    HW1 4739   2.807   0.044   2.546
 1577SOL    HW2 4740   2.855  -0.030   2.684
 1578SOL     OW 4741   3.291   1.173   2.729
 1578SOL    HW1 4742   3.236   1.089   2.722
 1578SOL    HW2 4743   3.317   1.202   2.637
 1579SOL     OW 4744   3.328   0.590   2.854
 1579SOL    HW1 4745   3.298   0.495   2.861
 1579SOL    HW2 4746   3.401   0.606   2.920
 1580SOL     OW 4747   3.719   0.833   2.239
 1580SOL    HW1 4748   3.761   0.769   2.303
 1580SOL    HW2 4749   3.681   0.782   2.161
 1581SOL     OW 4750   2.350   1.385   2.036
 1581SOL    HW1 4751   2.263   1.370   2.083
 1581SOL    HW2 4752   2.333   1.411   1.941
 1582SOL     OW 4753   3.526   1.280   2.519
 1582SOL    HW1 4754   3.625   1.288   2.533
 1582SOL    HW2 4755   3.481   1.364   2.550
 1583SOL     OW 4756   3.252   0.575   1.940
 1583SOL    HW1 4757   3.198   0.554   2.021
 1583SOL    HW2 4758   3.343   0.534   1.949
 1584SOL     OW 4759   2.389   0.256   2.190
 1584SOL    HW1 4760   2.416   0.197   2.115
 1584SOL    HW2 4761   2.389   0.351   2.159
 1585SOL     OW 4762   3.616   1.223   3.450
 1585SOL    HW1 4763   3.707   1.184   3.437
 1585SOL    HW2 4764   3.624   1.319   3.474
 1586SOL     OW 4765   2.926   1.347   3.202
 1586SOL    HW1 4766   2.846   1.324   3.257
 1586SOL    HW2 4767   3.009   1.321   3.251
 1587SOL     OW 4768   3.454   1.629   3.487
 1587SOL    HW1 4769   3.481   1.663   3.397
 1587SOL    HW2 4770   3.533   1.591   3.533
 1588SOL     OW 4771   2.973   1.195   2.962
 1588SOL    HW1 4772   2.933   1.239   3.043
 1588SOL    HW2 4773   2.932   1.232   2.879
 1589SOL     OW 4774   3.500   1.099   2.941
 1589SOL    HW1 4775   3.505   1.180   3.000
 1589SOL    HW2 4776   3.414   1.101   2.890
 1590SOL     OW 4777   2.777   0.089   3.264
 1590SOL    HW1 4778   2.802   0.069   3.169
 1590SOL    HW2 4779   2.849   0.145   3.306
 1591SOL     OW 4780   2.842   1.116   3.581
 1591SOL    HW1 4781   2.743   1.122   3.591
 1591SOL    HW2 4782   2.865   1.036   3.525
 1592SOL     OW 4783   2.567   1.050   2.230
 1592SOL    HW1 4784   2.553   1.057   2.329
 1592SOL    HW2 4785   2.651   0.999   2.212
 1593SOL     OW 4786   2.272   0.813   3.113
 1593SOL    HW1 4787   2.358   0.825   3.163
 1593SOL    HW2 4788   2.230   0.726   3.140
 1594SOL     OW 4789   3.136   0.386   3.124
 1594SOL    HW1 4790   3.157   0.460   3.188
 1594SOL    HW2 4791   3.047   0.403   3.081
 1595SOL     OW 4792   1.926   1.564   3.193
 1595SOL    HW1 4793   1.880   1.646   3.159
 1595SOL    HW2 4794   2.024   1.583   3.202
 1596SOL     OW 4795   2.229   1.100   2.363
 1596SOL    HW1 4796   2.222   1.183   2.307
 1596SOL    HW2 4797   2.233   1.020   2.303
 1597SOL     OW 4798   2.428   0.537   2.727
 1597SOL    HW1 4799   2.440   0.603   2.653
 1597SOL    HW2 4800   2.474   0.571   2.810
 1598SOL     OW 4801   3.114   1.348   2.250
 1598SOL    HW1 4802   3.164   1.425   2.290
 1598SOL    HW2 4803   3.019   1.350   2.282
 1599SOL     OW 4804   3.134   1.445   3.004
 1599SOL    HW1 4805   3.181   1.458   3.091
 1599SOL    HW2 4806   3.068   1.371   3.013
 1600SOL     OW 4807   3.444   0.639   2.334
 1600SOL    HW1 4808   3.413   0.700   2.407
 1600SOL    HW2 4809   3.494   0.691   2.265
 1601SOL     OW 4810   2.216   1.510   3.191
 1601SOL    HW1 4811   2.195   1.466   3.104
 1601SOL    HW2 4812   2.313   1.536   3.194
 1602SOL     OW 4813   2.264   0.751   3.460
 1602SOL    HW1 4814   2.332   0.806   3.413
 1602SOL    HW2 4815   2.304   0.663   3.487
 1603SOL     OW 4816   3.449   0.779   3.532
 1603SOL    HW1 4817   3.357   0.817   3.527
 1603SOL    HW2 4818   3.509   0.826   3.467
 1604SOL     OW 4819   2.875   0.105   3.632
 1604SOL    HW1 4820   2.881   0.190   3.580
 1604SOL    HW2 4821   2.907   0.029   3.575
 1605SOL     OW 4822   2.366   0.050   3.602
 1605SOL    HW1 4823   2.324  -0.007   3.532
 1605SOL    HW2 4824   2.300   0.119   3.634
 1606SOL     OW 4825   2.435   0.870   2.891
 1606SOL    HW1 4826   2.479   0.959   2.882
 1606SOL    HW2 4827   2.372   0.870   2.968
 1607SOL     OW 4828   3.222   0.862   2.907
 1607SOL    HW1 4829   3.147   0.862   2.841
 1607SOL    HW2 4830   3.259   0.770   2.916
 1608SOL     OW 4831   3.071   0.525   2.137
 1608SOL    HW1 4832   3.084   0.441   2.191
 1608SOL    HW2 4833   3.042   0.599   2.197
 1609SOL     OW 4834   2.169   0.213   3.093
 1609SOL    HW1 4835   2.146   0.250   3.183
 1609SOL    HW2 4836   2.139   0.118   3.087
 1610SOL     OW 4837   1.899   1.310   3.144
 1610SOL    HW1 4838   1.952   1.261   3.212
 1610SOL    HW2 4839   1.921   1.408   3.149
 1611SOL     OW 4840   2.594   0.634   2.926
 1611SOL    HW1 4841   2.653   0.608   2.850
 1611SOL    HW2 4842   2.566   0.730   2.915
 1612SOL     OW 4843   3.590   0.935   3.716
 1612SOL    HW1 4844   3.544   0.928   3.627
 1612SOL    HW2 4845   3.528   0.979   3.782
 1613SOL     OW 4846   2.169   0.063   2.480
 1613SOL    HW1 4847   2.158   0.157   2.513
 1613SOL    HW2 4848   2.164   0.000   2.557
 1614SOL     OW 4849   3.484   0.367   2.236
 1614SOL    HW1 4850   3.486   0.291   2.300
 1614SOL    HW2 4851   3.436   0.444   2.276
 1615SOL     OW 4852   2.885   0.766   2.828
 1615SOL    HW1 4853   2.900   0.787   2.924
 1615SOL    HW2 4854   2.855   0.671   2.819
 1616SOL     OW 4855   2.842   1.573   3.562
 1616SOL    HW1 4856   2.822   1.617   3.474
 1616SOL    HW2 4857   2.881   1.482   3.546
 1617SOL     OW 4858   3.721   1.518   3.467
 1617SOL    HW1 4859   3.735   1.545   3.372
 1617SOL    HW2 4860   3.804   1.540   3.520
 1618SOL     OW 4861   2.212   0.898   3.666
 1618SOL    HW1 4862   2.288   0.942   3.714
 1618SOL    HW2 4863   2.247   0.851   3.584
 1619SOL     OW 4864   3.402   0.274   1.987
 1619SOL    HW1 4865   3.341   0.199   2.010
 1619SOL    HW2 4866   3.424   0.326   2.070
 1620SOL     OW 4867   3.165   0.838   1.904
 1620SOL    HW1 4868   3.199   0.745   1.919
 1620SOL    HW2 4869   3.183   0.865   1.809
 1621SOL     OW 4870   2.930   1.333   2.711
 1621SOL    HW1 4871   2.937   1.249   2.656
 1621SOL    HW2 4872   2.992   1.402   2.675
 1622SOL     OW 4873   2.181   0.810   2.811
 1622SOL    HW1 4874   2.274   0.846   2.816
 1622SOL    HW2 4875   2.175   0.725   2.863
 1623SOL     OW 4876   2.201   0.509   2.868
 1623SOL    HW1 4877   2.149   0.426   2.851
 1623SOL    HW2 4878   2.278   0.514   2.804
 1624SOL     OW 4879   3.000   0.380   3.540
 1624SOL    HW1 4880   2.955   0.443   3.604
 1624SOL    HW2 4881   3.093   0.411   3.523
 1625SOL     OW 4882   3.022   0.207   3.339
 1625SOL    HW1 4883   3.022   0.271   3.416
 1625SOL    HW2 4884   3.050   0.255   3.256
 1626SOL     OW 4885   1.870   1.326   2.062
 1626SOL    HW1 4886   1.777   1.347   2.031
 1626SOL    HW2 4887   1.880   1.227   2.075
 1627SOL     OW 4888   1.950   1.801   2.789
 1627SOL    HW1 4889   1.908   1.715   2.762
 1627SOL    HW2 4890   2.044   1.804   2.755
 1628SOL     OW 4891   2.366   1.568   2.772
 1628SOL    HW1 4892   2.432   1.642   2.781
 1628SOL    HW2 4893   2.410   1.489   2.730
 1629SOL     OW 4894   2.864   0.796   3.100
 1629SOL    HW1 4895   2.905   0.764   3.186
 1629SOL    HW2 4896   2.768   0.769   3.097
 1630SOL     OW 4897   1.902   0.544   2.976
 1630SOL    HW1 4898   1.987   0.511   2.935
 1630SOL    HW2 4899   1.915   0.559   3.074
 1631SOL     OW 4900   2.051   0.520   3.584
 1631SOL    HW1 4901   2.110   0.480   3.514
 1631SOL    HW2 4902   1.993   0.591   3.543
 1632SOL     OW 4903   3.231   0.950   3.522
 1632SOL    HW1 4904   3.270   1.039   3.542
 1632SOL    HW2 4905   3.241   0.930   3.425
 1633SOL     OW 4906   2.677   0.572   2.187
 1633SOL    HW1 4907   2.684   0.483   2.141
 1633SOL    HW2 4908   2.583   0.606   2.179
 1634SOL     OW 4909   3.519   0.604   3.068
 1634SOL    HW1 4910   3.481   0.535   3.130
 1634SOL    HW2 4911   3.601   0.568   3.024
 1635SOL     OW 4912   2.114   1.564   3.606
 1635SOL    HW1 4913   2.084   1.621   3.682
 1635SOL    HW2 4914   2.107   1.467   3.632
 1636SOL     OW 4915   2.533   0.464   3.131
 1636SOL    HW1 4916   2.499   0.375   3.101
 1636SOL    HW2 4917   2.559   0.518   3.051
 1637SOL     OW 4918   2.792   1.678   3.327
 1637SOL    HW1 4919   2.768   1.660   3.232
 1637SOL    HW2 4920   2.822   1.772   3.337
 1638SOL     OW 4921   2.335   0.500   2.053
 1638SOL    HW1 4922   2.396   0.580   2.057
 1638SOL    HW2 4923   2.240   0.531   2.060
 1639SOL     OW 4924   2.021   1.137   3.328
 1639SOL    HW1 4925   2.043   1.076   3.404
 1639SOL    HW2 4926   2.031   1.088   3.242
 1640SOL     OW 4927   3.209   1.059   3.096
 1640SOL    HW1 4928   3.233   0.996   3.022
 1640SOL    HW2 4929   3.119   1.099   3.078
 1641SOL     OW 4930   3.164   0.855   2.171
 1641SOL    HW1 4931   3.078   0.824   2.213
 1641SOL    HW2 4932   3.160   0.841   2.072
 1642SOL     OW 4933   3.621   1.747   3.016
 1642SOL    HW1 4934   3.682   1.777   2.943
 1642SOL    HW2 4935   3.583   1.658   2.994
 1643SOL     OW 4936   3.114   1.731   2.990
 1643SOL    HW1 4937   3.198   1.736   2.936
 1643SOL    HW2 4938   3.091   1.635   3.008
 1644SOL     OW 4939   1.945   1.258   2.884
 1644SOL    HW1 4940   1.940   1.257   2.984
 1644SOL    HW2 4941   1.862   1.217   2.846
 1645SOL     OW 4942   2.550   1.662   3.578
 1645SOL    HW1 4943   2.494   1.743   3.587
 1645SOL    HW2 4944   2.602   1.666   3.492
 1646SOL     OW 4945   3.588   0.135   2.385
 1646SOL    HW1 4946   3.661   0.118   2.318
 1646SOL    HW2 4947   3.557   0.048   2.423
 1647SOL     OW 4948   3.250   1.573   2.339
 1647SOL    HW1 4949   3.317   1.585   2.265
 1647SOL    HW2 4950   3.210   1.662   2.362
 1648SOL     OW 4951   1.992   1.794   3.713
 1648SOL    HW1 4952   1.951   1.720   3.766
 1648SOL    HW2 4953   2.056   1.845   3.771
 1649SOL     OW 4954   3.142   0.927   2.534
 1649SOL    HW1 4955   3.202   0.846   2.536
 1649SOL    HW2 4956   3.182   0.996   2.474
 1650SOL     OW 4957   2.692   1.273   3.284
 1650SOL    HW1 4958   2.687   1.306   3.379
 1650SOL    HW2 4959   2.606   1.292   3.238
 1651SOL     OW 4960   2.534   1.616   2.016
 1651SOL    HW1 4961   2.543   1.626   1.917
 1651SOL    HW2 4962   2.494   1.527   2.037
 1652SOL     OW 4963   3.512   1.720   3.256
 1652SOL    HW1 4964   3.565   1.730   3.172
 1652SOL    HW2 4965   3.485   1.810   3.290
 1653SOL     OW 4966   3.703   0.175   2.825
 1653SOL    HW1 4967   3.742   0.090   2.789
 1653SOL    HW2 4968   3.605   0.177   2.806
 1654SOL     OW 4969   2.125   0.326   2.582
 1654SOL    HW1 4970   2.046   0.377   2.548
 1654SOL    HW2 4971   2.116   0.311   2.680
 1655SOL     OW 4972   3.056   1.612   1.893
 1655SOL    HW1 4973   3.062   1.519   1.930
 1655SOL    HW2 4974   2.997   1.612   1.813
 1656SOL     OW 4975   2.684   1.002   3.234
 1656SOL    HW1 4976   2.724   1.001   3.142
 1656SOL    HW2 4977   2.694   1.094   3.274
 1657SOL     OW 4978   2.778   0.910   2.153
 1657SOL    HW1 4979   2.841   0.948   2.085
 1657SOL    HW2 4980   2.818   0.827   2.192
 1658SOL     OW 4981   3.366   1.607   1.906
 1658SOL    HW1 4982   3.274   1.644   1.913
 1658SOL    HW2 4983   3.404   1.627   1.816
 1659SOL     OW 4984   2.234   1.288   3.352
 1659SOL    HW1 4985   2.221   1.381   3.318
 1659SOL    HW2 4986   2.150   1.236   3.339
 1660SOL     OW 4987   3.476   1.292   3.151
 1660SOL    HW1 4988   3.536   1.295   3.231
 1660SOL    HW2 4989   3.401   1.356   3.164
 1661SOL     OW 4990   2.901   1.098   2.558
 1661SOL    HW1 4991   2.831   1.051   2.612
 1661SOL    HW2 4992   2.960   1.030   2.515
 1662SOL     OW 4993   2.876   0.236   2.833
 1662SOL    HW1 4994   2.868   0.200   2.740
 1662SOL    HW2 4995   2.874   0.160   2.898
 1663SOL     OW 4996   2.452   1.487   2.353
 1663SOL    HW1 4997   2.494   1.429   2.283
 1663SOL    HW2 4998   2.408   1.566   2.309
 1664SOL     OW 4999   3.571   0.385   3.243
 1664SOL    HW1 5000   3.644   0.454   3.247
 1664SOL    HW2 5001   3.599   0.310   3.184
 1665SOL     OW 5002   2.117   1.348   2.152
 1665SOL    HW1 5003   2.021   1.349   2.125
 1665SOL    HW2 5004   2.129   1.401   2.236
 1666SOL     OW 5005   1.967   1.013   3.588
 1666SOL    HW1 5006   1.890   0.980   3.642
 1666SOL    HW2 5007   2.052   0.983   3.630
 1667SOL     OW 5008   2.534   0.203   3.351
 1667SOL    HW1 5009   2.624   0.187   3.311
 1667SOL    HW2 5010   2.542   0.208   3.450
 1668SOL     OW 5011   1.937   0.345   1.895
 1668SOL    HW1 5012   1.845   0.317   1.866
 1668SOL    HW2 5013   1.968   0.422   1.839
 1669SOL     OW 5014   3.302   0.856   3.260
 1669SOL    HW1 5015   3.245   0.908   3.197
 1669SOL    HW2 5016   3.398   0.868   3.236
 1670SOL     OW 5017   1.934   0.166   2.180
 1670SOL    HW1 5018   1.917   0.249   2.126
 1670SOL    HW2 5019   2.024   0.129   2.158
 1671SOL     OW 5020   3.045   1.335   1.981
 1671SOL    HW1 5021   2.946   1.324   1.983
 1671SOL    HW2 5022   3.079   1.350   2.074
 1672SOL     OW 5023   2.475   0.842   3.293
 1672SOL    HW1 5024   2.531   0.923   3.276
 1672SOL    HW2 5025   2.534   0.762   3.296
 1673SOL     OW 5026   3.355   1.767   2.821
 1673SOL    HW1 5027   3.388   1.831   2.752
 1673SOL    HW2 5028   3.421   1.761   2.896
 1674SOL     OW 5029   2.578   0.565   3.570
 1674SOL    HW1 5030   2.597   0.630   3.644
 1674SOL    HW2 5031   2.638   0.485   3.579
 1675SOL     OW 5032   3.312   1.220   3.495
 1675SOL    HW1 5033   3.303   1.210   3.594
 1675SOL    HW2 5034   3.408   1.213   3.469
 1676SOL     OW 5035   2.252   1.741   3.422
 1676SOL    HW1 5036   2.161   1.782   3.420
 1676SOL    HW2 5037   2.245   1.647   3.454
 1677SOL     OW 5038   3.536   0.883   3.116
 1677SOL    HW1 5039   3.509   0.794   3.079
 1677SOL    HW2 5040   3.537   0.951   3.043
 1678SOL     OW 5041   3.087   0.325   2.311
 1678SOL    HW1 5042   3.152   0.251   2.300
 1678SOL    HW2 5043   3.107   0.375   2.395
 1679SOL     OW 5044   2.456   0.745   2.514
 1679SOL    HW1 5045   2.506   0.830   2.495
 1679SOL    HW2 5046   2.368   0.747   2.466
 1680SOL     OW 5047   3.639   0.342   3.504
 1680SOL    HW1 5048   3.622   0.373   3.410
 1680SOL    HW2 5049   3.555   0.305   3.542
 1681SOL     OW 5050   3.592   0.934   3.379
 1681SOL    HW1 5051   3.630   1.025   3.394
 1681SOL    HW2 5052   3.584   0.917   3.280
 1682SOL     OW 5053   2.721   1.374   1.878
 1682SOL    HW1 5054   2.675   1.389   1.966
 1682SOL    HW2 5055   2.765   1.459   1.848
 1683SOL     OW 5056   2.523   1.790   2.815
 1683SOL    HW1 5057   2.477   1.878   2.802
 1683SOL    HW2 5058   2.622   1.802   2.808
 1684SOL     OW 5059   2.721   0.956   2.723
 1684SOL    HW1 5060   2.775   0.887   2.771
 1684SOL    HW2 5061   2.689   1.025   2.789
 1685SOL     OW 5062   2.945   0.984   1.949
 1685SOL    HW1 5063   2.922   1.037   1.867
 1685SOL    HW2 5064   3.026   0.928   1.930
 1686SOL     OW 5065   3.723   1.569   2.713
 1686SOL    HW1 5066   3.652   1.557   2.643
 1686SOL    HW2 5067   3.724   1.490   2.773
 1687SOL     OW 5068   2.083   1.314   3.706
 1687SOL    HW1 5069   2.018   1.241   3.685
 1687SOL    HW2 5070   2.087   1.328   3.804
 1688SOL     OW 5071   1.941   1.240   2.515
 1688SOL    HW1 5072   1.940   1.193   2.603
 1688SOL    HW2 5073   2.023   1.212   2.464
 1689SOL     OW 5074   2.534   1.391   3.486
 1689SOL    HW1 5075   2.456   1.341   3.524
 1689SOL    HW2 5076   2.531   1.486   3.517
 1690SOL     OW 5077   3.686   0.192   3.089
 1690SOL    HW1 5078   3.682   0.102   3.133
 1690SOL    HW2 5079   3.689   0.181   2.990
 1691SOL     OW 5080   2.290   0.424   2.382
 1691SOL    HW1 5081   2.320   0.352   2.320
 1691SOL    HW2 5082   2.251   0.384   2.465
 1692SOL     OW 5083   3.567   1.487   2.966
 1692SOL    HW1 5084   3.474   1.462   2.939
 1692SOL    HW2 5085   3.593   1.437   3.048
 1693SOL     OW 5086   2.179   0.547   3.142
 1693SOL    HW1 5087   2.217   0.488   3.214
 1693SOL    HW2 5088   2.219   0.521   3.054
 1694SOL     OW 5089   2.674   1.586   2.549
 1694SOL    HW1 5090   2.706   1.596   2.455
 1694SOL    HW2 5091   2.595   1.524   2.551
 1695SOL     OW 5092   3.286   0.214   2.974
 1695SOL    HW1 5093   3.338   0.149   3.029
 1695SOL    HW2 5094   3.237   0.277   3.035
 1696SOL     OW 5095   2.863   0.034   3.016
 1696SOL    HW1 5096   2.800  -0.038   2.985
 1696SOL    HW2 5097   2.956  -0.002   3.016
 1697SOL     OW 5098   2.632   1.330   2.163
 1697SOL    HW1 5099   2.586   1.243   2.180
 1697SOL    HW2 5100   2.723   1.327   2.204
 1698SOL     OW 5101   2.480   1.567   3.146
 1698SOL    HW1 5102   2.475   1.649   3.203
 1698SOL    HW2 5103   2.569   1.564   3.101
 1699SOL     OW 5104   3.214   0.052   2.030
 1699SOL    HW1 5105   3.249   0.011   1.946
 1699SOL    HW2 5106   3.124   0.014   2.050
 1700SOL     OW 5107   3.162   0.453   2.553
 1700SOL    HW1 5108   3.103   0.533   2.557
 1700SOL    HW2 5109   3.177   0.418   2.646
 1701SOL     OW 5110   3.455   0.221   2.744
 1701SOL    HW1 5111   3.371   0.220   2.798
 1701SOL    HW2 5112   3.457   0.304   2.688
 1702SOL     OW 5113   1.901   1.077   2.162
 1702SOL    HW1 5114   2.000   1.066   2.153
 1702SOL    HW2 5115   1.861   0.991   2.194
 1703SOL     OW 5116   2.737   1.646   2.199
 1703SOL    HW1 5117   2.660   1.611   2.145
 1703SOL    HW2 5118   2.705   1.717   2.261
 1704SOL     OW 5119   2.092   0.628   3.837
 1704SOL    HW1 5120   1.999   0.626   3.874
 1704SOL    HW2 5121   2.093   0.589   3.745
 1705SOL     OW 5122   2.087   0.275   4.720
 1705SOL    HW1 5123   2.122   0.258   4.812
 1705SOL    HW2 5124   1.999   0.230   4.708
 1706SOL     OW 5125   1.881   0.368   4.371
 1706SOL    HW1 5126   1.799   0.411   4.410
 1706SOL    HW2 5127   1.853   0.295   4.308
 1707SOL     OW 5128   3.617   0.607   3.955
 1707SOL    HW1 5129   3.605   0.594   3.856
 1707SOL    HW2 5130   3.587   0.526   4.004
 1708SOL     OW 5131   2.547   1.012   4.389
 1708SOL    HW1 5132   2.616   0.996   4.459
 1708SOL    HW2 5133   2.474   1.069   4.427
 1709SOL     OW 5134   3.465   0.447   4.461
 1709SOL    HW1 5135   3.391   0.493   4.411
 1709SOL    HW2 5136   3.516   0.515   4.514
 1710SOL     OW 5137   2.093   1.713   4.207
 1710SOL    HW1 5138   2.127   1.790   4.261
 1710SOL    HW2 5139   2.137   1.713   4.117
 1711SOL     OW 5140   2.092   1.434   4.262
 1711SOL    HW1 5141   2.066   1.530   4.262
 1711SOL    HW2 5142   2.021   1.380   4.307
 1712SOL     OW 5143   2.102   1.091   4.610
 1712SOL    HW1 5144   2.116   1.007   4.662
 1712SOL    HW2 5145   2.047   1.155   4.665
 1713SOL     OW 5146   2.468   0.964   3.847
 1713SOL    HW1 5147   2.475   1.048   3.793
 1713SOL    HW2 5148   2.514   0.977   3.935
 1714SOL     OW 5149   1.984   0.643   4.287
 1714SOL    HW1 5150   1.939   0.555   4.304
 1714SOL    HW2 5151   1.983   0.697   4.371
 1715SOL     OW 5152   3.704   1.767   4.083
 1715SOL    HW1 5153   3.758   1.738   4.163
 1715SOL    HW2 5154   3.734   1.857   4.054
 1716SOL     OW 5155   1.889   1.596   3.841
 1716SOL    HW1 5156   1.870   1.500   3.862
 1716SOL    HW2 5157   1.856   1.654   3.916
 1717SOL     OW 5158   3.551   0.922   4.336
 1717SOL    HW1 5159   3.646   0.893   4.344
 1717SOL    HW2 5160   3.543   0.987   4.261
 1718SOL     OW 5161   3.503   1.108   4.156
 1718SOL    HW1 5162   3.589   1.110   4.104
 1718SOL    HW2 5163   3.517   1.155   4.244
 1719SOL     OW 5164   2.475   1.365   4.450
 1719SOL    HW1 5165   2.426   1.278   4.459
 1719SOL    HW2 5166   2.452   1.408   4.363
 1720SOL     OW 5167   2.671   0.004   4.226
 1720SOL    HW1 5168   2.711   0.095   4.217
 1720SOL    HW2 5169   2.571   0.012   4.232
 1721SOL     OW 5170   3.387   0.999   3.914
 1721SOL    HW1 5171   3.324   0.923   3.927
 1721SOL    HW2 5172   3.435   1.017   4.000
 1722SOL     OW 5173   3.529   1.714   4.296
 1722SOL    HW1 5174   3.488   1.691   4.208
 1722SOL    HW2 5175   3.511   1.640   4.361
 1723SOL     OW 5176   2.460   0.729   3.994
 1723SOL    HW1 5177   2.484   0.798   3.926
 1723SOL    HW2 5178   2.382   0.762   4.048
 1724SOL     OW 5179   3.143   0.345   4.668
 1724SOL    HW1 5180   3.057   0.295   4.655
 1724SOL    HW2 5181   3.205   0.291   4.724
 1725SOL     OW 5182   3.438   1.662   4.031
 1725SOL    HW1 5183   3.527   1.708   4.034
 1725SOL    HW2 5184   3.417   1.638   3.936
 1726SOL     OW 5185   2.903   0.701   4.153
 1726SOL    HW1 5186   2.929   0.697   4.249
 1726SOL    HW2 5187   2.818   0.650   4.139
 1727SOL     OW 5188   1.938   0.811   4.513
 1727SOL    HW1 5189   2.037   0.799   4.522
 1727SOL    HW2 5190   1.914   0.906   4.534
 1728SOL     OW 5191   2.727   0.348   3.919
 1728SOL    HW1 5192   2.786   0.411   3.870
 1728SOL    HW2 5193   2.746   0.254   3.890
 1729SOL     OW 5194   3.224   1.144   4.269
 1729SOL    HW1 5195   3.307   1.115   4.221
 1729SOL    HW2 5196   3.175   1.211   4.213
 1730SOL     OW 5197   2.870   1.456   4.201
 1730SOL    HW1 5198   2.824   1.528   4.149
 1730SOL    HW2 5199   2.866   1.476   4.299
 1731SOL     OW 5200   2.213   1.801   4.577
 1731SOL    HW1 5201   2.263   1.715   4.583
 1731SOL    HW2 5202   2.278   1.878   4.574
 1732SOL     OW 5203   3.657   1.066   4.597
 1732SOL    HW1 5204   3.595   1.051   4.521
 1732SOL    HW2 5205   3.605   1.077   4.682
 1733SOL     OW 5206   2.183   0.943   3.966
 1733SOL    HW1 5207   2.265   0.982   3.924
 1733SOL    HW2 5208   2.156   0.861   3.917
 1734SOL     OW 5209   3.320   0.735   4.452
 1734SOL    HW1 5210   3.315   0.670   4.527
 1734SOL    HW2 5211   3.400   0.794   4.465
 1735SOL     OW 5212   2.973   1.776   3.961
 1735SOL    HW1 5213   2.913   1.714   4.011
 1735SOL    HW2 5214   3.004   1.732   3.876
 1736SOL     OW 5215   3.494   1.377   3.805
 1736SOL    HW1 5216   3.462   1.471   3.795
 1736SOL    HW2 5217   3.418   1.314   3.793
 1737SOL     OW 5218   2.326   1.743   4.047
 1737SOL    HW1 5219   2.359   1.782   4.133
 1737SOL    HW2 5220   2.402   1.736   3.982
 1738SOL     OW 5221   3.262   0.107   4.150
 1738SOL    HW1 5222   3.238   0.070   4.060
 1738SOL    HW2 5223   3.361   0.123   4.154
 1739SOL     OW 5224   2.802   1.698   4.628
 1739SOL    HW1 5225   2.882   1.641   4.649
 1739SOL    HW2 5226   2.753   1.658   4.551
 1740SOL     OW 5227   2.244   0.700   4.204
 1740SOL    HW1 5228   2.289   0.610   4.201
 1740SOL    HW2 5229   2.150   0.689   4.237
 1741SOL     OW 5230   2.476   0.122   3.841
 1741SOL    HW1 5231   2.574   0.100   3.848
 1741SOL    HW2 5232   2.445   0.105   3.748
 1742SOL     OW 5233   2.401   0.064   4.236
 1742SOL    HW1 5234   2.320   0.065   4.294
 1742SOL    HW2 5235   2.404   0.147   4.181
 1743SOL     OW 5236   3.296   1.188   3.765
 1743SOL    HW1 5237   3.328   1.112   3.822
 1743SOL    HW2 5238   3.204   1.215   3.795
 1744SOL     OW 5239   2.159   0.035   3.895
 1744SOL    HW1 5240   2.208   0.119   3.874
 1744SOL    HW2 5241   2.221  -0.030   3.940
 1745SOL     OW 5242   2.797   0.236   4.204
 1745SOL    HW1 5243   2.749   0.277   4.126
 1745SOL    HW2 5244   2.896   0.234   4.185
 1746SOL     OW 5245   2.321   1.152   4.465
 1746SOL    HW1 5246   2.250   1.125   4.530
 1746SOL    HW2 5247   2.295   1.124   4.372
 1747SOL     OW 5248   3.133   1.797   4.315
 1747SOL    HW1 5249   3.177   1.861   4.251
 1747SOL    HW2 5250   3.083   1.849   4.385
 1748SOL     OW 5251   2.894   0.549   3.740
 1748SOL    HW1 5252   2.853   0.631   3.701
 1748SOL    HW2 5253   2.958   0.575   3.813
 1749SOL     OW 5254   2.728   0.454   4.366
 1749SOL    HW1 5255   2.696   0.526   4.304
 1749SOL    HW2 5256   2.752   0.373   4.313
 1750SOL     OW 5257   3.719   0.833   4.101
 1750SOL    HW1 5258   3.761   0.769   4.165
 1750SOL    HW2 5259   3.681   0.782   4.023
 1751SOL     OW 5260   2.350   1.385   3.898
 1751SOL    HW1 5261   2.263   1.370   3.945
 1751SOL    HW2 5262   2.333   1.411   3.803
 1752SOL     OW 5263   3.526   1.280   4.381
 1752SOL    HW1 5264   3.625   1.288   4.395
 1752SOL    HW2 5265   3.481   1.364   4.412
 1753SOL     OW 5266   3.252   0.575   3.802
 1753SOL    HW1 5267   3.198   0.554   3.883
 1753SOL    HW2 5268   3.343   0.534   3.811
 1754SOL     OW 5269   2.389   0.256   4.052
 1754SOL    HW1 5270   2.416   0.197   3.977
 1754SOL    HW2 5271   2.389   0.351   4.021
 1755SOL     OW 5272   2.567   1.050   4.092
 1755SOL    HW1 5273   2.553   1.057   4.191
 1755SOL    HW2 5274   2.651   0.999   4.074
 1756SOL     OW 5275   2.229   1.100   4.225
 1756SOL    HW1 5276   2.222   1.183   4.169
 1756SOL    HW2 5277   2.233   1.020   4.165
 1757SOL     OW 5278   3.114   1.348   4.112
 1757SOL    HW1 5279   3.164   1.425   4.152
 1757SOL    HW2 5280   3.019   1.350   4.144
 1758SOL     OW 5281   3.444   0.639   4.196
 1758SOL    HW1 5282   3.413   0.700   4.269
 1758SOL    HW2 5283   3.494   0.691   4.127
 1759SOL     OW 5284   3.071   0.525   3.999
 1759SOL    HW1 5285   3.084   0.441   4.053
 1759SOL    HW2 5286   3.042   0.599   4.059
 1760SOL     OW 5287   2.169   0.063   4.342
 1760SOL    HW1 5288   2.158   0.157   4.375
 1760SOL    HW2 5289   2.164   0.000   4.419
 1761SOL     OW 5290   3.484   0.367   4.098
 1761SOL    HW1 5291   3.486   0.291   4.162
 1761SOL    HW2 5292   3.436   0.444   4.138
 1762SOL     OW 5293   2.885   0.766   4.690
 1762SOL    HW1 5294   2.900   0.787   4.786
 1762SOL    HW2 5295   2.855   0.671   4.681
 1763SOL     OW 5296   3.402   0.274   3.849
 1763SOL    HW1 5297   3.341   0.199   3.872
 1763SOL    HW2 5298   3.424   0.326   3.932
 1764SOL     OW 5299   3.165   0.838   3.766
 1764SOL    HW1 5300   3.199   0.745   3.781
 1764SOL    HW2 5301   3.183   0.865   3.671
 1765SOL     OW 5302   1.870   1.326   3.924
 1765SOL    HW1 5303   1.777   1.347   3.893
 1765SOL    HW2 5304   1.880   1.227   3.937
 1766SOL     OW 5305   2.677   0.572   4.049
 1766SOL    HW1 5306   2.684   0.483   4.003
 1766SOL    HW2 5307   2.583   0.606   4.041
 1767SOL     OW 5308   2.335   0.500   3.915
 1767SOL    HW1 5309   2.396   0.580   3.919
 1767SOL    HW2 5310   2.240   0.531   3.922
 1768SOL     OW 5311   3.164   0.855   4.033
 1768SOL    HW1 5312   3.078   0.824   4.075
 1768SOL    HW2 5313   3.160   0.841   3.934
 1769SOL     OW 5314   3.588   0.135   4.247
 1769SOL    HW1 5315   3.661   0.118   4.180
 1769SOL    HW2 5316   3.557   0.048   4.285
 1770SOL     OW 5317   3.250   1.573   4.201
 1770SOL    HW1 5318   3.317   1.585   4.127
 1770SOL    HW2 5319   3.210   1.662   4.224
 1771SOL     OW 5320   2.534   1.616   3.878
 1771SOL    HW1 5321   2.543   1.626   3.779
 1771SOL    HW2 5322   2.494   1.527   3.899
 1772SOL     OW 5323   3.703   0.175   4.687
 1772SOL    HW1 5324   3.742   0.090   4.651
 1772SOL    HW2 5325   3.605   0.177   4.668
 1773SOL     OW 5326   2.125   0.326   4.444
 1773SOL    HW1 5327   2.046   0.377   4.410
 1773SOL    HW2 5328   2.116   0.311   4.542
 1774SOL     OW 5329   3.056   1.612   3.755
 1774SOL    HW1 5330   3.062   1.519   3.792
 1774SOL    HW2 5331   2.997   1.612   3.675
 1775SOL     OW 5332   2.778   0.910   4.015
 1775SOL    HW1 5333   2.841   0.948   3.947
 1775SOL    HW2 5334   2.818   0.827   4.054
 1776SOL     OW 5335   3.366   1.607   3.768
 1776SOL    HW1 5336   3.274   1.644   3.775
 1776SOL    HW2 5337   3.404   1.627   3.678
 1777SOL     OW 5338   2.452   1.487   4.215
 1777SOL    HW1 5339   2.494   1.429   4.145
 1777SOL    HW2 5340   2.408   1.566   4.171
 1778SOL     OW 5341   2.117   1.348   4.014
 1778SOL    HW1 5342   2.021   1.349   3.987
 1778SOL    HW2 5343   2.129   1.401   4.098
 1779SOL     OW 5344   1.937   0.345   3.757
 1779SOL    HW1 5345   1.845   0.317   3.728
 1779SOL    HW2 5346   1.968   0.422   3.701
 1780SOL     OW 5347   1.934   0.166   4.042
 1780SOL    HW1 5348   1.917   0.249   3.988
 1780SOL    HW2 5349   2.024   0.129   4.020
 1781SOL     OW 5350   3.045   1.335   3.843
 1781SOL    HW1 5351   2.946   1.324   3.845
 1781SOL    HW2 5352   3.079   1.350   3.936
 1782SOL     OW 5353   3.087   0.325   4.173
 1782SOL    HW1 5354   3.152   0.251   4.162
 1782SOL    HW2 5355   3.107   0.375   4.257
 1783SOL     OW 5356   2.456   0.745   4.376
 1783SOL    HW1 5357   2.506   0.830   4.357
 1783SOL    HW2 5358   2.368   0.747   4.328
 1784SOL     OW 5359   2.721   1.374   3.740
 1784SOL    HW1 5360   2.675   1.389   3.828
 1784SOL    HW2 5361   2.765   1.459   3.710
 1785SOL     OW 5362   2.523   1.790   4.677
 1785SOL    HW1 5363   2.477   1.878   4.664
 1785SOL    HW2 5364   2.622   1.802   4.670
 1786SOL     OW 5365   2.721   0.956   4.585
 1786SOL    HW1 5366   2.775   0.887   4.633
 1786SOL    HW2 5367   2.689   1.025   4.651
 1787SOL     OW 5368   2.945   0.984   3.811
 1787SOL    HW1 5369   2.922   1.037   3.729
 1787SOL    HW2 5370   3.026   0.928   3.792
 1788SOL     OW 5371   1.941   1.240   4.377
 1788SOL    HW1 5372   1.940   1.193   4.465
 1788SOL    HW2 5373   2.023   1.212   4.326
 1789SOL     OW 5374   2.290   0.424   4.244
 1789SOL    HW1 5375   2.320   0.352   4.182
 1789SOL    HW2 5376   2.251   0.384   4.327
 1790SOL     OW 5377   3.567   1.487   4.828
 1790SOL    HW1 5378   3.474   1.462   4.801
 1790SOL    HW2 5379   3.593   1.437   4.910
 1791SOL     OW 5380   2.674   1.586   4.411
 1791SOL    HW1 5381   2.706   1.596   4.317
 1791SOL    HW2 5382   2.595   1.524   4.413
 1792SOL     OW 5383   2.632   1.330   4.025
 1792SOL    HW1 5384   2.586   1.243   4.042
 1792SOL    HW2 5385   2.723   1.327   4.066
 1793SOL     OW 5386   3.214   0.052   3.892
 1793SOL    HW1 5387   3.249   0.011   3.808
 1793SOL    HW2 5388   3.124   0.014   3.912
 1794SOL     OW 5389   3.162   0.453   4.415
 1794SOL    HW1 5390   3.103   0.533   4.419
 1794SOL    HW2 5391   3.177   0.418   4.508
 1795SOL     OW 5392   1.901   1.077   4.024
 1795SOL    HW1 5393   2.000   1.066   4.015
 1795SOL    HW2 5394   1.861   0.991   4.056
 1796SOL     OW 5395   2.737   1.646   4.061
 1796SOL    HW1 5396   2.660   1.611   4.007
 1796SOL    HW2 5397   2.705   1.717   4.123
 1797SOL     OW 5398   2.092   2.490   0.113
 1797SOL    HW1 5399   1.999   2.488   0.150
 1797SOL    HW2 5400   2.093   2.451   0.021
 1798SOL     OW 5401   2.087   2.137   0.996
 1798SOL    HW1 5402   2.122   2.120   1.088
 1798SOL    HW2 5403   1.999   2.092   0.984
 1799SOL     OW 5404   1.881   2.230   0.647
 1799SOL    HW1 5405   1.799   2.273   0.686
 1799SOL    HW2 5406   1.853   2.157   0.584
 1800SOL     OW 5407   2.431   3.137   1.165
 1800SOL    HW1 5408   2.338   3.130   1.128
 1800SOL    HW2 5409   2.442   3.226   1.209
 1801SOL     OW 5410   3.417   3.373   0.703
 1801SOL    HW1 5411   3.360   3.357   0.784
 1801SOL    HW2 5412   3.358   3.383   0.623
 1802SOL     OW 5413   2.997   2.565   0.717
 1802SOL    HW1 5414   3.054   2.643   0.692
 1802SOL    HW2 5415   2.937   2.591   0.793
 1803SOL     OW 5416   3.617   2.469   0.231
 1803SOL    HW1 5417   3.605   2.456   0.132
 1803SOL    HW2 5418   3.587   2.388   0.280
 1804SOL     OW 5419   2.630   3.006   1.023
 1804SOL    HW1 5420   2.552   3.023   1.083
 1804SOL    HW2 5421   2.664   3.093   0.987
 1805SOL     OW 5422   2.712   2.660   1.823
 1805SOL    HW1 5423   2.708   2.736   1.888
 1805SOL    HW2 5424   2.734   2.696   1.732
 1806SOL     OW 5425   2.547   2.874   0.665
 1806SOL    HW1 5426   2.616   2.858   0.735
 1806SOL    HW2 5427   2.474   2.931   0.703
 1807SOL     OW 5428   2.548   3.023   1.803
 1807SOL    HW1 5429   2.608   3.102   1.817
 1807SOL    HW2 5430   2.462   3.054   1.762
 1808SOL     OW 5431   2.197   3.297   1.061
 1808SOL    HW1 5432   2.119   3.266   1.008
 1808SOL    HW2 5433   2.255   3.355   1.004
 1809SOL     OW 5434   3.322   3.367   1.339
 1809SOL    HW1 5435   3.346   3.461   1.365
 1809SOL    HW2 5436   3.306   3.313   1.421
 1810SOL     OW 5437   2.300   2.254   1.499
 1810SOL    HW1 5438   2.382   2.198   1.508
 1810SOL    HW2 5439   2.219   2.196   1.503
 1811SOL     OW 5440   3.465   2.309   0.737
 1811SOL    HW1 5441   3.391   2.355   0.687
 1811SOL    HW2 5442   3.516   2.377   0.790
 1812SOL     OW 5443   2.093   3.575   0.483
 1812SOL    HW1 5444   2.127   3.652   0.537
 1812SOL    HW2 5445   2.137   3.575   0.393
 1813SOL     OW 5446   2.989   3.203   1.690
 1813SOL    HW1 5447   3.036   3.203   1.778
 1813SOL    HW2 5448   2.941   3.116   1.679
 1814SOL     OW 5449   2.092   3.296   0.538
 1814SOL    HW1 5450   2.066   3.392   0.538
 1814SOL    HW2 5451   2.021   3.242   0.583
 1815SOL     OW 5452   2.102   2.953   0.886
 1815SOL    HW1 5453   2.116   2.869   0.938
 1815SOL    HW2 5454   2.047   3.017   0.941
 1816SOL     OW 5455   2.482   3.648   1.439
 1816SOL    HW1 5456   2.390   3.631   1.474
 1816SOL    HW2 5457   2.510   3.740   1.465
 1817SOL     OW 5458   2.468   2.826   0.123
 1817SOL    HW1 5459   2.475   2.910   0.069
 1817SOL    HW2 5460   2.514   2.839   0.211
 1818SOL     OW 5461   3.456   1.976   1.480
 1818SOL    HW1 5462   3.438   2.043   1.408
 1818SOL    HW2 5463   3.453   2.022   1.569
 1819SOL     OW 5464   1.984   2.505   0.563
 1819SOL    HW1 5465   1.939   2.417   0.580
 1819SOL    HW2 5466   1.983   2.559   0.647
 1820SOL     OW 5467   3.704   3.629   0.359
 1820SOL    HW1 5468   3.758   3.600   0.439
 1820SOL    HW2 5469   3.734   3.719   0.330
 1821SOL     OW 5470   1.889   3.458   0.117
 1821SOL    HW1 5471   1.870   3.362   0.138
 1821SOL    HW2 5472   1.856   3.516   0.192
 1822SOL     OW 5473   3.551   2.784   0.612
 1822SOL    HW1 5474   3.646   2.755   0.620
 1822SOL    HW2 5475   3.543   2.849   0.537
 1823SOL     OW 5476   3.503   2.970   0.432
 1823SOL    HW1 5477   3.589   2.972   0.380
 1823SOL    HW2 5478   3.517   3.017   0.520
 1824SOL     OW 5479   1.975   2.599   1.597
 1824SOL    HW1 5480   2.063   2.586   1.642
 1824SOL    HW2 5481   1.962   2.696   1.575
 1825SOL     OW 5482   2.475   3.227   0.726
 1825SOL    HW1 5483   2.426   3.140   0.735
 1825SOL    HW2 5484   2.452   3.270   0.639
 1826SOL     OW 5485   3.155   3.090   1.423
 1826SOL    HW1 5486   3.192   3.017   1.365
 1826SOL    HW2 5487   3.207   3.095   1.508
 1827SOL     OW 5488   2.671   1.866   0.502
 1827SOL    HW1 5489   2.711   1.957   0.493
 1827SOL    HW2 5490   2.571   1.874   0.508
 1828SOL     OW 5491   2.059   2.838   1.264
 1828SOL    HW1 5492   2.148   2.793   1.250
 1828SOL    HW2 5493   1.986   2.773   1.245
 1829SOL     OW 5494   3.387   2.861   0.190
 1829SOL    HW1 5495   3.324   2.785   0.203
 1829SOL    HW2 5496   3.435   2.879   0.276
 1830SOL     OW 5497   3.049   3.654   1.616
 1830SOL    HW1 5498   3.073   3.714   1.540
 1830SOL    HW2 5499   3.056   3.559   1.586
 1831SOL     OW 5500   2.179   2.113   1.801
 1831SOL    HW1 5501   2.250   2.184   1.807
 1831SOL    HW2 5502   2.091   2.152   1.829
 1832SOL     OW 5503   3.328   3.279   0.953
 1832SOL    HW1 5504   3.269   3.285   1.033
 1832SOL    HW2 5505   3.313   3.191   0.907
 1833SOL     OW 5506   3.529   3.576   0.572
 1833SOL    HW1 5507   3.488   3.553   0.484
 1833SOL    HW2 5508   3.511   3.502   0.637
 1834SOL     OW 5509   2.460   2.591   0.270
 1834SOL    HW1 5510   2.484   2.660   0.202
 1834SOL    HW2 5511   2.382   2.624   0.324
 1835SOL     OW 5512   3.143   2.207   0.944
 1835SOL    HW1 5513   3.057   2.157   0.931
 1835SOL    HW2 5514   3.205   2.153   1.000
 1836SOL     OW 5515   3.438   3.524   0.307
 1836SOL    HW1 5516   3.527   3.570   0.310
 1836SOL    HW2 5517   3.417   3.500   0.212
 1837SOL     OW 5518   2.669   2.467   1.465
 1837SOL    HW1 5519   2.622   2.464   1.554
 1837SOL    HW2 5520   2.618   2.412   1.399
 1838SOL     OW 5521   3.256   2.331   1.674
 1838SOL    HW1 5522   3.236   2.374   1.762
 1838SOL    HW2 5523   3.334   2.269   1.683
 1839SOL     OW 5524   2.835   2.752   1.572
 1839SOL    HW1 5525   2.881   2.668   1.543
 1839SOL    HW2 5526   2.779   2.786   1.497
 1840SOL     OW 5527   2.853   2.272   1.242
 1840SOL    HW1 5528   2.776   2.306   1.296
 1840SOL    HW2 5529   2.819   2.221   1.163
 1841SOL     OW 5530   2.903   2.563   0.429
 1841SOL    HW1 5531   2.929   2.559   0.525
 1841SOL    HW2 5532   2.818   2.512   0.415
 1842SOL     OW 5533   1.938   2.673   0.789
 1842SOL    HW1 5534   2.037   2.661   0.798
 1842SOL    HW2 5535   1.914   2.768   0.810
 1843SOL     OW 5536   1.992   3.683   1.571
 1843SOL    HW1 5537   1.982   3.668   1.670
 1843SOL    HW2 5538   1.906   3.719   1.535
 1844SOL     OW 5539   2.727   2.210   0.195
 1844SOL    HW1 5540   2.786   2.273   0.146
 1844SOL    HW2 5541   2.746   2.116   0.166
 1845SOL     OW 5542   3.581   2.447   1.831
 1845SOL    HW1 5543   3.555   2.536   1.795
 1845SOL    HW2 5544   3.579   2.379   1.758
 1846SOL     OW 5545   3.224   3.006   0.545
 1846SOL    HW1 5546   3.307   2.977   0.497
 1846SOL    HW2 5547   3.175   3.073   0.489
 1847SOL     OW 5548   2.412   2.058   0.885
 1847SOL    HW1 5549   2.407   2.053   0.985
 1847SOL    HW2 5550   2.414   2.154   0.856
 1848SOL     OW 5551   2.870   3.318   0.477
 1848SOL    HW1 5552   2.824   3.390   0.425
 1848SOL    HW2 5553   2.866   3.338   0.575
 1849SOL     OW 5554   2.213   3.663   0.853
 1849SOL    HW1 5555   2.263   3.577   0.859
 1849SOL    HW2 5556   2.278   3.740   0.850
 1850SOL     OW 5557   3.657   2.928   0.873
 1850SOL    HW1 5558   3.595   2.913   0.797
 1850SOL    HW2 5559   3.605   2.939   0.958
 1851SOL     OW 5560   3.089   3.412   1.506
 1851SOL    HW1 5561   3.095   3.335   1.570
 1851SOL    HW2 5562   3.037   3.386   1.426
 1852SOL     OW 5563   2.183   2.805   0.242
 1852SOL    HW1 5564   2.265   2.844   0.200
 1852SOL    HW2 5565   2.156   2.723   0.193
 1853SOL     OW 5566   3.320   2.597   0.728
 1853SOL    HW1 5567   3.315   2.532   0.803
 1853SOL    HW2 5568   3.400   2.656   0.741
 1854SOL     OW 5569   2.323   3.128   1.727
 1854SOL    HW1 5570   2.273   3.129   1.641
 1854SOL    HW2 5571   2.260   3.110   1.803
 1855SOL     OW 5572   2.973   3.638   0.237
 1855SOL    HW1 5573   2.913   3.576   0.287
 1855SOL    HW2 5574   3.004   3.594   0.152
 1856SOL     OW 5575   2.064   2.147   1.498
 1856SOL    HW1 5576   1.984   2.207   1.485
 1856SOL    HW2 5577   2.054   2.098   1.584
 1857SOL     OW 5578   3.494   3.239   0.081
 1857SOL    HW1 5579   3.462   3.333   0.071
 1857SOL    HW2 5580   3.418   3.176   0.069
 1858SOL     OW 5581   2.326   3.605   0.323
 1858SOL    HW1 5582   2.359   3.644   0.409
 1858SOL    HW2 5583   2.402   3.598   0.258
 1859SOL     OW 5584   3.262   1.969   0.426
 1859SOL    HW1 5585   3.238   1.932   0.336
 1859SOL    HW2 5586   3.361   1.985   0.430
 1860SOL     OW 5587   2.111   3.647   1.241
 1860SOL    HW1 5588   2.168   3.582   1.291
 1860SOL    HW2 5589   2.095   3.614   1.148
 1861SOL     OW 5590   2.802   3.560   0.904
 1861SOL    HW1 5591   2.882   3.503   0.925
 1861SOL    HW2 5592   2.753   3.520   0.827
 1862SOL     OW 5593   2.244   2.562   0.480
 1862SOL    HW1 5594   2.289   2.472   0.477
 1862SOL    HW2 5595   2.150   2.551   0.513
 1863SOL     OW 5596   3.409   2.084   1.729
 1863SOL    HW1 5597   3.404   2.121   1.821
 1863SOL    HW2 5598   3.337   2.015   1.717
 1864SOL     OW 5599   2.643   2.126   1.749
 1864SOL    HW1 5600   2.710   2.065   1.792
 1864SOL    HW2 5601   2.570   2.145   1.814
 1865SOL     OW 5602   2.750   3.376   1.195
 1865SOL    HW1 5603   2.727   3.351   1.101
 1865SOL    HW2 5604   2.811   3.307   1.234
 1866SOL     OW 5605   3.213   2.452   1.433
 1866SOL    HW1 5606   3.241   2.409   1.518
 1866SOL    HW2 5607   3.238   2.548   1.434
 1867SOL     OW 5608   2.665   3.264   0.924
 1867SOL    HW1 5609   2.755   3.278   0.882
 1867SOL    HW2 5610   2.594   3.266   0.853
 1868SOL     OW 5611   2.784   2.365   0.899
 1868SOL    HW1 5612   2.759   2.356   0.803
 1868SOL    HW2 5613   2.832   2.283   0.930
 1869SOL     OW 5614   2.401   1.926   0.512
 1869SOL    HW1 5615   2.320   1.927   0.570
 1869SOL    HW2 5616   2.404   2.009   0.457
 1870SOL     OW 5617   3.296   3.050   0.041
 1870SOL    HW1 5618   3.328   2.974   0.098
 1870SOL    HW2 5619   3.204   3.077   0.071
 1871SOL     OW 5620   2.159   1.897   0.171
 1871SOL    HW1 5621   2.208   1.981   0.150
 1871SOL    HW2 5622   2.221   1.832   0.216
 1872SOL     OW 5623   2.797   2.098   0.480
 1872SOL    HW1 5624   2.749   2.139   0.402
 1872SOL    HW2 5625   2.896   2.096   0.461
 1873SOL     OW 5626   2.938   2.545   1.464
 1873SOL    HW1 5627   2.858   2.484   1.467
 1873SOL    HW2 5628   3.019   2.492   1.440
 1874SOL     OW 5629   3.089   3.432   0.793
 1874SOL    HW1 5630   3.110   3.506   0.728
 1874SOL    HW2 5631   3.157   3.432   0.866
 1875SOL     OW 5632   2.321   3.014   0.741
 1875SOL    HW1 5633   2.250   2.987   0.806
 1875SOL    HW2 5634   2.295   2.986   0.648
 1876SOL     OW 5635   3.133   3.659   0.591
 1876SOL    HW1 5636   3.177   3.723   0.527
 1876SOL    HW2 5637   3.083   3.711   0.661
 1877SOL     OW 5638   2.894   2.411   0.016
 1877SOL    HW1 5639   2.853   2.493  -0.023
 1877SOL    HW2 5640   2.958   2.437   0.089
 1878SOL     OW 5641   1.940   2.418   1.386
 1878SOL    HW1 5642   2.032   2.417   1.345
 1878SOL    HW2 5643   1.934   2.492   1.453
 1879SOL     OW 5644   2.423   2.084   1.147
 1879SOL    HW1 5645   2.461   2.000   1.184
 1879SOL    HW2 5646   2.335   2.103   1.191
 1880SOL     OW 5647   2.728   2.316   0.642
 1880SOL    HW1 5648   2.696   2.388   0.580
 1880SOL    HW2 5649   2.752   2.235   0.589
 1881SOL     OW 5650   2.879   1.901   0.753
 1881SOL    HW1 5651   2.807   1.906   0.684
 1881SOL    HW2 5652   2.855   1.832   0.822
 1882SOL     OW 5653   3.291   3.035   0.867
 1882SOL    HW1 5654   3.236   2.951   0.860
 1882SOL    HW2 5655   3.317   3.064   0.775
 1883SOL     OW 5656   3.328   2.452   0.992
 1883SOL    HW1 5657   3.298   2.357   0.999
 1883SOL    HW2 5658   3.401   2.468   1.058
 1884SOL     OW 5659   3.719   2.695   0.377
 1884SOL    HW1 5660   3.761   2.631   0.441
 1884SOL    HW2 5661   3.681   2.644   0.299
 1885SOL     OW 5662   2.350   3.247   0.174
 1885SOL    HW1 5663   2.263   3.232   0.221
 1885SOL    HW2 5664   2.333   3.273   0.079
 1886SOL     OW 5665   3.526   3.142   0.657
 1886SOL    HW1 5666   3.625   3.150   0.671
 1886SOL    HW2 5667   3.481   3.226   0.688
 1887SOL     OW 5668   3.252   2.437   0.078
 1887SOL    HW1 5669   3.198   2.416   0.159
 1887SOL    HW2 5670   3.343   2.396   0.087
 1888SOL     OW 5671   2.389   2.118   0.328
 1888SOL    HW1 5672   2.416   2.059   0.253
 1888SOL    HW2 5673   2.389   2.213   0.297
 1889SOL     OW 5674   3.616   3.085   1.588
 1889SOL    HW1 5675   3.707   3.046   1.575
 1889SOL    HW2 5676   3.624   3.181   1.612
 1890SOL     OW 5677   2.926   3.209   1.340
 1890SOL    HW1 5678   2.846   3.186   1.395
 1890SOL    HW2 5679   3.009   3.183   1.389
 1891SOL     OW 5680   3.454   3.491   1.625
 1891SOL    HW1 5681   3.481   3.525   1.535
 1891SOL    HW2 5682   3.533   3.453   1.671
 1892SOL     OW 5683   2.973   3.057   1.100
 1892SOL    HW1 5684   2.933   3.101   1.181
 1892SOL    HW2 5685   2.932   3.094   1.017
 1893SOL     OW 5686   3.500   2.961   1.079
 1893SOL    HW1 5687   3.505   3.042   1.138
 1893SOL    HW2 5688   3.414   2.963   1.028
 1894SOL     OW 5689   2.777   1.951   1.402
 1894SOL    HW1 5690   2.802   1.931   1.307
 1894SOL    HW2 5691   2.849   2.007   1.444
 1895SOL     OW 5692   2.842   2.978   1.719
 1895SOL    HW1 5693   2.743   2.984   1.729
 1895SOL    HW2 5694   2.865   2.898   1.663
 1896SOL     OW 5695   2.567   2.912   0.368
 1896SOL    HW1 5696   2.553   2.919   0.467
 1896SOL    HW2 5697   2.651   2.861   0.350
 1897SOL     OW 5698   2.272   2.675   1.251
 1897SOL    HW1 5699   2.358   2.687   1.301
 1897SOL    HW2 5700   2.230   2.588   1.278
 1898SOL     OW 5701   3.136   2.248   1.262
 1898SOL    HW1 5702   3.157   2.322   1.326
 1898SOL    HW2 5703   3.047   2.265   1.219
 1899SOL     OW 5704   1.926   3.426   1.331
 1899SOL    HW1 5705   1.880   3.508   1.297
 1899SOL    HW2 5706   2.024   3.445   1.340
 1900SOL     OW 5707   2.229   2.962   0.501
 1900SOL    HW1 5708   2.222   3.045   0.445
 1900SOL    HW2 5709   2.233   2.882   0.441
 1901SOL     OW 5710   2.428   2.399   0.865
 1901SOL    HW1 5711   2.440   2.465   0.791
 1901SOL    HW2 5712   2.474   2.433   0.948
 1902SOL     OW 5713   3.114   3.210   0.388
 1902SOL    HW1 5714   3.164   3.287   0.428
 1902SOL    HW2 5715   3.019   3.212   0.420
 1903SOL     OW 5716   3.134   3.307   1.142
 1903SOL    HW1 5717   3.181   3.320   1.229
 1903SOL    HW2 5718   3.068   3.233   1.151
 1904SOL     OW 5719   3.444   2.501   0.472
 1904SOL    HW1 5720   3.413   2.562   0.545
 1904SOL    HW2 5721   3.494   2.553   0.403
 1905SOL     OW 5722   2.216   3.372   1.329
 1905SOL    HW1 5723   2.195   3.328   1.242
 1905SOL    HW2 5724   2.313   3.398   1.332
 1906SOL     OW 5725   2.264   2.613   1.598
 1906SOL    HW1 5726   2.332   2.668   1.551
 1906SOL    HW2 5727   2.304   2.525   1.625
 1907SOL     OW 5728   3.449   2.641   1.670
 1907SOL    HW1 5729   3.357   2.679   1.665
 1907SOL    HW2 5730   3.509   2.688   1.605
 1908SOL     OW 5731   2.875   1.967   1.770
 1908SOL    HW1 5732   2.881   2.052   1.718
 1908SOL    HW2 5733   2.907   1.891   1.713
 1909SOL     OW 5734   2.366   1.912   1.740
 1909SOL    HW1 5735   2.324   1.855   1.670
 1909SOL    HW2 5736   2.300   1.981   1.772
 1910SOL     OW 5737   2.435   2.732   1.029
 1910SOL    HW1 5738   2.479   2.821   1.020
 1910SOL    HW2 5739   2.372   2.732   1.106
 1911SOL     OW 5740   3.222   2.724   1.045
 1911SOL    HW1 5741   3.147   2.724   0.979
 1911SOL    HW2 5742   3.259   2.632   1.054
 1912SOL     OW 5743   3.071   2.387   0.275
 1912SOL    HW1 5744   3.084   2.303   0.329
 1912SOL    HW2 5745   3.042   2.461   0.335
 1913SOL     OW 5746   2.169   2.075   1.231
 1913SOL    HW1 5747   2.146   2.112   1.321
 1913SOL    HW2 5748   2.139   1.980   1.225
 1914SOL     OW 5749   1.899   3.172   1.282
 1914SOL    HW1 5750   1.952   3.123   1.350
 1914SOL    HW2 5751   1.921   3.270   1.287
 1915SOL     OW 5752   2.594   2.496   1.064
 1915SOL    HW1 5753   2.653   2.470   0.988
 1915SOL    HW2 5754   2.566   2.592   1.053
 1916SOL     OW 5755   3.590   2.797   1.854
 1916SOL    HW1 5756   3.544   2.790   1.765
 1916SOL    HW2 5757   3.528   2.841   1.920
 1917SOL     OW 5758   2.169   1.925   0.618
 1917SOL    HW1 5759   2.158   2.019   0.651
 1917SOL    HW2 5760   2.164   1.862   0.695
 1918SOL     OW 5761   3.484   2.229   0.374
 1918SOL    HW1 5762   3.486   2.153   0.438
 1918SOL    HW2 5763   3.436   2.306   0.414
 1919SOL     OW 5764   2.885   2.628   0.966
 1919SOL    HW1 5765   2.900   2.649   1.062
 1919SOL    HW2 5766   2.855   2.533   0.957
 1920SOL     OW 5767   2.842   3.435   1.700
 1920SOL    HW1 5768   2.822   3.479   1.612
 1920SOL    HW2 5769   2.881   3.344   1.684
 1921SOL     OW 5770   3.721   3.380   1.605
 1921SOL    HW1 5771   3.735   3.407   1.510
 1921SOL    HW2 5772   3.804   3.402   1.658
 1922SOL     OW 5773   2.212   2.760   1.804
 1922SOL    HW1 5774   2.288   2.804   1.852
 1922SOL    HW2 5775   2.247   2.713   1.722
 1923SOL     OW 5776   3.402   2.136   0.125
 1923SOL    HW1 5777   3.341   2.061   0.148
 1923SOL    HW2 5778   3.424   2.188   0.208
 1924SOL     OW 5779   3.165   2.700   0.042
 1924SOL    HW1 5780   3.199   2.607   0.057
 1924SOL    HW2 5781   3.183   2.727  -0.053
 1925SOL     OW 5782   2.930   3.195   0.849
 1925SOL    HW1 5783   2.937   3.111   0.794
 1925SOL    HW2 5784   2.992   3.264   0.813
 1926SOL     OW 5785   2.181   2.672   0.949
 1926SOL    HW1 5786   2.274   2.708   0.954
 1926SOL    HW2 5787   2.175   2.587   1.001
 1927SOL     OW 5788   2.201   2.371   1.006
 1927SOL    HW1 5789   2.149   2.288   0.989
 1927SOL    HW2 5790   2.278   2.376   0.942
 1928SOL     OW 5791   3.000   2.242   1.678
 1928SOL    HW1 5792   2.955   2.305   1.742
 1928SOL    HW2 5793   3.093   2.273   1.661
 1929SOL     OW 5794   3.022   2.069   1.477
 1929SOL    HW1 5795   3.022   2.133   1.554
 1929SOL    HW2 5796   3.050   2.117   1.394
 1930SOL     OW 5797   1.870   3.188   0.200
 1930SOL    HW1 5798   1.777   3.209   0.169
 1930SOL    HW2 5799   1.880   3.089   0.213
 1931SOL     OW 5800   1.950   3.663   0.927
 1931SOL    HW1 5801   1.908   3.577   0.900
 1931SOL    HW2 5802   2.044   3.666   0.893
 1932SOL     OW 5803   2.366   3.430   0.910
 1932SOL    HW1 5804   2.432   3.504   0.919
 1932SOL    HW2 5805   2.410   3.351   0.868
 1933SOL     OW 5806   2.864   2.658   1.238
 1933SOL    HW1 5807   2.905   2.626   1.324
 1933SOL    HW2 5808   2.768   2.631   1.235
 1934SOL     OW 5809   1.902   2.406   1.114
 1934SOL    HW1 5810   1.987   2.373   1.073
 1934SOL    HW2 5811   1.915   2.421   1.212
 1935SOL     OW 5812   2.051   2.382   1.722
 1935SOL    HW1 5813   2.110   2.342   1.652
 1935SOL    HW2 5814   1.993   2.453   1.681
 1936SOL     OW 5815   3.231   2.812   1.660
 1936SOL    HW1 5816   3.270   2.901   1.680
 1936SOL    HW2 5817   3.241   2.792   1.563
 1937SOL     OW 5818   2.677   2.434   0.325
 1937SOL    HW1 5819   2.684   2.345   0.279
 1937SOL    HW2 5820   2.583   2.468   0.317
 1938SOL     OW 5821   3.519   2.466   1.206
 1938SOL    HW1 5822   3.481   2.397   1.268
 1938SOL    HW2 5823   3.601   2.430   1.162
 1939SOL     OW 5824   2.114   3.426   1.744
 1939SOL    HW1 5825   2.084   3.483   1.820
 1939SOL    HW2 5826   2.107   3.329   1.770
 1940SOL     OW 5827   2.533   2.326   1.269
 1940SOL    HW1 5828   2.499   2.237   1.239
 1940SOL    HW2 5829   2.559   2.380   1.189
 1941SOL     OW 5830   2.792   3.540   1.465
 1941SOL    HW1 5831   2.768   3.522   1.370
 1941SOL    HW2 5832   2.822   3.634   1.475
 1942SOL     OW 5833   2.335   2.362   0.191
 1942SOL    HW1 5834   2.396   2.442   0.195
 1942SOL    HW2 5835   2.240   2.393   0.198
 1943SOL     OW 5836   2.021   2.999   1.466
 1943SOL    HW1 5837   2.043   2.938   1.542
 1943SOL    HW2 5838   2.031   2.950   1.380
 1944SOL     OW 5839   3.209   2.921   1.234
 1944SOL    HW1 5840   3.233   2.858   1.160
 1944SOL    HW2 5841   3.119   2.961   1.216
 1945SOL     OW 5842   3.164   2.717   0.309
 1945SOL    HW1 5843   3.078   2.686   0.351
 1945SOL    HW2 5844   3.160   2.703   0.210
 1946SOL     OW 5845   3.621   3.609   1.154
 1946SOL    HW1 5846   3.682   3.639   1.081
 1946SOL    HW2 5847   3.583   3.520   1.132
 1947SOL     OW 5848   3.114   3.593   1.128
 1947SOL    HW1 5849   3.198   3.598   1.074
 1947SOL    HW2 5850   3.091   3.497   1.146
 1948SOL     OW 5851   1.945   3.120   1.022
 1948SOL    HW1 5852   1.940   3.119   1.122
 1948SOL    HW2 5853   1.862   3.079   0.984
 1949SOL     OW 5854   2.550   3.524   1.716
 1949SOL    HW1 5855   2.494   3.605   1.725
 1949SOL    HW2 5856   2.602   3.528   1.630
 1950SOL     OW 5857   2.765   1.948   0.133
 1950SOL    HW1 5858   2.816   1.949   0.047
 1950SOL    HW2 5859   2.821   1.906   0.204
 1951SOL     OW 5860   3.588   1.997   0.523
 1951SOL    HW1 5861   3.661   1.980   0.456
 1951SOL    HW2 5862   3.557   1.910   0.561
 1952SOL     OW 5863   3.250   3.435   0.477
 1952SOL    HW1 5864   3.317   3.447   0.403
 1952SOL    HW2 5865   3.210   3.524   0.500
 1953SOL     OW 5866   1.992   3.656   1.851
 1953SOL    HW1 5867   1.951   3.582   1.904
 1953SOL    HW2 5868   2.056   3.707   1.909
 1954SOL     OW 5869   3.142   2.789   0.672
 1954SOL    HW1 5870   3.202   2.708   0.674
 1954SOL    HW2 5871   3.182   2.858   0.612
 1955SOL     OW 5872   2.692   3.135   1.422
 1955SOL    HW1 5873   2.687   3.168   1.517
 1955SOL    HW2 5874   2.606   3.154   1.376
 1956SOL     OW 5875   2.534   3.478   0.154
 1956SOL    HW1 5876   2.543   3.488   0.055
 1956SOL    HW2 5877   2.494   3.389   0.175
 1957SOL     OW 5878   3.512   3.582   1.394
 1957SOL    HW1 5879   3.565   3.592   1.310
 1957SOL    HW2 5880   3.485   3.672   1.428
 1958SOL     OW 5881   3.703   2.037   0.963
 1958SOL    HW1 5882   3.742   1.952   0.927
 1958SOL    HW2 5883   3.605   2.039   0.944
 1959SOL     OW 5884   2.125   2.188   0.720
 1959SOL    HW1 5885   2.046   2.239   0.686
 1959SOL    HW2 5886   2.116   2.173   0.818
 1960SOL     OW 5887   3.056   3.474   0.031
 1960SOL    HW1 5888   3.062   3.381   0.068
 1960SOL    HW2 5889   2.997   3.474  -0.049
 1961SOL     OW 5890   2.684   2.864   1.372
 1961SOL    HW1 5891   2.724   2.863   1.280
 1961SOL    HW2 5892   2.694   2.956   1.412
 1962SOL     OW 5893   2.778   2.772   0.291
 1962SOL    HW1 5894   2.841   2.810   0.223
 1962SOL    HW2 5895   2.818   2.689   0.330
 1963SOL     OW 5896   3.366   3.469   0.044
 1963SOL    HW1 5897   3.274   3.506   0.051
 1963SOL    HW2 5898   3.404   3.489  -0.046
 1964SOL     OW 5899   2.234   3.150   1.490
 1964SOL    HW1 5900   2.221   3.243   1.456
 1964SOL    HW2 5901   2.150   3.098   1.477
 1965SOL     OW 5902   3.476   3.154   1.289
 1965SOL    HW1 5903   3.536   3.157   1.369
 1965SOL    HW2 5904   3.401   3.218   1.302
 1966SOL     OW 5905   2.901   2.960   0.696
 1966SOL    HW1 5906   2.831   2.913   0.750
 1966SOL    HW2 5907   2.960   2.892   0.653
 1967SOL     OW 5908   2.876   2.098   0.971
 1967SOL    HW1 5909   2.868   2.062   0.878
 1967SOL    HW2 5910   2.874   2.022   1.036
 1968SOL     OW 5911   2.452   3.349   0.491
 1968SOL    HW1 5912   2.494   3.291   0.421
 1968SOL    HW2 5913   2.408   3.428   0.447
 1969SOL     OW 5914   3.571   2.247   1.381
 1969SOL    HW1 5915   3.644   2.316   1.385
 1969SOL    HW2 5916   3.599   2.172   1.322
 1970SOL     OW 5917   2.117   3.210   0.290
 1970SOL    HW1 5918   2.021   3.211   0.263
 1970SOL    HW2 5919   2.129   3.263   0.374
 1971SOL     OW 5920   1.967   2.875   1.726
 1971SOL    HW1 5921   1.890   2.842   1.780
 1971SOL    HW2 5922   2.052   2.845   1.768
 1972SOL     OW 5923   2.534   2.065   1.489
 1972SOL    HW1 5924   2.624   2.049   1.449
 1972SOL    HW2 5925   2.542   2.070   1.588
 1973SOL     OW 5926   1.937   2.207   0.033
 1973SOL    HW1 5927   1.845   2.179   0.004
 1973SOL    HW2 5928   1.968   2.284  -0.023
 1974SOL     OW 5929   3.302   2.718   1.398
 1974SOL    HW1 5930   3.245   2.770   1.335
 1974SOL    HW2 5931   3.398   2.730   1.374
 1975SOL     OW 5932   1.934   2.028   0.318
 1975SOL    HW1 5933   1.917   2.111   0.264
 1975SOL    HW2 5934   2.024   1.991   0.296
 1976SOL     OW 5935   3.045   3.197   0.119
 1976SOL    HW1 5936   2.946   3.186   0.121
 1976SOL    HW2 5937   3.079   3.212   0.212
 1977SOL     OW 5938   2.475   2.704   1.431
 1977SOL    HW1 5939   2.531   2.785   1.414
 1977SOL    HW2 5940   2.534   2.624   1.434
 1978SOL     OW 5941   3.355   3.629   0.959
 1978SOL    HW1 5942   3.388   3.693   0.890
 1978SOL    HW2 5943   3.421   3.623   1.034
 1979SOL     OW 5944   2.578   2.427   1.708
 1979SOL    HW1 5945   2.597   2.492   1.782
 1979SOL    HW2 5946   2.638   2.347   1.717
 1980SOL     OW 5947   3.312   3.082   1.633
 1980SOL    HW1 5948   3.303   3.072   1.732
 1980SOL    HW2 5949   3.408   3.075   1.607
 1981SOL     OW 5950   2.252   3.603   1.560
 1981SOL    HW1 5951   2.161   3.644   1.558
 1981SOL    HW2 5952   2.245   3.509   1.592
 1982SOL     OW 5953   3.536   2.745   1.254
 1982SOL    HW1 5954   3.509   2.656   1.217
 1982SOL    HW2 5955   3.537   2.813   1.181
 1983SOL     OW 5956   3.087   2.187   0.449
 1983SOL    HW1 5957   3.152   2.113   0.438
 1983SOL    HW2 5958   3.107   2.237   0.533
 1984SOL     OW 5959   2.456   2.607   0.652
 1984SOL    HW1 5960   2.506   2.692   0.633
 1984SOL    HW2 5961   2.368   2.609   0.604
 1985SOL     OW 5962   3.639   2.204   1.642
 1985SOL    HW1 5963   3.622   2.235   1.548
 1985SOL    HW2 5964   3.555   2.167   1.680
 1986SOL     OW 5965   3.592   2.796   1.517
 1986SOL    HW1 5966   3.630   2.887   1.532
 1986SOL    HW2 5967   3.584   2.779   1.418
 1987SOL     OW 5968   2.721   3.236   0.016
 1987SOL    HW1 5969   2.675   3.251   0.104
 1987SOL    HW2 5970   2.765   3.321  -0.014
 1988SOL     OW 5971   2.523   3.652   0.953
 1988SOL    HW1 5972   2.477   3.740   0.940
 1988SOL    HW2 5973   2.622   3.664   0.946
 1989SOL     OW 5974   2.721   2.818   0.861
 1989SOL    HW1 5975   2.775   2.749   0.909
 1989SOL    HW2 5976   2.689   2.887   0.927
 1990SOL     OW 5977   2.945   2.846   0.087
 1990SOL    HW1 5978   2.922   2.899   0.005
 1990SOL    HW2 5979   3.026   2.790   0.068
 1991SOL     OW 5980   3.723   3.431   0.851
 1991SOL    HW1 5981   3.652   3.419   0.781
 1991SOL    HW2 5982   3.724   3.352   0.911
 1992SOL     OW 5983   2.083   3.176   1.844
 1992SOL    HW1 5984   2.018   3.103   1.823
 1992SOL    HW2 5985   2.087   3.190   1.942
 1993SOL     OW 5986   1.941   3.102   0.653
 1993SOL    HW1 5987   1.940   3.055   0.741
 1993SOL    HW2 5988   2.023   3.074   0.602
 1994SOL     OW 5989   2.534   3.253   1.624
 1994SOL    HW1 5990   2.456   3.203   1.662
 1994SOL    HW2 5991   2.531   3.348   1.655
 1995SOL     OW 5992   3.686   2.054   1.227
 1995SOL    HW1 5993   3.682   1.964   1.271
 1995SOL    HW2 5994   3.689   2.043   1.128
 1996SOL     OW 5995   2.290   2.286   0.520
 1996SOL    HW1 5996   2.320   2.214   0.458
 1996SOL    HW2 5997   2.251   2.246   0.603
 1997SOL     OW 5998   3.567   3.349   1.104
 1997SOL    HW1 5999   3.474   3.324   1.077
 1997SOL    HW2 6000   3.593   3.299   1.186
 1998SOL     OW 6001   2.179   2.409   1.280
 1998SOL    HW1 6002   2.217   2.350   1.352
 1998SOL    HW2 6003   2.219   2.383   1.192
 1999SOL     OW 6004   2.674   3.448   0.687
 1999SOL    HW1 6005   2.706   3.458   0.593
 1999SOL    HW2 6006   2.595   3.386   0.689
 2000SOL     OW 6007   3.286   2.076   1.112
 2000SOL    HW1 6008   3.338   2.011   1.167
 2000SOL    HW2 6009   3.237   2.139   1.173
 2001SOL     OW 6010   2.863   1.896   1.154
 2001SOL    HW1 6011   2.800   1.824   1.123
 2001SOL    HW2 6012   2.956   1.860   1.154
 2002SOL     OW 6013   2.632   3.192   0.301
 2002SOL    HW1 6014   2.586   3.105   0.318
 2002SOL    HW2 6015   2.723   3.189   0.342
 2003SOL     OW 6016   2.480   3.429   1.284
 2003SOL    HW1 6017   2.475   3.511   1.341
 2003SOL    HW2 6018   2.569   3.426   1.239
 2004SOL     OW 6019   3.214   1.914   0.168
 2004SOL    HW1 6020   3.249   1.873   0.084
 2004SOL    HW2 6021   3.124   1.876   0.188
 2005SOL     OW 6022   3.162   2.315   0.691
 2005SOL    HW1 6023   3.103   2.395   0.695
 2005SOL    HW2 6024   3.177   2.280   0.784
 2006SOL     OW 6025   3.455   2.083   0.882
 2006SOL    HW1 6026   3.371   2.082   0.936
 2006SOL    HW2 6027   3.457   2.166   0.826
 2007SOL     OW 6028   1.901   2.939   0.300
 2007SOL    HW1 6029   2.000   2.928   0.291
 2007SOL    HW2 6030   1.861   2.853   0.332
 2008SOL     OW 6031   2.737   3.508   0.337
 2008SOL    HW1 6032   2.660   3.473   0.283
 2008SOL    HW2 6033   2.705   3.579   0.399
 2009SOL     OW 6034   2.092   2.490   1.975
 2009SOL    HW1 6035   1.999   2.488   2.012
 2009SOL    HW2 6036   2.093   2.451   1.883
 2010SOL     OW 6037   2.087   2.137   2.858
 2010SOL    HW1 6038   2.122   2.120   2.950
 2010SOL    HW2 6039   1.999   2.092   2.846
 2011SOL     OW 6040   1.881   2.230   2.509
 2011SOL    HW1 6041   1.799   2.273   2.548
 2011SOL    HW2 6042   1.853   2.157   2.446
 2012SOL     OW 6043   2.431   3.137   3.027
 2012SOL    HW1 6044   2.338   3.130   2.990
 2012SOL    HW2 6045   2.442   3.226   3.071
 2013SOL     OW 6046   3.417   3.373   2.565
 2013SOL    HW1 6047   3.360   3.357   2.646
 2013SOL    HW2 6048   3.358   3.383   2.485
 2014SOL     OW 6049   2.997   2.565   2.579
 2014SOL    HW1 6050   3.054   2.643   2.554
 2014SOL    HW2 6051   2.937   2.591   2.655
 2015SOL     OW 6052   3.617   2.469   2.093
 2015SOL    HW1 6053   3.605   2.456   1.994
 2015SOL    HW2 6054   3.587   2.388   2.142
 2016SOL     OW 6055   2.630   3.006   2.885
 2016SOL    HW1 6056   2.552   3.023   2.945
 2016SOL    HW2 6057   2.664   3.093   2.849
 2017SOL     OW 6058   2.712   2.660   3.685
 2017SOL    HW1 6059   2.708   2.736   3.750
 2017SOL    HW2 6060   2.734   2.696   3.594
 2018SOL     OW 6061   2.547   2.874   2.527
 2018SOL    HW1 6062   2.616   2.858   2.597
 2018SOL    HW2 6063   2.474   2.931   2.565
 2019SOL     OW 6064   2.548   3.023   3.665
 2019SOL    HW1 6065   2.608   3.102   3.679
 2019SOL    HW2 6066   2.462   3.054   3.624
 2020SOL     OW 6067   2.197   3.297   2.923
 2020SOL    HW1 6068   2.119   3.266   2.870
 2020SOL    HW2 6069   2.255   3.355   2.866
 2021SOL     OW 6070   3.322   3.367   3.201
 2021SOL    HW1 6071   3.346   3.461   3.227
 2021SOL    HW2 6072   3.306   3.313   3.283
 2022SOL     OW 6073   2.300   2.254   3.361
 2022SOL    HW1 6074   2.382   2.198   3.370
 2022SOL    HW2 6075   2.219   2.196   3.365
 2023SOL     OW 6076   3.465   2.309   2.599
 2023SOL    HW1 6077   3.391   2.355   2.549
 2023SOL    HW2 6078   3.516   2.377   2.652
 2024SOL     OW 6079   2.093   3.575   2.345
 2024SOL    HW1 6080   2.127   3.652   2.399
 2024SOL    HW2 6081   2.137   3.575   2.255
 2025SOL     OW 6082   2.989   3.203   3.552
 2025SOL    HW1 6083   3.036   3.203   3.640
 2025SOL    HW2 6084   2.941   3.116   3.541
 2026SOL     OW 6085   2.092   3.296   2.400
 2026SOL    HW1 6086   2.066   3.392   2.400
 2026SOL    HW2 6087   2.021   3.242   2.445
 2027SOL     OW 6088   2.102   2.953   2.748
 2027SOL    HW1 6089   2.116   2.869   2.800
 2027SOL    HW2 6090   2.047   3.017   2.803
 2028SOL     OW 6091   2.482   3.648   3.301
 2028SOL    HW1 6092   2.390   3.631   3.336
 2028SOL    HW2 6093   2.510   3.740   3.327
 2029SOL     OW 6094   2.468   2.826   1.985
 2029SOL    HW1 6095   2.475   2.910   1.931
 2029SOL    HW2 6096   2.514   2.839   2.073
 2030SOL     OW 6097   3.456   1.976   3.342
 2030SOL    HW1 6098   3.438   2.043   3.270
 2030SOL    HW2 6099   3.453   2.022   3.431
 2031SOL     OW 6100   3.704   3.629   2.221
 2031SOL    HW1 6101   3.758   3.600   2.301
 2031SOL    HW2 6102   3.734   3.719   2.192
 2032SOL     OW 6103   1.889   3.458   1.979
 2032SOL    HW1 6104   1.870   3.362   2.000
 2032SOL    HW2 6105   1.856   3.516   2.054
 2033SOL     OW 6106   3.551   2.784   2.474
 2033SOL    HW1 6107   3.646   2.755   2.482
 2033SOL    HW2 6108   3.543   2.849   2.399
 2034SOL     OW 6109   3.503   2.970   2.294
 2034SOL    HW1 6110   3.589   2.972   2.242
 2034SOL    HW2 6111   3.517   3.017   2.382
 2035SOL     OW 6112   1.975   2.599   3.459
 2035SOL    HW1 6113   2.063   2.586   3.504
 2035SOL    HW2 6114   1.962   2.696   3.437
 2036SOL     OW 6115   2.475   3.227   2.588
 2036SOL    HW1 6116   2.426   3.140   2.597
 2036SOL    HW2 6117   2.452   3.270   2.501
 2037SOL     OW 6118   3.155   3.090   3.285
 2037SOL    HW1 6119   3.192   3.017   3.227
 2037SOL    HW2 6120   3.207   3.095   3.370
 2038SOL     OW 6121   2.671   1.866   2.364
 2038SOL    HW1 6122   2.711   1.957   2.355
 2038SOL    HW2 6123   2.571   1.874   2.370
 2039SOL     OW 6124   2.059   2.838   3.126
 2039SOL    HW1 6125   2.148   2.793   3.112
 2039SOL    HW2 6126   1.986   2.773   3.107
 2040SOL     OW 6127   3.387   2.861   2.052
 2040SOL    HW1 6128   3.324   2.785   2.065
 2040SOL    HW2 6129   3.435   2.879   2.138
 2041SOL     OW 6130   3.049   3.654   3.478
 2041SOL    HW1 6131   3.073   3.714   3.402
 2041SOL    HW2 6132   3.056   3.559   3.448
 2042SOL     OW 6133   2.179   2.113   3.663
 2042SOL    HW1 6134   2.250   2.184   3.669
 2042SOL    HW2 6135   2.091   2.152   3.691
 2043SOL     OW 6136   3.328   3.279   2.815
 2043SOL    HW1 6137   3.269   3.285   2.895
 2043SOL    HW2 6138   3.313   3.191   2.769
 2044SOL     OW 6139   3.529   3.576   2.434
 2044SOL    HW1 6140   3.488   3.553   2.346
 2044SOL    HW2 6141   3.511   3.502   2.499
 2045SOL     OW 6142   2.460   2.591   2.132
 2045SOL    HW1 6143   2.484   2.660   2.064
 2045SOL    HW2 6144   2.382   2.624   2.186
 2046SOL     OW 6145   3.143   2.207   2.806
 2046SOL    HW1 6146   3.057   2.157   2.793
 2046SOL    HW2 6147   3.205   2.153   2.862
 2047SOL     OW 6148   3.438   3.524   2.169
 2047SOL    HW1 6149   3.527   3.570   2.172
 2047SOL    HW2 6150   3.417   3.500   2.074
 2048SOL     OW 6151   2.669   2.467   3.327
 2048SOL    HW1 6152   2.622   2.464   3.416
 2048SOL    HW2 6153   2.618   2.412   3.261
 2049SOL     OW 6154   3.256   2.331   3.536
 2049SOL    HW1 6155   3.236   2.374   3.624
 2049SOL    HW2 6156   3.334   2.269   3.545
 2050SOL     OW 6157   2.835   2.752   3.434
 2050SOL    HW1 6158   2.881   2.668   3.405
 2050SOL    HW2 6159   2.779   2.786   3.359
 2051SOL     OW 6160   2.853   2.272   3.104
 2051SOL    HW1 6161   2.776   2.306   3.158
 2051SOL    HW2 6162   2.819   2.221   3.025
 2052SOL     OW 6163   2.903   2.563   2.291
 2052SOL    HW1 6164   2.929   2.559   2.387
 2052SOL    HW2 6165   2.818   2.512   2.277
 2053SOL     OW 6166   1.938   2.673   2.651
 2053SOL    HW1 6167   2.037   2.661   2.660
 2053SOL    HW2 6168   1.914   2.768   2.672
 2054SOL     OW 6169   1.992   3.683   3.433
 2054SOL    HW1 6170   1.982   3.668   3.532
 2054SOL    HW2 6171   1.906   3.719   3.397
 2055SOL     OW 6172   2.727   2.210   2.057
 2055SOL    HW1 6173   2.786   2.273   2.008
 2055SOL    HW2 6174   2.746   2.116   2.028
 2056SOL     OW 6175   3.581   2.447   3.693
 2056SOL    HW1 6176   3.555   2.536   3.657
 2056SOL    HW2 6177   3.579   2.379   3.620
 2057SOL     OW 6178   3.224   3.006   2.407
 2057SOL    HW1 6179   3.307   2.977   2.359
 2057SOL    HW2 6180   3.175   3.073   2.351
 2058SOL     OW 6181   2.412   2.058   2.747
 2058SOL    HW1 6182   2.407   2.053   2.847
 2058SOL    HW2 6183   2.414   2.154   2.718
 2059SOL     OW 6184   2.870   3.318   2.339
 2059SOL    HW1 6185   2.824   3.390   2.287
 2059SOL    HW2 6186   2.866   3.338   2.437
 2060SOL     OW 6187   2.213   3.663   2.715
 2060SOL    HW1 6188   2.263   3.577   2.721
 2060SOL    HW2 6189   2.278   3.740   2.712
 2061SOL     OW 6190   3.657   2.928   2.735
 2061SOL    HW1 6191   3.595   2.913   2.659
 2061SOL    HW2 6192   3.605   2.939   2.820
 2062SOL     OW 6193   3.089   3.412   3.368
 2062SOL    HW1 6194   3.095   3.335   3.432
 2062SOL    HW2 6195   3.037   3.386   3.288
 2063SOL     OW 6196   2.183   2.805   2.104
 2063SOL    HW1 6197   2.265   2.844   2.062
 2063SOL    HW2 6198   2.156   2.723   2.055
 2064SOL     OW 6199   3.320   2.597   2.590
 2064SOL    HW1 6200   3.315   2.532   2.665
 2064SOL    HW2 6201   3.400   2.656   2.603
 2065SOL     OW 6202   2.323   3.128   3.589
 2065SOL    HW1 6203   2.273   3.129   3.503
 2065SOL    HW2 6204   2.260   3.110   3.665
 2066SOL     OW 6205   2.973   3.638   2.099
 2066SOL    HW1 6206   2.913   3.576   2.149
 2066SOL    HW2 6207   3.004   3.594   2.014
 2067SOL     OW 6208   2.064   2.147   3.360
 2067SOL    HW1 6209   1.984   2.207   3.347
 2067SOL    HW2 6210   2.054   2.098   3.446
 2068SOL     OW 6211   3.494   3.239   1.943
 2068SOL    HW1 6212   3.462   3.333   1.933
 2068SOL    HW2 6213   3.418   3.176   1.931
 2069SOL     OW 6214   2.326   3.605   2.185
 2069SOL    HW1 6215   2.359   3.644   2.271
 2069SOL    HW2 6216   2.402   3.598   2.120
 2070SOL     OW 6217   3.262   1.969   2.288
 2070SOL    HW1 6218   3.238   1.932   2.198
 2070SOL    HW2 6219   3.361   1.985   2.292
 2071SOL     OW 6220   2.111   3.647   3.103
 2071SOL    HW1 6221   2.168   3.582   3.153
 2071SOL    HW2 6222   2.095   3.614   3.010
 2072SOL     OW 6223   2.802   3.560   2.766
 2072SOL    HW1 6224   2.882   3.503   2.787
 2072SOL    HW2 6225   2.753   3.520   2.689
 2073SOL     OW 6226   2.244   2.562   2.342
 2073SOL    HW1 6227   2.289   2.472   2.339
 2073SOL    HW2 6228   2.150   2.551   2.375
 2074SOL     OW 6229   3.409   2.084   3.591
 2074SOL    HW1 6230   3.404   2.121   3.683
 2074SOL    HW2 6231   3.337   2.015   3.579
 2075SOL     OW 6232   2.476   1.984   1.979
 2075SOL    HW1 6233   2.574   1.962   1.986
 2075SOL    HW2 6234   2.445   1.967   1.886
 2076SOL     OW 6235   2.643   2.126   3.611
 2076SOL    HW1 6236   2.710   2.065   3.654
 2076SOL    HW2 6237   2.570   2.145   3.676
 2077SOL     OW 6238   2.750   3.376   3.057
 2077SOL    HW1 6239   2.727   3.351   2.963
 2077SOL    HW2 6240   2.811   3.307   3.096
 2078SOL     OW 6241   3.213   2.452   3.295
 2078SOL    HW1 6242   3.241   2.409   3.380
 2078SOL    HW2 6243   3.238   2.548   3.296
 2079SOL     OW 6244   2.665   3.264   2.786
 2079SOL    HW1 6245   2.755   3.278   2.744
 2079SOL    HW2 6246   2.594   3.266   2.715
 2080SOL     OW 6247   2.784   2.365   2.761
 2080SOL    HW1 6248   2.759   2.356   2.665
 2080SOL    HW2 6249   2.832   2.283   2.792
 2081SOL     OW 6250   2.401   1.926   2.374
 2081SOL    HW1 6251   2.320   1.927   2.432
 2081SOL    HW2 6252   2.404   2.009   2.319
 2082SOL     OW 6253   3.296   3.050   1.903
 2082SOL    HW1 6254   3.328   2.974   1.960
 2082SOL    HW2 6255   3.204   3.077   1.933
 2083SOL     OW 6256   2.159   1.897   2.033
 2083SOL    HW1 6257   2.208   1.981   2.012
 2083SOL    HW2 6258   2.221   1.832   2.078
 2084SOL     OW 6259   2.797   2.098   2.342
 2084SOL    HW1 6260   2.749   2.139   2.264
 2084SOL    HW2 6261   2.896   2.096   2.323
 2085SOL     OW 6262   2.938   2.545   3.326
 2085SOL    HW1 6263   2.858   2.484   3.329
 2085SOL    HW2 6264   3.019   2.492   3.302
 2086SOL     OW 6265   3.089   3.432   2.655
 2086SOL    HW1 6266   3.110   3.506   2.590
 2086SOL    HW2 6267   3.157   3.432   2.728
 2087SOL     OW 6268   2.321   3.014   2.603
 2087SOL    HW1 6269   2.250   2.987   2.668
 2087SOL    HW2 6270   2.295   2.986   2.510
 2088SOL     OW 6271   3.133   3.659   2.453
 2088SOL    HW1 6272   3.177   3.723   2.389
 2088SOL    HW2 6273   3.083   3.711   2.523
 2089SOL     OW 6274   2.894   2.411   1.878
 2089SOL    HW1 6275   2.853   2.493   1.839
 2089SOL    HW2 6276   2.958   2.437   1.951
 2090SOL     OW 6277   1.940   2.418   3.248
 2090SOL    HW1 6278   2.032   2.417   3.207
 2090SOL    HW2 6279   1.934   2.492   3.315
 2091SOL     OW 6280   2.423   2.084   3.009
 2091SOL    HW1 6281   2.461   2.000   3.046
 2091SOL    HW2 6282   2.335   2.103   3.053
 2092SOL     OW 6283   2.728   2.316   2.504
 2092SOL    HW1 6284   2.696   2.388   2.442
 2092SOL    HW2 6285   2.752   2.235   2.451
 2093SOL     OW 6286   2.879   1.901   2.615
 2093SOL    HW1 6287   2.807   1.906   2.546
 2093SOL    HW2 6288   2.855   1.832   2.684
 2094SOL     OW 6289   3.291   3.035   2.729
 2094SOL    HW1 6290   3.236   2.951   2.722
 2094SOL    HW2 6291   3.317   3.064   2.637
 2095SOL     OW 6292   3.328   2.452   2.854
 2095SOL    HW1 6293   3.298   2.357   2.861
 2095SOL    HW2 6294   3.401   2.468   2.920
 2096SOL     OW 6295   3.719   2.695   2.239
 2096SOL    HW1 6296   3.761   2.631   2.303
 2096SOL    HW2 6297   3.681   2.644   2.161
 2097SOL     OW 6298   2.350   3.247   2.036
 2097SOL    HW1 6299   2.263   3.232   2.083
 2097SOL    HW2 6300   2.333   3.273   1.941
 2098SOL     OW 6301   3.526   3.142   2.519
 2098SOL    HW1 6302   3.625   3.150   2.533
 2098SOL    HW2 6303   3.481   3.226   2.550
 2099SOL     OW 6304   3.252   2.437   1.940
 2099SOL    HW1 6305   3.198   2.416   2.021
 2099SOL    HW2 6306   3.343   2.396   1.949
 2100SOL     OW 6307   3.616   3.085   3.450
 2100SOL    HW1 6308   3.707   3.046   3.437
 2100SOL    HW2 6309   3.624   3.181   3.474
 2101SOL     OW 6310   2.926   3.209   3.202
 2101SOL    HW1 6311   2.846   3.186   3.257
 2101SOL    HW2 6312   3.009   3.183   3.251
 2102SOL     OW 6313   3.454   3.491   3.487
 2102SOL    HW1 6314   3.481   3.525   3.397
 2102SOL    HW2 6315   3.533   3.453   3.533
 2103SOL     OW 6316   2.973   3.057   2.962
 2103SOL    HW1 6317   2.933   3.101   3.043
 2103SOL    HW2 6318   2.932   3.094   2.879
 2104SOL     OW 6319   3.500   2.961   2.941
 2104SOL    HW1 6320   3.505   3.042   3.000
 2104SOL    HW2 6321   3.414   2.963   2.890
 2105SOL     OW 6322   2.777   1.951   3.264
 2105SOL    HW1 6323   2.802   1.931   3.169
 2105SOL    HW2 6324   2.849   2.007   3.306
 2106SOL     OW 6325   2.842   2.978   3.581
 2106SOL    HW1 6326   2.743   2.984   3.591
 2106SOL    HW2 6327   2.865   2.898   3.525
 2107SOL     OW 6328   2.567   2.912   2.230
 2107SOL    HW1 6329   2.553   2.919   2.329
 2107SOL    HW2 6330   2.651   2.861   2.212
 2108SOL     OW 6331   2.272   2.675   3.113
 2108SOL    HW1 6332   2.358   2.687   3.163
 2108SOL    HW2 6333   2.230   2.588   3.140
 2109SOL     OW 6334   3.136   2.248   3.124
 2109SOL    HW1 6335   3.157   2.322   3.188
 2109SOL    HW2 6336   3.047   2.265   3.081
 2110SOL     OW 6337   1.926   3.426   3.193
 2110SOL    HW1 6338   1.880   3.508   3.159
 2110SOL    HW2 6339   2.024   3.445   3.202
 2111SOL     OW 6340   2.229   2.962   2.363
 2111SOL    HW1 6341   2.222   3.045   2.307
 2111SOL    HW2 6342   2.233   2.882   2.303
 2112SOL     OW 6343   2.428   2.399   2.727
 2112SOL    HW1 6344   2.440   2.465   2.653
 2112SOL    HW2 6345   2.474   2.433   2.810
 2113SOL     OW 6346   3.114   3.210   2.250
 2113SOL    HW1 6347   3.164   3.287   2.290
 2113SOL    HW2 6348   3.019   3.212   2.282
 2114SOL     OW 6349   3.134   3.307   3.004
 2114SOL    HW1 6350   3.181   3.320   3.091
 2114SOL    HW2 6351   3.068   3.233   3.013
 2115SOL     OW 6352   3.444   2.501   2.334
 2115SOL    HW1 6353   3.413   2.562   2.407
 2115SOL    HW2 6354   3.494   2.553   2.265
 2116SOL     OW 6355   2.216   3.372   3.191
 2116SOL    HW1 6356   2.195   3.328   3.104
 2116SOL    HW2 6357   2.313   3.398   3.194
 2117SOL     OW 6358   2.264   2.613   3.460
 2117SOL    HW1 6359   2.332   2.668   3.413
 2117SOL    HW2 6360   2.304   2.525   3.487
 2118SOL     OW 6361   3.449   2.641   3.532
 2118SOL    HW1 6362   3.357   2.679   3.527
 2118SOL    HW2 6363   3.509   2.688   3.467
 2119SOL     OW 6364   2.875   1.967   3.632
 2119SOL    HW1 6365   2.881   2.052   3.580
 2119SOL    HW2 6366   2.907   1.891   3.575
 2120SOL     OW 6367   2.366   1.912   3.602
 2120SOL    HW1 6368   2.324   1.855   3.532
 2120SOL    HW2 6369   2.300   1.981   3.634
 2121SOL     OW 6370   2.435   2.732   2.891
 2121SOL    HW1 6371   2.479   2.821   2.882
 2121SOL    HW2 6372   2.372   2.732   2.968
 2122SOL     OW 6373   3.222   2.724   2.907
 2122SOL    HW1 6374   3.147   2.724   2.841
 2122SOL    HW2 6375   3.259   2.632   2.916
 2123SOL     OW 6376   3.071   2.387   2.137
 2123SOL    HW1 6377   3.084   2.303   2.191
 2123SOL    HW2 6378   3.042   2.461   2.197
 2124SOL     OW 6379   2.169   2.075   3.093
 2124SOL    HW1 6380   2.146   2.112   3.183
 2124SOL    HW2 6381   2.139   1.980   3.087
 2125SOL     OW 6382   1.899   3.172   3.144
 2125SOL    HW1 6383   1.952   3.123   3.212
 2125SOL    HW2 6384   1.921   3.270   3.149
 2126SOL     OW 6385   2.594   2.496   2.926
 2126SOL    HW1 6386   2.653   2.470   2.850
 2126SOL    HW2 6387   2.566   2.592   2.915
 2127SOL     OW 6388   3.590   2.797   3.716
 2127SOL    HW1 6389   3.544   2.790   3.627
 2127SOL    HW2 6390   3.528   2.841   3.782
 2128SOL     OW 6391   2.169   1.925   2.480
 2128SOL    HW1 6392   2.158   2.019   2.513
 2128SOL    HW2 6393   2.164   1.862   2.557
 2129SOL     OW 6394   3.484   2.229   2.236
 2129SOL    HW1 6395   3.486   2.153   2.300
 2129SOL    HW2 6396   3.436   2.306   2.276
 2130SOL     OW 6397   2.885   2.628   2.828
 2130SOL    HW1 6398   2.900   2.649   2.924
 2130SOL    HW2 6399   2.855   2.533   2.819
 2131SOL     OW 6400   2.842   3.435   3.562
 2131SOL    HW1 6401   2.822   3.479   3.474
 2131SOL    HW2 6402   2.881   3.344   3.546
 2132SOL     OW 6403   3.721   3.380   3.467
 2132SOL    HW1 6404   3.735   3.407   3.372
 2132SOL    HW2 6405   3.804   3.402   3.520
 2133SOL     OW 6406   2.212   2.760   3.666
 2133SOL    HW1 6407   2.288   2.804   3.714
 2133SOL    HW2 6408   2.247   2.713   3.584
 2134SOL     OW 6409   3.402   2.136   1.987
 2134SOL    HW1 6410   3.341   2.061   2.010
 2134SOL    HW2 6411   3.424   2.188   2.070
 2135SOL     OW 6412   3.165   2.700   1.904
 2135SOL    HW1 6413   3.199   2.607   1.919
 2135SOL    HW2 6414   3.183   2.727   1.809
 2136SOL     OW 6415   2.930   3.195   2.711
 2136SOL    HW1 6416   2.937   3.111   2.656
 2136SOL    HW2 6417   2.992   3.264   2.675
 2137SOL     OW 6418   2.181   2.672   2.811
 2137SOL    HW1 6419   2.274   2.708   2.816
 2137SOL    HW2 6420   2.175   2.587   2.863
 2138SOL     OW 6421   2.201   2.371   2.868
 2138SOL    HW1 6422   2.149   2.288   2.851
 2138SOL    HW2 6423   2.278   2.376   2.804
 2139SOL     OW 6424   3.000   2.242   3.540
 2139SOL    HW1 6425   2.955   2.305   3.604
 2139SOL    HW2 6426   3.093   2.273   3.523
 2140SOL     OW 6427   3.022   2.069   3.339
 2140SOL    HW1 6428   3.022   2.133   3.416
 2140SOL    HW2 6429   3.050   2.117   3.256
 2141SOL     OW 6430   1.870   3.188   2.062
 2141SOL    HW1 6431   1.777   3.209   2.031
 2141SOL    HW2 6432   1.880   3.089   2.075
 2142SOL     OW 6433   1.950   3.663   2.789
 2142SOL    HW1 6434   1.908   3.577   2.762
 2142SOL    HW2 6435   2.044   3.666   2.755
 2143SOL     OW 6436   2.366   3.430   2.772
 2143SOL    HW1 6437   2.432   3.504   2.781
 2143SOL    HW2 6438   2.410   3.351   2.730
 2144SOL     OW 6439   2.864   2.658   3.100
 2144SOL    HW1 6440   2.905   2.626   3.186
 2144SOL    HW2 6441   2.768   2.631   3.097
 2145SOL     OW 6442   1.902   2.406   2.976
 2145SOL    HW1 6443   1.987   2.373   2.935
 2145SOL    HW2 6444   1.915   2.421   3.074
 2146SOL     OW 6445   2.051   2.382   3.584
 2146SOL    HW1 6446   2.110   2.342   3.514
 2146SOL    HW2 6447   1.993   2.453   3.543
 2147SOL     OW 6448   3.231   2.812   3.522
 2147SOL    HW1 6449   3.270   2.901   3.542
 2147SOL    HW2 6450   3.241   2.792   3.425
 2148SOL     OW 6451   2.677   2.434   2.187
 2148SOL    HW1 6452   2.684   2.345   2.141
 2148SOL    HW2 6453   2.583   2.468   2.179
 2149SOL     OW 6454   3.519   2.466   3.068
 2149SOL    HW1 6455   3.481   2.397   3.130
 2149SOL    HW2 6456   3.601   2.430   3.024
 2150SOL     OW 6457   2.114   3.426   3.606
 2150SOL    HW1 6458   2.084   3.483   3.682
 2150SOL    HW2 6459   2.107   3.329   3.632
 2151SOL     OW 6460   2.533   2.326   3.131
 2151SOL    HW1 6461   2.499   2.237   3.101
 2151SOL    HW2 6462   2.559   2.380   3.051
 2152SOL     OW 6463   2.792   3.540   3.327
 2152SOL    HW1 6464   2.768   3.522   3.232
 2152SOL    HW2 6465   2.822   3.634   3.337
 2153SOL     OW 6466   2.021   2.999   3.328
 2153SOL    HW1 6467   2.043   2.938   3.404
 2153SOL    HW2 6468   2.031   2.950   3.242
 2154SOL     OW 6469   3.209   2.921   3.096
 2154SOL    HW1 6470   3.233   2.858   3.022
 2154SOL    HW2 6471   3.119   2.961   3.078
 2155SOL     OW 6472   3.164   2.717   2.171
 2155SOL    HW1 6473   3.078   2.686   2.213
 2155SOL    HW2 6474   3.160   2.703   2.072
 2156SOL     OW 6475   3.621   3.609   3.016
 2156SOL    HW1 6476   3.682   3.639   2.943
 2156SOL    HW2 6477   3.583   3.520   2.994
 2157SOL     OW 6478   3.114   3.593   2.990
 2157SOL    HW1 6479   3.198   3.598   2.936
 2157SOL    HW2 6480   3.091   3.497   3.008
 2158SOL     OW 6481   1.945   3.120   2.884
 2158SOL    HW1 6482   1.940   3.119   2.984
 2158SOL    HW2 6483   1.862   3.079   2.846
 2159SOL     OW 6484   2.550   3.524   3.578
 2159SOL    HW1 6485   2.494   3.605   3.587
 2159SOL    HW2 6486   2.602   3.528   3.492
 2160SOL     OW 6487   3.588   1.997   2.385
 2160SOL    HW1 6488   3.661   1.980   2.318
 2160SOL    HW2 6489   3.557   1.910   2.423
 2161SOL     OW 6490   3.250   3.435   2.339
 2161SOL    HW1 6491   3.317   3.447   2.265
 2161SOL    HW2 6492   3.210   3.524   2.362
 2162SOL     OW 6493   1.992   3.656   3.713
 2162SOL    HW1 6494   1.951   3.582   3.766
 2162SOL    HW2 6495   2.056   3.707   3.771
 2163SOL     OW 6496   3.142   2.789   2.534
 2163SOL    HW1 6497   3.202   2.708   2.536
 2163SOL    HW2 6498   3.182   2.858   2.474
 2164SOL     OW 6499   2.692   3.135   3.284
 2164SOL    HW1 6500   2.687   3.168   3.379
 2164SOL    HW2 6501   2.606   3.154   3.238
 2165SOL     OW 6502   2.534   3.478   2.016
 2165SOL    HW1 6503   2.543   3.488   1.917
 2165SOL    HW2 6504   2.494   3.389   2.037
 2166SOL     OW 6505   3.512   3.582   3.256
 2166SOL    HW1 6506   3.565   3.592   3.172
 2166SOL    HW2 6507   3.485   3.672   3.290
 2167SOL     OW 6508   3.703   2.037   2.825
 2167SOL    HW1 6509   3.742   1.952   2.789
 2167SOL    HW2 6510   3.605   2.039   2.806
 2168SOL     OW 6511   3.056   3.474   1.893
 2168SOL    HW1 6512   3.062   3.381   1.930
 2168SOL    HW2 6513   2.997   3.474   1.813
 2169SOL     OW 6514   2.684   2.864   3.234
 2169SOL    HW1 6515   2.724   2.863   3.142
 2169SOL    HW2 6516   2.694   2.956   3.274
 2170SOL     OW 6517   2.778   2.772   2.153
 2170SOL    HW1 6518   2.841   2.810   2.085
 2170SOL    HW2 6519   2.818   2.689   2.192
 2171SOL     OW 6520   3.366   3.469   1.906
 2171SOL    HW1 6521   3.274   3.506   1.913
 2171SOL    HW2 6522   3.404   3.489   1.816
 2172SOL     OW 6523   2.234   3.150   3.352
 2172SOL    HW1 6524   2.221   3.243   3.318
 2172SOL    HW2 6525   2.150   3.098   3.339
 2173SOL     OW 6526   3.476   3.154   3.151
 2173SOL    HW1 6527   3.536   3.157   3.231
 2173SOL    HW2 6528   3.401   3.218   3.164
 2174SOL     OW 6529   2.901   2.960   2.558
 2174SOL    HW1 6530   2.831   2.913   2.612
 2174SOL    HW2 6531   2.960   2.892   2.515
 2175SOL     OW 6532   2.876   2.098   2.833
 2175SOL    HW1 6533   2.868   2.062   2.740
 2175SOL    HW2 6534   2.874   2.022   2.898
 2176SOL     OW 6535   2.452   3.349   2.353
 2176SOL    HW1 6536   2.494   3.291   2.283
 2176SOL    HW2 6537   2.408   3.428   2.309
 2177SOL     OW 6538   3.571   2.247   3.243
 2177SOL    HW1 6539   3.644   2.316   3.247
 2177SOL    HW2 6540   3.599   2.172   3.184
 2178SOL     OW 6541   2.117   3.210   2.152
 2178SOL    HW1 6542   2.021   3.211   2.125
 2178SOL    HW2 6543   2.129   3.263   2.236
 2179SOL     OW 6544   1.967   2.875   3.588
 2179SOL    HW1 6545   1.890   2.842   3.642
 2179SOL    HW2 6546   2.052   2.845   3.630
 2180SOL     OW 6547   2.534   2.065   3.351
 2180SOL    HW1 6548   2.624   2.049   3.311
 2180SOL    HW2 6549   2.542   2.070   3.450
 2181SOL     OW 6550   1.937   2.207   1.895
 2181SOL    HW1 6551   1.845   2.179   1.866
 2181SOL    HW2 6552   1.968   2.284   1.839
 2182SOL     OW 6553   3.302   2.718   3.260
 2182SOL    HW1 6554   3.245   2.770   3.197
 2182SOL    HW2 6555   3.398   2.730   3.236
 2183SOL     OW 6556   1.934   2.028   2.180
 2183SOL    HW1 6557   1.917   2.111   2.126
 2183SOL    HW2 6558   2.024   1.991   2.158
 2184SOL     OW 6559   3.045   3.197   1.981
 2184SOL    HW1 6560   2.946   3.186   1.983
 2184SOL    HW2 6561   3.079   3.212   2.074
 2185SOL     OW 6562   2.475   2.704   3.293
 2185SOL    HW1 6563   2.531   2.785   3.276
 2185SOL    HW2 6564   2.534   2.624   3.296
 2186SOL     OW 6565   3.355   3.629   2.821
 2186SOL    HW1 6566   3.388   3.693   2.752
 2186SOL    HW2 6567   3.421   3.623   2.896
 2187SOL     OW 6568   2.578   2.427   3.570
 2187SOL    HW1 6569   2.597   2.492   3.644
 2187SOL    HW2 6570   2.638   2.347   3.579
 2188SOL     OW 6571   3.312   3.082   3.495
 2188SOL    HW1 6572   3.303   3.072   3.594
 2188SOL    HW2 6573   3.408   3.075   3.469
 2189SOL     OW 6574   2.252   3.603   3.422
 2189SOL    HW1 6575   2.161   3.644   3.420
 2189SOL    HW2 6576   2.245   3.509   3.454
 2190SOL     OW 6577   3.536   2.745   3.116
 2190SOL    HW1 6578   3.509   2.656   3.079
 2190SOL    HW2 6579   3.537   2.813   3.043
 2191SOL     OW 6580   3.087   2.187   2.311
 2191SOL    HW1 6581   3.152   2.113   2.300
 2191SOL    HW2 6582   3.107   2.237   2.395
 2192SOL     OW 6583   2.456   2.607   2.514
 2192SOL    HW1 6584   2.506   2.692   2.495
 2192SOL    HW2 6585   2.368   2.609   2.466
 2193SOL     OW 6586   3.639   2.204   3.504
 2193SOL    HW1 6587   3.622   2.235   3.410
 2193SOL    HW2 6588   3.555   2.167   3.542
 2194SOL     OW 6589   3.592   2.796   3.379
 2194SOL    HW1 6590   3.630   2.887   3.394
 2194SOL    HW2 6591   3.584   2.779   3.280
 2195SOL     OW 6592   2.721   3.236   1.878
 2195SOL    HW1 6593   2.675   3.251   1.966
 2195SOL    HW2 6594   2.765   3.321   1.848
 2196SOL     OW 6595   2.523   3.652   2.815
 2196SOL    HW1 6596   2.477   3.740   2.802
 2196SOL    HW2 6597   2.622   3.664   2.808
 2197SOL     OW 6598   2.721   2.818   2.723
 2197SOL    HW1 6599   2.775   2.749   2.771
 2197SOL    HW2 6600   2.689   2.887   2.789
 2198SOL     OW 6601   2.945   2.846   1.949
 2198SOL    HW1 6602   2.922   2.899   1.867
 2198SOL    HW2 6603   3.026   2.790   1.930
 2199SOL     OW 6604   3.723   3.431   2.713
 2199SOL    HW1 6605   3.652   3.419   2.643
 2199SOL    HW2 6606   3.724   3.352   2.773
 2200SOL     OW 6607   2.083   3.176   3.706
 2200SOL    HW1 6608   2.018   3.103   3.685
 2200SOL    HW2 6609   2.087   3.190   3.804
 2201SOL     OW 6610   1.941   3.102   2.515
 2201SOL    HW1 6611   1.940   3.055   2.603
 2201SOL    HW2 6612   2.023   3.074   2.464
 2202SOL     OW 6613   2.534   3.253   3.486
 2202SOL    HW1 6614   2.456   3.203   3.524
 2202SOL    HW2 6615   2.531   3.348   3.517
 2203SOL     OW 6616   3.686   2.054   3.089
 2203SOL    HW1 6617   3.682   1.964   3.133
 2203SOL    HW2 6618   3.689   2.043   2.990
 2204SOL     OW 6619   3.567   3.349   2.966
 2204SOL    HW1 6620   3.474   3.324   2.939
 2204SOL    HW2 6621   3.593   3.299   3.048
 2205SOL     OW 6622   2.179   2.409   3.142
 2205SOL    HW1 6623   2.217   2.350   3.214
 2205SOL    HW2 6624   2.219   2.383   3.054
 2206SOL     OW 6625   2.674   3.448   2.549
 2206SOL    HW1 6626   2.706   3.458   2.455
 2206SOL    HW2 6627   2.595   3.386   2.551
 2207SOL     OW 6628   3.286   2.076   2.974
 2207SOL    HW1 6629   3.338   2.011   3.029
 2207SOL    HW2 6630   3.237   2.139   3.035
 2208SOL     OW 6631   2.863   1.896   3.016
 2208SOL    HW1 6632   2.800   1.824   2.985
 2208SOL    HW2 6633   2.956   1.860   3.016
 2209SOL     OW 6634   2.632   3.192   2.163
 2209SOL    HW1 6635   2.586   3.105   2.180
 2209SOL    HW2 6636   2.723   3.189   2.204
 2210SOL     OW 6637   2.480   3.429   3.146
 2210SOL    HW1 6638   2.475   3.511   3.203
 2210SOL    HW2 6639   2.569   3.426   3.101
 2211SOL     OW 6640   3.214   1.914   2.030
 2211SOL    HW1 6641   3.249   1.873   1.946
 2211SOL    HW2 6642   3.124   1.876   2.050
 2212SOL     OW 6643   3.162   2.315   2.553
 2212SOL    HW1 6644   3.103   2.395   2.557
 2212SOL    HW2 6645   3.177   2.280   2.646
 2213SOL     OW 6646   3.455   2.083   2.744
 2213SOL    HW1 6647   3.371   2.082   2.798
 2213SOL    HW2 6648   3.457   2.166   2.688
 2214SOL     OW 6649   1.901   2.939   2.162
 2214SOL    HW1 6650   2.000   2.928   2.153
 2214SOL    HW2 6651   1.861   2.853   2.194
 2215SOL     OW 6652   2.737   3.508   2.199
 2215SOL    HW1 6653   2.660   3.473   2.145
 2215SOL    HW2 6654   2.705   3.579   2.261
 2216SOL     OW 6655   2.092   2.490   3.837
 2216SOL    HW1 6656   1.999   2.488   3.874
 2216SOL    HW2 6657   2.093   2.451   3.745
 2217SOL     OW 6658   2.087   2.137   4.720
 2217SOL    HW1 6659   2.122   2.120   4.812
 2217SOL    HW2 6660   1.999   2.092   4.708
 2218SOL     OW 6661   1.881   2.230   4.371
 2218SOL    HW1 6662   1.799   2.273   4.410
 2218SOL    HW2 6663   1.853   2.157   4.308
 2219SOL     OW 6664   3.617   2.469   3.955
 2219SOL    HW1 6665   3.605   2.456   3.856
 2219SOL    HW2 6666   3.587   2.388   4.004
 2220SOL     OW 6667   2.547   2.874   4.389
 2220SOL    HW1 6668   2.616   2.858   4.459
 2220SOL    HW2 6669   2.474   2.931   4.427
 2221SOL     OW 6670   3.465   2.309   4.461
 2221SOL    HW1 6671   3.391   2.355   4.411
 2221SOL    HW2 6672   3.516   2.377   4.514
 2222SOL     OW 6673   2.093   3.575   4.207
 2222SOL    HW1 6674   2.127   3.652   4.261
 2222SOL    HW2 6675   2.137   3.575   4.117
 2223SOL     OW 6676   2.092   3.296   4.262
 2223SOL    HW1 6677   2.066   3.392   4.262
 2223SOL    HW2 6678   2.021   3.242   4.307
 2224SOL     OW 6679   2.102   2.953   4.610
 2224SOL    HW1 6680   2.116   2.869   4.662
 2224SOL    HW2 6681   2.047   3.017   4.665
 2225SOL     OW 6682   2.468   2.826   3.847
 2225SOL    HW1 6683   2.475   2.910   3.793
 2225SOL    HW2 6684   2.514   2.839   3.935
 2226SOL     OW 6685   1.984   2.505   4.287
 2226SOL    HW1 6686   1.939   2.417   4.304
 2226SOL    HW2 6687   1.983   2.559   4.371
 2227SOL     OW 6688   3.704   3.629   4.083
 2227SOL    HW1 6689   3.758   3.600   4.163
 2227SOL    HW2 6690   3.734   3.719   4.054
 2228SOL     OW 6691   1.889   3.458   3.841
 2228SOL    HW1 6692   1.870   3.362   3.862
 2228SOL    HW2 6693   1.856   3.516   3.916
 2229SOL     OW 6694   3.551   2.784   4.336
 2229SOL    HW1 6695   3.646   2.755   4.344
 2229SOL    HW2 6696   3.543   2.849   4.261
 2230SOL     OW 6697   3.503   2.970   4.156
 2230SOL    HW1 6698   3.589   2.972   4.104
 2230SOL    HW2 6699   3.517   3.017   4.244
 2231SOL     OW 6700   2.475   3.227   4.450
 2231SOL    HW1 6701   2.426   3.140   4.459
 2231SOL    HW2 6702   2.452   3.270   4.363
 2232SOL     OW 6703   2.671   1.866   4.226
 2232SOL    HW1 6704   2.711   1.957   4.217
 2232SOL    HW2 6705   2.571   1.874   4.232
 2233SOL     OW 6706   3.387   2.861   3.914
 2233SOL    HW1 6707   3.324   2.785   3.927
 2233SOL    HW2 6708   3.435   2.879   4.000
 2234SOL     OW 6709   3.529   3.576   4.296
 2234SOL    HW1 6710   3.488   3.553   4.208
 2234SOL    HW2 6711   3.511   3.502   4.361
 2235SOL     OW 6712   2.460   2.591   3.994
 2235SOL    HW1 6713   2.484   2.660   3.926
 2235SOL    HW2 6714   2.382   2.624   4.048
 2236SOL     OW 6715   3.143   2.207   4.668
 2236SOL    HW1 6716   3.057   2.157   4.655
 2236SOL    HW2 6717   3.205   2.153   4.724
 2237SOL     OW 6718   3.438   3.524   4.031
 2237SOL    HW1 6719   3.527   3.570   4.034
 2237SOL    HW2 6720   3.417   3.500   3.936
 2238SOL     OW 6721   2.903   2.563   4.153
 2238SOL    HW1 6722   2.929   2.559   4.249
 2238SOL    HW2 6723   2.818   2.512   4.139
 2239SOL     OW 6724   1.938   2.673   4.513
 2239SOL    HW1 6725   2.037   2.661   4.522
 2239SOL    HW2 6726   1.914   2.768   4.534
 2240SOL     OW 6727   2.727   2.210   3.919
 2240SOL    HW1 6728   2.786   2.273   3.870
 2240SOL    HW2 6729   2.746   2.116   3.890
 2241SOL     OW 6730   3.224   3.006   4.269
 2241SOL    HW1 6731   3.307   2.977   4.221
 2241SOL    HW2 6732   3.175   3.073   4.213
 2242SOL     OW 6733   2.870   3.318   4.201
 2242SOL    HW1 6734   2.824   3.390   4.149
 2242SOL    HW2 6735   2.866   3.338   4.299
 2243SOL     OW 6736   2.213   3.663   4.577
 2243SOL    HW1 6737   2.263   3.577   4.583
 2243SOL    HW2 6738   2.278   3.740   4.574
 2244SOL     OW 6739   3.657   2.928   4.597
 2244SOL    HW1 6740   3.595   2.913   4.521
 2244SOL    HW2 6741   3.605   2.939   4.682
 2245SOL     OW 6742   2.183   2.805   3.966
 2245SOL    HW1 6743   2.265   2.844   3.924
 2245SOL    HW2 6744   2.156   2.723   3.917
 2246SOL     OW 6745   3.320   2.597   4.452
 2246SOL    HW1 6746   3.315   2.532   4.527
 2246SOL    HW2 6747   3.400   2.656   4.465
 2247SOL     OW 6748   2.973   3.638   3.961
 2247SOL    HW1 6749   2.913   3.576   4.011
 2247SOL    HW2 6750   3.004   3.594   3.876
 2248SOL     OW 6751   3.494   3.239   3.805
 2248SOL    HW1 6752   3.462   3.333   3.795
 2248SOL    HW2 6753   3.418   3.176   3.793
 2249SOL     OW 6754   2.326   3.605   4.047
 2249SOL    HW1 6755   2.359   3.644   4.133
 2249SOL    HW2 6756   2.402   3.598   3.982
 2250SOL     OW 6757   3.262   1.969   4.150
 2250SOL    HW1 6758   3.238   1.932   4.060
 2250SOL    HW2 6759   3.361   1.985   4.154
 2251SOL     OW 6760   2.802   3.560   4.628
 2251SOL    HW1 6761   2.882   3.503   4.649
 2251SOL    HW2 6762   2.753   3.520   4.551
 2252SOL     OW 6763   2.244   2.562   4.204
 2252SOL    HW1 6764   2.289   2.472   4.201
 2252SOL    HW2 6765   2.150   2.551   4.237
 2253SOL     OW 6766   2.476   1.984   3.841
 2253SOL    HW1 6767   2.574   1.962   3.848
 2253SOL    HW2 6768   2.445   1.967   3.748
 2254SOL     OW 6769   2.401   1.926   4.236
 2254SOL    HW1 6770   2.320   1.927   4.294
 2254SOL    HW2 6771   2.404   2.009   4.181
 2255SOL     OW 6772   3.296   3.050   3.765
 2255SOL    HW1 6773   3.328   2.974   3.822
 2255SOL    HW2 6774   3.204   3.077   3.795
 2256SOL     OW 6775   2.159   1.897   3.895
 2256SOL    HW1 6776   2.208   1.981   3.874
 2256SOL    HW2 6777   2.221   1.832   3.940
 2257SOL     OW 6778   2.797   2.098   4.204
 2257SOL    HW1 6779   2.749   2.139   4.126
 2257SOL    HW2 6780   2.896   2.096   4.185
 2258SOL     OW 6781   2.321   3.014   4.465
 2258SOL    HW1 6782   2.250   2.987   4.530
 2258SOL    HW2 6783   2.295   2.986   4.372
 2259SOL     OW 6784   3.133   3.659   4.315
 2259SOL    HW1 6785   3.177   3.723   4.251
 2259SOL    HW2 6786   3.083   3.711   4.385
 2260SOL     OW 6787   2.894   2.411   3.740
 2260SOL    HW1 6788   2.853   2.493   3.701
 2260SOL    HW2 6789   2.958   2.437   3.813
 2261SOL     OW 6790   2.728   2.316   4.366
 2261SOL    HW1 6791   2.696   2.388   4.304
 2261SOL    HW2 6792   2.752   2.235   4.313
 2262SOL     OW 6793   3.719   2.695   4.101
 2262SOL    HW1 6794   3.761   2.631   4.165
 2262SOL    HW2 6795   3.681   2.644   4.023
 2263SOL     OW 6796   2.350   3.247   3.898
 2263SOL    HW1 6797   2.263   3.232   3.945
 2263SOL    HW2 6798   2.333   3.273   3.803
 2264SOL     OW 6799   3.526   3.142   4.381
 2264SOL    HW1 6800   3.625   3.150   4.395
 2264SOL    HW2 6801   3.481   3.226   4.412
 2265SOL     OW 6802   3.252   2.437   3.802
 2265SOL    HW1 6803   3.198   2.416   3.883
 2265SOL    HW2 6804   3.343   2.396   3.811
 2266SOL     OW 6805   2.389   2.118   4.052
 2266SOL    HW1 6806   2.416   2.059   3.977
 2266SOL    HW2 6807   2.389   2.213   4.021
 2267SOL     OW 6808   2.567   2.912   4.092
 2267SOL    HW1 6809   2.553   2.919   4.191
 2267SOL    HW2 6810   2.651   2.861   4.074
 2268SOL     OW 6811   2.229   2.962   4.225
 2268SOL    HW1 6812   2.222   3.045   4.169
 2268SOL    HW2 6813   2.233   2.882   4.165
 2269SOL     OW 6814   3.114   3.210   4.112
 2269SOL    HW1 6815   3.164   3.287   4.152
 2269SOL    HW2 6816   3.019   3.212   4.144
 2270SOL     OW 6817   3.444   2.501   4.196
 2270SOL    HW1 6818   3.413   2.562   4.269
 2270SOL    HW2 6819   3.494   2.553   4.127
 2271SOL     OW 6820   3.071   2.387   3.999
 2271SOL    HW1 6821   3.084   2.303   4.053
 2271SOL    HW2 6822   3.042   2.461   4.059
 2272SOL     OW 6823   2.169   1.925   4.342
 2272SOL    HW1 6824   2.158   2.019   4.375
 2272SOL    HW2 6825   2.164   1.862   4.419
 2273SOL     OW 6826   3.484   2.229   4.098
 2273SOL    HW1 6827   3.486   2.153   4.162
 2273SOL    HW2 6828   3.436   2.306   4.138
 2274SOL     OW 6829   2.885   2.628   4.690
 2274SOL    HW1 6830   2.900   2.649   4.786
 2274SOL    HW2 6831   2.855   2.533   4.681
 2275SOL     OW 6832   3.402   2.136   3.849
 2275SOL    HW1 6833   3.341   2.061   3.872
 2275SOL    HW2 6834   3.424   2.188   3.932
 2276SOL     OW 6835   3.165   2.700   3.766
 2276SOL    HW1 6836   3.199   2.607   3.781
 2276SOL    HW2 6837   3.183   2.727   3.671
 2277SOL     OW 6838   1.870   3.188   3.924
 2277SOL    HW1 6839   1.777   3.209   3.893
 2277SOL    HW2 6840   1.880   3.089   3.937
 2278SOL     OW 6841   2.677   2.434   4.049
 2278SOL    HW1 6842   2.684   2.345   4.003
 2278SOL    HW2 6843   2.583   2.468   4.041
 2279SOL     OW 6844   2.335   2.362   3.915
 2279SOL    HW1 6845   2.396   2.442   3.919
 2279SOL    HW2 6846   2.240   2.393   3.922
 2280SOL     OW 6847   3.164   2.717   4.033
 2280SOL    HW1 6848   3.078   2.686   4.075
 2280SOL    HW2 6849   3.160   2.703   3.934
 2281SOL     OW 6850   3.588   1.997   4.247
 2281SOL    HW1 6851   3.661   1.980   4.180
 2281SOL    HW2 6852   3.557   1.910   4.285
 2282SOL     OW 6853   3.250   3.435   4.201
 2282SOL    HW1 6854   3.317   3.447   4.127
 2282SOL    HW2 6855   3.210   3.524   4.224
 2283SOL     OW 6856   2.534   3.478   3.878
 2283SOL    HW1 6857   2.543   3.488   3.779
 2283SOL    HW2 6858   2.494   3.389   3.899
 2284SOL     OW 6859   3.703   2.037   4.687
 2284SOL    HW1 6860   3.742   1.952   4.651
 2284SOL    HW2 6861   3.605   2.039   4.668
 2285SOL     OW 6862   2.125   2.188   4.444
 2285SOL    HW1 6863   2.046   2.239   4.410
 2285SOL    HW2 6864   2.116   2.173   4.542
 2286SOL     OW 6865   3.056   3.474   3.755
 2286SOL    HW1 6866   3.062   3.381   3.792
 2286SOL    HW2 6867   2.997   3.474   3.675
 2287SOL     OW 6868   2.778   2.772   4.015
 2287SOL    HW1 6869   2.841   2.810   3.947
 2287SOL    HW2 6870   2.818   2.689   4.054
 2288SOL     OW 6871   3.366   3.469   3.768
 2288SOL    HW1 6872   3.274   3.506   3.775
 2288SOL    HW2 6873   3.404   3.489   3.678
 2289SOL     OW 6874   2.452   3.349   4.215
 2289SOL    HW1 6875   2.494   3.291   4.145
 2289SOL    HW2 6876   2.408   3.428   4.171
 2290SOL     OW 6877   2.117   3.210   4.014
 2290SOL    HW1 6878   2.021   3.211   3.987
 2290SOL    HW2 6879   2.129   3.263   4.098
 2291SOL     OW 6880   1.937   2.207   3.757
 2291SOL    HW1 6881   1.845   2.179   3.728
 2291SOL    HW2 6882   1.968   2.284   3.701
 2292SOL     OW 6883   1.934   2.028   4.042
 2292SOL    HW1 6884   1.917   2.111   3.988
 2292SOL    HW2 6885   2.024   1.991   4.020
 2293SOL     OW 6886   3.045   3.197   3.843
 2293SOL    HW1 6887   2.946   3.186   3.845
 2293SOL    HW2 6888   3.079   3.212   3.936
 2294SOL     OW 6889   3.087   2.187   4.173
 2294SOL    HW1 6890   3.152   2.113   4.162
 2294SOL    HW2 6891   3.107   2.237   4.257
 2295SOL     OW 6892   2.456   2.607   4.376
 2295SOL    HW1 6893   2.506   2.692   4.357
 2295SOL    HW2 6894   2.368   2.609   4.328
 2296SOL     OW 6895   2.721   3.236   3.740
 2296SOL    HW1 6896   2.675   3.251   3.828
 2296SOL    HW2 6897   2.765   3.321   3.710
 2297SOL     OW 6898   2.523   3.652   4.677
 2297SOL    HW1 6899   2.477   3.740   4.664
 2297SOL    HW2 6900   2.622   3.664   4.670
 2298SOL     OW 6901   2.721   2.818   4.585
 2298SOL    HW1 6902   2.775   2.749   4.633
 2298SOL    HW2 6903   2.689   2.887   4.651
 2299SOL     OW 6904   2.945   2.846   3.811
 2299SOL    HW1 6905   2.922   2.899   3.729
 2299SOL    HW2 6906   3.026   2.790   3.792
 2300SOL     OW 6907   1.941   3.102   4.377
 2300SOL    HW1 6908   1.940   3.055   4.465
 2300SOL    HW2 6909   2.023   3.074   4.326
 2301SOL     OW 6910   2.290   2.286   4.244
 2301SOL    HW1 6911   2.320   2.214   4.182
 2301SOL    HW2 6912   2.251   2.246   4.327
 2302SOL     OW 6913   3.567   3.349   4.828
 2302SOL    HW1 6914   3.474   3.324   4.801
 2302SOL    HW2 6915   3.593   3.299   4.910
 2303SOL     OW 6916   2.674   3.448   4.411
 2303SOL    HW1 6917   2.706   3.458   4.317
 2303SOL    HW2 6918   2.595   3.386   4.413
 2304SOL     OW 6919   2.632   3.192   4.025
 2304SOL    HW1 6920   2.586   3.105   4.042
 2304SOL    HW2 6921   2.723   3.189   4.066
 2305SOL     OW 6922   3.214   1.914   3.892
 2305SOL    HW1 6923   3.249   1.873   3.808
 2305SOL    HW2 6924   3.124   1.876   3.912
 2306SOL     OW 6925   3.162   2.315   4.415
 2306SOL    HW1 6926   3.103   2.395   4.419
 2306SOL    HW2 6927   3.177   2.280   4.508
 2307SOL     OW 6928   1.901   2.939   4.024
 2307SOL    HW1 6929   2.000   2.928   4.015
 2307SOL    HW2 6930   1.861   2.853   4.056
 2308SOL     OW 6931   2.737   3.508   4.061
 2308SOL    HW1 6932   2.660   3.473   4.007
 2308SOL    HW2 6933   2.705   3.579   4.123
 2309SOL     OW 6934   2.092   4.352   0.113
 2309SOL    HW1 6935   1.999   4.350   0.150
 2309SOL    HW2 6936   2.093   4.313   0.021
 2310SOL     OW 6937   2.087   3.999   0.996
 2310SOL    HW1 6938   2.122   3.982   1.088
 2310SOL    HW2 6939   1.999   3.954   0.984
 2311SOL     OW 6940   1.881   4.092   0.647
 2311SOL    HW1 6941   1.799   4.135   0.686
 2311SOL    HW2 6942   1.853   4.019   0.584
 2312SOL     OW 6943   3.617   4.331   0.231
 2312SOL    HW1 6944   3.605   4.318   0.132
 2312SOL    HW2 6945   3.587   4.250   0.280
 2313SOL     OW 6946   2.712   4.522   1.823
 2313SOL    HW1 6947   2.708   4.598   1.888
 2313SOL    HW2 6948   2.734   4.558   1.732
 2314SOL     OW 6949   2.547   4.736   0.665
 2314SOL    HW1 6950   2.616   4.720   0.735
 2314SOL    HW2 6951   2.474   4.793   0.703
 2315SOL     OW 6952   2.300   4.116   1.499
 2315SOL    HW1 6953   2.382   4.060   1.508
 2315SOL    HW2 6954   2.219   4.058   1.503
 2316SOL     OW 6955   3.465   4.171   0.737
 2316SOL    HW1 6956   3.391   4.217   0.687
 2316SOL    HW2 6957   3.516   4.239   0.790
 2317SOL     OW 6958   3.456   3.838   1.480
 2317SOL    HW1 6959   3.438   3.905   1.408
 2317SOL    HW2 6960   3.453   3.884   1.569
 2318SOL     OW 6961   1.984   4.367   0.563
 2318SOL    HW1 6962   1.939   4.279   0.580
 2318SOL    HW2 6963   1.983   4.421   0.647
 2319SOL     OW 6964   1.975   4.461   1.597
 2319SOL    HW1 6965   2.063   4.448   1.642
 2319SOL    HW2 6966   1.962   4.558   1.575
 2320SOL     OW 6967   2.671   3.728   0.502
 2320SOL    HW1 6968   2.711   3.819   0.493
 2320SOL    HW2 6969   2.571   3.736   0.508
 2321SOL     OW 6970   2.179   3.975   1.801
 2321SOL    HW1 6971   2.250   4.046   1.807
 2321SOL    HW2 6972   2.091   4.014   1.829
 2322SOL     OW 6973   2.460   4.453   0.270
 2322SOL    HW1 6974   2.484   4.522   0.202
 2322SOL    HW2 6975   2.382   4.486   0.324
 2323SOL     OW 6976   3.143   4.069   0.944
 2323SOL    HW1 6977   3.057   4.019   0.931
 2323SOL    HW2 6978   3.205   4.015   1.000
 2324SOL     OW 6979   2.669   4.329   1.465
 2324SOL    HW1 6980   2.622   4.326   1.554
 2324SOL    HW2 6981   2.618   4.274   1.399
 2325SOL     OW 6982   3.256   4.193   1.674
 2325SOL    HW1 6983   3.236   4.236   1.762
 2325SOL    HW2 6984   3.334   4.131   1.683
 2326SOL     OW 6985   2.853   4.134   1.242
 2326SOL    HW1 6986   2.776   4.168   1.296
 2326SOL    HW2 6987   2.819   4.083   1.163
 2327SOL     OW 6988   2.903   4.425   0.429
 2327SOL    HW1 6989   2.929   4.421   0.525
 2327SOL    HW2 6990   2.818   4.374   0.415
 2328SOL     OW 6991   2.727   4.072   0.195
 2328SOL    HW1 6992   2.786   4.135   0.146
 2328SOL    HW2 6993   2.746   3.978   0.166
 2329SOL     OW 6994   3.581   4.309   1.831
 2329SOL    HW1 6995   3.555   4.398   1.795
 2329SOL    HW2 6996   3.579   4.241   1.758
 2330SOL     OW 6997   2.412   3.920   0.885
 2330SOL    HW1 6998   2.407   3.915   0.985
 2330SOL    HW2 6999   2.414   4.016   0.856
 2331SOL     OW 7000   3.320   4.459   0.728
 2331SOL    HW1 7001   3.315   4.394   0.803
 2331SOL    HW2 7002   3.400   4.518   0.741
 2332SOL     OW 7003   2.064   4.009   1.498
 2332SOL    HW1 7004   1.984   4.069   1.485
 2332SOL    HW2 7005   2.054   3.960   1.584
 2333SOL     OW 7006   3.262   3.831   0.426
 2333SOL    HW1 7007   3.238   3.794   0.336
 2333SOL    HW2 7008   3.361   3.847   0.430
 2334SOL     OW 7009   2.244   4.424   0.480
 2334SOL    HW1 7010   2.289   4.334   0.477
 2334SOL    HW2 7011   2.150   4.413   0.513
 2335SOL     OW 7012   3.409   3.946   1.729
 2335SOL    HW1 7013   3.404   3.983   1.821
 2335SOL    HW2 7014   3.337   3.877   1.717
 2336SOL     OW 7015   2.643   3.988   1.749
 2336SOL    HW1 7016   2.710   3.927   1.792
 2336SOL    HW2 7017   2.570   4.007   1.814
 2337SOL     OW 7018   3.213   4.314   1.433
 2337SOL    HW1 7019   3.241   4.271   1.518
 2337SOL    HW2 7020   3.238   4.410   1.434
 2338SOL     OW 7021   2.784   4.227   0.899
 2338SOL    HW1 7022   2.759   4.218   0.803
 2338SOL    HW2 7023   2.832   4.145   0.930
 2339SOL     OW 7024   2.401   3.788   0.512
 2339SOL    HW1 7025   2.320   3.789   0.570
 2339SOL    HW2 7026   2.404   3.871   0.457
 2340SOL     OW 7027   2.159   3.759   0.171
 2340SOL    HW1 7028   2.208   3.843   0.150
 2340SOL    HW2 7029   2.221   3.694   0.216
 2341SOL     OW 7030   2.797   3.960   0.480
 2341SOL    HW1 7031   2.749   4.001   0.402
 2341SOL    HW2 7032   2.896   3.958   0.461
 2342SOL     OW 7033   2.938   4.407   1.464
 2342SOL    HW1 7034   2.858   4.346   1.467
 2342SOL    HW2 7035   3.019   4.354   1.440
 2343SOL     OW 7036   2.894   4.273   0.016
 2343SOL    HW1 7037   2.853   4.355  -0.023
 2343SOL    HW2 7038   2.958   4.299   0.089
 2344SOL     OW 7039   1.940   4.280   1.386
 2344SOL    HW1 7040   2.032   4.279   1.345
 2344SOL    HW2 7041   1.934   4.354   1.453
 2345SOL     OW 7042   2.423   3.946   1.147
 2345SOL    HW1 7043   2.461   3.862   1.184
 2345SOL    HW2 7044   2.335   3.965   1.191
 2346SOL     OW 7045   2.728   4.178   0.642
 2346SOL    HW1 7046   2.696   4.250   0.580
 2346SOL    HW2 7047   2.752   4.097   0.589
 2347SOL     OW 7048   2.879   3.763   0.753
 2347SOL    HW1 7049   2.807   3.768   0.684
 2347SOL    HW2 7050   2.855   3.694   0.822
 2348SOL     OW 7051   3.328   4.314   0.992
 2348SOL    HW1 7052   3.298   4.219   0.999
 2348SOL    HW2 7053   3.401   4.330   1.058
 2349SOL     OW 7054   3.719   4.557   0.377
 2349SOL    HW1 7055   3.761   4.493   0.441
 2349SOL    HW2 7056   3.681   4.506   0.299
 2350SOL     OW 7057   3.252   4.299   0.078
 2350SOL    HW1 7058   3.198   4.278   0.159
 2350SOL    HW2 7059   3.343   4.258   0.087
 2351SOL     OW 7060   2.389   3.980   0.328
 2351SOL    HW1 7061   2.416   3.921   0.253
 2351SOL    HW2 7062   2.389   4.075   0.297
 2352SOL     OW 7063   2.777   3.813   1.402
 2352SOL    HW1 7064   2.802   3.793   1.307
 2352SOL    HW2 7065   2.849   3.869   1.444
 2353SOL     OW 7066   2.567   4.774   0.368
 2353SOL    HW1 7067   2.553   4.781   0.467
 2353SOL    HW2 7068   2.651   4.723   0.350
 2354SOL     OW 7069   2.272   4.537   1.251
 2354SOL    HW1 7070   2.358   4.549   1.301
 2354SOL    HW2 7071   2.230   4.450   1.278
 2355SOL     OW 7072   3.136   4.110   1.262
 2355SOL    HW1 7073   3.157   4.184   1.326
 2355SOL    HW2 7074   3.047   4.127   1.219
 2356SOL     OW 7075   2.428   4.261   0.865
 2356SOL    HW1 7076   2.440   4.327   0.791
 2356SOL    HW2 7077   2.474   4.295   0.948
 2357SOL     OW 7078   3.444   4.363   0.472
 2357SOL    HW1 7079   3.413   4.424   0.545
 2357SOL    HW2 7080   3.494   4.415   0.403
 2358SOL     OW 7081   3.449   4.503   1.670
 2358SOL    HW1 7082   3.357   4.541   1.665
 2358SOL    HW2 7083   3.509   4.550   1.605
 2359SOL     OW 7084   2.875   3.829   1.770
 2359SOL    HW1 7085   2.881   3.914   1.718
 2359SOL    HW2 7086   2.907   3.753   1.713
 2360SOL     OW 7087   2.366   3.774   1.740
 2360SOL    HW1 7088   2.324   3.717   1.670
 2360SOL    HW2 7089   2.300   3.843   1.772
 2361SOL     OW 7090   3.222   4.586   1.045
 2361SOL    HW1 7091   3.147   4.586   0.979
 2361SOL    HW2 7092   3.259   4.494   1.054
 2362SOL     OW 7093   3.071   4.249   0.275
 2362SOL    HW1 7094   3.084   4.165   0.329
 2362SOL    HW2 7095   3.042   4.323   0.335
 2363SOL     OW 7096   2.169   3.937   1.231
 2363SOL    HW1 7097   2.146   3.974   1.321
 2363SOL    HW2 7098   2.139   3.842   1.225
 2364SOL     OW 7099   2.594   4.358   1.064
 2364SOL    HW1 7100   2.653   4.332   0.988
 2364SOL    HW2 7101   2.566   4.454   1.053
 2365SOL     OW 7102   3.590   4.659   1.854
 2365SOL    HW1 7103   3.544   4.652   1.765
 2365SOL    HW2 7104   3.528   4.703   1.920
 2366SOL     OW 7105   2.169   3.787   0.618
 2366SOL    HW1 7106   2.158   3.881   0.651
 2366SOL    HW2 7107   2.164   3.724   0.695
 2367SOL     OW 7108   3.484   4.091   0.374
 2367SOL    HW1 7109   3.486   4.015   0.438
 2367SOL    HW2 7110   3.436   4.168   0.414
 2368SOL     OW 7111   3.402   3.998   0.125
 2368SOL    HW1 7112   3.341   3.923   0.148
 2368SOL    HW2 7113   3.424   4.050   0.208
 2369SOL     OW 7114   2.181   4.534   0.949
 2369SOL    HW1 7115   2.274   4.570   0.954
 2369SOL    HW2 7116   2.175   4.449   1.001
 2370SOL     OW 7117   2.201   4.233   1.006
 2370SOL    HW1 7118   2.149   4.150   0.989
 2370SOL    HW2 7119   2.278   4.238   0.942
 2371SOL     OW 7120   3.000   4.104   1.678
 2371SOL    HW1 7121   2.955   4.167   1.742
 2371SOL    HW2 7122   3.093   4.135   1.661
 2372SOL     OW 7123   3.022   3.931   1.477
 2372SOL    HW1 7124   3.022   3.995   1.554
 2372SOL    HW2 7125   3.050   3.979   1.394
 2373SOL     OW 7126   1.902   4.268   1.114
 2373SOL    HW1 7127   1.987   4.235   1.073
 2373SOL    HW2 7128   1.915   4.283   1.212
 2374SOL     OW 7129   2.051   4.244   1.722
 2374SOL    HW1 7130   2.110   4.204   1.652
 2374SOL    HW2 7131   1.993   4.315   1.681
 2375SOL     OW 7132   2.677   4.296   0.325
 2375SOL    HW1 7133   2.684   4.207   0.279
 2375SOL    HW2 7134   2.583   4.330   0.317
 2376SOL     OW 7135   3.519   4.328   1.206
 2376SOL    HW1 7136   3.481   4.259   1.268
 2376SOL    HW2 7137   3.601   4.292   1.162
 2377SOL     OW 7138   2.533   4.188   1.269
 2377SOL    HW1 7139   2.499   4.099   1.239
 2377SOL    HW2 7140   2.559   4.242   1.189
 2378SOL     OW 7141   2.335   4.224   0.191
 2378SOL    HW1 7142   2.396   4.304   0.195
 2378SOL    HW2 7143   2.240   4.255   0.198
 2379SOL     OW 7144   2.765   3.810   0.133
 2379SOL    HW1 7145   2.816   3.811   0.047
 2379SOL    HW2 7146   2.821   3.768   0.204
 2380SOL     OW 7147   3.588   3.859   0.523
 2380SOL    HW1 7148   3.661   3.842   0.456
 2380SOL    HW2 7149   3.557   3.772   0.561
 2381SOL     OW 7150   3.142   4.651   0.672
 2381SOL    HW1 7151   3.202   4.570   0.674
 2381SOL    HW2 7152   3.182   4.720   0.612
 2382SOL     OW 7153   3.703   3.899   0.963
 2382SOL    HW1 7154   3.742   3.814   0.927
 2382SOL    HW2 7155   3.605   3.901   0.944
 2383SOL     OW 7156   2.125   4.050   0.720
 2383SOL    HW1 7157   2.046   4.101   0.686
 2383SOL    HW2 7158   2.116   4.035   0.818
 2384SOL     OW 7159   2.876   3.960   0.971
 2384SOL    HW1 7160   2.868   3.924   0.878
 2384SOL    HW2 7161   2.874   3.884   1.036
 2385SOL     OW 7162   3.571   4.109   1.381
 2385SOL    HW1 7163   3.644   4.178   1.385
 2385SOL    HW2 7164   3.599   4.034   1.322
 2386SOL     OW 7165   1.967   4.737   1.726
 2386SOL    HW1 7166   1.890   4.704   1.780
 2386SOL    HW2 7167   2.052   4.707   1.768
 2387SOL     OW 7168   2.534   3.927   1.489
 2387SOL    HW1 7169   2.624   3.911   1.449
 2387SOL    HW2 7170   2.542   3.932   1.588
 2388SOL     OW 7171   1.937   4.069   0.033
 2388SOL    HW1 7172   1.845   4.041   0.004
 2388SOL    HW2 7173   1.968   4.146  -0.023
 2389SOL     OW 7174   1.934   3.890   0.318
 2389SOL    HW1 7175   1.917   3.973   0.264
 2389SOL    HW2 7176   2.024   3.853   0.296
 2390SOL     OW 7177   2.578   4.289   1.708
 2390SOL    HW1 7178   2.597   4.354   1.782
 2390SOL    HW2 7179   2.638   4.209   1.717
 2391SOL     OW 7180   3.536   4.607   1.254
 2391SOL    HW1 7181   3.509   4.518   1.217
 2391SOL    HW2 7182   3.537   4.675   1.181
 2392SOL     OW 7183   3.087   4.049   0.449
 2392SOL    HW1 7184   3.152   3.975   0.438
 2392SOL    HW2 7185   3.107   4.099   0.533
 2393SOL     OW 7186   2.456   4.469   0.652
 2393SOL    HW1 7187   2.506   4.554   0.633
 2393SOL    HW2 7188   2.368   4.471   0.604
 2394SOL     OW 7189   3.639   4.066   1.642
 2394SOL    HW1 7190   3.622   4.097   1.548
 2394SOL    HW2 7191   3.555   4.029   1.680
 2395SOL     OW 7192   2.721   4.680   0.861
 2395SOL    HW1 7193   2.775   4.611   0.909
 2395SOL    HW2 7194   2.689   4.749   0.927
 2396SOL     OW 7195   3.686   3.916   1.227
 2396SOL    HW1 7196   3.682   3.826   1.271
 2396SOL    HW2 7197   3.689   3.905   1.128
 2397SOL     OW 7198   2.290   4.148   0.520
 2397SOL    HW1 7199   2.320   4.076   0.458
 2397SOL    HW2 7200   2.251   4.108   0.603
 2398SOL     OW 7201   2.179   4.271   1.280
 2398SOL    HW1 7202   2.217   4.212   1.352
 2398SOL    HW2 7203   2.219   4.245   1.192
 2399SOL     OW 7204   3.286   3.938   1.112
 2399SOL    HW1 7205   3.338   3.873   1.167
 2399SOL    HW2 7206   3.237   4.001   1.173
 2400SOL     OW 7207   2.863   3.758   1.154
 2400SOL    HW1 7208   2.800   3.686   1.123
 2400SOL    HW2 7209   2.956   3.722   1.154
 2401SOL     OW 7210   3.214   3.776   0.168
 2401SOL    HW1 7211   3.249   3.735   0.084
 2401SOL    HW2 7212   3.124   3.738   0.188
 2402SOL     OW 7213   3.162   4.177   0.691
 2402SOL    HW1 7214   3.103   4.257   0.695
 2402SOL    HW2 7215   3.177   4.142   0.784
 2403SOL     OW 7216   3.455   3.945   0.882
 2403SOL    HW1 7217   3.371   3.944   0.936
 2403SOL    HW2 7218   3.457   4.028   0.826
 2404SOL     OW 7219   2.092   4.352   1.975
 2404SOL    HW1 7220   1.999   4.350   2.012
 2404SOL    HW2 7221   2.093   4.313   1.883
 2405SOL     OW 7222   2.087   3.999   2.858
 2405SOL    HW1 7223   2.122   3.982   2.950
 2405SOL    HW2 7224   1.999   3.954   2.846
 2406SOL     OW 7225   1.881   4.092   2.509
 2406SOL    HW1 7226   1.799   4.135   2.548
 2406SOL    HW2 7227   1.853   4.019   2.446
 2407SOL     OW 7228   3.617   4.331   2.093
 2407SOL    HW1 7229   3.605   4.318   1.994
 2407SOL    HW2 7230   3.587   4.250   2.142
 2408SOL     OW 7231   2.712   4.522   3.685
 2408SOL    HW1 7232   2.708   4.598   3.750
 2408SOL    HW2 7233   2.734   4.558   3.594
 2409SOL     OW 7234   2.547   4.736   2.527
 2409SOL    HW1 7235   2.616   4.720   2.597
 2409SOL    HW2 7236   2.474   4.793   2.565
 2410SOL     OW 7237   2.300   4.116   3.361
 2410SOL    HW1 7238   2.382   4.060   3.370
 2410SOL    HW2 7239   2.219   4.058   3.365
 2411SOL     OW 7240   3.465   4.171   2.599
 2411SOL    HW1 7241   3.391   4.217   2.549
 2411SOL    HW2 7242   3.516   4.239   2.652
 2412SOL     OW 7243   3.456   3.838   3.342
 2412SOL    HW1 7244   3.438   3.905   3.270
 2412SOL    HW2 7245   3.453   3.884   3.431
 2413SOL     OW 7246   1.984   4.367   2.425
 2413SOL    HW1 7247   1.939   4.279   2.442
 2413SOL    HW2 7248   1.983   4.421   2.509
 2414SOL     OW 7249   1.975   4.461   3.459
 2414SOL    HW1 7250   2.063   4.448   3.504
 2414SOL    HW2 7251   1.962   4.558   3.437
 2415SOL     OW 7252   2.671   3.728   2.364
 2415SOL    HW1 7253   2.711   3.819   2.355
 2415SOL    HW2 7254   2.571   3.736   2.370
 2416SOL     OW 7255   2.179   3.975   3.663
 2416SOL    HW1 7256   2.250   4.046   3.669
 2416SOL    HW2 7257   2.091   4.014   3.691
 2417SOL     OW 7258   2.460   4.453   2.132
 2417SOL    HW1 7259   2.484   4.522   2.064
 2417SOL    HW2 7260   2.382   4.486   2.186
 2418SOL     OW 7261   3.143   4.069   2.806
 2418SOL    HW1 7262   3.057   4.019   2.793
 2418SOL    HW2 7263   3.205   4.015   2.862
 2419SOL     OW 7264   2.669   4.329   3.327
 2419SOL    HW1 7265   2.622   4.326   3.416
 2419SOL    HW2 7266   2.618   4.274   3.261
 2420SOL     OW 7267   3.256   4.193   3.536
 2420SOL    HW1 7268   3.236   4.236   3.624
 2420SOL    HW2 7269   3.334   4.131   3.545
 2421SOL     OW 7270   2.853   4.134   3.104
 2421SOL    HW1 7271   2.776   4.168   3.158
 2421SOL    HW2 7272   2.819   4.083   3.025
 2422SOL     OW 7273   2.903   4.425   2.291
 2422SOL    HW1 7274   2.929   4.421   2.387
 2422SOL    HW2 7275   2.818   4.374   2.277
 2423SOL     OW 7276   2.727   4.072   2.057
 2423SOL    HW1 7277   2.786   4.135   2.008
 2423SOL    HW2 7278   2.746   3.978   2.028
 2424SOL     OW 7279   3.581   4.309   3.693
 2424SOL    HW1 7280   3.555   4.398   3.657
 2424SOL    HW2 7281   3.579   4.241   3.620
 2425SOL     OW 7282   2.412   3.920   2.747
 2425SOL    HW1 7283   2.407   3.915   2.847
 2425SOL    HW2 7284   2.414   4.016   2.718
 2426SOL     OW 7285   3.320   4.459   2.590
 2426SOL    HW1 7286   3.315   4.394   2.665
 2426SOL    HW2 7287   3.400   4.518   2.603
 2427SOL     OW 7288   2.064   4.009   3.360
 2427SOL    HW1 7289   1.984   4.069   3.347
 2427SOL    HW2 7290   2.054   3.960   3.446
 2428SOL     OW 7291   3.262   3.831   2.288
 2428SOL    HW1 7292   3.238   3.794   2.198
 2428SOL    HW2 7293   3.361   3.847   2.292
 2429SOL     OW 7294   2.244   4.424   2.342
 2429SOL    HW1 7295   2.289   4.334   2.339
 2429SOL    HW2 7296   2.150   4.413   2.375
 2430SOL     OW 7297   3.409   3.946   3.591
 2430SOL    HW1 7298   3.404   3.983   3.683
 2430SOL    HW2 7299   3.337   3.877   3.579
 2431SOL     OW 7300   2.476   3.846   1.979
 2431SOL    HW1 7301   2.574   3.824   1.986
 2431SOL    HW2 7302   2.445   3.829   1.886
 2432SOL     OW 7303   2.643   3.988   3.611
 2432SOL    HW1 7304   2.710   3.927   3.654
 2432SOL    HW2 7305   2.570   4.007   3.676
 2433SOL     OW 7306   3.213   4.314   3.295
 2433SOL    HW1 7307   3.241   4.271   3.380
 2433SOL    HW2 7308   3.238   4.410   3.296
 2434SOL     OW 7309   2.784   4.227   2.761
 2434SOL    HW1 7310   2.759   4.218   2.665
 2434SOL    HW2 7311   2.832   4.145   2.792
 2435SOL     OW 7312   2.401   3.788   2.374
 2435SOL    HW1 7313   2.320   3.789   2.432
 2435SOL    HW2 7314   2.404   3.871   2.319
 2436SOL     OW 7315   2.159   3.759   2.033
 2436SOL    HW1 7316   2.208   3.843   2.012
 2436SOL    HW2 7317   2.221   3.694   2.078
 2437SOL     OW 7318   2.797   3.960   2.342
 2437SOL    HW1 7319   2.749   4.001   2.264
 2437SOL    HW2 7320   2.896   3.958   2.323
 2438SOL     OW 7321   2.938   4.407   3.326
 2438SOL    HW1 7322   2.858   4.346   3.329
 2438SOL    HW2 7323   3.019   4.354   3.302
 2439SOL     OW 7324   2.894   4.273   1.878
 2439SOL    HW1 7325   2.853   4.355   1.839
 2439SOL    HW2 7326   2.958   4.299   1.951
 2440SOL     OW 7327   1.940   4.280   3.248
 2440SOL    HW1 7328   2.032   4.279   3.207
 2440SOL    HW2 7329   1.934   4.354   3.315
 2441SOL     OW 7330   2.423   3.946   3.009
 2441SOL    HW1 7331   2.461   3.862   3.046
 2441SOL    HW2 7332   2.335   3.965   3.053
 2442SOL     OW 7333   2.728   4.178   2.504
 2442SOL    HW1 7334   2.696   4.250   2.442
 2442SOL    HW2 7335   2.752   4.097   2.451
 2443SOL     OW 7336   2.879   3.763   2.615
 2443SOL    HW1 7337   2.807   3.768   2.546
 2443SOL    HW2 7338   2.855   3.694   2.684
 2444SOL     OW 7339   3.328   4.314   2.854
 2444SOL    HW1 7340   3.298   4.219   2.861
 2444SOL    HW2 7341   3.401   4.330   2.920
 2445SOL     OW 7342   3.719   4.557   2.239
 2445SOL    HW1 7343   3.761   4.493   2.303
 2445SOL    HW2 7344   3.681   4.506   2.161
 2446SOL     OW 7345   3.252   4.299   1.940
 2446SOL    HW1 7346   3.198   4.278   2.021
 2446SOL    HW2 7347   3.343   4.258   1.949
 2447SOL     OW 7348   2.389   3.980   2.190
 2447SOL    HW1 7349   2.416   3.921   2.115
 2447SOL    HW2 7350   2.389   4.075   2.159
 2448SOL     OW 7351   2.777   3.813   3.264
 2448SOL    HW1 7352   2.802   3.793   3.169
 2448SOL    HW2 7353   2.849   3.869   3.306
 2449SOL     OW 7354   2.567   4.774   2.230
 2449SOL    HW1 7355   2.553   4.781   2.329
 2449SOL    HW2 7356   2.651   4.723   2.212
 2450SOL     OW 7357   2.272   4.537   3.113
 2450SOL    HW1 7358   2.358   4.549   3.163
 2450SOL    HW2 7359   2.230   4.450   3.140
 2451SOL     OW 7360   3.136   4.110   3.124
 2451SOL    HW1 7361   3.157   4.184   3.188
 2451SOL    HW2 7362   3.047   4.127   3.081
 2452SOL     OW 7363   2.428   4.261   2.727
 2452SOL    HW1 7364   2.440   4.327   2.653
 2452SOL    HW2 7365   2.474   4.295   2.810
 2453SOL     OW 7366   3.444   4.363   2.334
 2453SOL    HW1 7367   3.413   4.424   2.407
 2453SOL    HW2 7368   3.494   4.415   2.265
 2454SOL     OW 7369   3.449   4.503   3.532
 2454SOL    HW1 7370   3.357   4.541   3.527
 2454SOL    HW2 7371   3.509   4.550   3.467
 2455SOL     OW 7372   2.875   3.829   3.632
 2455SOL    HW1 7373   2.881   3.914   3.580
 2455SOL    HW2 7374   2.907   3.753   3.575
 2456SOL     OW 7375   2.366   3.774   3.602
 2456SOL    HW1 7376   2.324   3.717   3.532
 2456SOL    HW2 7377   2.300   3.843   3.634
 2457SOL     OW 7378   3.222   4.586   2.907
 2457SOL    HW1 7379   3.147   4.586   2.841
 2457SOL    HW2 7380   3.259   4.494   2.916
 2458SOL     OW 7381   3.071   4.249   2.137
 2458SOL    HW1 7382   3.084   4.165   2.191
 2458SOL    HW2 7383   3.042   4.323   2.197
 2459SOL     OW 7384   2.169   3.937   3.093
 2459SOL    HW1 7385   2.146   3.974   3.183
 2459SOL    HW2 7386   2.139   3.842   3.087
 2460SOL     OW 7387   2.594   4.358   2.926
 2460SOL    HW1 7388   2.653   4.332   2.850
 2460SOL    HW2 7389   2.566   4.454   2.915
 2461SOL     OW 7390   3.590   4.659   3.716
 2461SOL    HW1 7391   3.544   4.652   3.627
 2461SOL    HW2 7392   3.528   4.703   3.782
 2462SOL     OW 7393   2.169   3.787   2.480
 2462SOL    HW1 7394   2.158   3.881   2.513
 2462SOL    HW2 7395   2.164   3.724   2.557
 2463SOL     OW 7396   3.484   4.091   2.236
 2463SOL    HW1 7397   3.486   4.015   2.300
 2463SOL    HW2 7398   3.436   4.168   2.276
 2464SOL     OW 7399   3.402   3.998   1.987
 2464SOL    HW1 7400   3.341   3.923   2.010
 2464SOL    HW2 7401   3.424   4.050   2.070
 2465SOL     OW 7402   2.181   4.534   2.811
 2465SOL    HW1 7403   2.274   4.570   2.816
 2465SOL    HW2 7404   2.175   4.449   2.863
 2466SOL     OW 7405   2.201   4.233   2.868
 2466SOL    HW1 7406   2.149   4.150   2.851
 2466SOL    HW2 7407   2.278   4.238   2.804
 2467SOL     OW 7408   3.000   4.104   3.540
 2467SOL    HW1 7409   2.955   4.167   3.604
 2467SOL    HW2 7410   3.093   4.135   3.523
 2468SOL     OW 7411   3.022   3.931   3.339
 2468SOL    HW1 7412   3.022   3.995   3.416
 2468SOL    HW2 7413   3.050   3.979   3.256
 2469SOL     OW 7414   1.902   4.268   2.976
 2469SOL    HW1 7415   1.987   4.235   2.935
 2469SOL    HW2 7416   1.915   4.283   3.074
 2470SOL     OW 7417   2.051   4.244   3.584
 2470SOL    HW1 7418   2.110   4.204   3.514
 2470SOL    HW2 7419   1.993   4.315   3.543
 2471SOL     OW 7420   2.677   4.296   2.187
 2471SOL    HW1 7421   2.684   4.207   2.141
 2471SOL    HW2 7422   2.583   4.330   2.179
 2472SOL     OW 7423   3.519   4.328   3.068
 2472SOL    HW1 7424   3.481   4.259   3.130
 2472SOL    HW2 7425   3.601   4.292   3.024
 2473SOL     OW 7426   2.533   4.188   3.131
 2473SOL    HW1 7427   2.499   4.099   3.101
 2473SOL    HW2 7428   2.559   4.242   3.051
 2474SOL     OW 7429   2.335   4.224   2.053
 2474SOL    HW1 7430   2.396   4.304   2.057
 2474SOL    HW2 7431   2.240   4.255   2.060
 2475SOL     OW 7432   3.588   3.859   2.385
 2475SOL    HW1 7433   3.661   3.842   2.318
 2475SOL    HW2 7434   3.557   3.772   2.423
 2476SOL     OW 7435   3.142   4.651   2.534
 2476SOL    HW1 7436   3.202   4.570   2.536
 2476SOL    HW2 7437   3.182   4.720   2.474
 2477SOL     OW 7438   3.703   3.899   2.825
 2477SOL    HW1 7439   3.742   3.814   2.789
 2477SOL    HW2 7440   3.605   3.901   2.806
 2478SOL     OW 7441   2.125   4.050   2.582
 2478SOL    HW1 7442   2.046   4.101   2.548
 2478SOL    HW2 7443   2.116   4.035   2.680
 2479SOL     OW 7444   2.778   4.634   2.153
 2479SOL    HW1 7445   2.841   4.672   2.085
 2479SOL    HW2 7446   2.818   4.551   2.192
 2480SOL     OW 7447   2.876   3.960   2.833
 2480SOL    HW1 7448   2.868   3.924   2.740
 2480SOL    HW2 7449   2.874   3.884   2.898
 2481SOL     OW 7450   3.571   4.109   3.243
 2481SOL    HW1 7451   3.644   4.178   3.247
 2481SOL    HW2 7452   3.599   4.034   3.184
 2482SOL     OW 7453   1.967   4.737   3.588
 2482SOL    HW1 7454   1.890   4.704   3.642
 2482SOL    HW2 7455   2.052   4.707   3.630
 2483SOL     OW 7456   2.534   3.927   3.351
 2483SOL    HW1 7457   2.624   3.911   3.311
 2483SOL    HW2 7458   2.542   3.932   3.450
 2484SOL     OW 7459   1.937   4.069   1.895
 2484SOL    HW1 7460   1.845   4.041   1.866
 2484SOL    HW2 7461   1.968   4.146   1.839
 2485SOL     OW 7462   1.934   3.890   2.180
 2485SOL    HW1 7463   1.917   3.973   2.126
 2485SOL    HW2 7464   2.024   3.853   2.158
 2486SOL     OW 7465   2.578   4.289   3.570
 2486SOL    HW1 7466   2.597   4.354   3.644
 2486SOL    HW2 7467   2.638   4.209   3.579
 2487SOL     OW 7468   3.536   4.607   3.116
 2487SOL    HW1 7469   3.509   4.518   3.079
 2487SOL    HW2 7470   3.537   4.675   3.043
 2488SOL     OW 7471   3.087   4.049   2.311
 2488SOL    HW1 7472   3.152   3.975   2.300
 2488SOL    HW2 7473   3.107   4.099   2.395
 2489SOL     OW 7474   2.456   4.469   2.514
 2489SOL    HW1 7475   2.506   4.554   2.495
 2489SOL    HW2 7476   2.368   4.471   2.466
 2490SOL     OW 7477   3.639   4.066   3.504
 2490SOL    HW1 7478   3.622   4.097   3.410
 2490SOL    HW2 7479   3.555   4.029   3.542
 2491SOL     OW 7480   2.721   4.680   2.723
 2491SOL    HW1 7481   2.775   4.611   2.771
 2491SOL    HW2 7482   2.689   4.749   2.789
 2492SOL     OW 7483   3.686   3.916   3.089
 2492SOL    HW1 7484   3.682   3.826   3.133
 2492SOL    HW2 7485   3.689   3.905   2.990
 2493SOL     OW 7486   2.290   4.148   2.382
 2493SOL    HW1 7487   2.320   4.076   2.320
 2493SOL    HW2 7488   2.251   4.108   2.465
 2494SOL     OW 7489   2.179   4.271   3.142
 2494SOL    HW1 7490   2.217   4.212   3.214
 2494SOL    HW2 7491   2.219   4.245   3.054
 2495SOL     OW 7492   3.286   3.938   2.974
 2495SOL    HW1 7493   3.338   3.873   3.029
 2495SOL    HW2 7494   3.237   4.001   3.035
 2496SOL     OW 7495   2.863   3.758   3.016
 2496SOL    HW1 7496   2.800   3.686   2.985
 2496SOL    HW2 7497   2.956   3.722   3.016
 2497SOL     OW 7498   3.214   3.776   2.030
 2497SOL    HW1 7499   3.249   3.735   1.946
 2497SOL    HW2 7500   3.124   3.738   2.050
 2498SOL     OW 7501   3.162   4.177   2.553
 2498SOL    HW1 7502   3.103   4.257   2.557
 2498SOL    HW2 7503   3.177   4.142   2.646
 2499SOL     OW 7504   3.455   3.945   2.744
 2499SOL    HW1 7505   3.371   3.944   2.798
 2499SOL    HW2 7506   3.457   4.028   2.688
 2500SOL     OW 7507   2.092   4.352   3.837
 2500SOL    HW1 7508   1.999   4.350   3.874
 2500SOL    HW2 7509   2.093   4.313   3.745
 2501SOL     OW 7510   2.087   3.999   4.720
 2501SOL    HW1 7511   2.122   3.982   4.812
 2501SOL    HW2 7512   1.999   3.954   4.708
 2502SOL     OW 7513   1.881   4.092   4.371
 2502SOL    HW1 7514   1.799   4.135   4.410
 2502SOL    HW2 7515   1.853   4.019   4.308
 2503SOL     OW 7516   3.617   4.331   3.955
 2503SOL    HW1 7517   3.605   4.318   3.856
 2503SOL    HW2 7518   3.587   4.250   4.004
 2504SOL     OW 7519   2.547   4.736   4.389
 2504SOL    HW1 7520   2.616   4.720   4.459
 2504SOL    HW2 7521   2.474   4.793   4.427
 2505SOL     OW 7522   3.465   4.171   4.461
 2505SOL    HW1 7523   3.391   4.217   4.411
 2505SOL    HW2 7524   3.516   4.239   4.514
 2506SOL     OW 7525   1.984   4.367   4.287
 2506SOL    HW1 7526   1.939   4.279   4.304
 2506SOL    HW2 7527   1.983   4.421   4.371
 2507SOL     OW 7528   2.671   3.728   4.226
 2507SOL    HW1 7529   2.711   3.819   4.217
 2507SOL    HW2 7530   2.571   3.736   4.232
 2508SOL     OW 7531   2.460   4.453   3.994
 2508SOL    HW1 7532   2.484   4.522   3.926
 2508SOL    HW2 7533   2.382   4.486   4.048
 2509SOL     OW 7534   3.143   4.069   4.668
 2509SOL    HW1 7535   3.057   4.019   4.655
 2509SOL    HW2 7536   3.205   4.015   4.724
 2510SOL     OW 7537   2.903   4.425   4.153
 2510SOL    HW1 7538   2.929   4.421   4.249
 2510SOL    HW2 7539   2.818   4.374   4.139
 2511SOL     OW 7540   2.727   4.072   3.919
 2511SOL    HW1 7541   2.786   4.135   3.870
 2511SOL    HW2 7542   2.746   3.978   3.890
 2512SOL     OW 7543   3.320   4.459   4.452
 2512SOL    HW1 7544   3.315   4.394   4.527
 2512SOL    HW2 7545   3.400   4.518   4.465
 2513SOL     OW 7546   3.262   3.831   4.150
 2513SOL    HW1 7547   3.238   3.794   4.060
 2513SOL    HW2 7548   3.361   3.847   4.154
 2514SOL     OW 7549   2.244   4.424   4.204
 2514SOL    HW1 7550   2.289   4.334   4.201
 2514SOL    HW2 7551   2.150   4.413   4.237
 2515SOL     OW 7552   2.476   3.846   3.841
 2515SOL    HW1 7553   2.574   3.824   3.848
 2515SOL    HW2 7554   2.445   3.829   3.748
 2516SOL     OW 7555   2.401   3.788   4.236
 2516SOL    HW1 7556   2.320   3.789   4.294
 2516SOL    HW2 7557   2.404   3.871   4.181
 2517SOL     OW 7558   2.159   3.759   3.895
 2517SOL    HW1 7559   2.208   3.843   3.874
 2517SOL    HW2 7560   2.221   3.694   3.940
 2518SOL     OW 7561   2.797   3.960   4.204
 2518SOL    HW1 7562   2.749   4.001   4.126
 2518SOL    HW2 7563   2.896   3.958   4.185
 2519SOL     OW 7564   2.894   4.273   3.740
 2519SOL    HW1 7565   2.853   4.355   3.701
 2519SOL    HW2 7566   2.958   4.299   3.813
 2520SOL     OW 7567   2.728   4.178   4.366
 2520SOL    HW1 7568   2.696   4.250   4.304
 2520SOL    HW2 7569   2.752   4.097   4.313
 2521SOL     OW 7570   3.719   4.557   4.101
 2521SOL    HW1 7571   3.761   4.493   4.165
 2521SOL    HW2 7572   3.681   4.506   4.023
 2522SOL     OW 7573   3.252   4.299   3.802
 2522SOL    HW1 7574   3.198   4.278   3.883
 2522SOL    HW2 7575   3.343   4.258   3.811
 2523SOL     OW 7576   2.389   3.980   4.052
 2523SOL    HW1 7577   2.416   3.921   3.977
 2523SOL    HW2 7578   2.389   4.075   4.021
 2524SOL     OW 7579   2.567   4.774   4.092
 2524SOL    HW1 7580   2.553   4.781   4.191
 2524SOL    HW2 7581   2.651   4.723   4.074
 2525SOL     OW 7582   3.444   4.363   4.196
 2525SOL    HW1 7583   3.413   4.424   4.269
 2525SOL    HW2 7584   3.494   4.415   4.127
 2526SOL     OW 7585   3.071   4.249   3.999
 2526SOL    HW1 7586   3.084   4.165   4.053
 2526SOL    HW2 7587   3.042   4.323   4.059
 2527SOL     OW 7588   2.169   3.787   4.342
 2527SOL    HW1 7589   2.158   3.881   4.375
 2527SOL    HW2 7590   2.164   3.724   4.419
 2528SOL     OW 7591   3.484   4.091   4.098
 2528SOL    HW1 7592   3.486   4.015   4.162
 2528SOL    HW2 7593   3.436   4.168   4.138
 2529SOL     OW 7594   3.402   3.998   3.849
 2529SOL    HW1 7595   3.341   3.923   3.872
 2529SOL    HW2 7596   3.424   4.050   3.932
 2530SOL     OW 7597   2.677   4.296   4.049
 2530SOL    HW1 7598   2.684   4.207   4.003
 2530SOL    HW2 7599   2.583   4.330   4.041
 2531SOL     OW 7600   2.335   4.224   3.915
 2531SOL    HW1 7601   2.396   4.304   3.919
 2531SOL    HW2 7602   2.240   4.255   3.922
 2532SOL     OW 7603   3.588   3.859   4.247
 2532SOL    HW1 7604   3.661   3.842   4.180
 2532SOL    HW2 7605   3.557   3.772   4.285
 2533SOL     OW 7606   3.142   4.651   4.396
 2533SOL    HW1 7607   3.202   4.570   4.398
 2533SOL    HW2 7608   3.182   4.720   4.336
 2534SOL     OW 7609   3.703   3.899   4.687
 2534SOL    HW1 7610   3.742   3.814   4.651
 2534SOL    HW2 7611   3.605   3.901   4.668
 2535SOL     OW 7612   2.125   4.050   4.444
 2535SOL    HW1 7613   2.046   4.101   4.410
 2535SOL    HW2 7614   2.116   4.035   4.542
 2536SOL     OW 7615   2.778   4.634   4.015
 2536SOL    HW1 7616   2.841   4.672   3.947
 2536SOL    HW2 7617   2.818   4.551   4.054
 2537SOL     OW 7618   2.901   4.822   4.420
 2537SOL    HW1 7619   2.831   4.775   4.474
 2537SOL    HW2 7620   2.960   4.754   4.377
 2538SOL     OW 7621   1.937   4.069   3.757
 2538SOL    HW1 7622   1.845   4.041   3.728
 2538SOL    HW2 7623   1.968   4.146   3.701
 2539SOL     OW 7624   1.934   3.890   4.042
 2539SOL    HW1 7625   1.917   3.973   3.988
 2539SOL    HW2 7626   2.024   3.853   4.020
 2540SOL     OW 7627   3.087   4.049   4.173
 2540SOL    HW1 7628   3.152   3.975   4.162
 2540SOL    HW2 7629   3.107   4.099   4.257
 2541SOL     OW 7630   2.456   4.469   4.376
 2541SOL    HW1 7631   2.506   4.554   4.357
 2541SOL    HW2 7632   2.368   4.471   4.328
 2542SOL     OW 7633   2.290   4.148   4.244
 2542SOL    HW1 7634   2.320   4.076   4.182
 2542SOL    HW2 7635   2.251   4.108   4.327
 2543SOL     OW 7636   3.214   3.776   3.892
 2543SOL    HW1 7637   3.249   3.735   3.808
 2543SOL    HW2 7638   3.124   3.738   3.912
 2544SOL     OW 7639   3.162   4.177   4.415
 2544SOL    HW1 7640   3.103   4.257   4.419
 2544SOL    HW2 7641   3.177   4.142   4.508
 2545SOL     OW 7642   3.954   0.628   0.113
 2545SOL    HW1 7643   3.861   0.626   0.150
 2545SOL    HW2 7644   3.955   0.589   0.021
 2546SOL     OW 7645   3.949   0.275   0.996
 2546SOL    HW1 7646   3.984   0.258   1.088
 2546SOL    HW2 7647   3.861   0.230   0.984
 2547SOL     OW 7648   3.743   0.368   0.647
 2547SOL    HW1 7649   3.661   0.411   0.686
 2547SOL    HW2 7650   3.715   0.295   0.584
 2548SOL     OW 7651   4.293   1.275   1.165
 2548SOL    HW1 7652   4.200   1.268   1.128
 2548SOL    HW2 7653   4.304   1.364   1.209
 2549SOL     OW 7654   4.574   0.798   1.823
 2549SOL    HW1 7655   4.570   0.874   1.888
 2549SOL    HW2 7656   4.596   0.834   1.732
 2550SOL     OW 7657   4.409   1.012   0.665
 2550SOL    HW1 7658   4.478   0.996   0.735
 2550SOL    HW2 7659   4.336   1.069   0.703
 2551SOL     OW 7660   4.410   1.161   1.803
 2551SOL    HW1 7661   4.470   1.240   1.817
 2551SOL    HW2 7662   4.324   1.192   1.762
 2552SOL     OW 7663   4.059   1.435   1.061
 2552SOL    HW1 7664   3.981   1.404   1.008
 2552SOL    HW2 7665   4.117   1.493   1.004
 2553SOL     OW 7666   4.162   0.392   1.499
 2553SOL    HW1 7667   4.244   0.336   1.508
 2553SOL    HW2 7668   4.081   0.334   1.503
 2554SOL     OW 7669   3.955   1.713   0.483
 2554SOL    HW1 7670   3.989   1.790   0.537
 2554SOL    HW2 7671   3.999   1.713   0.393
 2555SOL     OW 7672   3.954   1.434   0.538
 2555SOL    HW1 7673   3.928   1.530   0.538
 2555SOL    HW2 7674   3.883   1.380   0.583
 2556SOL     OW 7675   3.964   1.091   0.886
 2556SOL    HW1 7676   3.978   1.007   0.938
 2556SOL    HW2 7677   3.909   1.155   0.941
 2557SOL     OW 7678   4.344   1.786   1.439
 2557SOL    HW1 7679   4.252   1.769   1.474
 2557SOL    HW2 7680   4.372   1.878   1.465
 2558SOL     OW 7681   4.330   0.964   0.123
 2558SOL    HW1 7682   4.337   1.048   0.069
 2558SOL    HW2 7683   4.376   0.977   0.211
 2559SOL     OW 7684   3.846   0.643   0.563
 2559SOL    HW1 7685   3.801   0.555   0.580
 2559SOL    HW2 7686   3.845   0.697   0.647
 2560SOL     OW 7687   3.751   1.596   0.117
 2560SOL    HW1 7688   3.732   1.500   0.138
 2560SOL    HW2 7689   3.718   1.654   0.192
 2561SOL     OW 7690   3.837   0.737   1.597
 2561SOL    HW1 7691   3.925   0.724   1.642
 2561SOL    HW2 7692   3.824   0.834   1.575
 2562SOL     OW 7693   4.337   1.365   0.726
 2562SOL    HW1 7694   4.288   1.278   0.735
 2562SOL    HW2 7695   4.314   1.408   0.639
 2563SOL     OW 7696   4.533   0.004   0.502
 2563SOL    HW1 7697   4.573   0.095   0.493
 2563SOL    HW2 7698   4.433   0.012   0.508
 2564SOL     OW 7699   3.921   0.976   1.264
 2564SOL    HW1 7700   4.010   0.931   1.250
 2564SOL    HW2 7701   3.848   0.911   1.245
 2565SOL     OW 7702   4.041   0.251   1.801
 2565SOL    HW1 7703   4.112   0.322   1.807
 2565SOL    HW2 7704   3.953   0.290   1.829
 2566SOL     OW 7705   4.322   0.729   0.270
 2566SOL    HW1 7706   4.346   0.798   0.202
 2566SOL    HW2 7707   4.244   0.762   0.324
 2567SOL     OW 7708   3.800   0.811   0.789
 2567SOL    HW1 7709   3.899   0.799   0.798
 2567SOL    HW2 7710   3.776   0.906   0.810
 2568SOL     OW 7711   3.854   1.821   1.571
 2568SOL    HW1 7712   3.844   1.806   1.670
 2568SOL    HW2 7713   3.768   1.857   1.535
 2569SOL     OW 7714   4.274   0.196   0.885
 2569SOL    HW1 7715   4.269   0.191   0.985
 2569SOL    HW2 7716   4.276   0.292   0.856
 2570SOL     OW 7717   4.075   1.801   0.853
 2570SOL    HW1 7718   4.125   1.715   0.859
 2570SOL    HW2 7719   4.140   1.878   0.850
 2571SOL     OW 7720   4.045   0.943   0.242
 2571SOL    HW1 7721   4.127   0.982   0.200
 2571SOL    HW2 7722   4.018   0.861   0.193
 2572SOL     OW 7723   4.185   1.266   1.727
 2572SOL    HW1 7724   4.135   1.267   1.641
 2572SOL    HW2 7725   4.122   1.248   1.803
 2573SOL     OW 7726   3.926   0.285   1.498
 2573SOL    HW1 7727   3.846   0.345   1.485
 2573SOL    HW2 7728   3.916   0.236   1.584
 2574SOL     OW 7729   4.188   1.743   0.323
 2574SOL    HW1 7730   4.221   1.782   0.409
 2574SOL    HW2 7731   4.264   1.736   0.258
 2575SOL     OW 7732   3.973   1.785   1.241
 2575SOL    HW1 7733   4.030   1.720   1.291
 2575SOL    HW2 7734   3.957   1.752   1.148
 2576SOL     OW 7735   4.106   0.700   0.480
 2576SOL    HW1 7736   4.151   0.610   0.477
 2576SOL    HW2 7737   4.012   0.689   0.513
 2577SOL     OW 7738   4.338   0.122   0.117
 2577SOL    HW1 7739   4.436   0.100   0.124
 2577SOL    HW2 7740   4.307   0.105   0.024
 2578SOL     OW 7741   4.527   1.402   0.924
 2578SOL    HW1 7742   4.617   1.416   0.882
 2578SOL    HW2 7743   4.456   1.404   0.853
 2579SOL     OW 7744   4.646   0.503   0.899
 2579SOL    HW1 7745   4.621   0.494   0.803
 2579SOL    HW2 7746   4.694   0.421   0.930
 2580SOL     OW 7747   4.263   0.064   0.512
 2580SOL    HW1 7748   4.182   0.065   0.570
 2580SOL    HW2 7749   4.266   0.147   0.457
 2581SOL     OW 7750   4.021   0.035   0.171
 2581SOL    HW1 7751   4.070   0.119   0.150
 2581SOL    HW2 7752   4.083  -0.030   0.216
 2582SOL     OW 7753   4.183   1.152   0.741
 2582SOL    HW1 7754   4.112   1.125   0.806
 2582SOL    HW2 7755   4.157   1.124   0.648
 2583SOL     OW 7756   3.802   0.556   1.386
 2583SOL    HW1 7757   3.894   0.555   1.345
 2583SOL    HW2 7758   3.796   0.630   1.453
 2584SOL     OW 7759   4.285   0.222   1.147
 2584SOL    HW1 7760   4.323   0.138   1.184
 2584SOL    HW2 7761   4.197   0.241   1.191
 2585SOL     OW 7762   4.212   1.385   0.174
 2585SOL    HW1 7763   4.125   1.370   0.221
 2585SOL    HW2 7764   4.195   1.411   0.079
 2586SOL     OW 7765   4.251   0.256   0.328
 2586SOL    HW1 7766   4.278   0.197   0.253
 2586SOL    HW2 7767   4.251   0.351   0.297
 2587SOL     OW 7768   4.639   0.089   1.402
 2587SOL    HW1 7769   4.664   0.069   1.307
 2587SOL    HW2 7770   4.711   0.145   1.444
 2588SOL     OW 7771   4.134   0.813   1.251
 2588SOL    HW1 7772   4.220   0.825   1.301
 2588SOL    HW2 7773   4.092   0.726   1.278
 2589SOL     OW 7774   3.788   1.564   1.331
 2589SOL    HW1 7775   3.742   1.646   1.297
 2589SOL    HW2 7776   3.886   1.583   1.340
 2590SOL     OW 7777   4.091   1.100   0.501
 2590SOL    HW1 7778   4.084   1.183   0.445
 2590SOL    HW2 7779   4.095   1.020   0.441
 2591SOL     OW 7780   4.290   0.537   0.865
 2591SOL    HW1 7781   4.302   0.603   0.791
 2591SOL    HW2 7782   4.336   0.571   0.948
 2592SOL     OW 7783   4.078   1.510   1.329
 2592SOL    HW1 7784   4.057   1.466   1.242
 2592SOL    HW2 7785   4.175   1.536   1.332
 2593SOL     OW 7786   4.126   0.751   1.598
 2593SOL    HW1 7787   4.194   0.806   1.551
 2593SOL    HW2 7788   4.166   0.663   1.625
 2594SOL     OW 7789   4.228   0.050   1.740
 2594SOL    HW1 7790   4.186  -0.007   1.670
 2594SOL    HW2 7791   4.162   0.119   1.772
 2595SOL     OW 7792   4.297   0.870   1.029
 2595SOL    HW1 7793   4.341   0.959   1.020
 2595SOL    HW2 7794   4.234   0.870   1.106
 2596SOL     OW 7795   4.031   0.213   1.231
 2596SOL    HW1 7796   4.008   0.250   1.321
 2596SOL    HW2 7797   4.001   0.118   1.225
 2597SOL     OW 7798   3.761   1.310   1.282
 2597SOL    HW1 7799   3.814   1.261   1.350
 2597SOL    HW2 7800   3.783   1.408   1.287
 2598SOL     OW 7801   4.456   0.634   1.064
 2598SOL    HW1 7802   4.515   0.608   0.988
 2598SOL    HW2 7803   4.428   0.730   1.053
 2599SOL     OW 7804   4.031   0.063   0.618
 2599SOL    HW1 7805   4.020   0.157   0.651
 2599SOL    HW2 7806   4.026   0.000   0.695
 2600SOL     OW 7807   4.074   0.898   1.804
 2600SOL    HW1 7808   4.150   0.942   1.852
 2600SOL    HW2 7809   4.109   0.851   1.722
 2601SOL     OW 7810   4.792   1.333   0.849
 2601SOL    HW1 7811   4.799   1.249   0.794
 2601SOL    HW2 7812   4.854   1.402   0.813
 2602SOL     OW 7813   4.043   0.810   0.949
 2602SOL    HW1 7814   4.136   0.846   0.954
 2602SOL    HW2 7815   4.037   0.725   1.001
 2603SOL     OW 7816   4.063   0.509   1.006
 2603SOL    HW1 7817   4.011   0.426   0.989
 2603SOL    HW2 7818   4.140   0.514   0.942
 2604SOL     OW 7819   3.732   1.326   0.200
 2604SOL    HW1 7820   3.639   1.347   0.169
 2604SOL    HW2 7821   3.742   1.227   0.213
 2605SOL     OW 7822   3.812   1.801   0.927
 2605SOL    HW1 7823   3.770   1.715   0.900
 2605SOL    HW2 7824   3.906   1.804   0.893
 2606SOL     OW 7825   4.228   1.568   0.910
 2606SOL    HW1 7826   4.294   1.642   0.919
 2606SOL    HW2 7827   4.272   1.489   0.868
 2607SOL     OW 7828   3.764   0.544   1.114
 2607SOL    HW1 7829   3.849   0.511   1.073
 2607SOL    HW2 7830   3.777   0.559   1.212
 2608SOL     OW 7831   3.913   0.520   1.722
 2608SOL    HW1 7832   3.972   0.480   1.652
 2608SOL    HW2 7833   3.855   0.591   1.681
 2609SOL     OW 7834   3.976   1.564   1.744
 2609SOL    HW1 7835   3.946   1.621   1.820
 2609SOL    HW2 7836   3.969   1.467   1.770
 2610SOL     OW 7837   4.395   0.464   1.269
 2610SOL    HW1 7838   4.361   0.375   1.239
 2610SOL    HW2 7839   4.421   0.518   1.189
 2611SOL     OW 7840   4.197   0.500   0.191
 2611SOL    HW1 7841   4.258   0.580   0.195
 2611SOL    HW2 7842   4.102   0.531   0.198
 2612SOL     OW 7843   3.883   1.137   1.466
 2612SOL    HW1 7844   3.905   1.076   1.542
 2612SOL    HW2 7845   3.893   1.088   1.380
 2613SOL     OW 7846   3.807   1.258   1.022
 2613SOL    HW1 7847   3.802   1.257   1.122
 2613SOL    HW2 7848   3.724   1.217   0.984
 2614SOL     OW 7849   4.412   1.662   1.716
 2614SOL    HW1 7850   4.356   1.743   1.725
 2614SOL    HW2 7851   4.464   1.666   1.630
 2615SOL     OW 7852   3.854   1.794   1.851
 2615SOL    HW1 7853   3.813   1.720   1.904
 2615SOL    HW2 7854   3.918   1.845   1.909
 2616SOL     OW 7855   4.396   1.616   0.154
 2616SOL    HW1 7856   4.405   1.626   0.055
 2616SOL    HW2 7857   4.356   1.527   0.175
 2617SOL     OW 7858   3.987   0.326   0.720
 2617SOL    HW1 7859   3.908   0.377   0.686
 2617SOL    HW2 7860   3.978   0.311   0.818
 2618SOL     OW 7861   4.546   1.002   1.372
 2618SOL    HW1 7862   4.586   1.001   1.280
 2618SOL    HW2 7863   4.556   1.094   1.412
 2619SOL     OW 7864   4.096   1.288   1.490
 2619SOL    HW1 7865   4.083   1.381   1.456
 2619SOL    HW2 7866   4.012   1.236   1.477
 2620SOL     OW 7867   4.314   1.487   0.491
 2620SOL    HW1 7868   4.356   1.429   0.421
 2620SOL    HW2 7869   4.270   1.566   0.447
 2621SOL     OW 7870   3.979   1.348   0.290
 2621SOL    HW1 7871   3.883   1.349   0.263
 2621SOL    HW2 7872   3.991   1.401   0.374
 2622SOL     OW 7873   3.829   1.013   1.726
 2622SOL    HW1 7874   3.752   0.980   1.780
 2622SOL    HW2 7875   3.914   0.983   1.768
 2623SOL     OW 7876   4.396   0.203   1.489
 2623SOL    HW1 7877   4.486   0.187   1.449
 2623SOL    HW2 7878   4.404   0.208   1.588
 2624SOL     OW 7879   3.799   0.345   0.033
 2624SOL    HW1 7880   3.707   0.317   0.004
 2624SOL    HW2 7881   3.830   0.422  -0.023
 2625SOL     OW 7882   3.796   0.166   0.318
 2625SOL    HW1 7883   3.779   0.249   0.264
 2625SOL    HW2 7884   3.886   0.129   0.296
 2626SOL     OW 7885   4.337   0.842   1.431
 2626SOL    HW1 7886   4.393   0.923   1.414
 2626SOL    HW2 7887   4.396   0.762   1.434
 2627SOL     OW 7888   4.440   0.565   1.708
 2627SOL    HW1 7889   4.459   0.630   1.782
 2627SOL    HW2 7890   4.500   0.485   1.717
 2628SOL     OW 7891   4.114   1.741   1.560
 2628SOL    HW1 7892   4.023   1.782   1.558
 2628SOL    HW2 7893   4.107   1.647   1.592
 2629SOL     OW 7894   4.318   0.745   0.652
 2629SOL    HW1 7895   4.368   0.830   0.633
 2629SOL    HW2 7896   4.230   0.747   0.604
 2630SOL     OW 7897   4.385   1.790   0.953
 2630SOL    HW1 7898   4.339   1.878   0.940
 2630SOL    HW2 7899   4.484   1.802   0.946
 2631SOL     OW 7900   3.945   1.314   1.844
 2631SOL    HW1 7901   3.880   1.241   1.823
 2631SOL    HW2 7902   3.949   1.328   1.942
 2632SOL     OW 7903   3.803   1.240   0.653
 2632SOL    HW1 7904   3.802   1.193   0.741
 2632SOL    HW2 7905   3.885   1.212   0.602
 2633SOL     OW 7906   4.396   1.391   1.624
 2633SOL    HW1 7907   4.318   1.341   1.662
 2633SOL    HW2 7908   4.393   1.486   1.655
 2634SOL     OW 7909   4.152   0.424   0.520
 2634SOL    HW1 7910   4.182   0.352   0.458
 2634SOL    HW2 7911   4.113   0.384   0.603
 2635SOL     OW 7912   4.041   0.547   1.280
 2635SOL    HW1 7913   4.079   0.488   1.352
 2635SOL    HW2 7914   4.081   0.521   1.192
 2636SOL     OW 7915   4.536   1.586   0.687
 2636SOL    HW1 7916   4.568   1.596   0.593
 2636SOL    HW2 7917   4.457   1.524   0.689
 2637SOL     OW 7918   4.725   0.034   1.154
 2637SOL    HW1 7919   4.662  -0.038   1.123
 2637SOL    HW2 7920   4.818  -0.002   1.154
 2638SOL     OW 7921   4.342   1.567   1.284
 2638SOL    HW1 7922   4.337   1.649   1.341
 2638SOL    HW2 7923   4.431   1.564   1.239
 2639SOL     OW 7924   3.763   1.077   0.300
 2639SOL    HW1 7925   3.862   1.066   0.291
 2639SOL    HW2 7926   3.723   0.991   0.332
 2640SOL     OW 7927   3.954   0.628   1.975
 2640SOL    HW1 7928   3.861   0.626   2.012
 2640SOL    HW2 7929   3.955   0.589   1.883
 2641SOL     OW 7930   3.949   0.275   2.858
 2641SOL    HW1 7931   3.984   0.258   2.950
 2641SOL    HW2 7932   3.861   0.230   2.846
 2642SOL     OW 7933   3.743   0.368   2.509
 2642SOL    HW1 7934   3.661   0.411   2.548
 2642SOL    HW2 7935   3.715   0.295   2.446
 2643SOL     OW 7936   4.293   1.275   3.027
 2643SOL    HW1 7937   4.200   1.268   2.990
 2643SOL    HW2 7938   4.304   1.364   3.071
 2644SOL     OW 7939   4.574   0.798   3.685
 2644SOL    HW1 7940   4.570   0.874   3.750
 2644SOL    HW2 7941   4.596   0.834   3.594
 2645SOL     OW 7942   4.409   1.012   2.527
 2645SOL    HW1 7943   4.478   0.996   2.597
 2645SOL    HW2 7944   4.336   1.069   2.565
 2646SOL     OW 7945   4.410   1.161   3.665
 2646SOL    HW1 7946   4.470   1.240   3.679
 2646SOL    HW2 7947   4.324   1.192   3.624
 2647SOL     OW 7948   4.059   1.435   2.923
 2647SOL    HW1 7949   3.981   1.404   2.870
 2647SOL    HW2 7950   4.117   1.493   2.866
 2648SOL     OW 7951   4.162   0.392   3.361
 2648SOL    HW1 7952   4.244   0.336   3.370
 2648SOL    HW2 7953   4.081   0.334   3.365
 2649SOL     OW 7954   3.955   1.713   2.345
 2649SOL    HW1 7955   3.989   1.790   2.399
 2649SOL    HW2 7956   3.999   1.713   2.255
 2650SOL     OW 7957   3.954   1.434   2.400
 2650SOL    HW1 7958   3.928   1.530   2.400
 2650SOL    HW2 7959   3.883   1.380   2.445
 2651SOL     OW 7960   3.964   1.091   2.748
 2651SOL    HW1 7961   3.978   1.007   2.800
 2651SOL    HW2 7962   3.909   1.155   2.803
 2652SOL     OW 7963   4.344   1.786   3.301
 2652SOL    HW1 7964   4.252   1.769   3.336
 2652SOL    HW2 7965   4.372   1.878   3.327
 2653SOL     OW 7966   4.330   0.964   1.985
 2653SOL    HW1 7967   4.337   1.048   1.931
 2653SOL    HW2 7968   4.376   0.977   2.073
 2654SOL     OW 7969   3.846   0.643   2.425
 2654SOL    HW1 7970   3.801   0.555   2.442
 2654SOL    HW2 7971   3.845   0.697   2.509
 2655SOL     OW 7972   3.751   1.596   1.979
 2655SOL    HW1 7973   3.732   1.500   2.000
 2655SOL    HW2 7974   3.718   1.654   2.054
 2656SOL     OW 7975   3.837   0.737   3.459
 2656SOL    HW1 7976   3.925   0.724   3.504
 2656SOL    HW2 7977   3.824   0.834   3.437
 2657SOL     OW 7978   4.337   1.365   2.588
 2657SOL    HW1 7979   4.288   1.278   2.597
 2657SOL    HW2 7980   4.314   1.408   2.501
 2658SOL     OW 7981   4.533   0.004   2.364
 2658SOL    HW1 7982   4.573   0.095   2.355
 2658SOL    HW2 7983   4.433   0.012   2.370
 2659SOL     OW 7984   3.921   0.976   3.126
 2659SOL    HW1 7985   4.010   0.931   3.112
 2659SOL    HW2 7986   3.848   0.911   3.107
 2660SOL     OW 7987   4.041   0.251   3.663
 2660SOL    HW1 7988   4.112   0.322   3.669
 2660SOL    HW2 7989   3.953   0.290   3.691
 2661SOL     OW 7990   4.322   0.729   2.132
 2661SOL    HW1 7991   4.346   0.798   2.064
 2661SOL    HW2 7992   4.244   0.762   2.186
 2662SOL     OW 7993   3.800   0.811   2.651
 2662SOL    HW1 7994   3.899   0.799   2.660
 2662SOL    HW2 7995   3.776   0.906   2.672
 2663SOL     OW 7996   3.854   1.821   3.433
 2663SOL    HW1 7997   3.844   1.806   3.532
 2663SOL    HW2 7998   3.768   1.857   3.397
 2664SOL     OW 7999   4.274   0.196   2.747
 2664SOL    HW1 8000   4.269   0.191   2.847
 2664SOL    HW2 8001   4.276   0.292   2.718
 2665SOL     OW 8002   4.075   1.801   2.715
 2665SOL    HW1 8003   4.125   1.715   2.721
 2665SOL    HW2 8004   4.140   1.878   2.712
 2666SOL     OW 8005   4.045   0.943   2.104
 2666SOL    HW1 8006   4.127   0.982   2.062
 2666SOL    HW2 8007   4.018   0.861   2.055
 2667SOL     OW 8008   4.185   1.266   3.589
 2667SOL    HW1 8009   4.135   1.267   3.503
 2667SOL    HW2 8010   4.122   1.248   3.665
 2668SOL     OW 8011   3.926   0.285   3.360
 2668SOL    HW1 8012   3.846   0.345   3.347
 2668SOL    HW2 8013   3.916   0.236   3.446
 2669SOL     OW 8014   4.188   1.743   2.185
 2669SOL    HW1 8015   4.221   1.782   2.271
 2669SOL    HW2 8016   4.264   1.736   2.120
 2670SOL     OW 8017   3.973   1.785   3.103
 2670SOL    HW1 8018   4.030   1.720   3.153
 2670SOL    HW2 8019   3.957   1.752   3.010
 2671SOL     OW 8020   4.106   0.700   2.342
 2671SOL    HW1 8021   4.151   0.610   2.339
 2671SOL    HW2 8022   4.012   0.689   2.375
 2672SOL     OW 8023   4.338   0.122   1.979
 2672SOL    HW1 8024   4.436   0.100   1.986
 2672SOL    HW2 8025   4.307   0.105   1.886
 2673SOL     OW 8026   4.527   1.402   2.786
 2673SOL    HW1 8027   4.617   1.416   2.744
 2673SOL    HW2 8028   4.456   1.404   2.715
 2674SOL     OW 8029   4.646   0.503   2.761
 2674SOL    HW1 8030   4.621   0.494   2.665
 2674SOL    HW2 8031   4.694   0.421   2.792
 2675SOL     OW 8032   4.263   0.064   2.374
 2675SOL    HW1 8033   4.182   0.065   2.432
 2675SOL    HW2 8034   4.266   0.147   2.319
 2676SOL     OW 8035   4.021   0.035   2.033
 2676SOL    HW1 8036   4.070   0.119   2.012
 2676SOL    HW2 8037   4.083  -0.030   2.078
 2677SOL     OW 8038   4.183   1.152   2.603
 2677SOL    HW1 8039   4.112   1.125   2.668
 2677SOL    HW2 8040   4.157   1.124   2.510
 2678SOL     OW 8041   3.802   0.556   3.248
 2678SOL    HW1 8042   3.894   0.555   3.207
 2678SOL    HW2 8043   3.796   0.630   3.315
 2679SOL     OW 8044   4.285   0.222   3.009
 2679SOL    HW1 8045   4.323   0.138   3.046
 2679SOL    HW2 8046   4.197   0.241   3.053
 2680SOL     OW 8047   4.212   1.385   2.036
 2680SOL    HW1 8048   4.125   1.370   2.083
 2680SOL    HW2 8049   4.195   1.411   1.941
 2681SOL     OW 8050   4.251   0.256   2.190
 2681SOL    HW1 8051   4.278   0.197   2.115
 2681SOL    HW2 8052   4.251   0.351   2.159
 2682SOL     OW 8053   4.639   0.089   3.264
 2682SOL    HW1 8054   4.664   0.069   3.169
 2682SOL    HW2 8055   4.711   0.145   3.306
 2683SOL     OW 8056   4.134   0.813   3.113
 2683SOL    HW1 8057   4.220   0.825   3.163
 2683SOL    HW2 8058   4.092   0.726   3.140
 2684SOL     OW 8059   3.788   1.564   3.193
 2684SOL    HW1 8060   3.742   1.646   3.159
 2684SOL    HW2 8061   3.886   1.583   3.202
 2685SOL     OW 8062   4.091   1.100   2.363
 2685SOL    HW1 8063   4.084   1.183   2.307
 2685SOL    HW2 8064   4.095   1.020   2.303
 2686SOL     OW 8065   4.290   0.537   2.727
 2686SOL    HW1 8066   4.302   0.603   2.653
 2686SOL    HW2 8067   4.336   0.571   2.810
 2687SOL     OW 8068   4.078   1.510   3.191
 2687SOL    HW1 8069   4.057   1.466   3.104
 2687SOL    HW2 8070   4.175   1.536   3.194
 2688SOL     OW 8071   4.126   0.751   3.460
 2688SOL    HW1 8072   4.194   0.806   3.413
 2688SOL    HW2 8073   4.166   0.663   3.487
 2689SOL     OW 8074   4.228   0.050   3.602
 2689SOL    HW1 8075   4.186  -0.007   3.532
 2689SOL    HW2 8076   4.162   0.119   3.634
 2690SOL     OW 8077   4.297   0.870   2.891
 2690SOL    HW1 8078   4.341   0.959   2.882
 2690SOL    HW2 8079   4.234   0.870   2.968
 2691SOL     OW 8080   4.031   0.213   3.093
 2691SOL    HW1 8081   4.008   0.250   3.183
 2691SOL    HW2 8082   4.001   0.118   3.087
 2692SOL     OW 8083   3.761   1.310   3.144
 2692SOL    HW1 8084   3.814   1.261   3.212
 2692SOL    HW2 8085   3.783   1.408   3.149
 2693SOL     OW 8086   4.456   0.634   2.926
 2693SOL    HW1 8087   4.515   0.608   2.850
 2693SOL    HW2 8088   4.428   0.730   2.915
 2694SOL     OW 8089   4.031   0.063   2.480
 2694SOL    HW1 8090   4.020   0.157   2.513
 2694SOL    HW2 8091   4.026   0.000   2.557
 2695SOL     OW 8092   4.074   0.898   3.666
 2695SOL    HW1 8093   4.150   0.942   3.714
 2695SOL    HW2 8094   4.109   0.851   3.584
 2696SOL     OW 8095   4.792   1.333   2.711
 2696SOL    HW1 8096   4.799   1.249   2.656
 2696SOL    HW2 8097   4.854   1.402   2.675
 2697SOL     OW 8098   4.043   0.810   2.811
 2697SOL    HW1 8099   4.136   0.846   2.816
 2697SOL    HW2 8100   4.037   0.725   2.863
 2698SOL     OW 8101   4.063   0.509   2.868
 2698SOL    HW1 8102   4.011   0.426   2.851
 2698SOL    HW2 8103   4.140   0.514   2.804
 2699SOL     OW 8104   3.732   1.326   2.062
 2699SOL    HW1 8105   3.639   1.347   2.031
 2699SOL    HW2 8106   3.742   1.227   2.075
 2700SOL     OW 8107   3.812   1.801   2.789
 2700SOL    HW1 8108   3.770   1.715   2.762
 2700SOL    HW2 8109   3.906   1.804   2.755
 2701SOL     OW 8110   4.228   1.568   2.772
 2701SOL    HW1 8111   4.294   1.642   2.781
 2701SOL    HW2 8112   4.272   1.489   2.730
 2702SOL     OW 8113   3.764   0.544   2.976
 2702SOL    HW1 8114   3.849   0.511   2.935
 2702SOL    HW2 8115   3.777   0.559   3.074
 2703SOL     OW 8116   3.913   0.520   3.584
 2703SOL    HW1 8117   3.972   0.480   3.514
 2703SOL    HW2 8118   3.855   0.591   3.543
 2704SOL     OW 8119   4.539   0.572   2.187
 2704SOL    HW1 8120   4.546   0.483   2.141
 2704SOL    HW2 8121   4.445   0.606   2.179
 2705SOL     OW 8122   3.976   1.564   3.606
 2705SOL    HW1 8123   3.946   1.621   3.682
 2705SOL    HW2 8124   3.969   1.467   3.632
 2706SOL     OW 8125   4.395   0.464   3.131
 2706SOL    HW1 8126   4.361   0.375   3.101
 2706SOL    HW2 8127   4.421   0.518   3.051
 2707SOL     OW 8128   4.197   0.500   2.053
 2707SOL    HW1 8129   4.258   0.580   2.057
 2707SOL    HW2 8130   4.102   0.531   2.060
 2708SOL     OW 8131   3.883   1.137   3.328
 2708SOL    HW1 8132   3.905   1.076   3.404
 2708SOL    HW2 8133   3.893   1.088   3.242
 2709SOL     OW 8134   3.807   1.258   2.884
 2709SOL    HW1 8135   3.802   1.257   2.984
 2709SOL    HW2 8136   3.724   1.217   2.846
 2710SOL     OW 8137   4.412   1.662   3.578
 2710SOL    HW1 8138   4.356   1.743   3.587
 2710SOL    HW2 8139   4.464   1.666   3.492
 2711SOL     OW 8140   3.854   1.794   3.713
 2711SOL    HW1 8141   3.813   1.720   3.766
 2711SOL    HW2 8142   3.918   1.845   3.771
 2712SOL     OW 8143   4.396   1.616   2.016
 2712SOL    HW1 8144   4.405   1.626   1.917
 2712SOL    HW2 8145   4.356   1.527   2.037
 2713SOL     OW 8146   3.987   0.326   2.582
 2713SOL    HW1 8147   3.908   0.377   2.548
 2713SOL    HW2 8148   3.978   0.311   2.680
 2714SOL     OW 8149   4.546   1.002   3.234
 2714SOL    HW1 8150   4.586   1.001   3.142
 2714SOL    HW2 8151   4.556   1.094   3.274
 2715SOL     OW 8152   4.096   1.288   3.352
 2715SOL    HW1 8153   4.083   1.381   3.318
 2715SOL    HW2 8154   4.012   1.236   3.339
 2716SOL     OW 8155   4.314   1.487   2.353
 2716SOL    HW1 8156   4.356   1.429   2.283
 2716SOL    HW2 8157   4.270   1.566   2.309
 2717SOL     OW 8158   3.979   1.348   2.152
 2717SOL    HW1 8159   3.883   1.349   2.125
 2717SOL    HW2 8160   3.991   1.401   2.236
 2718SOL     OW 8161   3.829   1.013   3.588
 2718SOL    HW1 8162   3.752   0.980   3.642
 2718SOL    HW2 8163   3.914   0.983   3.630
 2719SOL     OW 8164   4.396   0.203   3.351
 2719SOL    HW1 8165   4.486   0.187   3.311
 2719SOL    HW2 8166   4.404   0.208   3.450
 2720SOL     OW 8167   3.799   0.345   1.895
 2720SOL    HW1 8168   3.707   0.317   1.866
 2720SOL    HW2 8169   3.830   0.422   1.839
 2721SOL     OW 8170   3.796   0.166   2.180
 2721SOL    HW1 8171   3.779   0.249   2.126
 2721SOL    HW2 8172   3.886   0.129   2.158
 2722SOL     OW 8173   4.337   0.842   3.293
 2722SOL    HW1 8174   4.393   0.923   3.276
 2722SOL    HW2 8175   4.396   0.762   3.296
 2723SOL     OW 8176   4.440   0.565   3.570
 2723SOL    HW1 8177   4.459   0.630   3.644
 2723SOL    HW2 8178   4.500   0.485   3.579
 2724SOL     OW 8179   4.114   1.741   3.422
 2724SOL    HW1 8180   4.023   1.782   3.420
 2724SOL    HW2 8181   4.107   1.647   3.454
 2725SOL     OW 8182   4.318   0.745   2.514
 2725SOL    HW1 8183   4.368   0.830   2.495
 2725SOL    HW2 8184   4.230   0.747   2.466
 2726SOL     OW 8185   4.385   1.790   2.815
 2726SOL    HW1 8186   4.339   1.878   2.802
 2726SOL    HW2 8187   4.484   1.802   2.808
 2727SOL     OW 8188   3.945   1.314   3.706
 2727SOL    HW1 8189   3.880   1.241   3.685
 2727SOL    HW2 8190   3.949   1.328   3.804
 2728SOL     OW 8191   3.803   1.240   2.515
 2728SOL    HW1 8192   3.802   1.193   2.603
 2728SOL    HW2 8193   3.885   1.212   2.464
 2729SOL     OW 8194   4.396   1.391   3.486
 2729SOL    HW1 8195   4.318   1.341   3.524
 2729SOL    HW2 8196   4.393   1.486   3.517
 2730SOL     OW 8197   4.152   0.424   2.382
 2730SOL    HW1 8198   4.182   0.352   2.320
 2730SOL    HW2 8199   4.113   0.384   2.465
 2731SOL     OW 8200   4.041   0.547   3.142
 2731SOL    HW1 8201   4.079   0.488   3.214
 2731SOL    HW2 8202   4.081   0.521   3.054
 2732SOL     OW 8203   4.536   1.586   2.549
 2732SOL    HW1 8204   4.568   1.596   2.455
 2732SOL    HW2 8205   4.457   1.524   2.551
 2733SOL     OW 8206   4.725   0.034   3.016
 2733SOL    HW1 8207   4.662  -0.038   2.985
 2733SOL    HW2 8208   4.818  -0.002   3.016
 2734SOL     OW 8209   4.342   1.567   3.146
 2734SOL    HW1 8210   4.337   1.649   3.203
 2734SOL    HW2 8211   4.431   1.564   3.101
 2735SOL     OW 8212   3.763   1.077   2.162
 2735SOL    HW1 8213   3.862   1.066   2.153
 2735SOL    HW2 8214   3.723   0.991   2.194
 2736SOL     OW 8215   3.954   0.628   3.837
 2736SOL    HW1 8216   3.861   0.626   3.874
 2736SOL    HW2 8217   3.955   0.589   3.745
 2737SOL     OW 8218   3.949   0.275   4.720
 2737SOL    HW1 8219   3.984   0.258   4.812
 2737SOL    HW2 8220   3.861   0.230   4.708
 2738SOL     OW 8221   3.743   0.368   4.371
 2738SOL    HW1 8222   3.661   0.411   4.410
 2738SOL    HW2 8223   3.715   0.295   4.308
 2739SOL     OW 8224   4.409   1.012   4.389
 2739SOL    HW1 8225   4.478   0.996   4.459
 2739SOL    HW2 8226   4.336   1.069   4.427
 2740SOL     OW 8227   3.955   1.713   4.207
 2740SOL    HW1 8228   3.989   1.790   4.261
 2740SOL    HW2 8229   3.999   1.713   4.117
 2741SOL     OW 8230   3.954   1.434   4.262
 2741SOL    HW1 8231   3.928   1.530   4.262
 2741SOL    HW2 8232   3.883   1.380   4.307
 2742SOL     OW 8233   3.964   1.091   4.610
 2742SOL    HW1 8234   3.978   1.007   4.662
 2742SOL    HW2 8235   3.909   1.155   4.665
 2743SOL     OW 8236   4.330   0.964   3.847
 2743SOL    HW1 8237   4.337   1.048   3.793
 2743SOL    HW2 8238   4.376   0.977   3.935
 2744SOL     OW 8239   3.846   0.643   4.287
 2744SOL    HW1 8240   3.801   0.555   4.304
 2744SOL    HW2 8241   3.845   0.697   4.371
 2745SOL     OW 8242   3.751   1.596   3.841
 2745SOL    HW1 8243   3.732   1.500   3.862
 2745SOL    HW2 8244   3.718   1.654   3.916
 2746SOL     OW 8245   4.337   1.365   4.450
 2746SOL    HW1 8246   4.288   1.278   4.459
 2746SOL    HW2 8247   4.314   1.408   4.363
 2747SOL     OW 8248   4.533   0.004   4.226
 2747SOL    HW1 8249   4.573   0.095   4.217
 2747SOL    HW2 8250   4.433   0.012   4.232
 2748SOL     OW 8251   4.322   0.729   3.994
 2748SOL    HW1 8252   4.346   0.798   3.926
 2748SOL    HW2 8253   4.244   0.762   4.048
 2749SOL     OW 8254   3.800   0.811   4.513
 2749SOL    HW1 8255   3.899   0.799   4.522
 2749SOL    HW2 8256   3.776   0.906   4.534
 2750SOL     OW 8257   4.075   1.801   4.577
 2750SOL    HW1 8258   4.125   1.715   4.583
 2750SOL    HW2 8259   4.140   1.878   4.574
 2751SOL     OW 8260   4.045   0.943   3.966
 2751SOL    HW1 8261   4.127   0.982   3.924
 2751SOL    HW2 8262   4.018   0.861   3.917
 2752SOL     OW 8263   4.188   1.743   4.047
 2752SOL    HW1 8264   4.221   1.782   4.133
 2752SOL    HW2 8265   4.264   1.736   3.982
 2753SOL     OW 8266   4.106   0.700   4.204
 2753SOL    HW1 8267   4.151   0.610   4.201
 2753SOL    HW2 8268   4.012   0.689   4.237
 2754SOL     OW 8269   4.338   0.122   3.841
 2754SOL    HW1 8270   4.436   0.100   3.848
 2754SOL    HW2 8271   4.307   0.105   3.748
 2755SOL     OW 8272   4.263   0.064   4.236
 2755SOL    HW1 8273   4.182   0.065   4.294
 2755SOL    HW2 8274   4.266   0.147   4.181
 2756SOL     OW 8275   4.021   0.035   3.895
 2756SOL    HW1 8276   4.070   0.119   3.874
 2756SOL    HW2 8277   4.083  -0.030   3.940
 2757SOL     OW 8278   4.183   1.152   4.465
 2757SOL    HW1 8279   4.112   1.125   4.530
 2757SOL    HW2 8280   4.157   1.124   4.372
 2758SOL     OW 8281   4.212   1.385   3.898
 2758SOL    HW1 8282   4.125   1.370   3.945
 2758SOL    HW2 8283   4.195   1.411   3.803
 2759SOL     OW 8284   4.251   0.256   4.052
 2759SOL    HW1 8285   4.278   0.197   3.977
 2759SOL    HW2 8286   4.251   0.351   4.021
 2760SOL     OW 8287   4.091   1.100   4.225
 2760SOL    HW1 8288   4.084   1.183   4.169
 2760SOL    HW2 8289   4.095   1.020   4.165
 2761SOL     OW 8290   4.031   0.063   4.342
 2761SOL    HW1 8291   4.020   0.157   4.375
 2761SOL    HW2 8292   4.026   0.000   4.419
 2762SOL     OW 8293   4.792   1.333   4.573
 2762SOL    HW1 8294   4.799   1.249   4.518
 2762SOL    HW2 8295   4.854   1.402   4.537
 2763SOL     OW 8296   3.732   1.326   3.924
 2763SOL    HW1 8297   3.639   1.347   3.893
 2763SOL    HW2 8298   3.742   1.227   3.937
 2764SOL     OW 8299   4.539   0.572   4.049
 2764SOL    HW1 8300   4.546   0.483   4.003
 2764SOL    HW2 8301   4.445   0.606   4.041
 2765SOL     OW 8302   4.197   0.500   3.915
 2765SOL    HW1 8303   4.258   0.580   3.919
 2765SOL    HW2 8304   4.102   0.531   3.922
 2766SOL     OW 8305   4.396   1.616   3.878
 2766SOL    HW1 8306   4.405   1.626   3.779
 2766SOL    HW2 8307   4.356   1.527   3.899
 2767SOL     OW 8308   3.987   0.326   4.444
 2767SOL    HW1 8309   3.908   0.377   4.410
 2767SOL    HW2 8310   3.978   0.311   4.542
 2768SOL     OW 8311   4.314   1.487   4.215
 2768SOL    HW1 8312   4.356   1.429   4.145
 2768SOL    HW2 8313   4.270   1.566   4.171
 2769SOL     OW 8314   3.979   1.348   4.014
 2769SOL    HW1 8315   3.883   1.349   3.987
 2769SOL    HW2 8316   3.991   1.401   4.098
 2770SOL     OW 8317   3.799   0.345   3.757
 2770SOL    HW1 8318   3.707   0.317   3.728
 2770SOL    HW2 8319   3.830   0.422   3.701
 2771SOL     OW 8320   3.796   0.166   4.042
 2771SOL    HW1 8321   3.779   0.249   3.988
 2771SOL    HW2 8322   3.886   0.129   4.020
 2772SOL     OW 8323   4.318   0.745   4.376
 2772SOL    HW1 8324   4.368   0.830   4.357
 2772SOL    HW2 8325   4.230   0.747   4.328
 2773SOL     OW 8326   4.385   1.790   4.677
 2773SOL    HW1 8327   4.339   1.878   4.664
 2773SOL    HW2 8328   4.484   1.802   4.670
 2774SOL     OW 8329   3.803   1.240   4.377
 2774SOL    HW1 8330   3.802   1.193   4.465
 2774SOL    HW2 8331   3.885   1.212   4.326
 2775SOL     OW 8332   4.152   0.424   4.244
 2775SOL    HW1 8333   4.182   0.352   4.182
 2775SOL    HW2 8334   4.113   0.384   4.327
 2776SOL     OW 8335   4.536   1.586   4.411
 2776SOL    HW1 8336   4.568   1.596   4.317
 2776SOL    HW2 8337   4.457   1.524   4.413
 2777SOL     OW 8338   3.763   1.077   4.024
 2777SOL    HW1 8339   3.862   1.066   4.015
 2777SOL    HW2 8340   3.723   0.991   4.056
 2778SOL     OW 8341   3.954   2.490   0.113
 2778SOL    HW1 8342   3.861   2.488   0.150
 2778SOL    HW2 8343   3.955   2.451   0.021
 2779SOL     OW 8344   3.949   2.137   0.996
 2779SOL    HW1 8345   3.984   2.120   1.088
 2779SOL    HW2 8346   3.861   2.092   0.984
 2780SOL     OW 8347   3.743   2.230   0.647
 2780SOL    HW1 8348   3.661   2.273   0.686
 2780SOL    HW2 8349   3.715   2.157   0.584
 2781SOL     OW 8350   4.293   3.137   1.165
 2781SOL    HW1 8351   4.200   3.130   1.128
 2781SOL    HW2 8352   4.304   3.226   1.209
 2782SOL     OW 8353   4.574   2.660   1.823
 2782SOL    HW1 8354   4.570   2.736   1.888
 2782SOL    HW2 8355   4.596   2.696   1.732
 2783SOL     OW 8356   4.409   2.874   0.665
 2783SOL    HW1 8357   4.478   2.858   0.735
 2783SOL    HW2 8358   4.336   2.931   0.703
 2784SOL     OW 8359   4.410   3.023   1.803
 2784SOL    HW1 8360   4.470   3.102   1.817
 2784SOL    HW2 8361   4.324   3.054   1.762
 2785SOL     OW 8362   4.059   3.297   1.061
 2785SOL    HW1 8363   3.981   3.266   1.008
 2785SOL    HW2 8364   4.117   3.355   1.004
 2786SOL     OW 8365   4.162   2.254   1.499
 2786SOL    HW1 8366   4.244   2.198   1.508
 2786SOL    HW2 8367   4.081   2.196   1.503
 2787SOL     OW 8368   3.955   3.575   0.483
 2787SOL    HW1 8369   3.989   3.652   0.537
 2787SOL    HW2 8370   3.999   3.575   0.393
 2788SOL     OW 8371   3.954   3.296   0.538
 2788SOL    HW1 8372   3.928   3.392   0.538
 2788SOL    HW2 8373   3.883   3.242   0.583
 2789SOL     OW 8374   3.964   2.953   0.886
 2789SOL    HW1 8375   3.978   2.869   0.938
 2789SOL    HW2 8376   3.909   3.017   0.941
 2790SOL     OW 8377   4.344   3.648   1.439
 2790SOL    HW1 8378   4.252   3.631   1.474
 2790SOL    HW2 8379   4.372   3.740   1.465
 2791SOL     OW 8380   4.330   2.826   0.123
 2791SOL    HW1 8381   4.337   2.910   0.069
 2791SOL    HW2 8382   4.376   2.839   0.211
 2792SOL     OW 8383   3.846   2.505   0.563
 2792SOL    HW1 8384   3.801   2.417   0.580
 2792SOL    HW2 8385   3.845   2.559   0.647
 2793SOL     OW 8386   3.751   3.458   0.117
 2793SOL    HW1 8387   3.732   3.362   0.138
 2793SOL    HW2 8388   3.718   3.516   0.192
 2794SOL     OW 8389   3.837   2.599   1.597
 2794SOL    HW1 8390   3.925   2.586   1.642
 2794SOL    HW2 8391   3.824   2.696   1.575
 2795SOL     OW 8392   4.337   3.227   0.726
 2795SOL    HW1 8393   4.288   3.140   0.735
 2795SOL    HW2 8394   4.314   3.270   0.639
 2796SOL     OW 8395   4.533   1.866   0.502
 2796SOL    HW1 8396   4.573   1.957   0.493
 2796SOL    HW2 8397   4.433   1.874   0.508
 2797SOL     OW 8398   3.921   2.838   1.264
 2797SOL    HW1 8399   4.010   2.793   1.250
 2797SOL    HW2 8400   3.848   2.773   1.245
 2798SOL     OW 8401   4.041   2.113   1.801
 2798SOL    HW1 8402   4.112   2.184   1.807
 2798SOL    HW2 8403   3.953   2.152   1.829
 2799SOL     OW 8404   4.322   2.591   0.270
 2799SOL    HW1 8405   4.346   2.660   0.202
 2799SOL    HW2 8406   4.244   2.624   0.324
 2800SOL     OW 8407   3.800   2.673   0.789
 2800SOL    HW1 8408   3.899   2.661   0.798
 2800SOL    HW2 8409   3.776   2.768   0.810
 2801SOL     OW 8410   3.854   3.683   1.571
 2801SOL    HW1 8411   3.844   3.668   1.670
 2801SOL    HW2 8412   3.768   3.719   1.535
 2802SOL     OW 8413   4.274   2.058   0.885
 2802SOL    HW1 8414   4.269   2.053   0.985
 2802SOL    HW2 8415   4.276   2.154   0.856
 2803SOL     OW 8416   4.075   3.663   0.853
 2803SOL    HW1 8417   4.125   3.577   0.859
 2803SOL    HW2 8418   4.140   3.740   0.850
 2804SOL     OW 8419   4.045   2.805   0.242
 2804SOL    HW1 8420   4.127   2.844   0.200
 2804SOL    HW2 8421   4.018   2.723   0.193
 2805SOL     OW 8422   4.185   3.128   1.727
 2805SOL    HW1 8423   4.135   3.129   1.641
 2805SOL    HW2 8424   4.122   3.110   1.803
 2806SOL     OW 8425   3.926   2.147   1.498
 2806SOL    HW1 8426   3.846   2.207   1.485
 2806SOL    HW2 8427   3.916   2.098   1.584
 2807SOL     OW 8428   4.188   3.605   0.323
 2807SOL    HW1 8429   4.221   3.644   0.409
 2807SOL    HW2 8430   4.264   3.598   0.258
 2808SOL     OW 8431   3.973   3.647   1.241
 2808SOL    HW1 8432   4.030   3.582   1.291
 2808SOL    HW2 8433   3.957   3.614   1.148
 2809SOL     OW 8434   4.106   2.562   0.480
 2809SOL    HW1 8435   4.151   2.472   0.477
 2809SOL    HW2 8436   4.012   2.551   0.513
 2810SOL     OW 8437   4.527   3.264   0.924
 2810SOL    HW1 8438   4.617   3.278   0.882
 2810SOL    HW2 8439   4.456   3.266   0.853
 2811SOL     OW 8440   4.646   2.365   0.899
 2811SOL    HW1 8441   4.621   2.356   0.803
 2811SOL    HW2 8442   4.694   2.283   0.930
 2812SOL     OW 8443   4.263   1.926   0.512
 2812SOL    HW1 8444   4.182   1.927   0.570
 2812SOL    HW2 8445   4.266   2.009   0.457
 2813SOL     OW 8446   4.021   1.897   0.171
 2813SOL    HW1 8447   4.070   1.981   0.150
 2813SOL    HW2 8448   4.083   1.832   0.216
 2814SOL     OW 8449   4.183   3.014   0.741
 2814SOL    HW1 8450   4.112   2.987   0.806
 2814SOL    HW2 8451   4.157   2.986   0.648
 2815SOL     OW 8452   3.802   2.418   1.386
 2815SOL    HW1 8453   3.894   2.417   1.345
 2815SOL    HW2 8454   3.796   2.492   1.453
 2816SOL     OW 8455   4.285   2.084   1.147
 2816SOL    HW1 8456   4.323   2.000   1.184
 2816SOL    HW2 8457   4.197   2.103   1.191
 2817SOL     OW 8458   4.212   3.247   0.174
 2817SOL    HW1 8459   4.125   3.232   0.221
 2817SOL    HW2 8460   4.195   3.273   0.079
 2818SOL     OW 8461   4.251   2.118   0.328
 2818SOL    HW1 8462   4.278   2.059   0.253
 2818SOL    HW2 8463   4.251   2.213   0.297
 2819SOL     OW 8464   4.639   1.951   1.402
 2819SOL    HW1 8465   4.664   1.931   1.307
 2819SOL    HW2 8466   4.711   2.007   1.444
 2820SOL     OW 8467   4.134   2.675   1.251
 2820SOL    HW1 8468   4.220   2.687   1.301
 2820SOL    HW2 8469   4.092   2.588   1.278
 2821SOL     OW 8470   3.788   3.426   1.331
 2821SOL    HW1 8471   3.742   3.508   1.297
 2821SOL    HW2 8472   3.886   3.445   1.340
 2822SOL     OW 8473   4.091   2.962   0.501
 2822SOL    HW1 8474   4.084   3.045   0.445
 2822SOL    HW2 8475   4.095   2.882   0.441
 2823SOL     OW 8476   4.290   2.399   0.865
 2823SOL    HW1 8477   4.302   2.465   0.791
 2823SOL    HW2 8478   4.336   2.433   0.948
 2824SOL     OW 8479   4.078   3.372   1.329
 2824SOL    HW1 8480   4.057   3.328   1.242
 2824SOL    HW2 8481   4.175   3.398   1.332
 2825SOL     OW 8482   4.126   2.613   1.598
 2825SOL    HW1 8483   4.194   2.668   1.551
 2825SOL    HW2 8484   4.166   2.525   1.625
 2826SOL     OW 8485   4.228   1.912   1.740
 2826SOL    HW1 8486   4.186   1.855   1.670
 2826SOL    HW2 8487   4.162   1.981   1.772
 2827SOL     OW 8488   4.297   2.732   1.029
 2827SOL    HW1 8489   4.341   2.821   1.020
 2827SOL    HW2 8490   4.234   2.732   1.106
 2828SOL     OW 8491   4.031   2.075   1.231
 2828SOL    HW1 8492   4.008   2.112   1.321
 2828SOL    HW2 8493   4.001   1.980   1.225
 2829SOL     OW 8494   3.761   3.172   1.282
 2829SOL    HW1 8495   3.814   3.123   1.350
 2829SOL    HW2 8496   3.783   3.270   1.287
 2830SOL     OW 8497   4.456   2.496   1.064
 2830SOL    HW1 8498   4.515   2.470   0.988
 2830SOL    HW2 8499   4.428   2.592   1.053
 2831SOL     OW 8500   4.031   1.925   0.618
 2831SOL    HW1 8501   4.020   2.019   0.651
 2831SOL    HW2 8502   4.026   1.862   0.695
 2832SOL     OW 8503   4.074   2.760   1.804
 2832SOL    HW1 8504   4.150   2.804   1.852
 2832SOL    HW2 8505   4.109   2.713   1.722
 2833SOL     OW 8506   4.792   3.195   0.849
 2833SOL    HW1 8507   4.799   3.111   0.794
 2833SOL    HW2 8508   4.854   3.264   0.813
 2834SOL     OW 8509   4.043   2.672   0.949
 2834SOL    HW1 8510   4.136   2.708   0.954
 2834SOL    HW2 8511   4.037   2.587   1.001
 2835SOL     OW 8512   4.063   2.371   1.006
 2835SOL    HW1 8513   4.011   2.288   0.989
 2835SOL    HW2 8514   4.140   2.376   0.942
 2836SOL     OW 8515   3.732   3.188   0.200
 2836SOL    HW1 8516   3.639   3.209   0.169
 2836SOL    HW2 8517   3.742   3.089   0.213
 2837SOL     OW 8518   3.812   3.663   0.927
 2837SOL    HW1 8519   3.770   3.577   0.900
 2837SOL    HW2 8520   3.906   3.666   0.893
 2838SOL     OW 8521   4.228   3.430   0.910
 2838SOL    HW1 8522   4.294   3.504   0.919
 2838SOL    HW2 8523   4.272   3.351   0.868
 2839SOL     OW 8524   3.764   2.406   1.114
 2839SOL    HW1 8525   3.849   2.373   1.073
 2839SOL    HW2 8526   3.777   2.421   1.212
 2840SOL     OW 8527   3.913   2.382   1.722
 2840SOL    HW1 8528   3.972   2.342   1.652
 2840SOL    HW2 8529   3.855   2.453   1.681
 2841SOL     OW 8530   3.976   3.426   1.744
 2841SOL    HW1 8531   3.946   3.483   1.820
 2841SOL    HW2 8532   3.969   3.329   1.770
 2842SOL     OW 8533   4.395   2.326   1.269
 2842SOL    HW1 8534   4.361   2.237   1.239
 2842SOL    HW2 8535   4.421   2.380   1.189
 2843SOL     OW 8536   4.197   2.362   0.191
 2843SOL    HW1 8537   4.258   2.442   0.195
 2843SOL    HW2 8538   4.102   2.393   0.198
 2844SOL     OW 8539   3.883   2.999   1.466
 2844SOL    HW1 8540   3.905   2.938   1.542
 2844SOL    HW2 8541   3.893   2.950   1.380
 2845SOL     OW 8542   3.807   3.120   1.022
 2845SOL    HW1 8543   3.802   3.119   1.122
 2845SOL    HW2 8544   3.724   3.079   0.984
 2846SOL     OW 8545   4.412   3.524   1.716
 2846SOL    HW1 8546   4.356   3.605   1.725
 2846SOL    HW2 8547   4.464   3.528   1.630
 2847SOL     OW 8548   3.854   3.656   1.851
 2847SOL    HW1 8549   3.813   3.582   1.904
 2847SOL    HW2 8550   3.918   3.707   1.909
 2848SOL     OW 8551   4.396   3.478   0.154
 2848SOL    HW1 8552   4.405   3.488   0.055
 2848SOL    HW2 8553   4.356   3.389   0.175
 2849SOL     OW 8554   3.987   2.188   0.720
 2849SOL    HW1 8555   3.908   2.239   0.686
 2849SOL    HW2 8556   3.978   2.173   0.818
 2850SOL     OW 8557   4.546   2.864   1.372
 2850SOL    HW1 8558   4.586   2.863   1.280
 2850SOL    HW2 8559   4.556   2.956   1.412
 2851SOL     OW 8560   4.096   3.150   1.490
 2851SOL    HW1 8561   4.083   3.243   1.456
 2851SOL    HW2 8562   4.012   3.098   1.477
 2852SOL     OW 8563   4.314   3.349   0.491
 2852SOL    HW1 8564   4.356   3.291   0.421
 2852SOL    HW2 8565   4.270   3.428   0.447
 2853SOL     OW 8566   3.979   3.210   0.290
 2853SOL    HW1 8567   3.883   3.211   0.263
 2853SOL    HW2 8568   3.991   3.263   0.374
 2854SOL     OW 8569   3.829   2.875   1.726
 2854SOL    HW1 8570   3.752   2.842   1.780
 2854SOL    HW2 8571   3.914   2.845   1.768
 2855SOL     OW 8572   4.396   2.065   1.489
 2855SOL    HW1 8573   4.486   2.049   1.449
 2855SOL    HW2 8574   4.404   2.070   1.588
 2856SOL     OW 8575   3.799   2.207   0.033
 2856SOL    HW1 8576   3.707   2.179   0.004
 2856SOL    HW2 8577   3.830   2.284  -0.023
 2857SOL     OW 8578   3.796   2.028   0.318
 2857SOL    HW1 8579   3.779   2.111   0.264
 2857SOL    HW2 8580   3.886   1.991   0.296
 2858SOL     OW 8581   4.337   2.704   1.431
 2858SOL    HW1 8582   4.393   2.785   1.414
 2858SOL    HW2 8583   4.396   2.624   1.434
 2859SOL     OW 8584   4.440   2.427   1.708
 2859SOL    HW1 8585   4.459   2.492   1.782
 2859SOL    HW2 8586   4.500   2.347   1.717
 2860SOL     OW 8587   4.114   3.603   1.560
 2860SOL    HW1 8588   4.023   3.644   1.558
 2860SOL    HW2 8589   4.107   3.509   1.592
 2861SOL     OW 8590   4.318   2.607   0.652
 2861SOL    HW1 8591   4.368   2.692   0.633
 2861SOL    HW2 8592   4.230   2.609   0.604
 2862SOL     OW 8593   4.385   3.652   0.953
 2862SOL    HW1 8594   4.339   3.740   0.940
 2862SOL    HW2 8595   4.484   3.664   0.946
 2863SOL     OW 8596   3.945   3.176   1.844
 2863SOL    HW1 8597   3.880   3.103   1.823
 2863SOL    HW2 8598   3.949   3.190   1.942
 2864SOL     OW 8599   3.803   3.102   0.653
 2864SOL    HW1 8600   3.802   3.055   0.741
 2864SOL    HW2 8601   3.885   3.074   0.602
 2865SOL     OW 8602   4.396   3.253   1.624
 2865SOL    HW1 8603   4.318   3.203   1.662
 2865SOL    HW2 8604   4.393   3.348   1.655
 2866SOL     OW 8605   4.152   2.286   0.520
 2866SOL    HW1 8606   4.182   2.214   0.458
 2866SOL    HW2 8607   4.113   2.246   0.603
 2867SOL     OW 8608   4.041   2.409   1.280
 2867SOL    HW1 8609   4.079   2.350   1.352
 2867SOL    HW2 8610   4.081   2.383   1.192
 2868SOL     OW 8611   4.536   3.448   0.687
 2868SOL    HW1 8612   4.568   3.458   0.593
 2868SOL    HW2 8613   4.457   3.386   0.689
 2869SOL     OW 8614   4.342   3.429   1.284
 2869SOL    HW1 8615   4.337   3.511   1.341
 2869SOL    HW2 8616   4.431   3.426   1.239
 2870SOL     OW 8617   3.763   2.939   0.300
 2870SOL    HW1 8618   3.862   2.928   0.291
 2870SOL    HW2 8619   3.723   2.853   0.332
 2871SOL     OW 8620   3.954   2.490   1.975
 2871SOL    HW1 8621   3.861   2.488   2.012
 2871SOL    HW2 8622   3.955   2.451   1.883
 2872SOL     OW 8623   3.949   2.137   2.858
 2872SOL    HW1 8624   3.984   2.120   2.950
 2872SOL    HW2 8625   3.861   2.092   2.846
 2873SOL     OW 8626   3.743   2.230   2.509
 2873SOL    HW1 8627   3.661   2.273   2.548
 2873SOL    HW2 8628   3.715   2.157   2.446
 2874SOL     OW 8629   4.293   3.137   3.027
 2874SOL    HW1 8630   4.200   3.130   2.990
 2874SOL    HW2 8631   4.304   3.226   3.071
 2875SOL     OW 8632   4.574   2.660   3.685
 2875SOL    HW1 8633   4.570   2.736   3.750
 2875SOL    HW2 8634   4.596   2.696   3.594
 2876SOL     OW 8635   4.409   2.874   2.527
 2876SOL    HW1 8636   4.478   2.858   2.597
 2876SOL    HW2 8637   4.336   2.931   2.565
 2877SOL     OW 8638   4.410   3.023   3.665
 2877SOL    HW1 8639   4.470   3.102   3.679
 2877SOL    HW2 8640   4.324   3.054   3.624
 2878SOL     OW 8641   4.059   3.297   2.923
 2878SOL    HW1 8642   3.981   3.266   2.870
 2878SOL    HW2 8643   4.117   3.355   2.866
 2879SOL     OW 8644   4.162   2.254   3.361
 2879SOL    HW1 8645   4.244   2.198   3.370
 2879SOL    HW2 8646   4.081   2.196   3.365
 2880SOL     OW 8647   3.955   3.575   2.345
 2880SOL    HW1 8648   3.989   3.652   2.399
 2880SOL    HW2 8649   3.999   3.575   2.255
 2881SOL     OW 8650   3.954   3.296   2.400
 2881SOL    HW1 8651   3.928   3.392   2.400
 2881SOL    HW2 8652   3.883   3.242   2.445
 2882SOL     OW 8653   3.964   2.953   2.748
 2882SOL    HW1 8654   3.978   2.869   2.800
 2882SOL    HW2 8655   3.909   3.017   2.803
 2883SOL     OW 8656   4.344   3.648   3.301
 2883SOL    HW1 8657   4.252   3.631   3.336
 2883SOL    HW2 8658   4.372   3.740   3.327
 2884SOL     OW 8659   4.330   2.826   1.985
 2884SOL    HW1 8660   4.337   2.910   1.931
 2884SOL    HW2 8661   4.376   2.839   2.073
 2885SOL     OW 8662   3.846   2.505   2.425
 2885SOL    HW1 8663   3.801   2.417   2.442
 2885SOL    HW2 8664   3.845   2.559   2.509
 2886SOL     OW 8665   3.751   3.458   1.979
 2886SOL    HW1 8666   3.732   3.362   2.000
 2886SOL    HW2 8667   3.718   3.516   2.054
 2887SOL     OW 8668   3.837   2.599   3.459
 2887SOL    HW1 8669   3.925   2.586   3.504
 2887SOL    HW2 8670   3.824   2.696   3.437
 2888SOL     OW 8671   4.337   3.227   2.588
 2888SOL    HW1 8672   4.288   3.140   2.597
 2888SOL    HW2 8673   4.314   3.270   2.501
 2889SOL     OW 8674   4.533   1.866   2.364
 2889SOL    HW1 8675   4.573   1.957   2.355
 2889SOL    HW2 8676   4.433   1.874   2.370
 2890SOL     OW 8677   3.921   2.838   3.126
 2890SOL    HW1 8678   4.010   2.793   3.112
 2890SOL    HW2 8679   3.848   2.773   3.107
 2891SOL     OW 8680   4.041   2.113   3.663
 2891SOL    HW1 8681   4.112   2.184   3.669
 2891SOL    HW2 8682   3.953   2.152   3.691
 2892SOL     OW 8683   4.322   2.591   2.132
 2892SOL    HW1 8684   4.346   2.660   2.064
 2892SOL    HW2 8685   4.244   2.624   2.186
 2893SOL     OW 8686   3.800   2.673   2.651
 2893SOL    HW1 8687   3.899   2.661   2.660
 2893SOL    HW2 8688   3.776   2.768   2.672
 2894SOL     OW 8689   3.854   3.683   3.433
 2894SOL    HW1 8690   3.844   3.668   3.532
 2894SOL    HW2 8691   3.768   3.719   3.397
 2895SOL     OW 8692   4.274   2.058   2.747
 2895SOL    HW1 8693   4.269   2.053   2.847
 2895SOL    HW2 8694   4.276   2.154   2.718
 2896SOL     OW 8695   4.075   3.663   2.715
 2896SOL    HW1 8696   4.125   3.577   2.721
 2896SOL    HW2 8697   4.140   3.740   2.712
 2897SOL     OW 8698   4.045   2.805   2.104
 2897SOL    HW1 8699   4.127   2.844   2.062
 2897SOL    HW2 8700   4.018   2.723   2.055
 2898SOL     OW 8701   4.185   3.128   3.589
 2898SOL    HW1 8702   4.135   3.129   3.503
 2898SOL    HW2 8703   4.122   3.110   3.665
 2899SOL     OW 8704   3.926   2.147   3.360
 2899SOL    HW1 8705   3.846   2.207   3.347
 2899SOL    HW2 8706   3.916   2.098   3.446
 2900SOL     OW 8707   4.188   3.605   2.185
 2900SOL    HW1 8708   4.221   3.644   2.271
 2900SOL    HW2 8709   4.264   3.598   2.120
 2901SOL     OW 8710   3.973   3.647   3.103
 2901SOL    HW1 8711   4.030   3.582   3.153
 2901SOL    HW2 8712   3.957   3.614   3.010
 2902SOL     OW 8713   4.106   2.562   2.342
 2902SOL    HW1 8714   4.151   2.472   2.339
 2902SOL    HW2 8715   4.012   2.551   2.375
 2903SOL     OW 8716   4.338   1.984   1.979
 2903SOL    HW1 8717   4.436   1.962   1.986
 2903SOL    HW2 8718   4.307   1.967   1.886
 2904SOL     OW 8719   4.527   3.264   2.786
 2904SOL    HW1 8720   4.617   3.278   2.744
 2904SOL    HW2 8721   4.456   3.266   2.715
 2905SOL     OW 8722   4.646   2.365   2.761
 2905SOL    HW1 8723   4.621   2.356   2.665
 2905SOL    HW2 8724   4.694   2.283   2.792
 2906SOL     OW 8725   4.263   1.926   2.374
 2906SOL    HW1 8726   4.182   1.927   2.432
 2906SOL    HW2 8727   4.266   2.009   2.319
 2907SOL     OW 8728   4.021   1.897   2.033
 2907SOL    HW1 8729   4.070   1.981   2.012
 2907SOL    HW2 8730   4.083   1.832   2.078
 2908SOL     OW 8731   4.183   3.014   2.603
 2908SOL    HW1 8732   4.112   2.987   2.668
 2908SOL    HW2 8733   4.157   2.986   2.510
 2909SOL     OW 8734   3.802   2.418   3.248
 2909SOL    HW1 8735   3.894   2.417   3.207
 2909SOL    HW2 8736   3.796   2.492   3.315
 2910SOL     OW 8737   4.285   2.084   3.009
 2910SOL    HW1 8738   4.323   2.000   3.046
 2910SOL    HW2 8739   4.197   2.103   3.053
 2911SOL     OW 8740   4.212   3.247   2.036
 2911SOL    HW1 8741   4.125   3.232   2.083
 2911SOL    HW2 8742   4.195   3.273   1.941
 2912SOL     OW 8743   4.251   2.118   2.190
 2912SOL    HW1 8744   4.278   2.059   2.115
 2912SOL    HW2 8745   4.251   2.213   2.159
 2913SOL     OW 8746   4.639   1.951   3.264
 2913SOL    HW1 8747   4.664   1.931   3.169
 2913SOL    HW2 8748   4.711   2.007   3.306
 2914SOL     OW 8749   4.134   2.675   3.113
 2914SOL    HW1 8750   4.220   2.687   3.163
 2914SOL    HW2 8751   4.092   2.588   3.140
 2915SOL     OW 8752   3.788   3.426   3.193
 2915SOL    HW1 8753   3.742   3.508   3.159
 2915SOL    HW2 8754   3.886   3.445   3.202
 2916SOL     OW 8755   4.091   2.962   2.363
 2916SOL    HW1 8756   4.084   3.045   2.307
 2916SOL    HW2 8757   4.095   2.882   2.303
 2917SOL     OW 8758   4.290   2.399   2.727
 2917SOL    HW1 8759   4.302   2.465   2.653
 2917SOL    HW2 8760   4.336   2.433   2.810
 2918SOL     OW 8761   4.078   3.372   3.191
 2918SOL    HW1 8762   4.057   3.328   3.104
 2918SOL    HW2 8763   4.175   3.398   3.194
 2919SOL     OW 8764   4.126   2.613   3.460
 2919SOL    HW1 8765   4.194   2.668   3.413
 2919SOL    HW2 8766   4.166   2.525   3.487
 2920SOL     OW 8767   4.228   1.912   3.602
 2920SOL    HW1 8768   4.186   1.855   3.532
 2920SOL    HW2 8769   4.162   1.981   3.634
 2921SOL     OW 8770   4.297   2.732   2.891
 2921SOL    HW1 8771   4.341   2.821   2.882
 2921SOL    HW2 8772   4.234   2.732   2.968
 2922SOL     OW 8773   4.031   2.075   3.093
 2922SOL    HW1 8774   4.008   2.112   3.183
 2922SOL    HW2 8775   4.001   1.980   3.087
 2923SOL     OW 8776   3.761   3.172   3.144
 2923SOL    HW1 8777   3.814   3.123   3.212
 2923SOL    HW2 8778   3.783   3.270   3.149
 2924SOL     OW 8779   4.456   2.496   2.926
 2924SOL    HW1 8780   4.515   2.470   2.850
 2924SOL    HW2 8781   4.428   2.592   2.915
 2925SOL     OW 8782   4.031   1.925   2.480
 2925SOL    HW1 8783   4.020   2.019   2.513
 2925SOL    HW2 8784   4.026   1.862   2.557
 2926SOL     OW 8785   4.074   2.760   3.666
 2926SOL    HW1 8786   4.150   2.804   3.714
 2926SOL    HW2 8787   4.109   2.713   3.584
 2927SOL     OW 8788   4.792   3.195   2.711
 2927SOL    HW1 8789   4.799   3.111   2.656
 2927SOL    HW2 8790   4.854   3.264   2.675
 2928SOL     OW 8791   4.043   2.672   2.811
 2928SOL    HW1 8792   4.136   2.708   2.816
 2928SOL    HW2 8793   4.037   2.587   2.863
 2929SOL     OW 8794   4.063   2.371   2.868
 2929SOL    HW1 8795   4.011   2.288   2.851
 2929SOL    HW2 8796   4.140   2.376   2.804
 2930SOL     OW 8797   3.732   3.188   2.062
 2930SOL    HW1 8798   3.639   3.209   2.031
 2930SOL    HW2 8799   3.742   3.089   2.075
 2931SOL     OW 8800   3.812   3.663   2.789
 2931SOL    HW1 8801   3.770   3.577   2.762
 2931SOL    HW2 8802   3.906   3.666   2.755
 2932SOL     OW 8803   4.228   3.430   2.772
 2932SOL    HW1 8804   4.294   3.504   2.781
 2932SOL    HW2 8805   4.272   3.351   2.730
 2933SOL     OW 8806   3.764   2.406   2.976
 2933SOL    HW1 8807   3.849   2.373   2.935
 2933SOL    HW2 8808   3.777   2.421   3.074
 2934SOL     OW 8809   3.913   2.382   3.584
 2934SOL    HW1 8810   3.972   2.342   3.514
 2934SOL    HW2 8811   3.855   2.453   3.543
 2935SOL     OW 8812   4.539   2.434   2.187
 2935SOL    HW1 8813   4.546   2.345   2.141
 2935SOL    HW2 8814   4.445   2.468   2.179
 2936SOL     OW 8815   3.976   3.426   3.606
 2936SOL    HW1 8816   3.946   3.483   3.682
 2936SOL    HW2 8817   3.969   3.329   3.632
 2937SOL     OW 8818   4.395   2.326   3.131
 2937SOL    HW1 8819   4.361   2.237   3.101
 2937SOL    HW2 8820   4.421   2.380   3.051
 2938SOL     OW 8821   4.197   2.362   2.053
 2938SOL    HW1 8822   4.258   2.442   2.057
 2938SOL    HW2 8823   4.102   2.393   2.060
 2939SOL     OW 8824   3.883   2.999   3.328
 2939SOL    HW1 8825   3.905   2.938   3.404
 2939SOL    HW2 8826   3.893   2.950   3.242
 2940SOL     OW 8827   3.807   3.120   2.884
 2940SOL    HW1 8828   3.802   3.119   2.984
 2940SOL    HW2 8829   3.724   3.079   2.846
 2941SOL     OW 8830   4.412   3.524   3.578
 2941SOL    HW1 8831   4.356   3.605   3.587
 2941SOL    HW2 8832   4.464   3.528   3.492
 2942SOL     OW 8833   3.854   3.656   3.713
 2942SOL    HW1 8834   3.813   3.582   3.766
 2942SOL    HW2 8835   3.918   3.707   3.771
 2943SOL     OW 8836   4.396   3.478   2.016
 2943SOL    HW1 8837   4.405   3.488   1.917
 2943SOL    HW2 8838   4.356   3.389   2.037
 2944SOL     OW 8839   3.987   2.188   2.582
 2944SOL    HW1 8840   3.908   2.239   2.548
 2944SOL    HW2 8841   3.978   2.173   2.680
 2945SOL     OW 8842   4.546   2.864   3.234
 2945SOL    HW1 8843   4.586   2.863   3.142
 2945SOL    HW2 8844   4.556   2.956   3.274
 2946SOL     OW 8845   4.096   3.150   3.352
 2946SOL    HW1 8846   4.083   3.243   3.318
 2946SOL    HW2 8847   4.012   3.098   3.339
 2947SOL     OW 8848   4.314   3.349   2.353
 2947SOL    HW1 8849   4.356   3.291   2.283
 2947SOL    HW2 8850   4.270   3.428   2.309
 2948SOL     OW 8851   3.979   3.210   2.152
 2948SOL    HW1 8852   3.883   3.211   2.125
 2948SOL    HW2 8853   3.991   3.263   2.236
 2949SOL     OW 8854   3.829   2.875   3.588
 2949SOL    HW1 8855   3.752   2.842   3.642
 2949SOL    HW2 8856   3.914   2.845   3.630
 2950SOL     OW 8857   4.396   2.065   3.351
 2950SOL    HW1 8858   4.486   2.049   3.311
 2950SOL    HW2 8859   4.404   2.070   3.450
 2951SOL     OW 8860   3.799   2.207   1.895
 2951SOL    HW1 8861   3.707   2.179   1.866
 2951SOL    HW2 8862   3.830   2.284   1.839
 2952SOL     OW 8863   3.796   2.028   2.180
 2952SOL    HW1 8864   3.779   2.111   2.126
 2952SOL    HW2 8865   3.886   1.991   2.158
 2953SOL     OW 8866   4.337   2.704   3.293
 2953SOL    HW1 8867   4.393   2.785   3.276
 2953SOL    HW2 8868   4.396   2.624   3.296
 2954SOL     OW 8869   4.440   2.427   3.570
 2954SOL    HW1 8870   4.459   2.492   3.644
 2954SOL    HW2 8871   4.500   2.347   3.579
 2955SOL     OW 8872   4.114   3.603   3.422
 2955SOL    HW1 8873   4.023   3.644   3.420
 2955SOL    HW2 8874   4.107   3.509   3.454
 2956SOL     OW 8875   4.318   2.607   2.514
 2956SOL    HW1 8876   4.368   2.692   2.495
 2956SOL    HW2 8877   4.230   2.609   2.466
 2957SOL     OW 8878   4.385   3.652   2.815
 2957SOL    HW1 8879   4.339   3.740   2.802
 2957SOL    HW2 8880   4.484   3.664   2.808
 2958SOL     OW 8881   3.945   3.176   3.706
 2958SOL    HW1 8882   3.880   3.103   3.685
 2958SOL    HW2 8883   3.949   3.190   3.804
 2959SOL     OW 8884   3.803   3.102   2.515
 2959SOL    HW1 8885   3.802   3.055   2.603
 2959SOL    HW2 8886   3.885   3.074   2.464
 2960SOL     OW 8887   4.396   3.253   3.486
 2960SOL    HW1 8888   4.318   3.203   3.524
 2960SOL    HW2 8889   4.393   3.348   3.517
 2961SOL     OW 8890   4.152   2.286   2.382
 2961SOL    HW1 8891   4.182   2.214   2.320
 2961SOL    HW2 8892   4.113   2.246   2.465
 2962SOL     OW 8893   4.041   2.409   3.142
 2962SOL    HW1 8894   4.079   2.350   3.214
 2962SOL    HW2 8895   4.081   2.383   3.054
 2963SOL     OW 8896   4.536   3.448   2.549
 2963SOL    HW1 8897   4.568   3.458   2.455
 2963SOL    HW2 8898   4.457   3.386   2.551
 2964SOL     OW 8899   4.342   3.429   3.146
 2964SOL    HW1 8900   4.337   3.511   3.203
 2964SOL    HW2 8901   4.431   3.426   3.101
 2965SOL     OW 8902   3.763   2.939   2.162
 2965SOL    HW1 8903   3.862   2.928   2.153
 2965SOL    HW2 8904   3.723   2.853   2.194
 2966SOL     OW 8905   3.954   2.490   3.837
 2966SOL    HW1 8906   3.861   2.488   3.874
 2966SOL    HW2 8907   3.955   2.451   3.745
 2967SOL     OW 8908   3.949   2.137   4.720
 2967SOL    HW1 8909   3.984   2.120   4.812
 2967SOL    HW2 8910   3.861   2.092   4.708
 2968SOL     OW 8911   3.743   2.230   4.371
 2968SOL    HW1 8912   3.661   2.273   4.410
 2968SOL    HW2 8913   3.715   2.157   4.308
 2969SOL     OW 8914   4.409   2.874   4.389
 2969SOL    HW1 8915   4.478   2.858   4.459
 2969SOL    HW2 8916   4.336   2.931   4.427
 2970SOL     OW 8917   3.955   3.575   4.207
 2970SOL    HW1 8918   3.989   3.652   4.261
 2970SOL    HW2 8919   3.999   3.575   4.117
 2971SOL     OW 8920   3.954   3.296   4.262
 2971SOL    HW1 8921   3.928   3.392   4.262
 2971SOL    HW2 8922   3.883   3.242   4.307
 2972SOL     OW 8923   3.964   2.953   4.610
 2972SOL    HW1 8924   3.978   2.869   4.662
 2972SOL    HW2 8925   3.909   3.017   4.665
 2973SOL     OW 8926   4.330   2.826   3.847
 2973SOL    HW1 8927   4.337   2.910   3.793
 2973SOL    HW2 8928   4.376   2.839   3.935
 2974SOL     OW 8929   3.846   2.505   4.287
 2974SOL    HW1 8930   3.801   2.417   4.304
 2974SOL    HW2 8931   3.845   2.559   4.371
 2975SOL     OW 8932   3.751   3.458   3.841
 2975SOL    HW1 8933   3.732   3.362   3.862
 2975SOL    HW2 8934   3.718   3.516   3.916
 2976SOL     OW 8935   4.337   3.227   4.450
 2976SOL    HW1 8936   4.288   3.140   4.459
 2976SOL    HW2 8937   4.314   3.270   4.363
 2977SOL     OW 8938   4.533   1.866   4.226
 2977SOL    HW1 8939   4.573   1.957   4.217
 2977SOL    HW2 8940   4.433   1.874   4.232
 2978SOL     OW 8941   4.322   2.591   3.994
 2978SOL    HW1 8942   4.346   2.660   3.926
 2978SOL    HW2 8943   4.244   2.624   4.048
 2979SOL     OW 8944   3.800   2.673   4.513
 2979SOL    HW1 8945   3.899   2.661   4.522
 2979SOL    HW2 8946   3.776   2.768   4.534
 2980SOL     OW 8947   4.075   3.663   4.577
 2980SOL    HW1 8948   4.125   3.577   4.583
 2980SOL    HW2 8949   4.140   3.740   4.574
 2981SOL     OW 8950   4.045   2.805   3.966
 2981SOL    HW1 8951   4.127   2.844   3.924
 2981SOL    HW2 8952   4.018   2.723   3.917
 2982SOL     OW 8953   4.188   3.605   4.047
 2982SOL    HW1 8954   4.221   3.644   4.133
 2982SOL    HW2 8955   4.264   3.598   3.982
 2983SOL     OW 8956   4.106   2.562   4.204
 2983SOL    HW1 8957   4.151   2.472   4.201
 2983SOL    HW2 8958   4.012   2.551   4.237
 2984SOL     OW 8959   4.338   1.984   3.841
 2984SOL    HW1 8960   4.436   1.962   3.848
 2984SOL    HW2 8961   4.307   1.967   3.748
 2985SOL     OW 8962   4.263   1.926   4.236
 2985SOL    HW1 8963   4.182   1.927   4.294
 2985SOL    HW2 8964   4.266   2.009   4.181
 2986SOL     OW 8965   4.021   1.897   3.895
 2986SOL    HW1 8966   4.070   1.981   3.874
 2986SOL    HW2 8967   4.083   1.832   3.940
 2987SOL     OW 8968   4.183   3.014   4.465
 2987SOL    HW1 8969   4.112   2.987   4.530
 2987SOL    HW2 8970   4.157   2.986   4.372
 2988SOL     OW 8971   4.212   3.247   3.898
 2988SOL    HW1 8972   4.125   3.232   3.945
 2988SOL    HW2 8973   4.195   3.273   3.803
 2989SOL     OW 8974   4.251   2.118   4.052
 2989SOL    HW1 8975   4.278   2.059   3.977
 2989SOL    HW2 8976   4.251   2.213   4.021
 2990SOL     OW 8977   4.091   2.962   4.225
 2990SOL    HW1 8978   4.084   3.045   4.169
 2990SOL    HW2 8979   4.095   2.882   4.165
 2991SOL     OW 8980   4.031   1.925   4.342
 2991SOL    HW1 8981   4.020   2.019   4.375
 2991SOL    HW2 8982   4.026   1.862   4.419
 2992SOL     OW 8983   4.792   3.195   4.573
 2992SOL    HW1 8984   4.799   3.111   4.518
 2992SOL    HW2 8985   4.854   3.264   4.537
 2993SOL     OW 8986   3.732   3.188   3.924
 2993SOL    HW1 8987   3.639   3.209   3.893
 2993SOL    HW2 8988   3.742   3.089   3.937
 2994SOL     OW 8989   4.539   2.434   4.049
 2994SOL    HW1 8990   4.546   2.345   4.003
 2994SOL    HW2 8991   4.445   2.468   4.041
 2995SOL     OW 8992   4.197   2.362   3.915
 2995SOL    HW1 8993   4.258   2.442   3.919
 2995SOL    HW2 8994   4.102   2.393   3.922
 2996SOL     OW 8995   4.396   3.478   3.878
 2996SOL    HW1 8996   4.405   3.488   3.779
 2996SOL    HW2 8997   4.356   3.389   3.899
 2997SOL     OW 8998   3.987   2.188   4.444
 2997SOL    HW1 8999   3.908   2.239   4.410
 2997SOL    HW2 9000   3.978   2.173   4.542
 2998SOL     OW 9001   4.314   3.349   4.215
 2998SOL    HW1 9002   4.356   3.291   4.145
 2998SOL    HW2 9003   4.270   3.428   4.171
 2999SOL     OW 9004   3.979   3.210   4.014
 2999SOL    HW1 9005   3.883   3.211   3.987
 2999SOL    HW2 9006   3.991   3.263   4.098
 3000SOL     OW 9007   3.799   2.207   3.757
 3000SOL    HW1 9008   3.707   2.179   3.728
 3000SOL    HW2 9009   3.830   2.284   3.701
 3001SOL     OW 9010   3.796   2.028   4.042
 3001SOL    HW1 9011   3.779   2.111   3.988
 3001SOL    HW2 9012   3.886   1.991   4.020
 3002SOL     OW 9013   4.318   2.607   4.376
 3002SOL    HW1 9014   4.368   2.692   4.357
 3002SOL    HW2 9015   4.230   2.609   4.328
 3003SOL     OW 9016   4.385   3.652   4.677
 3003SOL    HW1 9017   4.339   3.740   4.664
 3003SOL    HW2 9018   4.484   3.664   4.670
 3004SOL     OW 9019   3.803   3.102   4.377
 3004SOL    HW1 9020   3.802   3.055   4.465
 3004SOL    HW2 9021   3.885   3.074   4.326
 3005SOL     OW 9022   4.152   2.286   4.244
 3005SOL    HW1 9023   4.182   2.214   4.182
 3005SOL    HW2 9024   4.113   2.246   4.327
 3006SOL     OW 9025   4.536   3.448   4.411
 3006SOL    HW1 9026   4.568   3.458   4.317
 3006SOL    HW2 9027   4.457   3.386   4.413
 3007SOL     OW 9028   3.763   2.939   4.024
 3007SOL    HW1 9029   3.862   2.928   4.015
 3007SOL    HW2 9030   3.723   2.853   4.056
 3008SOL     OW 9031   3.954   4.352   0.113
 3008SOL    HW1 9032   3.861   4.350   0.150
 3008SOL    HW2 9033   3.955   4.313   0.021
 3009SOL     OW 9034   3.949   3.999   0.996
 3009SOL    HW1 9035   3.984   3.982   1.088
 3009SOL    HW2 9036   3.861   3.954   0.984
 3010SOL     OW 9037   3.743   4.092   0.647
 3010SOL    HW1 9038   3.661   4.135   0.686
 3010SOL    HW2 9039   3.715   4.019   0.584
 3011SOL     OW 9040   4.574   4.522   1.823
 3011SOL    HW1 9041   4.570   4.598   1.888
 3011SOL    HW2 9042   4.596   4.558   1.732
 3012SOL     OW 9043   4.409   4.736   0.665
 3012SOL    HW1 9044   4.478   4.720   0.735
 3012SOL    HW2 9045   4.336   4.793   0.703
 3013SOL     OW 9046   4.162   4.116   1.499
 3013SOL    HW1 9047   4.244   4.060   1.508
 3013SOL    HW2 9048   4.081   4.058   1.503
 3014SOL     OW 9049   3.846   4.367   0.563
 3014SOL    HW1 9050   3.801   4.279   0.580
 3014SOL    HW2 9051   3.845   4.421   0.647
 3015SOL     OW 9052   3.837   4.461   1.597
 3015SOL    HW1 9053   3.925   4.448   1.642
 3015SOL    HW2 9054   3.824   4.558   1.575
 3016SOL     OW 9055   4.533   3.728   0.502
 3016SOL    HW1 9056   4.573   3.819   0.493
 3016SOL    HW2 9057   4.433   3.736   0.508
 3017SOL     OW 9058   4.041   3.975   1.801
 3017SOL    HW1 9059   4.112   4.046   1.807
 3017SOL    HW2 9060   3.953   4.014   1.829
 3018SOL     OW 9061   4.322   4.453   0.270
 3018SOL    HW1 9062   4.346   4.522   0.202
 3018SOL    HW2 9063   4.244   4.486   0.324
 3019SOL     OW 9064   4.274   3.920   0.885
 3019SOL    HW1 9065   4.269   3.915   0.985
 3019SOL    HW2 9066   4.276   4.016   0.856
 3020SOL     OW 9067   3.926   4.009   1.498
 3020SOL    HW1 9068   3.846   4.069   1.485
 3020SOL    HW2 9069   3.916   3.960   1.584
 3021SOL     OW 9070   4.106   4.424   0.480
 3021SOL    HW1 9071   4.151   4.334   0.477
 3021SOL    HW2 9072   4.012   4.413   0.513
 3022SOL     OW 9073   4.646   4.227   0.899
 3022SOL    HW1 9074   4.621   4.218   0.803
 3022SOL    HW2 9075   4.694   4.145   0.930
 3023SOL     OW 9076   4.263   3.788   0.512
 3023SOL    HW1 9077   4.182   3.789   0.570
 3023SOL    HW2 9078   4.266   3.871   0.457
 3024SOL     OW 9079   4.021   3.759   0.171
 3024SOL    HW1 9080   4.070   3.843   0.150
 3024SOL    HW2 9081   4.083   3.694   0.216
 3025SOL     OW 9082   3.802   4.280   1.386
 3025SOL    HW1 9083   3.894   4.279   1.345
 3025SOL    HW2 9084   3.796   4.354   1.453
 3026SOL     OW 9085   4.285   3.946   1.147
 3026SOL    HW1 9086   4.323   3.862   1.184
 3026SOL    HW2 9087   4.197   3.965   1.191
 3027SOL     OW 9088   4.251   3.980   0.328
 3027SOL    HW1 9089   4.278   3.921   0.253
 3027SOL    HW2 9090   4.251   4.075   0.297
 3028SOL     OW 9091   4.639   3.813   1.402
 3028SOL    HW1 9092   4.664   3.793   1.307
 3028SOL    HW2 9093   4.711   3.869   1.444
 3029SOL     OW 9094   4.134   4.537   1.251
 3029SOL    HW1 9095   4.220   4.549   1.301
 3029SOL    HW2 9096   4.092   4.450   1.278
 3030SOL     OW 9097   4.290   4.261   0.865
 3030SOL    HW1 9098   4.302   4.327   0.791
 3030SOL    HW2 9099   4.336   4.295   0.948
 3031SOL     OW 9100   4.228   3.774   1.740
 3031SOL    HW1 9101   4.186   3.717   1.670
 3031SOL    HW2 9102   4.162   3.843   1.772
 3032SOL     OW 9103   4.031   3.937   1.231
 3032SOL    HW1 9104   4.008   3.974   1.321
 3032SOL    HW2 9105   4.001   3.842   1.225
 3033SOL     OW 9106   4.456   4.358   1.064
 3033SOL    HW1 9107   4.515   4.332   0.988
 3033SOL    HW2 9108   4.428   4.454   1.053
 3034SOL     OW 9109   4.031   3.787   0.618
 3034SOL    HW1 9110   4.020   3.881   0.651
 3034SOL    HW2 9111   4.026   3.724   0.695
 3035SOL     OW 9112   4.043   4.534   0.949
 3035SOL    HW1 9113   4.136   4.570   0.954
 3035SOL    HW2 9114   4.037   4.449   1.001
 3036SOL     OW 9115   4.063   4.233   1.006
 3036SOL    HW1 9116   4.011   4.150   0.989
 3036SOL    HW2 9117   4.140   4.238   0.942
 3037SOL     OW 9118   3.764   4.268   1.114
 3037SOL    HW1 9119   3.849   4.235   1.073
 3037SOL    HW2 9120   3.777   4.283   1.212
 3038SOL     OW 9121   3.913   4.244   1.722
 3038SOL    HW1 9122   3.972   4.204   1.652
 3038SOL    HW2 9123   3.855   4.315   1.681
 3039SOL     OW 9124   4.395   4.188   1.269
 3039SOL    HW1 9125   4.361   4.099   1.239
 3039SOL    HW2 9126   4.421   4.242   1.189
 3040SOL     OW 9127   4.197   4.224   0.191
 3040SOL    HW1 9128   4.258   4.304   0.195
 3040SOL    HW2 9129   4.102   4.255   0.198
 3041SOL     OW 9130   3.987   4.050   0.720
 3041SOL    HW1 9131   3.908   4.101   0.686
 3041SOL    HW2 9132   3.978   4.035   0.818
 3042SOL     OW 9133   3.829   4.737   1.726
 3042SOL    HW1 9134   3.752   4.704   1.780
 3042SOL    HW2 9135   3.914   4.707   1.768
 3043SOL     OW 9136   4.396   3.927   1.489
 3043SOL    HW1 9137   4.486   3.911   1.449
 3043SOL    HW2 9138   4.404   3.932   1.588
 3044SOL     OW 9139   3.799   4.069   0.033
 3044SOL    HW1 9140   3.707   4.041   0.004
 3044SOL    HW2 9141   3.830   4.146  -0.023
 3045SOL     OW 9142   3.796   3.890   0.318
 3045SOL    HW1 9143   3.779   3.973   0.264
 3045SOL    HW2 9144   3.886   3.853   0.296
 3046SOL     OW 9145   4.440   4.289   1.708
 3046SOL    HW1 9146   4.459   4.354   1.782
 3046SOL    HW2 9147   4.500   4.209   1.717
 3047SOL     OW 9148   4.318   4.469   0.652
 3047SOL    HW1 9149   4.368   4.554   0.633
 3047SOL    HW2 9150   4.230   4.471   0.604
 3048SOL     OW 9151   4.152   4.148   0.520
 3048SOL    HW1 9152   4.182   4.076   0.458
 3048SOL    HW2 9153   4.113   4.108   0.603
 3049SOL     OW 9154   4.041   4.271   1.280
 3049SOL    HW1 9155   4.079   4.212   1.352
 3049SOL    HW2 9156   4.081   4.245   1.192
 3050SOL     OW 9157   3.954   4.352   1.975
 3050SOL    HW1 9158   3.861   4.350   2.012
 3050SOL    HW2 9159   3.955   4.313   1.883
 3051SOL     OW 9160   3.949   3.999   2.858
 3051SOL    HW1 9161   3.984   3.982   2.950
 3051SOL    HW2 9162   3.861   3.954   2.846
 3052SOL     OW 9163   3.743   4.092   2.509
 3052SOL    HW1 9164   3.661   4.135   2.548
 3052SOL    HW2 9165   3.715   4.019   2.446
 3053SOL     OW 9166   4.574   4.522   3.685
 3053SOL    HW1 9167   4.570   4.598   3.750
 3053SOL    HW2 9168   4.596   4.558   3.594
 3054SOL     OW 9169   4.409   4.736   2.527
 3054SOL    HW1 9170   4.478   4.720   2.597
 3054SOL    HW2 9171   4.336   4.793   2.565
 3055SOL     OW 9172   4.162   4.116   3.361
 3055SOL    HW1 9173   4.244   4.060   3.370
 3055SOL    HW2 9174   4.081   4.058   3.365
 3056SOL     OW 9175   3.846   4.367   2.425
 3056SOL    HW1 9176   3.801   4.279   2.442
 3056SOL    HW2 9177   3.845   4.421   2.509
 3057SOL     OW 9178   3.837   4.461   3.459
 3057SOL    HW1 9179   3.925   4.448   3.504
 3057SOL    HW2 9180   3.824   4.558   3.437
 3058SOL     OW 9181   4.533   3.728   2.364
 3058SOL    HW1 9182   4.573   3.819   2.355
 3058SOL    HW2 9183   4.433   3.736   2.370
 3059SOL     OW 9184   4.041   3.975   3.663
 3059SOL    HW1 9185   4.112   4.046   3.669
 3059SOL    HW2 9186   3.953   4.014   3.691
 3060SOL     OW 9187   4.322   4.453   2.132
 3060SOL    HW1 9188   4.346   4.522   2.064
 3060SOL    HW2 9189   4.244   4.486   2.186
 3061SOL     OW 9190   4.274   3.920   2.747
 3061SOL    HW1 9191   4.269   3.915   2.847
 3061SOL    HW2 9192   4.276   4.016   2.718
 3062SOL     OW 9193   3.926   4.009   3.360
 3062SOL    HW1 9194   3.846   4.069   3.347
 3062SOL    HW2 9195   3.916   3.960   3.446
 3063SOL     OW 9196   4.106   4.424   2.342
 3063SOL    HW1 9197   4.151   4.334   2.339
 3063SOL    HW2 9198   4.012   4.413   2.375
 3064SOL     OW 9199   4.338   3.846   1.979
 3064SOL    HW1 9200   4.436   3.824   1.986
 3064SOL    HW2 9201   4.307   3.829   1.886
 3065SOL     OW 9202   4.646   4.227   2.761
 3065SOL    HW1 9203   4.621   4.218   2.665
 3065SOL    HW2 9204   4.694   4.145   2.792
 3066SOL     OW 9205   4.263   3.788   2.374
 3066SOL    HW1 9206   4.182   3.789   2.432
 3066SOL    HW2 9207   4.266   3.871   2.319
 3067SOL     OW 9208   4.021   3.759   2.033
 3067SOL    HW1 9209   4.070   3.843   2.012
 3067SOL    HW2 9210   4.083   3.694   2.078
 3068SOL     OW 9211   3.802   4.280   3.248
 3068SOL    HW1 9212   3.894   4.279   3.207
 3068SOL    HW2 9213   3.796   4.354   3.315
 3069SOL     OW 9214   4.285   3.946   3.009
 3069SOL    HW1 9215   4.323   3.862   3.046
 3069SOL    HW2 9216   4.197   3.965   3.053
 3070SOL     OW 9217   4.251   3.980   2.190
 3070SOL    HW1 9218   4.278   3.921   2.115
 3070SOL    HW2 9219   4.251   4.075   2.159
 3071SOL     OW 9220   4.639   3.813   3.264
 3071SOL    HW1 9221   4.664   3.793   3.169
 3071SOL    HW2 9222   4.711   3.869   3.306
 3072SOL     OW 9223   4.134   4.537   3.113
 3072SOL    HW1 9224   4.220   4.549   3.163
 3072SOL    HW2 9225   4.092   4.450   3.140
 3073SOL     OW 9226   4.290   4.261   2.727
 3073SOL    HW1 9227   4.302   4.327   2.653
 3073SOL    HW2 9228   4.336   4.295   2.810
 3074SOL     OW 9229   4.228   3.774   3.602
 3074SOL    HW1 9230   4.186   3.717   3.532
 3074SOL    HW2 9231   4.162   3.843   3.634
 3075SOL     OW 9232   4.031   3.937   3.093
 3075SOL    HW1 9233   4.008   3.974   3.183
 3075SOL    HW2 9234   4.001   3.842   3.087
 3076SOL     OW 9235   4.456   4.358   2.926
 3076SOL    HW1 9236   4.515   4.332   2.850
 3076SOL    HW2 9237   4.428   4.454   2.915
 3077SOL     OW 9238   4.031   3.787   2.480
 3077SOL    HW1 9239   4.020   3.881   2.513
 3077SOL    HW2 9240   4.026   3.724   2.557
 3078SOL     OW 9241   4.043   4.534   2.811
 3078SOL    HW1 9242   4.136   4.570   2.816
 3078SOL    HW2 9243   4.037   4.449   2.863
 3079SOL     OW 9244   4.063   4.233   2.868
 3079SOL    HW1 9245   4.011   4.150   2.851
 3079SOL    HW2 9246   4.140   4.238   2.804
 3080SOL     OW 9247   3.764   4.268   2.976
 3080SOL    HW1 9248   3.849   4.235   2.935
 3080SOL    HW2 9249   3.777   4.283   3.074
 3081SOL     OW 9250   3.913   4.244   3.584
 3081SOL    HW1 9251   3.972   4.204   3.514
 3081SOL    HW2 9252   3.855   4.315   3.543
 3082SOL     OW 9253   4.539   4.296   2.187
 3082SOL    HW1 9254   4.546   4.207   2.141
 3082SOL    HW2 9255   4.445   4.330   2.179
 3083SOL     OW 9256   4.395   4.188   3.131
 3083SOL    HW1 9257   4.361   4.099   3.101
 3083SOL    HW2 9258   4.421   4.242   3.051
 3084SOL     OW 9259   4.197   4.224   2.053
 3084SOL    HW1 9260   4.258   4.304   2.057
 3084SOL    HW2 9261   4.102   4.255   2.060
 3085SOL     OW 9262   3.987   4.050   2.582
 3085SOL    HW1 9263   3.908   4.101   2.548
 3085SOL    HW2 9264   3.978   4.035   2.680
 3086SOL     OW 9265   3.829   4.737   3.588
 3086SOL    HW1 9266   3.752   4.704   3.642
 3086SOL    HW2 9267   3.914   4.707   3.630
 3087SOL     OW 9268   4.396   3.927   3.351
 3087SOL    HW1 9269   4.486   3.911   3.311
 3087SOL    HW2 9270   4.404   3.932   3.450
 3088SOL     OW 9271   3.799   4.069   1.895
 3088SOL    HW1 9272   3.707   4.041   1.866
 3088SOL    HW2 9273   3.830   4.146   1.839
 3089SOL     OW 9274   3.796   3.890   2.180
 3089SOL    HW1 9275   3.779   3.973   2.126
 3089SOL    HW2 9276   3.886   3.853   2.158
 3090SOL     OW 9277   4.440   4.289   3.570
 3090SOL    HW1 9278   4.459   4.354   3.644
 3090SOL    HW2 9279   4.500   4.209   3.579
 3091SOL     OW 9280   4.318   4.469   2.514
 3091SOL    HW1 9281   4.368   4.554   2.495
 3091SOL    HW2 9282   4.230   4.471   2.466
 3092SOL     OW 9283   4.152   4.148   2.382
 3092SOL    HW1 9284   4.182   4.076   2.320
 3092SOL    HW2 9285   4.113   4.108   2.465
 3093SOL     OW 9286   4.041   4.271   3.142
 3093SOL    HW1 9287   4.079   4.212   3.214
 3093SOL    HW2 9288   4.081   4.245   3.054
 3094SOL     OW 9289   3.954   4.352   3.837
 3094SOL    HW1 9290   3.861   4.350   3.874
 3094SOL    HW2 9291   3.955   4.313   3.745
 3095SOL     OW 9292   3.949   3.999   4.720
 3095SOL    HW1 9293   3.984   3.982   4.812
 3095SOL    HW2 9294   3.861   3.954   4.708
 3096SOL     OW 9295   3.743   4.092   4.371
 3096SOL    HW1 9296   3.661   4.135   4.410
 3096SOL    HW2 9297   3.715   4.019   4.308
 3097SOL     OW 9298   4.409   4.736   4.389
 3097SOL    HW1 9299   4.478   4.720   4.459
 3097SOL    HW2 9300   4.336   4.793   4.427
 3098SOL     OW 9301   3.846   4.367   4.287
 3098SOL    HW1 9302   3.801   4.279   4.304
 3098SOL    HW2 9303   3.845   4.421   4.371
 3099SOL     OW 9304   4.533   3.728   4.226
 3099SOL    HW1 9305   4.573   3.819   4.217
 3099SOL    HW2 9306   4.433   3.736   4.232
 3100SOL     OW 9307   4.322   4.453   3.994
 3100SOL    HW1 9308   4.346   4.522   3.926
 3100SOL    HW2 9309   4.244   4.486   4.048
 3101SOL     OW 9310   4.106   4.424   4.204
 3101SOL    HW1 9311   4.151   4.334   4.201
 3101SOL    HW2 9312   4.012   4.413   4.237
 3102SOL     OW 9313   4.338   3.846   3.841
 3102SOL    HW1 9314   4.436   3.824   3.848
 3102SOL    HW2 9315   4.307   3.829   3.748
 3103SOL     OW 9316   4.263   3.788   4.236
 3103SOL    HW1 9317   4.182   3.789   4.294
 3103SOL    HW2 9318   4.266   3.871   4.181
 3104SOL     OW 9319   4.021   3.759   3.895
 3104SOL    HW1 9320   4.070   3.843   3.874
 3104SOL    HW2 9321   4.083   3.694   3.940
 3105SOL     OW 9322   4.251   3.980   4.052
 3105SOL    HW1 9323   4.278   3.921   3.977
 3105SOL    HW2 9324   4.251   4.075   4.021
 3106SOL     OW 9325   4.031   3.787   4.342
 3106SOL    HW1 9326   4.020   3.881   4.375
 3106SOL    HW2 9327   4.026   3.724   4.419
 3107SOL     OW 9328   4.539   4.296   4.049
 3107SOL    HW1 9329   4.546   4.207   4.003
 3107SOL    HW2 9330   4.445   4.330   4.041
 3108SOL     OW 9331   4.197   4.224   3.915
 3108SOL    HW1 9332   4.258   4.304   3.919
 3108SOL    HW2 9333   4.102   4.255   3.922
 3109SOL     OW 9334   3.987   4.050   4.444
 3109SOL    HW1 9335   3.908   4.101   4.410
 3109SOL    HW2 9336   3.978   4.035   4.542
 3110SOL     OW 9337   3.799   4.069   3.757
 3110SOL    HW1 9338   3.707   4.041   3.728
 3110SOL    HW2 9339   3.830   4.146   3.701
 3111SOL     OW 9340   3.796   3.890   4.042
 3111SOL    HW1 9341   3.779   3.973   3.988
 3111SOL    HW2 9342   3.886   3.853   4.020
 3112SOL     OW 9343   4.318   4.469   4.376
 3112SOL    HW1 9344   4.368   4.554   4.357
 3112SOL    HW2 9345   4.230   4.471   4.328
 3113SOL     OW 9346   4.152   4.148   4.244
 3113SOL    HW1 9347   4.182   4.076   4.182
 3113SOL    HW2 9348   4.113   4.108   4.327
   4.56217   4.56217   4.56217
