mobley_8426916_GMX.gro created by acpype (v: 2023.10.27) on Wed May 20 23:51:44 2026
   16
    1MOL     C1    1   2.134   2.334   2.482
    1MOL     C2    2   2.566   2.306   2.249
    1MOL     C3    3   2.206   2.349   2.348
    1MOL     C4    4   2.417   2.334   2.235
    1MOL     N1    5   2.349   2.322   2.363
    1MOL     H1    6   2.144   2.233   2.521
    1MOL     H2    7   2.173   2.404   2.556
    1MOL     H3    8   2.027   2.355   2.469
    1MOL     H4    9   2.613   2.376   2.318
    1MOL     H5   10   2.583   2.204   2.286
    1MOL     H6   11   2.615   2.315   2.152
    1MOL     H7   12   2.192   2.450   2.309
    1MOL     H8   13   2.164   2.279   2.276
    1MOL     H9   14   2.372   2.265   2.163
    1MOL    H10   15   2.402   2.436   2.196
    1MOL    H11   16   2.389   2.388   2.429
   4.66920   4.66920   4.66920
