mobley_900088_GMX.gro created by acpype (v: 2023.10.27) on Wed May 20 23:41:40 2026
   16
    1MOL     C1    1   2.355   2.451   2.303
    1MOL     C2    2   2.210   2.112   2.262
    1MOL     C3    3   2.335   2.326   2.256
    1MOL     C4    4   2.230   2.237   2.308
    1MOL     C5    5   2.425   2.276   2.146
    1MOL     C6    6   2.140   2.288   2.418
    1MOL     H1    7   2.433   2.517   2.265
    1MOL     H2    8   2.293   2.492   2.382
    1MOL     H3    9   2.131   2.049   2.302
    1MOL     H4   10   2.270   2.068   2.183
    1MOL     H5   11   2.500   2.350   2.116
    1MOL     H6   12   2.367   2.251   2.057
    1MOL     H7   13   2.481   2.187   2.179
    1MOL     H8   14   2.084   2.376   2.385
    1MOL     H9   15   2.065   2.213   2.448
    1MOL    H10   16   2.198   2.313   2.508
   4.56411   4.56411   4.56411
