%VERSION  VERSION_STAMP = V0001.000  DATE = 05/20/26  23:59:22                  
%FLAG TITLE                                                                     
%FORMAT(20a4)                                                                   
hex_1_ene                                                                       
%FLAG POINTERS                                                                  
%FORMAT(10I8)                                                                   
      18       4      12       5      26       4      36       3       0       0
      85       1       5       4       3       5       9       8       4       0
       0       0       0       0       0       0       0       0      18       0
       0
%FLAG ATOM_NAME                                                                 
%FORMAT(20a4)                                                                   
C1  C2  C3  C4  C5  C6  H1  H2  H3  H4  H5  H6  H7  H8  H9  H10 H11 H12 
%FLAG CHARGE                                                                    
%FORMAT(5E16.8)                                                                 
 -4.11823980E+00 -2.97387936E+00 -1.69649613E+00 -9.51204060E-01 -1.46507292E+00
 -1.39218372E+00  2.01356415E+00  2.01356415E+00  2.15023140E+00  5.95869210E-01
  5.95869210E-01  5.95869210E-01  8.41870260E-01  8.41870260E-01  7.05203010E-01
  7.05203010E-01  7.59869910E-01  7.59869910E-01
%FLAG ATOMIC_NUMBER                                                             
%FORMAT(10I8)                                                                   
       6       6       6       6       6       6       1       1       1       1
       1       1       1       1       1       1       1       1
%FLAG MASS                                                                      
%FORMAT(5E16.8)                                                                 
  1.20100000E+01  1.20100000E+01  1.20100000E+01  1.20100000E+01  1.20100000E+01
  1.20100000E+01  1.00800000E+00  1.00800000E+00  1.00800000E+00  1.00800000E+00
  1.00800000E+00  1.00800000E+00  1.00800000E+00  1.00800000E+00  1.00800000E+00
  1.00800000E+00  1.00800000E+00  1.00800000E+00
%FLAG ATOM_TYPE_INDEX                                                           
%FORMAT(10I8)                                                                   
       1       1       2       2       2       2       3       3       3       4
       4       4       4       4       4       4       4       4
%FLAG NUMBER_EXCLUDED_ATOMS                                                     
%FORMAT(10I8)                                                                   
       8      10      10      11      10      10       2       1       2       4
       3       2       3       2       3       2       1       1
%FLAG NONBONDED_PARM_INDEX                                                      
%FORMAT(10I8)                                                                   
       1       2       4       7       2       3       5       8       4       5
       6       9       7       8       9      10
%FLAG RESIDUE_LABEL                                                             
%FORMAT(20a4)                                                                   
MOL 
%FLAG RESIDUE_POINTER                                                           
%FORMAT(10I8)                                                                   
       1
%FLAG BOND_FORCE_CONSTANT                                                       
%FORMAT(5E16.8)                                                                 
  4.36000000E+02  3.57290000E+02  2.48400000E+02  2.28890000E+02  3.45250000E+02
%FLAG BOND_EQUIL_VALUE                                                          
%FORMAT(5E16.8)                                                                 
  1.33790000E+00  1.08820000E+00  1.50880000E+00  1.53540000E+00  1.09620000E+00
%FLAG ANGLE_FORCE_CONSTANT                                                      
%FORMAT(5E16.8)                                                                 
  6.08800000E+01  4.63700000E+01  6.04000000E+01  4.37600000E+01  5.98700000E+01
  4.32700000E+01  4.29500000E+01  3.46600000E+01  3.58000000E+01
%FLAG ANGLE_EQUIL_VALUE                                                         
%FORMAT(5E16.8)                                                                 
  2.18078984E+00  2.10120279E+00  1.96489251E+00  1.93120765E+00  1.96576518E+00
  1.91427794E+00  2.00800217E+00  2.03610198E+00  1.88024401E+00
%FLAG DIHEDRAL_FORCE_CONSTANT                                                   
%FORMAT(5E16.8)                                                                 
  0.00000000E+00  2.60000000E-01  1.55555556E-01  5.20000000E-01  1.30000000E-01
  6.65000000E+00  1.20000000E-01  1.10000000E+00
%FLAG DIHEDRAL_PERIODICITY                                                      
%FORMAT(5E16.8)                                                                 
  2.00000000E+00  3.00000000E+00  3.00000000E+00  3.00000000E+00  3.00000000E+00
  2.00000000E+00  3.00000000E+00  2.00000000E+00
%FLAG DIHEDRAL_PHASE                                                            
%FORMAT(5E16.8)                                                                 
  0.00000000E+00  3.14159400E+00  0.00000000E+00  0.00000000E+00  0.00000000E+00
  3.14159400E+00  0.00000000E+00  3.14159400E+00
%FLAG SCEE_SCALE_FACTOR                                                         
%FORMAT(5E16.8)                                                                 
  1.20000000E+00  1.20000000E+00  1.20000000E+00  1.20000000E+00  1.20000000E+00
  1.20000000E+00  1.20000000E+00  0.00000000E+00
%FLAG SCNB_SCALE_FACTOR                                                         
%FORMAT(5E16.8)                                                                 
  2.00000000E+00  2.00000000E+00  2.00000000E+00  2.00000000E+00  2.00000000E+00
  2.00000000E+00  2.00000000E+00  0.00000000E+00
%FLAG SOLTY                                                                     
%FORMAT(5E16.8)                                                                 
  0.00000000E+00  0.00000000E+00  0.00000000E+00  0.00000000E+00
%FLAG LENNARD_JONES_ACOEF                                                       
%FORMAT(5E16.8)                                                                 
  6.96551276E+05  8.43969952E+05  1.02073671E+06  7.52549148E+04  9.27554496E+04
  6.90855956E+03  8.12662403E+04  1.00235148E+05  7.41026906E+03  7.94617769E+03
%FLAG LENNARD_JONES_BCOEF                                                       
%FORMAT(5E16.8)                                                                 
  5.24668528E+02  5.90251928E+02  6.63431737E+02  1.09570372E+02  1.24325688E+02
  2.10929191E+01  1.21392023E+02  1.37787728E+02  2.32899892E+01  2.57122925E+01
%FLAG BONDS_INC_HYDROGEN                                                        
%FORMAT(10I8)                                                                   
       0      18       2       0      21       2       3      24       2       6
      27       5       6      30       5       6      33       5       9      36
       5       9      39       5      12      42       5      12      45       5
      15      48       5      15      51       5
%FLAG BONDS_WITHOUT_HYDROGEN                                                    
%FORMAT(10I8)                                                                   
       0       3       1       3       9       3       6      12       4       9
      15       4      12      15       4
%FLAG ANGLES_INC_HYDROGEN                                                       
%FORMAT(10I8)                                                                   
       0       3      24       2       3       0      18       2       3       0
      21       2       3       9      36       4       3       9      39       4
       6      12      42       6       6      12      45       6       9       3
      24       7       9      15      48       6       9      15      51       6
      12       6      27       6      12       6      30       6      12       6
      33       6      12      15      48       6      12      15      51       6
      15       9      36       6      15       9      39       6      15      12
      42       6      15      12      45       6      18       0      21       8
      27       6      30       9      27       6      33       9      30       6
      33       9      36       9      39       9      42      12      45       9
      48      15      51       9
%FLAG ANGLES_WITHOUT_HYDROGEN                                                   
%FORMAT(10I8)                                                                   
       0       3       9       1       3       9      15       3       6      12
      15       5       9      15      12       5
%FLAG DIHEDRALS_INC_HYDROGEN                                                    
%FORMAT(10I8)                                                                   
       0       3       9      36       2       0       3       9      39       2
       3       9      15      48       3       3       9      15      51       3
       6      12      15      48       5       6      12      15      51       5
      18       0       3       9       6      21       0       3       9       6
       9      15      12      42       5       9      15      12      45       5
      12      15       9      36       5      12      15       9      39       5
      15       9       3      24       1      15      12       6      27       5
      15      12       6      30       5      15      12       6      33       5
      18       0       3      24       6      21       0       3      24       6
      24       3       9      36       1      24       3       9      39       1
      27       6      12      42       7      27       6      12      45       7
      30       6      12      42       7      30       6      12      45       7
      33       6      12      42       7      33       6      12      45       7
      36       9      15      48       7      36       9      15      51       7
      39       9      15      48       7      39       9      15      51       7
      42      12      15      48       7      42      12      15      51       7
      45      12      15      48       7      45      12      15      51       7
      21       0     -18      -3       8       0       9      -3     -24       8
%FLAG DIHEDRALS_WITHOUT_HYDROGEN                                                
%FORMAT(10I8)                                                                   
       0       3       9      15       1       3       9      15      12       3
       6      12      15       9       4
%FLAG EXCLUDED_ATOMS_LIST                                                       
%FORMAT(10I8)                                                                   
       2       4       6       7       8       9      13      14       4       5
       6       7       8       9      13      14      17      18       4       5
       6      10      11      12      15      16      17      18       5       6
       7       8       9      13      14      15      16      17      18       6
      10      11      12      13      14      15      16      17      18       9
      10      11      12      13      14      15      16      17      18       8
       9       9      13      14      11      12      15      16      12      15
      16      15      16      14      17      18      17      18      16      17
      18      17      18      18       0
%FLAG HBOND_ACOEF                                                               
%FORMAT(5E16.8)                                                                 

%FLAG HBOND_BCOEF                                                               
%FORMAT(5E16.8)                                                                 

%FLAG HBCUT                                                                     
%FORMAT(5E16.8)                                                                 

%FLAG AMBER_ATOM_TYPE                                                           
%FORMAT(20a4)                                                                   
c2  c2  c3  c3  c3  c3  ha  ha  ha  hc  hc  hc  hc  hc  hc  hc  hc  hc  
%FLAG TREE_CHAIN_CLASSIFICATION                                                 
%FORMAT(20a4)                                                                   
BLA BLA BLA BLA BLA BLA BLA BLA BLA BLA BLA BLA BLA BLA BLA BLA BLA BLA 
%FLAG JOIN_ARRAY                                                                
%FORMAT(10I8)                                                                   
       0       0       0       0       0       0       0       0       0       0
       0       0       0       0       0       0       0       0
%FLAG IROTAT                                                                    
%FORMAT(10I8)                                                                   
       0       0       0       0       0       0       0       0       0       0
       0       0       0       0       0       0       0       0
%FLAG RADIUS_SET                                                                
%FORMAT(1a80)                                                                   
modified Bondi radii (mbondi)                                                   
%FLAG RADII                                                                     
%FORMAT(5E16.8)                                                                 
  1.70000000E+00  1.70000000E+00  1.70000000E+00  1.70000000E+00  1.70000000E+00
  1.70000000E+00  1.30000000E+00  1.30000000E+00  1.30000000E+00  1.30000000E+00
  1.30000000E+00  1.30000000E+00  1.30000000E+00  1.30000000E+00  1.30000000E+00
  1.30000000E+00  1.30000000E+00  1.30000000E+00
%FLAG SCREEN                                                                    
%FORMAT(5E16.8)                                                                 
  7.20000000E-01  7.20000000E-01  7.20000000E-01  7.20000000E-01  7.20000000E-01
  7.20000000E-01  8.50000000E-01  8.50000000E-01  8.50000000E-01  8.50000000E-01
  8.50000000E-01  8.50000000E-01  8.50000000E-01  8.50000000E-01  8.50000000E-01
  8.50000000E-01  8.50000000E-01  8.50000000E-01
%FLAG IPOL                                                                      
%FORMAT(1I8)                                                                    
       0
