; mobley_5310099_GMX_OPLS.itp created by acpype (v: 2023.10.27) on Wed May 20 23:59:21 2026

; For OPLS atomtypes manual fine tuning
; AC_at:OPLS_at:OPLScode: Possible_Alternatives (see ffoplsaa.atp and ffoplsaanb.itp)
; c2:CR:opls_509: ['510']
; c3:CT:opls_135: ['136', '137', '149', '157', '158', '206', '209', '210', '223B', '224B', '245', '246', '274', '283', '284', '285', '292', '292B', '293B', '296', '307', '308', '505']
; ha:HA:opls_146: []
; hc:HC:opls_140: []

[ moleculetype ]
;name            nrexcl
 mobley_5310099   3

[ atoms ]
;   nr  type  resi  res  atom  cgnr     charge      mass       ; qtot   bond_type
     1 opls_509     1   MOL    C1    1    -0.225000     12.01100 ; qtot -0.225  CR  
     2 opls_509     1   MOL    C2    2    -0.163200     12.01100 ; qtot -0.388  CR  
     3 opls_135     1   MOL    C3    3    -0.093100     12.01100 ; qtot -0.481  CT  
     4 opls_135     1   MOL    C4    4    -0.052200     12.01100 ; qtot -0.534  CT  
     5 opls_135     1   MOL    C5    5    -0.080400     12.01100 ; qtot -0.614  CT  
     6 opls_135     1   MOL    C6    6    -0.076400     12.01100 ; qtot -0.690  CT  
     7 opls_146     1   MOL    H1    7     0.110500      1.00800 ; qtot -0.580  HA  
     8 opls_146     1   MOL    H2    8     0.110500      1.00800 ; qtot -0.469  HA  
     9 opls_146     1   MOL    H3    9     0.118000      1.00800 ; qtot -0.351  HA  
    10 opls_140     1   MOL    H4   10     0.032700      1.00800 ; qtot -0.319  HC  
    11 opls_140     1   MOL    H5   11     0.032700      1.00800 ; qtot -0.286  HC  
    12 opls_140     1   MOL    H6   12     0.032700      1.00800 ; qtot -0.253  HC  
    13 opls_140     1   MOL    H7   13     0.046200      1.00800 ; qtot -0.207  HC  
    14 opls_140     1   MOL    H8   14     0.046200      1.00800 ; qtot -0.161  HC  
    15 opls_140     1   MOL    H9   15     0.038700      1.00800 ; qtot -0.122  HC  
    16 opls_140     1   MOL   H10   16     0.038700      1.00800 ; qtot -0.083  HC  
    17 opls_140     1   MOL   H11   17     0.041700      1.00800 ; qtot -0.042  HC  
    18 opls_140     1   MOL   H12   18     0.041700      1.00800 ; qtot -0.000  HC  

[ bonds ]
;   ai     aj funct   r             k
     1      2   1 ;    1.3379e-01    3.6484e+05 ;     C1 - C2         CR - CR    
     1      7   1 ;    1.0882e-01    2.9898e+05 ;     C1 - H1         CR - HA    
     1      8   1 ;    1.0882e-01    2.9898e+05 ;     C1 - H2         CR - HA    
     2      4   1 ;    1.5088e-01    2.0786e+05 ;     C2 - C4         CR - CT    
     2      9   1 ;    1.0882e-01    2.9898e+05 ;     C2 - H3         CR - HA    
     3      5   1 ;    1.5354e-01    1.9154e+05 ;     C3 - C5         CT - CT    
     3     10   1 ;    1.0962e-01    2.8891e+05 ;     C3 - H4         CT - HC    
     3     11   1 ;    1.0962e-01    2.8891e+05 ;     C3 - H5         CT - HC    
     3     12   1 ;    1.0962e-01    2.8891e+05 ;     C3 - H6         CT - HC    
     4      6   1 ;    1.5354e-01    1.9154e+05 ;     C4 - C6         CT - CT    
     4     13   1 ;    1.0962e-01    2.8891e+05 ;     C4 - H7         CT - HC    
     4     14   1 ;    1.0962e-01    2.8891e+05 ;     C4 - H8         CT - HC    
     5      6   1 ;    1.5354e-01    1.9154e+05 ;     C5 - C6         CT - CT    
     5     15   1 ;    1.0962e-01    2.8891e+05 ;     C5 - H9         CT - HC    
     5     16   1 ;    1.0962e-01    2.8891e+05 ;     C5 - H10        CT - HC    
     6     17   1 ;    1.0962e-01    2.8891e+05 ;     C6 - H11        CT - HC    
     6     18   1 ;    1.0962e-01    2.8891e+05 ;     C6 - H12        CT - HC    

[ pairs ]
;   ai     aj    funct
     1      6      1 ;     C1 - C6    
     1     13      1 ;     C1 - H7    
     1     14      1 ;     C1 - H8    
     2      5      1 ;     C2 - C5    
     2     17      1 ;     C2 - H11   
     2     18      1 ;     C2 - H12   
     3      4      1 ;     C3 - C4    
     3     17      1 ;     C3 - H11   
     3     18      1 ;     C3 - H12   
     4     15      1 ;     C4 - H9    
     4     16      1 ;     C4 - H10   
     5     13      1 ;     C5 - H7    
     5     14      1 ;     C5 - H8    
     6      9      1 ;     C6 - H3    
     6     10      1 ;     C6 - H4    
     6     11      1 ;     C6 - H5    
     6     12      1 ;     C6 - H6    
     7      4      1 ;     H1 - C4    
     7      9      1 ;     H1 - H3    
     8      4      1 ;     H2 - C4    
     8      9      1 ;     H2 - H3    
     9     13      1 ;     H3 - H7    
     9     14      1 ;     H3 - H8    
    10     15      1 ;     H4 - H9    
    10     16      1 ;     H4 - H10   
    11     15      1 ;     H5 - H9    
    11     16      1 ;     H5 - H10   
    12     15      1 ;     H6 - H9    
    12     16      1 ;     H6 - H10   
    13     17      1 ;     H7 - H11   
    13     18      1 ;     H7 - H12   
    14     17      1 ;     H8 - H11   
    14     18      1 ;     H8 - H12   
    15     17      1 ;     H9 - H11   
    15     18      1 ;     H9 - H12   
    16     17      1 ;    H10 - H11   
    16     18      1 ;    H10 - H12   

[ angles ]
;   ai     aj     ak    funct   theta         cth
     1      2      4      1 ;    1.2495e+02    5.0944e+02 ;     C1 - C2   - C4       CR -   CR - CT  
     1      2      9      1 ;    1.2039e+02    3.8802e+02 ;     C1 - C2   - H3       CR -   CR - HA  
     2      1      7      1 ;    1.2039e+02    3.8802e+02 ;     C2 - C1   - H1       CR -   CR - HA  
     2      1      8      1 ;    1.2039e+02    3.8802e+02 ;     C2 - C1   - H2       CR -   CR - HA  
     2      4      6      1 ;    1.1258e+02    5.0543e+02 ;     C2 - C4   - C6       CR -   CT - CT  
     2      4     13      1 ;    1.1065e+02    3.6618e+02 ;     C2 - C4   - H7       CR -   CT - HC  
     2      4     14      1 ;    1.1065e+02    3.6618e+02 ;     C2 - C4   - H8       CR -   CT - HC  
     3      5      6      1 ;    1.1263e+02    5.0099e+02 ;     C3 - C5   - C6       CT -   CT - CT  
     3      5     15      1 ;    1.0968e+02    3.6208e+02 ;     C3 - C5   - H9       CT -   CT - HC  
     3      5     16      1 ;    1.0968e+02    3.6208e+02 ;     C3 - C5   - H10      CT -   CT - HC  
     4      2      9      1 ;    1.1505e+02    3.5941e+02 ;     C4 - C2   - H3       CT -   CR - HA  
     4      6      5      1 ;    1.1263e+02    5.0099e+02 ;     C4 - C6   - C5       CT -   CT - CT  
     4      6     17      1 ;    1.0968e+02    3.6208e+02 ;     C4 - C6   - H11      CT -   CT - HC  
     4      6     18      1 ;    1.0968e+02    3.6208e+02 ;     C4 - C6   - H12      CT -   CT - HC  
     5      3     10      1 ;    1.0968e+02    3.6208e+02 ;     C5 - C3   - H4       CT -   CT - HC  
     5      3     11      1 ;    1.0968e+02    3.6208e+02 ;     C5 - C3   - H5       CT -   CT - HC  
     5      3     12      1 ;    1.0968e+02    3.6208e+02 ;     C5 - C3   - H6       CT -   CT - HC  
     5      6     17      1 ;    1.0968e+02    3.6208e+02 ;     C5 - C6   - H11      CT -   CT - HC  
     5      6     18      1 ;    1.0968e+02    3.6208e+02 ;     C5 - C6   - H12      CT -   CT - HC  
     6      4     13      1 ;    1.0968e+02    3.6208e+02 ;     C6 - C4   - H7       CT -   CT - HC  
     6      4     14      1 ;    1.0968e+02    3.6208e+02 ;     C6 - C4   - H8       CT -   CT - HC  
     6      5     15      1 ;    1.0968e+02    3.6208e+02 ;     C6 - C5   - H9       CT -   CT - HC  
     6      5     16      1 ;    1.0968e+02    3.6208e+02 ;     C6 - C5   - H10      CT -   CT - HC  
     7      1      8      1 ;    1.1666e+02    2.9003e+02 ;     H1 - C1   - H2       HA -   CR - HA  
    10      3     11      1 ;    1.0773e+02    2.9957e+02 ;     H4 - C3   - H5       HC -   CT - HC  
    10      3     12      1 ;    1.0773e+02    2.9957e+02 ;     H4 - C3   - H6       HC -   CT - HC  
    11      3     12      1 ;    1.0773e+02    2.9957e+02 ;     H5 - C3   - H6       HC -   CT - HC  
    13      4     14      1 ;    1.0773e+02    2.9957e+02 ;     H7 - C4   - H8       HC -   CT - HC  
    15      5     16      1 ;    1.0773e+02    2.9957e+02 ;     H9 - C5   - H10      HC -   CT - HC  
    17      6     18      1 ;    1.0773e+02    2.9957e+02 ;    H11 - C6   - H12      HC -   CT - HC  

[ dihedrals ] ; propers
; for gromacs 4.5 or higher, using funct 9
;    i      j      k      l   func   phase     kd      pn
     1      2      4      6      9 ;     0.00   0.00000   0 ;     C1-    C2-    C4-    C6
     1      2      4     13      9 ;   180.00   1.08784   3 ;     C1-    C2-    C4-    H7
     1      2      4     14      9 ;   180.00   1.08784   3 ;     C1-    C2-    C4-    H8
     2      4      6      5      9 ;     0.00   0.65084   3 ;     C2-    C4-    C6-    C5
     2      4      6     17      9 ;     0.00   0.65084   3 ;     C2-    C4-    C6-   H11
     2      4      6     18      9 ;     0.00   0.65084   3 ;     C2-    C4-    C6-   H12
     3      5      6      4      9 ;     0.00   2.17568   3 ;     C3-    C5-    C6-    C4
     3      5      6     17      9 ;     0.00   0.54392   3 ;     C3-    C5-    C6-   H11
     3      5      6     18      9 ;     0.00   0.54392   3 ;     C3-    C5-    C6-   H12
     4      6      5     15      9 ;     0.00   0.54392   3 ;     C4-    C6-    C5-    H9
     4      6      5     16      9 ;     0.00   0.54392   3 ;     C4-    C6-    C5-   H10
     5      6      4     13      9 ;     0.00   0.54392   3 ;     C5-    C6-    C4-    H7
     5      6      4     14      9 ;     0.00   0.54392   3 ;     C5-    C6-    C4-    H8
     6      4      2      9      9 ;     0.00   0.00000   0 ;     C6-    C4-    C2-    H3
     6      5      3     10      9 ;     0.00   0.54392   3 ;     C6-    C5-    C3-    H4
     6      5      3     11      9 ;     0.00   0.54392   3 ;     C6-    C5-    C3-    H5
     6      5      3     12      9 ;     0.00   0.54392   3 ;     C6-    C5-    C3-    H6
     7      1      2      4      9 ;   180.00  27.82360   2 ;     H1-    C1-    C2-    C4
     7      1      2      9      9 ;   180.00  27.82360   2 ;     H1-    C1-    C2-    H3
     8      1      2      4      9 ;   180.00  27.82360   2 ;     H2-    C1-    C2-    C4
     8      1      2      9      9 ;   180.00  27.82360   2 ;     H2-    C1-    C2-    H3
     9      2      4     13      9 ;     0.00   0.00000   0 ;     H3-    C2-    C4-    H7
     9      2      4     14      9 ;     0.00   0.00000   0 ;     H3-    C2-    C4-    H8
    10      3      5     15      9 ;     0.00   0.50208   3 ;     H4-    C3-    C5-    H9
    10      3      5     16      9 ;     0.00   0.50208   3 ;     H4-    C3-    C5-   H10
    11      3      5     15      9 ;     0.00   0.50208   3 ;     H5-    C3-    C5-    H9
    11      3      5     16      9 ;     0.00   0.50208   3 ;     H5-    C3-    C5-   H10
    12      3      5     15      9 ;     0.00   0.50208   3 ;     H6-    C3-    C5-    H9
    12      3      5     16      9 ;     0.00   0.50208   3 ;     H6-    C3-    C5-   H10
    13      4      6     17      9 ;     0.00   0.50208   3 ;     H7-    C4-    C6-   H11
    13      4      6     18      9 ;     0.00   0.50208   3 ;     H7-    C4-    C6-   H12
    14      4      6     17      9 ;     0.00   0.50208   3 ;     H8-    C4-    C6-   H11
    14      4      6     18      9 ;     0.00   0.50208   3 ;     H8-    C4-    C6-   H12
    15      5      6     17      9 ;     0.00   0.50208   3 ;     H9-    C5-    C6-   H11
    15      5      6     18      9 ;     0.00   0.50208   3 ;     H9-    C5-    C6-   H12
    16      5      6     17      9 ;     0.00   0.50208   3 ;    H10-    C5-    C6-   H11
    16      5      6     18      9 ;     0.00   0.50208   3 ;    H10-    C5-    C6-   H12

[ dihedrals ] ; impropers
; treated as propers in GROMACS to use correct AMBER analytical function
;    i      j      k      l   func   phase     kd      pn
     1      4      2      9      4 ;   180.00   4.60240   2 ;     C1-    C4-    C2-    H3
     8      1      7      2      4 ;   180.00   4.60240   2 ;     H2-    C1-    H1-    C2
