hex_1_ene
    18
   0.9440000   0.3050000   0.2520000   1.1780000   1.2380000   1.1820000
  -1.0760000   2.5860000   5.4620000   0.1110000   2.0900000   1.8030000
  -1.0220000   2.7710000   3.9540000   0.0870000   1.9290000   3.3250000
   1.7610000  -0.2750000  -0.1620000  -0.0590000   0.1040000  -0.1100000
   2.2020000   1.4030000   1.5070000  -1.2680000   1.5400000   5.7220000
  -1.8780000   3.1950000   5.8910000  -0.1330000   2.8880000   5.9290000
  -0.8740000   1.8410000   1.3910000   0.3090000   3.1370000   1.5440000
  -1.9910000   2.4930000   3.5230000  -0.8580000   3.8320000   3.7280000
   1.0560000   2.2260000   3.7460000  -0.0640000   0.8730000   3.5830000
