; mobley_5310099_GMX_OPLS.top created by acpype (v: 2023.10.27) on Wed May 20 23:59:21 2026

; Include forcefield parameters
#include "ffoplsaa.itp"

; Include mobley_5310099_GMX.itp topology
#include "mobley_5310099_GMX.itp"

; Ligand position restraints
#ifdef POSRES_LIG
#include "posre_mobley_5310099.itp"
#endif

[ system ]
 mobley_5310099

[ molecules ]
; Compound        nmols
 mobley_5310099   1     
