mobley_7463799_GMX.gro created by acpype (v: 2023.10.27) on Wed May 20 23:45:49 2026
 22
    1  MOL   C1    1   0.189  -0.104  -0.011
    1  MOL   C2    2   0.082  -0.044   0.056
    1  MOL   C3    3   0.294  -0.160   0.061
    1  MOL   C4    4   0.080  -0.041   0.196
    1  MOL   C5    5   0.292  -0.157   0.201
    1  MOL   C6    6   0.185  -0.098   0.268
    1  MOL   C7    7   0.183  -0.094   0.417
    1  MOL   C8    8   0.251   0.031   0.473
    1  MOL   C9    9   0.253   0.032   0.625
    1  MOL   O1   10   0.316   0.152   0.670
    1  MOL   H1   11   0.190  -0.106  -0.120
    1  MOL   H2   12   0.000   0.000  -0.000
    1  MOL   H3   13   0.377  -0.207   0.009
    1  MOL   H4   14  -0.004   0.006   0.247
    1  MOL   H5   15   0.374  -0.202   0.256
    1  MOL   H6   16   0.233  -0.184   0.458
    1  MOL   H7   17   0.080  -0.100   0.454
    1  MOL   H8   18   0.200   0.121   0.437
    1  MOL   H9   19   0.354   0.039   0.435
    1  MOL  H10   20   0.152   0.029   0.666
    1  MOL  H11   21   0.310  -0.053   0.664
    1  MOL  H12   22   0.306   0.217   0.599
    7.60000     8.47000    15.78800
