; mobley_7463799_GMX_OPLS.top created by acpype (v: 2023.10.27) on Wed May 20 23:45:49 2026

; Include forcefield parameters
#include "ffoplsaa.itp"

; Include mobley_7463799_GMX.itp topology
#include "mobley_7463799_GMX.itp"

; Ligand position restraints
#ifdef POSRES_LIG
#include "posre_mobley_7463799.itp"
#endif

[ system ]
 mobley_7463799

[ molecules ]
; Compound        nmols
 mobley_7463799   1     
