3_phenylpropanol
    22
   1.8850000  -1.0380000  -0.1090000   0.8180000  -0.4410000   0.5630000
   2.9350000  -1.6040000   0.6140000   0.8010000  -0.4100000   1.9570000
   2.9180000  -1.5730000   2.0080000   1.8510000  -0.9770000   2.6800000
   1.8330000  -0.9440000   4.1710000   2.5090000   0.3130000   4.7320000
   2.5330000   0.3200000   6.2540000   3.1590000   1.5160000   6.6990000
   1.8980000  -1.0610000  -1.1950000   0.0000000   0.0000000  -0.0000000
   3.7650000  -2.0680000   0.0910000  -0.0350000   0.0570000   2.4720000
   3.7400000  -2.0170000   2.5630000   2.3300000  -1.8410000   4.5770000
   0.7950000  -0.9980000   4.5390000   1.9950000   1.2140000   4.3730000
   3.5360000   0.3930000   4.3540000   1.5170000   0.2860000   6.6610000
   3.0990000  -0.5340000   6.6400000   3.0580000   2.1670000   5.9850000
