%VERSION  VERSION_STAMP = V0001.000  DATE = 05/20/26  23:45:54                  
%FLAG TITLE                                                                     
%FORMAT(20a4)                                                                   
3_phenylpropanol                                                                
%FLAG POINTERS                                                                  
%FORMAT(10I8)                                                                   
      22       7      12      10      26      11      44      13       0       0
     110       1      10      11      13       8      13      11       7       0
       0       0       0       0       0       0       0       0      22       0
       0
%FLAG ATOM_NAME                                                                 
%FORMAT(20a4)                                                                   
C1  C2  C3  C4  C5  C6  C7  C8  C9  O1  H1  H2  H3  H4  H5  H6  H7  H8  H9  H10 
H11 H12 
%FLAG CHARGE                                                                    
%FORMAT(5E16.8)                                                                 
 -2.38712130E+00 -2.32334325E+00 -2.32334325E+00 -2.31423210E+00 -2.31423210E+00
 -1.46325069E+00 -6.03158130E-01 -2.13929802E+00  2.30329872E+00 -1.08932909E+01
  2.38712130E+00  2.38712130E+00  2.38712130E+00  2.38712130E+00  2.38712130E+00
  8.96537160E-01  8.96537160E-01  9.42092910E-01  9.42092910E-01  8.05425660E-01
  8.05425660E-01  7.23425310E+00
%FLAG ATOMIC_NUMBER                                                             
%FORMAT(10I8)                                                                   
       6       6       6       6       6       6       6       6       6       8
       1       1       1       1       1       1       1       1       1       1
       1       1
%FLAG MASS                                                                      
%FORMAT(5E16.8)                                                                 
  1.20100000E+01  1.20100000E+01  1.20100000E+01  1.20100000E+01  1.20100000E+01
  1.20100000E+01  1.20100000E+01  1.20100000E+01  1.20100000E+01  1.60000000E+01
  1.00800000E+00  1.00800000E+00  1.00800000E+00  1.00800000E+00  1.00800000E+00
  1.00800000E+00  1.00800000E+00  1.00800000E+00  1.00800000E+00  1.00800000E+00
  1.00800000E+00  1.00800000E+00
%FLAG ATOM_TYPE_INDEX                                                           
%FORMAT(10I8)                                                                   
       1       1       1       1       1       1       2       2       2       3
       4       4       4       4       4       5       5       5       5       6
       6       7
%FLAG NUMBER_EXCLUDED_ATOMS                                                     
%FORMAT(10I8)                                                                   
      10       9       8      10       9      11      11       9       8       5
       2       1       1       1       1       3       2       3       2       2
       1       1
%FLAG NONBONDED_PARM_INDEX                                                      
%FORMAT(10I8)                                                                   
       1       2       4       7      11      16      22       2       3       5
       8      12      17      23       4       5       6       9      13      18
      24       7       8       9      10      14      19      25      11      12
      13      14      15      20      26      16      17      18      19      20
      21      27      22      23      24      25      26      27      28
%FLAG RESIDUE_LABEL                                                             
%FORMAT(20a4)                                                                   
MOL 
%FLAG RESIDUE_POINTER                                                           
%FORMAT(10I8)                                                                   
       1
%FLAG BOND_FORCE_CONSTANT                                                       
%FORMAT(5E16.8)                                                                 
  3.54250000E+02  3.60690000E+02  2.43910000E+02  2.28890000E+02  3.45250000E+02
  2.85150000E+02  3.44220000E+02  5.35510000E+02
%FLAG BOND_EQUIL_VALUE                                                          
%FORMAT(5E16.8)                                                                 
  1.39860000E+00  1.08600000E+00  1.51470000E+00  1.53540000E+00  1.09620000E+00
  1.42420000E+00  1.09690000E+00  9.72500000E-01
%FLAG ANGLE_FORCE_CONSTANT                                                      
%FORMAT(5E16.8)                                                                 
  6.36700000E+01  4.49000000E+01  6.07400000E+01  6.03300000E+01  4.36100000E+01
  5.98700000E+01  4.32700000E+01  7.67900000E+01  4.32800000E+01  6.51300000E+01
  5.62900000E+01  3.58000000E+01  3.56400000E+01
%FLAG ANGLE_EQUIL_VALUE                                                         
%FORMAT(5E16.8)                                                                 
  2.09474507E+00  2.09230160E+00  2.10888224E+00  1.96209999E+00  1.93085858E+00
  1.96576518E+00  1.91427794E+00  1.91392888E+00  1.91270715E+00  1.87430989E+00
  1.92649525E+00  1.88024401E+00  1.89455572E+00
%FLAG DIHEDRAL_FORCE_CONSTANT                                                   
%FORMAT(5E16.8)                                                                 
  3.62500000E+00  2.40000000E-01  0.00000000E+00  1.55555556E-01  1.80000000E-01
  6.00000000E-02  1.30000000E-01  9.00000000E-02  1.20000000E-01  1.23000000E-01
  1.10000000E+00
%FLAG DIHEDRAL_PERIODICITY                                                      
%FORMAT(5E16.8)                                                                 
  2.00000000E+00  2.00000000E+00  1.00000000E+00  3.00000000E+00  3.00000000E+00
  3.00000000E+00  3.00000000E+00  3.00000000E+00  3.00000000E+00  3.00000000E+00
  2.00000000E+00
%FLAG DIHEDRAL_PHASE                                                            
%FORMAT(5E16.8)                                                                 
  3.14159400E+00  3.14159400E+00  0.00000000E+00  0.00000000E+00  0.00000000E+00
  0.00000000E+00  0.00000000E+00  0.00000000E+00  0.00000000E+00  0.00000000E+00
  3.14159400E+00
%FLAG SCEE_SCALE_FACTOR                                                         
%FORMAT(5E16.8)                                                                 
  1.20000000E+00  1.20000000E+00  1.20000000E+00  1.20000000E+00  1.20000000E+00
  1.20000000E+00  1.20000000E+00  1.20000000E+00  1.20000000E+00  1.20000000E+00
  0.00000000E+00
%FLAG SCNB_SCALE_FACTOR                                                         
%FORMAT(5E16.8)                                                                 
  2.00000000E+00  2.00000000E+00  2.00000000E+00  2.00000000E+00  2.00000000E+00
  2.00000000E+00  2.00000000E+00  2.00000000E+00  2.00000000E+00  2.00000000E+00
  0.00000000E+00
%FLAG SOLTY                                                                     
%FORMAT(5E16.8)                                                                 
  0.00000000E+00  0.00000000E+00  0.00000000E+00  0.00000000E+00  0.00000000E+00
  0.00000000E+00  0.00000000E+00
%FLAG LENNARD_JONES_ACOEF                                                       
%FORMAT(5E16.8)                                                                 
  6.96551276E+05  8.43969952E+05  1.02073671E+06  5.92438683E+05  7.18991463E+05
  5.03152404E+05  7.52549148E+04  9.27554496E+04  6.30298721E+04  6.90855956E+03
  8.12662403E+04  1.00235148E+05  6.80216136E+04  7.41026906E+03  7.94617769E+03
  5.63013422E+04  6.97998263E+04  4.69084694E+04  4.88692384E+03  5.22955465E+03
  3.39005767E+03  2.25372434E+02  3.03553352E+02  1.74176419E+02  8.53132435E+00
  8.80612241E+00  4.36660257E+00  1.10360882E-05
%FLAG LENNARD_JONES_BCOEF                                                       
%FORMAT(5E16.8)                                                                 
  5.24668528E+02  5.90251928E+02  6.63431737E+02  4.76608379E+02  5.36620538E+02
  4.32634597E+02  1.09570372E+02  1.24325688E+02  9.87712192E+01  2.10929191E+01
  1.21392023E+02  1.37787728E+02  1.09393126E+02  2.32899892E+01  2.57122925E+01
  1.01040256E+02  1.14981426E+02  9.08431526E+01  1.89134207E+01  2.08590256E+01
  1.67944276E+01  4.40751799E+00  5.22789272E+00  3.81654050E+00  5.44840215E-01
  5.90150328E-01  4.15568027E-01  4.55498033E-04
%FLAG BONDS_INC_HYDROGEN                                                        
%FORMAT(10I8)                                                                   
       0      30       2       3      33       2       6      36       2       9
      39       2      12      42       2      18      45       5      18      48
       5      21      51       5      21      54       5      24      57       7
      24      60       7      27      63       8
%FLAG BONDS_WITHOUT_HYDROGEN                                                    
%FORMAT(10I8)                                                                   
       0       3       1       0       6       1       3       9       1       6
      12       1       9      15       1      12      15       1      15      18
       3      18      21       4      21      24       4      24      27       6
%FLAG ANGLES_INC_HYDROGEN                                                       
%FORMAT(10I8)                                                                   
       0       3      33       2       0       6      36       2       3       0
      30       2       3       9      39       2       6       0      30       2
       6      12      42       2       9       3      33       2      12       6
      36       2      15       9      39       2      15      12      42       2
      15      18      45       5      15      18      48       5      18      21
      51       7      18      21      54       7      21      18      45       7
      21      18      48       7      21      24      57       9      21      24
      60       9      24      21      51       7      24      21      54       7
      24      27      63      10      27      24      57      11      27      24
      60      11      45      18      48      12      51      21      54      12
      57      24      60      13
%FLAG ANGLES_WITHOUT_HYDROGEN                                                   
%FORMAT(10I8)                                                                   
       0       3       9       1       0       6      12       1       3       0
       6       1       3       9      15       1       6      12      15       1
       9      15      12       1       9      15      18       3      12      15
      18       3      15      18      21       4      18      21      24       6
      21      24      27       8
%FLAG DIHEDRALS_INC_HYDROGEN                                                    
%FORMAT(10I8)                                                                   
       0       3       9      39       1       0       6      12      42       1
       3       0       6      36       1       6       0       3      33       1
      30       0       3       9       1       9      15      12      42       1
       9      15      18      45       3       9      15      18      48       3
      30       0       6      12       1      12      15       9      39       1
      12      15      18      45       3      12      15      18      48       3
      15       9       3      33       1      15      12       6      36       1
      15      18      21      51       4      15      18      21      54       4
      18      15       9      39       1      18      15      12      42       1
      18      21      24      57       4      18      21      24      60       4
      21      24      27      63       6      24      21      18      45       7
      24      21      18      48       7      27      24      21      51       8
      27      24      21      54       8      30       0       3      33       1
      30       0       6      36       1      33       3       9      39       1
      36       6      12      42       1      45      18      21      51       9
      45      18      21      54       9      48      18      21      51       9
      48      18      21      54       9      51      21      24      57       4
      51      21      24      60       4      54      21      24      57       4
      54      21      24      60       4      57      24      27      63      10
      60      24      27      63      10      30       0      -6      -3      11
       0       9      -3     -33      11       0      12      -6     -36      11
       3      15      -9     -39      11       6      15     -12     -42      11
%FLAG DIHEDRALS_WITHOUT_HYDROGEN                                                
%FORMAT(10I8)                                                                   
       0       3       9      15       1       0       6     -12      15       1
       3       0       6      12       1       3       9     -15      12       1
       3       9      15      18       1       6       0       3       9       1
       6      12     -15       9       1       6      12      15      18       1
       9      15      18      21       2      12      15      18      21       2
      15      18      21      24       4      18      21      24      27       5
       9      12     -15     -18      11
%FLAG EXCLUDED_ATOMS_LIST                                                       
%FORMAT(10I8)                                                                   
       2       3       4       5       6      11      12      13      14      15
       3       4       5       6       7      11      12      13      14       4
       5       6       7      11      12      13      15       5       6       7
       8      11      12      14      15      16      17       6       7       8
      11      13      14      15      16      17       7       8       9      12
      13      14      15      16      17      18      19       8       9      10
      14      15      16      17      18      19      20      21       9      10
      16      17      18      19      20      21      22      10      16      17
      18      19      20      21      22      18      19      20      21      22
      12      13      14      15       0       0      17      18      19      18
      19      19      20      21      20      21      21      22      22       0
%FLAG HBOND_ACOEF                                                               
%FORMAT(5E16.8)                                                                 

%FLAG HBOND_BCOEF                                                               
%FORMAT(5E16.8)                                                                 

%FLAG HBCUT                                                                     
%FORMAT(5E16.8)                                                                 

%FLAG AMBER_ATOM_TYPE                                                           
%FORMAT(20a4)                                                                   
ca  ca  ca  ca  ca  ca  c3  c3  c3  oh  ha  ha  ha  ha  ha  hc  hc  hc  hc  h1  
h1  ho  
%FLAG TREE_CHAIN_CLASSIFICATION                                                 
%FORMAT(20a4)                                                                   
BLA BLA BLA BLA BLA BLA BLA BLA BLA BLA BLA BLA BLA BLA BLA BLA BLA BLA BLA BLA 
BLA BLA 
%FLAG JOIN_ARRAY                                                                
%FORMAT(10I8)                                                                   
       0       0       0       0       0       0       0       0       0       0
       0       0       0       0       0       0       0       0       0       0
       0       0
%FLAG IROTAT                                                                    
%FORMAT(10I8)                                                                   
       0       0       0       0       0       0       0       0       0       0
       0       0       0       0       0       0       0       0       0       0
       0       0
%FLAG RADIUS_SET                                                                
%FORMAT(1a80)                                                                   
modified Bondi radii (mbondi)                                                   
%FLAG RADII                                                                     
%FORMAT(5E16.8)                                                                 
  1.70000000E+00  1.70000000E+00  1.70000000E+00  1.70000000E+00  1.70000000E+00
  1.70000000E+00  1.70000000E+00  1.70000000E+00  1.70000000E+00  1.50000000E+00
  1.30000000E+00  1.30000000E+00  1.30000000E+00  1.30000000E+00  1.30000000E+00
  1.30000000E+00  1.30000000E+00  1.30000000E+00  1.30000000E+00  1.30000000E+00
  1.30000000E+00  8.00000000E-01
%FLAG SCREEN                                                                    
%FORMAT(5E16.8)                                                                 
  7.20000000E-01  7.20000000E-01  7.20000000E-01  7.20000000E-01  7.20000000E-01
  7.20000000E-01  7.20000000E-01  7.20000000E-01  7.20000000E-01  8.50000000E-01
  8.50000000E-01  8.50000000E-01  8.50000000E-01  8.50000000E-01  8.50000000E-01
  8.50000000E-01  8.50000000E-01  8.50000000E-01  8.50000000E-01  8.50000000E-01
  8.50000000E-01  8.50000000E-01
%FLAG IPOL                                                                      
%FORMAT(1I8)                                                                    
       0
