%VERSION  VERSION_STAMP = V0001.000  DATE = 05/20/26  23:59:14                  
%FLAG TITLE                                                                     
%FORMAT(20a4)                                                                   
CUP08053_AM1BCC_v1_0                                                            
%FLAG POINTERS                                                                  
%FORMAT(10I8)                                                                   
      35       8      19      16      39      22      53      25       0       0
     172       1      16      22      25       9      16       9       8       0
       0       0       0       0       0       0       0       0      35       0
       0
%FLAG ATOM_NAME                                                                 
%FORMAT(20a4)                                                                   
C1  C2  C3  C4  C5  C6  C7  C8  C9  C10 N1  N2  N3  N4  N5  S1  H1  H2  H3  H4  
H5  H6  H7  H8  H9  H10 H11 H12 H13 H14 H15 H16 H17 H18 H19 
%FLAG CHARGE                                                                    
%FORMAT(5E16.8)                                                                 
  1.69084722E+01  1.71089175E+01  1.46015290E+01 -2.04271983E+00 -1.93338603E+00
 -1.93338603E+00 -1.93338603E+00 -1.22089410E+00  3.93237234E+00  4.50455256E+00
 -1.53249543E+01 -1.47418407E+01 -1.55071773E+01 -1.54506882E+01 -1.52866875E+01
 -3.61530432E+00  8.26691084E-01  8.26691084E-01  8.26691084E-01  8.30736435E-01
  8.30736435E-01  8.30736435E-01  8.30736435E-01  8.30736435E-01  8.30736435E-01
  8.30736435E-01  8.30736435E-01  8.30736435E-01  1.36120581E+00  1.36120581E+00
  1.36120581E+00  9.23870610E-01  9.23870610E-01  8.08705674E+00  7.95950064E+00
%FLAG ATOMIC_NUMBER                                                             
%FORMAT(10I8)                                                                   
       6       6       6       6       6       6       6       6       6       6
       7       7       7       7       7      16       1       1       1       1
       1       1       1       1       1       1       1       1       1       1
       1       1       1       1       1
%FLAG MASS                                                                      
%FORMAT(5E16.8)                                                                 
  1.20100000E+01  1.20100000E+01  1.20100000E+01  1.20100000E+01  1.20100000E+01
  1.20100000E+01  1.20100000E+01  1.20100000E+01  1.20100000E+01  1.20100000E+01
  1.40100000E+01  1.40100000E+01  1.40100000E+01  1.40100000E+01  1.40100000E+01
  3.20600000E+01  1.00800000E+00  1.00800000E+00  1.00800000E+00  1.00800000E+00
  1.00800000E+00  1.00800000E+00  1.00800000E+00  1.00800000E+00  1.00800000E+00
  1.00800000E+00  1.00800000E+00  1.00800000E+00  1.00800000E+00  1.00800000E+00
  1.00800000E+00  1.00800000E+00  1.00800000E+00  1.00800000E+00  1.00800000E+00
%FLAG ATOM_TYPE_INDEX                                                           
%FORMAT(10I8)                                                                   
       1       1       1       2       2       2       2       2       2       2
       3       3       3       4       4       5       6       6       6       6
       6       6       6       6       6       6       6       6       7       7
       7       7       7       8       8
%FLAG NUMBER_EXCLUDED_ATOMS                                                     
%FORMAT(10I8)                                                                   
      13      12      10       8      14      13      12       6       9      13
       6       4       3       6      10       3       4       3       2       2
       1       1       2       1       1       2       1       1       2       1
       1       2       1       1       1
%FLAG NONBONDED_PARM_INDEX                                                      
%FORMAT(10I8)                                                                   
       1       2       4       7      11      16      22      29       2       3
       5       8      12      17      23      30       4       5       6       9
      13      18      24      31       7       8       9      10      14      19
      25      32      11      12      13      14      15      20      26      33
      16      17      18      19      20      21      27      34      22      23
      24      25      26      27      28      35      29      30      31      32
      33      34      35      36
%FLAG RESIDUE_LABEL                                                             
%FORMAT(20a4)                                                                   
MOL 
%FLAG RESIDUE_POINTER                                                           
%FORMAT(10I8)                                                                   
       1
%FLAG BOND_FORCE_CONSTANT                                                       
%FORMAT(5E16.8)                                                                 
  3.86490000E+02  3.19920000E+02  2.13480000E+02  2.28890000E+02  3.45250000E+02
  1.84740000E+02  3.44220000E+02  2.58820000E+02  4.72490000E+02
%FLAG BOND_EQUIL_VALUE                                                          
%FORMAT(5E16.8)                                                                 
  1.33920000E+00  1.39440000E+00  1.78470000E+00  1.53540000E+00  1.09620000E+00
  1.84070000E+00  1.09690000E+00  1.45900000E+00  1.01370000E+00
%FLAG ANGLE_FORCE_CONSTANT                                                      
%FORMAT(5E16.8)                                                                 
  8.31500000E+01  7.59000000E+01  5.74600000E+01  9.27200000E+01  6.57100000E+01
  4.32800000E+01  5.98700000E+01  4.32700000E+01  5.50000000E+01  7.27600000E+01
  7.42500000E+01  6.79300000E+01  4.80400000E+01  4.20600000E+01  3.58000000E+01
  3.56400000E+01
%FLAG ANGLE_EQUIL_VALUE                                                         
%FORMAT(5E16.8)                                                                 
  2.04622489E+00  2.15949681E+00  2.00241711E+00  1.78948685E+00  1.92911325E+00
  1.91270715E+00  1.96576518E+00  1.91427794E+00  2.01254002E+00  2.22180509E+00
  2.04500316E+00  2.06839058E+00  1.91392888E+00  1.89769731E+00  1.88024401E+00
  1.89455572E+00
%FLAG DIHEDRAL_FORCE_CONSTANT                                                   
%FORMAT(5E16.8)                                                                 
  4.80000000E+00  0.00000000E+00  4.20000000E-01  3.33333333E-01  1.30000000E-01
  4.00000000E-01  1.05000000E+00  1.55555556E-01  1.10000000E+00
%FLAG DIHEDRAL_PERIODICITY                                                      
%FORMAT(5E16.8)                                                                 
  2.00000000E+00  2.00000000E+00  3.00000000E+00  3.00000000E+00  3.00000000E+00
  2.00000000E+00  2.00000000E+00  3.00000000E+00  2.00000000E+00
%FLAG DIHEDRAL_PHASE                                                            
%FORMAT(5E16.8)                                                                 
  3.14159400E+00  0.00000000E+00  0.00000000E+00  0.00000000E+00  0.00000000E+00
  3.14159400E+00  3.14159400E+00  0.00000000E+00  3.14159400E+00
%FLAG SCEE_SCALE_FACTOR                                                         
%FORMAT(5E16.8)                                                                 
  1.20000000E+00  1.20000000E+00  1.20000000E+00  1.20000000E+00  1.20000000E+00
  1.20000000E+00  1.20000000E+00  1.20000000E+00  0.00000000E+00
%FLAG SCNB_SCALE_FACTOR                                                         
%FORMAT(5E16.8)                                                                 
  2.00000000E+00  2.00000000E+00  2.00000000E+00  2.00000000E+00  2.00000000E+00
  2.00000000E+00  2.00000000E+00  2.00000000E+00  0.00000000E+00
%FLAG SOLTY                                                                     
%FORMAT(5E16.8)                                                                 
  0.00000000E+00  0.00000000E+00  0.00000000E+00  0.00000000E+00  0.00000000E+00
  0.00000000E+00  0.00000000E+00  0.00000000E+00
%FLAG LENNARD_JONES_ACOEF                                                       
%FORMAT(5E16.8)                                                                 
  6.96551276E+05  8.43969952E+05  1.02073671E+06  7.69642101E+05  9.31115275E+05
  8.49322032E+05  8.15700858E+05  9.89136215E+05  9.01905150E+05  9.54886922E+05
  1.73376823E+06  2.09089895E+06  1.90820499E+06  2.03458349E+06  4.26366419E+06
  8.12662403E+04  1.00235148E+05  9.11435380E+04  9.44129241E+04  2.11783234E+05
  7.94617769E+03  5.63013422E+04  6.97998263E+04  6.34160397E+04  6.52595638E+04
  1.48672098E+05  5.22955465E+03  3.39005767E+03  1.71458823E+03  2.23577481E+03
  2.01475241E+03  1.94284817E+03  5.15374979E+03  9.47421632E+01  5.24570081E+01
  1.34728399E-01
%FLAG LENNARD_JONES_BCOEF                                                       
%FORMAT(5E16.8)                                                                 
  5.24668528E+02  5.90251928E+02  6.63431737E+02  5.44830041E+02  6.12468585E+02
  5.65406768E+02  6.34916791E+02  7.14570130E+02  6.59538202E+02  7.68192761E+02
  1.07629402E+03  1.20800124E+03  1.11546536E+03  1.30381522E+03  2.19459223E+03
  1.21392023E+02  1.37787728E+02  1.27000718E+02  1.46316625E+02  2.54804909E+02
  2.57122925E+01  1.01040256E+02  1.14981426E+02  1.05935811E+02  1.21646616E+02
  2.13489607E+02  2.08590256E+01  1.67944276E+01  1.46824710E+01  1.71355763E+01
  1.57231024E+01  1.74775900E+01  3.30984635E+01  2.33785449E+00  1.73959275E+00
  7.34107347E-02
%FLAG BONDS_INC_HYDROGEN                                                        
%FORMAT(10I8)                                                                   
       9      48       5       9      51       5       9      54       5      12
      57       5      12      60       5      12      63       5      15      66
       5      15      69       5      15      72       5      18      75       5
      18      78       5      18      81       5      21      84       7      21
      87       7      21      90       7      24      93       7      24      96
       7      39      99       9      42     102       9
%FLAG BONDS_WITHOUT_HYDROGEN                                                    
%FORMAT(10I8)                                                                   
       0      30       1       0      33       1       0      39       2       3
      30       1       3      36       1       3      42       2       6      33
       1       6      36       1       6      45       3       9      24       4
      12      27       4      15      27       4      18      27       4      21
      45       6      24      39       8      27      42       8
%FLAG ANGLES_INC_HYDROGEN                                                       
%FORMAT(10I8)                                                                   
       0      39      99       3       3      42     102       3       9      24
      93       6       9      24      96       6      24       9      48       8
      24       9      51       8      24       9      54       8      24      39
      99       9      27      12      57       8      27      12      60       8
      27      12      63       8      27      15      66       8      27      15
      69       8      27      15      72       8      27      18      75       8
      27      18      78       8      27      18      81       8      27      42
     102       9      39      24      93      13      39      24      96      13
      45      21      84      14      45      21      87      14      45      21
      90      14      48       9      51      15      48       9      54      15
      51       9      54      15      57      12      60      15      57      12
      63      15      60      12      63      15      66      15      69      15
      66      15      72      15      69      15      72      15      75      18
      78      15      75      18      81      15      78      18      81      15
      84      21      87      16      84      21      90      16      87      21
      90      16      93      24      96      16
%FLAG ANGLES_WITHOUT_HYDROGEN                                                   
%FORMAT(10I8)                                                                   
       0      30       3       1       0      33       6       1       0      39
      24       2       3      36       6       1       3      42      27       2
       6      45      21       4       9      24      39       5      12      27
      15       7      12      27      18       7      12      27      42       5
      15      27      18       7      15      27      42       5      18      27
      42       5      30       0      33      10      30       0      39      11
      30       3      36      10      30       3      42      11      33       0
      39      11      33       6      36      10      33       6      45      12
      36       3      42      11      36       6      45      12
%FLAG DIHEDRALS_INC_HYDROGEN                                                    
%FORMAT(10I8)                                                                   
       0      39      24      93       3       0      39      24      96       3
       6      45      21      84       4       6      45      21      87       4
       6      45      21      90       4       9      24      39      99       2
      12      27      15      66       5      12      27      15      69       5
      12      27      15      72       5      12      27      18      75       5
      12      27      18      78       5      12      27      18      81       5
      12      27      42     102       2      15      27      12      57       5
      15      27      12      60       5      15      27      12      63       5
      15      27      18      75       5      15      27      18      78       5
      15      27      18      81       5      15      27      42     102       2
      18      27      12      57       5      18      27      12      60       5
      18      27      12      63       5      18      27      15      66       5
      18      27      15      69       5      18      27      15      72       5
      18      27      42     102       2      30       0      39      99       7
      30       3      42     102       7      33       0      39      99       7
      36       3      42     102       7      39      24       9      48       8
      39      24       9      51       8      39      24       9      54       8
      42      27      12      57       8      42      27      12      60       8
      42      27      12      63       8      42      27      15      66       8
      42      27      15      69       8      42      27      15      72       8
      42      27      18      75       8      42      27      18      78       8
      42      27      18      81       8      48       9      24      93       8
      48       9      24      96       8      51       9      24      93       8
      51       9      24      96       8      54       9      24      93       8
      54       9      24      96       8      93      24      39      99       2
      96      24      39      99       2      24       0     -39     -99       9
      27       3     -42    -102       9
%FLAG DIHEDRALS_WITHOUT_HYDROGEN                                                
%FORMAT(10I8)                                                                   
       0      30       3      36       1       0      30       3      42       1
       0      33      -6      36       1       0      33       6      45       1
       0      39      24       9       2      33       0      30       3       1
      39       0      30       3       1       3      36      -6      33       1
       3      36       6      45       1       3      42      27      12       2
       3      42      27      15       2       3      42      27      18       2
      30       0      33       6       1      39       0      33       6       1
       6      36      -3      30       1       6      36       3      42       1
      21      45       6      33       6      21      45       6      36       6
      30       0      39      24       7      33       0      39      24       7
      27      42       3      30       7      27      42       3      36       7
      39       0     -33     -30       9      30      36      -3     -42       9
      33      36      -6     -45       9
%FLAG EXCLUDED_ATOMS_LIST                                                       
%FORMAT(10I8)                                                                   
       2       3       4       9      11      12      13      14      15      16
      32      33      34       3       5       6       7      10      11      12
      13      14      15      16      35       8      11      12      13      14
      15      16      29      30      31       9      14      17      18      19
      32      33      34       6       7      10      15      20      21      22
      23      24      25      26      27      28      35       7      10      15
      20      21      22      23      24      25      26      27      28      35
      10      15      20      21      22      23      24      25      26      27
      28      35      12      13      16      29      30      31      11      12
      14      17      18      19      32      33      34      11      13      15
      20      21      22      23      24      25      26      27      28      35
      12      13      14      15      34      35      13      14      16      34
      15      16      35      17      18      19      32      33      34      20
      21      22      23      24      25      26      27      28      35      29
      30      31      18      19      32      33      19      32      33      32
      33      21      22      22       0      24      25      25       0      27
      28      28       0      30      31      31       0      33      34      34
       0       0
%FLAG HBOND_ACOEF                                                               
%FORMAT(5E16.8)                                                                 

%FLAG HBOND_BCOEF                                                               
%FORMAT(5E16.8)                                                                 

%FLAG HBCUT                                                                     
%FORMAT(5E16.8)                                                                 

%FLAG AMBER_ATOM_TYPE                                                           
%FORMAT(20a4)                                                                   
ca  ca  ca  c3  c3  c3  c3  c3  c3  c3  nb  nb  nb  nu  nu  ss  hc  hc  hc  hc  
hc  hc  hc  hc  hc  hc  hc  hc  h1  h1  h1  h1  h1  hn  hn  
%FLAG TREE_CHAIN_CLASSIFICATION                                                 
%FORMAT(20a4)                                                                   
BLA BLA BLA BLA BLA BLA BLA BLA BLA BLA BLA BLA BLA BLA BLA BLA BLA BLA BLA BLA 
BLA BLA BLA BLA BLA BLA BLA BLA BLA BLA BLA BLA BLA BLA BLA 
%FLAG JOIN_ARRAY                                                                
%FORMAT(10I8)                                                                   
       0       0       0       0       0       0       0       0       0       0
       0       0       0       0       0       0       0       0       0       0
       0       0       0       0       0       0       0       0       0       0
       0       0       0       0       0
%FLAG IROTAT                                                                    
%FORMAT(10I8)                                                                   
       0       0       0       0       0       0       0       0       0       0
       0       0       0       0       0       0       0       0       0       0
       0       0       0       0       0       0       0       0       0       0
       0       0       0       0       0
%FLAG RADIUS_SET                                                                
%FORMAT(1a80)                                                                   
modified Bondi radii (mbondi)                                                   
%FLAG RADII                                                                     
%FORMAT(5E16.8)                                                                 
  1.70000000E+00  1.70000000E+00  1.70000000E+00  1.70000000E+00  1.70000000E+00
  1.70000000E+00  1.70000000E+00  1.70000000E+00  1.70000000E+00  1.70000000E+00
  1.55000000E+00  1.55000000E+00  1.55000000E+00  1.55000000E+00  1.55000000E+00
  1.80000000E+00  1.30000000E+00  1.30000000E+00  1.30000000E+00  1.30000000E+00
  1.30000000E+00  1.30000000E+00  1.30000000E+00  1.30000000E+00  1.30000000E+00
  1.30000000E+00  1.30000000E+00  1.30000000E+00  1.30000000E+00  1.30000000E+00
  1.30000000E+00  1.30000000E+00  1.30000000E+00  1.30000000E+00  1.30000000E+00
%FLAG SCREEN                                                                    
%FORMAT(5E16.8)                                                                 
  7.20000000E-01  7.20000000E-01  7.20000000E-01  7.20000000E-01  7.20000000E-01
  7.20000000E-01  7.20000000E-01  7.20000000E-01  7.20000000E-01  7.20000000E-01
  7.90000000E-01  7.90000000E-01  7.90000000E-01  7.90000000E-01  7.90000000E-01
  9.60000000E-01  8.50000000E-01  8.50000000E-01  8.50000000E-01  8.50000000E-01
  8.50000000E-01  8.50000000E-01  8.50000000E-01  8.50000000E-01  8.50000000E-01
  8.50000000E-01  8.50000000E-01  8.50000000E-01  8.50000000E-01  8.50000000E-01
  8.50000000E-01  8.50000000E-01  8.50000000E-01  8.50000000E-01  8.50000000E-01
%FLAG IPOL                                                                      
%FORMAT(1I8)                                                                    
       0
