CUP08053_AM1BCC_v1_0
    35
   2.7760000  -3.6120000   4.1800000   1.4480000  -1.7920000   4.1040000
   1.1920000  -3.3150000   5.7210000   5.0740000  -5.3440000   1.8490000
   0.3950000   1.0380000   1.9010000   2.6300000  -0.0410000   1.7480000
   0.5280000  -1.3650000   1.2480000  -0.1600000  -2.3470000   7.9010000
   3.9700000  -4.3790000   2.2490000   1.1620000  -0.2810000   2.1320000
   2.4430000  -2.4820000   3.5710000   2.1710000  -4.0800000   5.2560000
   0.7830000  -2.1720000   5.1820000   3.8150000  -4.3960000   3.6920000
   1.0260000  -0.5970000   3.5560000   0.3430000  -3.9190000   7.1640000
   6.0250000  -5.0690000   2.3180000   4.8330000  -6.3670000   2.1580000
   5.2120000  -5.3380000   0.7640000  -0.6650000   0.9310000   2.1580000
   0.8000000   1.8450000   2.5220000   0.4540000   1.3570000   0.8540000
   3.2220000  -0.9600000   1.7630000   3.1060000   0.6700000   2.4320000
   2.7080000   0.3660000   0.7330000   1.0710000  -2.3150000   1.3060000
  -0.5090000  -1.5620000   1.5450000   0.5240000  -1.0610000   0.1950000
  -0.6280000  -2.5420000   8.8700000  -0.8900000  -1.8340000   7.2680000
   0.7060000  -1.6990000   8.0620000   3.0370000  -4.6780000   1.7560000
   4.2400000  -3.3760000   1.8990000   3.7000000  -5.3130000   4.1120000
   0.1160000  -0.4000000   3.9600000
