; mobley_6338073_GMX_OPLS.itp created by acpype (v: 2023.10.27) on Wed May 20 23:59:04 2026

; For OPLS atomtypes manual fine tuning
; AC_at:OPLS_at:OPLScode: Possible_Alternatives (see ffoplsaa.atp and ffoplsaanb.itp)
; ca:CA:opls_145: ['166', '501', '502']
; c3:CT:opls_135: ['136', '137', '149', '157', '158', '206', '209', '210', '223B', '224B', '245', '246', '274', '283', '284', '285', '292', '292B', '293B', '296', '307', '308', '505']
; nb:x:opls_x: []
; nu:x:opls_x: []
; ss:S:opls_202: []
; hc:HC:opls_140: []
; h1:HC:opls_140: []
; hn:H:opls_240: ['241', '290', '301', '304', '310', '504', '513']

[ moleculetype ]
;name            nrexcl
 mobley_6338073   3

[ atoms ]
;   nr  type  resi  res  atom  cgnr     charge      mass       ; qtot   bond_type
     1 opls_145     1   MOL    C1    1     0.927900     12.01100 ; qtot  0.928  CA  
     2 opls_145     1   MOL    C2    2     0.938898     12.01100 ; qtot  1.867  CA  
     3 opls_145     1   MOL    C3    3     0.801300     12.01100 ; qtot  2.668  CA  
     4 opls_135     1   MOL    C4    4    -0.112100     12.01100 ; qtot  2.556  CT  
     5 opls_135     1   MOL    C5    5    -0.106100     12.01100 ; qtot  2.450  CT  
     6 opls_135     1   MOL    C6    6    -0.106100     12.01100 ; qtot  2.344  CT  
     7 opls_135     1   MOL    C7    7    -0.106100     12.01100 ; qtot  2.238  CT  
     8 opls_135     1   MOL    C8    8    -0.067000     12.01100 ; qtot  2.171  CT  
     9 opls_135     1   MOL    C9    9     0.215800     12.01100 ; qtot  2.386  CT  
    10 opls_135     1   MOL   C10   10     0.247200     12.01100 ; qtot  2.634  CT  
    11 opls_x     1   MOL    N1   11    -0.841000      0.00000 ; qtot  1.793  x   
    12 opls_x     1   MOL    N2   12    -0.809000      0.00000 ; qtot  0.984  x   
    13 opls_x     1   MOL    N3   13    -0.851000      0.00000 ; qtot  0.133  x   
    14 opls_x     1   MOL    N4   14    -0.847900      0.00000 ; qtot -0.715  x   
    15 opls_x     1   MOL    N5   15    -0.838900      0.00000 ; qtot -1.554  x   
    16 opls_202     1   MOL    S1   16    -0.198400     32.06000 ; qtot -1.753  S   
    17 opls_140     1   MOL    H1   17     0.045367      1.00800 ; qtot -1.707  HC  
    18 opls_140     1   MOL    H2   18     0.045367      1.00800 ; qtot -1.662  HC  
    19 opls_140     1   MOL    H3   19     0.045367      1.00800 ; qtot -1.616  HC  
    20 opls_140     1   MOL    H4   20     0.045589      1.00800 ; qtot -1.571  HC  
    21 opls_140     1   MOL    H5   21     0.045589      1.00800 ; qtot -1.525  HC  
    22 opls_140     1   MOL    H6   22     0.045589      1.00800 ; qtot -1.480  HC  
    23 opls_140     1   MOL    H7   23     0.045589      1.00800 ; qtot -1.434  HC  
    24 opls_140     1   MOL    H8   24     0.045589      1.00800 ; qtot -1.388  HC  
    25 opls_140     1   MOL    H9   25     0.045589      1.00800 ; qtot -1.343  HC  
    26 opls_140     1   MOL   H10   26     0.045589      1.00800 ; qtot -1.297  HC  
    27 opls_140     1   MOL   H11   27     0.045589      1.00800 ; qtot -1.252  HC  
    28 opls_140     1   MOL   H12   28     0.045589      1.00800 ; qtot -1.206  HC  
    29 opls_140     1   MOL   H13   29     0.074700      1.00800 ; qtot -1.131  HC  
    30 opls_140     1   MOL   H14   30     0.074700      1.00800 ; qtot -1.057  HC  
    31 opls_140     1   MOL   H15   31     0.074700      1.00800 ; qtot -0.982  HC  
    32 opls_140     1   MOL   H16   32     0.050700      1.00800 ; qtot -0.931  HC  
    33 opls_140     1   MOL   H17   33     0.050700      1.00800 ; qtot -0.881  HC  
    34 opls_240     1   MOL   H18   34     0.443800      1.00800 ; qtot -0.437  H   
    35 opls_240     1   MOL   H19   35     0.436800      1.00800 ; qtot  0.000  H   

[ bonds ]
;   ai     aj funct   r             k
     1     11   1 ;    1.3392e-01    3.2341e+05 ;     C1 - N1         CA - x     
     1     12   1 ;    1.3392e-01    3.2341e+05 ;     C1 - N2         CA - x     
     1     14   1 ;    1.3944e-01    2.6771e+05 ;     C1 - N4         CA - x     
     2     11   1 ;    1.3392e-01    3.2341e+05 ;     C2 - N1         CA - x     
     2     13   1 ;    1.3392e-01    3.2341e+05 ;     C2 - N3         CA - x     
     2     15   1 ;    1.3944e-01    2.6771e+05 ;     C2 - N5         CA - x     
     3     12   1 ;    1.3392e-01    3.2341e+05 ;     C3 - N2         CA - x     
     3     13   1 ;    1.3392e-01    3.2341e+05 ;     C3 - N3         CA - x     
     3     16   1 ;    1.7847e-01    1.7864e+05 ;     C3 - S1         CA - S     
     4      9   1 ;    1.5354e-01    1.9154e+05 ;     C4 - C9         CT - CT    
     4     17   1 ;    1.0962e-01    2.8891e+05 ;     C4 - H1         CT - HC    
     4     18   1 ;    1.0962e-01    2.8891e+05 ;     C4 - H2         CT - HC    
     4     19   1 ;    1.0962e-01    2.8891e+05 ;     C4 - H3         CT - HC    
     5     10   1 ;    1.5354e-01    1.9154e+05 ;     C5 - C10        CT - CT    
     5     20   1 ;    1.0962e-01    2.8891e+05 ;     C5 - H4         CT - HC    
     5     21   1 ;    1.0962e-01    2.8891e+05 ;     C5 - H5         CT - HC    
     5     22   1 ;    1.0962e-01    2.8891e+05 ;     C5 - H6         CT - HC    
     6     10   1 ;    1.5354e-01    1.9154e+05 ;     C6 - C10        CT - CT    
     6     23   1 ;    1.0962e-01    2.8891e+05 ;     C6 - H7         CT - HC    
     6     24   1 ;    1.0962e-01    2.8891e+05 ;     C6 - H8         CT - HC    
     6     25   1 ;    1.0962e-01    2.8891e+05 ;     C6 - H9         CT - HC    
     7     10   1 ;    1.5354e-01    1.9154e+05 ;     C7 - C10        CT - CT    
     7     26   1 ;    1.0962e-01    2.8891e+05 ;     C7 - H10        CT - HC    
     7     27   1 ;    1.0962e-01    2.8891e+05 ;     C7 - H11        CT - HC    
     7     28   1 ;    1.0962e-01    2.8891e+05 ;     C7 - H12        CT - HC    
     8     16   1 ;    1.8407e-01    1.5459e+05 ;     C8 - S1         CT - S     
     8     29   1 ;    1.0969e-01    2.8804e+05 ;     C8 - H13        CT - HC    
     8     30   1 ;    1.0969e-01    2.8804e+05 ;     C8 - H14        CT - HC    
     8     31   1 ;    1.0969e-01    2.8804e+05 ;     C8 - H15        CT - HC    
     9     14   1 ;    1.4590e-01    2.1658e+05 ;     C9 - N4         CT - x     
     9     32   1 ;    1.0969e-01    2.8804e+05 ;     C9 - H16        CT - HC    
     9     33   1 ;    1.0969e-01    2.8804e+05 ;     C9 - H17        CT - HC    
    10     15   1 ;    1.4590e-01    2.1658e+05 ;    C10 - N5         CT - x     
    14     34   1 ;    1.0137e-01    3.9538e+05 ;     N4 - H18         x - H     
    15     35   1 ;    1.0137e-01    3.9538e+05 ;     N5 - H19         x - H     

[ pairs ]
;   ai     aj    funct
     1      4      1 ;     C1 - C4    
     1     13      1 ;     C1 - N3    
     1     15      1 ;     C1 - N5    
     1     16      1 ;     C1 - S1    
     1     32      1 ;     C1 - H16   
     1     33      1 ;     C1 - H17   
     2      5      1 ;     C2 - C5    
     2      6      1 ;     C2 - C6    
     2      7      1 ;     C2 - C7    
     2     16      1 ;     C2 - S1    
     3     15      1 ;     C3 - N5    
     3     29      1 ;     C3 - H13   
     3     30      1 ;     C3 - H14   
     3     31      1 ;     C3 - H15   
     4     34      1 ;     C4 - H18   
     5     23      1 ;     C5 - H7    
     5     24      1 ;     C5 - H8    
     5     25      1 ;     C5 - H9    
     5     26      1 ;     C5 - H10   
     5     27      1 ;     C5 - H11   
     5     28      1 ;     C5 - H12   
     5     35      1 ;     C5 - H19   
     6     20      1 ;     C6 - H4    
     6     21      1 ;     C6 - H5    
     6     22      1 ;     C6 - H6    
     6     26      1 ;     C6 - H10   
     6     27      1 ;     C6 - H11   
     6     28      1 ;     C6 - H12   
     6     35      1 ;     C6 - H19   
     7     20      1 ;     C7 - H4    
     7     21      1 ;     C7 - H5    
     7     22      1 ;     C7 - H6    
     7     23      1 ;     C7 - H7    
     7     24      1 ;     C7 - H8    
     7     25      1 ;     C7 - H9    
     7     35      1 ;     C7 - H19   
     8     12      1 ;     C8 - N2    
     8     13      1 ;     C8 - N3    
    10     11      1 ;    C10 - N1    
    10     13      1 ;    C10 - N3    
    11      3      1 ;     N1 - C3    
    11      9      1 ;     N1 - C9    
    11     34      1 ;     N1 - H18   
    11     35      1 ;     N1 - H19   
    12      2      1 ;     N2 - C2    
    12      9      1 ;     N2 - C9    
    12     34      1 ;     N2 - H18   
    13     35      1 ;     N3 - H19   
    14      2      1 ;     N4 - C2    
    14      3      1 ;     N4 - C3    
    14     17      1 ;     N4 - H1    
    14     18      1 ;     N4 - H2    
    14     19      1 ;     N4 - H3    
    15     20      1 ;     N5 - H4    
    15     21      1 ;     N5 - H5    
    15     22      1 ;     N5 - H6    
    15     23      1 ;     N5 - H7    
    15     24      1 ;     N5 - H8    
    15     25      1 ;     N5 - H9    
    15     26      1 ;     N5 - H10   
    15     27      1 ;     N5 - H11   
    15     28      1 ;     N5 - H12   
    17     32      1 ;     H1 - H16   
    17     33      1 ;     H1 - H17   
    18     32      1 ;     H2 - H16   
    18     33      1 ;     H2 - H17   
    19     32      1 ;     H3 - H16   
    19     33      1 ;     H3 - H17   
    32     34      1 ;    H16 - H18   
    33     34      1 ;    H17 - H18   

[ angles ]
;   ai     aj     ak    funct   theta         cth
     1     11      2      1 ;    1.1724e+02    6.9580e+02 ;     C1 - N1   - C2       CA -    x - CA  
     1     12      3      1 ;    1.1724e+02    6.9580e+02 ;     C1 - N2   - C3       CA -    x - CA  
     1     14      9      1 ;    1.2373e+02    6.3513e+02 ;     C1 - N4   - C9       CA -    x - CT  
     1     14     34      1 ;    1.1473e+02    4.8083e+02 ;     C1 - N4   - H18      CA -    x - H   
     2     13      3      1 ;    1.1724e+02    6.9580e+02 ;     C2 - N3   - C3       CA -    x - CA  
     2     15     10      1 ;    1.2373e+02    6.3513e+02 ;     C2 - N5   - C10      CA -    x - CT  
     2     15     35      1 ;    1.1473e+02    4.8083e+02 ;     C2 - N5   - H19      CA -    x - H   
     3     16      8      1 ;    1.0253e+02    7.7588e+02 ;     C3 - S1   - C8       CA -    S - CT  
     4      9     14      1 ;    1.1053e+02    5.4986e+02 ;     C4 - C9   - N4       CT -   CT - x   
     4      9     32      1 ;    1.0959e+02    3.6217e+02 ;     C4 - C9   - H16      CT -   CT - HC  
     4      9     33      1 ;    1.0959e+02    3.6217e+02 ;     C4 - C9   - H17      CT -   CT - HC  
     5     10      6      1 ;    1.1263e+02    5.0099e+02 ;     C5 - C10  - C6       CT -   CT - CT  
     5     10      7      1 ;    1.1263e+02    5.0099e+02 ;     C5 - C10  - C7       CT -   CT - CT  
     5     10     15      1 ;    1.1053e+02    5.4986e+02 ;     C5 - C10  - N5       CT -   CT - x   
     6     10      7      1 ;    1.1263e+02    5.0099e+02 ;     C6 - C10  - C7       CT -   CT - CT  
     6     10     15      1 ;    1.1053e+02    5.4986e+02 ;     C6 - C10  - N5       CT -   CT - x   
     7     10     15      1 ;    1.1053e+02    5.4986e+02 ;     C7 - C10  - N5       CT -   CT - x   
     9      4     17      1 ;    1.0968e+02    3.6208e+02 ;     C9 - C4   - H1       CT -   CT - HC  
     9      4     18      1 ;    1.0968e+02    3.6208e+02 ;     C9 - C4   - H2       CT -   CT - HC  
     9      4     19      1 ;    1.0968e+02    3.6208e+02 ;     C9 - C4   - H3       CT -   CT - HC  
     9     14     34      1 ;    1.1531e+02    4.6024e+02 ;     C9 - N4   - H18      CT -    x - H   
    10      5     20      1 ;    1.0968e+02    3.6208e+02 ;    C10 - C5   - H4       CT -   CT - HC  
    10      5     21      1 ;    1.0968e+02    3.6208e+02 ;    C10 - C5   - H5       CT -   CT - HC  
    10      5     22      1 ;    1.0968e+02    3.6208e+02 ;    C10 - C5   - H6       CT -   CT - HC  
    10      6     23      1 ;    1.0968e+02    3.6208e+02 ;    C10 - C6   - H7       CT -   CT - HC  
    10      6     24      1 ;    1.0968e+02    3.6208e+02 ;    C10 - C6   - H8       CT -   CT - HC  
    10      6     25      1 ;    1.0968e+02    3.6208e+02 ;    C10 - C6   - H9       CT -   CT - HC  
    10      7     26      1 ;    1.0968e+02    3.6208e+02 ;    C10 - C7   - H10      CT -   CT - HC  
    10      7     27      1 ;    1.0968e+02    3.6208e+02 ;    C10 - C7   - H11      CT -   CT - HC  
    10      7     28      1 ;    1.0968e+02    3.6208e+02 ;    C10 - C7   - H12      CT -   CT - HC  
    10     15     35      1 ;    1.1531e+02    4.6024e+02 ;    C10 - N5   - H19      CT -    x - H   
    11      1     12      1 ;    1.2730e+02    6.0886e+02 ;     N1 - C1   - N2        x -   CA - x   
    11      1     14      1 ;    1.1717e+02    6.2132e+02 ;     N1 - C1   - N4        x -   CA - x   
    11      2     13      1 ;    1.2730e+02    6.0886e+02 ;     N1 - C2   - N3        x -   CA - x   
    11      2     15      1 ;    1.1717e+02    6.2132e+02 ;     N1 - C2   - N5        x -   CA - x   
    12      1     14      1 ;    1.1717e+02    6.2132e+02 ;     N2 - C1   - N4        x -   CA - x   
    12      3     13      1 ;    1.2730e+02    6.0886e+02 ;     N2 - C3   - N3        x -   CA - x   
    12      3     16      1 ;    1.1851e+02    5.6844e+02 ;     N2 - C3   - S1        x -   CA - S   
    13      2     15      1 ;    1.1717e+02    6.2132e+02 ;     N3 - C2   - N5        x -   CA - x   
    13      3     16      1 ;    1.1851e+02    5.6844e+02 ;     N3 - C3   - S1        x -   CA - S   
    14      9     32      1 ;    1.0966e+02    4.0200e+02 ;     N4 - C9   - H16       x -   CT - HC  
    14      9     33      1 ;    1.0966e+02    4.0200e+02 ;     N4 - C9   - H17       x -   CT - HC  
    16      8     29      1 ;    1.0873e+02    3.5196e+02 ;     S1 - C8   - H13       S -   CT - HC  
    16      8     30      1 ;    1.0873e+02    3.5196e+02 ;     S1 - C8   - H14       S -   CT - HC  
    16      8     31      1 ;    1.0873e+02    3.5196e+02 ;     S1 - C8   - H15       S -   CT - HC  
    17      4     18      1 ;    1.0773e+02    2.9957e+02 ;     H1 - C4   - H2       HC -   CT - HC  
    17      4     19      1 ;    1.0773e+02    2.9957e+02 ;     H1 - C4   - H3       HC -   CT - HC  
    18      4     19      1 ;    1.0773e+02    2.9957e+02 ;     H2 - C4   - H3       HC -   CT - HC  
    20      5     21      1 ;    1.0773e+02    2.9957e+02 ;     H4 - C5   - H5       HC -   CT - HC  
    20      5     22      1 ;    1.0773e+02    2.9957e+02 ;     H4 - C5   - H6       HC -   CT - HC  
    21      5     22      1 ;    1.0773e+02    2.9957e+02 ;     H5 - C5   - H6       HC -   CT - HC  
    23      6     24      1 ;    1.0773e+02    2.9957e+02 ;     H7 - C6   - H8       HC -   CT - HC  
    23      6     25      1 ;    1.0773e+02    2.9957e+02 ;     H7 - C6   - H9       HC -   CT - HC  
    24      6     25      1 ;    1.0773e+02    2.9957e+02 ;     H8 - C6   - H9       HC -   CT - HC  
    26      7     27      1 ;    1.0773e+02    2.9957e+02 ;    H10 - C7   - H11      HC -   CT - HC  
    26      7     28      1 ;    1.0773e+02    2.9957e+02 ;    H10 - C7   - H12      HC -   CT - HC  
    27      7     28      1 ;    1.0773e+02    2.9957e+02 ;    H11 - C7   - H12      HC -   CT - HC  
    29      8     30      1 ;    1.0855e+02    2.9824e+02 ;    H13 - C8   - H14      HC -   CT - HC  
    29      8     31      1 ;    1.0855e+02    2.9824e+02 ;    H13 - C8   - H15      HC -   CT - HC  
    30      8     31      1 ;    1.0855e+02    2.9824e+02 ;    H14 - C8   - H15      HC -   CT - HC  
    32      9     33      1 ;    1.0855e+02    2.9824e+02 ;    H16 - C9   - H17      HC -   CT - HC  

[ dihedrals ] ; propers
; for gromacs 4.5 or higher, using funct 9
;    i      j      k      l   func   phase     kd      pn
     1     11      2     13      9 ;   180.00  20.08320   2 ;     C1-    N1-    C2-    N3
     1     11      2     15      9 ;   180.00  20.08320   2 ;     C1-    N1-    C2-    N5
     1     12      3     13      9 ;   180.00  20.08320   2 ;     C1-    N2-    C3-    N3
     1     12      3     16      9 ;   180.00  20.08320   2 ;     C1-    N2-    C3-    S1
     1     14      9      4      9 ;     0.00   0.00000   0 ;     C1-    N4-    C9-    C4
     1     14      9     32      9 ;     0.00   1.75728   3 ;     C1-    N4-    C9-   H16
     1     14      9     33      9 ;     0.00   1.75728   3 ;     C1-    N4-    C9-   H17
     2     13      3     12      9 ;   180.00  20.08320   2 ;     C2-    N3-    C3-    N2
     2     13      3     16      9 ;   180.00  20.08320   2 ;     C2-    N3-    C3-    S1
     2     15     10      5      9 ;     0.00   0.00000   0 ;     C2-    N5-   C10-    C5
     2     15     10      6      9 ;     0.00   0.00000   0 ;     C2-    N5-   C10-    C6
     2     15     10      7      9 ;     0.00   0.00000   0 ;     C2-    N5-   C10-    C7
     3     13      2     11      9 ;   180.00  20.08320   2 ;     C3-    N3-    C2-    N1
     3     13      2     15      9 ;   180.00  20.08320   2 ;     C3-    N3-    C2-    N5
     3     16      8     29      9 ;     0.00   1.39467   3 ;     C3-    S1-    C8-   H13
     3     16      8     30      9 ;     0.00   1.39467   3 ;     C3-    S1-    C8-   H14
     3     16      8     31      9 ;     0.00   1.39467   3 ;     C3-    S1-    C8-   H15
     4      9     14     34      9 ;     0.00   0.00000   0 ;     C4-    C9-    N4-   H18
     5     10      6     23      9 ;     0.00   0.54392   3 ;     C5-   C10-    C6-    H7
     5     10      6     24      9 ;     0.00   0.54392   3 ;     C5-   C10-    C6-    H8
     5     10      6     25      9 ;     0.00   0.54392   3 ;     C5-   C10-    C6-    H9
     5     10      7     26      9 ;     0.00   0.54392   3 ;     C5-   C10-    C7-   H10
     5     10      7     27      9 ;     0.00   0.54392   3 ;     C5-   C10-    C7-   H11
     5     10      7     28      9 ;     0.00   0.54392   3 ;     C5-   C10-    C7-   H12
     5     10     15     35      9 ;     0.00   0.00000   0 ;     C5-   C10-    N5-   H19
     6     10      5     20      9 ;     0.00   0.54392   3 ;     C6-   C10-    C5-    H4
     6     10      5     21      9 ;     0.00   0.54392   3 ;     C6-   C10-    C5-    H5
     6     10      5     22      9 ;     0.00   0.54392   3 ;     C6-   C10-    C5-    H6
     6     10      7     26      9 ;     0.00   0.54392   3 ;     C6-   C10-    C7-   H10
     6     10      7     27      9 ;     0.00   0.54392   3 ;     C6-   C10-    C7-   H11
     6     10      7     28      9 ;     0.00   0.54392   3 ;     C6-   C10-    C7-   H12
     6     10     15     35      9 ;     0.00   0.00000   0 ;     C6-   C10-    N5-   H19
     7     10      5     20      9 ;     0.00   0.54392   3 ;     C7-   C10-    C5-    H4
     7     10      5     21      9 ;     0.00   0.54392   3 ;     C7-   C10-    C5-    H5
     7     10      5     22      9 ;     0.00   0.54392   3 ;     C7-   C10-    C5-    H6
     7     10      6     23      9 ;     0.00   0.54392   3 ;     C7-   C10-    C6-    H7
     7     10      6     24      9 ;     0.00   0.54392   3 ;     C7-   C10-    C6-    H8
     7     10      6     25      9 ;     0.00   0.54392   3 ;     C7-   C10-    C6-    H9
     7     10     15     35      9 ;     0.00   0.00000   0 ;     C7-   C10-    N5-   H19
     8     16      3     12      9 ;   180.00   1.67360   2 ;     C8-    S1-    C3-    N2
     8     16      3     13      9 ;   180.00   1.67360   2 ;     C8-    S1-    C3-    N3
    10     15      2     11      9 ;   180.00   4.39320   2 ;    C10-    N5-    C2-    N1
    10     15      2     13      9 ;   180.00   4.39320   2 ;    C10-    N5-    C2-    N3
    11      1     12      3      9 ;   180.00  20.08320   2 ;     N1-    C1-    N2-    C3
    11      1     14      9      9 ;   180.00   4.39320   2 ;     N1-    C1-    N4-    C9
    11      1     14     34      9 ;   180.00   4.39320   2 ;     N1-    C1-    N4-   H18
    11      2     15     35      9 ;   180.00   4.39320   2 ;     N1-    C2-    N5-   H19
    12      1     11      2      9 ;   180.00  20.08320   2 ;     N2-    C1-    N1-    C2
    12      1     14      9      9 ;   180.00   4.39320   2 ;     N2-    C1-    N4-    C9
    12      1     14     34      9 ;   180.00   4.39320   2 ;     N2-    C1-    N4-   H18
    13      2     15     35      9 ;   180.00   4.39320   2 ;     N3-    C2-    N5-   H19
    14      1     11      2      9 ;   180.00  20.08320   2 ;     N4-    C1-    N1-    C2
    14      1     12      3      9 ;   180.00  20.08320   2 ;     N4-    C1-    N2-    C3
    14      9      4     17      9 ;     0.00   0.65084   3 ;     N4-    C9-    C4-    H1
    14      9      4     18      9 ;     0.00   0.65084   3 ;     N4-    C9-    C4-    H2
    14      9      4     19      9 ;     0.00   0.65084   3 ;     N4-    C9-    C4-    H3
    15     10      5     20      9 ;     0.00   0.65084   3 ;     N5-   C10-    C5-    H4
    15     10      5     21      9 ;     0.00   0.65084   3 ;     N5-   C10-    C5-    H5
    15     10      5     22      9 ;     0.00   0.65084   3 ;     N5-   C10-    C5-    H6
    15     10      6     23      9 ;     0.00   0.65084   3 ;     N5-   C10-    C6-    H7
    15     10      6     24      9 ;     0.00   0.65084   3 ;     N5-   C10-    C6-    H8
    15     10      6     25      9 ;     0.00   0.65084   3 ;     N5-   C10-    C6-    H9
    15     10      7     26      9 ;     0.00   0.65084   3 ;     N5-   C10-    C7-   H10
    15     10      7     27      9 ;     0.00   0.65084   3 ;     N5-   C10-    C7-   H11
    15     10      7     28      9 ;     0.00   0.65084   3 ;     N5-   C10-    C7-   H12
    17      4      9     32      9 ;     0.00   0.65084   3 ;     H1-    C4-    C9-   H16
    17      4      9     33      9 ;     0.00   0.65084   3 ;     H1-    C4-    C9-   H17
    18      4      9     32      9 ;     0.00   0.65084   3 ;     H2-    C4-    C9-   H16
    18      4      9     33      9 ;     0.00   0.65084   3 ;     H2-    C4-    C9-   H17
    19      4      9     32      9 ;     0.00   0.65084   3 ;     H3-    C4-    C9-   H16
    19      4      9     33      9 ;     0.00   0.65084   3 ;     H3-    C4-    C9-   H17
    32      9     14     34      9 ;     0.00   0.00000   0 ;    H16-    C9-    N4-   H18
    33      9     14     34      9 ;     0.00   0.00000   0 ;    H17-    C9-    N4-   H18

[ dihedrals ] ; impropers
; treated as propers in GROMACS to use correct AMBER analytical function
;    i      j      k      l   func   phase     kd      pn
     9      1     14     34      4 ;   180.00   4.60240   2 ;     C9-    C1-    N4-   H18
    10      2     15     35      4 ;   180.00   4.60240   2 ;    C10-    C2-    N5-   H19
    11     13      2     15      4 ;   180.00   4.60240   2 ;     N1-    N3-    C2-    N5
    12     13      3     16      4 ;   180.00   4.60240   2 ;     N2-    N3-    C3-    S1
    14      1     12     11      4 ;   180.00   4.60240   2 ;     N4-    C1-    N2-    N1
