%VERSION  VERSION_STAMP = V0001.000  DATE = 05/20/26  23:52:06                  
%FLAG TITLE                                                                     
%FORMAT(20a4)                                                                   
methyl_cyclopropyl_ketone                                                       
%FLAG POINTERS                                                                  
%FORMAT(10I8)                                                                   
      14       4       8       6      19       8      33       7       0       0
      64       1       6       8       7       6      10       5       5       0
       0       0       0       0       0       0       0       0      14       0
       0
%FLAG ATOM_NAME                                                                 
%FORMAT(20a4)                                                                   
C1  C2  C3  C4  C5  O1  H1  H2  H3  H4  H5  H6  H7  H8  
%FLAG CHARGE                                                                    
%FORMAT(5E16.8)                                                                 
  1.08440907E+01 -1.86596352E+00 -1.86596352E+00 -4.69588671E+00 -3.60983763E+00
 -9.82364193E+00  1.47053961E+00  1.47053961E+00  1.47053961E+00  1.47053961E+00
  1.61631801E+00  1.15469248E+00  1.15469248E+00  1.15469248E+00
%FLAG ATOMIC_NUMBER                                                             
%FORMAT(10I8)                                                                   
       6       6       6       6       6       8       1       1       1       1
       1       1       1       1
%FLAG MASS                                                                      
%FORMAT(5E16.8)                                                                 
  1.20100000E+01  1.20100000E+01  1.20100000E+01  1.20100000E+01  1.20100000E+01
  1.60000000E+01  1.00800000E+00  1.00800000E+00  1.00800000E+00  1.00800000E+00
  1.00800000E+00  1.00800000E+00  1.00800000E+00  1.00800000E+00
%FLAG ATOM_TYPE_INDEX                                                           
%FORMAT(10I8)                                                                   
       1       2       2       2       2       3       4       4       4       4
       4       4       4       4
%FLAG NUMBER_EXCLUDED_ATOMS                                                     
%FORMAT(10I8)                                                                   
      13       9       8      10       5       4       4       3       2       1
       1       2       1       1
%FLAG NONBONDED_PARM_INDEX                                                      
%FORMAT(10I8)                                                                   
       1       2       4       7       2       3       5       8       4       5
       6       9       7       8       9      10
%FLAG RESIDUE_LABEL                                                             
%FORMAT(20a4)                                                                   
MOL 
%FLAG RESIDUE_POINTER                                                           
%FORMAT(10I8)                                                                   
       1
%FLAG BOND_FORCE_CONSTANT                                                       
%FORMAT(5E16.8)                                                                 
  2.52530000E+02  2.34850000E+02  5.90600000E+02  2.48860000E+02  3.59910000E+02
  3.45250000E+02
%FLAG BOND_EQUIL_VALUE                                                          
%FORMAT(5E16.8)                                                                 
  1.50350000E+00  1.52700000E+00  1.21900000E+00  1.50820000E+00  1.08650000E+00
  1.09620000E+00
%FLAG ANGLE_FORCE_CONSTANT                                                      
%FORMAT(5E16.8)                                                                 
  5.96500000E+01  4.28000000E+01  4.36300000E+01  8.35100000E+01  4.24900000E+01
  5.95200000E+01  7.74200000E+01  7.64500000E+01  3.50500000E+01  3.58000000E+01
%FLAG ANGLE_EQUIL_VALUE                                                         
%FORMAT(5E16.8)                                                                 
  2.05931487E+00  2.03557838E+00  1.90153704E+00  1.04719800E+00  2.05407888E+00
  2.04221063E+00  2.14186898E+00  2.14501057E+00  1.99718112E+00  1.88024401E+00
%FLAG DIHEDRAL_FORCE_CONSTANT                                                   
%FORMAT(5E16.8)                                                                 
  1.55555556E-01  0.00000000E+00  4.03000000E+00  3.66000000E+00  1.10000000E+00
%FLAG DIHEDRAL_PERIODICITY                                                      
%FORMAT(5E16.8)                                                                 
  3.00000000E+00  2.00000000E+00  1.00000000E+00  2.00000000E+00  2.00000000E+00
%FLAG DIHEDRAL_PHASE                                                            
%FORMAT(5E16.8)                                                                 
  0.00000000E+00  3.14159400E+00  0.00000000E+00  3.14159400E+00  3.14159400E+00
%FLAG SCEE_SCALE_FACTOR                                                         
%FORMAT(5E16.8)                                                                 
  1.20000000E+00  1.20000000E+00  1.20000000E+00  1.20000000E+00  0.00000000E+00
%FLAG SCNB_SCALE_FACTOR                                                         
%FORMAT(5E16.8)                                                                 
  2.00000000E+00  2.00000000E+00  2.00000000E+00  2.00000000E+00  0.00000000E+00
%FLAG SOLTY                                                                     
%FORMAT(5E16.8)                                                                 
  0.00000000E+00  0.00000000E+00  0.00000000E+00  0.00000000E+00  0.00000000E+00
%FLAG LENNARD_JONES_ACOEF                                                       
%FORMAT(5E16.8)                                                                 
  6.96551276E+05  8.43969952E+05  1.02073671E+06  5.17507491E+05  6.30925504E+05
  3.76435470E+05  8.12662403E+04  1.00235148E+05  5.68021765E+04  7.94617769E+03
%FLAG LENNARD_JONES_BCOEF                                                       
%FORMAT(5E16.8)                                                                 
  5.24668528E+02  5.90251928E+02  6.63431737E+02  4.98871431E+02  5.62969425E+02
  4.69350655E+02  1.21392023E+02  1.37787728E+02  1.11953944E+02  2.57122925E+01
%FLAG BONDS_INC_HYDROGEN                                                        
%FORMAT(10I8)                                                                   
       3      18       5       3      21       5       6      24       5       6
      27       5       9      30       5      12      33       6      12      36
       6      12      39       6
%FLAG BONDS_WITHOUT_HYDROGEN                                                    
%FORMAT(10I8)                                                                   
       0       9       1       0      12       2       0      15       3       3
       6       4       3       9       4       6       9       4
%FLAG ANGLES_INC_HYDROGEN                                                       
%FORMAT(10I8)                                                                   
       0       9      30       2       0      12      33       3       0      12
      36       3       0      12      39       3       3       6      24       5
       3       6      27       5       3       9      30       5       6       3
      18       5       6       3      21       5       6       9      30       5
       9       3      18       5       9       3      21       5       9       6
      24       5       9       6      27       5      18       3      21       9
      24       6      27       9      33      12      36      10      33      12
      39      10      36      12      39      10
%FLAG ANGLES_WITHOUT_HYDROGEN                                                   
%FORMAT(10I8)                                                                   
       0       9       3       1       0       9       6       1       3       6
       9       4       3       9       6       4       6       3       9       4
       9       0      12       6       9       0      15       7      12       0
      15       8
%FLAG DIHEDRALS_INC_HYDROGEN                                                    
%FORMAT(10I8)                                                                   
       0       9       3      18       1       0       9       3      21       1
       0       9       6      24       1       0       9       6      27       1
       3       6      -9      30       1       3       9      -6      24       1
       3       9      -6      27       1       6       3      -9      30       1
       6       9      -3      18       1       6       9      -3      21       1
       9       0      12      33       2       9       0      12      36       2
       9       0      12      39       2       9       3      -6      24       1
       9       3      -6      27       1       9       6      -3      18       1
       9       6      -3      21       1      12       0       9      30       2
      15       0       9      30       2      15       0      12      33       3
      15       0     -12      33       4      15       0      12      36       3
      15       0     -12      36       4      15       0      12      39       3
      15       0     -12      39       4      18       3       6      24       1
      18       3       6      27       1      18       3       9      30       1
      21       3       6      24       1      21       3       6      27       1
      21       3       9      30       1      24       6       9      30       1
      27       6       9      30       1
%FLAG DIHEDRALS_WITHOUT_HYDROGEN                                                
%FORMAT(10I8)                                                                   
       0       9      -3       6       1       0       9      -6       3       1
      12       0       9       3       2      15       0       9       3       2
      12       0       9       6       2      15       0       9       6       2
      15       0      -9     -12       5
%FLAG EXCLUDED_ATOMS_LIST                                                       
%FORMAT(10I8)                                                                   
       2       3       4       5       6       7       8       9      10      11
      12      13      14       3       4       5       6       7       8       9
      10      11       4       5       6       7       8       9      10      11
       5       6       7       8       9      10      11      12      13      14
       6      11      12      13      14      11      12      13      14       8
       9      10      11       9      10      11      10      11      11       0
      13      14      14       0
%FLAG HBOND_ACOEF                                                               
%FORMAT(5E16.8)                                                                 

%FLAG HBOND_BCOEF                                                               
%FORMAT(5E16.8)                                                                 

%FLAG HBCUT                                                                     
%FORMAT(5E16.8)                                                                 

%FLAG AMBER_ATOM_TYPE                                                           
%FORMAT(20a4)                                                                   
c   cx  cx  cx  c3  o   hc  hc  hc  hc  hc  hc  hc  hc  
%FLAG TREE_CHAIN_CLASSIFICATION                                                 
%FORMAT(20a4)                                                                   
BLA BLA BLA BLA BLA BLA BLA BLA BLA BLA BLA BLA BLA BLA 
%FLAG JOIN_ARRAY                                                                
%FORMAT(10I8)                                                                   
       0       0       0       0       0       0       0       0       0       0
       0       0       0       0
%FLAG IROTAT                                                                    
%FORMAT(10I8)                                                                   
       0       0       0       0       0       0       0       0       0       0
       0       0       0       0
%FLAG RADIUS_SET                                                                
%FORMAT(1a80)                                                                   
modified Bondi radii (mbondi)                                                   
%FLAG RADII                                                                     
%FORMAT(5E16.8)                                                                 
  1.70000000E+00  1.70000000E+00  1.70000000E+00  1.70000000E+00  1.70000000E+00
  1.50000000E+00  1.30000000E+00  1.30000000E+00  1.30000000E+00  1.30000000E+00
  1.30000000E+00  1.30000000E+00  1.30000000E+00  1.30000000E+00
%FLAG SCREEN                                                                    
%FORMAT(5E16.8)                                                                 
  7.20000000E-01  7.20000000E-01  7.20000000E-01  7.20000000E-01  7.20000000E-01
  8.50000000E-01  8.50000000E-01  8.50000000E-01  8.50000000E-01  8.50000000E-01
  8.50000000E-01  8.50000000E-01  8.50000000E-01  8.50000000E-01
%FLAG IPOL                                                                      
%FORMAT(1I8)                                                                    
       0
