; mobley_197466_GMX_OPLS.top created by acpype (v: 2023.10.27) on Wed May 20 23:52:05 2026

; Include forcefield parameters
#include "ffoplsaa.itp"

; Include mobley_197466_GMX.itp topology
#include "mobley_197466_GMX.itp"

; Ligand position restraints
#ifdef POSRES_LIG
#include "posre_mobley_197466.itp"
#endif

[ system ]
 mobley_197466

[ molecules ]
; Compound        nmols
 mobley_197466    1     
