; mobley_197466_GMX_OPLS.itp created by acpype (v: 2023.10.27) on Wed May 20 23:52:05 2026

; For OPLS atomtypes manual fine tuning
; AC_at:OPLS_at:OPLScode: Possible_Alternatives (see ffoplsaa.atp and ffoplsaanb.itp)
; c:C:opls_235: ['271']
; cx:x:opls_x: []
; c3:CT:opls_135: ['136', '137', '149', '157', '158', '206', '209', '210', '223B', '224B', '245', '246', '274', '283', '284', '285', '292', '292B', '293B', '296', '307', '308', '505']
; o:O:opls_236: ['272']
; hc:HC:opls_140: []

[ moleculetype ]
;name            nrexcl
 mobley_197466    3

[ atoms ]
;   nr  type  resi  res  atom  cgnr     charge      mass       ; qtot   bond_type
     1 opls_235     1   MOL    C1    1     0.598099     12.01100 ; qtot  0.598  C   
     2 opls_x     1   MOL    C2    2    -0.102400      0.00000 ; qtot  0.496  x   
     3 opls_x     1   MOL    C3    3    -0.102400      0.00000 ; qtot  0.393  x   
     4 opls_x     1   MOL    C4    4    -0.257700      0.00000 ; qtot  0.136  x   
     5 opls_135     1   MOL    C5    5    -0.198100     12.01100 ; qtot -0.063  CT  
     6 opls_236     1   MOL    O1    6    -0.539100     15.99940 ; qtot -0.602  O   
     7 opls_140     1   MOL    H1    7     0.080700      1.00800 ; qtot -0.521  HC  
     8 opls_140     1   MOL    H2    8     0.080700      1.00800 ; qtot -0.440  HC  
     9 opls_140     1   MOL    H3    9     0.080700      1.00800 ; qtot -0.360  HC  
    10 opls_140     1   MOL    H4   10     0.080700      1.00800 ; qtot -0.279  HC  
    11 opls_140     1   MOL    H5   11     0.088700      1.00800 ; qtot -0.190  HC  
    12 opls_140     1   MOL    H6   12     0.063367      1.00800 ; qtot -0.127  HC  
    13 opls_140     1   MOL    H7   13     0.063367      1.00800 ; qtot -0.063  HC  
    14 opls_140     1   MOL    H8   14     0.063367      1.00800 ; qtot  0.000  HC  

[ bonds ]
;   ai     aj funct   r             k
     1      4   1 ;    1.5035e-01    2.1132e+05 ;     C1 - C4          C - x     
     1      5   1 ;    1.5270e-01    1.9652e+05 ;     C1 - C5          C - CT    
     1      6   1 ;    1.2190e-01    4.9421e+05 ;     C1 - O1          C - O     
     2      3   1 ;    1.5082e-01    2.0825e+05 ;     C2 - C3          x - x     
     2      4   1 ;    1.5082e-01    2.0825e+05 ;     C2 - C4          x - x     
     2      7   1 ;    1.0865e-01    3.0117e+05 ;     C2 - H1          x - HC    
     2      8   1 ;    1.0865e-01    3.0117e+05 ;     C2 - H2          x - HC    
     3      4   1 ;    1.5082e-01    2.0825e+05 ;     C3 - C4          x - x     
     3      9   1 ;    1.0865e-01    3.0117e+05 ;     C3 - H3          x - HC    
     3     10   1 ;    1.0865e-01    3.0117e+05 ;     C3 - H4          x - HC    
     4     11   1 ;    1.0865e-01    3.0117e+05 ;     C4 - H5          x - HC    
     5     12   1 ;    1.0962e-01    2.8891e+05 ;     C5 - H6         CT - HC    
     5     13   1 ;    1.0962e-01    2.8891e+05 ;     C5 - H7         CT - HC    
     5     14   1 ;    1.0962e-01    2.8891e+05 ;     C5 - H8         CT - HC    

[ pairs ]
;   ai     aj    funct
     1      7      1 ;     C1 - H1    
     1      8      1 ;     C1 - H2    
     1      9      1 ;     C1 - H3    
     1     10      1 ;     C1 - H4    
     4     12      1 ;     C4 - H6    
     4     13      1 ;     C4 - H7    
     4     14      1 ;     C4 - H8    
     5      2      1 ;     C5 - C2    
     5      3      1 ;     C5 - C3    
     5     11      1 ;     C5 - H5    
     6      2      1 ;     O1 - C2    
     6      3      1 ;     O1 - C3    
     6     11      1 ;     O1 - H5    
     6     12      1 ;     O1 - H6    
     6     13      1 ;     O1 - H7    
     6     14      1 ;     O1 - H8    
     7      9      1 ;     H1 - H3    
     7     10      1 ;     H1 - H4    
     7     11      1 ;     H1 - H5    
     8      9      1 ;     H2 - H3    
     8     10      1 ;     H2 - H4    
     8     11      1 ;     H2 - H5    
     9     11      1 ;     H3 - H5    
    10     11      1 ;     H4 - H5    

[ angles ]
;   ai     aj     ak    funct   theta         cth
     1      4      2      1 ;    1.1799e+02    4.9915e+02 ;     C1 - C4   - C2        C -    x - x   
     1      4      3      1 ;    1.1799e+02    4.9915e+02 ;     C1 - C4   - C3        C -    x - x   
     1      4     11      1 ;    1.1663e+02    3.5815e+02 ;     C1 - C4   - H5        C -    x - HC  
     1      5     12      1 ;    1.0895e+02    3.6510e+02 ;     C1 - C5   - H6        C -   CT - HC  
     1      5     13      1 ;    1.0895e+02    3.6510e+02 ;     C1 - C5   - H7        C -   CT - HC  
     1      5     14      1 ;    1.0895e+02    3.6510e+02 ;     C1 - C5   - H8        C -   CT - HC  
     2      3      4      1 ;    6.0000e+01    6.9881e+02 ;     C2 - C3   - C4        x -    x - x   
     2      3      9      1 ;    1.1769e+02    3.5556e+02 ;     C2 - C3   - H3        x -    x - HC  
     2      3     10      1 ;    1.1769e+02    3.5556e+02 ;     C2 - C3   - H4        x -    x - HC  
     2      4      3      1 ;    6.0000e+01    6.9881e+02 ;     C2 - C4   - C3        x -    x - x   
     2      4     11      1 ;    1.1769e+02    3.5556e+02 ;     C2 - C4   - H5        x -    x - HC  
     3      2      4      1 ;    6.0000e+01    6.9881e+02 ;     C3 - C2   - C4        x -    x - x   
     3      2      7      1 ;    1.1769e+02    3.5556e+02 ;     C3 - C2   - H1        x -    x - HC  
     3      2      8      1 ;    1.1769e+02    3.5556e+02 ;     C3 - C2   - H2        x -    x - HC  
     3      4     11      1 ;    1.1769e+02    3.5556e+02 ;     C3 - C4   - H5        x -    x - HC  
     4      1      5      1 ;    1.1701e+02    4.9806e+02 ;     C4 - C1   - C5        x -    C - CT  
     4      1      6      1 ;    1.2272e+02    6.4785e+02 ;     C4 - C1   - O1        x -    C - O   
     4      2      7      1 ;    1.1769e+02    3.5556e+02 ;     C4 - C2   - H1        x -    x - HC  
     4      2      8      1 ;    1.1769e+02    3.5556e+02 ;     C4 - C2   - H2        x -    x - HC  
     4      3      9      1 ;    1.1769e+02    3.5556e+02 ;     C4 - C3   - H3        x -    x - HC  
     4      3     10      1 ;    1.1769e+02    3.5556e+02 ;     C4 - C3   - H4        x -    x - HC  
     5      1      6      1 ;    1.2290e+02    6.3973e+02 ;     C5 - C1   - O1       CT -    C - O   
     7      2      8      1 ;    1.1443e+02    2.9330e+02 ;     H1 - C2   - H2       HC -    x - HC  
     9      3     10      1 ;    1.1443e+02    2.9330e+02 ;     H3 - C3   - H4       HC -    x - HC  
    12      5     13      1 ;    1.0773e+02    2.9957e+02 ;     H6 - C5   - H7       HC -   CT - HC  
    12      5     14      1 ;    1.0773e+02    2.9957e+02 ;     H6 - C5   - H8       HC -   CT - HC  
    13      5     14      1 ;    1.0773e+02    2.9957e+02 ;     H7 - C5   - H8       HC -   CT - HC  

[ dihedrals ] ; propers
; for gromacs 4.5 or higher, using funct 9
;    i      j      k      l   func   phase     kd      pn
     1      4      2      3      9 ;     0.00   0.65084   3 ;     C1-    C4-    C2-    C3
     1      4      2      7      9 ;     0.00   0.65084   3 ;     C1-    C4-    C2-    H1
     1      4      2      8      9 ;     0.00   0.65084   3 ;     C1-    C4-    C2-    H2
     1      4      3      2      9 ;     0.00   0.65084   3 ;     C1-    C4-    C3-    C2
     1      4      3      9      9 ;     0.00   0.65084   3 ;     C1-    C4-    C3-    H3
     1      4      3     10      9 ;     0.00   0.65084   3 ;     C1-    C4-    C3-    H4
     2      3      4     11      9 ;     0.00   0.65084   3 ;     C2-    C3-    C4-    H5
     2      4      3      9      9 ;     0.00   0.65084   3 ;     C2-    C4-    C3-    H3
     2      4      3     10      9 ;     0.00   0.65084   3 ;     C2-    C4-    C3-    H4
     3      2      4     11      9 ;     0.00   0.65084   3 ;     C3-    C2-    C4-    H5
     3      4      2      7      9 ;     0.00   0.65084   3 ;     C3-    C4-    C2-    H1
     3      4      2      8      9 ;     0.00   0.65084   3 ;     C3-    C4-    C2-    H2
     4      1      5     12      9 ;   180.00   0.00000   2 ;     C4-    C1-    C5-    H6
     4      1      5     13      9 ;   180.00   0.00000   2 ;     C4-    C1-    C5-    H7
     4      1      5     14      9 ;   180.00   0.00000   2 ;     C4-    C1-    C5-    H8
     4      2      3      9      9 ;     0.00   0.65084   3 ;     C4-    C2-    C3-    H3
     4      2      3     10      9 ;     0.00   0.65084   3 ;     C4-    C2-    C3-    H4
     4      3      2      7      9 ;     0.00   0.65084   3 ;     C4-    C3-    C2-    H1
     4      3      2      8      9 ;     0.00   0.65084   3 ;     C4-    C3-    C2-    H2
     5      1      4      2      9 ;   180.00   0.00000   2 ;     C5-    C1-    C4-    C2
     5      1      4      3      9 ;   180.00   0.00000   2 ;     C5-    C1-    C4-    C3
     5      1      4     11      9 ;   180.00   0.00000   2 ;     C5-    C1-    C4-    H5
     6      1      4      2      9 ;   180.00   0.00000   2 ;     O1-    C1-    C4-    C2
     6      1      4      3      9 ;   180.00   0.00000   2 ;     O1-    C1-    C4-    C3
     6      1      4     11      9 ;   180.00   0.00000   2 ;     O1-    C1-    C4-    H5
     6      1      5     12      9 ;     0.00  16.86152   1 ;     O1-    C1-    C5-    H6
     6      1      5     12      9 ;   180.00  15.31344   2 ;     O1-    C1-    C5-    H6
     6      1      5     13      9 ;     0.00  16.86152   1 ;     O1-    C1-    C5-    H7
     6      1      5     13      9 ;   180.00  15.31344   2 ;     O1-    C1-    C5-    H7
     6      1      5     14      9 ;     0.00  16.86152   1 ;     O1-    C1-    C5-    H8
     6      1      5     14      9 ;   180.00  15.31344   2 ;     O1-    C1-    C5-    H8
     7      2      3      9      9 ;     0.00   0.65084   3 ;     H1-    C2-    C3-    H3
     7      2      3     10      9 ;     0.00   0.65084   3 ;     H1-    C2-    C3-    H4
     7      2      4     11      9 ;     0.00   0.65084   3 ;     H1-    C2-    C4-    H5
     8      2      3      9      9 ;     0.00   0.65084   3 ;     H2-    C2-    C3-    H3
     8      2      3     10      9 ;     0.00   0.65084   3 ;     H2-    C2-    C3-    H4
     8      2      4     11      9 ;     0.00   0.65084   3 ;     H2-    C2-    C4-    H5
     9      3      4     11      9 ;     0.00   0.65084   3 ;     H3-    C3-    C4-    H5
    10      3      4     11      9 ;     0.00   0.65084   3 ;     H4-    C3-    C4-    H5

[ dihedrals ] ; impropers
; treated as propers in GROMACS to use correct AMBER analytical function
;    i      j      k      l   func   phase     kd      pn
     6      1      4      5      4 ;   180.00   4.60240   2 ;     O1-    C1-    C4-    C5
