methyl_cyclopropyl_ketone
    14
   2.3860000   0.7990000   3.1700000   0.0370000   1.7910000   2.9130000
   0.7570000   2.0270000   1.6180000   1.0820000   0.8320000   2.4500000
   3.0370000  -0.5480000   3.2860000   2.8710000   1.8270000   3.6260000
   0.2850000   2.4280000   3.7540000  -1.0060000   1.5040000   2.8630000
   0.1970000   1.8990000   0.7000000   1.4890000   2.8250000   1.5870000
   0.7590000  -0.1320000   2.0940000   2.3790000  -1.2300000   3.8300000
   3.2470000  -0.9430000   2.2890000   3.9780000  -0.4530000   3.8340000
