mobley_197466_GMX.gro created by acpype (v: 2023.10.27) on Wed May 20 23:52:05 2026
 14
    1  MOL   C1    1   0.239   0.080   0.317
    1  MOL   C2    2   0.004   0.179   0.291
    1  MOL   C3    3   0.076   0.203   0.162
    1  MOL   C4    4   0.108   0.083   0.245
    1  MOL   C5    5   0.304  -0.055   0.329
    1  MOL   O1    6   0.287   0.183   0.363
    1  MOL   H1    7   0.028   0.243   0.375
    1  MOL   H2    8  -0.101   0.150   0.286
    1  MOL   H3    9   0.020   0.190   0.070
    1  MOL   H4   10   0.149   0.283   0.159
    1  MOL   H5   11   0.076  -0.013   0.209
    1  MOL   H6   12   0.238  -0.123   0.383
    1  MOL   H7   13   0.325  -0.094   0.229
    1  MOL   H8   14   0.398  -0.045   0.383
    9.96800     8.11000     6.26800
