; mobley_1079207_GMX.top created by acpype (v: 2023.10.27) on Wed May 20 23:50:54 2026

[ defaults ]
; nbfunc        comb-rule       gen-pairs       fudgeLJ fudgeQQ
1               2               yes             0.5     0.8333333333

; Include mobley_1079207_GMX.itp topology
#include "mobley_1079207_GMX.itp"

; Ligand position restraints
#ifdef POSRES_LIG
#include "posre_mobley_1079207.itp"
#endif

[ system ]
mobley_1079207 in water

[ molecules ]
; Compound        nmols
 mobley_1079207   1     
SOL              3114
