; mobley_1079207_GMX_OPLS.itp created by acpype (v: 2023.10.27) on Wed May 20 23:50:54 2026

; For OPLS atomtypes manual fine tuning
; AC_at:OPLS_at:OPLScode: Possible_Alternatives (see ffoplsaa.atp and ffoplsaanb.itp)
; ca:CA:opls_145: ['166', '501', '502']
; cl:x:opls_x: []
; ha:HA:opls_146: []

[ moleculetype ]
;name            nrexcl
 mobley_1079207   3

[ atoms ]
;   nr  type  resi  res  atom  cgnr     charge      mass       ; qtot   bond_type
     1 opls_145     1   MOL    C1    1    -0.113000     12.01100 ; qtot -0.113  CA  
     2 opls_145     1   MOL    C2    2    -0.125000     12.01100 ; qtot -0.238  CA  
     3 opls_145     1   MOL    C3    3    -0.125000     12.01100 ; qtot -0.363  CA  
     4 opls_145     1   MOL    C4    4    -0.121000     12.01100 ; qtot -0.484  CA  
     5 opls_145     1   MOL    C5    5     0.024400     12.01100 ; qtot -0.460  CA  
     6 opls_145     1   MOL    C6    6     0.024400     12.01100 ; qtot -0.435  CA  
     7 opls_x     1   MOL   CL1    7    -0.085400      0.00000 ; qtot -0.521  x   
     8 opls_x     1   MOL   CL2    8    -0.085400      0.00000 ; qtot -0.606  x   
     9 opls_146     1   MOL    H1    9     0.143000      1.00800 ; qtot -0.463  HA  
    10 opls_146     1   MOL    H2   10     0.151000      1.00800 ; qtot -0.312  HA  
    11 opls_146     1   MOL    H3   11     0.151000      1.00800 ; qtot -0.161  HA  
    12 opls_146     1   MOL    H4   12     0.161000      1.00800 ; qtot -0.000  HA  

[ bonds ]
;   ai     aj funct   r             k
     1      2   1 ;    1.3986e-01    2.9644e+05 ;     C1 - C2         CA - CA    
     1      3   1 ;    1.3986e-01    2.9644e+05 ;     C1 - C3         CA - CA    
     1      9   1 ;    1.0860e-01    3.0183e+05 ;     C1 - H1         CA - HA    
     2      5   1 ;    1.3986e-01    2.9644e+05 ;     C2 - C5         CA - CA    
     2     10   1 ;    1.0860e-01    3.0183e+05 ;     C2 - H2         CA - HA    
     3      6   1 ;    1.3986e-01    2.9644e+05 ;     C3 - C6         CA - CA    
     3     11   1 ;    1.0860e-01    3.0183e+05 ;     C3 - H3         CA - HA    
     4      5   1 ;    1.3986e-01    2.9644e+05 ;     C4 - C5         CA - CA    
     4      6   1 ;    1.3986e-01    2.9644e+05 ;     C4 - C6         CA - CA    
     4     12   1 ;    1.0860e-01    3.0183e+05 ;     C4 - H4         CA - HA    
     5      7   1 ;    1.7572e-01    1.5730e+05 ;     C5 - CL1        CA - x     
     6      8   1 ;    1.7572e-01    1.5730e+05 ;     C6 - CL2        CA - x     

[ pairs ]
;   ai     aj    funct
     1      4      1 ;     C1 - C4    
     1      7      1 ;     C1 - CL1   
     1      8      1 ;     C1 - CL2   
     2      6      1 ;     C2 - C6    
     2     11      1 ;     C2 - H3    
     2     12      1 ;     C2 - H4    
     3      5      1 ;     C3 - C5    
     3     10      1 ;     C3 - H2    
     3     12      1 ;     C3 - H4    
     4     10      1 ;     C4 - H2    
     4     11      1 ;     C4 - H3    
     5      8      1 ;     C5 - CL2   
     6      7      1 ;     C6 - CL1   
     7     10      1 ;    CL1 - H2    
     7     12      1 ;    CL1 - H4    
     8     11      1 ;    CL2 - H3    
     8     12      1 ;    CL2 - H4    
     9      5      1 ;     H1 - C5    
     9      6      1 ;     H1 - C6    
     9     10      1 ;     H1 - H2    
     9     11      1 ;     H1 - H3    

[ angles ]
;   ai     aj     ak    funct   theta         cth
     1      2      5      1 ;    1.2002e+02    5.3279e+02 ;     C1 - C2   - C5       CA -   CA - CA  
     1      2     10      1 ;    1.1988e+02    3.7572e+02 ;     C1 - C2   - H2       CA -   CA - HA  
     1      3      6      1 ;    1.2002e+02    5.3279e+02 ;     C1 - C3   - C6       CA -   CA - CA  
     1      3     11      1 ;    1.1988e+02    3.7572e+02 ;     C1 - C3   - H3       CA -   CA - HA  
     2      1      3      1 ;    1.2002e+02    5.3279e+02 ;     C2 - C1   - C3       CA -   CA - CA  
     2      1      9      1 ;    1.1988e+02    3.7572e+02 ;     C2 - C1   - H1       CA -   CA - HA  
     2      5      4      1 ;    1.2002e+02    5.3279e+02 ;     C2 - C5   - C4       CA -   CA - CA  
     2      5      7      1 ;    1.1938e+02    5.3605e+02 ;     C2 - C5   - CL1      CA -   CA - x   
     3      1      9      1 ;    1.1988e+02    3.7572e+02 ;     C3 - C1   - H1       CA -   CA - HA  
     3      6      4      1 ;    1.2002e+02    5.3279e+02 ;     C3 - C6   - C4       CA -   CA - CA  
     3      6      8      1 ;    1.1938e+02    5.3605e+02 ;     C3 - C6   - CL2      CA -   CA - x   
     4      5      7      1 ;    1.1938e+02    5.3605e+02 ;     C4 - C5   - CL1      CA -   CA - x   
     4      6      8      1 ;    1.1938e+02    5.3605e+02 ;     C4 - C6   - CL2      CA -   CA - x   
     5      2     10      1 ;    1.1988e+02    3.7572e+02 ;     C5 - C2   - H2       CA -   CA - HA  
     5      4      6      1 ;    1.2002e+02    5.3279e+02 ;     C5 - C4   - C6       CA -   CA - CA  
     5      4     12      1 ;    1.1988e+02    3.7572e+02 ;     C5 - C4   - H4       CA -   CA - HA  
     6      3     11      1 ;    1.1988e+02    3.7572e+02 ;     C6 - C3   - H3       CA -   CA - HA  
     6      4     12      1 ;    1.1988e+02    3.7572e+02 ;     C6 - C4   - H4       CA -   CA - HA  

[ dihedrals ] ; propers
; for gromacs 4.5 or higher, using funct 9
;    i      j      k      l   func   phase     kd      pn
     1      2      5      4      9 ;   180.00  15.16700   2 ;     C1-    C2-    C5-    C4
     1      2      5      7      9 ;   180.00  15.16700   2 ;     C1-    C2-    C5-   CL1
     1      3      6      4      9 ;   180.00  15.16700   2 ;     C1-    C3-    C6-    C4
     1      3      6      8      9 ;   180.00  15.16700   2 ;     C1-    C3-    C6-   CL2
     2      1      3      6      9 ;   180.00  15.16700   2 ;     C2-    C1-    C3-    C6
     2      1      3     11      9 ;   180.00  15.16700   2 ;     C2-    C1-    C3-    H3
     2      5      4      6      9 ;   180.00  15.16700   2 ;     C2-    C5-    C4-    C6
     2      5      4     12      9 ;   180.00  15.16700   2 ;     C2-    C5-    C4-    H4
     3      1      2      5      9 ;   180.00  15.16700   2 ;     C3-    C1-    C2-    C5
     3      1      2     10      9 ;   180.00  15.16700   2 ;     C3-    C1-    C2-    H2
     3      6      4      5      9 ;   180.00  15.16700   2 ;     C3-    C6-    C4-    C5
     3      6      4     12      9 ;   180.00  15.16700   2 ;     C3-    C6-    C4-    H4
     4      5      2     10      9 ;   180.00  15.16700   2 ;     C4-    C5-    C2-    H2
     4      6      3     11      9 ;   180.00  15.16700   2 ;     C4-    C6-    C3-    H3
     5      4      6      8      9 ;   180.00  15.16700   2 ;     C5-    C4-    C6-   CL2
     6      4      5      7      9 ;   180.00  15.16700   2 ;     C6-    C4-    C5-   CL1
     7      5      2     10      9 ;   180.00  15.16700   2 ;    CL1-    C5-    C2-    H2
     7      5      4     12      9 ;   180.00  15.16700   2 ;    CL1-    C5-    C4-    H4
     8      6      3     11      9 ;   180.00  15.16700   2 ;    CL2-    C6-    C3-    H3
     8      6      4     12      9 ;   180.00  15.16700   2 ;    CL2-    C6-    C4-    H4
     9      1      2      5      9 ;   180.00  15.16700   2 ;     H1-    C1-    C2-    C5
     9      1      2     10      9 ;   180.00  15.16700   2 ;     H1-    C1-    C2-    H2
     9      1      3      6      9 ;   180.00  15.16700   2 ;     H1-    C1-    C3-    C6
     9      1      3     11      9 ;   180.00  15.16700   2 ;     H1-    C1-    C3-    H3

[ dihedrals ] ; impropers
; treated as propers in GROMACS to use correct AMBER analytical function
;    i      j      k      l   func   phase     kd      pn
     1      5      2     10      4 ;   180.00   4.60240   2 ;     C1-    C5-    C2-    H2
     1      6      3     11      4 ;   180.00   4.60240   2 ;     C1-    C6-    C3-    H3
     2      4      5      7      4 ;   180.00   4.60240   2 ;     C2-    C4-    C5-   CL1
     3      4      6      8      4 ;   180.00   4.60240   2 ;     C3-    C4-    C6-   CL2
     5      6      4     12      4 ;   180.00   4.60240   2 ;     C5-    C6-    C4-    H4
     9      1      3      2      4 ;   180.00   4.60240   2 ;     H1-    C1-    C3-    C2
