13_dichlorobenzene
    12
   0.8320000  -0.3950000   0.5750000   1.8990000  -1.0140000  -0.0770000
   0.8350000  -0.2830000   1.9660000   2.9710000  -1.4090000   2.0520000
   2.9680000  -1.5200000   0.6620000   1.9040000  -0.7900000   2.7040000
   4.2840000  -2.2840000  -0.1430000   1.9070000  -0.6510000   4.4200000
   0.0000000   0.0000000  -0.0000000   1.8830000  -1.0950000  -1.1610000
  -0.0030000   0.2020000   2.4600000   3.8040000  -1.8040000   2.6290000
