mobley_951560_GMX.gro created by acpype (v: 2023.10.27) on Wed May 20 23:59:20 2026
 16
    1  MOL   C1    1   0.100  -0.022   0.038
    1  MOL   C2    2   0.100  -0.160   0.104
    1  MOL   C3    3   0.269   0.052   0.193
    1  MOL   C4    4   0.268  -0.086   0.259
    1  MOL   N1    5   0.139   0.082   0.133
    1  MOL   N2    6   0.230  -0.191   0.164
    1  MOL   H1    7   0.168  -0.022  -0.048
    1  MOL   H2    8   0.000  -0.000  -0.000
    1  MOL   H3    9   0.021  -0.165   0.181
    1  MOL   H4   10   0.077  -0.236   0.029
    1  MOL   H5   11   0.292   0.128   0.269
    1  MOL   H6   12   0.348   0.057   0.117
    1  MOL   H7   13   0.369  -0.108   0.298
    1  MOL   H8   14   0.200  -0.087   0.345
    1  MOL   H9   15   0.144   0.172   0.085
    1  MOL  H10   16   0.224  -0.281   0.213
    7.37000     9.05000     7.86600
