piperazine
    16
   1.0040000  -0.2220000   0.3780000   1.0010000  -1.5990000   1.0420000
   2.6910000   0.5170000   1.9300000   2.6830000  -0.8620000   2.5900000
   1.3940000   0.8220000   1.3270000   2.3000000  -1.9120000   1.6420000
   1.6830000  -0.2170000  -0.4840000   0.0000000  -0.0000000  -0.0000000
   0.2140000  -1.6500000   1.8060000   0.7660000  -2.3610000   0.2900000
   2.9210000   1.2770000   2.6850000   3.4800000   0.5700000   1.1690000
   3.6850000  -1.0840000   2.9750000   2.0010000  -0.8680000   3.4490000
   1.4440000   1.7190000   0.8470000   2.2420000  -2.8060000   2.1290000
