; mobley_951560_GMX_OPLS.itp created by acpype (v: 2023.10.27) on Wed May 20 23:59:20 2026

; For OPLS atomtypes manual fine tuning
; AC_at:OPLS_at:OPLScode: Possible_Alternatives (see ffoplsaa.atp and ffoplsaanb.itp)
; c6:x:opls_x: []
; n7:x:opls_x: []
; h1:HC:opls_140: []
; hn:H:opls_240: ['241', '290', '301', '304', '310', '504', '513']

[ moleculetype ]
;name            nrexcl
 mobley_951560    3

[ atoms ]
;   nr  type  resi  res  atom  cgnr     charge      mass       ; qtot   bond_type
     1 opls_x     1   MOL    C1    1     0.161800      0.00000 ; qtot  0.162  x   
     2 opls_x     1   MOL    C2    2     0.161800      0.00000 ; qtot  0.324  x   
     3 opls_x     1   MOL    C3    3     0.161800      0.00000 ; qtot  0.485  x   
     4 opls_x     1   MOL    C4    4     0.161800      0.00000 ; qtot  0.647  x   
     5 opls_x     1   MOL    N1    5    -0.821200      0.00000 ; qtot -0.174  x   
     6 opls_x     1   MOL    N2    6    -0.821200      0.00000 ; qtot -0.995  x   
     7 opls_140     1   MOL    H1    7     0.033700      1.00800 ; qtot -0.961  HC  
     8 opls_140     1   MOL    H2    8     0.033700      1.00800 ; qtot -0.928  HC  
     9 opls_140     1   MOL    H3    9     0.033700      1.00800 ; qtot -0.894  HC  
    10 opls_140     1   MOL    H4   10     0.033700      1.00800 ; qtot -0.860  HC  
    11 opls_140     1   MOL    H5   11     0.033700      1.00800 ; qtot -0.827  HC  
    12 opls_140     1   MOL    H6   12     0.033700      1.00800 ; qtot -0.793  HC  
    13 opls_140     1   MOL    H7   13     0.033700      1.00800 ; qtot -0.759  HC  
    14 opls_140     1   MOL    H8   14     0.033700      1.00800 ; qtot -0.726  HC  
    15 opls_240     1   MOL    H9   15     0.362800      1.00800 ; qtot -0.363  H   
    16 opls_240     1   MOL   H10   16     0.362800      1.00800 ; qtot -0.000  H   

[ bonds ]
;   ai     aj funct   r             k
     1      2   1 ;    1.5384e-01    1.8979e+05 ;     C1 - C2          x - x     
     1      5   1 ;    1.4653e-01    2.1225e+05 ;     C1 - N1          x - x     
     1      7   1 ;    1.0984e-01    2.8620e+05 ;     C1 - H1          x - HC    
     1      8   1 ;    1.0984e-01    2.8620e+05 ;     C1 - H2          x - HC    
     2      6   1 ;    1.4653e-01    2.1225e+05 ;     C2 - N2          x - x     
     2      9   1 ;    1.0984e-01    2.8620e+05 ;     C2 - H3          x - HC    
     2     10   1 ;    1.0984e-01    2.8620e+05 ;     C2 - H4          x - HC    
     3      4   1 ;    1.5384e-01    1.8979e+05 ;     C3 - C4          x - x     
     3      5   1 ;    1.4653e-01    2.1225e+05 ;     C3 - N1          x - x     
     3     11   1 ;    1.0984e-01    2.8620e+05 ;     C3 - H5          x - HC    
     3     12   1 ;    1.0984e-01    2.8620e+05 ;     C3 - H6          x - HC    
     4      6   1 ;    1.4653e-01    2.1225e+05 ;     C4 - N2          x - x     
     4     13   1 ;    1.0984e-01    2.8620e+05 ;     C4 - H7          x - HC    
     4     14   1 ;    1.0984e-01    2.8620e+05 ;     C4 - H8          x - HC    
     5     15   1 ;    1.0195e-01    3.8497e+05 ;     N1 - H9          x - H     
     6     16   1 ;    1.0195e-01    3.8497e+05 ;     N2 - H10         x - H     

[ pairs ]
;   ai     aj    funct
     1      4      1 ;     C1 - C4    
     1     11      1 ;     C1 - H5    
     1     12      1 ;     C1 - H6    
     1     16      1 ;     C1 - H10   
     2      3      1 ;     C2 - C3    
     2     13      1 ;     C2 - H7    
     2     14      1 ;     C2 - H8    
     2     15      1 ;     C2 - H9    
     3     16      1 ;     C3 - H10   
     4      9      1 ;     C4 - H3    
     4     10      1 ;     C4 - H4    
     4     15      1 ;     C4 - H9    
     5      6      1 ;     N1 - N2    
     5      9      1 ;     N1 - H3    
     5     10      1 ;     N1 - H4    
     5     13      1 ;     N1 - H7    
     5     14      1 ;     N1 - H8    
     6     11      1 ;     N2 - H5    
     6     12      1 ;     N2 - H6    
     7      3      1 ;     H1 - C3    
     7      6      1 ;     H1 - N2    
     7      9      1 ;     H1 - H3    
     7     10      1 ;     H1 - H4    
     7     15      1 ;     H1 - H9    
     8      3      1 ;     H2 - C3    
     8      6      1 ;     H2 - N2    
     8      9      1 ;     H2 - H3    
     8     10      1 ;     H2 - H4    
     8     15      1 ;     H2 - H9    
     9     16      1 ;     H3 - H10   
    10     16      1 ;     H4 - H10   
    11     13      1 ;     H5 - H7    
    11     14      1 ;     H5 - H8    
    11     15      1 ;     H5 - H9    
    12     13      1 ;     H6 - H7    
    12     14      1 ;     H6 - H8    
    12     15      1 ;     H6 - H9    
    13     16      1 ;     H7 - H10   
    14     16      1 ;     H8 - H10   

[ angles ]
;   ai     aj     ak    funct   theta         cth
     1      2      6      1 ;    1.1083e+02    5.4752e+02 ;     C1 - C2   - N2        x -    x - x   
     1      2      9      1 ;    1.0918e+02    3.6217e+02 ;     C1 - C2   - H3        x -    x - HC  
     1      2     10      1 ;    1.0918e+02    3.6217e+02 ;     C1 - C2   - H4        x -    x - HC  
     1      5      3      1 ;    1.1208e+02    6.5036e+02 ;     C1 - N1   - C3        x -    x - x   
     1      5     15      1 ;    1.0926e+02    4.7070e+02 ;     C1 - N1   - H9        x -    x - H   
     2      1      5      1 ;    1.1083e+02    5.4752e+02 ;     C2 - C1   - N1        x -    x - x   
     2      1      7      1 ;    1.0918e+02    3.6217e+02 ;     C2 - C1   - H1        x -    x - HC  
     2      1      8      1 ;    1.0918e+02    3.6217e+02 ;     C2 - C1   - H2        x -    x - HC  
     2      6      4      1 ;    1.1208e+02    6.5036e+02 ;     C2 - N2   - C4        x -    x - x   
     2      6     16      1 ;    1.0926e+02    4.7070e+02 ;     C2 - N2   - H10       x -    x - H   
     3      4      6      1 ;    1.1083e+02    5.4752e+02 ;     C3 - C4   - N2        x -    x - x   
     3      4     13      1 ;    1.0918e+02    3.6217e+02 ;     C3 - C4   - H7        x -    x - HC  
     3      4     14      1 ;    1.0918e+02    3.6217e+02 ;     C3 - C4   - H8        x -    x - HC  
     3      5     15      1 ;    1.0926e+02    4.7070e+02 ;     C3 - N1   - H9        x -    x - H   
     4      3      5      1 ;    1.1083e+02    5.4752e+02 ;     C4 - C3   - N1        x -    x - x   
     4      3     11      1 ;    1.0918e+02    3.6217e+02 ;     C4 - C3   - H5        x -    x - HC  
     4      3     12      1 ;    1.0918e+02    3.6217e+02 ;     C4 - C3   - H6        x -    x - HC  
     4      6     16      1 ;    1.0926e+02    4.7070e+02 ;     C4 - N2   - H10       x -    x - H   
     5      1      7      1 ;    1.0853e+02    4.0250e+02 ;     N1 - C1   - H1        x -    x - HC  
     5      1      8      1 ;    1.0853e+02    4.0250e+02 ;     N1 - C1   - H2        x -    x - HC  
     5      3     11      1 ;    1.0853e+02    4.0250e+02 ;     N1 - C3   - H5        x -    x - HC  
     5      3     12      1 ;    1.0853e+02    4.0250e+02 ;     N1 - C3   - H6        x -    x - HC  
     6      2      9      1 ;    1.0853e+02    4.0250e+02 ;     N2 - C2   - H3        x -    x - HC  
     6      2     10      1 ;    1.0853e+02    4.0250e+02 ;     N2 - C2   - H4        x -    x - HC  
     6      4     13      1 ;    1.0853e+02    4.0250e+02 ;     N2 - C4   - H7        x -    x - HC  
     6      4     14      1 ;    1.0853e+02    4.0250e+02 ;     N2 - C4   - H8        x -    x - HC  
     7      1      8      1 ;    1.0750e+02    2.9932e+02 ;     H1 - C1   - H2       HC -    x - HC  
     9      2     10      1 ;    1.0750e+02    2.9932e+02 ;     H3 - C2   - H4       HC -    x - HC  
    11      3     12      1 ;    1.0750e+02    2.9932e+02 ;     H5 - C3   - H6       HC -    x - HC  
    13      4     14      1 ;    1.0750e+02    2.9932e+02 ;     H7 - C4   - H8       HC -    x - HC  

[ dihedrals ] ; propers
; for gromacs 4.5 or higher, using funct 9
;    i      j      k      l   func   phase     kd      pn
     1      2      6      4      9 ;     0.00   0.58576   3 ;     C1-    C2-    N2-    C4
     1      2      6     16      9 ;     0.00   0.90793   3 ;     C1-    C2-    N2-   H10
     1      5      3      4      9 ;     0.00   0.58576   3 ;     C1-    N1-    C3-    C4
     1      5      3     11      9 ;     0.00   0.89956   3 ;     C1-    N1-    C3-    H5
     1      5      3     12      9 ;     0.00   0.89956   3 ;     C1-    N1-    C3-    H6
     2      1      5      3      9 ;     0.00   0.58576   3 ;     C2-    C1-    N1-    C3
     2      1      5     15      9 ;     0.00   0.90793   3 ;     C2-    C1-    N1-    H9
     2      6      4      3      9 ;     0.00   0.58576   3 ;     C2-    N2-    C4-    C3
     2      6      4     13      9 ;     0.00   0.89956   3 ;     C2-    N2-    C4-    H7
     2      6      4     14      9 ;     0.00   0.89956   3 ;     C2-    N2-    C4-    H8
     3      4      6     16      9 ;     0.00   0.90793   3 ;     C3-    C4-    N2-   H10
     4      3      5     15      9 ;     0.00   0.90793   3 ;     C4-    C3-    N1-    H9
     4      6      2      9      9 ;     0.00   0.89956   3 ;     C4-    N2-    C2-    H3
     4      6      2     10      9 ;     0.00   0.89956   3 ;     C4-    N2-    C2-    H4
     5      1      2      6      9 ;     0.00   0.65084   3 ;     N1-    C1-    C2-    N2
     5      1      2      9      9 ;     0.00   0.65084   3 ;     N1-    C1-    C2-    H3
     5      1      2     10      9 ;     0.00   0.65084   3 ;     N1-    C1-    C2-    H4
     5      3      4      6      9 ;     0.00   0.65084   3 ;     N1-    C3-    C4-    N2
     5      3      4     13      9 ;     0.00   0.65084   3 ;     N1-    C3-    C4-    H7
     5      3      4     14      9 ;     0.00   0.65084   3 ;     N1-    C3-    C4-    H8
     6      4      3     11      9 ;     0.00   0.65084   3 ;     N2-    C4-    C3-    H5
     6      4      3     12      9 ;     0.00   0.65084   3 ;     N2-    C4-    C3-    H6
     7      1      2      6      9 ;     0.00   0.65084   3 ;     H1-    C1-    C2-    N2
     7      1      2      9      9 ;     0.00   0.65084   3 ;     H1-    C1-    C2-    H3
     7      1      2     10      9 ;     0.00   0.65084   3 ;     H1-    C1-    C2-    H4
     7      1      5      3      9 ;     0.00   0.89956   3 ;     H1-    C1-    N1-    C3
     7      1      5     15      9 ;     0.00   1.25520   3 ;     H1-    C1-    N1-    H9
     8      1      2      6      9 ;     0.00   0.65084   3 ;     H2-    C1-    C2-    N2
     8      1      2      9      9 ;     0.00   0.65084   3 ;     H2-    C1-    C2-    H3
     8      1      2     10      9 ;     0.00   0.65084   3 ;     H2-    C1-    C2-    H4
     8      1      5      3      9 ;     0.00   0.89956   3 ;     H2-    C1-    N1-    C3
     8      1      5     15      9 ;     0.00   1.25520   3 ;     H2-    C1-    N1-    H9
     9      2      6     16      9 ;     0.00   1.25520   3 ;     H3-    C2-    N2-   H10
    10      2      6     16      9 ;     0.00   1.25520   3 ;     H4-    C2-    N2-   H10
    11      3      4     13      9 ;     0.00   0.65084   3 ;     H5-    C3-    C4-    H7
    11      3      4     14      9 ;     0.00   0.65084   3 ;     H5-    C3-    C4-    H8
    11      3      5     15      9 ;     0.00   1.25520   3 ;     H5-    C3-    N1-    H9
    12      3      4     13      9 ;     0.00   0.65084   3 ;     H6-    C3-    C4-    H7
    12      3      4     14      9 ;     0.00   0.65084   3 ;     H6-    C3-    C4-    H8
    12      3      5     15      9 ;     0.00   1.25520   3 ;     H6-    C3-    N1-    H9
    13      4      6     16      9 ;     0.00   1.25520   3 ;     H7-    C4-    N2-   H10
    14      4      6     16      9 ;     0.00   1.25520   3 ;     H8-    C4-    N2-   H10
