mobley_6981465_GMX.gro created by acpype (v: 2023.10.27) on Wed May 20 23:43:22 2026
   17
    1MOL     C1    1   2.271   2.446   2.410
    1MOL     C2    2   2.280   2.586   2.356
    1MOL     C3    3   2.283   2.141   2.208
    1MOL     C4    4   2.459   2.240   2.358
    1MOL     C5    5   2.310   2.228   2.329
    1MOL     O1    6   2.277   2.419   2.529
    1MOL     O2    7   2.256   2.358   2.307
    1MOL     H1    8   2.189   2.611   2.303
    1MOL     H2    9   2.367   2.594   2.290
    1MOL     H3   10   2.293   2.656   2.439
    1MOL     H4   11   2.320   2.039   2.222
    1MOL     H5   12   2.175   2.136   2.188
    1MOL     H6   13   2.329   2.183   2.118
    1MOL     H7   14   2.504   2.142   2.378
    1MOL     H8   15   2.476   2.305   2.444
    1MOL     H9   16   2.512   2.286   2.273
    1MOL    H10   17   2.260   2.186   2.417
   4.65460   4.65460   4.65460
