%VERSION  VERSION_STAMP = V0001.000  DATE = 05/20/26  23:44:25                  
%FLAG TITLE                                                                     
%FORMAT(20a4)                                                                   
n_butanethiol                                                                   
%FLAG POINTERS                                                                  
%FORMAT(10I8)                                                                   
      15       5      10       4      22       3      28       2       0       0
      70       1       4       3       2       5       8       6       5       0
       0       0       0       0       0       0       0       0      15       0
       0
%FLAG ATOM_NAME                                                                 
%FORMAT(20a4)                                                                   
C1  C2  C3  C4  S1  H1  H2  H3  H4  H5  H6  H7  H8  H9  H10 
%FLAG CHARGE                                                                    
%FORMAT(5E16.8)                                                                 
 -1.67827383E+00 -1.53796212E+00 -1.26462762E+00  2.49645510E-01 -7.01376327E+00
  6.14091510E-01  6.14091510E-01  6.14091510E-01  8.60092560E-01  8.60092560E-01
  9.69426360E-01  9.69426360E-01  1.06964901E+00  1.06964901E+00  3.60437094E+00
%FLAG ATOMIC_NUMBER                                                             
%FORMAT(10I8)                                                                   
       6       6       6       6      16       1       1       1       1       1
       1       1       1       1       1
%FLAG MASS                                                                      
%FORMAT(5E16.8)                                                                 
  1.20100000E+01  1.20100000E+01  1.20100000E+01  1.20100000E+01  3.20600000E+01
  1.00800000E+00  1.00800000E+00  1.00800000E+00  1.00800000E+00  1.00800000E+00
  1.00800000E+00  1.00800000E+00  1.00800000E+00  1.00800000E+00  1.00800000E+00
%FLAG ATOM_TYPE_INDEX                                                           
%FORMAT(10I8)                                                                   
       1       1       1       1       2       3       3       3       3       3
       3       3       4       4       5
%FLAG NUMBER_EXCLUDED_ATOMS                                                     
%FORMAT(10I8)                                                                   
      10      12      12       8       5       4       3       2       3       2
       3       2       2       1       1
%FLAG NONBONDED_PARM_INDEX                                                      
%FORMAT(10I8)                                                                   
       1       2       4       7      11       2       3       5       8      12
       4       5       6       9      13       7       8       9      10      14
      11      12      13      14      15
%FLAG RESIDUE_LABEL                                                             
%FORMAT(20a4)                                                                   
MOL 
%FLAG RESIDUE_POINTER                                                           
%FORMAT(10I8)                                                                   
       1
%FLAG BOND_FORCE_CONSTANT                                                       
%FORMAT(5E16.8)                                                                 
  2.28890000E+02  3.45250000E+02  1.82920000E+02  3.44220000E+02  2.77510000E+02
%FLAG BOND_EQUIL_VALUE                                                          
%FORMAT(5E16.8)                                                                 
  1.53540000E+00  1.09620000E+00  1.84460000E+00  1.09690000E+00  1.35030000E+00
%FLAG ANGLE_FORCE_CONSTANT                                                      
%FORMAT(5E16.8)                                                                 
  5.98700000E+01  4.32700000E+01  6.19500000E+01  4.32800000E+01  6.68700000E+01
  4.20300000E+01  3.58000000E+01  3.56400000E+01
%FLAG ANGLE_EQUIL_VALUE                                                         
%FORMAT(5E16.8)                                                                 
  1.96576518E+00  1.91427794E+00  1.97745889E+00  1.91270715E+00  1.68267265E+00
  1.89141412E+00  1.88024401E+00  1.89455572E+00
%FLAG DIHEDRAL_FORCE_CONSTANT                                                   
%FORMAT(5E16.8)                                                                 
  5.20000000E-01  1.30000000E-01  1.55555556E-01  2.50000000E-01  1.20000000E-01
  1.43000000E-01
%FLAG DIHEDRAL_PERIODICITY                                                      
%FORMAT(5E16.8)                                                                 
  3.00000000E+00  3.00000000E+00  3.00000000E+00  3.00000000E+00  3.00000000E+00
  3.00000000E+00
%FLAG DIHEDRAL_PHASE                                                            
%FORMAT(5E16.8)                                                                 
  0.00000000E+00  0.00000000E+00  0.00000000E+00  0.00000000E+00  0.00000000E+00
  0.00000000E+00
%FLAG SCEE_SCALE_FACTOR                                                         
%FORMAT(5E16.8)                                                                 
  1.20000000E+00  1.20000000E+00  1.20000000E+00  1.20000000E+00  1.20000000E+00
  1.20000000E+00
%FLAG SCNB_SCALE_FACTOR                                                         
%FORMAT(5E16.8)                                                                 
  2.00000000E+00  2.00000000E+00  2.00000000E+00  2.00000000E+00  2.00000000E+00
  2.00000000E+00
%FLAG SOLTY                                                                     
%FORMAT(5E16.8)                                                                 
  0.00000000E+00  0.00000000E+00  0.00000000E+00  0.00000000E+00  0.00000000E+00
%FLAG LENNARD_JONES_ACOEF                                                       
%FORMAT(5E16.8)                                                                 
  1.02073671E+06  2.09089895E+06  4.26366419E+06  1.00235148E+05  2.11783234E+05
  7.94617769E+03  6.97998263E+04  1.48672098E+05  5.22955465E+03  3.39005767E+03
  2.37627062E+03  5.48504371E+03  9.96885613E+01  5.50376371E+01  1.38032635E-01
%FLAG LENNARD_JONES_BCOEF                                                       
%FORMAT(5E16.8)                                                                 
  6.63431737E+02  1.20800124E+03  2.19459223E+03  1.37787728E+02  2.54804909E+02
  2.57122925E+01  1.14981426E+02  2.13489607E+02  2.08590256E+01  1.67944276E+01
  1.86418091E+01  3.60322711E+01  2.53060240E+00  1.88031730E+00  8.27430886E-02
%FLAG BONDS_INC_HYDROGEN                                                        
%FORMAT(10I8)                                                                   
       0      15       2       0      18       2       0      21       2       3
      24       2       3      27       2       6      30       2       6      33
       2       9      36       4       9      39       4      12      42       5
%FLAG BONDS_WITHOUT_HYDROGEN                                                    
%FORMAT(10I8)                                                                   
       0       3       1       3       6       1       6       9       1       9
      12       3
%FLAG ANGLES_INC_HYDROGEN                                                       
%FORMAT(10I8)                                                                   
       0       3      24       2       0       3      27       2       3       0
      15       2       3       0      18       2       3       0      21       2
       3       6      30       2       3       6      33       2       6       3
      24       2       6       3      27       2       6       9      36       4
       6       9      39       4       9       6      30       2       9       6
      33       2       9      12      42       5      12       9      36       6
      12       9      39       6      15       0      18       7      15       0
      21       7      18       0      21       7      24       3      27       7
      30       6      33       7      36       9      39       8
%FLAG ANGLES_WITHOUT_HYDROGEN                                                   
%FORMAT(10I8)                                                                   
       0       3       6       1       3       6       9       1       6       9
      12       3
%FLAG DIHEDRALS_INC_HYDROGEN                                                    
%FORMAT(10I8)                                                                   
       0       3       6      30       2       0       3       6      33       2
       3       6       9      36       3       3       6       9      39       3
      15       0       3       6       2      18       0       3       6       2
      21       0       3       6       2       6       9      12      42       4
       9       6       3      24       2       9       6       3      27       2
      12       9       6      30       3      12       9       6      33       3
      15       0       3      24       5      15       0       3      27       5
      18       0       3      24       5      18       0       3      27       5
      21       0       3      24       5      21       0       3      27       5
      24       3       6      30       5      24       3       6      33       5
      27       3       6      30       5      27       3       6      33       5
      30       6       9      36       3      30       6       9      39       3
      33       6       9      36       3      33       6       9      39       3
      36       9      12      42       6      39       9      12      42       6
%FLAG DIHEDRALS_WITHOUT_HYDROGEN                                                
%FORMAT(10I8)                                                                   
       0       3       6       9       1       3       6       9      12       3
%FLAG EXCLUDED_ATOMS_LIST                                                       
%FORMAT(10I8)                                                                   
       2       3       4       6       7       8       9      10      11      12
       3       4       5       6       7       8       9      10      11      12
      13      14       4       5       6       7       8       9      10      11
      12      13      14      15       5       9      10      11      12      13
      14      15      11      12      13      14      15       7       8       9
      10       8       9      10       9      10      10      11      12      11
      12      12      13      14      13      14      14      15      15       0
%FLAG HBOND_ACOEF                                                               
%FORMAT(5E16.8)                                                                 

%FLAG HBOND_BCOEF                                                               
%FORMAT(5E16.8)                                                                 

%FLAG HBCUT                                                                     
%FORMAT(5E16.8)                                                                 

%FLAG AMBER_ATOM_TYPE                                                           
%FORMAT(20a4)                                                                   
c3  c3  c3  c3  sh  hc  hc  hc  hc  hc  hc  hc  h1  h1  hs  
%FLAG TREE_CHAIN_CLASSIFICATION                                                 
%FORMAT(20a4)                                                                   
BLA BLA BLA BLA BLA BLA BLA BLA BLA BLA BLA BLA BLA BLA BLA 
%FLAG JOIN_ARRAY                                                                
%FORMAT(10I8)                                                                   
       0       0       0       0       0       0       0       0       0       0
       0       0       0       0       0
%FLAG IROTAT                                                                    
%FORMAT(10I8)                                                                   
       0       0       0       0       0       0       0       0       0       0
       0       0       0       0       0
%FLAG RADIUS_SET                                                                
%FORMAT(1a80)                                                                   
modified Bondi radii (mbondi)                                                   
%FLAG RADII                                                                     
%FORMAT(5E16.8)                                                                 
  1.70000000E+00  1.70000000E+00  1.70000000E+00  1.70000000E+00  1.80000000E+00
  1.30000000E+00  1.30000000E+00  1.30000000E+00  1.30000000E+00  1.30000000E+00
  1.30000000E+00  1.30000000E+00  1.30000000E+00  1.30000000E+00  8.00000000E-01
%FLAG SCREEN                                                                    
%FORMAT(5E16.8)                                                                 
  7.20000000E-01  7.20000000E-01  7.20000000E-01  7.20000000E-01  9.60000000E-01
  8.50000000E-01  8.50000000E-01  8.50000000E-01  8.50000000E-01  8.50000000E-01
  8.50000000E-01  8.50000000E-01  8.50000000E-01  8.50000000E-01  8.50000000E-01
%FLAG IPOL                                                                      
%FORMAT(1I8)                                                                    
       0
