; mobley_1563176_GMX_OPLS.top created by acpype (v: 2023.10.27) on Wed May 20 23:44:24 2026

; Include forcefield parameters
#include "ffoplsaa.itp"

; Include mobley_1563176_GMX.itp topology
#include "mobley_1563176_GMX.itp"

; Ligand position restraints
#ifdef POSRES_LIG
#include "posre_mobley_1563176.itp"
#endif

[ system ]
 mobley_1563176

[ molecules ]
; Compound        nmols
 mobley_1563176   1     
