; mobley_1563176_GMX.top created by acpype (v: 2023.10.27) on Wed May 20 23:44:24 2026

[ defaults ]
; nbfunc        comb-rule       gen-pairs       fudgeLJ fudgeQQ
1               2               yes             0.5     0.8333333333

; Include mobley_1563176_GMX.itp topology
#include "mobley_1563176_GMX.itp"

; Ligand position restraints
#ifdef POSRES_LIG
#include "posre_mobley_1563176.itp"
#endif

[ system ]
mobley_1563176 in water

[ molecules ]
; Compound        nmols
 mobley_1563176   1     
SOL              3164
