n_butanethiol
    15
   0.8880000  -0.0990000  -0.6260000   0.8880000  -1.4200000  -1.3800000
  -0.3380000  -1.5430000  -2.2870000  -0.4450000  -2.8930000  -2.9950000
   0.9540000  -3.2250000  -4.1060000   1.7690000  -0.0300000   0.0200000
  -0.0030000  -0.0060000   0.0040000   0.9080000   0.7480000  -1.3190000
   0.9010000  -2.2440000  -0.6580000   1.8110000  -1.4870000  -1.9660000
  -0.3460000  -0.7280000  -3.0220000  -1.2400000  -1.4130000  -1.6750000
  -0.5110000  -3.7050000  -2.2640000  -1.3590000  -2.9160000  -3.5980000
   1.1280000  -4.5000000  -3.7360000
