; mobley_1563176_GMX_OPLS.itp created by acpype (v: 2023.10.27) on Wed May 20 23:44:24 2026

; For OPLS atomtypes manual fine tuning
; AC_at:OPLS_at:OPLScode: Possible_Alternatives (see ffoplsaa.atp and ffoplsaanb.itp)
; c3:CT:opls_135: ['136', '137', '149', '157', '158', '206', '209', '210', '223B', '224B', '245', '246', '274', '283', '284', '285', '292', '292B', '293B', '296', '307', '308', '505']
; sh:SH:opls_200: []
; hc:HC:opls_140: []
; h1:HC:opls_140: []
; hs:HS:opls_204: []

[ moleculetype ]
;name            nrexcl
 mobley_1563176   3

[ atoms ]
;   nr  type  resi  res  atom  cgnr     charge      mass       ; qtot   bond_type
     1 opls_135     1   MOL    C1    1    -0.092100     12.01100 ; qtot -0.092  CT  
     2 opls_135     1   MOL    C2    2    -0.084400     12.01100 ; qtot -0.176  CT  
     3 opls_135     1   MOL    C3    3    -0.069400     12.01100 ; qtot -0.246  CT  
     4 opls_135     1   MOL    C4    4     0.013700     12.01100 ; qtot -0.232  CT  
     5 opls_200     1   MOL    S1    5    -0.384900     32.06000 ; qtot -0.617  SH  
     6 opls_140     1   MOL    H1    6     0.033700      1.00800 ; qtot -0.583  HC  
     7 opls_140     1   MOL    H2    7     0.033700      1.00800 ; qtot -0.550  HC  
     8 opls_140     1   MOL    H3    8     0.033700      1.00800 ; qtot -0.516  HC  
     9 opls_140     1   MOL    H4    9     0.047200      1.00800 ; qtot -0.469  HC  
    10 opls_140     1   MOL    H5   10     0.047200      1.00800 ; qtot -0.422  HC  
    11 opls_140     1   MOL    H6   11     0.053200      1.00800 ; qtot -0.368  HC  
    12 opls_140     1   MOL    H7   12     0.053200      1.00800 ; qtot -0.315  HC  
    13 opls_140     1   MOL    H8   13     0.058700      1.00800 ; qtot -0.257  HC  
    14 opls_140     1   MOL    H9   14     0.058700      1.00800 ; qtot -0.198  HC  
    15 opls_204     1   MOL   H10   15     0.197800      1.00800 ; qtot -0.000  HS  

[ bonds ]
;   ai     aj funct   r             k
     1      2   1 ;    1.5354e-01    1.9154e+05 ;     C1 - C2         CT - CT    
     1      6   1 ;    1.0962e-01    2.8891e+05 ;     C1 - H1         CT - HC    
     1      7   1 ;    1.0962e-01    2.8891e+05 ;     C1 - H2         CT - HC    
     1      8   1 ;    1.0962e-01    2.8891e+05 ;     C1 - H3         CT - HC    
     2      3   1 ;    1.5354e-01    1.9154e+05 ;     C2 - C3         CT - CT    
     2      9   1 ;    1.0962e-01    2.8891e+05 ;     C2 - H4         CT - HC    
     2     10   1 ;    1.0962e-01    2.8891e+05 ;     C2 - H5         CT - HC    
     3      4   1 ;    1.5354e-01    1.9154e+05 ;     C3 - C4         CT - CT    
     3     11   1 ;    1.0962e-01    2.8891e+05 ;     C3 - H6         CT - HC    
     3     12   1 ;    1.0962e-01    2.8891e+05 ;     C3 - H7         CT - HC    
     4      5   1 ;    1.8446e-01    1.5307e+05 ;     C4 - S1         CT - SH    
     4     13   1 ;    1.0969e-01    2.8804e+05 ;     C4 - H8         CT - HC    
     4     14   1 ;    1.0969e-01    2.8804e+05 ;     C4 - H9         CT - HC    
     5     15   1 ;    1.3503e-01    2.3222e+05 ;     S1 - H10        SH - HS    

[ pairs ]
;   ai     aj    funct
     1      4      1 ;     C1 - C4    
     1     11      1 ;     C1 - H6    
     1     12      1 ;     C1 - H7    
     2      5      1 ;     C2 - S1    
     2     13      1 ;     C2 - H8    
     2     14      1 ;     C2 - H9    
     3     15      1 ;     C3 - H10   
     4      9      1 ;     C4 - H4    
     4     10      1 ;     C4 - H5    
     5     11      1 ;     S1 - H6    
     5     12      1 ;     S1 - H7    
     6      3      1 ;     H1 - C3    
     6      9      1 ;     H1 - H4    
     6     10      1 ;     H1 - H5    
     7      3      1 ;     H2 - C3    
     7      9      1 ;     H2 - H4    
     7     10      1 ;     H2 - H5    
     8      3      1 ;     H3 - C3    
     8      9      1 ;     H3 - H4    
     8     10      1 ;     H3 - H5    
     9     11      1 ;     H4 - H6    
     9     12      1 ;     H4 - H7    
    10     11      1 ;     H5 - H6    
    10     12      1 ;     H5 - H7    
    11     13      1 ;     H6 - H8    
    11     14      1 ;     H6 - H9    
    12     13      1 ;     H7 - H8    
    12     14      1 ;     H7 - H9    
    13     15      1 ;     H8 - H10   
    14     15      1 ;     H9 - H10   

[ angles ]
;   ai     aj     ak    funct   theta         cth
     1      2      3      1 ;    1.1263e+02    5.0099e+02 ;     C1 - C2   - C3       CT -   CT - CT  
     1      2      9      1 ;    1.0968e+02    3.6208e+02 ;     C1 - C2   - H4       CT -   CT - HC  
     1      2     10      1 ;    1.0968e+02    3.6208e+02 ;     C1 - C2   - H5       CT -   CT - HC  
     2      1      6      1 ;    1.0968e+02    3.6208e+02 ;     C2 - C1   - H1       CT -   CT - HC  
     2      1      7      1 ;    1.0968e+02    3.6208e+02 ;     C2 - C1   - H2       CT -   CT - HC  
     2      1      8      1 ;    1.0968e+02    3.6208e+02 ;     C2 - C1   - H3       CT -   CT - HC  
     2      3      4      1 ;    1.1263e+02    5.0099e+02 ;     C2 - C3   - C4       CT -   CT - CT  
     2      3     11      1 ;    1.0968e+02    3.6208e+02 ;     C2 - C3   - H6       CT -   CT - HC  
     2      3     12      1 ;    1.0968e+02    3.6208e+02 ;     C2 - C3   - H7       CT -   CT - HC  
     3      2      9      1 ;    1.0968e+02    3.6208e+02 ;     C3 - C2   - H4       CT -   CT - HC  
     3      2     10      1 ;    1.0968e+02    3.6208e+02 ;     C3 - C2   - H5       CT -   CT - HC  
     3      4      5      1 ;    1.1330e+02    5.1840e+02 ;     C3 - C4   - S1       CT -   CT - SH  
     3      4     13      1 ;    1.0959e+02    3.6217e+02 ;     C3 - C4   - H8       CT -   CT - HC  
     3      4     14      1 ;    1.0959e+02    3.6217e+02 ;     C3 - C4   - H9       CT -   CT - HC  
     4      3     11      1 ;    1.0968e+02    3.6208e+02 ;     C4 - C3   - H6       CT -   CT - HC  
     4      3     12      1 ;    1.0968e+02    3.6208e+02 ;     C4 - C3   - H7       CT -   CT - HC  
     4      5     15      1 ;    9.6410e+01    5.5957e+02 ;     C4 - S1   - H10      CT -   SH - HS  
     5      4     13      1 ;    1.0837e+02    3.5171e+02 ;     S1 - C4   - H8       SH -   CT - HC  
     5      4     14      1 ;    1.0837e+02    3.5171e+02 ;     S1 - C4   - H9       SH -   CT - HC  
     6      1      7      1 ;    1.0773e+02    2.9957e+02 ;     H1 - C1   - H2       HC -   CT - HC  
     6      1      8      1 ;    1.0773e+02    2.9957e+02 ;     H1 - C1   - H3       HC -   CT - HC  
     7      1      8      1 ;    1.0773e+02    2.9957e+02 ;     H2 - C1   - H3       HC -   CT - HC  
     9      2     10      1 ;    1.0773e+02    2.9957e+02 ;     H4 - C2   - H5       HC -   CT - HC  
    11      3     12      1 ;    1.0773e+02    2.9957e+02 ;     H6 - C3   - H7       HC -   CT - HC  
    13      4     14      1 ;    1.0855e+02    2.9824e+02 ;     H8 - C4   - H9       HC -   CT - HC  

[ dihedrals ] ; propers
; for gromacs 4.5 or higher, using funct 9
;    i      j      k      l   func   phase     kd      pn
     1      2      3      4      9 ;     0.00   2.17568   3 ;     C1-    C2-    C3-    C4
     1      2      3     11      9 ;     0.00   0.54392   3 ;     C1-    C2-    C3-    H6
     1      2      3     12      9 ;     0.00   0.54392   3 ;     C1-    C2-    C3-    H7
     2      3      4      5      9 ;     0.00   0.65084   3 ;     C2-    C3-    C4-    S1
     2      3      4     13      9 ;     0.00   0.65084   3 ;     C2-    C3-    C4-    H8
     2      3      4     14      9 ;     0.00   0.65084   3 ;     C2-    C3-    C4-    H9
     3      4      5     15      9 ;     0.00   1.04600   3 ;     C3-    C4-    S1-   H10
     4      3      2      9      9 ;     0.00   0.54392   3 ;     C4-    C3-    C2-    H4
     4      3      2     10      9 ;     0.00   0.54392   3 ;     C4-    C3-    C2-    H5
     5      4      3     11      9 ;     0.00   0.65084   3 ;     S1-    C4-    C3-    H6
     5      4      3     12      9 ;     0.00   0.65084   3 ;     S1-    C4-    C3-    H7
     6      1      2      3      9 ;     0.00   0.54392   3 ;     H1-    C1-    C2-    C3
     6      1      2      9      9 ;     0.00   0.50208   3 ;     H1-    C1-    C2-    H4
     6      1      2     10      9 ;     0.00   0.50208   3 ;     H1-    C1-    C2-    H5
     7      1      2      3      9 ;     0.00   0.54392   3 ;     H2-    C1-    C2-    C3
     7      1      2      9      9 ;     0.00   0.50208   3 ;     H2-    C1-    C2-    H4
     7      1      2     10      9 ;     0.00   0.50208   3 ;     H2-    C1-    C2-    H5
     8      1      2      3      9 ;     0.00   0.54392   3 ;     H3-    C1-    C2-    C3
     8      1      2      9      9 ;     0.00   0.50208   3 ;     H3-    C1-    C2-    H4
     8      1      2     10      9 ;     0.00   0.50208   3 ;     H3-    C1-    C2-    H5
     9      2      3     11      9 ;     0.00   0.50208   3 ;     H4-    C2-    C3-    H6
     9      2      3     12      9 ;     0.00   0.50208   3 ;     H4-    C2-    C3-    H7
    10      2      3     11      9 ;     0.00   0.50208   3 ;     H5-    C2-    C3-    H6
    10      2      3     12      9 ;     0.00   0.50208   3 ;     H5-    C2-    C3-    H7
    11      3      4     13      9 ;     0.00   0.65084   3 ;     H6-    C3-    C4-    H8
    11      3      4     14      9 ;     0.00   0.65084   3 ;     H6-    C3-    C4-    H9
    12      3      4     13      9 ;     0.00   0.65084   3 ;     H7-    C3-    C4-    H8
    12      3      4     14      9 ;     0.00   0.65084   3 ;     H7-    C3-    C4-    H9
    13      4      5     15      9 ;     0.00   0.59831   3 ;     H8-    C4-    S1-   H10
    14      4      5     15      9 ;     0.00   0.59831   3 ;     H9-    C4-    S1-   H10
