mobley_1563176_GMX.gro created by acpype (v: 2023.10.27) on Wed May 20 23:44:24 2026
 15
    1  MOL   C1    1   0.089  -0.010  -0.063
    1  MOL   C2    2   0.089  -0.142  -0.138
    1  MOL   C3    3  -0.034  -0.154  -0.229
    1  MOL   C4    4  -0.045  -0.289  -0.300
    1  MOL   S1    5   0.095  -0.323  -0.411
    1  MOL   H1    6   0.177  -0.003   0.002
    1  MOL   H2    7  -0.000  -0.001   0.000
    1  MOL   H3    8   0.091   0.075  -0.132
    1  MOL   H4    9   0.090  -0.224  -0.066
    1  MOL   H5   10   0.181  -0.149  -0.197
    1  MOL   H6   11  -0.035  -0.073  -0.302
    1  MOL   H7   12  -0.124  -0.141  -0.168
    1  MOL   H8   13  -0.051  -0.371  -0.226
    1  MOL   H9   14  -0.136  -0.292  -0.360
    1  MOL  H10   15   0.113  -0.450  -0.374
    6.34000    10.49600     8.25200
