mobley_6571751_GMX.gro created by acpype (v: 2023.10.27) on Wed May 20 23:55:04 2026
   19
    1MOL     C1    1   2.347   2.238   2.401
    1MOL     C2    2   2.392   2.321   2.305
    1MOL     C3    3   2.206   2.185   2.406
    1MOL     C4    4   2.303   2.367   2.192
    1MOL     C5    5   2.110   2.261   2.314
    1MOL     C6    6   2.174   2.286   2.178
    1MOL     C7    7   2.532   2.374   2.305
    1MOL     H1    8   2.414   2.205   2.479
    1MOL     H2    9   2.208   2.079   2.379
    1MOL     H3   10   2.169   2.192   2.509
    1MOL     H4   11   2.279   2.473   2.208
    1MOL     H5   12   2.358   2.361   2.097
    1MOL     H6   13   2.018   2.203   2.302
    1MOL     H7   14   2.082   2.356   2.360
    1MOL     H8   15   2.104   2.340   2.113
    1MOL     H9   16   2.196   2.190   2.129
    1MOL    H10   17   2.586   2.332   2.390
    1MOL    H11   18   2.530   2.482   2.313
    1MOL    H12   19   2.582   2.345   2.213
   4.58907   4.58907   4.58907
