; mobley_3187514_GMX_OPLS.top created by acpype (v: 2023.10.27) on Wed May 20 23:52:09 2026

; Include forcefield parameters
#include "ffoplsaa.itp"

; Include mobley_3187514_GMX.itp topology
#include "mobley_3187514_GMX.itp"

; Ligand position restraints
#ifdef POSRES_LIG
#include "posre_mobley_3187514.itp"
#endif

[ system ]
 mobley_3187514

[ molecules ]
; Compound        nmols
 mobley_3187514   1     
