mobley_3187514_GMX.gro created by acpype (v: 2023.10.27) on Wed May 20 23:52:09 2026
 17
    1  MOL   C1    1   0.189  -0.104  -0.011
    1  MOL   C2    2   0.082  -0.044   0.056
    1  MOL   C3    3   0.294  -0.160   0.061
    1  MOL   C4    4   0.080  -0.041   0.196
    1  MOL   C5    5   0.292  -0.157   0.201
    1  MOL   C6    6   0.185  -0.098   0.268
    1  MOL   C7    7   0.406  -0.219   0.276
    1  MOL   N1    8   0.182  -0.094   0.409
    1  MOL   H1    9   0.190  -0.106  -0.120
    1  MOL   H2   10   0.000  -0.000  -0.000
    1  MOL   H3   11   0.376  -0.207   0.008
    1  MOL   H4   12  -0.004   0.006   0.247
    1  MOL   H5   13   0.456  -0.143   0.337
    1  MOL   H6   14   0.371  -0.300   0.341
    1  MOL   H7   15   0.479  -0.263   0.207
    1  MOL   H8   16   0.241  -0.155   0.461
    1  MOL   H9   17   0.113  -0.036   0.455
    9.65200     6.10400    11.60800
