%VERSION  VERSION_STAMP = V0001.000  DATE = 05/20/26  23:52:10                  
%FLAG TITLE                                                                     
%FORMAT(20a4)                                                                   
o_toluidine                                                                     
%FLAG POINTERS                                                                  
%FORMAT(10I8)                                                                   
      17       6       9       8      17      10      28      13       0       0
      79       1       8      10      13       6       8       4       6       0
       0       0       0       0       0       0       0       0      17       0
       0
%FLAG ATOM_NAME                                                                 
%FORMAT(20a4)                                                                   
C1  C2  C3  C4  C5  C6  C7  N1  H1  H2  H3  H4  H5  H6  H7  H8  H9  
%FLAG CHARGE                                                                    
%FORMAT(5E16.8)                                                                 
 -3.09779100E+00 -1.76756310E+00 -1.71289620E+00 -3.44401470E+00 -2.46547719E+00
  2.48916618E+00 -8.71025940E-01 -1.48730413E+01  2.36889900E+00  2.35067670E+00
  2.33245440E+00  2.35067670E+00  7.41647610E-01  7.41647610E-01  7.41647610E-01
  7.04838564E+00  7.04838564E+00
%FLAG ATOMIC_NUMBER                                                             
%FORMAT(10I8)                                                                   
       6       6       6       6       6       6       6       7       1       1
       1       1       1       1       1       1       1
%FLAG MASS                                                                      
%FORMAT(5E16.8)                                                                 
  1.20100000E+01  1.20100000E+01  1.20100000E+01  1.20100000E+01  1.20100000E+01
  1.20100000E+01  1.20100000E+01  1.40100000E+01  1.00800000E+00  1.00800000E+00
  1.00800000E+00  1.00800000E+00  1.00800000E+00  1.00800000E+00  1.00800000E+00
  1.00800000E+00  1.00800000E+00
%FLAG ATOM_TYPE_INDEX                                                           
%FORMAT(10I8)                                                                   
       1       1       1       1       1       1       2       3       4       4
       4       4       5       5       5       6       6
%FLAG NUMBER_EXCLUDED_ATOMS                                                     
%FORMAT(10I8)                                                                   
      10       9      11       9      11      10       5       3       2       1
       1       1       2       1       1       1       1
%FLAG NONBONDED_PARM_INDEX                                                      
%FORMAT(10I8)                                                                   
       1       2       4       7      11      16       2       3       5       8
      12      17       4       5       6       9      13      18       7       8
       9      10      14      19      11      12      13      14      15      20
      16      17      18      19      20      21
%FLAG RESIDUE_LABEL                                                             
%FORMAT(20a4)                                                                   
MOL 
%FLAG RESIDUE_POINTER                                                           
%FORMAT(10I8)                                                                   
       1
%FLAG BOND_FORCE_CONSTANT                                                       
%FORMAT(5E16.8)                                                                 
  3.54250000E+02  3.60690000E+02  2.43910000E+02  3.42300000E+02  3.45250000E+02
  4.77540000E+02
%FLAG BOND_EQUIL_VALUE                                                          
%FORMAT(5E16.8)                                                                 
  1.39860000E+00  1.08600000E+00  1.51470000E+00  1.37440000E+00  1.09620000E+00
  1.01140000E+00
%FLAG ANGLE_FORCE_CONSTANT                                                      
%FORMAT(5E16.8)                                                                 
  6.36700000E+01  4.49000000E+01  6.07400000E+01  6.79100000E+01  4.36100000E+01
  5.77100000E+01  3.58000000E+01  4.63600000E+01
%FLAG ANGLE_EQUIL_VALUE                                                         
%FORMAT(5E16.8)                                                                 
  2.09474507E+00  2.09230160E+00  2.10888224E+00  2.11080210E+00  1.93085858E+00
  2.03732371E+00  1.88024401E+00  2.01201642E+00
%FLAG DIHEDRAL_FORCE_CONSTANT                                                   
%FORMAT(5E16.8)                                                                 
  3.62500000E+00  0.00000000E+00  1.05000000E+00  1.10000000E+00
%FLAG DIHEDRAL_PERIODICITY                                                      
%FORMAT(5E16.8)                                                                 
  2.00000000E+00  1.00000000E+00  2.00000000E+00  2.00000000E+00
%FLAG DIHEDRAL_PHASE                                                            
%FORMAT(5E16.8)                                                                 
  3.14159400E+00  0.00000000E+00  3.14159400E+00  3.14159400E+00
%FLAG SCEE_SCALE_FACTOR                                                         
%FORMAT(5E16.8)                                                                 
  1.20000000E+00  1.20000000E+00  1.20000000E+00  0.00000000E+00
%FLAG SCNB_SCALE_FACTOR                                                         
%FORMAT(5E16.8)                                                                 
  2.00000000E+00  2.00000000E+00  2.00000000E+00  0.00000000E+00
%FLAG SOLTY                                                                     
%FORMAT(5E16.8)                                                                 
  0.00000000E+00  0.00000000E+00  0.00000000E+00  0.00000000E+00  0.00000000E+00
  0.00000000E+00
%FLAG LENNARD_JONES_ACOEF                                                       
%FORMAT(5E16.8)                                                                 
  6.96551276E+05  8.43969952E+05  1.02073671E+06  8.15855629E+05  9.87370297E+05
  9.54875571E+05  7.52549148E+04  9.27554496E+04  8.91217989E+04  6.90855956E+03
  8.12662403E+04  1.00235148E+05  9.62844277E+04  7.41026906E+03  7.94617769E+03
  1.71458823E+03  2.23577481E+03  2.10567903E+03  9.04434904E+01  9.47421632E+01
  1.34728399E-01
%FLAG LENNARD_JONES_BCOEF                                                       
%FORMAT(5E16.8)                                                                 
  5.24668528E+02  5.90251928E+02  6.63431737E+02  5.85909304E+02  6.58763033E+02
  6.54052181E+02  1.09570372E+02  1.24325688E+02  1.23036209E+02  2.10929191E+01
  1.21392023E+02  1.37787728E+02  1.36341592E+02  2.32899892E+01  2.57122925E+01
  1.46824710E+01  1.71355763E+01  1.67892226E+01  2.14252117E+00  2.33785449E+00
  7.34107347E-02
%FLAG BONDS_INC_HYDROGEN                                                        
%FORMAT(10I8)                                                                   
       0      24       2       3      27       2       6      30       2       9
      33       2      18      36       5      18      39       5      18      42
       5      21      45       6      21      48       6
%FLAG BONDS_WITHOUT_HYDROGEN                                                    
%FORMAT(10I8)                                                                   
       0       3       1       0       6       1       3       9       1       6
      12       1       9      15       1      12      15       1      12      18
       3      15      21       4
%FLAG ANGLES_INC_HYDROGEN                                                       
%FORMAT(10I8)                                                                   
       0       3      27       2       0       6      30       2       3       0
      24       2       3       9      33       2       6       0      24       2
       9       3      27       2      12       6      30       2      12      18
      36       5      12      18      39       5      12      18      42       5
      15       9      33       2      15      21      45       6      15      21
      48       6      36      18      39       7      36      18      42       7
      39      18      42       7      45      21      48       8
%FLAG ANGLES_WITHOUT_HYDROGEN                                                   
%FORMAT(10I8)                                                                   
       0       3       9       1       0       6      12       1       3       0
       6       1       3       9      15       1       6      12      15       1
       6      12      18       3       9      15      12       1       9      15
      21       4      12      15      21       4      15      12      18       3
%FLAG DIHEDRALS_INC_HYDROGEN                                                    
%FORMAT(10I8)                                                                   
       0       3       9      33       1       3       0       6      30       1
       6       0       3      27       1       6      12      18      36       2
       6      12      18      39       2       6      12      18      42       2
      24       0       3       9       1       9      15      21      45       3
       9      15      21      48       3      24       0       6      12       1
      12      15       9      33       1      12      15      21      45       3
      12      15      21      48       3      15       9       3      27       1
      15      12       6      30       1      15      12      18      36       2
      15      12      18      39       2      15      12      18      42       2
      18      12       6      30       1      21      15       9      33       1
      24       0       3      27       1      24       0       6      30       1
      27       3       9      33       1      24       0      -6      -3       4
       0       9      -3     -27       4       0      12      -6     -30       4
       3      15      -9     -33       4      15      45     -21     -48       4
%FLAG DIHEDRALS_WITHOUT_HYDROGEN                                                
%FORMAT(10I8)                                                                   
       0       3       9      15       1       0       6     -12      15       1
       0       6      12      18       1       3       0       6      12       1
       3       9     -15      12       1       3       9      15      21       1
       6       0       3       9       1       6      12     -15       9       1
       6      12      15      21       1       9      15      12      18       1
      18      12      15      21       1       6      15     -12     -18       4
       9      12     -15     -21       4
%FLAG EXCLUDED_ATOMS_LIST                                                       
%FORMAT(10I8)                                                                   
       2       3       4       5       6       7       9      10      11      12
       3       4       5       6       8       9      10      11      12       4
       5       6       7       8       9      10      11      13      14      15
       5       6       7       8       9      10      12      16      17       6
       7       8       9      11      12      13      14      15      16      17
       7       8      10      11      12      13      14      15      16      17
       8      11      13      14      15      12      16      17      10      11
      12       0       0      14      15      15       0      17       0
%FLAG HBOND_ACOEF                                                               
%FORMAT(5E16.8)                                                                 

%FLAG HBOND_BCOEF                                                               
%FORMAT(5E16.8)                                                                 

%FLAG HBCUT                                                                     
%FORMAT(5E16.8)                                                                 

%FLAG AMBER_ATOM_TYPE                                                           
%FORMAT(20a4)                                                                   
ca  ca  ca  ca  ca  ca  c3  nv  ha  ha  ha  ha  hc  hc  hc  hn  hn  
%FLAG TREE_CHAIN_CLASSIFICATION                                                 
%FORMAT(20a4)                                                                   
BLA BLA BLA BLA BLA BLA BLA BLA BLA BLA BLA BLA BLA BLA BLA BLA BLA 
%FLAG JOIN_ARRAY                                                                
%FORMAT(10I8)                                                                   
       0       0       0       0       0       0       0       0       0       0
       0       0       0       0       0       0       0
%FLAG IROTAT                                                                    
%FORMAT(10I8)                                                                   
       0       0       0       0       0       0       0       0       0       0
       0       0       0       0       0       0       0
%FLAG RADIUS_SET                                                                
%FORMAT(1a80)                                                                   
modified Bondi radii (mbondi)                                                   
%FLAG RADII                                                                     
%FORMAT(5E16.8)                                                                 
  1.70000000E+00  1.70000000E+00  1.70000000E+00  1.70000000E+00  1.70000000E+00
  1.70000000E+00  1.70000000E+00  1.55000000E+00  1.30000000E+00  1.30000000E+00
  1.30000000E+00  1.30000000E+00  1.30000000E+00  1.30000000E+00  1.30000000E+00
  1.30000000E+00  1.30000000E+00
%FLAG SCREEN                                                                    
%FORMAT(5E16.8)                                                                 
  7.20000000E-01  7.20000000E-01  7.20000000E-01  7.20000000E-01  7.20000000E-01
  7.20000000E-01  7.20000000E-01  7.90000000E-01  8.50000000E-01  8.50000000E-01
  8.50000000E-01  8.50000000E-01  8.50000000E-01  8.50000000E-01  8.50000000E-01
  8.50000000E-01  8.50000000E-01
%FLAG IPOL                                                                      
%FORMAT(1I8)                                                                    
       0
