o_toluidine
    17
   1.8850000  -1.0380000  -0.1090000   0.8180000  -0.4410000   0.5630000
   2.9350000  -1.6040000   0.6140000   0.8010000  -0.4100000   1.9570000
   2.9180000  -1.5730000   2.0080000   1.8510000  -0.9770000   2.6800000
   4.0560000  -2.1880000   2.7570000   1.8170000  -0.9360000   4.0910000
   1.8980000  -1.0610000  -1.1950000   0.0000000  -0.0000000  -0.0000000
   3.7610000  -2.0660000   0.0810000  -0.0360000   0.0570000   2.4690000
   4.5590000  -1.4310000   3.3690000   3.7080000  -2.9950000   3.4130000
   4.7900000  -2.6270000   2.0700000   2.4100000  -1.5500000   4.6090000
   1.1340000  -0.3640000   4.5450000
