mobley_4013838_GMX.gro created by acpype (v: 2023.10.27) on Wed May 20 23:56:05 2026
 22
    1  MOL   C1    1  -0.270  -0.200   0.087
    1  MOL   C2    2  -0.054  -0.074   0.059
    1  MOL   C3    3  -0.274   0.038   0.014
    1  MOL   C4    4  -0.489  -0.323   0.104
    1  MOL   C5    5  -0.307  -0.404  -0.050
    1  MOL   C6    6  -0.196  -0.092   0.007
    1  MOL   C7    7  -0.374  -0.282   0.012
    1  MOL   O1    8  -0.247  -0.218   0.207
    1  MOL   H1    9  -0.053  -0.037   0.163
    1  MOL   H2   10   0.001  -0.002  -0.002
    1  MOL   H3   11   0.000  -0.169   0.058
    1  MOL   H4   12  -0.376   0.026  -0.026
    1  MOL   H5   13  -0.284   0.074   0.117
    1  MOL   H6   14  -0.224   0.116  -0.045
    1  MOL   H7   15  -0.534  -0.235   0.151
    1  MOL   H8   16  -0.567  -0.376   0.048
    1  MOL   H9   17  -0.454  -0.389   0.184
    1  MOL  H10   18  -0.263  -0.468   0.027
    1  MOL  H11   19  -0.379  -0.464  -0.106
    1  MOL  H12   20  -0.227  -0.375  -0.118
    1  MOL  H13   21  -0.190  -0.126  -0.097
    1  MOL  H14   22  -0.416  -0.220  -0.068
   11.35000    11.69000     6.50200
