%VERSION  VERSION_STAMP = V0001.000  DATE = 05/20/26  23:56:07                  
%FLAG TITLE                                                                     
%FORMAT(20a4)                                                                   
24_dimethylpentan_3_one                                                         
%FLAG POINTERS                                                                  
%FORMAT(10I8)                                                                   
      22       4      14       7      30       9      42      17       0       0
     110       1       7       9      17       4       7      11       4       0
       0       0       0       0       0       0       0       0      22       0
       0
%FLAG ATOM_NAME                                                                 
%FORMAT(20a4)                                                                   
C1  C2  C3  C4  C5  C6  C7  O1  H1  H2  H3  H4  H5  H6  H7  H8  H9  H10 H11 H12 
H13 H14 
%FLAG CHARGE                                                                    
%FORMAT(5E16.8)                                                                 
  1.04067555E+01 -1.57805118E+00 -1.57805118E+00 -1.57805118E+00 -1.57805118E+00
 -3.00121281E+00 -3.00121281E+00 -9.56852973E+00  7.78092210E-01  7.78092210E-01
  7.78092210E-01  7.78092210E-01  7.78092210E-01  7.78092210E-01  7.78092210E-01
  7.78092210E-01  7.78092210E-01  7.78092210E-01  7.78092210E-01  7.78092210E-01
  1.08787131E+00  1.08787131E+00
%FLAG ATOMIC_NUMBER                                                             
%FORMAT(10I8)                                                                   
       6       6       6       6       6       6       6       8       1       1
       1       1       1       1       1       1       1       1       1       1
       1       1
%FLAG MASS                                                                      
%FORMAT(5E16.8)                                                                 
  1.20100000E+01  1.20100000E+01  1.20100000E+01  1.20100000E+01  1.20100000E+01
  1.20100000E+01  1.20100000E+01  1.60000000E+01  1.00800000E+00  1.00800000E+00
  1.00800000E+00  1.00800000E+00  1.00800000E+00  1.00800000E+00  1.00800000E+00
  1.00800000E+00  1.00800000E+00  1.00800000E+00  1.00800000E+00  1.00800000E+00
  1.00800000E+00  1.00800000E+00
%FLAG ATOM_TYPE_INDEX                                                           
%FORMAT(10I8)                                                                   
       1       2       2       2       2       2       2       3       4       4
       4       4       4       4       4       4       4       4       4       4
       4       4
%FLAG NUMBER_EXCLUDED_ATOMS                                                     
%FORMAT(10I8)                                                                   
      21      11      10      11      10      10       9       2       3       2
       1       3       2       1       3       2       1       3       2       1
       1       1
%FLAG NONBONDED_PARM_INDEX                                                      
%FORMAT(10I8)                                                                   
       1       2       4       7       2       3       5       8       4       5
       6       9       7       8       9      10
%FLAG RESIDUE_LABEL                                                             
%FORMAT(20a4)                                                                   
MOL 
%FLAG RESIDUE_POINTER                                                           
%FORMAT(10I8)                                                                   
       1
%FLAG BOND_FORCE_CONSTANT                                                       
%FORMAT(5E16.8)                                                                 
  2.34850000E+02  5.90600000E+02  2.28890000E+02  3.45250000E+02
%FLAG BOND_EQUIL_VALUE                                                          
%FORMAT(5E16.8)                                                                 
  1.52700000E+00  1.21900000E+00  1.53540000E+00  1.09620000E+00
%FLAG ANGLE_FORCE_CONSTANT                                                      
%FORMAT(5E16.8)                                                                 
  6.03600000E+01  4.36300000E+01  5.98700000E+01  4.32700000E+01  5.91500000E+01
  7.64500000E+01  3.58000000E+01
%FLAG ANGLE_EQUIL_VALUE                                                         
%FORMAT(5E16.8)                                                                 
  1.94482122E+00  1.90153704E+00  1.96576518E+00  1.91427794E+00  2.03645104E+00
  2.14501057E+00  1.88024401E+00
%FLAG DIHEDRAL_FORCE_CONSTANT                                                   
%FORMAT(5E16.8)                                                                 
  1.55555556E-01  2.62000000E-01  6.80000000E-01  2.00000000E-01  4.40000000E-01
  1.30000000E-01  0.00000000E+00  4.03000000E+00  3.66000000E+00  1.20000000E-01
  1.10000000E+00
%FLAG DIHEDRAL_PERIODICITY                                                      
%FORMAT(5E16.8)                                                                 
  3.00000000E+00  2.00000000E+00  1.00000000E+00  2.00000000E+00  3.00000000E+00
  3.00000000E+00  3.00000000E+00  1.00000000E+00  2.00000000E+00  3.00000000E+00
  2.00000000E+00
%FLAG DIHEDRAL_PHASE                                                            
%FORMAT(5E16.8)                                                                 
  0.00000000E+00  3.14159400E+00  0.00000000E+00  3.14159400E+00  3.14159400E+00
  0.00000000E+00  3.14159400E+00  0.00000000E+00  3.14159400E+00  0.00000000E+00
  3.14159400E+00
%FLAG SCEE_SCALE_FACTOR                                                         
%FORMAT(5E16.8)                                                                 
  1.20000000E+00  1.20000000E+00  1.20000000E+00  1.20000000E+00  1.20000000E+00
  1.20000000E+00  1.20000000E+00  1.20000000E+00  1.20000000E+00  1.20000000E+00
  0.00000000E+00
%FLAG SCNB_SCALE_FACTOR                                                         
%FORMAT(5E16.8)                                                                 
  2.00000000E+00  2.00000000E+00  2.00000000E+00  2.00000000E+00  2.00000000E+00
  2.00000000E+00  2.00000000E+00  2.00000000E+00  2.00000000E+00  2.00000000E+00
  0.00000000E+00
%FLAG SOLTY                                                                     
%FORMAT(5E16.8)                                                                 
  0.00000000E+00  0.00000000E+00  0.00000000E+00  0.00000000E+00
%FLAG LENNARD_JONES_ACOEF                                                       
%FORMAT(5E16.8)                                                                 
  6.96551276E+05  8.43969952E+05  1.02073671E+06  5.17507491E+05  6.30925504E+05
  3.76435470E+05  8.12662403E+04  1.00235148E+05  5.68021765E+04  7.94617769E+03
%FLAG LENNARD_JONES_BCOEF                                                       
%FORMAT(5E16.8)                                                                 
  5.24668528E+02  5.90251928E+02  6.63431737E+02  4.98871431E+02  5.62969425E+02
  4.69350655E+02  1.21392023E+02  1.37787728E+02  1.11953944E+02  2.57122925E+01
%FLAG BONDS_INC_HYDROGEN                                                        
%FORMAT(10I8)                                                                   
       3      24       4       3      27       4       3      30       4       6
      33       4       6      36       4       6      39       4       9      42
       4       9      45       4       9      48       4      12      51       4
      12      54       4      12      57       4      15      60       4      18
      63       4
%FLAG BONDS_WITHOUT_HYDROGEN                                                    
%FORMAT(10I8)                                                                   
       0      15       1       0      18       1       0      21       2       3
      15       3       6      15       3       9      18       3      12      18
       3
%FLAG ANGLES_INC_HYDROGEN                                                       
%FORMAT(10I8)                                                                   
       0      15      60       2       0      18      63       2       3      15
      60       4       6      15      60       4       9      18      63       4
      12      18      63       4      15       3      24       4      15       3
      27       4      15       3      30       4      15       6      33       4
      15       6      36       4      15       6      39       4      18       9
      42       4      18       9      45       4      18       9      48       4
      18      12      51       4      18      12      54       4      18      12
      57       4      24       3      27       7      24       3      30       7
      27       3      30       7      33       6      36       7      33       6
      39       7      36       6      39       7      42       9      45       7
      42       9      48       7      45       9      48       7      51      12
      54       7      51      12      57       7      54      12      57       7
%FLAG ANGLES_WITHOUT_HYDROGEN                                                   
%FORMAT(10I8)                                                                   
       0      15       3       1       0      15       6       1       0      18
       9       1       0      18      12       1       3      15       6       3
       9      18      12       3      15       0      18       5      15       0
      21       6      18       0      21       6
%FLAG DIHEDRALS_INC_HYDROGEN                                                    
%FORMAT(10I8)                                                                   
       0      15       3      24       1       0      15       3      27       1
       0      15       3      30       1       0      15       6      33       1
       0      15       6      36       1       0      15       6      39       1
       0      18       9      42       1       0      18       9      45       1
       0      18       9      48       1       0      18      12      51       1
       0      18      12      54       1       0      18      12      57       1
       3      15       6      33       6       3      15       6      36       6
       3      15       6      39       6       6      15       3      24       6
       6      15       3      27       6       6      15       3      30       6
       9      18      12      51       6       9      18      12      54       6
       9      18      12      57       6      12      18       9      42       6
      12      18       9      45       6      12      18       9      48       6
      15       0      18      63       7      18       0      15      60       7
      21       0      15      60       8      21       0     -15      60       9
      21       0      18      63       8      21       0     -18      63       9
      24       3      15      60      10      27       3      15      60      10
      30       3      15      60      10      33       6      15      60      10
      36       6      15      60      10      39       6      15      60      10
      42       9      18      63      10      45       9      18      63      10
      48       9      18      63      10      51      12      18      63      10
      54      12      18      63      10      57      12      18      63      10
%FLAG DIHEDRALS_WITHOUT_HYDROGEN                                                
%FORMAT(10I8)                                                                   
      18       0      15       3       2      21       0      15       3       3
      21       0     -15       3       4      21       0     -15       3       5
      18       0      15       6       2      21       0      15       6       3
      21       0     -15       6       4      21       0     -15       6       5
      15       0      18       9       2      21       0      18       9       3
      21       0     -18       9       4      21       0     -18       9       5
      15       0      18      12       2      21       0      18      12       3
      21       0     -18      12       4      21       0     -18      12       5
      21       0     -18     -15      11
%FLAG EXCLUDED_ATOMS_LIST                                                       
%FORMAT(10I8)                                                                   
       2       3       4       5       6       7       8       9      10      11
      12      13      14      15      16      17      18      19      20      21
      22       3       6       7       8       9      10      11      12      13
      14      21       6       7       8       9      10      11      12      13
      14      21       5       6       7       8      15      16      17      18
      19      20      22       6       7       8      15      16      17      18
      19      20      22       7       8       9      10      11      12      13
      14      21      22       8      15      16      17      18      19      20
      21      22      21      22      10      11      21      11      21      21
      13      14      21      14      21      21      16      17      22      17
      22      22      19      20      22      20      22      22       0       0
%FLAG HBOND_ACOEF                                                               
%FORMAT(5E16.8)                                                                 

%FLAG HBOND_BCOEF                                                               
%FORMAT(5E16.8)                                                                 

%FLAG HBCUT                                                                     
%FORMAT(5E16.8)                                                                 

%FLAG AMBER_ATOM_TYPE                                                           
%FORMAT(20a4)                                                                   
c   c3  c3  c3  c3  c3  c3  o   hc  hc  hc  hc  hc  hc  hc  hc  hc  hc  hc  hc  
hc  hc  
%FLAG TREE_CHAIN_CLASSIFICATION                                                 
%FORMAT(20a4)                                                                   
BLA BLA BLA BLA BLA BLA BLA BLA BLA BLA BLA BLA BLA BLA BLA BLA BLA BLA BLA BLA 
BLA BLA 
%FLAG JOIN_ARRAY                                                                
%FORMAT(10I8)                                                                   
       0       0       0       0       0       0       0       0       0       0
       0       0       0       0       0       0       0       0       0       0
       0       0
%FLAG IROTAT                                                                    
%FORMAT(10I8)                                                                   
       0       0       0       0       0       0       0       0       0       0
       0       0       0       0       0       0       0       0       0       0
       0       0
%FLAG RADIUS_SET                                                                
%FORMAT(1a80)                                                                   
modified Bondi radii (mbondi)                                                   
%FLAG RADII                                                                     
%FORMAT(5E16.8)                                                                 
  1.70000000E+00  1.70000000E+00  1.70000000E+00  1.70000000E+00  1.70000000E+00
  1.70000000E+00  1.70000000E+00  1.50000000E+00  1.30000000E+00  1.30000000E+00
  1.30000000E+00  1.30000000E+00  1.30000000E+00  1.30000000E+00  1.30000000E+00
  1.30000000E+00  1.30000000E+00  1.30000000E+00  1.30000000E+00  1.30000000E+00
  1.30000000E+00  1.30000000E+00
%FLAG SCREEN                                                                    
%FORMAT(5E16.8)                                                                 
  7.20000000E-01  7.20000000E-01  7.20000000E-01  7.20000000E-01  7.20000000E-01
  7.20000000E-01  7.20000000E-01  8.50000000E-01  8.50000000E-01  8.50000000E-01
  8.50000000E-01  8.50000000E-01  8.50000000E-01  8.50000000E-01  8.50000000E-01
  8.50000000E-01  8.50000000E-01  8.50000000E-01  8.50000000E-01  8.50000000E-01
  8.50000000E-01  8.50000000E-01
%FLAG IPOL                                                                      
%FORMAT(1I8)                                                                    
       0
