24_dimethylpentan_3_one
    22
  -2.7030000  -1.9950000   0.8730000  -0.5400000  -0.7410000   0.5950000
  -2.7430000   0.3840000   0.1370000  -4.8870000  -3.2320000   1.0390000
  -3.0700000  -4.0410000  -0.4990000  -1.9630000  -0.9240000   0.0740000
  -3.7420000  -2.8210000   0.1180000  -2.4730000  -2.1840000   2.0690000
  -0.5340000  -0.3720000   1.6270000   0.0100000  -0.0240000  -0.0230000
   0.0040000  -1.6910000   0.5800000  -3.7550000   0.2590000  -0.2620000
  -2.8400000   0.7380000   1.1690000  -2.2440000   1.1640000  -0.4470000
  -5.3440000  -2.3520000   1.5060000  -5.6650000  -3.7610000   0.4800000
  -4.5400000  -3.8900000   1.8430000  -2.6250000  -4.6810000   0.2720000
  -3.7900000  -4.6400000  -1.0650000  -2.2660000  -3.7460000  -1.1820000
  -1.8980000  -1.2600000  -0.9670000  -4.1610000  -2.1950000  -0.6790000
