; mobley_4013838_GMX_OPLS.top created by acpype (v: 2023.10.27) on Wed May 20 23:56:05 2026

; Include forcefield parameters
#include "ffoplsaa.itp"

; Include mobley_4013838_GMX.itp topology
#include "mobley_4013838_GMX.itp"

; Ligand position restraints
#ifdef POSRES_LIG
#include "posre_mobley_4013838.itp"
#endif

[ system ]
 mobley_4013838

[ molecules ]
; Compound        nmols
 mobley_4013838   1     
