; mobley_4013838_GMX_OPLS.itp created by acpype (v: 2023.10.27) on Wed May 20 23:56:05 2026

; For OPLS atomtypes manual fine tuning
; AC_at:OPLS_at:OPLScode: Possible_Alternatives (see ffoplsaa.atp and ffoplsaanb.itp)
; c:C:opls_235: ['271']
; c3:CT:opls_135: ['136', '137', '149', '157', '158', '206', '209', '210', '223B', '224B', '245', '246', '274', '283', '284', '285', '292', '292B', '293B', '296', '307', '308', '505']
; o:O:opls_236: ['272']
; hc:HC:opls_140: []

[ moleculetype ]
;name            nrexcl
 mobley_4013838   3

[ atoms ]
;   nr  type  resi  res  atom  cgnr     charge      mass       ; qtot   bond_type
     1 opls_235     1   MOL    C1    1     0.569100     12.01100 ; qtot  0.569  C   
     2 opls_135     1   MOL    C2    2    -0.086600     12.01100 ; qtot  0.482  CT  
     3 opls_135     1   MOL    C3    3    -0.086600     12.01100 ; qtot  0.396  CT  
     4 opls_135     1   MOL    C4    4    -0.086600     12.01100 ; qtot  0.309  CT  
     5 opls_135     1   MOL    C5    5    -0.086600     12.01100 ; qtot  0.223  CT  
     6 opls_135     1   MOL    C6    6    -0.164700     12.01100 ; qtot  0.058  CT  
     7 opls_135     1   MOL    C7    7    -0.164700     12.01100 ; qtot -0.107  CT  
     8 opls_236     1   MOL    O1    8    -0.525100     15.99940 ; qtot -0.632  O   
     9 opls_140     1   MOL    H1    9     0.042700      1.00800 ; qtot -0.589  HC  
    10 opls_140     1   MOL    H2   10     0.042700      1.00800 ; qtot -0.546  HC  
    11 opls_140     1   MOL    H3   11     0.042700      1.00800 ; qtot -0.504  HC  
    12 opls_140     1   MOL    H4   12     0.042700      1.00800 ; qtot -0.461  HC  
    13 opls_140     1   MOL    H5   13     0.042700      1.00800 ; qtot -0.418  HC  
    14 opls_140     1   MOL    H6   14     0.042700      1.00800 ; qtot -0.376  HC  
    15 opls_140     1   MOL    H7   15     0.042700      1.00800 ; qtot -0.333  HC  
    16 opls_140     1   MOL    H8   16     0.042700      1.00800 ; qtot -0.290  HC  
    17 opls_140     1   MOL    H9   17     0.042700      1.00800 ; qtot -0.248  HC  
    18 opls_140     1   MOL   H10   18     0.042700      1.00800 ; qtot -0.205  HC  
    19 opls_140     1   MOL   H11   19     0.042700      1.00800 ; qtot -0.162  HC  
    20 opls_140     1   MOL   H12   20     0.042700      1.00800 ; qtot -0.119  HC  
    21 opls_140     1   MOL   H13   21     0.059700      1.00800 ; qtot -0.060  HC  
    22 opls_140     1   MOL   H14   22     0.059700      1.00800 ; qtot -0.000  HC  

[ bonds ]
;   ai     aj funct   r             k
     1      6   1 ;    1.5270e-01    1.9652e+05 ;     C1 - C6          C - CT    
     1      7   1 ;    1.5270e-01    1.9652e+05 ;     C1 - C7          C - CT    
     1      8   1 ;    1.2190e-01    4.9421e+05 ;     C1 - O1          C - O     
     2      6   1 ;    1.5354e-01    1.9154e+05 ;     C2 - C6         CT - CT    
     2      9   1 ;    1.0962e-01    2.8891e+05 ;     C2 - H1         CT - HC    
     2     10   1 ;    1.0962e-01    2.8891e+05 ;     C2 - H2         CT - HC    
     2     11   1 ;    1.0962e-01    2.8891e+05 ;     C2 - H3         CT - HC    
     3      6   1 ;    1.5354e-01    1.9154e+05 ;     C3 - C6         CT - CT    
     3     12   1 ;    1.0962e-01    2.8891e+05 ;     C3 - H4         CT - HC    
     3     13   1 ;    1.0962e-01    2.8891e+05 ;     C3 - H5         CT - HC    
     3     14   1 ;    1.0962e-01    2.8891e+05 ;     C3 - H6         CT - HC    
     4      7   1 ;    1.5354e-01    1.9154e+05 ;     C4 - C7         CT - CT    
     4     15   1 ;    1.0962e-01    2.8891e+05 ;     C4 - H7         CT - HC    
     4     16   1 ;    1.0962e-01    2.8891e+05 ;     C4 - H8         CT - HC    
     4     17   1 ;    1.0962e-01    2.8891e+05 ;     C4 - H9         CT - HC    
     5      7   1 ;    1.5354e-01    1.9154e+05 ;     C5 - C7         CT - CT    
     5     18   1 ;    1.0962e-01    2.8891e+05 ;     C5 - H10        CT - HC    
     5     19   1 ;    1.0962e-01    2.8891e+05 ;     C5 - H11        CT - HC    
     5     20   1 ;    1.0962e-01    2.8891e+05 ;     C5 - H12        CT - HC    
     6     21   1 ;    1.0962e-01    2.8891e+05 ;     C6 - H13        CT - HC    
     7     22   1 ;    1.0962e-01    2.8891e+05 ;     C7 - H14        CT - HC    

[ pairs ]
;   ai     aj    funct
     1      9      1 ;     C1 - H1    
     1     10      1 ;     C1 - H2    
     1     11      1 ;     C1 - H3    
     1     12      1 ;     C1 - H4    
     1     13      1 ;     C1 - H5    
     1     14      1 ;     C1 - H6    
     1     15      1 ;     C1 - H7    
     1     16      1 ;     C1 - H8    
     1     17      1 ;     C1 - H9    
     1     18      1 ;     C1 - H10   
     1     19      1 ;     C1 - H11   
     1     20      1 ;     C1 - H12   
     2     12      1 ;     C2 - H4    
     2     13      1 ;     C2 - H5    
     2     14      1 ;     C2 - H6    
     3      9      1 ;     C3 - H1    
     3     10      1 ;     C3 - H2    
     3     11      1 ;     C3 - H3    
     4     18      1 ;     C4 - H10   
     4     19      1 ;     C4 - H11   
     4     20      1 ;     C4 - H12   
     5     15      1 ;     C5 - H7    
     5     16      1 ;     C5 - H8    
     5     17      1 ;     C5 - H9    
     6      4      1 ;     C6 - C4    
     6      5      1 ;     C6 - C5    
     6     22      1 ;     C6 - H14   
     7      2      1 ;     C7 - C2    
     7      3      1 ;     C7 - C3    
     7     21      1 ;     C7 - H13   
     8      2      1 ;     O1 - C2    
     8      3      1 ;     O1 - C3    
     8      4      1 ;     O1 - C4    
     8      5      1 ;     O1 - C5    
     8     21      1 ;     O1 - H13   
     8     22      1 ;     O1 - H14   
     9     21      1 ;     H1 - H13   
    10     21      1 ;     H2 - H13   
    11     21      1 ;     H3 - H13   
    12     21      1 ;     H4 - H13   
    13     21      1 ;     H5 - H13   
    14     21      1 ;     H6 - H13   
    15     22      1 ;     H7 - H14   
    16     22      1 ;     H8 - H14   
    17     22      1 ;     H9 - H14   
    18     22      1 ;    H10 - H14   
    19     22      1 ;    H11 - H14   
    20     22      1 ;    H12 - H14   

[ angles ]
;   ai     aj     ak    funct   theta         cth
     1      6      2      1 ;    1.1143e+02    5.0509e+02 ;     C1 - C6   - C2        C -   CT - CT  
     1      6      3      1 ;    1.1143e+02    5.0509e+02 ;     C1 - C6   - C3        C -   CT - CT  
     1      6     21      1 ;    1.0895e+02    3.6510e+02 ;     C1 - C6   - H13       C -   CT - HC  
     1      7      4      1 ;    1.1143e+02    5.0509e+02 ;     C1 - C7   - C4        C -   CT - CT  
     1      7      5      1 ;    1.1143e+02    5.0509e+02 ;     C1 - C7   - C5        C -   CT - CT  
     1      7     22      1 ;    1.0895e+02    3.6510e+02 ;     C1 - C7   - H14       C -   CT - HC  
     2      6      3      1 ;    1.1263e+02    5.0099e+02 ;     C2 - C6   - C3       CT -   CT - CT  
     2      6     21      1 ;    1.0968e+02    3.6208e+02 ;     C2 - C6   - H13      CT -   CT - HC  
     3      6     21      1 ;    1.0968e+02    3.6208e+02 ;     C3 - C6   - H13      CT -   CT - HC  
     4      7      5      1 ;    1.1263e+02    5.0099e+02 ;     C4 - C7   - C5       CT -   CT - CT  
     4      7     22      1 ;    1.0968e+02    3.6208e+02 ;     C4 - C7   - H14      CT -   CT - HC  
     5      7     22      1 ;    1.0968e+02    3.6208e+02 ;     C5 - C7   - H14      CT -   CT - HC  
     6      1      7      1 ;    1.1668e+02    4.9497e+02 ;     C6 - C1   - C7       CT -    C - CT  
     6      1      8      1 ;    1.2290e+02    6.3973e+02 ;     C6 - C1   - O1       CT -    C - O   
     6      2      9      1 ;    1.0968e+02    3.6208e+02 ;     C6 - C2   - H1       CT -   CT - HC  
     6      2     10      1 ;    1.0968e+02    3.6208e+02 ;     C6 - C2   - H2       CT -   CT - HC  
     6      2     11      1 ;    1.0968e+02    3.6208e+02 ;     C6 - C2   - H3       CT -   CT - HC  
     6      3     12      1 ;    1.0968e+02    3.6208e+02 ;     C6 - C3   - H4       CT -   CT - HC  
     6      3     13      1 ;    1.0968e+02    3.6208e+02 ;     C6 - C3   - H5       CT -   CT - HC  
     6      3     14      1 ;    1.0968e+02    3.6208e+02 ;     C6 - C3   - H6       CT -   CT - HC  
     7      1      8      1 ;    1.2290e+02    6.3973e+02 ;     C7 - C1   - O1       CT -    C - O   
     7      4     15      1 ;    1.0968e+02    3.6208e+02 ;     C7 - C4   - H7       CT -   CT - HC  
     7      4     16      1 ;    1.0968e+02    3.6208e+02 ;     C7 - C4   - H8       CT -   CT - HC  
     7      4     17      1 ;    1.0968e+02    3.6208e+02 ;     C7 - C4   - H9       CT -   CT - HC  
     7      5     18      1 ;    1.0968e+02    3.6208e+02 ;     C7 - C5   - H10      CT -   CT - HC  
     7      5     19      1 ;    1.0968e+02    3.6208e+02 ;     C7 - C5   - H11      CT -   CT - HC  
     7      5     20      1 ;    1.0968e+02    3.6208e+02 ;     C7 - C5   - H12      CT -   CT - HC  
     9      2     10      1 ;    1.0773e+02    2.9957e+02 ;     H1 - C2   - H2       HC -   CT - HC  
     9      2     11      1 ;    1.0773e+02    2.9957e+02 ;     H1 - C2   - H3       HC -   CT - HC  
    10      2     11      1 ;    1.0773e+02    2.9957e+02 ;     H2 - C2   - H3       HC -   CT - HC  
    12      3     13      1 ;    1.0773e+02    2.9957e+02 ;     H4 - C3   - H5       HC -   CT - HC  
    12      3     14      1 ;    1.0773e+02    2.9957e+02 ;     H4 - C3   - H6       HC -   CT - HC  
    13      3     14      1 ;    1.0773e+02    2.9957e+02 ;     H5 - C3   - H6       HC -   CT - HC  
    15      4     16      1 ;    1.0773e+02    2.9957e+02 ;     H7 - C4   - H8       HC -   CT - HC  
    15      4     17      1 ;    1.0773e+02    2.9957e+02 ;     H7 - C4   - H9       HC -   CT - HC  
    16      4     17      1 ;    1.0773e+02    2.9957e+02 ;     H8 - C4   - H9       HC -   CT - HC  
    18      5     19      1 ;    1.0773e+02    2.9957e+02 ;    H10 - C5   - H11      HC -   CT - HC  
    18      5     20      1 ;    1.0773e+02    2.9957e+02 ;    H10 - C5   - H12      HC -   CT - HC  
    19      5     20      1 ;    1.0773e+02    2.9957e+02 ;    H11 - C5   - H12      HC -   CT - HC  

[ dihedrals ] ; propers
; for gromacs 4.5 or higher, using funct 9
;    i      j      k      l   func   phase     kd      pn
     1      6      2      9      9 ;     0.00   0.65084   3 ;     C1-    C6-    C2-    H1
     1      6      2     10      9 ;     0.00   0.65084   3 ;     C1-    C6-    C2-    H2
     1      6      2     11      9 ;     0.00   0.65084   3 ;     C1-    C6-    C2-    H3
     1      6      3     12      9 ;     0.00   0.65084   3 ;     C1-    C6-    C3-    H4
     1      6      3     13      9 ;     0.00   0.65084   3 ;     C1-    C6-    C3-    H5
     1      6      3     14      9 ;     0.00   0.65084   3 ;     C1-    C6-    C3-    H6
     1      7      4     15      9 ;     0.00   0.65084   3 ;     C1-    C7-    C4-    H7
     1      7      4     16      9 ;     0.00   0.65084   3 ;     C1-    C7-    C4-    H8
     1      7      4     17      9 ;     0.00   0.65084   3 ;     C1-    C7-    C4-    H9
     1      7      5     18      9 ;     0.00   0.65084   3 ;     C1-    C7-    C5-   H10
     1      7      5     19      9 ;     0.00   0.65084   3 ;     C1-    C7-    C5-   H11
     1      7      5     20      9 ;     0.00   0.65084   3 ;     C1-    C7-    C5-   H12
     2      6      3     12      9 ;     0.00   0.54392   3 ;     C2-    C6-    C3-    H4
     2      6      3     13      9 ;     0.00   0.54392   3 ;     C2-    C6-    C3-    H5
     2      6      3     14      9 ;     0.00   0.54392   3 ;     C2-    C6-    C3-    H6
     3      6      2      9      9 ;     0.00   0.54392   3 ;     C3-    C6-    C2-    H1
     3      6      2     10      9 ;     0.00   0.54392   3 ;     C3-    C6-    C2-    H2
     3      6      2     11      9 ;     0.00   0.54392   3 ;     C3-    C6-    C2-    H3
     4      7      5     18      9 ;     0.00   0.54392   3 ;     C4-    C7-    C5-   H10
     4      7      5     19      9 ;     0.00   0.54392   3 ;     C4-    C7-    C5-   H11
     4      7      5     20      9 ;     0.00   0.54392   3 ;     C4-    C7-    C5-   H12
     5      7      4     15      9 ;     0.00   0.54392   3 ;     C5-    C7-    C4-    H7
     5      7      4     16      9 ;     0.00   0.54392   3 ;     C5-    C7-    C4-    H8
     5      7      4     17      9 ;     0.00   0.54392   3 ;     C5-    C7-    C4-    H9
     6      1      7      4      9 ;   180.00   1.09621   2 ;     C6-    C1-    C7-    C4
     6      1      7      5      9 ;   180.00   1.09621   2 ;     C6-    C1-    C7-    C5
     6      1      7     22      9 ;   180.00   0.00000   3 ;     C6-    C1-    C7-   H14
     7      1      6      2      9 ;   180.00   1.09621   2 ;     C7-    C1-    C6-    C2
     7      1      6      3      9 ;   180.00   1.09621   2 ;     C7-    C1-    C6-    C3
     7      1      6     21      9 ;   180.00   0.00000   3 ;     C7-    C1-    C6-   H13
     8      1      6      2      9 ;     0.00   2.84512   1 ;     O1-    C1-    C6-    C2
     8      1      6      2      9 ;   180.00   0.83680   2 ;     O1-    C1-    C6-    C2
     8      1      6      2      9 ;   180.00   1.84096   3 ;     O1-    C1-    C6-    C2
     8      1      6      3      9 ;     0.00   2.84512   1 ;     O1-    C1-    C6-    C3
     8      1      6      3      9 ;   180.00   0.83680   2 ;     O1-    C1-    C6-    C3
     8      1      6      3      9 ;   180.00   1.84096   3 ;     O1-    C1-    C6-    C3
     8      1      6     21      9 ;     0.00  16.86152   1 ;     O1-    C1-    C6-   H13
     8      1      6     21      9 ;   180.00  15.31344   2 ;     O1-    C1-    C6-   H13
     8      1      7      4      9 ;     0.00   2.84512   1 ;     O1-    C1-    C7-    C4
     8      1      7      4      9 ;   180.00   0.83680   2 ;     O1-    C1-    C7-    C4
     8      1      7      4      9 ;   180.00   1.84096   3 ;     O1-    C1-    C7-    C4
     8      1      7      5      9 ;     0.00   2.84512   1 ;     O1-    C1-    C7-    C5
     8      1      7      5      9 ;   180.00   0.83680   2 ;     O1-    C1-    C7-    C5
     8      1      7      5      9 ;   180.00   1.84096   3 ;     O1-    C1-    C7-    C5
     8      1      7     22      9 ;     0.00  16.86152   1 ;     O1-    C1-    C7-   H14
     8      1      7     22      9 ;   180.00  15.31344   2 ;     O1-    C1-    C7-   H14
     9      2      6     21      9 ;     0.00   0.50208   3 ;     H1-    C2-    C6-   H13
    10      2      6     21      9 ;     0.00   0.50208   3 ;     H2-    C2-    C6-   H13
    11      2      6     21      9 ;     0.00   0.50208   3 ;     H3-    C2-    C6-   H13
    12      3      6     21      9 ;     0.00   0.50208   3 ;     H4-    C3-    C6-   H13
    13      3      6     21      9 ;     0.00   0.50208   3 ;     H5-    C3-    C6-   H13
    14      3      6     21      9 ;     0.00   0.50208   3 ;     H6-    C3-    C6-   H13
    15      4      7     22      9 ;     0.00   0.50208   3 ;     H7-    C4-    C7-   H14
    16      4      7     22      9 ;     0.00   0.50208   3 ;     H8-    C4-    C7-   H14
    17      4      7     22      9 ;     0.00   0.50208   3 ;     H9-    C4-    C7-   H14
    18      5      7     22      9 ;     0.00   0.50208   3 ;    H10-    C5-    C7-   H14
    19      5      7     22      9 ;     0.00   0.50208   3 ;    H11-    C5-    C7-   H14
    20      5      7     22      9 ;     0.00   0.50208   3 ;    H12-    C5-    C7-   H14

[ dihedrals ] ; impropers
; treated as propers in GROMACS to use correct AMBER analytical function
;    i      j      k      l   func   phase     kd      pn
     8      1      7      6      4 ;   180.00   4.60240   2 ;     O1-    C1-    C7-    C6
