mobley_2958326_GMX.gro created by acpype (v: 2023.10.27) on Wed May 20 23:52:23 2026
   22
    1MOL     C1    1   2.232   2.359   2.183
    1MOL     C2    2   2.728   2.549   2.703
    1MOL     C3    3   2.255   2.401   2.328
    1MOL     C4    4   2.582   2.523   2.671
    1MOL     C5    5   2.403   2.425   2.356
    1MOL     C6    6   2.563   2.484   2.525
    1MOL     N1    7   2.422   2.462   2.496
    1MOL     H1    8   2.267   2.437   2.114
    1MOL     H2    9   2.285   2.266   2.160
    1MOL     H3   10   2.125   2.343   2.165
    1MOL     H4   11   2.789   2.459   2.685
    1MOL     H5   12   2.768   2.631   2.643
    1MOL     H6   13   2.740   2.576   2.809
    1MOL     H7   14   2.216   2.322   2.394
    1MOL     H8   15   2.197   2.492   2.348
    1MOL     H9   16   2.524   2.613   2.694
    1MOL    H10   17   2.545   2.443   2.736
    1MOL    H11   18   2.441   2.504   2.292
    1MOL    H12   19   2.460   2.334   2.336
    1MOL    H13   20   2.620   2.393   2.502
    1MOL    H14   21   2.601   2.564   2.460
    1MOL    H15   22   2.370   2.548   2.515
   4.92046   4.92046   4.92046
