mobley_2958326_GMX.gro created by acpype (v: 2023.10.27) on Wed May 20 23:52:23 2026
11662
    1MOL     C1    1   2.232   2.359   2.183
    1MOL     C2    2   2.728   2.549   2.703
    1MOL     C3    3   2.255   2.401   2.328
    1MOL     C4    4   2.582   2.523   2.671
    1MOL     C5    5   2.403   2.425   2.356
    1MOL     C6    6   2.563   2.484   2.525
    1MOL     N1    7   2.422   2.462   2.496
    1MOL     H1    8   2.267   2.437   2.114
    1MOL     H2    9   2.285   2.266   2.160
    1MOL     H3   10   2.125   2.343   2.165
    1MOL     H4   11   2.789   2.459   2.685
    1MOL     H5   12   2.768   2.631   2.643
    1MOL     H6   13   2.740   2.576   2.809
    1MOL     H7   14   2.216   2.322   2.394
    1MOL     H8   15   2.197   2.492   2.348
    1MOL     H9   16   2.524   2.613   2.694
    1MOL    H10   17   2.545   2.443   2.736
    1MOL    H11   18   2.441   2.504   2.292
    1MOL    H12   19   2.460   2.334   2.336
    1MOL    H13   20   2.620   2.393   2.502
    1MOL    H14   21   2.601   2.564   2.460
    1MOL    H15   22   2.370   2.548   2.515
    2SOL     OW   23   0.230   0.628   0.113
    2SOL    HW1   24   0.137   0.626   0.150
    2SOL    HW2   25   0.231   0.589   0.021
    3SOL     OW   26   0.225   0.275   0.996
    3SOL    HW1   27   0.260   0.258   1.088
    3SOL    HW2   28   0.137   0.230   0.984
    4SOL     OW   29   0.019   0.368   0.647
    4SOL    HW1   30  -0.063   0.411   0.686
    4SOL    HW2   31  -0.009   0.295   0.584
    5SOL     OW   32   0.569   1.275   1.165
    5SOL    HW1   33   0.476   1.268   1.128
    5SOL    HW2   34   0.580   1.364   1.209
    6SOL     OW   35   1.555   1.511   0.703
    6SOL    HW1   36   1.498   1.495   0.784
    6SOL    HW2   37   1.496   1.521   0.623
    7SOL     OW   38   1.135   0.703   0.717
    7SOL    HW1   39   1.192   0.781   0.692
    7SOL    HW2   40   1.075   0.729   0.793
    8SOL     OW   41   1.755   0.607   0.231
    8SOL    HW1   42   1.743   0.594   0.132
    8SOL    HW2   43   1.725   0.526   0.280
    9SOL     OW   44   0.768   1.144   1.023
    9SOL    HW1   45   0.690   1.161   1.083
    9SOL    HW2   46   0.802   1.231   0.987
   10SOL     OW   47   0.850   0.798   1.823
   10SOL    HW1   48   0.846   0.874   1.888
   10SOL    HW2   49   0.872   0.834   1.732
   11SOL     OW   50   0.685   1.012   0.665
   11SOL    HW1   51   0.754   0.996   0.735
   11SOL    HW2   52   0.612   1.069   0.703
   12SOL     OW   53   0.686   1.161   1.803
   12SOL    HW1   54   0.746   1.240   1.817
   12SOL    HW2   55   0.600   1.192   1.762
   13SOL     OW   56   0.335   1.435   1.061
   13SOL    HW1   57   0.257   1.404   1.008
   13SOL    HW2   58   0.393   1.493   1.004
   14SOL     OW   59   1.460   1.505   1.339
   14SOL    HW1   60   1.484   1.599   1.365
   14SOL    HW2   61   1.444   1.451   1.421
   15SOL     OW   62   0.438   0.392   1.499
   15SOL    HW1   63   0.520   0.336   1.508
   15SOL    HW2   64   0.357   0.334   1.503
   16SOL     OW   65   1.603   0.447   0.737
   16SOL    HW1   66   1.529   0.493   0.687
   16SOL    HW2   67   1.654   0.515   0.790
   17SOL     OW   68   0.231   1.713   0.483
   17SOL    HW1   69   0.265   1.790   0.537
   17SOL    HW2   70   0.275   1.713   0.393
   18SOL     OW   71   1.127   1.341   1.690
   18SOL    HW1   72   1.174   1.341   1.778
   18SOL    HW2   73   1.079   1.254   1.679
   19SOL     OW   74   0.230   1.434   0.538
   19SOL    HW1   75   0.204   1.530   0.538
   19SOL    HW2   76   0.159   1.380   0.583
   20SOL     OW   77   0.240   1.091   0.886
   20SOL    HW1   78   0.254   1.007   0.938
   20SOL    HW2   79   0.185   1.155   0.941
   21SOL     OW   80   0.620   1.786   1.439
   21SOL    HW1   81   0.528   1.769   1.474
   21SOL    HW2   82   0.648   1.878   1.465
   22SOL     OW   83   0.606   0.964   0.123
   22SOL    HW1   84   0.613   1.048   0.069
   22SOL    HW2   85   0.652   0.977   0.211
   23SOL     OW   86   1.594   0.114   1.480
   23SOL    HW1   87   1.576   0.181   1.408
   23SOL    HW2   88   1.591   0.160   1.569
   24SOL     OW   89   0.122   0.643   0.563
   24SOL    HW1   90   0.077   0.555   0.580
   24SOL    HW2   91   0.121   0.697   0.647
   25SOL     OW   92   1.842   1.767   0.359
   25SOL    HW1   93   1.896   1.738   0.439
   25SOL    HW2   94   1.872   1.857   0.330
   26SOL     OW   95   0.027   1.596   0.117
   26SOL    HW1   96   0.008   1.500   0.138
   26SOL    HW2   97  -0.006   1.654   0.192
   27SOL     OW   98   1.689   0.922   0.612
   27SOL    HW1   99   1.784   0.893   0.620
   27SOL    HW2  100   1.681   0.987   0.537
   28SOL     OW  101   1.641   1.108   0.432
   28SOL    HW1  102   1.727   1.110   0.380
   28SOL    HW2  103   1.655   1.155   0.520
   29SOL     OW  104   0.113   0.737   1.597
   29SOL    HW1  105   0.201   0.724   1.642
   29SOL    HW2  106   0.100   0.834   1.575
   30SOL     OW  107   0.613   1.365   0.726
   30SOL    HW1  108   0.564   1.278   0.735
   30SOL    HW2  109   0.590   1.408   0.639
   31SOL     OW  110   1.293   1.228   1.423
   31SOL    HW1  111   1.330   1.155   1.365
   31SOL    HW2  112   1.345   1.233   1.508
   32SOL     OW  113   0.809   0.004   0.502
   32SOL    HW1  114   0.849   0.095   0.493
   32SOL    HW2  115   0.709   0.012   0.508
   33SOL     OW  116   0.197   0.976   1.264
   33SOL    HW1  117   0.286   0.931   1.250
   33SOL    HW2  118   0.124   0.911   1.245
   34SOL     OW  119   1.525   0.999   0.190
   34SOL    HW1  120   1.462   0.923   0.203
   34SOL    HW2  121   1.573   1.017   0.276
   35SOL     OW  122   1.187   1.792   1.616
   35SOL    HW1  123   1.211   1.852   1.540
   35SOL    HW2  124   1.194   1.697   1.586
   36SOL     OW  125   0.317   0.251   1.801
   36SOL    HW1  126   0.388   0.322   1.807
   36SOL    HW2  127   0.229   0.290   1.829
   37SOL     OW  128   1.466   1.417   0.953
   37SOL    HW1  129   1.407   1.423   1.033
   37SOL    HW2  130   1.451   1.329   0.907
   38SOL     OW  131   1.667   1.714   0.572
   38SOL    HW1  132   1.626   1.691   0.484
   38SOL    HW2  133   1.649   1.640   0.637
   39SOL     OW  134   0.598   0.729   0.270
   39SOL    HW1  135   0.622   0.798   0.202
   39SOL    HW2  136   0.520   0.762   0.324
   40SOL     OW  137   1.281   0.345   0.944
   40SOL    HW1  138   1.195   0.295   0.931
   40SOL    HW2  139   1.343   0.291   1.000
   41SOL     OW  140   1.576   1.662   0.307
   41SOL    HW1  141   1.665   1.708   0.310
   41SOL    HW2  142   1.555   1.638   0.212
   42SOL     OW  143   0.807   0.605   1.465
   42SOL    HW1  144   0.760   0.602   1.554
   42SOL    HW2  145   0.756   0.550   1.399
   43SOL     OW  146   1.394   0.469   1.674
   43SOL    HW1  147   1.374   0.512   1.762
   43SOL    HW2  148   1.472   0.407   1.683
   44SOL     OW  149   0.973   0.890   1.572
   44SOL    HW1  150   1.019   0.806   1.543
   44SOL    HW2  151   0.917   0.924   1.497
   45SOL     OW  152   0.991   0.410   1.242
   45SOL    HW1  153   0.914   0.444   1.296
   45SOL    HW2  154   0.957   0.359   1.163
   46SOL     OW  155   1.041   0.701   0.429
   46SOL    HW1  156   1.067   0.697   0.525
   46SOL    HW2  157   0.956   0.650   0.415
   47SOL     OW  158   0.076   0.811   0.789
   47SOL    HW1  159   0.175   0.799   0.798
   47SOL    HW2  160   0.052   0.906   0.810
   48SOL     OW  161   0.130   1.821   1.571
   48SOL    HW1  162   0.120   1.806   1.670
   48SOL    HW2  163   0.044   1.857   1.535
   49SOL     OW  164   0.865   0.348   0.195
   49SOL    HW1  165   0.924   0.411   0.146
   49SOL    HW2  166   0.884   0.254   0.166
   50SOL     OW  167   1.719   0.585   1.831
   50SOL    HW1  168   1.693   0.674   1.795
   50SOL    HW2  169   1.717   0.517   1.758
   51SOL     OW  170   1.362   1.144   0.545
   51SOL    HW1  171   1.445   1.115   0.497
   51SOL    HW2  172   1.313   1.211   0.489
   52SOL     OW  173   0.550   0.196   0.885
   52SOL    HW1  174   0.545   0.191   0.985
   52SOL    HW2  175   0.552   0.292   0.856
   53SOL     OW  176   1.008   1.456   0.477
   53SOL    HW1  177   0.962   1.528   0.425
   53SOL    HW2  178   1.004   1.476   0.575
   54SOL     OW  179   0.351   1.801   0.853
   54SOL    HW1  180   0.401   1.715   0.859
   54SOL    HW2  181   0.416   1.878   0.850
   55SOL     OW  182   1.795   1.066   0.873
   55SOL    HW1  183   1.733   1.051   0.797
   55SOL    HW2  184   1.743   1.077   0.958
   56SOL     OW  185   1.227   1.550   1.506
   56SOL    HW1  186   1.233   1.473   1.570
   56SOL    HW2  187   1.175   1.524   1.426
   57SOL     OW  188   0.321   0.943   0.242
   57SOL    HW1  189   0.403   0.982   0.200
   57SOL    HW2  190   0.294   0.861   0.193
   58SOL     OW  191   1.458   0.735   0.728
   58SOL    HW1  192   1.453   0.670   0.803
   58SOL    HW2  193   1.538   0.794   0.741
   59SOL     OW  194   0.461   1.266   1.727
   59SOL    HW1  195   0.411   1.267   1.641
   59SOL    HW2  196   0.398   1.248   1.803
   60SOL     OW  197   1.111   1.776   0.237
   60SOL    HW1  198   1.051   1.714   0.287
   60SOL    HW2  199   1.142   1.732   0.152
   61SOL     OW  200   0.202   0.285   1.498
   61SOL    HW1  201   0.122   0.345   1.485
   61SOL    HW2  202   0.192   0.236   1.584
   62SOL     OW  203   1.632   1.377   0.081
   62SOL    HW1  204   1.600   1.471   0.071
   62SOL    HW2  205   1.556   1.314   0.069
   63SOL     OW  206   0.464   1.743   0.323
   63SOL    HW1  207   0.497   1.782   0.409
   63SOL    HW2  208   0.540   1.736   0.258
   64SOL     OW  209   1.400   0.107   0.426
   64SOL    HW1  210   1.376   0.070   0.336
   64SOL    HW2  211   1.499   0.123   0.430
   65SOL     OW  212   0.249   1.785   1.241
   65SOL    HW1  213   0.306   1.720   1.291
   65SOL    HW2  214   0.233   1.752   1.148
   66SOL     OW  215   0.940   1.698   0.904
   66SOL    HW1  216   1.020   1.641   0.925
   66SOL    HW2  217   0.891   1.658   0.827
   67SOL     OW  218   0.382   0.700   0.480
   67SOL    HW1  219   0.427   0.610   0.477
   67SOL    HW2  220   0.288   0.689   0.513
   68SOL     OW  221   1.547   0.222   1.729
   68SOL    HW1  222   1.542   0.259   1.821
   68SOL    HW2  223   1.475   0.153   1.717
   69SOL     OW  224   0.614   0.122   0.117
   69SOL    HW1  225   0.712   0.100   0.124
   69SOL    HW2  226   0.583   0.105   0.024
   70SOL     OW  227   0.781   0.264   1.749
   70SOL    HW1  228   0.848   0.203   1.792
   70SOL    HW2  229   0.708   0.283   1.814
   71SOL     OW  230   0.888   1.514   1.195
   71SOL    HW1  231   0.865   1.489   1.101
   71SOL    HW2  232   0.949   1.445   1.234
   72SOL     OW  233   1.351   0.590   1.433
   72SOL    HW1  234   1.379   0.547   1.518
   72SOL    HW2  235   1.376   0.686   1.434
   73SOL     OW  236   0.803   1.402   0.924
   73SOL    HW1  237   0.893   1.416   0.882
   73SOL    HW2  238   0.732   1.404   0.853
   74SOL     OW  239   0.922   0.503   0.899
   74SOL    HW1  240   0.897   0.494   0.803
   74SOL    HW2  241   0.970   0.421   0.930
   75SOL     OW  242   0.539   0.064   0.512
   75SOL    HW1  243   0.458   0.065   0.570
   75SOL    HW2  244   0.542   0.147   0.457
   76SOL     OW  245   1.434   1.188   0.041
   76SOL    HW1  246   1.466   1.112   0.098
   76SOL    HW2  247   1.342   1.215   0.071
   77SOL     OW  248   0.297   0.035   0.171
   77SOL    HW1  249   0.346   0.119   0.150
   77SOL    HW2  250   0.359  -0.030   0.216
   78SOL     OW  251   0.935   0.236   0.480
   78SOL    HW1  252   0.887   0.277   0.402
   78SOL    HW2  253   1.034   0.234   0.461
   79SOL     OW  254   1.076   0.683   1.464
   79SOL    HW1  255   0.996   0.622   1.467
   79SOL    HW2  256   1.157   0.630   1.440
   80SOL     OW  257   1.227   1.570   0.793
   80SOL    HW1  258   1.248   1.644   0.728
   80SOL    HW2  259   1.295   1.570   0.866
   81SOL     OW  260   0.459   1.152   0.741
   81SOL    HW1  261   0.388   1.125   0.806
   81SOL    HW2  262   0.433   1.124   0.648
   82SOL     OW  263   1.271   1.797   0.591
   82SOL    HW1  264   1.315   1.861   0.527
   82SOL    HW2  265   1.221   1.849   0.661
   83SOL     OW  266   1.032   0.549   0.016
   83SOL    HW1  267   0.991   0.631  -0.023
   83SOL    HW2  268   1.096   0.575   0.089
   84SOL     OW  269   0.078   0.556   1.386
   84SOL    HW1  270   0.170   0.555   1.345
   84SOL    HW2  271   0.072   0.630   1.453
   85SOL     OW  272   0.561   0.222   1.147
   85SOL    HW1  273   0.599   0.138   1.184
   85SOL    HW2  274   0.473   0.241   1.191
   86SOL     OW  275   0.866   0.454   0.642
   86SOL    HW1  276   0.834   0.526   0.580
   86SOL    HW2  277   0.890   0.373   0.589
   87SOL     OW  278   1.017   0.039   0.753
   87SOL    HW1  279   0.945   0.044   0.684
   87SOL    HW2  280   0.993  -0.030   0.822
   88SOL     OW  281   1.429   1.173   0.867
   88SOL    HW1  282   1.374   1.089   0.860
   88SOL    HW2  283   1.455   1.202   0.775
   89SOL     OW  284   1.466   0.590   0.992
   89SOL    HW1  285   1.436   0.495   0.999
   89SOL    HW2  286   1.539   0.606   1.058
   90SOL     OW  287   1.857   0.833   0.377
   90SOL    HW1  288   1.899   0.769   0.441
   90SOL    HW2  289   1.819   0.782   0.299
   91SOL     OW  290   0.488   1.385   0.174
   91SOL    HW1  291   0.401   1.370   0.221
   91SOL    HW2  292   0.471   1.411   0.079
   92SOL     OW  293   1.664   1.280   0.657
   92SOL    HW1  294   1.763   1.288   0.671
   92SOL    HW2  295   1.619   1.364   0.688
   93SOL     OW  296   1.390   0.575   0.078
   93SOL    HW1  297   1.336   0.554   0.159
   93SOL    HW2  298   1.481   0.534   0.087
   94SOL     OW  299   0.527   0.256   0.328
   94SOL    HW1  300   0.554   0.197   0.253
   94SOL    HW2  301   0.527   0.351   0.297
   95SOL     OW  302   1.754   1.223   1.588
   95SOL    HW1  303   1.845   1.184   1.575
   95SOL    HW2  304   1.762   1.319   1.612
   96SOL     OW  305   1.064   1.347   1.340
   96SOL    HW1  306   0.984   1.324   1.395
   96SOL    HW2  307   1.147   1.321   1.389
   97SOL     OW  308   1.592   1.629   1.625
   97SOL    HW1  309   1.619   1.663   1.535
   97SOL    HW2  310   1.671   1.591   1.671
   98SOL     OW  311   1.111   1.195   1.100
   98SOL    HW1  312   1.071   1.239   1.181
   98SOL    HW2  313   1.070   1.232   1.017
   99SOL     OW  314   1.638   1.099   1.079
   99SOL    HW1  315   1.643   1.180   1.138
   99SOL    HW2  316   1.552   1.101   1.028
  100SOL     OW  317   0.915   0.089   1.402
  100SOL    HW1  318   0.940   0.069   1.307
  100SOL    HW2  319   0.987   0.145   1.444
  101SOL     OW  320   0.980   1.116   1.719
  101SOL    HW1  321   0.881   1.122   1.729
  101SOL    HW2  322   1.003   1.036   1.663
  102SOL     OW  323   0.705   1.050   0.368
  102SOL    HW1  324   0.691   1.057   0.467
  102SOL    HW2  325   0.789   0.999   0.350
  103SOL     OW  326   0.410   0.813   1.251
  103SOL    HW1  327   0.496   0.825   1.301
  103SOL    HW2  328   0.368   0.726   1.278
  104SOL     OW  329   1.274   0.386   1.262
  104SOL    HW1  330   1.295   0.460   1.326
  104SOL    HW2  331   1.185   0.403   1.219
  105SOL     OW  332   0.064   1.564   1.331
  105SOL    HW1  333   0.018   1.646   1.297
  105SOL    HW2  334   0.162   1.583   1.340
  106SOL     OW  335   0.367   1.100   0.501
  106SOL    HW1  336   0.360   1.183   0.445
  106SOL    HW2  337   0.371   1.020   0.441
  107SOL     OW  338   0.566   0.537   0.865
  107SOL    HW1  339   0.578   0.603   0.791
  107SOL    HW2  340   0.612   0.571   0.948
  108SOL     OW  341   1.252   1.348   0.388
  108SOL    HW1  342   1.302   1.425   0.428
  108SOL    HW2  343   1.157   1.350   0.420
  109SOL     OW  344   1.272   1.445   1.142
  109SOL    HW1  345   1.319   1.458   1.229
  109SOL    HW2  346   1.206   1.371   1.151
  110SOL     OW  347   1.582   0.639   0.472
  110SOL    HW1  348   1.551   0.700   0.545
  110SOL    HW2  349   1.632   0.691   0.403
  111SOL     OW  350   0.354   1.510   1.329
  111SOL    HW1  351   0.333   1.466   1.242
  111SOL    HW2  352   0.451   1.536   1.332
  112SOL     OW  353   0.402   0.751   1.598
  112SOL    HW1  354   0.470   0.806   1.551
  112SOL    HW2  355   0.442   0.663   1.625
  113SOL     OW  356   1.587   0.779   1.670
  113SOL    HW1  357   1.495   0.817   1.665
  113SOL    HW2  358   1.647   0.826   1.605
  114SOL     OW  359   1.013   0.105   1.770
  114SOL    HW1  360   1.019   0.190   1.718
  114SOL    HW2  361   1.045   0.029   1.713
  115SOL     OW  362   0.504   0.050   1.740
  115SOL    HW1  363   0.462  -0.007   1.670
  115SOL    HW2  364   0.438   0.119   1.772
  116SOL     OW  365   0.573   0.870   1.029
  116SOL    HW1  366   0.617   0.959   1.020
  116SOL    HW2  367   0.510   0.870   1.106
  117SOL     OW  368   1.360   0.862   1.045
  117SOL    HW1  369   1.285   0.862   0.979
  117SOL    HW2  370   1.397   0.770   1.054
  118SOL     OW  371   1.209   0.525   0.275
  118SOL    HW1  372   1.222   0.441   0.329
  118SOL    HW2  373   1.180   0.599   0.335
  119SOL     OW  374   0.307   0.213   1.231
  119SOL    HW1  375   0.284   0.250   1.321
  119SOL    HW2  376   0.277   0.118   1.225
  120SOL     OW  377   0.037   1.310   1.282
  120SOL    HW1  378   0.090   1.261   1.350
  120SOL    HW2  379   0.059   1.408   1.287
  121SOL     OW  380   0.732   0.634   1.064
  121SOL    HW1  381   0.791   0.608   0.988
  121SOL    HW2  382   0.704   0.730   1.053
  122SOL     OW  383   1.728   0.935   1.854
  122SOL    HW1  384   1.682   0.928   1.765
  122SOL    HW2  385   1.666   0.979   1.920
  123SOL     OW  386   0.307   0.063   0.618
  123SOL    HW1  387   0.296   0.157   0.651
  123SOL    HW2  388   0.302   0.000   0.695
  124SOL     OW  389   1.622   0.367   0.374
  124SOL    HW1  390   1.624   0.291   0.438
  124SOL    HW2  391   1.574   0.444   0.414
  125SOL     OW  392   1.023   0.766   0.966
  125SOL    HW1  393   1.038   0.787   1.062
  125SOL    HW2  394   0.993   0.671   0.957
  126SOL     OW  395   0.980   1.573   1.700
  126SOL    HW1  396   0.960   1.617   1.612
  126SOL    HW2  397   1.019   1.482   1.684
  127SOL     OW  398   1.859   1.518   1.605
  127SOL    HW1  399   1.873   1.545   1.510
  127SOL    HW2  400   1.942   1.540   1.658
  128SOL     OW  401   0.350   0.898   1.804
  128SOL    HW1  402   0.426   0.942   1.852
  128SOL    HW2  403   0.385   0.851   1.722
  129SOL     OW  404   1.540   0.274   0.125
  129SOL    HW1  405   1.479   0.199   0.148
  129SOL    HW2  406   1.562   0.326   0.208
  130SOL     OW  407   1.303   0.838   0.042
  130SOL    HW1  408   1.337   0.745   0.057
  130SOL    HW2  409   1.321   0.865  -0.053
  131SOL     OW  410   1.068   1.333   0.849
  131SOL    HW1  411   1.075   1.249   0.794
  131SOL    HW2  412   1.130   1.402   0.813
  132SOL     OW  413   0.319   0.810   0.949
  132SOL    HW1  414   0.412   0.846   0.954
  132SOL    HW2  415   0.313   0.725   1.001
  133SOL     OW  416   0.339   0.509   1.006
  133SOL    HW1  417   0.287   0.426   0.989
  133SOL    HW2  418   0.416   0.514   0.942
  134SOL     OW  419   1.138   0.380   1.678
  134SOL    HW1  420   1.093   0.443   1.742
  134SOL    HW2  421   1.231   0.411   1.661
  135SOL     OW  422   1.160   0.207   1.477
  135SOL    HW1  423   1.160   0.271   1.554
  135SOL    HW2  424   1.188   0.255   1.394
  136SOL     OW  425   0.008   1.326   0.200
  136SOL    HW1  426  -0.085   1.347   0.169
  136SOL    HW2  427   0.018   1.227   0.213
  137SOL     OW  428   0.088   1.801   0.927
  137SOL    HW1  429   0.046   1.715   0.900
  137SOL    HW2  430   0.182   1.804   0.893
  138SOL     OW  431   0.504   1.568   0.910
  138SOL    HW1  432   0.570   1.642   0.919
  138SOL    HW2  433   0.548   1.489   0.868
  139SOL     OW  434   1.002   0.796   1.238
  139SOL    HW1  435   1.043   0.764   1.324
  139SOL    HW2  436   0.906   0.769   1.235
  140SOL     OW  437   0.040   0.544   1.114
  140SOL    HW1  438   0.125   0.511   1.073
  140SOL    HW2  439   0.053   0.559   1.212
  141SOL     OW  440   0.189   0.520   1.722
  141SOL    HW1  441   0.248   0.480   1.652
  141SOL    HW2  442   0.131   0.591   1.681
  142SOL     OW  443   1.369   0.950   1.660
  142SOL    HW1  444   1.408   1.039   1.680
  142SOL    HW2  445   1.379   0.930   1.563
  143SOL     OW  446   0.815   0.572   0.325
  143SOL    HW1  447   0.822   0.483   0.279
  143SOL    HW2  448   0.721   0.606   0.317
  144SOL     OW  449   1.657   0.604   1.206
  144SOL    HW1  450   1.619   0.535   1.268
  144SOL    HW2  451   1.739   0.568   1.162
  145SOL     OW  452   0.252   1.564   1.744
  145SOL    HW1  453   0.222   1.621   1.820
  145SOL    HW2  454   0.245   1.467   1.770
  146SOL     OW  455   0.671   0.464   1.269
  146SOL    HW1  456   0.637   0.375   1.239
  146SOL    HW2  457   0.697   0.518   1.189
  147SOL     OW  458   0.930   1.678   1.465
  147SOL    HW1  459   0.906   1.660   1.370
  147SOL    HW2  460   0.960   1.772   1.475
  148SOL     OW  461   0.473   0.500   0.191
  148SOL    HW1  462   0.534   0.580   0.195
  148SOL    HW2  463   0.378   0.531   0.198
  149SOL     OW  464   0.159   1.137   1.466
  149SOL    HW1  465   0.181   1.076   1.542
  149SOL    HW2  466   0.169   1.088   1.380
  150SOL     OW  467   1.347   1.059   1.234
  150SOL    HW1  468   1.371   0.996   1.160
  150SOL    HW2  469   1.257   1.099   1.216
  151SOL     OW  470   1.302   0.855   0.309
  151SOL    HW1  471   1.216   0.824   0.351
  151SOL    HW2  472   1.298   0.841   0.210
  152SOL     OW  473   1.759   1.747   1.154
  152SOL    HW1  474   1.820   1.777   1.081
  152SOL    HW2  475   1.721   1.658   1.132
  153SOL     OW  476   1.252   1.731   1.128
  153SOL    HW1  477   1.336   1.736   1.074
  153SOL    HW2  478   1.229   1.635   1.146
  154SOL     OW  479   0.083   1.258   1.022
  154SOL    HW1  480   0.078   1.257   1.122
  154SOL    HW2  481   0.000   1.217   0.984
  155SOL     OW  482   0.688   1.662   1.716
  155SOL    HW1  483   0.632   1.743   1.725
  155SOL    HW2  484   0.740   1.666   1.630
  156SOL     OW  485   0.903   0.086   0.133
  156SOL    HW1  486   0.954   0.087   0.047
  156SOL    HW2  487   0.959   0.044   0.204
  157SOL     OW  488   1.726   0.135   0.523
  157SOL    HW1  489   1.799   0.118   0.456
  157SOL    HW2  490   1.695   0.048   0.561
  158SOL     OW  491   1.388   1.573   0.477
  158SOL    HW1  492   1.455   1.585   0.403
  158SOL    HW2  493   1.348   1.662   0.500
  159SOL     OW  494   0.130   1.794   1.851
  159SOL    HW1  495   0.089   1.720   1.904
  159SOL    HW2  496   0.194   1.845   1.909
  160SOL     OW  497   1.280   0.927   0.672
  160SOL    HW1  498   1.340   0.846   0.674
  160SOL    HW2  499   1.320   0.996   0.612
  161SOL     OW  500   0.830   1.273   1.422
  161SOL    HW1  501   0.825   1.306   1.517
  161SOL    HW2  502   0.744   1.292   1.376
  162SOL     OW  503   0.672   1.616   0.154
  162SOL    HW1  504   0.681   1.626   0.055
  162SOL    HW2  505   0.632   1.527   0.175
  163SOL     OW  506   1.650   1.720   1.394
  163SOL    HW1  507   1.703   1.730   1.310
  163SOL    HW2  508   1.623   1.810   1.428
  164SOL     OW  509   1.841   0.175   0.963
  164SOL    HW1  510   1.880   0.090   0.927
  164SOL    HW2  511   1.743   0.177   0.944
  165SOL     OW  512   0.263   0.326   0.720
  165SOL    HW1  513   0.184   0.377   0.686
  165SOL    HW2  514   0.254   0.311   0.818
  166SOL     OW  515   1.194   1.612   0.031
  166SOL    HW1  516   1.200   1.519   0.068
  166SOL    HW2  517   1.135   1.612  -0.049
  167SOL     OW  518   0.822   1.002   1.372
  167SOL    HW1  519   0.862   1.001   1.280
  167SOL    HW2  520   0.832   1.094   1.412
  168SOL     OW  521   0.916   0.910   0.291
  168SOL    HW1  522   0.979   0.948   0.223
  168SOL    HW2  523   0.956   0.827   0.330
  169SOL     OW  524   1.504   1.607   0.044
  169SOL    HW1  525   1.412   1.644   0.051
  169SOL    HW2  526   1.542   1.627  -0.046
  170SOL     OW  527   0.372   1.288   1.490
  170SOL    HW1  528   0.359   1.381   1.456
  170SOL    HW2  529   0.288   1.236   1.477
  171SOL     OW  530   1.614   1.292   1.289
  171SOL    HW1  531   1.674   1.295   1.369
  171SOL    HW2  532   1.539   1.356   1.302
  172SOL     OW  533   1.039   1.098   0.696
  172SOL    HW1  534   0.969   1.051   0.750
  172SOL    HW2  535   1.098   1.030   0.653
  173SOL     OW  536   1.014   0.236   0.971
  173SOL    HW1  537   1.006   0.200   0.878
  173SOL    HW2  538   1.012   0.160   1.036
  174SOL     OW  539   0.590   1.487   0.491
  174SOL    HW1  540   0.632   1.429   0.421
  174SOL    HW2  541   0.546   1.566   0.447
  175SOL     OW  542   1.709   0.385   1.381
  175SOL    HW1  543   1.782   0.454   1.385
  175SOL    HW2  544   1.737   0.310   1.322
  176SOL     OW  545   0.255   1.348   0.290
  176SOL    HW1  546   0.159   1.349   0.263
  176SOL    HW2  547   0.267   1.401   0.374
  177SOL     OW  548   0.105   1.013   1.726
  177SOL    HW1  549   0.028   0.980   1.780
  177SOL    HW2  550   0.190   0.983   1.768
  178SOL     OW  551   0.672   0.203   1.489
  178SOL    HW1  552   0.762   0.187   1.449
  178SOL    HW2  553   0.680   0.208   1.588
  179SOL     OW  554   0.075   0.345   0.033
  179SOL    HW1  555  -0.017   0.317   0.004
  179SOL    HW2  556   0.106   0.422  -0.023
  180SOL     OW  557   1.440   0.856   1.398
  180SOL    HW1  558   1.383   0.908   1.335
  180SOL    HW2  559   1.536   0.868   1.374
  181SOL     OW  560   0.072   0.166   0.318
  181SOL    HW1  561   0.055   0.249   0.264
  181SOL    HW2  562   0.162   0.129   0.296
  182SOL     OW  563   1.183   1.335   0.119
  182SOL    HW1  564   1.084   1.324   0.121
  182SOL    HW2  565   1.217   1.350   0.212
  183SOL     OW  566   0.613   0.842   1.431
  183SOL    HW1  567   0.669   0.923   1.414
  183SOL    HW2  568   0.672   0.762   1.434
  184SOL     OW  569   1.493   1.767   0.959
  184SOL    HW1  570   1.526   1.831   0.890
  184SOL    HW2  571   1.559   1.761   1.034
  185SOL     OW  572   0.716   0.565   1.708
  185SOL    HW1  573   0.735   0.630   1.782
  185SOL    HW2  574   0.776   0.485   1.717
  186SOL     OW  575   1.450   1.220   1.633
  186SOL    HW1  576   1.441   1.210   1.732
  186SOL    HW2  577   1.546   1.213   1.607
  187SOL     OW  578   0.390   1.741   1.560
  187SOL    HW1  579   0.299   1.782   1.558
  187SOL    HW2  580   0.383   1.647   1.592
  188SOL     OW  581   1.674   0.883   1.254
  188SOL    HW1  582   1.647   0.794   1.217
  188SOL    HW2  583   1.675   0.951   1.181
  189SOL     OW  584   1.225   0.325   0.449
  189SOL    HW1  585   1.290   0.251   0.438
  189SOL    HW2  586   1.245   0.375   0.533
  190SOL     OW  587   0.594   0.745   0.652
  190SOL    HW1  588   0.644   0.830   0.633
  190SOL    HW2  589   0.506   0.747   0.604
  191SOL     OW  590   1.777   0.342   1.642
  191SOL    HW1  591   1.760   0.373   1.548
  191SOL    HW2  592   1.693   0.305   1.680
  192SOL     OW  593   1.730   0.934   1.517
  192SOL    HW1  594   1.768   1.025   1.532
  192SOL    HW2  595   1.722   0.917   1.418
  193SOL     OW  596   0.859   1.374   0.016
  193SOL    HW1  597   0.813   1.389   0.104
  193SOL    HW2  598   0.903   1.459  -0.014
  194SOL     OW  599   0.661   1.790   0.953
  194SOL    HW1  600   0.615   1.878   0.940
  194SOL    HW2  601   0.760   1.802   0.946
  195SOL     OW  602   0.859   0.956   0.861
  195SOL    HW1  603   0.913   0.887   0.909
  195SOL    HW2  604   0.827   1.025   0.927
  196SOL     OW  605   1.083   0.984   0.087
  196SOL    HW1  606   1.060   1.037   0.005
  196SOL    HW2  607   1.164   0.928   0.068
  197SOL     OW  608   1.861   1.569   0.851
  197SOL    HW1  609   1.790   1.557   0.781
  197SOL    HW2  610   1.862   1.490   0.911
  198SOL     OW  611   0.221   1.314   1.844
  198SOL    HW1  612   0.156   1.241   1.823
  198SOL    HW2  613   0.225   1.328   1.942
  199SOL     OW  614   0.079   1.240   0.653
  199SOL    HW1  615   0.078   1.193   0.741
  199SOL    HW2  616   0.161   1.212   0.602
  200SOL     OW  617   0.672   1.391   1.624
  200SOL    HW1  618   0.594   1.341   1.662
  200SOL    HW2  619   0.669   1.486   1.655
  201SOL     OW  620   1.824   0.192   1.227
  201SOL    HW1  621   1.820   0.102   1.271
  201SOL    HW2  622   1.827   0.181   1.128
  202SOL     OW  623   0.428   0.424   0.520
  202SOL    HW1  624   0.458   0.352   0.458
  202SOL    HW2  625   0.389   0.384   0.603
  203SOL     OW  626   1.705   1.487   1.104
  203SOL    HW1  627   1.612   1.462   1.077
  203SOL    HW2  628   1.731   1.437   1.186
  204SOL     OW  629   0.317   0.547   1.280
  204SOL    HW1  630   0.355   0.488   1.352
  204SOL    HW2  631   0.357   0.521   1.192
  205SOL     OW  632   0.812   1.586   0.687
  205SOL    HW1  633   0.844   1.596   0.593
  205SOL    HW2  634   0.733   1.524   0.689
  206SOL     OW  635   1.424   0.214   1.112
  206SOL    HW1  636   1.476   0.149   1.167
  206SOL    HW2  637   1.375   0.277   1.173
  207SOL     OW  638   1.001   0.034   1.154
  207SOL    HW1  639   0.938  -0.038   1.123
  207SOL    HW2  640   1.094  -0.002   1.154
  208SOL     OW  641   0.770   1.330   0.301
  208SOL    HW1  642   0.724   1.243   0.318
  208SOL    HW2  643   0.861   1.327   0.342
  209SOL     OW  644   0.618   1.567   1.284
  209SOL    HW1  645   0.613   1.649   1.341
  209SOL    HW2  646   0.707   1.564   1.239
  210SOL     OW  647   1.352   0.052   0.168
  210SOL    HW1  648   1.387   0.011   0.084
  210SOL    HW2  649   1.262   0.014   0.188
  211SOL     OW  650   1.300   0.453   0.691
  211SOL    HW1  651   1.241   0.533   0.695
  211SOL    HW2  652   1.315   0.418   0.784
  212SOL     OW  653   1.593   0.221   0.882
  212SOL    HW1  654   1.509   0.220   0.936
  212SOL    HW2  655   1.595   0.304   0.826
  213SOL     OW  656   0.039   1.077   0.300
  213SOL    HW1  657   0.138   1.066   0.291
  213SOL    HW2  658  -0.001   0.991   0.332
  214SOL     OW  659   0.875   1.646   0.337
  214SOL    HW1  660   0.798   1.611   0.283
  214SOL    HW2  661   0.843   1.717   0.399
  215SOL     OW  662   0.230   0.628   1.975
  215SOL    HW1  663   0.137   0.626   2.012
  215SOL    HW2  664   0.231   0.589   1.883
  216SOL     OW  665   0.225   0.275   2.858
  216SOL    HW1  666   0.260   0.258   2.950
  216SOL    HW2  667   0.137   0.230   2.846
  217SOL     OW  668   0.019   0.368   2.509
  217SOL    HW1  669  -0.063   0.411   2.548
  217SOL    HW2  670  -0.009   0.295   2.446
  218SOL     OW  671   0.569   1.275   3.027
  218SOL    HW1  672   0.476   1.268   2.990
  218SOL    HW2  673   0.580   1.364   3.071
  219SOL     OW  674   1.555   1.511   2.565
  219SOL    HW1  675   1.498   1.495   2.646
  219SOL    HW2  676   1.496   1.521   2.485
  220SOL     OW  677   1.135   0.703   2.579
  220SOL    HW1  678   1.192   0.781   2.554
  220SOL    HW2  679   1.075   0.729   2.655
  221SOL     OW  680   1.755   0.607   2.093
  221SOL    HW1  681   1.743   0.594   1.994
  221SOL    HW2  682   1.725   0.526   2.142
  222SOL     OW  683   0.768   1.144   2.885
  222SOL    HW1  684   0.690   1.161   2.945
  222SOL    HW2  685   0.802   1.231   2.849
  223SOL     OW  686   0.850   0.798   3.685
  223SOL    HW1  687   0.846   0.874   3.750
  223SOL    HW2  688   0.872   0.834   3.594
  224SOL     OW  689   0.685   1.012   2.527
  224SOL    HW1  690   0.754   0.996   2.597
  224SOL    HW2  691   0.612   1.069   2.565
  225SOL     OW  692   0.686   1.161   3.665
  225SOL    HW1  693   0.746   1.240   3.679
  225SOL    HW2  694   0.600   1.192   3.624
  226SOL     OW  695   0.335   1.435   2.923
  226SOL    HW1  696   0.257   1.404   2.870
  226SOL    HW2  697   0.393   1.493   2.866
  227SOL     OW  698   1.460   1.505   3.201
  227SOL    HW1  699   1.484   1.599   3.227
  227SOL    HW2  700   1.444   1.451   3.283
  228SOL     OW  701   0.438   0.392   3.361
  228SOL    HW1  702   0.520   0.336   3.370
  228SOL    HW2  703   0.357   0.334   3.365
  229SOL     OW  704   1.603   0.447   2.599
  229SOL    HW1  705   1.529   0.493   2.549
  229SOL    HW2  706   1.654   0.515   2.652
  230SOL     OW  707   0.231   1.713   2.345
  230SOL    HW1  708   0.265   1.790   2.399
  230SOL    HW2  709   0.275   1.713   2.255
  231SOL     OW  710   1.127   1.341   3.552
  231SOL    HW1  711   1.174   1.341   3.640
  231SOL    HW2  712   1.079   1.254   3.541
  232SOL     OW  713   0.230   1.434   2.400
  232SOL    HW1  714   0.204   1.530   2.400
  232SOL    HW2  715   0.159   1.380   2.445
  233SOL     OW  716   0.240   1.091   2.748
  233SOL    HW1  717   0.254   1.007   2.800
  233SOL    HW2  718   0.185   1.155   2.803
  234SOL     OW  719   0.620   1.786   3.301
  234SOL    HW1  720   0.528   1.769   3.336
  234SOL    HW2  721   0.648   1.878   3.327
  235SOL     OW  722   0.606   0.964   1.985
  235SOL    HW1  723   0.613   1.048   1.931
  235SOL    HW2  724   0.652   0.977   2.073
  236SOL     OW  725   1.594   0.114   3.342
  236SOL    HW1  726   1.576   0.181   3.270
  236SOL    HW2  727   1.591   0.160   3.431
  237SOL     OW  728   0.122   0.643   2.425
  237SOL    HW1  729   0.077   0.555   2.442
  237SOL    HW2  730   0.121   0.697   2.509
  238SOL     OW  731   1.842   1.767   2.221
  238SOL    HW1  732   1.896   1.738   2.301
  238SOL    HW2  733   1.872   1.857   2.192
  239SOL     OW  734   0.027   1.596   1.979
  239SOL    HW1  735   0.008   1.500   2.000
  239SOL    HW2  736  -0.006   1.654   2.054
  240SOL     OW  737   1.689   0.922   2.474
  240SOL    HW1  738   1.784   0.893   2.482
  240SOL    HW2  739   1.681   0.987   2.399
  241SOL     OW  740   1.641   1.108   2.294
  241SOL    HW1  741   1.727   1.110   2.242
  241SOL    HW2  742   1.655   1.155   2.382
  242SOL     OW  743   0.113   0.737   3.459
  242SOL    HW1  744   0.201   0.724   3.504
  242SOL    HW2  745   0.100   0.834   3.437
  243SOL     OW  746   0.613   1.365   2.588
  243SOL    HW1  747   0.564   1.278   2.597
  243SOL    HW2  748   0.590   1.408   2.501
  244SOL     OW  749   1.293   1.228   3.285
  244SOL    HW1  750   1.330   1.155   3.227
  244SOL    HW2  751   1.345   1.233   3.370
  245SOL     OW  752   0.809   0.004   2.364
  245SOL    HW1  753   0.849   0.095   2.355
  245SOL    HW2  754   0.709   0.012   2.370
  246SOL     OW  755   0.197   0.976   3.126
  246SOL    HW1  756   0.286   0.931   3.112
  246SOL    HW2  757   0.124   0.911   3.107
  247SOL     OW  758   1.525   0.999   2.052
  247SOL    HW1  759   1.462   0.923   2.065
  247SOL    HW2  760   1.573   1.017   2.138
  248SOL     OW  761   1.187   1.792   3.478
  248SOL    HW1  762   1.211   1.852   3.402
  248SOL    HW2  763   1.194   1.697   3.448
  249SOL     OW  764   0.317   0.251   3.663
  249SOL    HW1  765   0.388   0.322   3.669
  249SOL    HW2  766   0.229   0.290   3.691
  250SOL     OW  767   1.466   1.417   2.815
  250SOL    HW1  768   1.407   1.423   2.895
  250SOL    HW2  769   1.451   1.329   2.769
  251SOL     OW  770   1.667   1.714   2.434
  251SOL    HW1  771   1.626   1.691   2.346
  251SOL    HW2  772   1.649   1.640   2.499
  252SOL     OW  773   0.598   0.729   2.132
  252SOL    HW1  774   0.622   0.798   2.064
  252SOL    HW2  775   0.520   0.762   2.186
  253SOL     OW  776   1.281   0.345   2.806
  253SOL    HW1  777   1.195   0.295   2.793
  253SOL    HW2  778   1.343   0.291   2.862
  254SOL     OW  779   1.576   1.662   2.169
  254SOL    HW1  780   1.665   1.708   2.172
  254SOL    HW2  781   1.555   1.638   2.074
  255SOL     OW  782   0.807   0.605   3.327
  255SOL    HW1  783   0.760   0.602   3.416
  255SOL    HW2  784   0.756   0.550   3.261
  256SOL     OW  785   1.394   0.469   3.536
  256SOL    HW1  786   1.374   0.512   3.624
  256SOL    HW2  787   1.472   0.407   3.545
  257SOL     OW  788   0.973   0.890   3.434
  257SOL    HW1  789   1.019   0.806   3.405
  257SOL    HW2  790   0.917   0.924   3.359
  258SOL     OW  791   0.991   0.410   3.104
  258SOL    HW1  792   0.914   0.444   3.158
  258SOL    HW2  793   0.957   0.359   3.025
  259SOL     OW  794   1.041   0.701   2.291
  259SOL    HW1  795   1.067   0.697   2.387
  259SOL    HW2  796   0.956   0.650   2.277
  260SOL     OW  797   0.076   0.811   2.651
  260SOL    HW1  798   0.175   0.799   2.660
  260SOL    HW2  799   0.052   0.906   2.672
  261SOL     OW  800   0.130   1.821   3.433
  261SOL    HW1  801   0.120   1.806   3.532
  261SOL    HW2  802   0.044   1.857   3.397
  262SOL     OW  803   0.865   0.348   2.057
  262SOL    HW1  804   0.924   0.411   2.008
  262SOL    HW2  805   0.884   0.254   2.028
  263SOL     OW  806   1.719   0.585   3.693
  263SOL    HW1  807   1.693   0.674   3.657
  263SOL    HW2  808   1.717   0.517   3.620
  264SOL     OW  809   1.362   1.144   2.407
  264SOL    HW1  810   1.445   1.115   2.359
  264SOL    HW2  811   1.313   1.211   2.351
  265SOL     OW  812   0.550   0.196   2.747
  265SOL    HW1  813   0.545   0.191   2.847
  265SOL    HW2  814   0.552   0.292   2.718
  266SOL     OW  815   1.008   1.456   2.339
  266SOL    HW1  816   0.962   1.528   2.287
  266SOL    HW2  817   1.004   1.476   2.437
  267SOL     OW  818   0.351   1.801   2.715
  267SOL    HW1  819   0.401   1.715   2.721
  267SOL    HW2  820   0.416   1.878   2.712
  268SOL     OW  821   1.795   1.066   2.735
  268SOL    HW1  822   1.733   1.051   2.659
  268SOL    HW2  823   1.743   1.077   2.820
  269SOL     OW  824   1.227   1.550   3.368
  269SOL    HW1  825   1.233   1.473   3.432
  269SOL    HW2  826   1.175   1.524   3.288
  270SOL     OW  827   0.321   0.943   2.104
  270SOL    HW1  828   0.403   0.982   2.062
  270SOL    HW2  829   0.294   0.861   2.055
  271SOL     OW  830   1.458   0.735   2.590
  271SOL    HW1  831   1.453   0.670   2.665
  271SOL    HW2  832   1.538   0.794   2.603
  272SOL     OW  833   0.461   1.266   3.589
  272SOL    HW1  834   0.411   1.267   3.503
  272SOL    HW2  835   0.398   1.248   3.665
  273SOL     OW  836   1.111   1.776   2.099
  273SOL    HW1  837   1.051   1.714   2.149
  273SOL    HW2  838   1.142   1.732   2.014
  274SOL     OW  839   0.202   0.285   3.360
  274SOL    HW1  840   0.122   0.345   3.347
  274SOL    HW2  841   0.192   0.236   3.446
  275SOL     OW  842   1.632   1.377   1.943
  275SOL    HW1  843   1.600   1.471   1.933
  275SOL    HW2  844   1.556   1.314   1.931
  276SOL     OW  845   0.464   1.743   2.185
  276SOL    HW1  846   0.497   1.782   2.271
  276SOL    HW2  847   0.540   1.736   2.120
  277SOL     OW  848   1.400   0.107   2.288
  277SOL    HW1  849   1.376   0.070   2.198
  277SOL    HW2  850   1.499   0.123   2.292
  278SOL     OW  851   0.249   1.785   3.103
  278SOL    HW1  852   0.306   1.720   3.153
  278SOL    HW2  853   0.233   1.752   3.010
  279SOL     OW  854   0.940   1.698   2.766
  279SOL    HW1  855   1.020   1.641   2.787
  279SOL    HW2  856   0.891   1.658   2.689
  280SOL     OW  857   0.382   0.700   2.342
  280SOL    HW1  858   0.427   0.610   2.339
  280SOL    HW2  859   0.288   0.689   2.375
  281SOL     OW  860   1.547   0.222   3.591
  281SOL    HW1  861   1.542   0.259   3.683
  281SOL    HW2  862   1.475   0.153   3.579
  282SOL     OW  863   0.614   0.122   1.979
  282SOL    HW1  864   0.712   0.100   1.986
  282SOL    HW2  865   0.583   0.105   1.886
  283SOL     OW  866   0.781   0.264   3.611
  283SOL    HW1  867   0.848   0.203   3.654
  283SOL    HW2  868   0.708   0.283   3.676
  284SOL     OW  869   0.888   1.514   3.057
  284SOL    HW1  870   0.865   1.489   2.963
  284SOL    HW2  871   0.949   1.445   3.096
  285SOL     OW  872   1.351   0.590   3.295
  285SOL    HW1  873   1.379   0.547   3.380
  285SOL    HW2  874   1.376   0.686   3.296
  286SOL     OW  875   0.803   1.402   2.786
  286SOL    HW1  876   0.893   1.416   2.744
  286SOL    HW2  877   0.732   1.404   2.715
  287SOL     OW  878   0.922   0.503   2.761
  287SOL    HW1  879   0.897   0.494   2.665
  287SOL    HW2  880   0.970   0.421   2.792
  288SOL     OW  881   0.539   0.064   2.374
  288SOL    HW1  882   0.458   0.065   2.432
  288SOL    HW2  883   0.542   0.147   2.319
  289SOL     OW  884   1.434   1.188   1.903
  289SOL    HW1  885   1.466   1.112   1.960
  289SOL    HW2  886   1.342   1.215   1.933
  290SOL     OW  887   0.297   0.035   2.033
  290SOL    HW1  888   0.346   0.119   2.012
  290SOL    HW2  889   0.359  -0.030   2.078
  291SOL     OW  890   0.935   0.236   2.342
  291SOL    HW1  891   0.887   0.277   2.264
  291SOL    HW2  892   1.034   0.234   2.323
  292SOL     OW  893   1.076   0.683   3.326
  292SOL    HW1  894   0.996   0.622   3.329
  292SOL    HW2  895   1.157   0.630   3.302
  293SOL     OW  896   1.227   1.570   2.655
  293SOL    HW1  897   1.248   1.644   2.590
  293SOL    HW2  898   1.295   1.570   2.728
  294SOL     OW  899   0.459   1.152   2.603
  294SOL    HW1  900   0.388   1.125   2.668
  294SOL    HW2  901   0.433   1.124   2.510
  295SOL     OW  902   1.271   1.797   2.453
  295SOL    HW1  903   1.315   1.861   2.389
  295SOL    HW2  904   1.221   1.849   2.523
  296SOL     OW  905   1.032   0.549   1.878
  296SOL    HW1  906   0.991   0.631   1.839
  296SOL    HW2  907   1.096   0.575   1.951
  297SOL     OW  908   0.078   0.556   3.248
  297SOL    HW1  909   0.170   0.555   3.207
  297SOL    HW2  910   0.072   0.630   3.315
  298SOL     OW  911   0.561   0.222   3.009
  298SOL    HW1  912   0.599   0.138   3.046
  298SOL    HW2  913   0.473   0.241   3.053
  299SOL     OW  914   0.866   0.454   2.504
  299SOL    HW1  915   0.834   0.526   2.442
  299SOL    HW2  916   0.890   0.373   2.451
  300SOL     OW  917   1.017   0.039   2.615
  300SOL    HW1  918   0.945   0.044   2.546
  300SOL    HW2  919   0.993  -0.030   2.684
  301SOL     OW  920   1.429   1.173   2.729
  301SOL    HW1  921   1.374   1.089   2.722
  301SOL    HW2  922   1.455   1.202   2.637
  302SOL     OW  923   1.466   0.590   2.854
  302SOL    HW1  924   1.436   0.495   2.861
  302SOL    HW2  925   1.539   0.606   2.920
  303SOL     OW  926   1.857   0.833   2.239
  303SOL    HW1  927   1.899   0.769   2.303
  303SOL    HW2  928   1.819   0.782   2.161
  304SOL     OW  929   0.488   1.385   2.036
  304SOL    HW1  930   0.401   1.370   2.083
  304SOL    HW2  931   0.471   1.411   1.941
  305SOL     OW  932   1.664   1.280   2.519
  305SOL    HW1  933   1.763   1.288   2.533
  305SOL    HW2  934   1.619   1.364   2.550
  306SOL     OW  935   1.390   0.575   1.940
  306SOL    HW1  936   1.336   0.554   2.021
  306SOL    HW2  937   1.481   0.534   1.949
  307SOL     OW  938   0.527   0.256   2.190
  307SOL    HW1  939   0.554   0.197   2.115
  307SOL    HW2  940   0.527   0.351   2.159
  308SOL     OW  941   1.754   1.223   3.450
  308SOL    HW1  942   1.845   1.184   3.437
  308SOL    HW2  943   1.762   1.319   3.474
  309SOL     OW  944   1.064   1.347   3.202
  309SOL    HW1  945   0.984   1.324   3.257
  309SOL    HW2  946   1.147   1.321   3.251
  310SOL     OW  947   1.592   1.629   3.487
  310SOL    HW1  948   1.619   1.663   3.397
  310SOL    HW2  949   1.671   1.591   3.533
  311SOL     OW  950   1.111   1.195   2.962
  311SOL    HW1  951   1.071   1.239   3.043
  311SOL    HW2  952   1.070   1.232   2.879
  312SOL     OW  953   1.638   1.099   2.941
  312SOL    HW1  954   1.643   1.180   3.000
  312SOL    HW2  955   1.552   1.101   2.890
  313SOL     OW  956   0.915   0.089   3.264
  313SOL    HW1  957   0.940   0.069   3.169
  313SOL    HW2  958   0.987   0.145   3.306
  314SOL     OW  959   0.980   1.116   3.581
  314SOL    HW1  960   0.881   1.122   3.591
  314SOL    HW2  961   1.003   1.036   3.525
  315SOL     OW  962   0.705   1.050   2.230
  315SOL    HW1  963   0.691   1.057   2.329
  315SOL    HW2  964   0.789   0.999   2.212
  316SOL     OW  965   0.410   0.813   3.113
  316SOL    HW1  966   0.496   0.825   3.163
  316SOL    HW2  967   0.368   0.726   3.140
  317SOL     OW  968   1.274   0.386   3.124
  317SOL    HW1  969   1.295   0.460   3.188
  317SOL    HW2  970   1.185   0.403   3.081
  318SOL     OW  971   0.064   1.564   3.193
  318SOL    HW1  972   0.018   1.646   3.159
  318SOL    HW2  973   0.162   1.583   3.202
  319SOL     OW  974   0.367   1.100   2.363
  319SOL    HW1  975   0.360   1.183   2.307
  319SOL    HW2  976   0.371   1.020   2.303
  320SOL     OW  977   0.566   0.537   2.727
  320SOL    HW1  978   0.578   0.603   2.653
  320SOL    HW2  979   0.612   0.571   2.810
  321SOL     OW  980   1.252   1.348   2.250
  321SOL    HW1  981   1.302   1.425   2.290
  321SOL    HW2  982   1.157   1.350   2.282
  322SOL     OW  983   1.272   1.445   3.004
  322SOL    HW1  984   1.319   1.458   3.091
  322SOL    HW2  985   1.206   1.371   3.013
  323SOL     OW  986   1.582   0.639   2.334
  323SOL    HW1  987   1.551   0.700   2.407
  323SOL    HW2  988   1.632   0.691   2.265
  324SOL     OW  989   0.354   1.510   3.191
  324SOL    HW1  990   0.333   1.466   3.104
  324SOL    HW2  991   0.451   1.536   3.194
  325SOL     OW  992   0.402   0.751   3.460
  325SOL    HW1  993   0.470   0.806   3.413
  325SOL    HW2  994   0.442   0.663   3.487
  326SOL     OW  995   1.587   0.779   3.532
  326SOL    HW1  996   1.495   0.817   3.527
  326SOL    HW2  997   1.647   0.826   3.467
  327SOL     OW  998   1.013   0.105   3.632
  327SOL    HW1  999   1.019   0.190   3.580
  327SOL    HW2 1000   1.045   0.029   3.575
  328SOL     OW 1001   0.504   0.050   3.602
  328SOL    HW1 1002   0.462  -0.007   3.532
  328SOL    HW2 1003   0.438   0.119   3.634
  329SOL     OW 1004   0.573   0.870   2.891
  329SOL    HW1 1005   0.617   0.959   2.882
  329SOL    HW2 1006   0.510   0.870   2.968
  330SOL     OW 1007   1.360   0.862   2.907
  330SOL    HW1 1008   1.285   0.862   2.841
  330SOL    HW2 1009   1.397   0.770   2.916
  331SOL     OW 1010   1.209   0.525   2.137
  331SOL    HW1 1011   1.222   0.441   2.191
  331SOL    HW2 1012   1.180   0.599   2.197
  332SOL     OW 1013   0.307   0.213   3.093
  332SOL    HW1 1014   0.284   0.250   3.183
  332SOL    HW2 1015   0.277   0.118   3.087
  333SOL     OW 1016   0.037   1.310   3.144
  333SOL    HW1 1017   0.090   1.261   3.212
  333SOL    HW2 1018   0.059   1.408   3.149
  334SOL     OW 1019   0.732   0.634   2.926
  334SOL    HW1 1020   0.791   0.608   2.850
  334SOL    HW2 1021   0.704   0.730   2.915
  335SOL     OW 1022   1.728   0.935   3.716
  335SOL    HW1 1023   1.682   0.928   3.627
  335SOL    HW2 1024   1.666   0.979   3.782
  336SOL     OW 1025   0.307   0.063   2.480
  336SOL    HW1 1026   0.296   0.157   2.513
  336SOL    HW2 1027   0.302   0.000   2.557
  337SOL     OW 1028   1.622   0.367   2.236
  337SOL    HW1 1029   1.624   0.291   2.300
  337SOL    HW2 1030   1.574   0.444   2.276
  338SOL     OW 1031   1.023   0.766   2.828
  338SOL    HW1 1032   1.038   0.787   2.924
  338SOL    HW2 1033   0.993   0.671   2.819
  339SOL     OW 1034   0.980   1.573   3.562
  339SOL    HW1 1035   0.960   1.617   3.474
  339SOL    HW2 1036   1.019   1.482   3.546
  340SOL     OW 1037   1.859   1.518   3.467
  340SOL    HW1 1038   1.873   1.545   3.372
  340SOL    HW2 1039   1.942   1.540   3.520
  341SOL     OW 1040   0.350   0.898   3.666
  341SOL    HW1 1041   0.426   0.942   3.714
  341SOL    HW2 1042   0.385   0.851   3.584
  342SOL     OW 1043   1.540   0.274   1.987
  342SOL    HW1 1044   1.479   0.199   2.010
  342SOL    HW2 1045   1.562   0.326   2.070
  343SOL     OW 1046   1.303   0.838   1.904
  343SOL    HW1 1047   1.337   0.745   1.919
  343SOL    HW2 1048   1.321   0.865   1.809
  344SOL     OW 1049   1.068   1.333   2.711
  344SOL    HW1 1050   1.075   1.249   2.656
  344SOL    HW2 1051   1.130   1.402   2.675
  345SOL     OW 1052   0.319   0.810   2.811
  345SOL    HW1 1053   0.412   0.846   2.816
  345SOL    HW2 1054   0.313   0.725   2.863
  346SOL     OW 1055   0.339   0.509   2.868
  346SOL    HW1 1056   0.287   0.426   2.851
  346SOL    HW2 1057   0.416   0.514   2.804
  347SOL     OW 1058   1.138   0.380   3.540
  347SOL    HW1 1059   1.093   0.443   3.604
  347SOL    HW2 1060   1.231   0.411   3.523
  348SOL     OW 1061   1.160   0.207   3.339
  348SOL    HW1 1062   1.160   0.271   3.416
  348SOL    HW2 1063   1.188   0.255   3.256
  349SOL     OW 1064   0.008   1.326   2.062
  349SOL    HW1 1065  -0.085   1.347   2.031
  349SOL    HW2 1066   0.018   1.227   2.075
  350SOL     OW 1067   0.088   1.801   2.789
  350SOL    HW1 1068   0.046   1.715   2.762
  350SOL    HW2 1069   0.182   1.804   2.755
  351SOL     OW 1070   0.504   1.568   2.772
  351SOL    HW1 1071   0.570   1.642   2.781
  351SOL    HW2 1072   0.548   1.489   2.730
  352SOL     OW 1073   1.002   0.796   3.100
  352SOL    HW1 1074   1.043   0.764   3.186
  352SOL    HW2 1075   0.906   0.769   3.097
  353SOL     OW 1076   0.040   0.544   2.976
  353SOL    HW1 1077   0.125   0.511   2.935
  353SOL    HW2 1078   0.053   0.559   3.074
  354SOL     OW 1079   0.189   0.520   3.584
  354SOL    HW1 1080   0.248   0.480   3.514
  354SOL    HW2 1081   0.131   0.591   3.543
  355SOL     OW 1082   1.369   0.950   3.522
  355SOL    HW1 1083   1.408   1.039   3.542
  355SOL    HW2 1084   1.379   0.930   3.425
  356SOL     OW 1085   0.815   0.572   2.187
  356SOL    HW1 1086   0.822   0.483   2.141
  356SOL    HW2 1087   0.721   0.606   2.179
  357SOL     OW 1088   1.657   0.604   3.068
  357SOL    HW1 1089   1.619   0.535   3.130
  357SOL    HW2 1090   1.739   0.568   3.024
  358SOL     OW 1091   0.252   1.564   3.606
  358SOL    HW1 1092   0.222   1.621   3.682
  358SOL    HW2 1093   0.245   1.467   3.632
  359SOL     OW 1094   0.671   0.464   3.131
  359SOL    HW1 1095   0.637   0.375   3.101
  359SOL    HW2 1096   0.697   0.518   3.051
  360SOL     OW 1097   0.930   1.678   3.327
  360SOL    HW1 1098   0.906   1.660   3.232
  360SOL    HW2 1099   0.960   1.772   3.337
  361SOL     OW 1100   0.473   0.500   2.053
  361SOL    HW1 1101   0.534   0.580   2.057
  361SOL    HW2 1102   0.378   0.531   2.060
  362SOL     OW 1103   0.159   1.137   3.328
  362SOL    HW1 1104   0.181   1.076   3.404
  362SOL    HW2 1105   0.169   1.088   3.242
  363SOL     OW 1106   1.347   1.059   3.096
  363SOL    HW1 1107   1.371   0.996   3.022
  363SOL    HW2 1108   1.257   1.099   3.078
  364SOL     OW 1109   1.302   0.855   2.171
  364SOL    HW1 1110   1.216   0.824   2.213
  364SOL    HW2 1111   1.298   0.841   2.072
  365SOL     OW 1112   1.759   1.747   3.016
  365SOL    HW1 1113   1.820   1.777   2.943
  365SOL    HW2 1114   1.721   1.658   2.994
  366SOL     OW 1115   1.252   1.731   2.990
  366SOL    HW1 1116   1.336   1.736   2.936
  366SOL    HW2 1117   1.229   1.635   3.008
  367SOL     OW 1118   0.083   1.258   2.884
  367SOL    HW1 1119   0.078   1.257   2.984
  367SOL    HW2 1120   0.000   1.217   2.846
  368SOL     OW 1121   0.688   1.662   3.578
  368SOL    HW1 1122   0.632   1.743   3.587
  368SOL    HW2 1123   0.740   1.666   3.492
  369SOL     OW 1124   1.726   0.135   2.385
  369SOL    HW1 1125   1.799   0.118   2.318
  369SOL    HW2 1126   1.695   0.048   2.423
  370SOL     OW 1127   1.388   1.573   2.339
  370SOL    HW1 1128   1.455   1.585   2.265
  370SOL    HW2 1129   1.348   1.662   2.362
  371SOL     OW 1130   0.130   1.794   3.713
  371SOL    HW1 1131   0.089   1.720   3.766
  371SOL    HW2 1132   0.194   1.845   3.771
  372SOL     OW 1133   1.280   0.927   2.534
  372SOL    HW1 1134   1.340   0.846   2.536
  372SOL    HW2 1135   1.320   0.996   2.474
  373SOL     OW 1136   0.830   1.273   3.284
  373SOL    HW1 1137   0.825   1.306   3.379
  373SOL    HW2 1138   0.744   1.292   3.238
  374SOL     OW 1139   0.672   1.616   2.016
  374SOL    HW1 1140   0.681   1.626   1.917
  374SOL    HW2 1141   0.632   1.527   2.037
  375SOL     OW 1142   1.650   1.720   3.256
  375SOL    HW1 1143   1.703   1.730   3.172
  375SOL    HW2 1144   1.623   1.810   3.290
  376SOL     OW 1145   1.841   0.175   2.825
  376SOL    HW1 1146   1.880   0.090   2.789
  376SOL    HW2 1147   1.743   0.177   2.806
  377SOL     OW 1148   0.263   0.326   2.582
  377SOL    HW1 1149   0.184   0.377   2.548
  377SOL    HW2 1150   0.254   0.311   2.680
  378SOL     OW 1151   1.194   1.612   1.893
  378SOL    HW1 1152   1.200   1.519   1.930
  378SOL    HW2 1153   1.135   1.612   1.813
  379SOL     OW 1154   0.822   1.002   3.234
  379SOL    HW1 1155   0.862   1.001   3.142
  379SOL    HW2 1156   0.832   1.094   3.274
  380SOL     OW 1157   0.916   0.910   2.153
  380SOL    HW1 1158   0.979   0.948   2.085
  380SOL    HW2 1159   0.956   0.827   2.192
  381SOL     OW 1160   1.504   1.607   1.906
  381SOL    HW1 1161   1.412   1.644   1.913
  381SOL    HW2 1162   1.542   1.627   1.816
  382SOL     OW 1163   0.372   1.288   3.352
  382SOL    HW1 1164   0.359   1.381   3.318
  382SOL    HW2 1165   0.288   1.236   3.339
  383SOL     OW 1166   1.614   1.292   3.151
  383SOL    HW1 1167   1.674   1.295   3.231
  383SOL    HW2 1168   1.539   1.356   3.164
  384SOL     OW 1169   1.039   1.098   2.558
  384SOL    HW1 1170   0.969   1.051   2.612
  384SOL    HW2 1171   1.098   1.030   2.515
  385SOL     OW 1172   1.014   0.236   2.833
  385SOL    HW1 1173   1.006   0.200   2.740
  385SOL    HW2 1174   1.012   0.160   2.898
  386SOL     OW 1175   0.590   1.487   2.353
  386SOL    HW1 1176   0.632   1.429   2.283
  386SOL    HW2 1177   0.546   1.566   2.309
  387SOL     OW 1178   1.709   0.385   3.243
  387SOL    HW1 1179   1.782   0.454   3.247
  387SOL    HW2 1180   1.737   0.310   3.184
  388SOL     OW 1181   0.255   1.348   2.152
  388SOL    HW1 1182   0.159   1.349   2.125
  388SOL    HW2 1183   0.267   1.401   2.236
  389SOL     OW 1184   0.105   1.013   3.588
  389SOL    HW1 1185   0.028   0.980   3.642
  389SOL    HW2 1186   0.190   0.983   3.630
  390SOL     OW 1187   0.672   0.203   3.351
  390SOL    HW1 1188   0.762   0.187   3.311
  390SOL    HW2 1189   0.680   0.208   3.450
  391SOL     OW 1190   0.075   0.345   1.895
  391SOL    HW1 1191  -0.017   0.317   1.866
  391SOL    HW2 1192   0.106   0.422   1.839
  392SOL     OW 1193   1.440   0.856   3.260
  392SOL    HW1 1194   1.383   0.908   3.197
  392SOL    HW2 1195   1.536   0.868   3.236
  393SOL     OW 1196   0.072   0.166   2.180
  393SOL    HW1 1197   0.055   0.249   2.126
  393SOL    HW2 1198   0.162   0.129   2.158
  394SOL     OW 1199   1.183   1.335   1.981
  394SOL    HW1 1200   1.084   1.324   1.983
  394SOL    HW2 1201   1.217   1.350   2.074
  395SOL     OW 1202   0.613   0.842   3.293
  395SOL    HW1 1203   0.669   0.923   3.276
  395SOL    HW2 1204   0.672   0.762   3.296
  396SOL     OW 1205   1.493   1.767   2.821
  396SOL    HW1 1206   1.526   1.831   2.752
  396SOL    HW2 1207   1.559   1.761   2.896
  397SOL     OW 1208   0.716   0.565   3.570
  397SOL    HW1 1209   0.735   0.630   3.644
  397SOL    HW2 1210   0.776   0.485   3.579
  398SOL     OW 1211   1.450   1.220   3.495
  398SOL    HW1 1212   1.441   1.210   3.594
  398SOL    HW2 1213   1.546   1.213   3.469
  399SOL     OW 1214   0.390   1.741   3.422
  399SOL    HW1 1215   0.299   1.782   3.420
  399SOL    HW2 1216   0.383   1.647   3.454
  400SOL     OW 1217   1.674   0.883   3.116
  400SOL    HW1 1218   1.647   0.794   3.079
  400SOL    HW2 1219   1.675   0.951   3.043
  401SOL     OW 1220   1.225   0.325   2.311
  401SOL    HW1 1221   1.290   0.251   2.300
  401SOL    HW2 1222   1.245   0.375   2.395
  402SOL     OW 1223   0.594   0.745   2.514
  402SOL    HW1 1224   0.644   0.830   2.495
  402SOL    HW2 1225   0.506   0.747   2.466
  403SOL     OW 1226   1.777   0.342   3.504
  403SOL    HW1 1227   1.760   0.373   3.410
  403SOL    HW2 1228   1.693   0.305   3.542
  404SOL     OW 1229   1.730   0.934   3.379
  404SOL    HW1 1230   1.768   1.025   3.394
  404SOL    HW2 1231   1.722   0.917   3.280
  405SOL     OW 1232   0.859   1.374   1.878
  405SOL    HW1 1233   0.813   1.389   1.966
  405SOL    HW2 1234   0.903   1.459   1.848
  406SOL     OW 1235   0.661   1.790   2.815
  406SOL    HW1 1236   0.615   1.878   2.802
  406SOL    HW2 1237   0.760   1.802   2.808
  407SOL     OW 1238   0.859   0.956   2.723
  407SOL    HW1 1239   0.913   0.887   2.771
  407SOL    HW2 1240   0.827   1.025   2.789
  408SOL     OW 1241   1.083   0.984   1.949
  408SOL    HW1 1242   1.060   1.037   1.867
  408SOL    HW2 1243   1.164   0.928   1.930
  409SOL     OW 1244   1.861   1.569   2.713
  409SOL    HW1 1245   1.790   1.557   2.643
  409SOL    HW2 1246   1.862   1.490   2.773
  410SOL     OW 1247   0.221   1.314   3.706
  410SOL    HW1 1248   0.156   1.241   3.685
  410SOL    HW2 1249   0.225   1.328   3.804
  411SOL     OW 1250   0.079   1.240   2.515
  411SOL    HW1 1251   0.078   1.193   2.603
  411SOL    HW2 1252   0.161   1.212   2.464
  412SOL     OW 1253   0.672   1.391   3.486
  412SOL    HW1 1254   0.594   1.341   3.524
  412SOL    HW2 1255   0.669   1.486   3.517
  413SOL     OW 1256   1.824   0.192   3.089
  413SOL    HW1 1257   1.820   0.102   3.133
  413SOL    HW2 1258   1.827   0.181   2.990
  414SOL     OW 1259   0.428   0.424   2.382
  414SOL    HW1 1260   0.458   0.352   2.320
  414SOL    HW2 1261   0.389   0.384   2.465
  415SOL     OW 1262   1.705   1.487   2.966
  415SOL    HW1 1263   1.612   1.462   2.939
  415SOL    HW2 1264   1.731   1.437   3.048
  416SOL     OW 1265   0.317   0.547   3.142
  416SOL    HW1 1266   0.355   0.488   3.214
  416SOL    HW2 1267   0.357   0.521   3.054
  417SOL     OW 1268   0.812   1.586   2.549
  417SOL    HW1 1269   0.844   1.596   2.455
  417SOL    HW2 1270   0.733   1.524   2.551
  418SOL     OW 1271   1.424   0.214   2.974
  418SOL    HW1 1272   1.476   0.149   3.029
  418SOL    HW2 1273   1.375   0.277   3.035
  419SOL     OW 1274   1.001   0.034   3.016
  419SOL    HW1 1275   0.938  -0.038   2.985
  419SOL    HW2 1276   1.094  -0.002   3.016
  420SOL     OW 1277   0.770   1.330   2.163
  420SOL    HW1 1278   0.724   1.243   2.180
  420SOL    HW2 1279   0.861   1.327   2.204
  421SOL     OW 1280   0.618   1.567   3.146
  421SOL    HW1 1281   0.613   1.649   3.203
  421SOL    HW2 1282   0.707   1.564   3.101
  422SOL     OW 1283   1.352   0.052   2.030
  422SOL    HW1 1284   1.387   0.011   1.946
  422SOL    HW2 1285   1.262   0.014   2.050
  423SOL     OW 1286   1.300   0.453   2.553
  423SOL    HW1 1287   1.241   0.533   2.557
  423SOL    HW2 1288   1.315   0.418   2.646
  424SOL     OW 1289   1.593   0.221   2.744
  424SOL    HW1 1290   1.509   0.220   2.798
  424SOL    HW2 1291   1.595   0.304   2.688
  425SOL     OW 1292   0.039   1.077   2.162
  425SOL    HW1 1293   0.138   1.066   2.153
  425SOL    HW2 1294  -0.001   0.991   2.194
  426SOL     OW 1295   0.875   1.646   2.199
  426SOL    HW1 1296   0.798   1.611   2.145
  426SOL    HW2 1297   0.843   1.717   2.261
  427SOL     OW 1298   0.230   0.628   3.837
  427SOL    HW1 1299   0.137   0.626   3.874
  427SOL    HW2 1300   0.231   0.589   3.745
  428SOL     OW 1301   0.225   0.275   4.720
  428SOL    HW1 1302   0.260   0.258   4.812
  428SOL    HW2 1303   0.137   0.230   4.708
  429SOL     OW 1304   0.019   0.368   4.371
  429SOL    HW1 1305  -0.063   0.411   4.410
  429SOL    HW2 1306  -0.009   0.295   4.308
  430SOL     OW 1307   1.555   1.511   4.427
  430SOL    HW1 1308   1.498   1.495   4.508
  430SOL    HW2 1309   1.496   1.521   4.347
  431SOL     OW 1310   1.135   0.703   4.441
  431SOL    HW1 1311   1.192   0.781   4.416
  431SOL    HW2 1312   1.075   0.729   4.517
  432SOL     OW 1313   1.755   0.607   3.955
  432SOL    HW1 1314   1.743   0.594   3.856
  432SOL    HW2 1315   1.725   0.526   4.004
  433SOL     OW 1316   0.768   1.144   4.747
  433SOL    HW1 1317   0.690   1.161   4.807
  433SOL    HW2 1318   0.802   1.231   4.711
  434SOL     OW 1319   0.685   1.012   4.389
  434SOL    HW1 1320   0.754   0.996   4.459
  434SOL    HW2 1321   0.612   1.069   4.427
  435SOL     OW 1322   0.335   1.435   4.785
  435SOL    HW1 1323   0.257   1.404   4.732
  435SOL    HW2 1324   0.393   1.493   4.728
  436SOL     OW 1325   1.603   0.447   4.461
  436SOL    HW1 1326   1.529   0.493   4.411
  436SOL    HW2 1327   1.654   0.515   4.514
  437SOL     OW 1328   0.231   1.713   4.207
  437SOL    HW1 1329   0.265   1.790   4.261
  437SOL    HW2 1330   0.275   1.713   4.117
  438SOL     OW 1331   0.230   1.434   4.262
  438SOL    HW1 1332   0.204   1.530   4.262
  438SOL    HW2 1333   0.159   1.380   4.307
  439SOL     OW 1334   0.240   1.091   4.610
  439SOL    HW1 1335   0.254   1.007   4.662
  439SOL    HW2 1336   0.185   1.155   4.665
  440SOL     OW 1337   0.606   0.964   3.847
  440SOL    HW1 1338   0.613   1.048   3.793
  440SOL    HW2 1339   0.652   0.977   3.935
  441SOL     OW 1340   0.122   0.643   4.287
  441SOL    HW1 1341   0.077   0.555   4.304
  441SOL    HW2 1342   0.121   0.697   4.371
  442SOL     OW 1343   1.842   1.767   4.083
  442SOL    HW1 1344   1.896   1.738   4.163
  442SOL    HW2 1345   1.872   1.857   4.054
  443SOL     OW 1346   0.027   1.596   3.841
  443SOL    HW1 1347   0.008   1.500   3.862
  443SOL    HW2 1348  -0.006   1.654   3.916
  444SOL     OW 1349   1.689   0.922   4.336
  444SOL    HW1 1350   1.784   0.893   4.344
  444SOL    HW2 1351   1.681   0.987   4.261
  445SOL     OW 1352   1.641   1.108   4.156
  445SOL    HW1 1353   1.727   1.110   4.104
  445SOL    HW2 1354   1.655   1.155   4.244
  446SOL     OW 1355   0.613   1.365   4.450
  446SOL    HW1 1356   0.564   1.278   4.459
  446SOL    HW2 1357   0.590   1.408   4.363
  447SOL     OW 1358   0.809   0.004   4.226
  447SOL    HW1 1359   0.849   0.095   4.217
  447SOL    HW2 1360   0.709   0.012   4.232
  448SOL     OW 1361   0.197   0.976   4.988
  448SOL    HW1 1362   0.286   0.931   4.974
  448SOL    HW2 1363   0.124   0.911   4.969
  449SOL     OW 1364   1.525   0.999   3.914
  449SOL    HW1 1365   1.462   0.923   3.927
  449SOL    HW2 1366   1.573   1.017   4.000
  450SOL     OW 1367   1.466   1.417   4.677
  450SOL    HW1 1368   1.407   1.423   4.757
  450SOL    HW2 1369   1.451   1.329   4.631
  451SOL     OW 1370   1.667   1.714   4.296
  451SOL    HW1 1371   1.626   1.691   4.208
  451SOL    HW2 1372   1.649   1.640   4.361
  452SOL     OW 1373   0.598   0.729   3.994
  452SOL    HW1 1374   0.622   0.798   3.926
  452SOL    HW2 1375   0.520   0.762   4.048
  453SOL     OW 1376   1.281   0.345   4.668
  453SOL    HW1 1377   1.195   0.295   4.655
  453SOL    HW2 1378   1.343   0.291   4.724
  454SOL     OW 1379   1.576   1.662   4.031
  454SOL    HW1 1380   1.665   1.708   4.034
  454SOL    HW2 1381   1.555   1.638   3.936
  455SOL     OW 1382   1.041   0.701   4.153
  455SOL    HW1 1383   1.067   0.697   4.249
  455SOL    HW2 1384   0.956   0.650   4.139
  456SOL     OW 1385   0.076   0.811   4.513
  456SOL    HW1 1386   0.175   0.799   4.522
  456SOL    HW2 1387   0.052   0.906   4.534
  457SOL     OW 1388   0.865   0.348   3.919
  457SOL    HW1 1389   0.924   0.411   3.870
  457SOL    HW2 1390   0.884   0.254   3.890
  458SOL     OW 1391   1.362   1.144   4.269
  458SOL    HW1 1392   1.445   1.115   4.221
  458SOL    HW2 1393   1.313   1.211   4.213
  459SOL     OW 1394   0.550   0.196   4.609
  459SOL    HW1 1395   0.545   0.191   4.709
  459SOL    HW2 1396   0.552   0.292   4.580
  460SOL     OW 1397   1.008   1.456   4.201
  460SOL    HW1 1398   0.962   1.528   4.149
  460SOL    HW2 1399   1.004   1.476   4.299
  461SOL     OW 1400   0.351   1.801   4.577
  461SOL    HW1 1401   0.401   1.715   4.583
  461SOL    HW2 1402   0.416   1.878   4.574
  462SOL     OW 1403   1.795   1.066   4.597
  462SOL    HW1 1404   1.733   1.051   4.521
  462SOL    HW2 1405   1.743   1.077   4.682
  463SOL     OW 1406   0.321   0.943   3.966
  463SOL    HW1 1407   0.403   0.982   3.924
  463SOL    HW2 1408   0.294   0.861   3.917
  464SOL     OW 1409   1.458   0.735   4.452
  464SOL    HW1 1410   1.453   0.670   4.527
  464SOL    HW2 1411   1.538   0.794   4.465
  465SOL     OW 1412   1.111   1.776   3.961
  465SOL    HW1 1413   1.051   1.714   4.011
  465SOL    HW2 1414   1.142   1.732   3.876
  466SOL     OW 1415   1.632   1.377   3.805
  466SOL    HW1 1416   1.600   1.471   3.795
  466SOL    HW2 1417   1.556   1.314   3.793
  467SOL     OW 1418   0.464   1.743   4.047
  467SOL    HW1 1419   0.497   1.782   4.133
  467SOL    HW2 1420   0.540   1.736   3.982
  468SOL     OW 1421   1.400   0.107   4.150
  468SOL    HW1 1422   1.376   0.070   4.060
  468SOL    HW2 1423   1.499   0.123   4.154
  469SOL     OW 1424   0.249   1.785   4.965
  469SOL    HW1 1425   0.306   1.720   5.015
  469SOL    HW2 1426   0.233   1.752   4.872
  470SOL     OW 1427   0.940   1.698   4.628
  470SOL    HW1 1428   1.020   1.641   4.649
  470SOL    HW2 1429   0.891   1.658   4.551
  471SOL     OW 1430   0.382   0.700   4.204
  471SOL    HW1 1431   0.427   0.610   4.201
  471SOL    HW2 1432   0.288   0.689   4.237
  472SOL     OW 1433   0.614   0.122   3.841
  472SOL    HW1 1434   0.712   0.100   3.848
  472SOL    HW2 1435   0.583   0.105   3.748
  473SOL     OW 1436   0.803   1.402   4.648
  473SOL    HW1 1437   0.893   1.416   4.606
  473SOL    HW2 1438   0.732   1.404   4.577
  474SOL     OW 1439   0.922   0.503   4.623
  474SOL    HW1 1440   0.897   0.494   4.527
  474SOL    HW2 1441   0.970   0.421   4.654
  475SOL     OW 1442   0.539   0.064   4.236
  475SOL    HW1 1443   0.458   0.065   4.294
  475SOL    HW2 1444   0.542   0.147   4.181
  476SOL     OW 1445   1.434   1.188   3.765
  476SOL    HW1 1446   1.466   1.112   3.822
  476SOL    HW2 1447   1.342   1.215   3.795
  477SOL     OW 1448   0.297   0.035   3.895
  477SOL    HW1 1449   0.346   0.119   3.874
  477SOL    HW2 1450   0.359  -0.030   3.940
  478SOL     OW 1451   0.935   0.236   4.204
  478SOL    HW1 1452   0.887   0.277   4.126
  478SOL    HW2 1453   1.034   0.234   4.185
  479SOL     OW 1454   1.227   1.570   4.517
  479SOL    HW1 1455   1.248   1.644   4.452
  479SOL    HW2 1456   1.295   1.570   4.590
  480SOL     OW 1457   0.459   1.152   4.465
  480SOL    HW1 1458   0.388   1.125   4.530
  480SOL    HW2 1459   0.433   1.124   4.372
  481SOL     OW 1460   1.271   1.797   4.315
  481SOL    HW1 1461   1.315   1.861   4.251
  481SOL    HW2 1462   1.221   1.849   4.385
  482SOL     OW 1463   1.032   0.549   3.740
  482SOL    HW1 1464   0.991   0.631   3.701
  482SOL    HW2 1465   1.096   0.575   3.813
  483SOL     OW 1466   0.866   0.454   4.366
  483SOL    HW1 1467   0.834   0.526   4.304
  483SOL    HW2 1468   0.890   0.373   4.313
  484SOL     OW 1469   1.017   0.039   4.477
  484SOL    HW1 1470   0.945   0.044   4.408
  484SOL    HW2 1471   0.993  -0.030   4.546
  485SOL     OW 1472   1.429   1.173   4.591
  485SOL    HW1 1473   1.374   1.089   4.584
  485SOL    HW2 1474   1.455   1.202   4.499
  486SOL     OW 1475   1.466   0.590   4.716
  486SOL    HW1 1476   1.436   0.495   4.723
  486SOL    HW2 1477   1.539   0.606   4.782
  487SOL     OW 1478   1.857   0.833   4.101
  487SOL    HW1 1479   1.899   0.769   4.165
  487SOL    HW2 1480   1.819   0.782   4.023
  488SOL     OW 1481   0.488   1.385   3.898
  488SOL    HW1 1482   0.401   1.370   3.945
  488SOL    HW2 1483   0.471   1.411   3.803
  489SOL     OW 1484   1.664   1.280   4.381
  489SOL    HW1 1485   1.763   1.288   4.395
  489SOL    HW2 1486   1.619   1.364   4.412
  490SOL     OW 1487   1.390   0.575   3.802
  490SOL    HW1 1488   1.336   0.554   3.883
  490SOL    HW2 1489   1.481   0.534   3.811
  491SOL     OW 1490   0.527   0.256   4.052
  491SOL    HW1 1491   0.554   0.197   3.977
  491SOL    HW2 1492   0.527   0.351   4.021
  492SOL     OW 1493   1.111   1.195   4.824
  492SOL    HW1 1494   1.071   1.239   4.905
  492SOL    HW2 1495   1.070   1.232   4.741
  493SOL     OW 1496   1.638   1.099   4.803
  493SOL    HW1 1497   1.643   1.180   4.862
  493SOL    HW2 1498   1.552   1.101   4.752
  494SOL     OW 1499   0.705   1.050   4.092
  494SOL    HW1 1500   0.691   1.057   4.191
  494SOL    HW2 1501   0.789   0.999   4.074
  495SOL     OW 1502   0.410   0.813   4.975
  495SOL    HW1 1503   0.496   0.825   5.025
  495SOL    HW2 1504   0.368   0.726   5.002
  496SOL     OW 1505   0.367   1.100   4.225
  496SOL    HW1 1506   0.360   1.183   4.169
  496SOL    HW2 1507   0.371   1.020   4.165
  497SOL     OW 1508   0.566   0.537   4.589
  497SOL    HW1 1509   0.578   0.603   4.515
  497SOL    HW2 1510   0.612   0.571   4.672
  498SOL     OW 1511   1.252   1.348   4.112
  498SOL    HW1 1512   1.302   1.425   4.152
  498SOL    HW2 1513   1.157   1.350   4.144
  499SOL     OW 1514   1.272   1.445   4.866
  499SOL    HW1 1515   1.319   1.458   4.953
  499SOL    HW2 1516   1.206   1.371   4.875
  500SOL     OW 1517   1.582   0.639   4.196
  500SOL    HW1 1518   1.551   0.700   4.269
  500SOL    HW2 1519   1.632   0.691   4.127
  501SOL     OW 1520   0.354   1.510   5.053
  501SOL    HW1 1521   0.333   1.466   4.966
  501SOL    HW2 1522   0.451   1.536   5.056
  502SOL     OW 1523   0.573   0.870   4.753
  502SOL    HW1 1524   0.617   0.959   4.744
  502SOL    HW2 1525   0.510   0.870   4.830
  503SOL     OW 1526   1.209   0.525   3.999
  503SOL    HW1 1527   1.222   0.441   4.053
  503SOL    HW2 1528   1.180   0.599   4.059
  504SOL     OW 1529   0.732   0.634   4.788
  504SOL    HW1 1530   0.791   0.608   4.712
  504SOL    HW2 1531   0.704   0.730   4.777
  505SOL     OW 1532   0.307   0.063   4.342
  505SOL    HW1 1533   0.296   0.157   4.375
  505SOL    HW2 1534   0.302   0.000   4.419
  506SOL     OW 1535   1.622   0.367   4.098
  506SOL    HW1 1536   1.624   0.291   4.162
  506SOL    HW2 1537   1.574   0.444   4.138
  507SOL     OW 1538   1.023   0.766   4.690
  507SOL    HW1 1539   1.038   0.787   4.786
  507SOL    HW2 1540   0.993   0.671   4.681
  508SOL     OW 1541   1.540   0.274   3.849
  508SOL    HW1 1542   1.479   0.199   3.872
  508SOL    HW2 1543   1.562   0.326   3.932
  509SOL     OW 1544   1.303   0.838   3.766
  509SOL    HW1 1545   1.337   0.745   3.781
  509SOL    HW2 1546   1.321   0.865   3.671
  510SOL     OW 1547   1.068   1.333   4.573
  510SOL    HW1 1548   1.075   1.249   4.518
  510SOL    HW2 1549   1.130   1.402   4.537
  511SOL     OW 1550   0.319   0.810   4.673
  511SOL    HW1 1551   0.412   0.846   4.678
  511SOL    HW2 1552   0.313   0.725   4.725
  512SOL     OW 1553   0.339   0.509   4.730
  512SOL    HW1 1554   0.287   0.426   4.713
  512SOL    HW2 1555   0.416   0.514   4.666
  513SOL     OW 1556   0.008   1.326   3.924
  513SOL    HW1 1557  -0.085   1.347   3.893
  513SOL    HW2 1558   0.018   1.227   3.937
  514SOL     OW 1559   0.088   1.801   4.651
  514SOL    HW1 1560   0.046   1.715   4.624
  514SOL    HW2 1561   0.182   1.804   4.617
  515SOL     OW 1562   0.504   1.568   4.634
  515SOL    HW1 1563   0.570   1.642   4.643
  515SOL    HW2 1564   0.548   1.489   4.592
  516SOL     OW 1565   1.002   0.796   4.962
  516SOL    HW1 1566   1.043   0.764   5.048
  516SOL    HW2 1567   0.906   0.769   4.959
  517SOL     OW 1568   0.815   0.572   4.049
  517SOL    HW1 1569   0.822   0.483   4.003
  517SOL    HW2 1570   0.721   0.606   4.041
  518SOL     OW 1571   0.671   0.464   4.993
  518SOL    HW1 1572   0.637   0.375   4.963
  518SOL    HW2 1573   0.697   0.518   4.913
  519SOL     OW 1574   0.473   0.500   3.915
  519SOL    HW1 1575   0.534   0.580   3.919
  519SOL    HW2 1576   0.378   0.531   3.922
  520SOL     OW 1577   1.302   0.855   4.033
  520SOL    HW1 1578   1.216   0.824   4.075
  520SOL    HW2 1579   1.298   0.841   3.934
  521SOL     OW 1580   1.759   1.747   4.878
  521SOL    HW1 1581   1.820   1.777   4.805
  521SOL    HW2 1582   1.721   1.658   4.856
  522SOL     OW 1583   0.083   1.258   4.746
  522SOL    HW1 1584   0.078   1.257   4.846
  522SOL    HW2 1585   0.000   1.217   4.708
  523SOL     OW 1586   1.726   0.135   4.247
  523SOL    HW1 1587   1.799   0.118   4.180
  523SOL    HW2 1588   1.695   0.048   4.285
  524SOL     OW 1589   1.388   1.573   4.201
  524SOL    HW1 1590   1.455   1.585   4.127
  524SOL    HW2 1591   1.348   1.662   4.224
  525SOL     OW 1592   1.280   0.927   4.396
  525SOL    HW1 1593   1.340   0.846   4.398
  525SOL    HW2 1594   1.320   0.996   4.336
  526SOL     OW 1595   0.672   1.616   3.878
  526SOL    HW1 1596   0.681   1.626   3.779
  526SOL    HW2 1597   0.632   1.527   3.899
  527SOL     OW 1598   1.841   0.175   4.687
  527SOL    HW1 1599   1.880   0.090   4.651
  527SOL    HW2 1600   1.743   0.177   4.668
  528SOL     OW 1601   0.263   0.326   4.444
  528SOL    HW1 1602   0.184   0.377   4.410
  528SOL    HW2 1603   0.254   0.311   4.542
  529SOL     OW 1604   1.194   1.612   3.755
  529SOL    HW1 1605   1.200   1.519   3.792
  529SOL    HW2 1606   1.135   1.612   3.675
  530SOL     OW 1607   0.822   1.002   5.096
  530SOL    HW1 1608   0.862   1.001   5.004
  530SOL    HW2 1609   0.832   1.094   5.136
  531SOL     OW 1610   0.916   0.910   4.015
  531SOL    HW1 1611   0.979   0.948   3.947
  531SOL    HW2 1612   0.956   0.827   4.054
  532SOL     OW 1613   1.504   1.607   3.768
  532SOL    HW1 1614   1.412   1.644   3.775
  532SOL    HW2 1615   1.542   1.627   3.678
  533SOL     OW 1616   1.039   1.098   4.420
  533SOL    HW1 1617   0.969   1.051   4.474
  533SOL    HW2 1618   1.098   1.030   4.377
  534SOL     OW 1619   1.014   0.236   4.695
  534SOL    HW1 1620   1.006   0.200   4.602
  534SOL    HW2 1621   1.012   0.160   4.760
  535SOL     OW 1622   0.590   1.487   4.215
  535SOL    HW1 1623   0.632   1.429   4.145
  535SOL    HW2 1624   0.546   1.566   4.171
  536SOL     OW 1625   0.255   1.348   4.014
  536SOL    HW1 1626   0.159   1.349   3.987
  536SOL    HW2 1627   0.267   1.401   4.098
  537SOL     OW 1628   0.075   0.345   3.757
  537SOL    HW1 1629  -0.017   0.317   3.728
  537SOL    HW2 1630   0.106   0.422   3.701
  538SOL     OW 1631   0.072   0.166   4.042
  538SOL    HW1 1632   0.055   0.249   3.988
  538SOL    HW2 1633   0.162   0.129   4.020
  539SOL     OW 1634   1.183   1.335   3.843
  539SOL    HW1 1635   1.084   1.324   3.845
  539SOL    HW2 1636   1.217   1.350   3.936
  540SOL     OW 1637   1.493   1.767   4.683
  540SOL    HW1 1638   1.526   1.831   4.614
  540SOL    HW2 1639   1.559   1.761   4.758
  541SOL     OW 1640   1.674   0.883   4.978
  541SOL    HW1 1641   1.647   0.794   4.941
  541SOL    HW2 1642   1.675   0.951   4.905
  542SOL     OW 1643   1.225   0.325   4.173
  542SOL    HW1 1644   1.290   0.251   4.162
  542SOL    HW2 1645   1.245   0.375   4.257
  543SOL     OW 1646   0.594   0.745   4.376
  543SOL    HW1 1647   0.644   0.830   4.357
  543SOL    HW2 1648   0.506   0.747   4.328
  544SOL     OW 1649   0.859   1.374   3.740
  544SOL    HW1 1650   0.813   1.389   3.828
  544SOL    HW2 1651   0.903   1.459   3.710
  545SOL     OW 1652   0.661   1.790   4.677
  545SOL    HW1 1653   0.615   1.878   4.664
  545SOL    HW2 1654   0.760   1.802   4.670
  546SOL     OW 1655   0.859   0.956   4.585
  546SOL    HW1 1656   0.913   0.887   4.633
  546SOL    HW2 1657   0.827   1.025   4.651
  547SOL     OW 1658   1.083   0.984   3.811
  547SOL    HW1 1659   1.060   1.037   3.729
  547SOL    HW2 1660   1.164   0.928   3.792
  548SOL     OW 1661   1.861   1.569   4.575
  548SOL    HW1 1662   1.790   1.557   4.505
  548SOL    HW2 1663   1.862   1.490   4.635
  549SOL     OW 1664   0.079   1.240   4.377
  549SOL    HW1 1665   0.078   1.193   4.465
  549SOL    HW2 1666   0.161   1.212   4.326
  550SOL     OW 1667   1.824   0.192   4.951
  550SOL    HW1 1668   1.820   0.102   4.995
  550SOL    HW2 1669   1.827   0.181   4.852
  551SOL     OW 1670   0.428   0.424   4.244
  551SOL    HW1 1671   0.458   0.352   4.182
  551SOL    HW2 1672   0.389   0.384   4.327
  552SOL     OW 1673   0.812   1.586   4.411
  552SOL    HW1 1674   0.844   1.596   4.317
  552SOL    HW2 1675   0.733   1.524   4.413
  553SOL     OW 1676   1.424   0.214   4.836
  553SOL    HW1 1677   1.476   0.149   4.891
  553SOL    HW2 1678   1.375   0.277   4.897
  554SOL     OW 1679   0.770   1.330   4.025
  554SOL    HW1 1680   0.724   1.243   4.042
  554SOL    HW2 1681   0.861   1.327   4.066
  555SOL     OW 1682   1.352   0.052   3.892
  555SOL    HW1 1683   1.387   0.011   3.808
  555SOL    HW2 1684   1.262   0.014   3.912
  556SOL     OW 1685   1.300   0.453   4.415
  556SOL    HW1 1686   1.241   0.533   4.419
  556SOL    HW2 1687   1.315   0.418   4.508
  557SOL     OW 1688   1.593   0.221   4.606
  557SOL    HW1 1689   1.509   0.220   4.660
  557SOL    HW2 1690   1.595   0.304   4.550
  558SOL     OW 1691   0.039   1.077   4.024
  558SOL    HW1 1692   0.138   1.066   4.015
  558SOL    HW2 1693  -0.001   0.991   4.056
  559SOL     OW 1694   0.875   1.646   4.061
  559SOL    HW1 1695   0.798   1.611   4.007
  559SOL    HW2 1696   0.843   1.717   4.123
  560SOL     OW 1697   0.230   2.490   0.113
  560SOL    HW1 1698   0.137   2.488   0.150
  560SOL    HW2 1699   0.231   2.451   0.021
  561SOL     OW 1700   0.225   2.137   0.996
  561SOL    HW1 1701   0.260   2.120   1.088
  561SOL    HW2 1702   0.137   2.092   0.984
  562SOL     OW 1703   0.019   2.230   0.647
  562SOL    HW1 1704  -0.063   2.273   0.686
  562SOL    HW2 1705  -0.009   2.157   0.584
  563SOL     OW 1706   0.569   3.137   1.165
  563SOL    HW1 1707   0.476   3.130   1.128
  563SOL    HW2 1708   0.580   3.226   1.209
  564SOL     OW 1709   1.555   3.373   0.703
  564SOL    HW1 1710   1.498   3.357   0.784
  564SOL    HW2 1711   1.496   3.383   0.623
  565SOL     OW 1712   1.135   2.565   0.717
  565SOL    HW1 1713   1.192   2.643   0.692
  565SOL    HW2 1714   1.075   2.591   0.793
  566SOL     OW 1715   1.755   2.469   0.231
  566SOL    HW1 1716   1.743   2.456   0.132
  566SOL    HW2 1717   1.725   2.388   0.280
  567SOL     OW 1718   0.768   3.006   1.023
  567SOL    HW1 1719   0.690   3.023   1.083
  567SOL    HW2 1720   0.802   3.093   0.987
  568SOL     OW 1721   0.850   2.660   1.823
  568SOL    HW1 1722   0.846   2.736   1.888
  568SOL    HW2 1723   0.872   2.696   1.732
  569SOL     OW 1724   0.685   2.874   0.665
  569SOL    HW1 1725   0.754   2.858   0.735
  569SOL    HW2 1726   0.612   2.931   0.703
  570SOL     OW 1727   0.686   3.023   1.803
  570SOL    HW1 1728   0.746   3.102   1.817
  570SOL    HW2 1729   0.600   3.054   1.762
  571SOL     OW 1730   0.335   3.297   1.061
  571SOL    HW1 1731   0.257   3.266   1.008
  571SOL    HW2 1732   0.393   3.355   1.004
  572SOL     OW 1733   1.460   3.367   1.339
  572SOL    HW1 1734   1.484   3.461   1.365
  572SOL    HW2 1735   1.444   3.313   1.421
  573SOL     OW 1736   0.438   2.254   1.499
  573SOL    HW1 1737   0.520   2.198   1.508
  573SOL    HW2 1738   0.357   2.196   1.503
  574SOL     OW 1739   1.603   2.309   0.737
  574SOL    HW1 1740   1.529   2.355   0.687
  574SOL    HW2 1741   1.654   2.377   0.790
  575SOL     OW 1742   0.231   3.575   0.483
  575SOL    HW1 1743   0.265   3.652   0.537
  575SOL    HW2 1744   0.275   3.575   0.393
  576SOL     OW 1745   1.127   3.203   1.690
  576SOL    HW1 1746   1.174   3.203   1.778
  576SOL    HW2 1747   1.079   3.116   1.679
  577SOL     OW 1748   0.230   3.296   0.538
  577SOL    HW1 1749   0.204   3.392   0.538
  577SOL    HW2 1750   0.159   3.242   0.583
  578SOL     OW 1751   0.240   2.953   0.886
  578SOL    HW1 1752   0.254   2.869   0.938
  578SOL    HW2 1753   0.185   3.017   0.941
  579SOL     OW 1754   0.620   3.648   1.439
  579SOL    HW1 1755   0.528   3.631   1.474
  579SOL    HW2 1756   0.648   3.740   1.465
  580SOL     OW 1757   0.606   2.826   0.123
  580SOL    HW1 1758   0.613   2.910   0.069
  580SOL    HW2 1759   0.652   2.839   0.211
  581SOL     OW 1760   1.594   1.976   1.480
  581SOL    HW1 1761   1.576   2.043   1.408
  581SOL    HW2 1762   1.591   2.022   1.569
  582SOL     OW 1763   0.122   2.505   0.563
  582SOL    HW1 1764   0.077   2.417   0.580
  582SOL    HW2 1765   0.121   2.559   0.647
  583SOL     OW 1766   1.842   3.629   0.359
  583SOL    HW1 1767   1.896   3.600   0.439
  583SOL    HW2 1768   1.872   3.719   0.330
  584SOL     OW 1769   0.027   3.458   0.117
  584SOL    HW1 1770   0.008   3.362   0.138
  584SOL    HW2 1771  -0.006   3.516   0.192
  585SOL     OW 1772   1.689   2.784   0.612
  585SOL    HW1 1773   1.784   2.755   0.620
  585SOL    HW2 1774   1.681   2.849   0.537
  586SOL     OW 1775   1.641   2.970   0.432
  586SOL    HW1 1776   1.727   2.972   0.380
  586SOL    HW2 1777   1.655   3.017   0.520
  587SOL     OW 1778   0.113   2.599   1.597
  587SOL    HW1 1779   0.201   2.586   1.642
  587SOL    HW2 1780   0.100   2.696   1.575
  588SOL     OW 1781   0.613   3.227   0.726
  588SOL    HW1 1782   0.564   3.140   0.735
  588SOL    HW2 1783   0.590   3.270   0.639
  589SOL     OW 1784   1.293   3.090   1.423
  589SOL    HW1 1785   1.330   3.017   1.365
  589SOL    HW2 1786   1.345   3.095   1.508
  590SOL     OW 1787   0.809   1.866   0.502
  590SOL    HW1 1788   0.849   1.957   0.493
  590SOL    HW2 1789   0.709   1.874   0.508
  591SOL     OW 1790   0.197   2.838   1.264
  591SOL    HW1 1791   0.286   2.793   1.250
  591SOL    HW2 1792   0.124   2.773   1.245
  592SOL     OW 1793   1.525   2.861   0.190
  592SOL    HW1 1794   1.462   2.785   0.203
  592SOL    HW2 1795   1.573   2.879   0.276
  593SOL     OW 1796   1.187   3.654   1.616
  593SOL    HW1 1797   1.211   3.714   1.540
  593SOL    HW2 1798   1.194   3.559   1.586
  594SOL     OW 1799   0.317   2.113   1.801
  594SOL    HW1 1800   0.388   2.184   1.807
  594SOL    HW2 1801   0.229   2.152   1.829
  595SOL     OW 1802   1.466   3.279   0.953
  595SOL    HW1 1803   1.407   3.285   1.033
  595SOL    HW2 1804   1.451   3.191   0.907
  596SOL     OW 1805   1.667   3.576   0.572
  596SOL    HW1 1806   1.626   3.553   0.484
  596SOL    HW2 1807   1.649   3.502   0.637
  597SOL     OW 1808   0.598   2.591   0.270
  597SOL    HW1 1809   0.622   2.660   0.202
  597SOL    HW2 1810   0.520   2.624   0.324
  598SOL     OW 1811   1.281   2.207   0.944
  598SOL    HW1 1812   1.195   2.157   0.931
  598SOL    HW2 1813   1.343   2.153   1.000
  599SOL     OW 1814   1.576   3.524   0.307
  599SOL    HW1 1815   1.665   3.570   0.310
  599SOL    HW2 1816   1.555   3.500   0.212
  600SOL     OW 1817   0.807   2.467   1.465
  600SOL    HW1 1818   0.760   2.464   1.554
  600SOL    HW2 1819   0.756   2.412   1.399
  601SOL     OW 1820   1.394   2.331   1.674
  601SOL    HW1 1821   1.374   2.374   1.762
  601SOL    HW2 1822   1.472   2.269   1.683
  602SOL     OW 1823   0.973   2.752   1.572
  602SOL    HW1 1824   1.019   2.668   1.543
  602SOL    HW2 1825   0.917   2.786   1.497
  603SOL     OW 1826   0.991   2.272   1.242
  603SOL    HW1 1827   0.914   2.306   1.296
  603SOL    HW2 1828   0.957   2.221   1.163
  604SOL     OW 1829   1.041   2.563   0.429
  604SOL    HW1 1830   1.067   2.559   0.525
  604SOL    HW2 1831   0.956   2.512   0.415
  605SOL     OW 1832   0.076   2.673   0.789
  605SOL    HW1 1833   0.175   2.661   0.798
  605SOL    HW2 1834   0.052   2.768   0.810
  606SOL     OW 1835   0.130   3.683   1.571
  606SOL    HW1 1836   0.120   3.668   1.670
  606SOL    HW2 1837   0.044   3.719   1.535
  607SOL     OW 1838   0.865   2.210   0.195
  607SOL    HW1 1839   0.924   2.273   0.146
  607SOL    HW2 1840   0.884   2.116   0.166
  608SOL     OW 1841   1.719   2.447   1.831
  608SOL    HW1 1842   1.693   2.536   1.795
  608SOL    HW2 1843   1.717   2.379   1.758
  609SOL     OW 1844   1.362   3.006   0.545
  609SOL    HW1 1845   1.445   2.977   0.497
  609SOL    HW2 1846   1.313   3.073   0.489
  610SOL     OW 1847   0.550   2.058   0.885
  610SOL    HW1 1848   0.545   2.053   0.985
  610SOL    HW2 1849   0.552   2.154   0.856
  611SOL     OW 1850   1.008   3.318   0.477
  611SOL    HW1 1851   0.962   3.390   0.425
  611SOL    HW2 1852   1.004   3.338   0.575
  612SOL     OW 1853   0.351   3.663   0.853
  612SOL    HW1 1854   0.401   3.577   0.859
  612SOL    HW2 1855   0.416   3.740   0.850
  613SOL     OW 1856   1.795   2.928   0.873
  613SOL    HW1 1857   1.733   2.913   0.797
  613SOL    HW2 1858   1.743   2.939   0.958
  614SOL     OW 1859   1.227   3.412   1.506
  614SOL    HW1 1860   1.233   3.335   1.570
  614SOL    HW2 1861   1.175   3.386   1.426
  615SOL     OW 1862   0.321   2.805   0.242
  615SOL    HW1 1863   0.403   2.844   0.200
  615SOL    HW2 1864   0.294   2.723   0.193
  616SOL     OW 1865   1.458   2.597   0.728
  616SOL    HW1 1866   1.453   2.532   0.803
  616SOL    HW2 1867   1.538   2.656   0.741
  617SOL     OW 1868   0.461   3.128   1.727
  617SOL    HW1 1869   0.411   3.129   1.641
  617SOL    HW2 1870   0.398   3.110   1.803
  618SOL     OW 1871   1.111   3.638   0.237
  618SOL    HW1 1872   1.051   3.576   0.287
  618SOL    HW2 1873   1.142   3.594   0.152
  619SOL     OW 1874   0.202   2.147   1.498
  619SOL    HW1 1875   0.122   2.207   1.485
  619SOL    HW2 1876   0.192   2.098   1.584
  620SOL     OW 1877   1.632   3.239   0.081
  620SOL    HW1 1878   1.600   3.333   0.071
  620SOL    HW2 1879   1.556   3.176   0.069
  621SOL     OW 1880   0.464   3.605   0.323
  621SOL    HW1 1881   0.497   3.644   0.409
  621SOL    HW2 1882   0.540   3.598   0.258
  622SOL     OW 1883   1.400   1.969   0.426
  622SOL    HW1 1884   1.376   1.932   0.336
  622SOL    HW2 1885   1.499   1.985   0.430
  623SOL     OW 1886   0.249   3.647   1.241
  623SOL    HW1 1887   0.306   3.582   1.291
  623SOL    HW2 1888   0.233   3.614   1.148
  624SOL     OW 1889   0.940   3.560   0.904
  624SOL    HW1 1890   1.020   3.503   0.925
  624SOL    HW2 1891   0.891   3.520   0.827
  625SOL     OW 1892   0.382   2.562   0.480
  625SOL    HW1 1893   0.427   2.472   0.477
  625SOL    HW2 1894   0.288   2.551   0.513
  626SOL     OW 1895   1.547   2.084   1.729
  626SOL    HW1 1896   1.542   2.121   1.821
  626SOL    HW2 1897   1.475   2.015   1.717
  627SOL     OW 1898   0.614   1.984   0.117
  627SOL    HW1 1899   0.712   1.962   0.124
  627SOL    HW2 1900   0.583   1.967   0.024
  628SOL     OW 1901   0.781   2.126   1.749
  628SOL    HW1 1902   0.848   2.065   1.792
  628SOL    HW2 1903   0.708   2.145   1.814
  629SOL     OW 1904   0.888   3.376   1.195
  629SOL    HW1 1905   0.865   3.351   1.101
  629SOL    HW2 1906   0.949   3.307   1.234
  630SOL     OW 1907   1.351   2.452   1.433
  630SOL    HW1 1908   1.379   2.409   1.518
  630SOL    HW2 1909   1.376   2.548   1.434
  631SOL     OW 1910   0.803   3.264   0.924
  631SOL    HW1 1911   0.893   3.278   0.882
  631SOL    HW2 1912   0.732   3.266   0.853
  632SOL     OW 1913   0.922   2.365   0.899
  632SOL    HW1 1914   0.897   2.356   0.803
  632SOL    HW2 1915   0.970   2.283   0.930
  633SOL     OW 1916   0.539   1.926   0.512
  633SOL    HW1 1917   0.458   1.927   0.570
  633SOL    HW2 1918   0.542   2.009   0.457
  634SOL     OW 1919   1.434   3.050   0.041
  634SOL    HW1 1920   1.466   2.974   0.098
  634SOL    HW2 1921   1.342   3.077   0.071
  635SOL     OW 1922   0.297   1.897   0.171
  635SOL    HW1 1923   0.346   1.981   0.150
  635SOL    HW2 1924   0.359   1.832   0.216
  636SOL     OW 1925   0.935   2.098   0.480
  636SOL    HW1 1926   0.887   2.139   0.402
  636SOL    HW2 1927   1.034   2.096   0.461
  637SOL     OW 1928   1.076   2.545   1.464
  637SOL    HW1 1929   0.996   2.484   1.467
  637SOL    HW2 1930   1.157   2.492   1.440
  638SOL     OW 1931   1.227   3.432   0.793
  638SOL    HW1 1932   1.248   3.506   0.728
  638SOL    HW2 1933   1.295   3.432   0.866
  639SOL     OW 1934   0.459   3.014   0.741
  639SOL    HW1 1935   0.388   2.987   0.806
  639SOL    HW2 1936   0.433   2.986   0.648
  640SOL     OW 1937   1.271   3.659   0.591
  640SOL    HW1 1938   1.315   3.723   0.527
  640SOL    HW2 1939   1.221   3.711   0.661
  641SOL     OW 1940   1.032   2.411   0.016
  641SOL    HW1 1941   0.991   2.493  -0.023
  641SOL    HW2 1942   1.096   2.437   0.089
  642SOL     OW 1943   0.078   2.418   1.386
  642SOL    HW1 1944   0.170   2.417   1.345
  642SOL    HW2 1945   0.072   2.492   1.453
  643SOL     OW 1946   0.561   2.084   1.147
  643SOL    HW1 1947   0.599   2.000   1.184
  643SOL    HW2 1948   0.473   2.103   1.191
  644SOL     OW 1949   0.866   2.316   0.642
  644SOL    HW1 1950   0.834   2.388   0.580
  644SOL    HW2 1951   0.890   2.235   0.589
  645SOL     OW 1952   1.017   1.901   0.753
  645SOL    HW1 1953   0.945   1.906   0.684
  645SOL    HW2 1954   0.993   1.832   0.822
  646SOL     OW 1955   1.429   3.035   0.867
  646SOL    HW1 1956   1.374   2.951   0.860
  646SOL    HW2 1957   1.455   3.064   0.775
  647SOL     OW 1958   1.466   2.452   0.992
  647SOL    HW1 1959   1.436   2.357   0.999
  647SOL    HW2 1960   1.539   2.468   1.058
  648SOL     OW 1961   1.857   2.695   0.377
  648SOL    HW1 1962   1.899   2.631   0.441
  648SOL    HW2 1963   1.819   2.644   0.299
  649SOL     OW 1964   0.488   3.247   0.174
  649SOL    HW1 1965   0.401   3.232   0.221
  649SOL    HW2 1966   0.471   3.273   0.079
  650SOL     OW 1967   1.664   3.142   0.657
  650SOL    HW1 1968   1.763   3.150   0.671
  650SOL    HW2 1969   1.619   3.226   0.688
  651SOL     OW 1970   1.390   2.437   0.078
  651SOL    HW1 1971   1.336   2.416   0.159
  651SOL    HW2 1972   1.481   2.396   0.087
  652SOL     OW 1973   0.527   2.118   0.328
  652SOL    HW1 1974   0.554   2.059   0.253
  652SOL    HW2 1975   0.527   2.213   0.297
  653SOL     OW 1976   1.754   3.085   1.588
  653SOL    HW1 1977   1.845   3.046   1.575
  653SOL    HW2 1978   1.762   3.181   1.612
  654SOL     OW 1979   1.064   3.209   1.340
  654SOL    HW1 1980   0.984   3.186   1.395
  654SOL    HW2 1981   1.147   3.183   1.389
  655SOL     OW 1982   1.592   3.491   1.625
  655SOL    HW1 1983   1.619   3.525   1.535
  655SOL    HW2 1984   1.671   3.453   1.671
  656SOL     OW 1985   1.111   3.057   1.100
  656SOL    HW1 1986   1.071   3.101   1.181
  656SOL    HW2 1987   1.070   3.094   1.017
  657SOL     OW 1988   1.638   2.961   1.079
  657SOL    HW1 1989   1.643   3.042   1.138
  657SOL    HW2 1990   1.552   2.963   1.028
  658SOL     OW 1991   0.915   1.951   1.402
  658SOL    HW1 1992   0.940   1.931   1.307
  658SOL    HW2 1993   0.987   2.007   1.444
  659SOL     OW 1994   0.980   2.978   1.719
  659SOL    HW1 1995   0.881   2.984   1.729
  659SOL    HW2 1996   1.003   2.898   1.663
  660SOL     OW 1997   0.705   2.912   0.368
  660SOL    HW1 1998   0.691   2.919   0.467
  660SOL    HW2 1999   0.789   2.861   0.350
  661SOL     OW 2000   0.410   2.675   1.251
  661SOL    HW1 2001   0.496   2.687   1.301
  661SOL    HW2 2002   0.368   2.588   1.278
  662SOL     OW 2003   1.274   2.248   1.262
  662SOL    HW1 2004   1.295   2.322   1.326
  662SOL    HW2 2005   1.185   2.265   1.219
  663SOL     OW 2006   0.064   3.426   1.331
  663SOL    HW1 2007   0.018   3.508   1.297
  663SOL    HW2 2008   0.162   3.445   1.340
  664SOL     OW 2009   0.367   2.962   0.501
  664SOL    HW1 2010   0.360   3.045   0.445
  664SOL    HW2 2011   0.371   2.882   0.441
  665SOL     OW 2012   0.566   2.399   0.865
  665SOL    HW1 2013   0.578   2.465   0.791
  665SOL    HW2 2014   0.612   2.433   0.948
  666SOL     OW 2015   1.252   3.210   0.388
  666SOL    HW1 2016   1.302   3.287   0.428
  666SOL    HW2 2017   1.157   3.212   0.420
  667SOL     OW 2018   1.272   3.307   1.142
  667SOL    HW1 2019   1.319   3.320   1.229
  667SOL    HW2 2020   1.206   3.233   1.151
  668SOL     OW 2021   1.582   2.501   0.472
  668SOL    HW1 2022   1.551   2.562   0.545
  668SOL    HW2 2023   1.632   2.553   0.403
  669SOL     OW 2024   0.354   3.372   1.329
  669SOL    HW1 2025   0.333   3.328   1.242
  669SOL    HW2 2026   0.451   3.398   1.332
  670SOL     OW 2027   0.402   2.613   1.598
  670SOL    HW1 2028   0.470   2.668   1.551
  670SOL    HW2 2029   0.442   2.525   1.625
  671SOL     OW 2030   1.587   2.641   1.670
  671SOL    HW1 2031   1.495   2.679   1.665
  671SOL    HW2 2032   1.647   2.688   1.605
  672SOL     OW 2033   1.013   1.967   1.770
  672SOL    HW1 2034   1.019   2.052   1.718
  672SOL    HW2 2035   1.045   1.891   1.713
  673SOL     OW 2036   0.504   1.912   1.740
  673SOL    HW1 2037   0.462   1.855   1.670
  673SOL    HW2 2038   0.438   1.981   1.772
  674SOL     OW 2039   0.573   2.732   1.029
  674SOL    HW1 2040   0.617   2.821   1.020
  674SOL    HW2 2041   0.510   2.732   1.106
  675SOL     OW 2042   1.360   2.724   1.045
  675SOL    HW1 2043   1.285   2.724   0.979
  675SOL    HW2 2044   1.397   2.632   1.054
  676SOL     OW 2045   1.209   2.387   0.275
  676SOL    HW1 2046   1.222   2.303   0.329
  676SOL    HW2 2047   1.180   2.461   0.335
  677SOL     OW 2048   0.307   2.075   1.231
  677SOL    HW1 2049   0.284   2.112   1.321
  677SOL    HW2 2050   0.277   1.980   1.225
  678SOL     OW 2051   0.037   3.172   1.282
  678SOL    HW1 2052   0.090   3.123   1.350
  678SOL    HW2 2053   0.059   3.270   1.287
  679SOL     OW 2054   0.732   2.496   1.064
  679SOL    HW1 2055   0.791   2.470   0.988
  679SOL    HW2 2056   0.704   2.592   1.053
  680SOL     OW 2057   1.728   2.797   1.854
  680SOL    HW1 2058   1.682   2.790   1.765
  680SOL    HW2 2059   1.666   2.841   1.920
  681SOL     OW 2060   0.307   1.925   0.618
  681SOL    HW1 2061   0.296   2.019   0.651
  681SOL    HW2 2062   0.302   1.862   0.695
  682SOL     OW 2063   1.622   2.229   0.374
  682SOL    HW1 2064   1.624   2.153   0.438
  682SOL    HW2 2065   1.574   2.306   0.414
  683SOL     OW 2066   1.023   2.628   0.966
  683SOL    HW1 2067   1.038   2.649   1.062
  683SOL    HW2 2068   0.993   2.533   0.957
  684SOL     OW 2069   0.980   3.435   1.700
  684SOL    HW1 2070   0.960   3.479   1.612
  684SOL    HW2 2071   1.019   3.344   1.684
  685SOL     OW 2072   1.859   3.380   1.605
  685SOL    HW1 2073   1.873   3.407   1.510
  685SOL    HW2 2074   1.942   3.402   1.658
  686SOL     OW 2075   0.350   2.760   1.804
  686SOL    HW1 2076   0.426   2.804   1.852
  686SOL    HW2 2077   0.385   2.713   1.722
  687SOL     OW 2078   1.540   2.136   0.125
  687SOL    HW1 2079   1.479   2.061   0.148
  687SOL    HW2 2080   1.562   2.188   0.208
  688SOL     OW 2081   1.303   2.700   0.042
  688SOL    HW1 2082   1.337   2.607   0.057
  688SOL    HW2 2083   1.321   2.727  -0.053
  689SOL     OW 2084   1.068   3.195   0.849
  689SOL    HW1 2085   1.075   3.111   0.794
  689SOL    HW2 2086   1.130   3.264   0.813
  690SOL     OW 2087   0.319   2.672   0.949
  690SOL    HW1 2088   0.412   2.708   0.954
  690SOL    HW2 2089   0.313   2.587   1.001
  691SOL     OW 2090   0.339   2.371   1.006
  691SOL    HW1 2091   0.287   2.288   0.989
  691SOL    HW2 2092   0.416   2.376   0.942
  692SOL     OW 2093   1.138   2.242   1.678
  692SOL    HW1 2094   1.093   2.305   1.742
  692SOL    HW2 2095   1.231   2.273   1.661
  693SOL     OW 2096   1.160   2.069   1.477
  693SOL    HW1 2097   1.160   2.133   1.554
  693SOL    HW2 2098   1.188   2.117   1.394
  694SOL     OW 2099   0.008   3.188   0.200
  694SOL    HW1 2100  -0.085   3.209   0.169
  694SOL    HW2 2101   0.018   3.089   0.213
  695SOL     OW 2102   0.088   3.663   0.927
  695SOL    HW1 2103   0.046   3.577   0.900
  695SOL    HW2 2104   0.182   3.666   0.893
  696SOL     OW 2105   0.504   3.430   0.910
  696SOL    HW1 2106   0.570   3.504   0.919
  696SOL    HW2 2107   0.548   3.351   0.868
  697SOL     OW 2108   1.002   2.658   1.238
  697SOL    HW1 2109   1.043   2.626   1.324
  697SOL    HW2 2110   0.906   2.631   1.235
  698SOL     OW 2111   0.040   2.406   1.114
  698SOL    HW1 2112   0.125   2.373   1.073
  698SOL    HW2 2113   0.053   2.421   1.212
  699SOL     OW 2114   0.189   2.382   1.722
  699SOL    HW1 2115   0.248   2.342   1.652
  699SOL    HW2 2116   0.131   2.453   1.681
  700SOL     OW 2117   1.369   2.812   1.660
  700SOL    HW1 2118   1.408   2.901   1.680
  700SOL    HW2 2119   1.379   2.792   1.563
  701SOL     OW 2120   0.815   2.434   0.325
  701SOL    HW1 2121   0.822   2.345   0.279
  701SOL    HW2 2122   0.721   2.468   0.317
  702SOL     OW 2123   1.657   2.466   1.206
  702SOL    HW1 2124   1.619   2.397   1.268
  702SOL    HW2 2125   1.739   2.430   1.162
  703SOL     OW 2126   0.252   3.426   1.744
  703SOL    HW1 2127   0.222   3.483   1.820
  703SOL    HW2 2128   0.245   3.329   1.770
  704SOL     OW 2129   0.671   2.326   1.269
  704SOL    HW1 2130   0.637   2.237   1.239
  704SOL    HW2 2131   0.697   2.380   1.189
  705SOL     OW 2132   0.930   3.540   1.465
  705SOL    HW1 2133   0.906   3.522   1.370
  705SOL    HW2 2134   0.960   3.634   1.475
  706SOL     OW 2135   0.473   2.362   0.191
  706SOL    HW1 2136   0.534   2.442   0.195
  706SOL    HW2 2137   0.378   2.393   0.198
  707SOL     OW 2138   0.159   2.999   1.466
  707SOL    HW1 2139   0.181   2.938   1.542
  707SOL    HW2 2140   0.169   2.950   1.380
  708SOL     OW 2141   1.347   2.921   1.234
  708SOL    HW1 2142   1.371   2.858   1.160
  708SOL    HW2 2143   1.257   2.961   1.216
  709SOL     OW 2144   1.302   2.717   0.309
  709SOL    HW1 2145   1.216   2.686   0.351
  709SOL    HW2 2146   1.298   2.703   0.210
  710SOL     OW 2147   1.759   3.609   1.154
  710SOL    HW1 2148   1.820   3.639   1.081
  710SOL    HW2 2149   1.721   3.520   1.132
  711SOL     OW 2150   1.252   3.593   1.128
  711SOL    HW1 2151   1.336   3.598   1.074
  711SOL    HW2 2152   1.229   3.497   1.146
  712SOL     OW 2153   0.083   3.120   1.022
  712SOL    HW1 2154   0.078   3.119   1.122
  712SOL    HW2 2155   0.000   3.079   0.984
  713SOL     OW 2156   0.688   3.524   1.716
  713SOL    HW1 2157   0.632   3.605   1.725
  713SOL    HW2 2158   0.740   3.528   1.630
  714SOL     OW 2159   0.903   1.948   0.133
  714SOL    HW1 2160   0.954   1.949   0.047
  714SOL    HW2 2161   0.959   1.906   0.204
  715SOL     OW 2162   1.726   1.997   0.523
  715SOL    HW1 2163   1.799   1.980   0.456
  715SOL    HW2 2164   1.695   1.910   0.561
  716SOL     OW 2165   1.388   3.435   0.477
  716SOL    HW1 2166   1.455   3.447   0.403
  716SOL    HW2 2167   1.348   3.524   0.500
  717SOL     OW 2168   0.130   3.656   1.851
  717SOL    HW1 2169   0.089   3.582   1.904
  717SOL    HW2 2170   0.194   3.707   1.909
  718SOL     OW 2171   1.280   2.789   0.672
  718SOL    HW1 2172   1.340   2.708   0.674
  718SOL    HW2 2173   1.320   2.858   0.612
  719SOL     OW 2174   0.830   3.135   1.422
  719SOL    HW1 2175   0.825   3.168   1.517
  719SOL    HW2 2176   0.744   3.154   1.376
  720SOL     OW 2177   0.672   3.478   0.154
  720SOL    HW1 2178   0.681   3.488   0.055
  720SOL    HW2 2179   0.632   3.389   0.175
  721SOL     OW 2180   1.650   3.582   1.394
  721SOL    HW1 2181   1.703   3.592   1.310
  721SOL    HW2 2182   1.623   3.672   1.428
  722SOL     OW 2183   1.841   2.037   0.963
  722SOL    HW1 2184   1.880   1.952   0.927
  722SOL    HW2 2185   1.743   2.039   0.944
  723SOL     OW 2186   0.263   2.188   0.720
  723SOL    HW1 2187   0.184   2.239   0.686
  723SOL    HW2 2188   0.254   2.173   0.818
  724SOL     OW 2189   1.194   3.474   0.031
  724SOL    HW1 2190   1.200   3.381   0.068
  724SOL    HW2 2191   1.135   3.474  -0.049
  725SOL     OW 2192   0.822   2.864   1.372
  725SOL    HW1 2193   0.862   2.863   1.280
  725SOL    HW2 2194   0.832   2.956   1.412
  726SOL     OW 2195   0.916   2.772   0.291
  726SOL    HW1 2196   0.979   2.810   0.223
  726SOL    HW2 2197   0.956   2.689   0.330
  727SOL     OW 2198   1.504   3.469   0.044
  727SOL    HW1 2199   1.412   3.506   0.051
  727SOL    HW2 2200   1.542   3.489  -0.046
  728SOL     OW 2201   0.372   3.150   1.490
  728SOL    HW1 2202   0.359   3.243   1.456
  728SOL    HW2 2203   0.288   3.098   1.477
  729SOL     OW 2204   1.614   3.154   1.289
  729SOL    HW1 2205   1.674   3.157   1.369
  729SOL    HW2 2206   1.539   3.218   1.302
  730SOL     OW 2207   1.039   2.960   0.696
  730SOL    HW1 2208   0.969   2.913   0.750
  730SOL    HW2 2209   1.098   2.892   0.653
  731SOL     OW 2210   1.014   2.098   0.971
  731SOL    HW1 2211   1.006   2.062   0.878
  731SOL    HW2 2212   1.012   2.022   1.036
  732SOL     OW 2213   0.590   3.349   0.491
  732SOL    HW1 2214   0.632   3.291   0.421
  732SOL    HW2 2215   0.546   3.428   0.447
  733SOL     OW 2216   1.709   2.247   1.381
  733SOL    HW1 2217   1.782   2.316   1.385
  733SOL    HW2 2218   1.737   2.172   1.322
  734SOL     OW 2219   0.255   3.210   0.290
  734SOL    HW1 2220   0.159   3.211   0.263
  734SOL    HW2 2221   0.267   3.263   0.374
  735SOL     OW 2222   0.105   2.875   1.726
  735SOL    HW1 2223   0.028   2.842   1.780
  735SOL    HW2 2224   0.190   2.845   1.768
  736SOL     OW 2225   0.672   2.065   1.489
  736SOL    HW1 2226   0.762   2.049   1.449
  736SOL    HW2 2227   0.680   2.070   1.588
  737SOL     OW 2228   0.075   2.207   0.033
  737SOL    HW1 2229  -0.017   2.179   0.004
  737SOL    HW2 2230   0.106   2.284  -0.023
  738SOL     OW 2231   1.440   2.718   1.398
  738SOL    HW1 2232   1.383   2.770   1.335
  738SOL    HW2 2233   1.536   2.730   1.374
  739SOL     OW 2234   0.072   2.028   0.318
  739SOL    HW1 2235   0.055   2.111   0.264
  739SOL    HW2 2236   0.162   1.991   0.296
  740SOL     OW 2237   1.183   3.197   0.119
  740SOL    HW1 2238   1.084   3.186   0.121
  740SOL    HW2 2239   1.217   3.212   0.212
  741SOL     OW 2240   0.613   2.704   1.431
  741SOL    HW1 2241   0.669   2.785   1.414
  741SOL    HW2 2242   0.672   2.624   1.434
  742SOL     OW 2243   1.493   3.629   0.959
  742SOL    HW1 2244   1.526   3.693   0.890
  742SOL    HW2 2245   1.559   3.623   1.034
  743SOL     OW 2246   0.716   2.427   1.708
  743SOL    HW1 2247   0.735   2.492   1.782
  743SOL    HW2 2248   0.776   2.347   1.717
  744SOL     OW 2249   1.450   3.082   1.633
  744SOL    HW1 2250   1.441   3.072   1.732
  744SOL    HW2 2251   1.546   3.075   1.607
  745SOL     OW 2252   0.390   3.603   1.560
  745SOL    HW1 2253   0.299   3.644   1.558
  745SOL    HW2 2254   0.383   3.509   1.592
  746SOL     OW 2255   1.674   2.745   1.254
  746SOL    HW1 2256   1.647   2.656   1.217
  746SOL    HW2 2257   1.675   2.813   1.181
  747SOL     OW 2258   1.225   2.187   0.449
  747SOL    HW1 2259   1.290   2.113   0.438
  747SOL    HW2 2260   1.245   2.237   0.533
  748SOL     OW 2261   0.594   2.607   0.652
  748SOL    HW1 2262   0.644   2.692   0.633
  748SOL    HW2 2263   0.506   2.609   0.604
  749SOL     OW 2264   1.777   2.204   1.642
  749SOL    HW1 2265   1.760   2.235   1.548
  749SOL    HW2 2266   1.693   2.167   1.680
  750SOL     OW 2267   1.730   2.796   1.517
  750SOL    HW1 2268   1.768   2.887   1.532
  750SOL    HW2 2269   1.722   2.779   1.418
  751SOL     OW 2270   0.859   3.236   0.016
  751SOL    HW1 2271   0.813   3.251   0.104
  751SOL    HW2 2272   0.903   3.321  -0.014
  752SOL     OW 2273   0.661   3.652   0.953
  752SOL    HW1 2274   0.615   3.740   0.940
  752SOL    HW2 2275   0.760   3.664   0.946
  753SOL     OW 2276   0.859   2.818   0.861
  753SOL    HW1 2277   0.913   2.749   0.909
  753SOL    HW2 2278   0.827   2.887   0.927
  754SOL     OW 2279   1.083   2.846   0.087
  754SOL    HW1 2280   1.060   2.899   0.005
  754SOL    HW2 2281   1.164   2.790   0.068
  755SOL     OW 2282   1.861   3.431   0.851
  755SOL    HW1 2283   1.790   3.419   0.781
  755SOL    HW2 2284   1.862   3.352   0.911
  756SOL     OW 2285   0.221   3.176   1.844
  756SOL    HW1 2286   0.156   3.103   1.823
  756SOL    HW2 2287   0.225   3.190   1.942
  757SOL     OW 2288   0.079   3.102   0.653
  757SOL    HW1 2289   0.078   3.055   0.741
  757SOL    HW2 2290   0.161   3.074   0.602
  758SOL     OW 2291   0.672   3.253   1.624
  758SOL    HW1 2292   0.594   3.203   1.662
  758SOL    HW2 2293   0.669   3.348   1.655
  759SOL     OW 2294   1.824   2.054   1.227
  759SOL    HW1 2295   1.820   1.964   1.271
  759SOL    HW2 2296   1.827   2.043   1.128
  760SOL     OW 2297   0.428   2.286   0.520
  760SOL    HW1 2298   0.458   2.214   0.458
  760SOL    HW2 2299   0.389   2.246   0.603
  761SOL     OW 2300   1.705   3.349   1.104
  761SOL    HW1 2301   1.612   3.324   1.077
  761SOL    HW2 2302   1.731   3.299   1.186
  762SOL     OW 2303   0.317   2.409   1.280
  762SOL    HW1 2304   0.355   2.350   1.352
  762SOL    HW2 2305   0.357   2.383   1.192
  763SOL     OW 2306   0.812   3.448   0.687
  763SOL    HW1 2307   0.844   3.458   0.593
  763SOL    HW2 2308   0.733   3.386   0.689
  764SOL     OW 2309   1.424   2.076   1.112
  764SOL    HW1 2310   1.476   2.011   1.167
  764SOL    HW2 2311   1.375   2.139   1.173
  765SOL     OW 2312   1.001   1.896   1.154
  765SOL    HW1 2313   0.938   1.824   1.123
  765SOL    HW2 2314   1.094   1.860   1.154
  766SOL     OW 2315   0.770   3.192   0.301
  766SOL    HW1 2316   0.724   3.105   0.318
  766SOL    HW2 2317   0.861   3.189   0.342
  767SOL     OW 2318   0.618   3.429   1.284
  767SOL    HW1 2319   0.613   3.511   1.341
  767SOL    HW2 2320   0.707   3.426   1.239
  768SOL     OW 2321   1.352   1.914   0.168
  768SOL    HW1 2322   1.387   1.873   0.084
  768SOL    HW2 2323   1.262   1.876   0.188
  769SOL     OW 2324   1.300   2.315   0.691
  769SOL    HW1 2325   1.241   2.395   0.695
  769SOL    HW2 2326   1.315   2.280   0.784
  770SOL     OW 2327   1.593   2.083   0.882
  770SOL    HW1 2328   1.509   2.082   0.936
  770SOL    HW2 2329   1.595   2.166   0.826
  771SOL     OW 2330   0.039   2.939   0.300
  771SOL    HW1 2331   0.138   2.928   0.291
  771SOL    HW2 2332  -0.001   2.853   0.332
  772SOL     OW 2333   0.875   3.508   0.337
  772SOL    HW1 2334   0.798   3.473   0.283
  772SOL    HW2 2335   0.843   3.579   0.399
  773SOL     OW 2336   0.230   2.490   1.975
  773SOL    HW1 2337   0.137   2.488   2.012
  773SOL    HW2 2338   0.231   2.451   1.883
  774SOL     OW 2339   0.225   2.137   2.858
  774SOL    HW1 2340   0.260   2.120   2.950
  774SOL    HW2 2341   0.137   2.092   2.846
  775SOL     OW 2342   0.019   2.230   2.509
  775SOL    HW1 2343  -0.063   2.273   2.548
  775SOL    HW2 2344  -0.009   2.157   2.446
  776SOL     OW 2345   0.569   3.137   3.027
  776SOL    HW1 2346   0.476   3.130   2.990
  776SOL    HW2 2347   0.580   3.226   3.071
  777SOL     OW 2348   1.555   3.373   2.565
  777SOL    HW1 2349   1.498   3.357   2.646
  777SOL    HW2 2350   1.496   3.383   2.485
  778SOL     OW 2351   1.135   2.565   2.579
  778SOL    HW1 2352   1.192   2.643   2.554
  778SOL    HW2 2353   1.075   2.591   2.655
  779SOL     OW 2354   1.755   2.469   2.093
  779SOL    HW1 2355   1.743   2.456   1.994
  779SOL    HW2 2356   1.725   2.388   2.142
  780SOL     OW 2357   0.768   3.006   2.885
  780SOL    HW1 2358   0.690   3.023   2.945
  780SOL    HW2 2359   0.802   3.093   2.849
  781SOL     OW 2360   0.850   2.660   3.685
  781SOL    HW1 2361   0.846   2.736   3.750
  781SOL    HW2 2362   0.872   2.696   3.594
  782SOL     OW 2363   0.685   2.874   2.527
  782SOL    HW1 2364   0.754   2.858   2.597
  782SOL    HW2 2365   0.612   2.931   2.565
  783SOL     OW 2366   0.686   3.023   3.665
  783SOL    HW1 2367   0.746   3.102   3.679
  783SOL    HW2 2368   0.600   3.054   3.624
  784SOL     OW 2369   0.335   3.297   2.923
  784SOL    HW1 2370   0.257   3.266   2.870
  784SOL    HW2 2371   0.393   3.355   2.866
  785SOL     OW 2372   1.460   3.367   3.201
  785SOL    HW1 2373   1.484   3.461   3.227
  785SOL    HW2 2374   1.444   3.313   3.283
  786SOL     OW 2375   0.438   2.254   3.361
  786SOL    HW1 2376   0.520   2.198   3.370
  786SOL    HW2 2377   0.357   2.196   3.365
  787SOL     OW 2378   1.603   2.309   2.599
  787SOL    HW1 2379   1.529   2.355   2.549
  787SOL    HW2 2380   1.654   2.377   2.652
  788SOL     OW 2381   0.231   3.575   2.345
  788SOL    HW1 2382   0.265   3.652   2.399
  788SOL    HW2 2383   0.275   3.575   2.255
  789SOL     OW 2384   1.127   3.203   3.552
  789SOL    HW1 2385   1.174   3.203   3.640
  789SOL    HW2 2386   1.079   3.116   3.541
  790SOL     OW 2387   0.230   3.296   2.400
  790SOL    HW1 2388   0.204   3.392   2.400
  790SOL    HW2 2389   0.159   3.242   2.445
  791SOL     OW 2390   0.240   2.953   2.748
  791SOL    HW1 2391   0.254   2.869   2.800
  791SOL    HW2 2392   0.185   3.017   2.803
  792SOL     OW 2393   0.620   3.648   3.301
  792SOL    HW1 2394   0.528   3.631   3.336
  792SOL    HW2 2395   0.648   3.740   3.327
  793SOL     OW 2396   0.606   2.826   1.985
  793SOL    HW1 2397   0.613   2.910   1.931
  793SOL    HW2 2398   0.652   2.839   2.073
  794SOL     OW 2399   1.594   1.976   3.342
  794SOL    HW1 2400   1.576   2.043   3.270
  794SOL    HW2 2401   1.591   2.022   3.431
  795SOL     OW 2402   0.122   2.505   2.425
  795SOL    HW1 2403   0.077   2.417   2.442
  795SOL    HW2 2404   0.121   2.559   2.509
  796SOL     OW 2405   1.842   3.629   2.221
  796SOL    HW1 2406   1.896   3.600   2.301
  796SOL    HW2 2407   1.872   3.719   2.192
  797SOL     OW 2408   0.027   3.458   1.979
  797SOL    HW1 2409   0.008   3.362   2.000
  797SOL    HW2 2410  -0.006   3.516   2.054
  798SOL     OW 2411   1.689   2.784   2.474
  798SOL    HW1 2412   1.784   2.755   2.482
  798SOL    HW2 2413   1.681   2.849   2.399
  799SOL     OW 2414   1.641   2.970   2.294
  799SOL    HW1 2415   1.727   2.972   2.242
  799SOL    HW2 2416   1.655   3.017   2.382
  800SOL     OW 2417   0.113   2.599   3.459
  800SOL    HW1 2418   0.201   2.586   3.504
  800SOL    HW2 2419   0.100   2.696   3.437
  801SOL     OW 2420   0.613   3.227   2.588
  801SOL    HW1 2421   0.564   3.140   2.597
  801SOL    HW2 2422   0.590   3.270   2.501
  802SOL     OW 2423   1.293   3.090   3.285
  802SOL    HW1 2424   1.330   3.017   3.227
  802SOL    HW2 2425   1.345   3.095   3.370
  803SOL     OW 2426   0.809   1.866   2.364
  803SOL    HW1 2427   0.849   1.957   2.355
  803SOL    HW2 2428   0.709   1.874   2.370
  804SOL     OW 2429   0.197   2.838   3.126
  804SOL    HW1 2430   0.286   2.793   3.112
  804SOL    HW2 2431   0.124   2.773   3.107
  805SOL     OW 2432   1.525   2.861   2.052
  805SOL    HW1 2433   1.462   2.785   2.065
  805SOL    HW2 2434   1.573   2.879   2.138
  806SOL     OW 2435   1.187   3.654   3.478
  806SOL    HW1 2436   1.211   3.714   3.402
  806SOL    HW2 2437   1.194   3.559   3.448
  807SOL     OW 2438   0.317   2.113   3.663
  807SOL    HW1 2439   0.388   2.184   3.669
  807SOL    HW2 2440   0.229   2.152   3.691
  808SOL     OW 2441   1.466   3.279   2.815
  808SOL    HW1 2442   1.407   3.285   2.895
  808SOL    HW2 2443   1.451   3.191   2.769
  809SOL     OW 2444   1.667   3.576   2.434
  809SOL    HW1 2445   1.626   3.553   2.346
  809SOL    HW2 2446   1.649   3.502   2.499
  810SOL     OW 2447   0.598   2.591   2.132
  810SOL    HW1 2448   0.622   2.660   2.064
  810SOL    HW2 2449   0.520   2.624   2.186
  811SOL     OW 2450   1.281   2.207   2.806
  811SOL    HW1 2451   1.195   2.157   2.793
  811SOL    HW2 2452   1.343   2.153   2.862
  812SOL     OW 2453   1.576   3.524   2.169
  812SOL    HW1 2454   1.665   3.570   2.172
  812SOL    HW2 2455   1.555   3.500   2.074
  813SOL     OW 2456   0.807   2.467   3.327
  813SOL    HW1 2457   0.760   2.464   3.416
  813SOL    HW2 2458   0.756   2.412   3.261
  814SOL     OW 2459   1.394   2.331   3.536
  814SOL    HW1 2460   1.374   2.374   3.624
  814SOL    HW2 2461   1.472   2.269   3.545
  815SOL     OW 2462   0.973   2.752   3.434
  815SOL    HW1 2463   1.019   2.668   3.405
  815SOL    HW2 2464   0.917   2.786   3.359
  816SOL     OW 2465   0.991   2.272   3.104
  816SOL    HW1 2466   0.914   2.306   3.158
  816SOL    HW2 2467   0.957   2.221   3.025
  817SOL     OW 2468   1.041   2.563   2.291
  817SOL    HW1 2469   1.067   2.559   2.387
  817SOL    HW2 2470   0.956   2.512   2.277
  818SOL     OW 2471   0.076   2.673   2.651
  818SOL    HW1 2472   0.175   2.661   2.660
  818SOL    HW2 2473   0.052   2.768   2.672
  819SOL     OW 2474   0.130   3.683   3.433
  819SOL    HW1 2475   0.120   3.668   3.532
  819SOL    HW2 2476   0.044   3.719   3.397
  820SOL     OW 2477   0.865   2.210   2.057
  820SOL    HW1 2478   0.924   2.273   2.008
  820SOL    HW2 2479   0.884   2.116   2.028
  821SOL     OW 2480   1.719   2.447   3.693
  821SOL    HW1 2481   1.693   2.536   3.657
  821SOL    HW2 2482   1.717   2.379   3.620
  822SOL     OW 2483   1.362   3.006   2.407
  822SOL    HW1 2484   1.445   2.977   2.359
  822SOL    HW2 2485   1.313   3.073   2.351
  823SOL     OW 2486   0.550   2.058   2.747
  823SOL    HW1 2487   0.545   2.053   2.847
  823SOL    HW2 2488   0.552   2.154   2.718
  824SOL     OW 2489   1.008   3.318   2.339
  824SOL    HW1 2490   0.962   3.390   2.287
  824SOL    HW2 2491   1.004   3.338   2.437
  825SOL     OW 2492   0.351   3.663   2.715
  825SOL    HW1 2493   0.401   3.577   2.721
  825SOL    HW2 2494   0.416   3.740   2.712
  826SOL     OW 2495   1.795   2.928   2.735
  826SOL    HW1 2496   1.733   2.913   2.659
  826SOL    HW2 2497   1.743   2.939   2.820
  827SOL     OW 2498   1.227   3.412   3.368
  827SOL    HW1 2499   1.233   3.335   3.432
  827SOL    HW2 2500   1.175   3.386   3.288
  828SOL     OW 2501   0.321   2.805   2.104
  828SOL    HW1 2502   0.403   2.844   2.062
  828SOL    HW2 2503   0.294   2.723   2.055
  829SOL     OW 2504   1.458   2.597   2.590
  829SOL    HW1 2505   1.453   2.532   2.665
  829SOL    HW2 2506   1.538   2.656   2.603
  830SOL     OW 2507   0.461   3.128   3.589
  830SOL    HW1 2508   0.411   3.129   3.503
  830SOL    HW2 2509   0.398   3.110   3.665
  831SOL     OW 2510   1.111   3.638   2.099
  831SOL    HW1 2511   1.051   3.576   2.149
  831SOL    HW2 2512   1.142   3.594   2.014
  832SOL     OW 2513   0.202   2.147   3.360
  832SOL    HW1 2514   0.122   2.207   3.347
  832SOL    HW2 2515   0.192   2.098   3.446
  833SOL     OW 2516   1.632   3.239   1.943
  833SOL    HW1 2517   1.600   3.333   1.933
  833SOL    HW2 2518   1.556   3.176   1.931
  834SOL     OW 2519   0.464   3.605   2.185
  834SOL    HW1 2520   0.497   3.644   2.271
  834SOL    HW2 2521   0.540   3.598   2.120
  835SOL     OW 2522   1.400   1.969   2.288
  835SOL    HW1 2523   1.376   1.932   2.198
  835SOL    HW2 2524   1.499   1.985   2.292
  836SOL     OW 2525   0.249   3.647   3.103
  836SOL    HW1 2526   0.306   3.582   3.153
  836SOL    HW2 2527   0.233   3.614   3.010
  837SOL     OW 2528   0.940   3.560   2.766
  837SOL    HW1 2529   1.020   3.503   2.787
  837SOL    HW2 2530   0.891   3.520   2.689
  838SOL     OW 2531   0.382   2.562   2.342
  838SOL    HW1 2532   0.427   2.472   2.339
  838SOL    HW2 2533   0.288   2.551   2.375
  839SOL     OW 2534   1.547   2.084   3.591
  839SOL    HW1 2535   1.542   2.121   3.683
  839SOL    HW2 2536   1.475   2.015   3.579
  840SOL     OW 2537   0.614   1.984   1.979
  840SOL    HW1 2538   0.712   1.962   1.986
  840SOL    HW2 2539   0.583   1.967   1.886
  841SOL     OW 2540   0.781   2.126   3.611
  841SOL    HW1 2541   0.848   2.065   3.654
  841SOL    HW2 2542   0.708   2.145   3.676
  842SOL     OW 2543   0.888   3.376   3.057
  842SOL    HW1 2544   0.865   3.351   2.963
  842SOL    HW2 2545   0.949   3.307   3.096
  843SOL     OW 2546   1.351   2.452   3.295
  843SOL    HW1 2547   1.379   2.409   3.380
  843SOL    HW2 2548   1.376   2.548   3.296
  844SOL     OW 2549   0.803   3.264   2.786
  844SOL    HW1 2550   0.893   3.278   2.744
  844SOL    HW2 2551   0.732   3.266   2.715
  845SOL     OW 2552   0.922   2.365   2.761
  845SOL    HW1 2553   0.897   2.356   2.665
  845SOL    HW2 2554   0.970   2.283   2.792
  846SOL     OW 2555   0.539   1.926   2.374
  846SOL    HW1 2556   0.458   1.927   2.432
  846SOL    HW2 2557   0.542   2.009   2.319
  847SOL     OW 2558   1.434   3.050   1.903
  847SOL    HW1 2559   1.466   2.974   1.960
  847SOL    HW2 2560   1.342   3.077   1.933
  848SOL     OW 2561   0.297   1.897   2.033
  848SOL    HW1 2562   0.346   1.981   2.012
  848SOL    HW2 2563   0.359   1.832   2.078
  849SOL     OW 2564   0.935   2.098   2.342
  849SOL    HW1 2565   0.887   2.139   2.264
  849SOL    HW2 2566   1.034   2.096   2.323
  850SOL     OW 2567   1.076   2.545   3.326
  850SOL    HW1 2568   0.996   2.484   3.329
  850SOL    HW2 2569   1.157   2.492   3.302
  851SOL     OW 2570   1.227   3.432   2.655
  851SOL    HW1 2571   1.248   3.506   2.590
  851SOL    HW2 2572   1.295   3.432   2.728
  852SOL     OW 2573   0.459   3.014   2.603
  852SOL    HW1 2574   0.388   2.987   2.668
  852SOL    HW2 2575   0.433   2.986   2.510
  853SOL     OW 2576   1.271   3.659   2.453
  853SOL    HW1 2577   1.315   3.723   2.389
  853SOL    HW2 2578   1.221   3.711   2.523
  854SOL     OW 2579   1.032   2.411   1.878
  854SOL    HW1 2580   0.991   2.493   1.839
  854SOL    HW2 2581   1.096   2.437   1.951
  855SOL     OW 2582   0.078   2.418   3.248
  855SOL    HW1 2583   0.170   2.417   3.207
  855SOL    HW2 2584   0.072   2.492   3.315
  856SOL     OW 2585   0.561   2.084   3.009
  856SOL    HW1 2586   0.599   2.000   3.046
  856SOL    HW2 2587   0.473   2.103   3.053
  857SOL     OW 2588   0.866   2.316   2.504
  857SOL    HW1 2589   0.834   2.388   2.442
  857SOL    HW2 2590   0.890   2.235   2.451
  858SOL     OW 2591   1.017   1.901   2.615
  858SOL    HW1 2592   0.945   1.906   2.546
  858SOL    HW2 2593   0.993   1.832   2.684
  859SOL     OW 2594   1.429   3.035   2.729
  859SOL    HW1 2595   1.374   2.951   2.722
  859SOL    HW2 2596   1.455   3.064   2.637
  860SOL     OW 2597   1.466   2.452   2.854
  860SOL    HW1 2598   1.436   2.357   2.861
  860SOL    HW2 2599   1.539   2.468   2.920
  861SOL     OW 2600   1.857   2.695   2.239
  861SOL    HW1 2601   1.899   2.631   2.303
  861SOL    HW2 2602   1.819   2.644   2.161
  862SOL     OW 2603   0.488   3.247   2.036
  862SOL    HW1 2604   0.401   3.232   2.083
  862SOL    HW2 2605   0.471   3.273   1.941
  863SOL     OW 2606   1.664   3.142   2.519
  863SOL    HW1 2607   1.763   3.150   2.533
  863SOL    HW2 2608   1.619   3.226   2.550
  864SOL     OW 2609   1.390   2.437   1.940
  864SOL    HW1 2610   1.336   2.416   2.021
  864SOL    HW2 2611   1.481   2.396   1.949
  865SOL     OW 2612   0.527   2.118   2.190
  865SOL    HW1 2613   0.554   2.059   2.115
  865SOL    HW2 2614   0.527   2.213   2.159
  866SOL     OW 2615   1.754   3.085   3.450
  866SOL    HW1 2616   1.845   3.046   3.437
  866SOL    HW2 2617   1.762   3.181   3.474
  867SOL     OW 2618   1.064   3.209   3.202
  867SOL    HW1 2619   0.984   3.186   3.257
  867SOL    HW2 2620   1.147   3.183   3.251
  868SOL     OW 2621   1.592   3.491   3.487
  868SOL    HW1 2622   1.619   3.525   3.397
  868SOL    HW2 2623   1.671   3.453   3.533
  869SOL     OW 2624   1.111   3.057   2.962
  869SOL    HW1 2625   1.071   3.101   3.043
  869SOL    HW2 2626   1.070   3.094   2.879
  870SOL     OW 2627   1.638   2.961   2.941
  870SOL    HW1 2628   1.643   3.042   3.000
  870SOL    HW2 2629   1.552   2.963   2.890
  871SOL     OW 2630   0.915   1.951   3.264
  871SOL    HW1 2631   0.940   1.931   3.169
  871SOL    HW2 2632   0.987   2.007   3.306
  872SOL     OW 2633   0.980   2.978   3.581
  872SOL    HW1 2634   0.881   2.984   3.591
  872SOL    HW2 2635   1.003   2.898   3.525
  873SOL     OW 2636   0.705   2.912   2.230
  873SOL    HW1 2637   0.691   2.919   2.329
  873SOL    HW2 2638   0.789   2.861   2.212
  874SOL     OW 2639   0.410   2.675   3.113
  874SOL    HW1 2640   0.496   2.687   3.163
  874SOL    HW2 2641   0.368   2.588   3.140
  875SOL     OW 2642   1.274   2.248   3.124
  875SOL    HW1 2643   1.295   2.322   3.188
  875SOL    HW2 2644   1.185   2.265   3.081
  876SOL     OW 2645   0.064   3.426   3.193
  876SOL    HW1 2646   0.018   3.508   3.159
  876SOL    HW2 2647   0.162   3.445   3.202
  877SOL     OW 2648   0.367   2.962   2.363
  877SOL    HW1 2649   0.360   3.045   2.307
  877SOL    HW2 2650   0.371   2.882   2.303
  878SOL     OW 2651   0.566   2.399   2.727
  878SOL    HW1 2652   0.578   2.465   2.653
  878SOL    HW2 2653   0.612   2.433   2.810
  879SOL     OW 2654   1.252   3.210   2.250
  879SOL    HW1 2655   1.302   3.287   2.290
  879SOL    HW2 2656   1.157   3.212   2.282
  880SOL     OW 2657   1.272   3.307   3.004
  880SOL    HW1 2658   1.319   3.320   3.091
  880SOL    HW2 2659   1.206   3.233   3.013
  881SOL     OW 2660   1.582   2.501   2.334
  881SOL    HW1 2661   1.551   2.562   2.407
  881SOL    HW2 2662   1.632   2.553   2.265
  882SOL     OW 2663   0.354   3.372   3.191
  882SOL    HW1 2664   0.333   3.328   3.104
  882SOL    HW2 2665   0.451   3.398   3.194
  883SOL     OW 2666   0.402   2.613   3.460
  883SOL    HW1 2667   0.470   2.668   3.413
  883SOL    HW2 2668   0.442   2.525   3.487
  884SOL     OW 2669   1.587   2.641   3.532
  884SOL    HW1 2670   1.495   2.679   3.527
  884SOL    HW2 2671   1.647   2.688   3.467
  885SOL     OW 2672   1.013   1.967   3.632
  885SOL    HW1 2673   1.019   2.052   3.580
  885SOL    HW2 2674   1.045   1.891   3.575
  886SOL     OW 2675   0.504   1.912   3.602
  886SOL    HW1 2676   0.462   1.855   3.532
  886SOL    HW2 2677   0.438   1.981   3.634
  887SOL     OW 2678   0.573   2.732   2.891
  887SOL    HW1 2679   0.617   2.821   2.882
  887SOL    HW2 2680   0.510   2.732   2.968
  888SOL     OW 2681   1.360   2.724   2.907
  888SOL    HW1 2682   1.285   2.724   2.841
  888SOL    HW2 2683   1.397   2.632   2.916
  889SOL     OW 2684   1.209   2.387   2.137
  889SOL    HW1 2685   1.222   2.303   2.191
  889SOL    HW2 2686   1.180   2.461   2.197
  890SOL     OW 2687   0.307   2.075   3.093
  890SOL    HW1 2688   0.284   2.112   3.183
  890SOL    HW2 2689   0.277   1.980   3.087
  891SOL     OW 2690   0.037   3.172   3.144
  891SOL    HW1 2691   0.090   3.123   3.212
  891SOL    HW2 2692   0.059   3.270   3.149
  892SOL     OW 2693   0.732   2.496   2.926
  892SOL    HW1 2694   0.791   2.470   2.850
  892SOL    HW2 2695   0.704   2.592   2.915
  893SOL     OW 2696   1.728   2.797   3.716
  893SOL    HW1 2697   1.682   2.790   3.627
  893SOL    HW2 2698   1.666   2.841   3.782
  894SOL     OW 2699   0.307   1.925   2.480
  894SOL    HW1 2700   0.296   2.019   2.513
  894SOL    HW2 2701   0.302   1.862   2.557
  895SOL     OW 2702   1.622   2.229   2.236
  895SOL    HW1 2703   1.624   2.153   2.300
  895SOL    HW2 2704   1.574   2.306   2.276
  896SOL     OW 2705   1.023   2.628   2.828
  896SOL    HW1 2706   1.038   2.649   2.924
  896SOL    HW2 2707   0.993   2.533   2.819
  897SOL     OW 2708   0.980   3.435   3.562
  897SOL    HW1 2709   0.960   3.479   3.474
  897SOL    HW2 2710   1.019   3.344   3.546
  898SOL     OW 2711   1.859   3.380   3.467
  898SOL    HW1 2712   1.873   3.407   3.372
  898SOL    HW2 2713   1.942   3.402   3.520
  899SOL     OW 2714   0.350   2.760   3.666
  899SOL    HW1 2715   0.426   2.804   3.714
  899SOL    HW2 2716   0.385   2.713   3.584
  900SOL     OW 2717   1.540   2.136   1.987
  900SOL    HW1 2718   1.479   2.061   2.010
  900SOL    HW2 2719   1.562   2.188   2.070
  901SOL     OW 2720   1.303   2.700   1.904
  901SOL    HW1 2721   1.337   2.607   1.919
  901SOL    HW2 2722   1.321   2.727   1.809
  902SOL     OW 2723   1.068   3.195   2.711
  902SOL    HW1 2724   1.075   3.111   2.656
  902SOL    HW2 2725   1.130   3.264   2.675
  903SOL     OW 2726   0.319   2.672   2.811
  903SOL    HW1 2727   0.412   2.708   2.816
  903SOL    HW2 2728   0.313   2.587   2.863
  904SOL     OW 2729   0.339   2.371   2.868
  904SOL    HW1 2730   0.287   2.288   2.851
  904SOL    HW2 2731   0.416   2.376   2.804
  905SOL     OW 2732   1.138   2.242   3.540
  905SOL    HW1 2733   1.093   2.305   3.604
  905SOL    HW2 2734   1.231   2.273   3.523
  906SOL     OW 2735   1.160   2.069   3.339
  906SOL    HW1 2736   1.160   2.133   3.416
  906SOL    HW2 2737   1.188   2.117   3.256
  907SOL     OW 2738   0.008   3.188   2.062
  907SOL    HW1 2739  -0.085   3.209   2.031
  907SOL    HW2 2740   0.018   3.089   2.075
  908SOL     OW 2741   0.088   3.663   2.789
  908SOL    HW1 2742   0.046   3.577   2.762
  908SOL    HW2 2743   0.182   3.666   2.755
  909SOL     OW 2744   0.504   3.430   2.772
  909SOL    HW1 2745   0.570   3.504   2.781
  909SOL    HW2 2746   0.548   3.351   2.730
  910SOL     OW 2747   1.002   2.658   3.100
  910SOL    HW1 2748   1.043   2.626   3.186
  910SOL    HW2 2749   0.906   2.631   3.097
  911SOL     OW 2750   0.040   2.406   2.976
  911SOL    HW1 2751   0.125   2.373   2.935
  911SOL    HW2 2752   0.053   2.421   3.074
  912SOL     OW 2753   0.189   2.382   3.584
  912SOL    HW1 2754   0.248   2.342   3.514
  912SOL    HW2 2755   0.131   2.453   3.543
  913SOL     OW 2756   1.369   2.812   3.522
  913SOL    HW1 2757   1.408   2.901   3.542
  913SOL    HW2 2758   1.379   2.792   3.425
  914SOL     OW 2759   0.815   2.434   2.187
  914SOL    HW1 2760   0.822   2.345   2.141
  914SOL    HW2 2761   0.721   2.468   2.179
  915SOL     OW 2762   1.657   2.466   3.068
  915SOL    HW1 2763   1.619   2.397   3.130
  915SOL    HW2 2764   1.739   2.430   3.024
  916SOL     OW 2765   0.252   3.426   3.606
  916SOL    HW1 2766   0.222   3.483   3.682
  916SOL    HW2 2767   0.245   3.329   3.632
  917SOL     OW 2768   0.671   2.326   3.131
  917SOL    HW1 2769   0.637   2.237   3.101
  917SOL    HW2 2770   0.697   2.380   3.051
  918SOL     OW 2771   0.930   3.540   3.327
  918SOL    HW1 2772   0.906   3.522   3.232
  918SOL    HW2 2773   0.960   3.634   3.337
  919SOL     OW 2774   0.473   2.362   2.053
  919SOL    HW1 2775   0.534   2.442   2.057
  919SOL    HW2 2776   0.378   2.393   2.060
  920SOL     OW 2777   0.159   2.999   3.328
  920SOL    HW1 2778   0.181   2.938   3.404
  920SOL    HW2 2779   0.169   2.950   3.242
  921SOL     OW 2780   1.347   2.921   3.096
  921SOL    HW1 2781   1.371   2.858   3.022
  921SOL    HW2 2782   1.257   2.961   3.078
  922SOL     OW 2783   1.302   2.717   2.171
  922SOL    HW1 2784   1.216   2.686   2.213
  922SOL    HW2 2785   1.298   2.703   2.072
  923SOL     OW 2786   1.759   3.609   3.016
  923SOL    HW1 2787   1.820   3.639   2.943
  923SOL    HW2 2788   1.721   3.520   2.994
  924SOL     OW 2789   1.252   3.593   2.990
  924SOL    HW1 2790   1.336   3.598   2.936
  924SOL    HW2 2791   1.229   3.497   3.008
  925SOL     OW 2792   0.083   3.120   2.884
  925SOL    HW1 2793   0.078   3.119   2.984
  925SOL    HW2 2794   0.000   3.079   2.846
  926SOL     OW 2795   0.688   3.524   3.578
  926SOL    HW1 2796   0.632   3.605   3.587
  926SOL    HW2 2797   0.740   3.528   3.492
  927SOL     OW 2798   1.726   1.997   2.385
  927SOL    HW1 2799   1.799   1.980   2.318
  927SOL    HW2 2800   1.695   1.910   2.423
  928SOL     OW 2801   1.388   3.435   2.339
  928SOL    HW1 2802   1.455   3.447   2.265
  928SOL    HW2 2803   1.348   3.524   2.362
  929SOL     OW 2804   0.130   3.656   3.713
  929SOL    HW1 2805   0.089   3.582   3.766
  929SOL    HW2 2806   0.194   3.707   3.771
  930SOL     OW 2807   1.280   2.789   2.534
  930SOL    HW1 2808   1.340   2.708   2.536
  930SOL    HW2 2809   1.320   2.858   2.474
  931SOL     OW 2810   0.830   3.135   3.284
  931SOL    HW1 2811   0.825   3.168   3.379
  931SOL    HW2 2812   0.744   3.154   3.238
  932SOL     OW 2813   0.672   3.478   2.016
  932SOL    HW1 2814   0.681   3.488   1.917
  932SOL    HW2 2815   0.632   3.389   2.037
  933SOL     OW 2816   1.650   3.582   3.256
  933SOL    HW1 2817   1.703   3.592   3.172
  933SOL    HW2 2818   1.623   3.672   3.290
  934SOL     OW 2819   1.841   2.037   2.825
  934SOL    HW1 2820   1.880   1.952   2.789
  934SOL    HW2 2821   1.743   2.039   2.806
  935SOL     OW 2822   0.263   2.188   2.582
  935SOL    HW1 2823   0.184   2.239   2.548
  935SOL    HW2 2824   0.254   2.173   2.680
  936SOL     OW 2825   1.194   3.474   1.893
  936SOL    HW1 2826   1.200   3.381   1.930
  936SOL    HW2 2827   1.135   3.474   1.813
  937SOL     OW 2828   0.822   2.864   3.234
  937SOL    HW1 2829   0.862   2.863   3.142
  937SOL    HW2 2830   0.832   2.956   3.274
  938SOL     OW 2831   0.916   2.772   2.153
  938SOL    HW1 2832   0.979   2.810   2.085
  938SOL    HW2 2833   0.956   2.689   2.192
  939SOL     OW 2834   1.504   3.469   1.906
  939SOL    HW1 2835   1.412   3.506   1.913
  939SOL    HW2 2836   1.542   3.489   1.816
  940SOL     OW 2837   0.372   3.150   3.352
  940SOL    HW1 2838   0.359   3.243   3.318
  940SOL    HW2 2839   0.288   3.098   3.339
  941SOL     OW 2840   1.614   3.154   3.151
  941SOL    HW1 2841   1.674   3.157   3.231
  941SOL    HW2 2842   1.539   3.218   3.164
  942SOL     OW 2843   1.039   2.960   2.558
  942SOL    HW1 2844   0.969   2.913   2.612
  942SOL    HW2 2845   1.098   2.892   2.515
  943SOL     OW 2846   1.014   2.098   2.833
  943SOL    HW1 2847   1.006   2.062   2.740
  943SOL    HW2 2848   1.012   2.022   2.898
  944SOL     OW 2849   0.590   3.349   2.353
  944SOL    HW1 2850   0.632   3.291   2.283
  944SOL    HW2 2851   0.546   3.428   2.309
  945SOL     OW 2852   1.709   2.247   3.243
  945SOL    HW1 2853   1.782   2.316   3.247
  945SOL    HW2 2854   1.737   2.172   3.184
  946SOL     OW 2855   0.255   3.210   2.152
  946SOL    HW1 2856   0.159   3.211   2.125
  946SOL    HW2 2857   0.267   3.263   2.236
  947SOL     OW 2858   0.105   2.875   3.588
  947SOL    HW1 2859   0.028   2.842   3.642
  947SOL    HW2 2860   0.190   2.845   3.630
  948SOL     OW 2861   0.672   2.065   3.351
  948SOL    HW1 2862   0.762   2.049   3.311
  948SOL    HW2 2863   0.680   2.070   3.450
  949SOL     OW 2864   0.075   2.207   1.895
  949SOL    HW1 2865  -0.017   2.179   1.866
  949SOL    HW2 2866   0.106   2.284   1.839
  950SOL     OW 2867   1.440   2.718   3.260
  950SOL    HW1 2868   1.383   2.770   3.197
  950SOL    HW2 2869   1.536   2.730   3.236
  951SOL     OW 2870   0.072   2.028   2.180
  951SOL    HW1 2871   0.055   2.111   2.126
  951SOL    HW2 2872   0.162   1.991   2.158
  952SOL     OW 2873   1.183   3.197   1.981
  952SOL    HW1 2874   1.084   3.186   1.983
  952SOL    HW2 2875   1.217   3.212   2.074
  953SOL     OW 2876   0.613   2.704   3.293
  953SOL    HW1 2877   0.669   2.785   3.276
  953SOL    HW2 2878   0.672   2.624   3.296
  954SOL     OW 2879   1.493   3.629   2.821
  954SOL    HW1 2880   1.526   3.693   2.752
  954SOL    HW2 2881   1.559   3.623   2.896
  955SOL     OW 2882   0.716   2.427   3.570
  955SOL    HW1 2883   0.735   2.492   3.644
  955SOL    HW2 2884   0.776   2.347   3.579
  956SOL     OW 2885   1.450   3.082   3.495
  956SOL    HW1 2886   1.441   3.072   3.594
  956SOL    HW2 2887   1.546   3.075   3.469
  957SOL     OW 2888   0.390   3.603   3.422
  957SOL    HW1 2889   0.299   3.644   3.420
  957SOL    HW2 2890   0.383   3.509   3.454
  958SOL     OW 2891   1.674   2.745   3.116
  958SOL    HW1 2892   1.647   2.656   3.079
  958SOL    HW2 2893   1.675   2.813   3.043
  959SOL     OW 2894   1.225   2.187   2.311
  959SOL    HW1 2895   1.290   2.113   2.300
  959SOL    HW2 2896   1.245   2.237   2.395
  960SOL     OW 2897   0.594   2.607   2.514
  960SOL    HW1 2898   0.644   2.692   2.495
  960SOL    HW2 2899   0.506   2.609   2.466
  961SOL     OW 2900   1.777   2.204   3.504
  961SOL    HW1 2901   1.760   2.235   3.410
  961SOL    HW2 2902   1.693   2.167   3.542
  962SOL     OW 2903   1.730   2.796   3.379
  962SOL    HW1 2904   1.768   2.887   3.394
  962SOL    HW2 2905   1.722   2.779   3.280
  963SOL     OW 2906   0.859   3.236   1.878
  963SOL    HW1 2907   0.813   3.251   1.966
  963SOL    HW2 2908   0.903   3.321   1.848
  964SOL     OW 2909   0.661   3.652   2.815
  964SOL    HW1 2910   0.615   3.740   2.802
  964SOL    HW2 2911   0.760   3.664   2.808
  965SOL     OW 2912   0.859   2.818   2.723
  965SOL    HW1 2913   0.913   2.749   2.771
  965SOL    HW2 2914   0.827   2.887   2.789
  966SOL     OW 2915   1.083   2.846   1.949
  966SOL    HW1 2916   1.060   2.899   1.867
  966SOL    HW2 2917   1.164   2.790   1.930
  967SOL     OW 2918   1.861   3.431   2.713
  967SOL    HW1 2919   1.790   3.419   2.643
  967SOL    HW2 2920   1.862   3.352   2.773
  968SOL     OW 2921   0.221   3.176   3.706
  968SOL    HW1 2922   0.156   3.103   3.685
  968SOL    HW2 2923   0.225   3.190   3.804
  969SOL     OW 2924   0.079   3.102   2.515
  969SOL    HW1 2925   0.078   3.055   2.603
  969SOL    HW2 2926   0.161   3.074   2.464
  970SOL     OW 2927   0.672   3.253   3.486
  970SOL    HW1 2928   0.594   3.203   3.524
  970SOL    HW2 2929   0.669   3.348   3.517
  971SOL     OW 2930   1.824   2.054   3.089
  971SOL    HW1 2931   1.820   1.964   3.133
  971SOL    HW2 2932   1.827   2.043   2.990
  972SOL     OW 2933   0.428   2.286   2.382
  972SOL    HW1 2934   0.458   2.214   2.320
  972SOL    HW2 2935   0.389   2.246   2.465
  973SOL     OW 2936   1.705   3.349   2.966
  973SOL    HW1 2937   1.612   3.324   2.939
  973SOL    HW2 2938   1.731   3.299   3.048
  974SOL     OW 2939   0.317   2.409   3.142
  974SOL    HW1 2940   0.355   2.350   3.214
  974SOL    HW2 2941   0.357   2.383   3.054
  975SOL     OW 2942   0.812   3.448   2.549
  975SOL    HW1 2943   0.844   3.458   2.455
  975SOL    HW2 2944   0.733   3.386   2.551
  976SOL     OW 2945   1.424   2.076   2.974
  976SOL    HW1 2946   1.476   2.011   3.029
  976SOL    HW2 2947   1.375   2.139   3.035
  977SOL     OW 2948   1.001   1.896   3.016
  977SOL    HW1 2949   0.938   1.824   2.985
  977SOL    HW2 2950   1.094   1.860   3.016
  978SOL     OW 2951   0.770   3.192   2.163
  978SOL    HW1 2952   0.724   3.105   2.180
  978SOL    HW2 2953   0.861   3.189   2.204
  979SOL     OW 2954   0.618   3.429   3.146
  979SOL    HW1 2955   0.613   3.511   3.203
  979SOL    HW2 2956   0.707   3.426   3.101
  980SOL     OW 2957   1.352   1.914   2.030
  980SOL    HW1 2958   1.387   1.873   1.946
  980SOL    HW2 2959   1.262   1.876   2.050
  981SOL     OW 2960   1.300   2.315   2.553
  981SOL    HW1 2961   1.241   2.395   2.557
  981SOL    HW2 2962   1.315   2.280   2.646
  982SOL     OW 2963   1.593   2.083   2.744
  982SOL    HW1 2964   1.509   2.082   2.798
  982SOL    HW2 2965   1.595   2.166   2.688
  983SOL     OW 2966   0.039   2.939   2.162
  983SOL    HW1 2967   0.138   2.928   2.153
  983SOL    HW2 2968  -0.001   2.853   2.194
  984SOL     OW 2969   0.875   3.508   2.199
  984SOL    HW1 2970   0.798   3.473   2.145
  984SOL    HW2 2971   0.843   3.579   2.261
  985SOL     OW 2972   0.230   2.490   3.837
  985SOL    HW1 2973   0.137   2.488   3.874
  985SOL    HW2 2974   0.231   2.451   3.745
  986SOL     OW 2975   0.225   2.137   4.720
  986SOL    HW1 2976   0.260   2.120   4.812
  986SOL    HW2 2977   0.137   2.092   4.708
  987SOL     OW 2978   0.019   2.230   4.371
  987SOL    HW1 2979  -0.063   2.273   4.410
  987SOL    HW2 2980  -0.009   2.157   4.308
  988SOL     OW 2981   1.555   3.373   4.427
  988SOL    HW1 2982   1.498   3.357   4.508
  988SOL    HW2 2983   1.496   3.383   4.347
  989SOL     OW 2984   1.135   2.565   4.441
  989SOL    HW1 2985   1.192   2.643   4.416
  989SOL    HW2 2986   1.075   2.591   4.517
  990SOL     OW 2987   1.755   2.469   3.955
  990SOL    HW1 2988   1.743   2.456   3.856
  990SOL    HW2 2989   1.725   2.388   4.004
  991SOL     OW 2990   0.768   3.006   4.747
  991SOL    HW1 2991   0.690   3.023   4.807
  991SOL    HW2 2992   0.802   3.093   4.711
  992SOL     OW 2993   0.685   2.874   4.389
  992SOL    HW1 2994   0.754   2.858   4.459
  992SOL    HW2 2995   0.612   2.931   4.427
  993SOL     OW 2996   0.335   3.297   4.785
  993SOL    HW1 2997   0.257   3.266   4.732
  993SOL    HW2 2998   0.393   3.355   4.728
  994SOL     OW 2999   1.603   2.309   4.461
  994SOL    HW1 3000   1.529   2.355   4.411
  994SOL    HW2 3001   1.654   2.377   4.514
  995SOL     OW 3002   0.231   3.575   4.207
  995SOL    HW1 3003   0.265   3.652   4.261
  995SOL    HW2 3004   0.275   3.575   4.117
  996SOL     OW 3005   0.230   3.296   4.262
  996SOL    HW1 3006   0.204   3.392   4.262
  996SOL    HW2 3007   0.159   3.242   4.307
  997SOL     OW 3008   0.240   2.953   4.610
  997SOL    HW1 3009   0.254   2.869   4.662
  997SOL    HW2 3010   0.185   3.017   4.665
  998SOL     OW 3011   0.606   2.826   3.847
  998SOL    HW1 3012   0.613   2.910   3.793
  998SOL    HW2 3013   0.652   2.839   3.935
  999SOL     OW 3014   0.122   2.505   4.287
  999SOL    HW1 3015   0.077   2.417   4.304
  999SOL    HW2 3016   0.121   2.559   4.371
 1000SOL     OW 3017   1.842   3.629   4.083
 1000SOL    HW1 3018   1.896   3.600   4.163
 1000SOL    HW2 3019   1.872   3.719   4.054
 1001SOL     OW 3020   0.027   3.458   3.841
 1001SOL    HW1 3021   0.008   3.362   3.862
 1001SOL    HW2 3022  -0.006   3.516   3.916
 1002SOL     OW 3023   1.689   2.784   4.336
 1002SOL    HW1 3024   1.784   2.755   4.344
 1002SOL    HW2 3025   1.681   2.849   4.261
 1003SOL     OW 3026   1.641   2.970   4.156
 1003SOL    HW1 3027   1.727   2.972   4.104
 1003SOL    HW2 3028   1.655   3.017   4.244
 1004SOL     OW 3029   0.613   3.227   4.450
 1004SOL    HW1 3030   0.564   3.140   4.459
 1004SOL    HW2 3031   0.590   3.270   4.363
 1005SOL     OW 3032   0.809   1.866   4.226
 1005SOL    HW1 3033   0.849   1.957   4.217
 1005SOL    HW2 3034   0.709   1.874   4.232
 1006SOL     OW 3035   0.197   2.838   4.988
 1006SOL    HW1 3036   0.286   2.793   4.974
 1006SOL    HW2 3037   0.124   2.773   4.969
 1007SOL     OW 3038   1.525   2.861   3.914
 1007SOL    HW1 3039   1.462   2.785   3.927
 1007SOL    HW2 3040   1.573   2.879   4.000
 1008SOL     OW 3041   1.466   3.279   4.677
 1008SOL    HW1 3042   1.407   3.285   4.757
 1008SOL    HW2 3043   1.451   3.191   4.631
 1009SOL     OW 3044   1.667   3.576   4.296
 1009SOL    HW1 3045   1.626   3.553   4.208
 1009SOL    HW2 3046   1.649   3.502   4.361
 1010SOL     OW 3047   0.598   2.591   3.994
 1010SOL    HW1 3048   0.622   2.660   3.926
 1010SOL    HW2 3049   0.520   2.624   4.048
 1011SOL     OW 3050   1.281   2.207   4.668
 1011SOL    HW1 3051   1.195   2.157   4.655
 1011SOL    HW2 3052   1.343   2.153   4.724
 1012SOL     OW 3053   1.576   3.524   4.031
 1012SOL    HW1 3054   1.665   3.570   4.034
 1012SOL    HW2 3055   1.555   3.500   3.936
 1013SOL     OW 3056   1.041   2.563   4.153
 1013SOL    HW1 3057   1.067   2.559   4.249
 1013SOL    HW2 3058   0.956   2.512   4.139
 1014SOL     OW 3059   0.076   2.673   4.513
 1014SOL    HW1 3060   0.175   2.661   4.522
 1014SOL    HW2 3061   0.052   2.768   4.534
 1015SOL     OW 3062   0.865   2.210   3.919
 1015SOL    HW1 3063   0.924   2.273   3.870
 1015SOL    HW2 3064   0.884   2.116   3.890
 1016SOL     OW 3065   1.362   3.006   4.269
 1016SOL    HW1 3066   1.445   2.977   4.221
 1016SOL    HW2 3067   1.313   3.073   4.213
 1017SOL     OW 3068   0.550   2.058   4.609
 1017SOL    HW1 3069   0.545   2.053   4.709
 1017SOL    HW2 3070   0.552   2.154   4.580
 1018SOL     OW 3071   1.008   3.318   4.201
 1018SOL    HW1 3072   0.962   3.390   4.149
 1018SOL    HW2 3073   1.004   3.338   4.299
 1019SOL     OW 3074   0.351   3.663   4.577
 1019SOL    HW1 3075   0.401   3.577   4.583
 1019SOL    HW2 3076   0.416   3.740   4.574
 1020SOL     OW 3077   1.795   2.928   4.597
 1020SOL    HW1 3078   1.733   2.913   4.521
 1020SOL    HW2 3079   1.743   2.939   4.682
 1021SOL     OW 3080   0.321   2.805   3.966
 1021SOL    HW1 3081   0.403   2.844   3.924
 1021SOL    HW2 3082   0.294   2.723   3.917
 1022SOL     OW 3083   1.458   2.597   4.452
 1022SOL    HW1 3084   1.453   2.532   4.527
 1022SOL    HW2 3085   1.538   2.656   4.465
 1023SOL     OW 3086   1.111   3.638   3.961
 1023SOL    HW1 3087   1.051   3.576   4.011
 1023SOL    HW2 3088   1.142   3.594   3.876
 1024SOL     OW 3089   1.632   3.239   3.805
 1024SOL    HW1 3090   1.600   3.333   3.795
 1024SOL    HW2 3091   1.556   3.176   3.793
 1025SOL     OW 3092   0.464   3.605   4.047
 1025SOL    HW1 3093   0.497   3.644   4.133
 1025SOL    HW2 3094   0.540   3.598   3.982
 1026SOL     OW 3095   1.400   1.969   4.150
 1026SOL    HW1 3096   1.376   1.932   4.060
 1026SOL    HW2 3097   1.499   1.985   4.154
 1027SOL     OW 3098   0.249   3.647   4.965
 1027SOL    HW1 3099   0.306   3.582   5.015
 1027SOL    HW2 3100   0.233   3.614   4.872
 1028SOL     OW 3101   0.940   3.560   4.628
 1028SOL    HW1 3102   1.020   3.503   4.649
 1028SOL    HW2 3103   0.891   3.520   4.551
 1029SOL     OW 3104   0.382   2.562   4.204
 1029SOL    HW1 3105   0.427   2.472   4.201
 1029SOL    HW2 3106   0.288   2.551   4.237
 1030SOL     OW 3107   0.614   1.984   3.841
 1030SOL    HW1 3108   0.712   1.962   3.848
 1030SOL    HW2 3109   0.583   1.967   3.748
 1031SOL     OW 3110   0.803   3.264   4.648
 1031SOL    HW1 3111   0.893   3.278   4.606
 1031SOL    HW2 3112   0.732   3.266   4.577
 1032SOL     OW 3113   0.922   2.365   4.623
 1032SOL    HW1 3114   0.897   2.356   4.527
 1032SOL    HW2 3115   0.970   2.283   4.654
 1033SOL     OW 3116   0.539   1.926   4.236
 1033SOL    HW1 3117   0.458   1.927   4.294
 1033SOL    HW2 3118   0.542   2.009   4.181
 1034SOL     OW 3119   1.434   3.050   3.765
 1034SOL    HW1 3120   1.466   2.974   3.822
 1034SOL    HW2 3121   1.342   3.077   3.795
 1035SOL     OW 3122   0.297   1.897   3.895
 1035SOL    HW1 3123   0.346   1.981   3.874
 1035SOL    HW2 3124   0.359   1.832   3.940
 1036SOL     OW 3125   0.935   2.098   4.204
 1036SOL    HW1 3126   0.887   2.139   4.126
 1036SOL    HW2 3127   1.034   2.096   4.185
 1037SOL     OW 3128   1.227   3.432   4.517
 1037SOL    HW1 3129   1.248   3.506   4.452
 1037SOL    HW2 3130   1.295   3.432   4.590
 1038SOL     OW 3131   0.459   3.014   4.465
 1038SOL    HW1 3132   0.388   2.987   4.530
 1038SOL    HW2 3133   0.433   2.986   4.372
 1039SOL     OW 3134   1.271   3.659   4.315
 1039SOL    HW1 3135   1.315   3.723   4.251
 1039SOL    HW2 3136   1.221   3.711   4.385
 1040SOL     OW 3137   1.032   2.411   3.740
 1040SOL    HW1 3138   0.991   2.493   3.701
 1040SOL    HW2 3139   1.096   2.437   3.813
 1041SOL     OW 3140   0.866   2.316   4.366
 1041SOL    HW1 3141   0.834   2.388   4.304
 1041SOL    HW2 3142   0.890   2.235   4.313
 1042SOL     OW 3143   1.017   1.901   4.477
 1042SOL    HW1 3144   0.945   1.906   4.408
 1042SOL    HW2 3145   0.993   1.832   4.546
 1043SOL     OW 3146   1.429   3.035   4.591
 1043SOL    HW1 3147   1.374   2.951   4.584
 1043SOL    HW2 3148   1.455   3.064   4.499
 1044SOL     OW 3149   1.466   2.452   4.716
 1044SOL    HW1 3150   1.436   2.357   4.723
 1044SOL    HW2 3151   1.539   2.468   4.782
 1045SOL     OW 3152   1.857   2.695   4.101
 1045SOL    HW1 3153   1.899   2.631   4.165
 1045SOL    HW2 3154   1.819   2.644   4.023
 1046SOL     OW 3155   0.488   3.247   3.898
 1046SOL    HW1 3156   0.401   3.232   3.945
 1046SOL    HW2 3157   0.471   3.273   3.803
 1047SOL     OW 3158   1.664   3.142   4.381
 1047SOL    HW1 3159   1.763   3.150   4.395
 1047SOL    HW2 3160   1.619   3.226   4.412
 1048SOL     OW 3161   1.390   2.437   3.802
 1048SOL    HW1 3162   1.336   2.416   3.883
 1048SOL    HW2 3163   1.481   2.396   3.811
 1049SOL     OW 3164   0.527   2.118   4.052
 1049SOL    HW1 3165   0.554   2.059   3.977
 1049SOL    HW2 3166   0.527   2.213   4.021
 1050SOL     OW 3167   1.111   3.057   4.824
 1050SOL    HW1 3168   1.071   3.101   4.905
 1050SOL    HW2 3169   1.070   3.094   4.741
 1051SOL     OW 3170   1.638   2.961   4.803
 1051SOL    HW1 3171   1.643   3.042   4.862
 1051SOL    HW2 3172   1.552   2.963   4.752
 1052SOL     OW 3173   0.705   2.912   4.092
 1052SOL    HW1 3174   0.691   2.919   4.191
 1052SOL    HW2 3175   0.789   2.861   4.074
 1053SOL     OW 3176   0.410   2.675   4.975
 1053SOL    HW1 3177   0.496   2.687   5.025
 1053SOL    HW2 3178   0.368   2.588   5.002
 1054SOL     OW 3179   0.367   2.962   4.225
 1054SOL    HW1 3180   0.360   3.045   4.169
 1054SOL    HW2 3181   0.371   2.882   4.165
 1055SOL     OW 3182   0.566   2.399   4.589
 1055SOL    HW1 3183   0.578   2.465   4.515
 1055SOL    HW2 3184   0.612   2.433   4.672
 1056SOL     OW 3185   1.252   3.210   4.112
 1056SOL    HW1 3186   1.302   3.287   4.152
 1056SOL    HW2 3187   1.157   3.212   4.144
 1057SOL     OW 3188   1.272   3.307   4.866
 1057SOL    HW1 3189   1.319   3.320   4.953
 1057SOL    HW2 3190   1.206   3.233   4.875
 1058SOL     OW 3191   1.582   2.501   4.196
 1058SOL    HW1 3192   1.551   2.562   4.269
 1058SOL    HW2 3193   1.632   2.553   4.127
 1059SOL     OW 3194   0.354   3.372   5.053
 1059SOL    HW1 3195   0.333   3.328   4.966
 1059SOL    HW2 3196   0.451   3.398   5.056
 1060SOL     OW 3197   0.573   2.732   4.753
 1060SOL    HW1 3198   0.617   2.821   4.744
 1060SOL    HW2 3199   0.510   2.732   4.830
 1061SOL     OW 3200   1.209   2.387   3.999
 1061SOL    HW1 3201   1.222   2.303   4.053
 1061SOL    HW2 3202   1.180   2.461   4.059
 1062SOL     OW 3203   0.732   2.496   4.788
 1062SOL    HW1 3204   0.791   2.470   4.712
 1062SOL    HW2 3205   0.704   2.592   4.777
 1063SOL     OW 3206   0.307   1.925   4.342
 1063SOL    HW1 3207   0.296   2.019   4.375
 1063SOL    HW2 3208   0.302   1.862   4.419
 1064SOL     OW 3209   1.622   2.229   4.098
 1064SOL    HW1 3210   1.624   2.153   4.162
 1064SOL    HW2 3211   1.574   2.306   4.138
 1065SOL     OW 3212   1.023   2.628   4.690
 1065SOL    HW1 3213   1.038   2.649   4.786
 1065SOL    HW2 3214   0.993   2.533   4.681
 1066SOL     OW 3215   1.540   2.136   3.849
 1066SOL    HW1 3216   1.479   2.061   3.872
 1066SOL    HW2 3217   1.562   2.188   3.932
 1067SOL     OW 3218   1.303   2.700   3.766
 1067SOL    HW1 3219   1.337   2.607   3.781
 1067SOL    HW2 3220   1.321   2.727   3.671
 1068SOL     OW 3221   1.068   3.195   4.573
 1068SOL    HW1 3222   1.075   3.111   4.518
 1068SOL    HW2 3223   1.130   3.264   4.537
 1069SOL     OW 3224   0.319   2.672   4.673
 1069SOL    HW1 3225   0.412   2.708   4.678
 1069SOL    HW2 3226   0.313   2.587   4.725
 1070SOL     OW 3227   0.339   2.371   4.730
 1070SOL    HW1 3228   0.287   2.288   4.713
 1070SOL    HW2 3229   0.416   2.376   4.666
 1071SOL     OW 3230   0.008   3.188   3.924
 1071SOL    HW1 3231  -0.085   3.209   3.893
 1071SOL    HW2 3232   0.018   3.089   3.937
 1072SOL     OW 3233   0.088   3.663   4.651
 1072SOL    HW1 3234   0.046   3.577   4.624
 1072SOL    HW2 3235   0.182   3.666   4.617
 1073SOL     OW 3236   0.504   3.430   4.634
 1073SOL    HW1 3237   0.570   3.504   4.643
 1073SOL    HW2 3238   0.548   3.351   4.592
 1074SOL     OW 3239   1.002   2.658   4.962
 1074SOL    HW1 3240   1.043   2.626   5.048
 1074SOL    HW2 3241   0.906   2.631   4.959
 1075SOL     OW 3242   0.815   2.434   4.049
 1075SOL    HW1 3243   0.822   2.345   4.003
 1075SOL    HW2 3244   0.721   2.468   4.041
 1076SOL     OW 3245   0.671   2.326   4.993
 1076SOL    HW1 3246   0.637   2.237   4.963
 1076SOL    HW2 3247   0.697   2.380   4.913
 1077SOL     OW 3248   0.473   2.362   3.915
 1077SOL    HW1 3249   0.534   2.442   3.919
 1077SOL    HW2 3250   0.378   2.393   3.922
 1078SOL     OW 3251   1.302   2.717   4.033
 1078SOL    HW1 3252   1.216   2.686   4.075
 1078SOL    HW2 3253   1.298   2.703   3.934
 1079SOL     OW 3254   1.759   3.609   4.878
 1079SOL    HW1 3255   1.820   3.639   4.805
 1079SOL    HW2 3256   1.721   3.520   4.856
 1080SOL     OW 3257   0.083   3.120   4.746
 1080SOL    HW1 3258   0.078   3.119   4.846
 1080SOL    HW2 3259   0.000   3.079   4.708
 1081SOL     OW 3260   1.726   1.997   4.247
 1081SOL    HW1 3261   1.799   1.980   4.180
 1081SOL    HW2 3262   1.695   1.910   4.285
 1082SOL     OW 3263   1.388   3.435   4.201
 1082SOL    HW1 3264   1.455   3.447   4.127
 1082SOL    HW2 3265   1.348   3.524   4.224
 1083SOL     OW 3266   1.280   2.789   4.396
 1083SOL    HW1 3267   1.340   2.708   4.398
 1083SOL    HW2 3268   1.320   2.858   4.336
 1084SOL     OW 3269   0.672   3.478   3.878
 1084SOL    HW1 3270   0.681   3.488   3.779
 1084SOL    HW2 3271   0.632   3.389   3.899
 1085SOL     OW 3272   1.841   2.037   4.687
 1085SOL    HW1 3273   1.880   1.952   4.651
 1085SOL    HW2 3274   1.743   2.039   4.668
 1086SOL     OW 3275   0.263   2.188   4.444
 1086SOL    HW1 3276   0.184   2.239   4.410
 1086SOL    HW2 3277   0.254   2.173   4.542
 1087SOL     OW 3278   1.194   3.474   3.755
 1087SOL    HW1 3279   1.200   3.381   3.792
 1087SOL    HW2 3280   1.135   3.474   3.675
 1088SOL     OW 3281   0.822   2.864   5.096
 1088SOL    HW1 3282   0.862   2.863   5.004
 1088SOL    HW2 3283   0.832   2.956   5.136
 1089SOL     OW 3284   0.916   2.772   4.015
 1089SOL    HW1 3285   0.979   2.810   3.947
 1089SOL    HW2 3286   0.956   2.689   4.054
 1090SOL     OW 3287   1.504   3.469   3.768
 1090SOL    HW1 3288   1.412   3.506   3.775
 1090SOL    HW2 3289   1.542   3.489   3.678
 1091SOL     OW 3290   1.039   2.960   4.420
 1091SOL    HW1 3291   0.969   2.913   4.474
 1091SOL    HW2 3292   1.098   2.892   4.377
 1092SOL     OW 3293   1.014   2.098   4.695
 1092SOL    HW1 3294   1.006   2.062   4.602
 1092SOL    HW2 3295   1.012   2.022   4.760
 1093SOL     OW 3296   0.590   3.349   4.215
 1093SOL    HW1 3297   0.632   3.291   4.145
 1093SOL    HW2 3298   0.546   3.428   4.171
 1094SOL     OW 3299   0.255   3.210   4.014
 1094SOL    HW1 3300   0.159   3.211   3.987
 1094SOL    HW2 3301   0.267   3.263   4.098
 1095SOL     OW 3302   0.075   2.207   3.757
 1095SOL    HW1 3303  -0.017   2.179   3.728
 1095SOL    HW2 3304   0.106   2.284   3.701
 1096SOL     OW 3305   0.072   2.028   4.042
 1096SOL    HW1 3306   0.055   2.111   3.988
 1096SOL    HW2 3307   0.162   1.991   4.020
 1097SOL     OW 3308   1.183   3.197   3.843
 1097SOL    HW1 3309   1.084   3.186   3.845
 1097SOL    HW2 3310   1.217   3.212   3.936
 1098SOL     OW 3311   1.493   3.629   4.683
 1098SOL    HW1 3312   1.526   3.693   4.614
 1098SOL    HW2 3313   1.559   3.623   4.758
 1099SOL     OW 3314   1.674   2.745   4.978
 1099SOL    HW1 3315   1.647   2.656   4.941
 1099SOL    HW2 3316   1.675   2.813   4.905
 1100SOL     OW 3317   1.225   2.187   4.173
 1100SOL    HW1 3318   1.290   2.113   4.162
 1100SOL    HW2 3319   1.245   2.237   4.257
 1101SOL     OW 3320   0.594   2.607   4.376
 1101SOL    HW1 3321   0.644   2.692   4.357
 1101SOL    HW2 3322   0.506   2.609   4.328
 1102SOL     OW 3323   0.859   3.236   3.740
 1102SOL    HW1 3324   0.813   3.251   3.828
 1102SOL    HW2 3325   0.903   3.321   3.710
 1103SOL     OW 3326   0.661   3.652   4.677
 1103SOL    HW1 3327   0.615   3.740   4.664
 1103SOL    HW2 3328   0.760   3.664   4.670
 1104SOL     OW 3329   0.859   2.818   4.585
 1104SOL    HW1 3330   0.913   2.749   4.633
 1104SOL    HW2 3331   0.827   2.887   4.651
 1105SOL     OW 3332   1.083   2.846   3.811
 1105SOL    HW1 3333   1.060   2.899   3.729
 1105SOL    HW2 3334   1.164   2.790   3.792
 1106SOL     OW 3335   1.861   3.431   4.575
 1106SOL    HW1 3336   1.790   3.419   4.505
 1106SOL    HW2 3337   1.862   3.352   4.635
 1107SOL     OW 3338   0.079   3.102   4.377
 1107SOL    HW1 3339   0.078   3.055   4.465
 1107SOL    HW2 3340   0.161   3.074   4.326
 1108SOL     OW 3341   1.824   2.054   4.951
 1108SOL    HW1 3342   1.820   1.964   4.995
 1108SOL    HW2 3343   1.827   2.043   4.852
 1109SOL     OW 3344   0.428   2.286   4.244
 1109SOL    HW1 3345   0.458   2.214   4.182
 1109SOL    HW2 3346   0.389   2.246   4.327
 1110SOL     OW 3347   0.812   3.448   4.411
 1110SOL    HW1 3348   0.844   3.458   4.317
 1110SOL    HW2 3349   0.733   3.386   4.413
 1111SOL     OW 3350   1.424   2.076   4.836
 1111SOL    HW1 3351   1.476   2.011   4.891
 1111SOL    HW2 3352   1.375   2.139   4.897
 1112SOL     OW 3353   0.770   3.192   4.025
 1112SOL    HW1 3354   0.724   3.105   4.042
 1112SOL    HW2 3355   0.861   3.189   4.066
 1113SOL     OW 3356   1.352   1.914   3.892
 1113SOL    HW1 3357   1.387   1.873   3.808
 1113SOL    HW2 3358   1.262   1.876   3.912
 1114SOL     OW 3359   1.300   2.315   4.415
 1114SOL    HW1 3360   1.241   2.395   4.419
 1114SOL    HW2 3361   1.315   2.280   4.508
 1115SOL     OW 3362   1.593   2.083   4.606
 1115SOL    HW1 3363   1.509   2.082   4.660
 1115SOL    HW2 3364   1.595   2.166   4.550
 1116SOL     OW 3365   0.039   2.939   4.024
 1116SOL    HW1 3366   0.138   2.928   4.015
 1116SOL    HW2 3367  -0.001   2.853   4.056
 1117SOL     OW 3368   0.875   3.508   4.061
 1117SOL    HW1 3369   0.798   3.473   4.007
 1117SOL    HW2 3370   0.843   3.579   4.123
 1118SOL     OW 3371   0.230   4.352   0.113
 1118SOL    HW1 3372   0.137   4.350   0.150
 1118SOL    HW2 3373   0.231   4.313   0.021
 1119SOL     OW 3374   0.225   3.999   0.996
 1119SOL    HW1 3375   0.260   3.982   1.088
 1119SOL    HW2 3376   0.137   3.954   0.984
 1120SOL     OW 3377   0.019   4.092   0.647
 1120SOL    HW1 3378  -0.063   4.135   0.686
 1120SOL    HW2 3379  -0.009   4.019   0.584
 1121SOL     OW 3380   1.135   4.427   0.717
 1121SOL    HW1 3381   1.192   4.505   0.692
 1121SOL    HW2 3382   1.075   4.453   0.793
 1122SOL     OW 3383   1.755   4.331   0.231
 1122SOL    HW1 3384   1.743   4.318   0.132
 1122SOL    HW2 3385   1.725   4.250   0.280
 1123SOL     OW 3386   0.768   4.868   1.023
 1123SOL    HW1 3387   0.690   4.885   1.083
 1123SOL    HW2 3388   0.802   4.955   0.987
 1124SOL     OW 3389   0.850   4.522   1.823
 1124SOL    HW1 3390   0.846   4.598   1.888
 1124SOL    HW2 3391   0.872   4.558   1.732
 1125SOL     OW 3392   0.685   4.736   0.665
 1125SOL    HW1 3393   0.754   4.720   0.735
 1125SOL    HW2 3394   0.612   4.793   0.703
 1126SOL     OW 3395   1.460   5.229   1.339
 1126SOL    HW1 3396   1.484   5.323   1.365
 1126SOL    HW2 3397   1.444   5.175   1.421
 1127SOL     OW 3398   0.438   4.116   1.499
 1127SOL    HW1 3399   0.520   4.060   1.508
 1127SOL    HW2 3400   0.357   4.058   1.503
 1128SOL     OW 3401   1.603   4.171   0.737
 1128SOL    HW1 3402   1.529   4.217   0.687
 1128SOL    HW2 3403   1.654   4.239   0.790
 1129SOL     OW 3404   0.240   4.815   0.886
 1129SOL    HW1 3405   0.254   4.731   0.938
 1129SOL    HW2 3406   0.185   4.879   0.941
 1130SOL     OW 3407   0.606   4.688   0.123
 1130SOL    HW1 3408   0.613   4.772   0.069
 1130SOL    HW2 3409   0.652   4.701   0.211
 1131SOL     OW 3410   1.594   3.838   1.480
 1131SOL    HW1 3411   1.576   3.905   1.408
 1131SOL    HW2 3412   1.591   3.884   1.569
 1132SOL     OW 3413   0.122   4.367   0.563
 1132SOL    HW1 3414   0.077   4.279   0.580
 1132SOL    HW2 3415   0.121   4.421   0.647
 1133SOL     OW 3416   1.689   4.646   0.612
 1133SOL    HW1 3417   1.784   4.617   0.620
 1133SOL    HW2 3418   1.681   4.711   0.537
 1134SOL     OW 3419   0.113   4.461   1.597
 1134SOL    HW1 3420   0.201   4.448   1.642
 1134SOL    HW2 3421   0.100   4.558   1.575
 1135SOL     OW 3422   1.293   4.952   1.423
 1135SOL    HW1 3423   1.330   4.879   1.365
 1135SOL    HW2 3424   1.345   4.957   1.508
 1136SOL     OW 3425   0.809   3.728   0.502
 1136SOL    HW1 3426   0.849   3.819   0.493
 1136SOL    HW2 3427   0.709   3.736   0.508
 1137SOL     OW 3428   0.197   4.700   1.264
 1137SOL    HW1 3429   0.286   4.655   1.250
 1137SOL    HW2 3430   0.124   4.635   1.245
 1138SOL     OW 3431   1.525   4.723   0.190
 1138SOL    HW1 3432   1.462   4.647   0.203
 1138SOL    HW2 3433   1.573   4.741   0.276
 1139SOL     OW 3434   0.317   3.975   1.801
 1139SOL    HW1 3435   0.388   4.046   1.807
 1139SOL    HW2 3436   0.229   4.014   1.829
 1140SOL     OW 3437   0.598   4.453   0.270
 1140SOL    HW1 3438   0.622   4.522   0.202
 1140SOL    HW2 3439   0.520   4.486   0.324
 1141SOL     OW 3440   1.281   4.069   0.944
 1141SOL    HW1 3441   1.195   4.019   0.931
 1141SOL    HW2 3442   1.343   4.015   1.000
 1142SOL     OW 3443   0.807   4.329   1.465
 1142SOL    HW1 3444   0.760   4.326   1.554
 1142SOL    HW2 3445   0.756   4.274   1.399
 1143SOL     OW 3446   1.394   4.193   1.674
 1143SOL    HW1 3447   1.374   4.236   1.762
 1143SOL    HW2 3448   1.472   4.131   1.683
 1144SOL     OW 3449   0.973   4.614   1.572
 1144SOL    HW1 3450   1.019   4.530   1.543
 1144SOL    HW2 3451   0.917   4.648   1.497
 1145SOL     OW 3452   0.991   4.134   1.242
 1145SOL    HW1 3453   0.914   4.168   1.296
 1145SOL    HW2 3454   0.957   4.083   1.163
 1146SOL     OW 3455   1.041   4.425   0.429
 1146SOL    HW1 3456   1.067   4.421   0.525
 1146SOL    HW2 3457   0.956   4.374   0.415
 1147SOL     OW 3458   0.076   4.535   0.789
 1147SOL    HW1 3459   0.175   4.523   0.798
 1147SOL    HW2 3460   0.052   4.630   0.810
 1148SOL     OW 3461   0.865   4.072   0.195
 1148SOL    HW1 3462   0.924   4.135   0.146
 1148SOL    HW2 3463   0.884   3.978   0.166
 1149SOL     OW 3464   1.719   4.309   1.831
 1149SOL    HW1 3465   1.693   4.398   1.795
 1149SOL    HW2 3466   1.717   4.241   1.758
 1150SOL     OW 3467   0.550   3.920   0.885
 1150SOL    HW1 3468   0.545   3.915   0.985
 1150SOL    HW2 3469   0.552   4.016   0.856
 1151SOL     OW 3470   1.795   4.790   0.873
 1151SOL    HW1 3471   1.733   4.775   0.797
 1151SOL    HW2 3472   1.743   4.801   0.958
 1152SOL     OW 3473   0.321   4.667   0.242
 1152SOL    HW1 3474   0.403   4.706   0.200
 1152SOL    HW2 3475   0.294   4.585   0.193
 1153SOL     OW 3476   1.458   4.459   0.728
 1153SOL    HW1 3477   1.453   4.394   0.803
 1153SOL    HW2 3478   1.538   4.518   0.741
 1154SOL     OW 3479   0.202   4.009   1.498
 1154SOL    HW1 3480   0.122   4.069   1.485
 1154SOL    HW2 3481   0.192   3.960   1.584
 1155SOL     OW 3482   1.400   3.831   0.426
 1155SOL    HW1 3483   1.376   3.794   0.336
 1155SOL    HW2 3484   1.499   3.847   0.430
 1156SOL     OW 3485   0.382   4.424   0.480
 1156SOL    HW1 3486   0.427   4.334   0.477
 1156SOL    HW2 3487   0.288   4.413   0.513
 1157SOL     OW 3488   1.547   3.946   1.729
 1157SOL    HW1 3489   1.542   3.983   1.821
 1157SOL    HW2 3490   1.475   3.877   1.717
 1158SOL     OW 3491   0.614   3.846   0.117
 1158SOL    HW1 3492   0.712   3.824   0.124
 1158SOL    HW2 3493   0.583   3.829   0.024
 1159SOL     OW 3494   0.781   3.988   1.749
 1159SOL    HW1 3495   0.848   3.927   1.792
 1159SOL    HW2 3496   0.708   4.007   1.814
 1160SOL     OW 3497   1.351   4.314   1.433
 1160SOL    HW1 3498   1.379   4.271   1.518
 1160SOL    HW2 3499   1.376   4.410   1.434
 1161SOL     OW 3500   0.922   4.227   0.899
 1161SOL    HW1 3501   0.897   4.218   0.803
 1161SOL    HW2 3502   0.970   4.145   0.930
 1162SOL     OW 3503   0.539   3.788   0.512
 1162SOL    HW1 3504   0.458   3.789   0.570
 1162SOL    HW2 3505   0.542   3.871   0.457
 1163SOL     OW 3506   0.297   3.759   0.171
 1163SOL    HW1 3507   0.346   3.843   0.150
 1163SOL    HW2 3508   0.359   3.694   0.216
 1164SOL     OW 3509   0.935   3.960   0.480
 1164SOL    HW1 3510   0.887   4.001   0.402
 1164SOL    HW2 3511   1.034   3.958   0.461
 1165SOL     OW 3512   1.076   4.407   1.464
 1165SOL    HW1 3513   0.996   4.346   1.467
 1165SOL    HW2 3514   1.157   4.354   1.440
 1166SOL     OW 3515   0.459   4.876   0.741
 1166SOL    HW1 3516   0.388   4.849   0.806
 1166SOL    HW2 3517   0.433   4.848   0.648
 1167SOL     OW 3518   1.032   4.273   0.016
 1167SOL    HW1 3519   0.991   4.355  -0.023
 1167SOL    HW2 3520   1.096   4.299   0.089
 1168SOL     OW 3521   0.078   4.280   1.386
 1168SOL    HW1 3522   0.170   4.279   1.345
 1168SOL    HW2 3523   0.072   4.354   1.453
 1169SOL     OW 3524   0.561   3.946   1.147
 1169SOL    HW1 3525   0.599   3.862   1.184
 1169SOL    HW2 3526   0.473   3.965   1.191
 1170SOL     OW 3527   0.866   4.178   0.642
 1170SOL    HW1 3528   0.834   4.250   0.580
 1170SOL    HW2 3529   0.890   4.097   0.589
 1171SOL     OW 3530   1.017   3.763   0.753
 1171SOL    HW1 3531   0.945   3.768   0.684
 1171SOL    HW2 3532   0.993   3.694   0.822
 1172SOL     OW 3533   1.429   4.897   0.867
 1172SOL    HW1 3534   1.374   4.813   0.860
 1172SOL    HW2 3535   1.455   4.926   0.775
 1173SOL     OW 3536   1.466   4.314   0.992
 1173SOL    HW1 3537   1.436   4.219   0.999
 1173SOL    HW2 3538   1.539   4.330   1.058
 1174SOL     OW 3539   1.857   4.557   0.377
 1174SOL    HW1 3540   1.899   4.493   0.441
 1174SOL    HW2 3541   1.819   4.506   0.299
 1175SOL     OW 3542   1.390   4.299   0.078
 1175SOL    HW1 3543   1.336   4.278   0.159
 1175SOL    HW2 3544   1.481   4.258   0.087
 1176SOL     OW 3545   0.527   3.980   0.328
 1176SOL    HW1 3546   0.554   3.921   0.253
 1176SOL    HW2 3547   0.527   4.075   0.297
 1177SOL     OW 3548   1.754   4.947   1.588
 1177SOL    HW1 3549   1.845   4.908   1.575
 1177SOL    HW2 3550   1.762   5.043   1.612
 1178SOL     OW 3551   1.638   4.823   1.079
 1178SOL    HW1 3552   1.643   4.904   1.138
 1178SOL    HW2 3553   1.552   4.825   1.028
 1179SOL     OW 3554   0.915   3.813   1.402
 1179SOL    HW1 3555   0.940   3.793   1.307
 1179SOL    HW2 3556   0.987   3.869   1.444
 1180SOL     OW 3557   0.705   4.774   0.368
 1180SOL    HW1 3558   0.691   4.781   0.467
 1180SOL    HW2 3559   0.789   4.723   0.350
 1181SOL     OW 3560   0.410   4.537   1.251
 1181SOL    HW1 3561   0.496   4.549   1.301
 1181SOL    HW2 3562   0.368   4.450   1.278
 1182SOL     OW 3563   1.274   4.110   1.262
 1182SOL    HW1 3564   1.295   4.184   1.326
 1182SOL    HW2 3565   1.185   4.127   1.219
 1183SOL     OW 3566   0.367   4.824   0.501
 1183SOL    HW1 3567   0.360   4.907   0.445
 1183SOL    HW2 3568   0.371   4.744   0.441
 1184SOL     OW 3569   0.566   4.261   0.865
 1184SOL    HW1 3570   0.578   4.327   0.791
 1184SOL    HW2 3571   0.612   4.295   0.948
 1185SOL     OW 3572   1.582   4.363   0.472
 1185SOL    HW1 3573   1.551   4.424   0.545
 1185SOL    HW2 3574   1.632   4.415   0.403
 1186SOL     OW 3575   0.402   4.475   1.598
 1186SOL    HW1 3576   0.470   4.530   1.551
 1186SOL    HW2 3577   0.442   4.387   1.625
 1187SOL     OW 3578   1.587   4.503   1.670
 1187SOL    HW1 3579   1.495   4.541   1.665
 1187SOL    HW2 3580   1.647   4.550   1.605
 1188SOL     OW 3581   1.013   3.829   1.770
 1188SOL    HW1 3582   1.019   3.914   1.718
 1188SOL    HW2 3583   1.045   3.753   1.713
 1189SOL     OW 3584   0.504   3.774   1.740
 1189SOL    HW1 3585   0.462   3.717   1.670
 1189SOL    HW2 3586   0.438   3.843   1.772
 1190SOL     OW 3587   0.573   4.594   1.029
 1190SOL    HW1 3588   0.617   4.683   1.020
 1190SOL    HW2 3589   0.510   4.594   1.106
 1191SOL     OW 3590   1.360   4.586   1.045
 1191SOL    HW1 3591   1.285   4.586   0.979
 1191SOL    HW2 3592   1.397   4.494   1.054
 1192SOL     OW 3593   1.209   4.249   0.275
 1192SOL    HW1 3594   1.222   4.165   0.329
 1192SOL    HW2 3595   1.180   4.323   0.335
 1193SOL     OW 3596   0.307   3.937   1.231
 1193SOL    HW1 3597   0.284   3.974   1.321
 1193SOL    HW2 3598   0.277   3.842   1.225
 1194SOL     OW 3599   0.037   5.034   1.282
 1194SOL    HW1 3600   0.090   4.985   1.350
 1194SOL    HW2 3601   0.059   5.132   1.287
 1195SOL     OW 3602   0.732   4.358   1.064
 1195SOL    HW1 3603   0.791   4.332   0.988
 1195SOL    HW2 3604   0.704   4.454   1.053
 1196SOL     OW 3605   1.728   4.659   1.854
 1196SOL    HW1 3606   1.682   4.652   1.765
 1196SOL    HW2 3607   1.666   4.703   1.920
 1197SOL     OW 3608   0.307   3.787   0.618
 1197SOL    HW1 3609   0.296   3.881   0.651
 1197SOL    HW2 3610   0.302   3.724   0.695
 1198SOL     OW 3611   1.622   4.091   0.374
 1198SOL    HW1 3612   1.624   4.015   0.438
 1198SOL    HW2 3613   1.574   4.168   0.414
 1199SOL     OW 3614   1.023   4.490   0.966
 1199SOL    HW1 3615   1.038   4.511   1.062
 1199SOL    HW2 3616   0.993   4.395   0.957
 1200SOL     OW 3617   0.350   4.622   1.804
 1200SOL    HW1 3618   0.426   4.666   1.852
 1200SOL    HW2 3619   0.385   4.575   1.722
 1201SOL     OW 3620   1.540   3.998   0.125
 1201SOL    HW1 3621   1.479   3.923   0.148
 1201SOL    HW2 3622   1.562   4.050   0.208
 1202SOL     OW 3623   1.303   4.562   0.042
 1202SOL    HW1 3624   1.337   4.469   0.057
 1202SOL    HW2 3625   1.321   4.589  -0.053
 1203SOL     OW 3626   0.319   4.534   0.949
 1203SOL    HW1 3627   0.412   4.570   0.954
 1203SOL    HW2 3628   0.313   4.449   1.001
 1204SOL     OW 3629   0.339   4.233   1.006
 1204SOL    HW1 3630   0.287   4.150   0.989
 1204SOL    HW2 3631   0.416   4.238   0.942
 1205SOL     OW 3632   1.138   4.104   1.678
 1205SOL    HW1 3633   1.093   4.167   1.742
 1205SOL    HW2 3634   1.231   4.135   1.661
 1206SOL     OW 3635   1.160   3.931   1.477
 1206SOL    HW1 3636   1.160   3.995   1.554
 1206SOL    HW2 3637   1.188   3.979   1.394
 1207SOL     OW 3638   1.002   4.520   1.238
 1207SOL    HW1 3639   1.043   4.488   1.324
 1207SOL    HW2 3640   0.906   4.493   1.235
 1208SOL     OW 3641   0.040   4.268   1.114
 1208SOL    HW1 3642   0.125   4.235   1.073
 1208SOL    HW2 3643   0.053   4.283   1.212
 1209SOL     OW 3644   0.189   4.244   1.722
 1209SOL    HW1 3645   0.248   4.204   1.652
 1209SOL    HW2 3646   0.131   4.315   1.681
 1210SOL     OW 3647   1.369   4.674   1.660
 1210SOL    HW1 3648   1.408   4.763   1.680
 1210SOL    HW2 3649   1.379   4.654   1.563
 1211SOL     OW 3650   0.815   4.296   0.325
 1211SOL    HW1 3651   0.822   4.207   0.279
 1211SOL    HW2 3652   0.721   4.330   0.317
 1212SOL     OW 3653   1.657   4.328   1.206
 1212SOL    HW1 3654   1.619   4.259   1.268
 1212SOL    HW2 3655   1.739   4.292   1.162
 1213SOL     OW 3656   0.671   4.188   1.269
 1213SOL    HW1 3657   0.637   4.099   1.239
 1213SOL    HW2 3658   0.697   4.242   1.189
 1214SOL     OW 3659   0.473   4.224   0.191
 1214SOL    HW1 3660   0.534   4.304   0.195
 1214SOL    HW2 3661   0.378   4.255   0.198
 1215SOL     OW 3662   0.159   4.861   1.466
 1215SOL    HW1 3663   0.181   4.800   1.542
 1215SOL    HW2 3664   0.169   4.812   1.380
 1216SOL     OW 3665   1.347   4.783   1.234
 1216SOL    HW1 3666   1.371   4.720   1.160
 1216SOL    HW2 3667   1.257   4.823   1.216
 1217SOL     OW 3668   1.302   4.579   0.309
 1217SOL    HW1 3669   1.216   4.548   0.351
 1217SOL    HW2 3670   1.298   4.565   0.210
 1218SOL     OW 3671   0.083   4.982   1.022
 1218SOL    HW1 3672   0.078   4.981   1.122
 1218SOL    HW2 3673   0.000   4.941   0.984
 1219SOL     OW 3674   0.903   3.810   0.133
 1219SOL    HW1 3675   0.954   3.811   0.047
 1219SOL    HW2 3676   0.959   3.768   0.204
 1220SOL     OW 3677   1.726   3.859   0.523
 1220SOL    HW1 3678   1.799   3.842   0.456
 1220SOL    HW2 3679   1.695   3.772   0.561
 1221SOL     OW 3680   1.280   4.651   0.672
 1221SOL    HW1 3681   1.340   4.570   0.674
 1221SOL    HW2 3682   1.320   4.720   0.612
 1222SOL     OW 3683   1.841   3.899   0.963
 1222SOL    HW1 3684   1.880   3.814   0.927
 1222SOL    HW2 3685   1.743   3.901   0.944
 1223SOL     OW 3686   0.263   4.050   0.720
 1223SOL    HW1 3687   0.184   4.101   0.686
 1223SOL    HW2 3688   0.254   4.035   0.818
 1224SOL     OW 3689   0.822   4.726   1.372
 1224SOL    HW1 3690   0.862   4.725   1.280
 1224SOL    HW2 3691   0.832   4.818   1.412
 1225SOL     OW 3692   0.916   4.634   0.291
 1225SOL    HW1 3693   0.979   4.672   0.223
 1225SOL    HW2 3694   0.956   4.551   0.330
 1226SOL     OW 3695   0.372   5.012   1.490
 1226SOL    HW1 3696   0.359   5.105   1.456
 1226SOL    HW2 3697   0.288   4.960   1.477
 1227SOL     OW 3698   1.014   3.960   0.971
 1227SOL    HW1 3699   1.006   3.924   0.878
 1227SOL    HW2 3700   1.012   3.884   1.036
 1228SOL     OW 3701   1.709   4.109   1.381
 1228SOL    HW1 3702   1.782   4.178   1.385
 1228SOL    HW2 3703   1.737   4.034   1.322
 1229SOL     OW 3704   0.105   4.737   1.726
 1229SOL    HW1 3705   0.028   4.704   1.780
 1229SOL    HW2 3706   0.190   4.707   1.768
 1230SOL     OW 3707   0.672   3.927   1.489
 1230SOL    HW1 3708   0.762   3.911   1.449
 1230SOL    HW2 3709   0.680   3.932   1.588
 1231SOL     OW 3710   0.075   4.069   0.033
 1231SOL    HW1 3711  -0.017   4.041   0.004
 1231SOL    HW2 3712   0.106   4.146  -0.023
 1232SOL     OW 3713   1.440   4.580   1.398
 1232SOL    HW1 3714   1.383   4.632   1.335
 1232SOL    HW2 3715   1.536   4.592   1.374
 1233SOL     OW 3716   0.072   3.890   0.318
 1233SOL    HW1 3717   0.055   3.973   0.264
 1233SOL    HW2 3718   0.162   3.853   0.296
 1234SOL     OW 3719   1.183   5.059   0.119
 1234SOL    HW1 3720   1.084   5.048   0.121
 1234SOL    HW2 3721   1.217   5.074   0.212
 1235SOL     OW 3722   0.613   4.566   1.431
 1235SOL    HW1 3723   0.669   4.647   1.414
 1235SOL    HW2 3724   0.672   4.486   1.434
 1236SOL     OW 3725   0.716   4.289   1.708
 1236SOL    HW1 3726   0.735   4.354   1.782
 1236SOL    HW2 3727   0.776   4.209   1.717
 1237SOL     OW 3728   1.450   4.944   1.633
 1237SOL    HW1 3729   1.441   4.934   1.732
 1237SOL    HW2 3730   1.546   4.937   1.607
 1238SOL     OW 3731   1.674   4.607   1.254
 1238SOL    HW1 3732   1.647   4.518   1.217
 1238SOL    HW2 3733   1.675   4.675   1.181
 1239SOL     OW 3734   1.225   4.049   0.449
 1239SOL    HW1 3735   1.290   3.975   0.438
 1239SOL    HW2 3736   1.245   4.099   0.533
 1240SOL     OW 3737   0.594   4.469   0.652
 1240SOL    HW1 3738   0.644   4.554   0.633
 1240SOL    HW2 3739   0.506   4.471   0.604
 1241SOL     OW 3740   1.777   4.066   1.642
 1241SOL    HW1 3741   1.760   4.097   1.548
 1241SOL    HW2 3742   1.693   4.029   1.680
 1242SOL     OW 3743   1.730   4.658   1.517
 1242SOL    HW1 3744   1.768   4.749   1.532
 1242SOL    HW2 3745   1.722   4.641   1.418
 1243SOL     OW 3746   0.859   4.680   0.861
 1243SOL    HW1 3747   0.913   4.611   0.909
 1243SOL    HW2 3748   0.827   4.749   0.927
 1244SOL     OW 3749   1.083   4.708   0.087
 1244SOL    HW1 3750   1.060   4.761   0.005
 1244SOL    HW2 3751   1.164   4.652   0.068
 1245SOL     OW 3752   1.824   3.916   1.227
 1245SOL    HW1 3753   1.820   3.826   1.271
 1245SOL    HW2 3754   1.827   3.905   1.128
 1246SOL     OW 3755   0.428   4.148   0.520
 1246SOL    HW1 3756   0.458   4.076   0.458
 1246SOL    HW2 3757   0.389   4.108   0.603
 1247SOL     OW 3758   0.317   4.271   1.280
 1247SOL    HW1 3759   0.355   4.212   1.352
 1247SOL    HW2 3760   0.357   4.245   1.192
 1248SOL     OW 3761   1.424   3.938   1.112
 1248SOL    HW1 3762   1.476   3.873   1.167
 1248SOL    HW2 3763   1.375   4.001   1.173
 1249SOL     OW 3764   1.001   3.758   1.154
 1249SOL    HW1 3765   0.938   3.686   1.123
 1249SOL    HW2 3766   1.094   3.722   1.154
 1250SOL     OW 3767   0.770   5.054   0.301
 1250SOL    HW1 3768   0.724   4.967   0.318
 1250SOL    HW2 3769   0.861   5.051   0.342
 1251SOL     OW 3770   1.352   3.776   0.168
 1251SOL    HW1 3771   1.387   3.735   0.084
 1251SOL    HW2 3772   1.262   3.738   0.188
 1252SOL     OW 3773   1.300   4.177   0.691
 1252SOL    HW1 3774   1.241   4.257   0.695
 1252SOL    HW2 3775   1.315   4.142   0.784
 1253SOL     OW 3776   1.593   3.945   0.882
 1253SOL    HW1 3777   1.509   3.944   0.936
 1253SOL    HW2 3778   1.595   4.028   0.826
 1254SOL     OW 3779   0.039   4.801   0.300
 1254SOL    HW1 3780   0.138   4.790   0.291
 1254SOL    HW2 3781  -0.001   4.715   0.332
 1255SOL     OW 3782   0.230   4.352   1.975
 1255SOL    HW1 3783   0.137   4.350   2.012
 1255SOL    HW2 3784   0.231   4.313   1.883
 1256SOL     OW 3785   0.225   3.999   2.858
 1256SOL    HW1 3786   0.260   3.982   2.950
 1256SOL    HW2 3787   0.137   3.954   2.846
 1257SOL     OW 3788   0.019   4.092   2.509
 1257SOL    HW1 3789  -0.063   4.135   2.548
 1257SOL    HW2 3790  -0.009   4.019   2.446
 1258SOL     OW 3791   1.135   4.427   2.579
 1258SOL    HW1 3792   1.192   4.505   2.554
 1258SOL    HW2 3793   1.075   4.453   2.655
 1259SOL     OW 3794   1.755   4.331   2.093
 1259SOL    HW1 3795   1.743   4.318   1.994
 1259SOL    HW2 3796   1.725   4.250   2.142
 1260SOL     OW 3797   0.768   4.868   2.885
 1260SOL    HW1 3798   0.690   4.885   2.945
 1260SOL    HW2 3799   0.802   4.955   2.849
 1261SOL     OW 3800   0.850   4.522   3.685
 1261SOL    HW1 3801   0.846   4.598   3.750
 1261SOL    HW2 3802   0.872   4.558   3.594
 1262SOL     OW 3803   0.685   4.736   2.527
 1262SOL    HW1 3804   0.754   4.720   2.597
 1262SOL    HW2 3805   0.612   4.793   2.565
 1263SOL     OW 3806   1.460   5.229   3.201
 1263SOL    HW1 3807   1.484   5.323   3.227
 1263SOL    HW2 3808   1.444   5.175   3.283
 1264SOL     OW 3809   0.438   4.116   3.361
 1264SOL    HW1 3810   0.520   4.060   3.370
 1264SOL    HW2 3811   0.357   4.058   3.365
 1265SOL     OW 3812   1.603   4.171   2.599
 1265SOL    HW1 3813   1.529   4.217   2.549
 1265SOL    HW2 3814   1.654   4.239   2.652
 1266SOL     OW 3815   0.240   4.815   2.748
 1266SOL    HW1 3816   0.254   4.731   2.800
 1266SOL    HW2 3817   0.185   4.879   2.803
 1267SOL     OW 3818   0.606   4.688   1.985
 1267SOL    HW1 3819   0.613   4.772   1.931
 1267SOL    HW2 3820   0.652   4.701   2.073
 1268SOL     OW 3821   1.594   3.838   3.342
 1268SOL    HW1 3822   1.576   3.905   3.270
 1268SOL    HW2 3823   1.591   3.884   3.431
 1269SOL     OW 3824   0.122   4.367   2.425
 1269SOL    HW1 3825   0.077   4.279   2.442
 1269SOL    HW2 3826   0.121   4.421   2.509
 1270SOL     OW 3827   1.689   4.646   2.474
 1270SOL    HW1 3828   1.784   4.617   2.482
 1270SOL    HW2 3829   1.681   4.711   2.399
 1271SOL     OW 3830   0.113   4.461   3.459
 1271SOL    HW1 3831   0.201   4.448   3.504
 1271SOL    HW2 3832   0.100   4.558   3.437
 1272SOL     OW 3833   1.293   4.952   3.285
 1272SOL    HW1 3834   1.330   4.879   3.227
 1272SOL    HW2 3835   1.345   4.957   3.370
 1273SOL     OW 3836   0.809   3.728   2.364
 1273SOL    HW1 3837   0.849   3.819   2.355
 1273SOL    HW2 3838   0.709   3.736   2.370
 1274SOL     OW 3839   0.197   4.700   3.126
 1274SOL    HW1 3840   0.286   4.655   3.112
 1274SOL    HW2 3841   0.124   4.635   3.107
 1275SOL     OW 3842   1.525   4.723   2.052
 1275SOL    HW1 3843   1.462   4.647   2.065
 1275SOL    HW2 3844   1.573   4.741   2.138
 1276SOL     OW 3845   0.317   3.975   3.663
 1276SOL    HW1 3846   0.388   4.046   3.669
 1276SOL    HW2 3847   0.229   4.014   3.691
 1277SOL     OW 3848   0.598   4.453   2.132
 1277SOL    HW1 3849   0.622   4.522   2.064
 1277SOL    HW2 3850   0.520   4.486   2.186
 1278SOL     OW 3851   1.281   4.069   2.806
 1278SOL    HW1 3852   1.195   4.019   2.793
 1278SOL    HW2 3853   1.343   4.015   2.862
 1279SOL     OW 3854   0.807   4.329   3.327
 1279SOL    HW1 3855   0.760   4.326   3.416
 1279SOL    HW2 3856   0.756   4.274   3.261
 1280SOL     OW 3857   1.394   4.193   3.536
 1280SOL    HW1 3858   1.374   4.236   3.624
 1280SOL    HW2 3859   1.472   4.131   3.545
 1281SOL     OW 3860   0.973   4.614   3.434
 1281SOL    HW1 3861   1.019   4.530   3.405
 1281SOL    HW2 3862   0.917   4.648   3.359
 1282SOL     OW 3863   0.991   4.134   3.104
 1282SOL    HW1 3864   0.914   4.168   3.158
 1282SOL    HW2 3865   0.957   4.083   3.025
 1283SOL     OW 3866   1.041   4.425   2.291
 1283SOL    HW1 3867   1.067   4.421   2.387
 1283SOL    HW2 3868   0.956   4.374   2.277
 1284SOL     OW 3869   0.076   4.535   2.651
 1284SOL    HW1 3870   0.175   4.523   2.660
 1284SOL    HW2 3871   0.052   4.630   2.672
 1285SOL     OW 3872   0.865   4.072   2.057
 1285SOL    HW1 3873   0.924   4.135   2.008
 1285SOL    HW2 3874   0.884   3.978   2.028
 1286SOL     OW 3875   1.719   4.309   3.693
 1286SOL    HW1 3876   1.693   4.398   3.657
 1286SOL    HW2 3877   1.717   4.241   3.620
 1287SOL     OW 3878   0.550   3.920   2.747
 1287SOL    HW1 3879   0.545   3.915   2.847
 1287SOL    HW2 3880   0.552   4.016   2.718
 1288SOL     OW 3881   1.795   4.790   2.735
 1288SOL    HW1 3882   1.733   4.775   2.659
 1288SOL    HW2 3883   1.743   4.801   2.820
 1289SOL     OW 3884   0.321   4.667   2.104
 1289SOL    HW1 3885   0.403   4.706   2.062
 1289SOL    HW2 3886   0.294   4.585   2.055
 1290SOL     OW 3887   1.458   4.459   2.590
 1290SOL    HW1 3888   1.453   4.394   2.665
 1290SOL    HW2 3889   1.538   4.518   2.603
 1291SOL     OW 3890   0.202   4.009   3.360
 1291SOL    HW1 3891   0.122   4.069   3.347
 1291SOL    HW2 3892   0.192   3.960   3.446
 1292SOL     OW 3893   1.400   3.831   2.288
 1292SOL    HW1 3894   1.376   3.794   2.198
 1292SOL    HW2 3895   1.499   3.847   2.292
 1293SOL     OW 3896   0.382   4.424   2.342
 1293SOL    HW1 3897   0.427   4.334   2.339
 1293SOL    HW2 3898   0.288   4.413   2.375
 1294SOL     OW 3899   1.547   3.946   3.591
 1294SOL    HW1 3900   1.542   3.983   3.683
 1294SOL    HW2 3901   1.475   3.877   3.579
 1295SOL     OW 3902   0.614   3.846   1.979
 1295SOL    HW1 3903   0.712   3.824   1.986
 1295SOL    HW2 3904   0.583   3.829   1.886
 1296SOL     OW 3905   0.781   3.988   3.611
 1296SOL    HW1 3906   0.848   3.927   3.654
 1296SOL    HW2 3907   0.708   4.007   3.676
 1297SOL     OW 3908   1.351   4.314   3.295
 1297SOL    HW1 3909   1.379   4.271   3.380
 1297SOL    HW2 3910   1.376   4.410   3.296
 1298SOL     OW 3911   0.922   4.227   2.761
 1298SOL    HW1 3912   0.897   4.218   2.665
 1298SOL    HW2 3913   0.970   4.145   2.792
 1299SOL     OW 3914   0.539   3.788   2.374
 1299SOL    HW1 3915   0.458   3.789   2.432
 1299SOL    HW2 3916   0.542   3.871   2.319
 1300SOL     OW 3917   0.297   3.759   2.033
 1300SOL    HW1 3918   0.346   3.843   2.012
 1300SOL    HW2 3919   0.359   3.694   2.078
 1301SOL     OW 3920   0.935   3.960   2.342
 1301SOL    HW1 3921   0.887   4.001   2.264
 1301SOL    HW2 3922   1.034   3.958   2.323
 1302SOL     OW 3923   1.076   4.407   3.326
 1302SOL    HW1 3924   0.996   4.346   3.329
 1302SOL    HW2 3925   1.157   4.354   3.302
 1303SOL     OW 3926   0.459   4.876   2.603
 1303SOL    HW1 3927   0.388   4.849   2.668
 1303SOL    HW2 3928   0.433   4.848   2.510
 1304SOL     OW 3929   1.032   4.273   1.878
 1304SOL    HW1 3930   0.991   4.355   1.839
 1304SOL    HW2 3931   1.096   4.299   1.951
 1305SOL     OW 3932   0.078   4.280   3.248
 1305SOL    HW1 3933   0.170   4.279   3.207
 1305SOL    HW2 3934   0.072   4.354   3.315
 1306SOL     OW 3935   0.561   3.946   3.009
 1306SOL    HW1 3936   0.599   3.862   3.046
 1306SOL    HW2 3937   0.473   3.965   3.053
 1307SOL     OW 3938   0.866   4.178   2.504
 1307SOL    HW1 3939   0.834   4.250   2.442
 1307SOL    HW2 3940   0.890   4.097   2.451
 1308SOL     OW 3941   1.017   3.763   2.615
 1308SOL    HW1 3942   0.945   3.768   2.546
 1308SOL    HW2 3943   0.993   3.694   2.684
 1309SOL     OW 3944   1.429   4.897   2.729
 1309SOL    HW1 3945   1.374   4.813   2.722
 1309SOL    HW2 3946   1.455   4.926   2.637
 1310SOL     OW 3947   1.466   4.314   2.854
 1310SOL    HW1 3948   1.436   4.219   2.861
 1310SOL    HW2 3949   1.539   4.330   2.920
 1311SOL     OW 3950   1.857   4.557   2.239
 1311SOL    HW1 3951   1.899   4.493   2.303
 1311SOL    HW2 3952   1.819   4.506   2.161
 1312SOL     OW 3953   1.390   4.299   1.940
 1312SOL    HW1 3954   1.336   4.278   2.021
 1312SOL    HW2 3955   1.481   4.258   1.949
 1313SOL     OW 3956   0.527   3.980   2.190
 1313SOL    HW1 3957   0.554   3.921   2.115
 1313SOL    HW2 3958   0.527   4.075   2.159
 1314SOL     OW 3959   1.754   4.947   3.450
 1314SOL    HW1 3960   1.845   4.908   3.437
 1314SOL    HW2 3961   1.762   5.043   3.474
 1315SOL     OW 3962   1.638   4.823   2.941
 1315SOL    HW1 3963   1.643   4.904   3.000
 1315SOL    HW2 3964   1.552   4.825   2.890
 1316SOL     OW 3965   0.915   3.813   3.264
 1316SOL    HW1 3966   0.940   3.793   3.169
 1316SOL    HW2 3967   0.987   3.869   3.306
 1317SOL     OW 3968   0.705   4.774   2.230
 1317SOL    HW1 3969   0.691   4.781   2.329
 1317SOL    HW2 3970   0.789   4.723   2.212
 1318SOL     OW 3971   0.410   4.537   3.113
 1318SOL    HW1 3972   0.496   4.549   3.163
 1318SOL    HW2 3973   0.368   4.450   3.140
 1319SOL     OW 3974   1.274   4.110   3.124
 1319SOL    HW1 3975   1.295   4.184   3.188
 1319SOL    HW2 3976   1.185   4.127   3.081
 1320SOL     OW 3977   0.367   4.824   2.363
 1320SOL    HW1 3978   0.360   4.907   2.307
 1320SOL    HW2 3979   0.371   4.744   2.303
 1321SOL     OW 3980   0.566   4.261   2.727
 1321SOL    HW1 3981   0.578   4.327   2.653
 1321SOL    HW2 3982   0.612   4.295   2.810
 1322SOL     OW 3983   1.582   4.363   2.334
 1322SOL    HW1 3984   1.551   4.424   2.407
 1322SOL    HW2 3985   1.632   4.415   2.265
 1323SOL     OW 3986   0.402   4.475   3.460
 1323SOL    HW1 3987   0.470   4.530   3.413
 1323SOL    HW2 3988   0.442   4.387   3.487
 1324SOL     OW 3989   1.587   4.503   3.532
 1324SOL    HW1 3990   1.495   4.541   3.527
 1324SOL    HW2 3991   1.647   4.550   3.467
 1325SOL     OW 3992   1.013   3.829   3.632
 1325SOL    HW1 3993   1.019   3.914   3.580
 1325SOL    HW2 3994   1.045   3.753   3.575
 1326SOL     OW 3995   0.504   3.774   3.602
 1326SOL    HW1 3996   0.462   3.717   3.532
 1326SOL    HW2 3997   0.438   3.843   3.634
 1327SOL     OW 3998   0.573   4.594   2.891
 1327SOL    HW1 3999   0.617   4.683   2.882
 1327SOL    HW2 4000   0.510   4.594   2.968
 1328SOL     OW 4001   1.360   4.586   2.907
 1328SOL    HW1 4002   1.285   4.586   2.841
 1328SOL    HW2 4003   1.397   4.494   2.916
 1329SOL     OW 4004   1.209   4.249   2.137
 1329SOL    HW1 4005   1.222   4.165   2.191
 1329SOL    HW2 4006   1.180   4.323   2.197
 1330SOL     OW 4007   0.307   3.937   3.093
 1330SOL    HW1 4008   0.284   3.974   3.183
 1330SOL    HW2 4009   0.277   3.842   3.087
 1331SOL     OW 4010   0.037   5.034   3.144
 1331SOL    HW1 4011   0.090   4.985   3.212
 1331SOL    HW2 4012   0.059   5.132   3.149
 1332SOL     OW 4013   0.732   4.358   2.926
 1332SOL    HW1 4014   0.791   4.332   2.850
 1332SOL    HW2 4015   0.704   4.454   2.915
 1333SOL     OW 4016   1.728   4.659   3.716
 1333SOL    HW1 4017   1.682   4.652   3.627
 1333SOL    HW2 4018   1.666   4.703   3.782
 1334SOL     OW 4019   0.307   3.787   2.480
 1334SOL    HW1 4020   0.296   3.881   2.513
 1334SOL    HW2 4021   0.302   3.724   2.557
 1335SOL     OW 4022   1.622   4.091   2.236
 1335SOL    HW1 4023   1.624   4.015   2.300
 1335SOL    HW2 4024   1.574   4.168   2.276
 1336SOL     OW 4025   1.023   4.490   2.828
 1336SOL    HW1 4026   1.038   4.511   2.924
 1336SOL    HW2 4027   0.993   4.395   2.819
 1337SOL     OW 4028   0.350   4.622   3.666
 1337SOL    HW1 4029   0.426   4.666   3.714
 1337SOL    HW2 4030   0.385   4.575   3.584
 1338SOL     OW 4031   1.540   3.998   1.987
 1338SOL    HW1 4032   1.479   3.923   2.010
 1338SOL    HW2 4033   1.562   4.050   2.070
 1339SOL     OW 4034   1.303   4.562   1.904
 1339SOL    HW1 4035   1.337   4.469   1.919
 1339SOL    HW2 4036   1.321   4.589   1.809
 1340SOL     OW 4037   0.319   4.534   2.811
 1340SOL    HW1 4038   0.412   4.570   2.816
 1340SOL    HW2 4039   0.313   4.449   2.863
 1341SOL     OW 4040   0.339   4.233   2.868
 1341SOL    HW1 4041   0.287   4.150   2.851
 1341SOL    HW2 4042   0.416   4.238   2.804
 1342SOL     OW 4043   1.138   4.104   3.540
 1342SOL    HW1 4044   1.093   4.167   3.604
 1342SOL    HW2 4045   1.231   4.135   3.523
 1343SOL     OW 4046   1.160   3.931   3.339
 1343SOL    HW1 4047   1.160   3.995   3.416
 1343SOL    HW2 4048   1.188   3.979   3.256
 1344SOL     OW 4049   1.002   4.520   3.100
 1344SOL    HW1 4050   1.043   4.488   3.186
 1344SOL    HW2 4051   0.906   4.493   3.097
 1345SOL     OW 4052   0.040   4.268   2.976
 1345SOL    HW1 4053   0.125   4.235   2.935
 1345SOL    HW2 4054   0.053   4.283   3.074
 1346SOL     OW 4055   0.189   4.244   3.584
 1346SOL    HW1 4056   0.248   4.204   3.514
 1346SOL    HW2 4057   0.131   4.315   3.543
 1347SOL     OW 4058   1.369   4.674   3.522
 1347SOL    HW1 4059   1.408   4.763   3.542
 1347SOL    HW2 4060   1.379   4.654   3.425
 1348SOL     OW 4061   0.815   4.296   2.187
 1348SOL    HW1 4062   0.822   4.207   2.141
 1348SOL    HW2 4063   0.721   4.330   2.179
 1349SOL     OW 4064   1.657   4.328   3.068
 1349SOL    HW1 4065   1.619   4.259   3.130
 1349SOL    HW2 4066   1.739   4.292   3.024
 1350SOL     OW 4067   0.671   4.188   3.131
 1350SOL    HW1 4068   0.637   4.099   3.101
 1350SOL    HW2 4069   0.697   4.242   3.051
 1351SOL     OW 4070   0.473   4.224   2.053
 1351SOL    HW1 4071   0.534   4.304   2.057
 1351SOL    HW2 4072   0.378   4.255   2.060
 1352SOL     OW 4073   0.159   4.861   3.328
 1352SOL    HW1 4074   0.181   4.800   3.404
 1352SOL    HW2 4075   0.169   4.812   3.242
 1353SOL     OW 4076   1.347   4.783   3.096
 1353SOL    HW1 4077   1.371   4.720   3.022
 1353SOL    HW2 4078   1.257   4.823   3.078
 1354SOL     OW 4079   1.302   4.579   2.171
 1354SOL    HW1 4080   1.216   4.548   2.213
 1354SOL    HW2 4081   1.298   4.565   2.072
 1355SOL     OW 4082   0.083   4.982   2.884
 1355SOL    HW1 4083   0.078   4.981   2.984
 1355SOL    HW2 4084   0.000   4.941   2.846
 1356SOL     OW 4085   1.726   3.859   2.385
 1356SOL    HW1 4086   1.799   3.842   2.318
 1356SOL    HW2 4087   1.695   3.772   2.423
 1357SOL     OW 4088   1.280   4.651   2.534
 1357SOL    HW1 4089   1.340   4.570   2.536
 1357SOL    HW2 4090   1.320   4.720   2.474
 1358SOL     OW 4091   1.841   3.899   2.825
 1358SOL    HW1 4092   1.880   3.814   2.789
 1358SOL    HW2 4093   1.743   3.901   2.806
 1359SOL     OW 4094   0.263   4.050   2.582
 1359SOL    HW1 4095   0.184   4.101   2.548
 1359SOL    HW2 4096   0.254   4.035   2.680
 1360SOL     OW 4097   0.822   4.726   3.234
 1360SOL    HW1 4098   0.862   4.725   3.142
 1360SOL    HW2 4099   0.832   4.818   3.274
 1361SOL     OW 4100   0.916   4.634   2.153
 1361SOL    HW1 4101   0.979   4.672   2.085
 1361SOL    HW2 4102   0.956   4.551   2.192
 1362SOL     OW 4103   0.372   5.012   3.352
 1362SOL    HW1 4104   0.359   5.105   3.318
 1362SOL    HW2 4105   0.288   4.960   3.339
 1363SOL     OW 4106   1.014   3.960   2.833
 1363SOL    HW1 4107   1.006   3.924   2.740
 1363SOL    HW2 4108   1.012   3.884   2.898
 1364SOL     OW 4109   1.709   4.109   3.243
 1364SOL    HW1 4110   1.782   4.178   3.247
 1364SOL    HW2 4111   1.737   4.034   3.184
 1365SOL     OW 4112   0.105   4.737   3.588
 1365SOL    HW1 4113   0.028   4.704   3.642
 1365SOL    HW2 4114   0.190   4.707   3.630
 1366SOL     OW 4115   0.672   3.927   3.351
 1366SOL    HW1 4116   0.762   3.911   3.311
 1366SOL    HW2 4117   0.680   3.932   3.450
 1367SOL     OW 4118   0.075   4.069   1.895
 1367SOL    HW1 4119  -0.017   4.041   1.866
 1367SOL    HW2 4120   0.106   4.146   1.839
 1368SOL     OW 4121   1.440   4.580   3.260
 1368SOL    HW1 4122   1.383   4.632   3.197
 1368SOL    HW2 4123   1.536   4.592   3.236
 1369SOL     OW 4124   0.072   3.890   2.180
 1369SOL    HW1 4125   0.055   3.973   2.126
 1369SOL    HW2 4126   0.162   3.853   2.158
 1370SOL     OW 4127   1.183   5.059   1.981
 1370SOL    HW1 4128   1.084   5.048   1.983
 1370SOL    HW2 4129   1.217   5.074   2.074
 1371SOL     OW 4130   0.613   4.566   3.293
 1371SOL    HW1 4131   0.669   4.647   3.276
 1371SOL    HW2 4132   0.672   4.486   3.296
 1372SOL     OW 4133   0.716   4.289   3.570
 1372SOL    HW1 4134   0.735   4.354   3.644
 1372SOL    HW2 4135   0.776   4.209   3.579
 1373SOL     OW 4136   1.450   4.944   3.495
 1373SOL    HW1 4137   1.441   4.934   3.594
 1373SOL    HW2 4138   1.546   4.937   3.469
 1374SOL     OW 4139   1.674   4.607   3.116
 1374SOL    HW1 4140   1.647   4.518   3.079
 1374SOL    HW2 4141   1.675   4.675   3.043
 1375SOL     OW 4142   1.225   4.049   2.311
 1375SOL    HW1 4143   1.290   3.975   2.300
 1375SOL    HW2 4144   1.245   4.099   2.395
 1376SOL     OW 4145   0.594   4.469   2.514
 1376SOL    HW1 4146   0.644   4.554   2.495
 1376SOL    HW2 4147   0.506   4.471   2.466
 1377SOL     OW 4148   1.777   4.066   3.504
 1377SOL    HW1 4149   1.760   4.097   3.410
 1377SOL    HW2 4150   1.693   4.029   3.542
 1378SOL     OW 4151   1.730   4.658   3.379
 1378SOL    HW1 4152   1.768   4.749   3.394
 1378SOL    HW2 4153   1.722   4.641   3.280
 1379SOL     OW 4154   0.859   4.680   2.723
 1379SOL    HW1 4155   0.913   4.611   2.771
 1379SOL    HW2 4156   0.827   4.749   2.789
 1380SOL     OW 4157   1.083   4.708   1.949
 1380SOL    HW1 4158   1.060   4.761   1.867
 1380SOL    HW2 4159   1.164   4.652   1.930
 1381SOL     OW 4160   1.824   3.916   3.089
 1381SOL    HW1 4161   1.820   3.826   3.133
 1381SOL    HW2 4162   1.827   3.905   2.990
 1382SOL     OW 4163   0.428   4.148   2.382
 1382SOL    HW1 4164   0.458   4.076   2.320
 1382SOL    HW2 4165   0.389   4.108   2.465
 1383SOL     OW 4166   0.317   4.271   3.142
 1383SOL    HW1 4167   0.355   4.212   3.214
 1383SOL    HW2 4168   0.357   4.245   3.054
 1384SOL     OW 4169   1.424   3.938   2.974
 1384SOL    HW1 4170   1.476   3.873   3.029
 1384SOL    HW2 4171   1.375   4.001   3.035
 1385SOL     OW 4172   1.001   3.758   3.016
 1385SOL    HW1 4173   0.938   3.686   2.985
 1385SOL    HW2 4174   1.094   3.722   3.016
 1386SOL     OW 4175   0.770   5.054   2.163
 1386SOL    HW1 4176   0.724   4.967   2.180
 1386SOL    HW2 4177   0.861   5.051   2.204
 1387SOL     OW 4178   1.352   3.776   2.030
 1387SOL    HW1 4179   1.387   3.735   1.946
 1387SOL    HW2 4180   1.262   3.738   2.050
 1388SOL     OW 4181   1.300   4.177   2.553
 1388SOL    HW1 4182   1.241   4.257   2.557
 1388SOL    HW2 4183   1.315   4.142   2.646
 1389SOL     OW 4184   1.593   3.945   2.744
 1389SOL    HW1 4185   1.509   3.944   2.798
 1389SOL    HW2 4186   1.595   4.028   2.688
 1390SOL     OW 4187   0.039   4.801   2.162
 1390SOL    HW1 4188   0.138   4.790   2.153
 1390SOL    HW2 4189  -0.001   4.715   2.194
 1391SOL     OW 4190   0.230   4.352   3.837
 1391SOL    HW1 4191   0.137   4.350   3.874
 1391SOL    HW2 4192   0.231   4.313   3.745
 1392SOL     OW 4193   0.225   3.999   4.720
 1392SOL    HW1 4194   0.260   3.982   4.812
 1392SOL    HW2 4195   0.137   3.954   4.708
 1393SOL     OW 4196   0.019   4.092   4.371
 1393SOL    HW1 4197  -0.063   4.135   4.410
 1393SOL    HW2 4198  -0.009   4.019   4.308
 1394SOL     OW 4199   1.135   4.427   4.441
 1394SOL    HW1 4200   1.192   4.505   4.416
 1394SOL    HW2 4201   1.075   4.453   4.517
 1395SOL     OW 4202   1.755   4.331   3.955
 1395SOL    HW1 4203   1.743   4.318   3.856
 1395SOL    HW2 4204   1.725   4.250   4.004
 1396SOL     OW 4205   0.768   4.868   4.747
 1396SOL    HW1 4206   0.690   4.885   4.807
 1396SOL    HW2 4207   0.802   4.955   4.711
 1397SOL     OW 4208   0.685   4.736   4.389
 1397SOL    HW1 4209   0.754   4.720   4.459
 1397SOL    HW2 4210   0.612   4.793   4.427
 1398SOL     OW 4211   1.603   4.171   4.461
 1398SOL    HW1 4212   1.529   4.217   4.411
 1398SOL    HW2 4213   1.654   4.239   4.514
 1399SOL     OW 4214   0.240   4.815   4.610
 1399SOL    HW1 4215   0.254   4.731   4.662
 1399SOL    HW2 4216   0.185   4.879   4.665
 1400SOL     OW 4217   0.606   4.688   3.847
 1400SOL    HW1 4218   0.613   4.772   3.793
 1400SOL    HW2 4219   0.652   4.701   3.935
 1401SOL     OW 4220   0.122   4.367   4.287
 1401SOL    HW1 4221   0.077   4.279   4.304
 1401SOL    HW2 4222   0.121   4.421   4.371
 1402SOL     OW 4223   1.689   4.646   4.336
 1402SOL    HW1 4224   1.784   4.617   4.344
 1402SOL    HW2 4225   1.681   4.711   4.261
 1403SOL     OW 4226   0.809   3.728   4.226
 1403SOL    HW1 4227   0.849   3.819   4.217
 1403SOL    HW2 4228   0.709   3.736   4.232
 1404SOL     OW 4229   0.197   4.700   4.988
 1404SOL    HW1 4230   0.286   4.655   4.974
 1404SOL    HW2 4231   0.124   4.635   4.969
 1405SOL     OW 4232   1.525   4.723   3.914
 1405SOL    HW1 4233   1.462   4.647   3.927
 1405SOL    HW2 4234   1.573   4.741   4.000
 1406SOL     OW 4235   0.598   4.453   3.994
 1406SOL    HW1 4236   0.622   4.522   3.926
 1406SOL    HW2 4237   0.520   4.486   4.048
 1407SOL     OW 4238   1.281   4.069   4.668
 1407SOL    HW1 4239   1.195   4.019   4.655
 1407SOL    HW2 4240   1.343   4.015   4.724
 1408SOL     OW 4241   1.041   4.425   4.153
 1408SOL    HW1 4242   1.067   4.421   4.249
 1408SOL    HW2 4243   0.956   4.374   4.139
 1409SOL     OW 4244   0.076   4.535   4.513
 1409SOL    HW1 4245   0.175   4.523   4.522
 1409SOL    HW2 4246   0.052   4.630   4.534
 1410SOL     OW 4247   0.865   4.072   3.919
 1410SOL    HW1 4248   0.924   4.135   3.870
 1410SOL    HW2 4249   0.884   3.978   3.890
 1411SOL     OW 4250   0.550   3.920   4.609
 1411SOL    HW1 4251   0.545   3.915   4.709
 1411SOL    HW2 4252   0.552   4.016   4.580
 1412SOL     OW 4253   1.795   4.790   4.597
 1412SOL    HW1 4254   1.733   4.775   4.521
 1412SOL    HW2 4255   1.743   4.801   4.682
 1413SOL     OW 4256   0.321   4.667   3.966
 1413SOL    HW1 4257   0.403   4.706   3.924
 1413SOL    HW2 4258   0.294   4.585   3.917
 1414SOL     OW 4259   1.458   4.459   4.452
 1414SOL    HW1 4260   1.453   4.394   4.527
 1414SOL    HW2 4261   1.538   4.518   4.465
 1415SOL     OW 4262   1.400   3.831   4.150
 1415SOL    HW1 4263   1.376   3.794   4.060
 1415SOL    HW2 4264   1.499   3.847   4.154
 1416SOL     OW 4265   0.382   4.424   4.204
 1416SOL    HW1 4266   0.427   4.334   4.201
 1416SOL    HW2 4267   0.288   4.413   4.237
 1417SOL     OW 4268   0.614   3.846   3.841
 1417SOL    HW1 4269   0.712   3.824   3.848
 1417SOL    HW2 4270   0.583   3.829   3.748
 1418SOL     OW 4271   0.888   5.238   4.919
 1418SOL    HW1 4272   0.865   5.213   4.825
 1418SOL    HW2 4273   0.949   5.169   4.958
 1419SOL     OW 4274   0.922   4.227   4.623
 1419SOL    HW1 4275   0.897   4.218   4.527
 1419SOL    HW2 4276   0.970   4.145   4.654
 1420SOL     OW 4277   0.539   3.788   4.236
 1420SOL    HW1 4278   0.458   3.789   4.294
 1420SOL    HW2 4279   0.542   3.871   4.181
 1421SOL     OW 4280   0.297   3.759   3.895
 1421SOL    HW1 4281   0.346   3.843   3.874
 1421SOL    HW2 4282   0.359   3.694   3.940
 1422SOL     OW 4283   0.935   3.960   4.204
 1422SOL    HW1 4284   0.887   4.001   4.126
 1422SOL    HW2 4285   1.034   3.958   4.185
 1423SOL     OW 4286   0.459   4.876   4.465
 1423SOL    HW1 4287   0.388   4.849   4.530
 1423SOL    HW2 4288   0.433   4.848   4.372
 1424SOL     OW 4289   1.032   4.273   3.740
 1424SOL    HW1 4290   0.991   4.355   3.701
 1424SOL    HW2 4291   1.096   4.299   3.813
 1425SOL     OW 4292   0.866   4.178   4.366
 1425SOL    HW1 4293   0.834   4.250   4.304
 1425SOL    HW2 4294   0.890   4.097   4.313
 1426SOL     OW 4295   1.017   3.763   4.477
 1426SOL    HW1 4296   0.945   3.768   4.408
 1426SOL    HW2 4297   0.993   3.694   4.546
 1427SOL     OW 4298   1.429   4.897   4.591
 1427SOL    HW1 4299   1.374   4.813   4.584
 1427SOL    HW2 4300   1.455   4.926   4.499
 1428SOL     OW 4301   1.466   4.314   4.716
 1428SOL    HW1 4302   1.436   4.219   4.723
 1428SOL    HW2 4303   1.539   4.330   4.782
 1429SOL     OW 4304   1.857   4.557   4.101
 1429SOL    HW1 4305   1.899   4.493   4.165
 1429SOL    HW2 4306   1.819   4.506   4.023
 1430SOL     OW 4307   1.390   4.299   3.802
 1430SOL    HW1 4308   1.336   4.278   3.883
 1430SOL    HW2 4309   1.481   4.258   3.811
 1431SOL     OW 4310   0.527   3.980   4.052
 1431SOL    HW1 4311   0.554   3.921   3.977
 1431SOL    HW2 4312   0.527   4.075   4.021
 1432SOL     OW 4313   1.111   4.919   4.824
 1432SOL    HW1 4314   1.071   4.963   4.905
 1432SOL    HW2 4315   1.070   4.956   4.741
 1433SOL     OW 4316   1.638   4.823   4.803
 1433SOL    HW1 4317   1.643   4.904   4.862
 1433SOL    HW2 4318   1.552   4.825   4.752
 1434SOL     OW 4319   0.705   4.774   4.092
 1434SOL    HW1 4320   0.691   4.781   4.191
 1434SOL    HW2 4321   0.789   4.723   4.074
 1435SOL     OW 4322   0.410   4.537   4.975
 1435SOL    HW1 4323   0.496   4.549   5.025
 1435SOL    HW2 4324   0.368   4.450   5.002
 1436SOL     OW 4325   0.367   4.824   4.225
 1436SOL    HW1 4326   0.360   4.907   4.169
 1436SOL    HW2 4327   0.371   4.744   4.165
 1437SOL     OW 4328   0.566   4.261   4.589
 1437SOL    HW1 4329   0.578   4.327   4.515
 1437SOL    HW2 4330   0.612   4.295   4.672
 1438SOL     OW 4331   1.582   4.363   4.196
 1438SOL    HW1 4332   1.551   4.424   4.269
 1438SOL    HW2 4333   1.632   4.415   4.127
 1439SOL     OW 4334   0.573   4.594   4.753
 1439SOL    HW1 4335   0.617   4.683   4.744
 1439SOL    HW2 4336   0.510   4.594   4.830
 1440SOL     OW 4337   1.209   4.249   3.999
 1440SOL    HW1 4338   1.222   4.165   4.053
 1440SOL    HW2 4339   1.180   4.323   4.059
 1441SOL     OW 4340   0.732   4.358   4.788
 1441SOL    HW1 4341   0.791   4.332   4.712
 1441SOL    HW2 4342   0.704   4.454   4.777
 1442SOL     OW 4343   0.307   3.787   4.342
 1442SOL    HW1 4344   0.296   3.881   4.375
 1442SOL    HW2 4345   0.302   3.724   4.419
 1443SOL     OW 4346   1.622   4.091   4.098
 1443SOL    HW1 4347   1.624   4.015   4.162
 1443SOL    HW2 4348   1.574   4.168   4.138
 1444SOL     OW 4349   1.023   4.490   4.690
 1444SOL    HW1 4350   1.038   4.511   4.786
 1444SOL    HW2 4351   0.993   4.395   4.681
 1445SOL     OW 4352   1.540   3.998   3.849
 1445SOL    HW1 4353   1.479   3.923   3.872
 1445SOL    HW2 4354   1.562   4.050   3.932
 1446SOL     OW 4355   1.303   4.562   3.766
 1446SOL    HW1 4356   1.337   4.469   3.781
 1446SOL    HW2 4357   1.321   4.589   3.671
 1447SOL     OW 4358   0.319   4.534   4.673
 1447SOL    HW1 4359   0.412   4.570   4.678
 1447SOL    HW2 4360   0.313   4.449   4.725
 1448SOL     OW 4361   0.339   4.233   4.730
 1448SOL    HW1 4362   0.287   4.150   4.713
 1448SOL    HW2 4363   0.416   4.238   4.666
 1449SOL     OW 4364   1.002   4.520   4.962
 1449SOL    HW1 4365   1.043   4.488   5.048
 1449SOL    HW2 4366   0.906   4.493   4.959
 1450SOL     OW 4367   0.815   4.296   4.049
 1450SOL    HW1 4368   0.822   4.207   4.003
 1450SOL    HW2 4369   0.721   4.330   4.041
 1451SOL     OW 4370   0.671   4.188   4.993
 1451SOL    HW1 4371   0.637   4.099   4.963
 1451SOL    HW2 4372   0.697   4.242   4.913
 1452SOL     OW 4373   0.473   4.224   3.915
 1452SOL    HW1 4374   0.534   4.304   3.919
 1452SOL    HW2 4375   0.378   4.255   3.922
 1453SOL     OW 4376   1.347   4.783   4.958
 1453SOL    HW1 4377   1.371   4.720   4.884
 1453SOL    HW2 4378   1.257   4.823   4.940
 1454SOL     OW 4379   1.302   4.579   4.033
 1454SOL    HW1 4380   1.216   4.548   4.075
 1454SOL    HW2 4381   1.298   4.565   3.934
 1455SOL     OW 4382   0.083   4.982   4.746
 1455SOL    HW1 4383   0.078   4.981   4.846
 1455SOL    HW2 4384   0.000   4.941   4.708
 1456SOL     OW 4385   1.726   3.859   4.247
 1456SOL    HW1 4386   1.799   3.842   4.180
 1456SOL    HW2 4387   1.695   3.772   4.285
 1457SOL     OW 4388   1.280   4.651   4.396
 1457SOL    HW1 4389   1.340   4.570   4.398
 1457SOL    HW2 4390   1.320   4.720   4.336
 1458SOL     OW 4391   1.841   3.899   4.687
 1458SOL    HW1 4392   1.880   3.814   4.651
 1458SOL    HW2 4393   1.743   3.901   4.668
 1459SOL     OW 4394   0.263   4.050   4.444
 1459SOL    HW1 4395   0.184   4.101   4.410
 1459SOL    HW2 4396   0.254   4.035   4.542
 1460SOL     OW 4397   0.822   4.726   5.096
 1460SOL    HW1 4398   0.862   4.725   5.004
 1460SOL    HW2 4399   0.832   4.818   5.136
 1461SOL     OW 4400   0.916   4.634   4.015
 1461SOL    HW1 4401   0.979   4.672   3.947
 1461SOL    HW2 4402   0.956   4.551   4.054
 1462SOL     OW 4403   1.014   3.960   4.695
 1462SOL    HW1 4404   1.006   3.924   4.602
 1462SOL    HW2 4405   1.012   3.884   4.760
 1463SOL     OW 4406   0.075   4.069   3.757
 1463SOL    HW1 4407  -0.017   4.041   3.728
 1463SOL    HW2 4408   0.106   4.146   3.701
 1464SOL     OW 4409   0.072   3.890   4.042
 1464SOL    HW1 4410   0.055   3.973   3.988
 1464SOL    HW2 4411   0.162   3.853   4.020
 1465SOL     OW 4412   1.183   5.059   3.843
 1465SOL    HW1 4413   1.084   5.048   3.845
 1465SOL    HW2 4414   1.217   5.074   3.936
 1466SOL     OW 4415   1.674   4.607   4.978
 1466SOL    HW1 4416   1.647   4.518   4.941
 1466SOL    HW2 4417   1.675   4.675   4.905
 1467SOL     OW 4418   1.225   4.049   4.173
 1467SOL    HW1 4419   1.290   3.975   4.162
 1467SOL    HW2 4420   1.245   4.099   4.257
 1468SOL     OW 4421   0.594   4.469   4.376
 1468SOL    HW1 4422   0.644   4.554   4.357
 1468SOL    HW2 4423   0.506   4.471   4.328
 1469SOL     OW 4424   0.859   4.680   4.585
 1469SOL    HW1 4425   0.913   4.611   4.633
 1469SOL    HW2 4426   0.827   4.749   4.651
 1470SOL     OW 4427   1.083   4.708   3.811
 1470SOL    HW1 4428   1.060   4.761   3.729
 1470SOL    HW2 4429   1.164   4.652   3.792
 1471SOL     OW 4430   1.824   3.916   4.951
 1471SOL    HW1 4431   1.820   3.826   4.995
 1471SOL    HW2 4432   1.827   3.905   4.852
 1472SOL     OW 4433   0.428   4.148   4.244
 1472SOL    HW1 4434   0.458   4.076   4.182
 1472SOL    HW2 4435   0.389   4.108   4.327
 1473SOL     OW 4436   1.424   3.938   4.836
 1473SOL    HW1 4437   1.476   3.873   4.891
 1473SOL    HW2 4438   1.375   4.001   4.897
 1474SOL     OW 4439   0.770   5.054   4.025
 1474SOL    HW1 4440   0.724   4.967   4.042
 1474SOL    HW2 4441   0.861   5.051   4.066
 1475SOL     OW 4442   1.352   3.776   3.892
 1475SOL    HW1 4443   1.387   3.735   3.808
 1475SOL    HW2 4444   1.262   3.738   3.912
 1476SOL     OW 4445   1.300   4.177   4.415
 1476SOL    HW1 4446   1.241   4.257   4.419
 1476SOL    HW2 4447   1.315   4.142   4.508
 1477SOL     OW 4448   1.593   3.945   4.606
 1477SOL    HW1 4449   1.509   3.944   4.660
 1477SOL    HW2 4450   1.595   4.028   4.550
 1478SOL     OW 4451   0.039   4.801   4.024
 1478SOL    HW1 4452   0.138   4.790   4.015
 1478SOL    HW2 4453  -0.001   4.715   4.056
 1479SOL     OW 4454   2.092   0.628   0.113
 1479SOL    HW1 4455   1.999   0.626   0.150
 1479SOL    HW2 4456   2.093   0.589   0.021
 1480SOL     OW 4457   2.087   0.275   0.996
 1480SOL    HW1 4458   2.122   0.258   1.088
 1480SOL    HW2 4459   1.999   0.230   0.984
 1481SOL     OW 4460   1.881   0.368   0.647
 1481SOL    HW1 4461   1.799   0.411   0.686
 1481SOL    HW2 4462   1.853   0.295   0.584
 1482SOL     OW 4463   2.431   1.275   1.165
 1482SOL    HW1 4464   2.338   1.268   1.128
 1482SOL    HW2 4465   2.442   1.364   1.209
 1483SOL     OW 4466   3.417   1.511   0.703
 1483SOL    HW1 4467   3.360   1.495   0.784
 1483SOL    HW2 4468   3.358   1.521   0.623
 1484SOL     OW 4469   2.997   0.703   0.717
 1484SOL    HW1 4470   3.054   0.781   0.692
 1484SOL    HW2 4471   2.937   0.729   0.793
 1485SOL     OW 4472   3.617   0.607   0.231
 1485SOL    HW1 4473   3.605   0.594   0.132
 1485SOL    HW2 4474   3.587   0.526   0.280
 1486SOL     OW 4475   2.630   1.144   1.023
 1486SOL    HW1 4476   2.552   1.161   1.083
 1486SOL    HW2 4477   2.664   1.231   0.987
 1487SOL     OW 4478   2.712   0.798   1.823
 1487SOL    HW1 4479   2.708   0.874   1.888
 1487SOL    HW2 4480   2.734   0.834   1.732
 1488SOL     OW 4481   2.547   1.012   0.665
 1488SOL    HW1 4482   2.616   0.996   0.735
 1488SOL    HW2 4483   2.474   1.069   0.703
 1489SOL     OW 4484   2.548   1.161   1.803
 1489SOL    HW1 4485   2.608   1.240   1.817
 1489SOL    HW2 4486   2.462   1.192   1.762
 1490SOL     OW 4487   2.197   1.435   1.061
 1490SOL    HW1 4488   2.119   1.404   1.008
 1490SOL    HW2 4489   2.255   1.493   1.004
 1491SOL     OW 4490   3.322   1.505   1.339
 1491SOL    HW1 4491   3.346   1.599   1.365
 1491SOL    HW2 4492   3.306   1.451   1.421
 1492SOL     OW 4493   2.300   0.392   1.499
 1492SOL    HW1 4494   2.382   0.336   1.508
 1492SOL    HW2 4495   2.219   0.334   1.503
 1493SOL     OW 4496   3.465   0.447   0.737
 1493SOL    HW1 4497   3.391   0.493   0.687
 1493SOL    HW2 4498   3.516   0.515   0.790
 1494SOL     OW 4499   2.093   1.713   0.483
 1494SOL    HW1 4500   2.127   1.790   0.537
 1494SOL    HW2 4501   2.137   1.713   0.393
 1495SOL     OW 4502   2.989   1.341   1.690
 1495SOL    HW1 4503   3.036   1.341   1.778
 1495SOL    HW2 4504   2.941   1.254   1.679
 1496SOL     OW 4505   2.092   1.434   0.538
 1496SOL    HW1 4506   2.066   1.530   0.538
 1496SOL    HW2 4507   2.021   1.380   0.583
 1497SOL     OW 4508   2.102   1.091   0.886
 1497SOL    HW1 4509   2.116   1.007   0.938
 1497SOL    HW2 4510   2.047   1.155   0.941
 1498SOL     OW 4511   2.482   1.786   1.439
 1498SOL    HW1 4512   2.390   1.769   1.474
 1498SOL    HW2 4513   2.510   1.878   1.465
 1499SOL     OW 4514   2.468   0.964   0.123
 1499SOL    HW1 4515   2.475   1.048   0.069
 1499SOL    HW2 4516   2.514   0.977   0.211
 1500SOL     OW 4517   3.456   0.114   1.480
 1500SOL    HW1 4518   3.438   0.181   1.408
 1500SOL    HW2 4519   3.453   0.160   1.569
 1501SOL     OW 4520   1.984   0.643   0.563
 1501SOL    HW1 4521   1.939   0.555   0.580
 1501SOL    HW2 4522   1.983   0.697   0.647
 1502SOL     OW 4523   3.704   1.767   0.359
 1502SOL    HW1 4524   3.758   1.738   0.439
 1502SOL    HW2 4525   3.734   1.857   0.330
 1503SOL     OW 4526   1.889   1.596   0.117
 1503SOL    HW1 4527   1.870   1.500   0.138
 1503SOL    HW2 4528   1.856   1.654   0.192
 1504SOL     OW 4529   3.551   0.922   0.612
 1504SOL    HW1 4530   3.646   0.893   0.620
 1504SOL    HW2 4531   3.543   0.987   0.537
 1505SOL     OW 4532   3.503   1.108   0.432
 1505SOL    HW1 4533   3.589   1.110   0.380
 1505SOL    HW2 4534   3.517   1.155   0.520
 1506SOL     OW 4535   1.975   0.737   1.597
 1506SOL    HW1 4536   2.063   0.724   1.642
 1506SOL    HW2 4537   1.962   0.834   1.575
 1507SOL     OW 4538   2.475   1.365   0.726
 1507SOL    HW1 4539   2.426   1.278   0.735
 1507SOL    HW2 4540   2.452   1.408   0.639
 1508SOL     OW 4541   3.155   1.228   1.423
 1508SOL    HW1 4542   3.192   1.155   1.365
 1508SOL    HW2 4543   3.207   1.233   1.508
 1509SOL     OW 4544   2.671   0.004   0.502
 1509SOL    HW1 4545   2.711   0.095   0.493
 1509SOL    HW2 4546   2.571   0.012   0.508
 1510SOL     OW 4547   2.059   0.976   1.264
 1510SOL    HW1 4548   2.148   0.931   1.250
 1510SOL    HW2 4549   1.986   0.911   1.245
 1511SOL     OW 4550   3.387   0.999   0.190
 1511SOL    HW1 4551   3.324   0.923   0.203
 1511SOL    HW2 4552   3.435   1.017   0.276
 1512SOL     OW 4553   3.049   1.792   1.616
 1512SOL    HW1 4554   3.073   1.852   1.540
 1512SOL    HW2 4555   3.056   1.697   1.586
 1513SOL     OW 4556   2.179   0.251   1.801
 1513SOL    HW1 4557   2.250   0.322   1.807
 1513SOL    HW2 4558   2.091   0.290   1.829
 1514SOL     OW 4559   3.328   1.417   0.953
 1514SOL    HW1 4560   3.269   1.423   1.033
 1514SOL    HW2 4561   3.313   1.329   0.907
 1515SOL     OW 4562   3.529   1.714   0.572
 1515SOL    HW1 4563   3.488   1.691   0.484
 1515SOL    HW2 4564   3.511   1.640   0.637
 1516SOL     OW 4565   2.460   0.729   0.270
 1516SOL    HW1 4566   2.484   0.798   0.202
 1516SOL    HW2 4567   2.382   0.762   0.324
 1517SOL     OW 4568   3.143   0.345   0.944
 1517SOL    HW1 4569   3.057   0.295   0.931
 1517SOL    HW2 4570   3.205   0.291   1.000
 1518SOL     OW 4571   3.438   1.662   0.307
 1518SOL    HW1 4572   3.527   1.708   0.310
 1518SOL    HW2 4573   3.417   1.638   0.212
 1519SOL     OW 4574   2.669   0.605   1.465
 1519SOL    HW1 4575   2.622   0.602   1.554
 1519SOL    HW2 4576   2.618   0.550   1.399
 1520SOL     OW 4577   3.256   0.469   1.674
 1520SOL    HW1 4578   3.236   0.512   1.762
 1520SOL    HW2 4579   3.334   0.407   1.683
 1521SOL     OW 4580   2.835   0.890   1.572
 1521SOL    HW1 4581   2.881   0.806   1.543
 1521SOL    HW2 4582   2.779   0.924   1.497
 1522SOL     OW 4583   2.853   0.410   1.242
 1522SOL    HW1 4584   2.776   0.444   1.296
 1522SOL    HW2 4585   2.819   0.359   1.163
 1523SOL     OW 4586   2.903   0.701   0.429
 1523SOL    HW1 4587   2.929   0.697   0.525
 1523SOL    HW2 4588   2.818   0.650   0.415
 1524SOL     OW 4589   1.938   0.811   0.789
 1524SOL    HW1 4590   2.037   0.799   0.798
 1524SOL    HW2 4591   1.914   0.906   0.810
 1525SOL     OW 4592   1.992   1.821   1.571
 1525SOL    HW1 4593   1.982   1.806   1.670
 1525SOL    HW2 4594   1.906   1.857   1.535
 1526SOL     OW 4595   2.727   0.348   0.195
 1526SOL    HW1 4596   2.786   0.411   0.146
 1526SOL    HW2 4597   2.746   0.254   0.166
 1527SOL     OW 4598   3.581   0.585   1.831
 1527SOL    HW1 4599   3.555   0.674   1.795
 1527SOL    HW2 4600   3.579   0.517   1.758
 1528SOL     OW 4601   3.224   1.144   0.545
 1528SOL    HW1 4602   3.307   1.115   0.497
 1528SOL    HW2 4603   3.175   1.211   0.489
 1529SOL     OW 4604   2.412   0.196   0.885
 1529SOL    HW1 4605   2.407   0.191   0.985
 1529SOL    HW2 4606   2.414   0.292   0.856
 1530SOL     OW 4607   2.870   1.456   0.477
 1530SOL    HW1 4608   2.824   1.528   0.425
 1530SOL    HW2 4609   2.866   1.476   0.575
 1531SOL     OW 4610   2.213   1.801   0.853
 1531SOL    HW1 4611   2.263   1.715   0.859
 1531SOL    HW2 4612   2.278   1.878   0.850
 1532SOL     OW 4613   3.657   1.066   0.873
 1532SOL    HW1 4614   3.595   1.051   0.797
 1532SOL    HW2 4615   3.605   1.077   0.958
 1533SOL     OW 4616   3.089   1.550   1.506
 1533SOL    HW1 4617   3.095   1.473   1.570
 1533SOL    HW2 4618   3.037   1.524   1.426
 1534SOL     OW 4619   2.183   0.943   0.242
 1534SOL    HW1 4620   2.265   0.982   0.200
 1534SOL    HW2 4621   2.156   0.861   0.193
 1535SOL     OW 4622   3.320   0.735   0.728
 1535SOL    HW1 4623   3.315   0.670   0.803
 1535SOL    HW2 4624   3.400   0.794   0.741
 1536SOL     OW 4625   2.323   1.266   1.727
 1536SOL    HW1 4626   2.273   1.267   1.641
 1536SOL    HW2 4627   2.260   1.248   1.803
 1537SOL     OW 4628   2.973   1.776   0.237
 1537SOL    HW1 4629   2.913   1.714   0.287
 1537SOL    HW2 4630   3.004   1.732   0.152
 1538SOL     OW 4631   2.064   0.285   1.498
 1538SOL    HW1 4632   1.984   0.345   1.485
 1538SOL    HW2 4633   2.054   0.236   1.584
 1539SOL     OW 4634   3.494   1.377   0.081
 1539SOL    HW1 4635   3.462   1.471   0.071
 1539SOL    HW2 4636   3.418   1.314   0.069
 1540SOL     OW 4637   2.326   1.743   0.323
 1540SOL    HW1 4638   2.359   1.782   0.409
 1540SOL    HW2 4639   2.402   1.736   0.258
 1541SOL     OW 4640   3.262   0.107   0.426
 1541SOL    HW1 4641   3.238   0.070   0.336
 1541SOL    HW2 4642   3.361   0.123   0.430
 1542SOL     OW 4643   2.111   1.785   1.241
 1542SOL    HW1 4644   2.168   1.720   1.291
 1542SOL    HW2 4645   2.095   1.752   1.148
 1543SOL     OW 4646   2.802   1.698   0.904
 1543SOL    HW1 4647   2.882   1.641   0.925
 1543SOL    HW2 4648   2.753   1.658   0.827
 1544SOL     OW 4649   2.244   0.700   0.480
 1544SOL    HW1 4650   2.289   0.610   0.477
 1544SOL    HW2 4651   2.150   0.689   0.513
 1545SOL     OW 4652   3.409   0.222   1.729
 1545SOL    HW1 4653   3.404   0.259   1.821
 1545SOL    HW2 4654   3.337   0.153   1.717
 1546SOL     OW 4655   2.476   0.122   0.117
 1546SOL    HW1 4656   2.574   0.100   0.124
 1546SOL    HW2 4657   2.445   0.105   0.024
 1547SOL     OW 4658   2.643   0.264   1.749
 1547SOL    HW1 4659   2.710   0.203   1.792
 1547SOL    HW2 4660   2.570   0.283   1.814
 1548SOL     OW 4661   2.750   1.514   1.195
 1548SOL    HW1 4662   2.727   1.489   1.101
 1548SOL    HW2 4663   2.811   1.445   1.234
 1549SOL     OW 4664   3.213   0.590   1.433
 1549SOL    HW1 4665   3.241   0.547   1.518
 1549SOL    HW2 4666   3.238   0.686   1.434
 1550SOL     OW 4667   2.665   1.402   0.924
 1550SOL    HW1 4668   2.755   1.416   0.882
 1550SOL    HW2 4669   2.594   1.404   0.853
 1551SOL     OW 4670   2.784   0.503   0.899
 1551SOL    HW1 4671   2.759   0.494   0.803
 1551SOL    HW2 4672   2.832   0.421   0.930
 1552SOL     OW 4673   2.401   0.064   0.512
 1552SOL    HW1 4674   2.320   0.065   0.570
 1552SOL    HW2 4675   2.404   0.147   0.457
 1553SOL     OW 4676   3.296   1.188   0.041
 1553SOL    HW1 4677   3.328   1.112   0.098
 1553SOL    HW2 4678   3.204   1.215   0.071
 1554SOL     OW 4679   2.159   0.035   0.171
 1554SOL    HW1 4680   2.208   0.119   0.150
 1554SOL    HW2 4681   2.221  -0.030   0.216
 1555SOL     OW 4682   2.797   0.236   0.480
 1555SOL    HW1 4683   2.749   0.277   0.402
 1555SOL    HW2 4684   2.896   0.234   0.461
 1556SOL     OW 4685   2.938   0.683   1.464
 1556SOL    HW1 4686   2.858   0.622   1.467
 1556SOL    HW2 4687   3.019   0.630   1.440
 1557SOL     OW 4688   3.089   1.570   0.793
 1557SOL    HW1 4689   3.110   1.644   0.728
 1557SOL    HW2 4690   3.157   1.570   0.866
 1558SOL     OW 4691   2.321   1.152   0.741
 1558SOL    HW1 4692   2.250   1.125   0.806
 1558SOL    HW2 4693   2.295   1.124   0.648
 1559SOL     OW 4694   3.133   1.797   0.591
 1559SOL    HW1 4695   3.177   1.861   0.527
 1559SOL    HW2 4696   3.083   1.849   0.661
 1560SOL     OW 4697   2.894   0.549   0.016
 1560SOL    HW1 4698   2.853   0.631  -0.023
 1560SOL    HW2 4699   2.958   0.575   0.089
 1561SOL     OW 4700   1.940   0.556   1.386
 1561SOL    HW1 4701   2.032   0.555   1.345
 1561SOL    HW2 4702   1.934   0.630   1.453
 1562SOL     OW 4703   2.423   0.222   1.147
 1562SOL    HW1 4704   2.461   0.138   1.184
 1562SOL    HW2 4705   2.335   0.241   1.191
 1563SOL     OW 4706   2.728   0.454   0.642
 1563SOL    HW1 4707   2.696   0.526   0.580
 1563SOL    HW2 4708   2.752   0.373   0.589
 1564SOL     OW 4709   2.879   0.039   0.753
 1564SOL    HW1 4710   2.807   0.044   0.684
 1564SOL    HW2 4711   2.855  -0.030   0.822
 1565SOL     OW 4712   3.291   1.173   0.867
 1565SOL    HW1 4713   3.236   1.089   0.860
 1565SOL    HW2 4714   3.317   1.202   0.775
 1566SOL     OW 4715   3.328   0.590   0.992
 1566SOL    HW1 4716   3.298   0.495   0.999
 1566SOL    HW2 4717   3.401   0.606   1.058
 1567SOL     OW 4718   3.719   0.833   0.377
 1567SOL    HW1 4719   3.761   0.769   0.441
 1567SOL    HW2 4720   3.681   0.782   0.299
 1568SOL     OW 4721   2.350   1.385   0.174
 1568SOL    HW1 4722   2.263   1.370   0.221
 1568SOL    HW2 4723   2.333   1.411   0.079
 1569SOL     OW 4724   3.526   1.280   0.657
 1569SOL    HW1 4725   3.625   1.288   0.671
 1569SOL    HW2 4726   3.481   1.364   0.688
 1570SOL     OW 4727   3.252   0.575   0.078
 1570SOL    HW1 4728   3.198   0.554   0.159
 1570SOL    HW2 4729   3.343   0.534   0.087
 1571SOL     OW 4730   2.389   0.256   0.328
 1571SOL    HW1 4731   2.416   0.197   0.253
 1571SOL    HW2 4732   2.389   0.351   0.297
 1572SOL     OW 4733   3.616   1.223   1.588
 1572SOL    HW1 4734   3.707   1.184   1.575
 1572SOL    HW2 4735   3.624   1.319   1.612
 1573SOL     OW 4736   2.926   1.347   1.340
 1573SOL    HW1 4737   2.846   1.324   1.395
 1573SOL    HW2 4738   3.009   1.321   1.389
 1574SOL     OW 4739   3.454   1.629   1.625
 1574SOL    HW1 4740   3.481   1.663   1.535
 1574SOL    HW2 4741   3.533   1.591   1.671
 1575SOL     OW 4742   2.973   1.195   1.100
 1575SOL    HW1 4743   2.933   1.239   1.181
 1575SOL    HW2 4744   2.932   1.232   1.017
 1576SOL     OW 4745   3.500   1.099   1.079
 1576SOL    HW1 4746   3.505   1.180   1.138
 1576SOL    HW2 4747   3.414   1.101   1.028
 1577SOL     OW 4748   2.777   0.089   1.402
 1577SOL    HW1 4749   2.802   0.069   1.307
 1577SOL    HW2 4750   2.849   0.145   1.444
 1578SOL     OW 4751   2.842   1.116   1.719
 1578SOL    HW1 4752   2.743   1.122   1.729
 1578SOL    HW2 4753   2.865   1.036   1.663
 1579SOL     OW 4754   2.567   1.050   0.368
 1579SOL    HW1 4755   2.553   1.057   0.467
 1579SOL    HW2 4756   2.651   0.999   0.350
 1580SOL     OW 4757   2.272   0.813   1.251
 1580SOL    HW1 4758   2.358   0.825   1.301
 1580SOL    HW2 4759   2.230   0.726   1.278
 1581SOL     OW 4760   3.136   0.386   1.262
 1581SOL    HW1 4761   3.157   0.460   1.326
 1581SOL    HW2 4762   3.047   0.403   1.219
 1582SOL     OW 4763   1.926   1.564   1.331
 1582SOL    HW1 4764   1.880   1.646   1.297
 1582SOL    HW2 4765   2.024   1.583   1.340
 1583SOL     OW 4766   2.229   1.100   0.501
 1583SOL    HW1 4767   2.222   1.183   0.445
 1583SOL    HW2 4768   2.233   1.020   0.441
 1584SOL     OW 4769   2.428   0.537   0.865
 1584SOL    HW1 4770   2.440   0.603   0.791
 1584SOL    HW2 4771   2.474   0.571   0.948
 1585SOL     OW 4772   3.114   1.348   0.388
 1585SOL    HW1 4773   3.164   1.425   0.428
 1585SOL    HW2 4774   3.019   1.350   0.420
 1586SOL     OW 4775   3.134   1.445   1.142
 1586SOL    HW1 4776   3.181   1.458   1.229
 1586SOL    HW2 4777   3.068   1.371   1.151
 1587SOL     OW 4778   3.444   0.639   0.472
 1587SOL    HW1 4779   3.413   0.700   0.545
 1587SOL    HW2 4780   3.494   0.691   0.403
 1588SOL     OW 4781   2.216   1.510   1.329
 1588SOL    HW1 4782   2.195   1.466   1.242
 1588SOL    HW2 4783   2.313   1.536   1.332
 1589SOL     OW 4784   2.264   0.751   1.598
 1589SOL    HW1 4785   2.332   0.806   1.551
 1589SOL    HW2 4786   2.304   0.663   1.625
 1590SOL     OW 4787   3.449   0.779   1.670
 1590SOL    HW1 4788   3.357   0.817   1.665
 1590SOL    HW2 4789   3.509   0.826   1.605
 1591SOL     OW 4790   2.875   0.105   1.770
 1591SOL    HW1 4791   2.881   0.190   1.718
 1591SOL    HW2 4792   2.907   0.029   1.713
 1592SOL     OW 4793   2.366   0.050   1.740
 1592SOL    HW1 4794   2.324  -0.007   1.670
 1592SOL    HW2 4795   2.300   0.119   1.772
 1593SOL     OW 4796   2.435   0.870   1.029
 1593SOL    HW1 4797   2.479   0.959   1.020
 1593SOL    HW2 4798   2.372   0.870   1.106
 1594SOL     OW 4799   3.222   0.862   1.045
 1594SOL    HW1 4800   3.147   0.862   0.979
 1594SOL    HW2 4801   3.259   0.770   1.054
 1595SOL     OW 4802   3.071   0.525   0.275
 1595SOL    HW1 4803   3.084   0.441   0.329
 1595SOL    HW2 4804   3.042   0.599   0.335
 1596SOL     OW 4805   2.169   0.213   1.231
 1596SOL    HW1 4806   2.146   0.250   1.321
 1596SOL    HW2 4807   2.139   0.118   1.225
 1597SOL     OW 4808   1.899   1.310   1.282
 1597SOL    HW1 4809   1.952   1.261   1.350
 1597SOL    HW2 4810   1.921   1.408   1.287
 1598SOL     OW 4811   2.594   0.634   1.064
 1598SOL    HW1 4812   2.653   0.608   0.988
 1598SOL    HW2 4813   2.566   0.730   1.053
 1599SOL     OW 4814   3.590   0.935   1.854
 1599SOL    HW1 4815   3.544   0.928   1.765
 1599SOL    HW2 4816   3.528   0.979   1.920
 1600SOL     OW 4817   2.169   0.063   0.618
 1600SOL    HW1 4818   2.158   0.157   0.651
 1600SOL    HW2 4819   2.164   0.000   0.695
 1601SOL     OW 4820   3.484   0.367   0.374
 1601SOL    HW1 4821   3.486   0.291   0.438
 1601SOL    HW2 4822   3.436   0.444   0.414
 1602SOL     OW 4823   2.885   0.766   0.966
 1602SOL    HW1 4824   2.900   0.787   1.062
 1602SOL    HW2 4825   2.855   0.671   0.957
 1603SOL     OW 4826   2.842   1.573   1.700
 1603SOL    HW1 4827   2.822   1.617   1.612
 1603SOL    HW2 4828   2.881   1.482   1.684
 1604SOL     OW 4829   3.721   1.518   1.605
 1604SOL    HW1 4830   3.735   1.545   1.510
 1604SOL    HW2 4831   3.804   1.540   1.658
 1605SOL     OW 4832   2.212   0.898   1.804
 1605SOL    HW1 4833   2.288   0.942   1.852
 1605SOL    HW2 4834   2.247   0.851   1.722
 1606SOL     OW 4835   3.402   0.274   0.125
 1606SOL    HW1 4836   3.341   0.199   0.148
 1606SOL    HW2 4837   3.424   0.326   0.208
 1607SOL     OW 4838   3.165   0.838   0.042
 1607SOL    HW1 4839   3.199   0.745   0.057
 1607SOL    HW2 4840   3.183   0.865  -0.053
 1608SOL     OW 4841   2.930   1.333   0.849
 1608SOL    HW1 4842   2.937   1.249   0.794
 1608SOL    HW2 4843   2.992   1.402   0.813
 1609SOL     OW 4844   2.181   0.810   0.949
 1609SOL    HW1 4845   2.274   0.846   0.954
 1609SOL    HW2 4846   2.175   0.725   1.001
 1610SOL     OW 4847   2.201   0.509   1.006
 1610SOL    HW1 4848   2.149   0.426   0.989
 1610SOL    HW2 4849   2.278   0.514   0.942
 1611SOL     OW 4850   3.000   0.380   1.678
 1611SOL    HW1 4851   2.955   0.443   1.742
 1611SOL    HW2 4852   3.093   0.411   1.661
 1612SOL     OW 4853   3.022   0.207   1.477
 1612SOL    HW1 4854   3.022   0.271   1.554
 1612SOL    HW2 4855   3.050   0.255   1.394
 1613SOL     OW 4856   1.870   1.326   0.200
 1613SOL    HW1 4857   1.777   1.347   0.169
 1613SOL    HW2 4858   1.880   1.227   0.213
 1614SOL     OW 4859   1.950   1.801   0.927
 1614SOL    HW1 4860   1.908   1.715   0.900
 1614SOL    HW2 4861   2.044   1.804   0.893
 1615SOL     OW 4862   2.366   1.568   0.910
 1615SOL    HW1 4863   2.432   1.642   0.919
 1615SOL    HW2 4864   2.410   1.489   0.868
 1616SOL     OW 4865   2.864   0.796   1.238
 1616SOL    HW1 4866   2.905   0.764   1.324
 1616SOL    HW2 4867   2.768   0.769   1.235
 1617SOL     OW 4868   1.902   0.544   1.114
 1617SOL    HW1 4869   1.987   0.511   1.073
 1617SOL    HW2 4870   1.915   0.559   1.212
 1618SOL     OW 4871   2.051   0.520   1.722
 1618SOL    HW1 4872   2.110   0.480   1.652
 1618SOL    HW2 4873   1.993   0.591   1.681
 1619SOL     OW 4874   3.231   0.950   1.660
 1619SOL    HW1 4875   3.270   1.039   1.680
 1619SOL    HW2 4876   3.241   0.930   1.563
 1620SOL     OW 4877   2.677   0.572   0.325
 1620SOL    HW1 4878   2.684   0.483   0.279
 1620SOL    HW2 4879   2.583   0.606   0.317
 1621SOL     OW 4880   3.519   0.604   1.206
 1621SOL    HW1 4881   3.481   0.535   1.268
 1621SOL    HW2 4882   3.601   0.568   1.162
 1622SOL     OW 4883   2.114   1.564   1.744
 1622SOL    HW1 4884   2.084   1.621   1.820
 1622SOL    HW2 4885   2.107   1.467   1.770
 1623SOL     OW 4886   2.533   0.464   1.269
 1623SOL    HW1 4887   2.499   0.375   1.239
 1623SOL    HW2 4888   2.559   0.518   1.189
 1624SOL     OW 4889   2.792   1.678   1.465
 1624SOL    HW1 4890   2.768   1.660   1.370
 1624SOL    HW2 4891   2.822   1.772   1.475
 1625SOL     OW 4892   2.335   0.500   0.191
 1625SOL    HW1 4893   2.396   0.580   0.195
 1625SOL    HW2 4894   2.240   0.531   0.198
 1626SOL     OW 4895   2.021   1.137   1.466
 1626SOL    HW1 4896   2.043   1.076   1.542
 1626SOL    HW2 4897   2.031   1.088   1.380
 1627SOL     OW 4898   3.209   1.059   1.234
 1627SOL    HW1 4899   3.233   0.996   1.160
 1627SOL    HW2 4900   3.119   1.099   1.216
 1628SOL     OW 4901   3.164   0.855   0.309
 1628SOL    HW1 4902   3.078   0.824   0.351
 1628SOL    HW2 4903   3.160   0.841   0.210
 1629SOL     OW 4904   3.621   1.747   1.154
 1629SOL    HW1 4905   3.682   1.777   1.081
 1629SOL    HW2 4906   3.583   1.658   1.132
 1630SOL     OW 4907   3.114   1.731   1.128
 1630SOL    HW1 4908   3.198   1.736   1.074
 1630SOL    HW2 4909   3.091   1.635   1.146
 1631SOL     OW 4910   1.945   1.258   1.022
 1631SOL    HW1 4911   1.940   1.257   1.122
 1631SOL    HW2 4912   1.862   1.217   0.984
 1632SOL     OW 4913   2.550   1.662   1.716
 1632SOL    HW1 4914   2.494   1.743   1.725
 1632SOL    HW2 4915   2.602   1.666   1.630
 1633SOL     OW 4916   2.765   0.086   0.133
 1633SOL    HW1 4917   2.816   0.087   0.047
 1633SOL    HW2 4918   2.821   0.044   0.204
 1634SOL     OW 4919   3.588   0.135   0.523
 1634SOL    HW1 4920   3.661   0.118   0.456
 1634SOL    HW2 4921   3.557   0.048   0.561
 1635SOL     OW 4922   3.250   1.573   0.477
 1635SOL    HW1 4923   3.317   1.585   0.403
 1635SOL    HW2 4924   3.210   1.662   0.500
 1636SOL     OW 4925   1.992   1.794   1.851
 1636SOL    HW1 4926   1.951   1.720   1.904
 1636SOL    HW2 4927   2.056   1.845   1.909
 1637SOL     OW 4928   3.142   0.927   0.672
 1637SOL    HW1 4929   3.202   0.846   0.674
 1637SOL    HW2 4930   3.182   0.996   0.612
 1638SOL     OW 4931   2.692   1.273   1.422
 1638SOL    HW1 4932   2.687   1.306   1.517
 1638SOL    HW2 4933   2.606   1.292   1.376
 1639SOL     OW 4934   2.534   1.616   0.154
 1639SOL    HW1 4935   2.543   1.626   0.055
 1639SOL    HW2 4936   2.494   1.527   0.175
 1640SOL     OW 4937   3.512   1.720   1.394
 1640SOL    HW1 4938   3.565   1.730   1.310
 1640SOL    HW2 4939   3.485   1.810   1.428
 1641SOL     OW 4940   3.703   0.175   0.963
 1641SOL    HW1 4941   3.742   0.090   0.927
 1641SOL    HW2 4942   3.605   0.177   0.944
 1642SOL     OW 4943   2.125   0.326   0.720
 1642SOL    HW1 4944   2.046   0.377   0.686
 1642SOL    HW2 4945   2.116   0.311   0.818
 1643SOL     OW 4946   3.056   1.612   0.031
 1643SOL    HW1 4947   3.062   1.519   0.068
 1643SOL    HW2 4948   2.997   1.612  -0.049
 1644SOL     OW 4949   2.684   1.002   1.372
 1644SOL    HW1 4950   2.724   1.001   1.280
 1644SOL    HW2 4951   2.694   1.094   1.412
 1645SOL     OW 4952   2.778   0.910   0.291
 1645SOL    HW1 4953   2.841   0.948   0.223
 1645SOL    HW2 4954   2.818   0.827   0.330
 1646SOL     OW 4955   3.366   1.607   0.044
 1646SOL    HW1 4956   3.274   1.644   0.051
 1646SOL    HW2 4957   3.404   1.627  -0.046
 1647SOL     OW 4958   2.234   1.288   1.490
 1647SOL    HW1 4959   2.221   1.381   1.456
 1647SOL    HW2 4960   2.150   1.236   1.477
 1648SOL     OW 4961   3.476   1.292   1.289
 1648SOL    HW1 4962   3.536   1.295   1.369
 1648SOL    HW2 4963   3.401   1.356   1.302
 1649SOL     OW 4964   2.901   1.098   0.696
 1649SOL    HW1 4965   2.831   1.051   0.750
 1649SOL    HW2 4966   2.960   1.030   0.653
 1650SOL     OW 4967   2.876   0.236   0.971
 1650SOL    HW1 4968   2.868   0.200   0.878
 1650SOL    HW2 4969   2.874   0.160   1.036
 1651SOL     OW 4970   2.452   1.487   0.491
 1651SOL    HW1 4971   2.494   1.429   0.421
 1651SOL    HW2 4972   2.408   1.566   0.447
 1652SOL     OW 4973   3.571   0.385   1.381
 1652SOL    HW1 4974   3.644   0.454   1.385
 1652SOL    HW2 4975   3.599   0.310   1.322
 1653SOL     OW 4976   2.117   1.348   0.290
 1653SOL    HW1 4977   2.021   1.349   0.263
 1653SOL    HW2 4978   2.129   1.401   0.374
 1654SOL     OW 4979   1.967   1.013   1.726
 1654SOL    HW1 4980   1.890   0.980   1.780
 1654SOL    HW2 4981   2.052   0.983   1.768
 1655SOL     OW 4982   2.534   0.203   1.489
 1655SOL    HW1 4983   2.624   0.187   1.449
 1655SOL    HW2 4984   2.542   0.208   1.588
 1656SOL     OW 4985   3.302   0.856   1.398
 1656SOL    HW1 4986   3.245   0.908   1.335
 1656SOL    HW2 4987   3.398   0.868   1.374
 1657SOL     OW 4988   1.934   0.166   0.318
 1657SOL    HW1 4989   1.917   0.249   0.264
 1657SOL    HW2 4990   2.024   0.129   0.296
 1658SOL     OW 4991   3.045   1.335   0.119
 1658SOL    HW1 4992   2.946   1.324   0.121
 1658SOL    HW2 4993   3.079   1.350   0.212
 1659SOL     OW 4994   2.475   0.842   1.431
 1659SOL    HW1 4995   2.531   0.923   1.414
 1659SOL    HW2 4996   2.534   0.762   1.434
 1660SOL     OW 4997   3.355   1.767   0.959
 1660SOL    HW1 4998   3.388   1.831   0.890
 1660SOL    HW2 4999   3.421   1.761   1.034
 1661SOL     OW 5000   2.578   0.565   1.708
 1661SOL    HW1 5001   2.597   0.630   1.782
 1661SOL    HW2 5002   2.638   0.485   1.717
 1662SOL     OW 5003   3.312   1.220   1.633
 1662SOL    HW1 5004   3.303   1.210   1.732
 1662SOL    HW2 5005   3.408   1.213   1.607
 1663SOL     OW 5006   2.252   1.741   1.560
 1663SOL    HW1 5007   2.161   1.782   1.558
 1663SOL    HW2 5008   2.245   1.647   1.592
 1664SOL     OW 5009   3.536   0.883   1.254
 1664SOL    HW1 5010   3.509   0.794   1.217
 1664SOL    HW2 5011   3.537   0.951   1.181
 1665SOL     OW 5012   3.087   0.325   0.449
 1665SOL    HW1 5013   3.152   0.251   0.438
 1665SOL    HW2 5014   3.107   0.375   0.533
 1666SOL     OW 5015   2.456   0.745   0.652
 1666SOL    HW1 5016   2.506   0.830   0.633
 1666SOL    HW2 5017   2.368   0.747   0.604
 1667SOL     OW 5018   3.639   0.342   1.642
 1667SOL    HW1 5019   3.622   0.373   1.548
 1667SOL    HW2 5020   3.555   0.305   1.680
 1668SOL     OW 5021   3.592   0.934   1.517
 1668SOL    HW1 5022   3.630   1.025   1.532
 1668SOL    HW2 5023   3.584   0.917   1.418
 1669SOL     OW 5024   2.721   1.374   0.016
 1669SOL    HW1 5025   2.675   1.389   0.104
 1669SOL    HW2 5026   2.765   1.459  -0.014
 1670SOL     OW 5027   2.523   1.790   0.953
 1670SOL    HW1 5028   2.477   1.878   0.940
 1670SOL    HW2 5029   2.622   1.802   0.946
 1671SOL     OW 5030   2.721   0.956   0.861
 1671SOL    HW1 5031   2.775   0.887   0.909
 1671SOL    HW2 5032   2.689   1.025   0.927
 1672SOL     OW 5033   2.945   0.984   0.087
 1672SOL    HW1 5034   2.922   1.037   0.005
 1672SOL    HW2 5035   3.026   0.928   0.068
 1673SOL     OW 5036   3.723   1.569   0.851
 1673SOL    HW1 5037   3.652   1.557   0.781
 1673SOL    HW2 5038   3.724   1.490   0.911
 1674SOL     OW 5039   2.083   1.314   1.844
 1674SOL    HW1 5040   2.018   1.241   1.823
 1674SOL    HW2 5041   2.087   1.328   1.942
 1675SOL     OW 5042   1.941   1.240   0.653
 1675SOL    HW1 5043   1.940   1.193   0.741
 1675SOL    HW2 5044   2.023   1.212   0.602
 1676SOL     OW 5045   2.534   1.391   1.624
 1676SOL    HW1 5046   2.456   1.341   1.662
 1676SOL    HW2 5047   2.531   1.486   1.655
 1677SOL     OW 5048   3.686   0.192   1.227
 1677SOL    HW1 5049   3.682   0.102   1.271
 1677SOL    HW2 5050   3.689   0.181   1.128
 1678SOL     OW 5051   2.290   0.424   0.520
 1678SOL    HW1 5052   2.320   0.352   0.458
 1678SOL    HW2 5053   2.251   0.384   0.603
 1679SOL     OW 5054   3.567   1.487   1.104
 1679SOL    HW1 5055   3.474   1.462   1.077
 1679SOL    HW2 5056   3.593   1.437   1.186
 1680SOL     OW 5057   2.179   0.547   1.280
 1680SOL    HW1 5058   2.217   0.488   1.352
 1680SOL    HW2 5059   2.219   0.521   1.192
 1681SOL     OW 5060   2.674   1.586   0.687
 1681SOL    HW1 5061   2.706   1.596   0.593
 1681SOL    HW2 5062   2.595   1.524   0.689
 1682SOL     OW 5063   3.286   0.214   1.112
 1682SOL    HW1 5064   3.338   0.149   1.167
 1682SOL    HW2 5065   3.237   0.277   1.173
 1683SOL     OW 5066   2.863   0.034   1.154
 1683SOL    HW1 5067   2.800  -0.038   1.123
 1683SOL    HW2 5068   2.956  -0.002   1.154
 1684SOL     OW 5069   2.632   1.330   0.301
 1684SOL    HW1 5070   2.586   1.243   0.318
 1684SOL    HW2 5071   2.723   1.327   0.342
 1685SOL     OW 5072   2.480   1.567   1.284
 1685SOL    HW1 5073   2.475   1.649   1.341
 1685SOL    HW2 5074   2.569   1.564   1.239
 1686SOL     OW 5075   3.214   0.052   0.168
 1686SOL    HW1 5076   3.249   0.011   0.084
 1686SOL    HW2 5077   3.124   0.014   0.188
 1687SOL     OW 5078   3.162   0.453   0.691
 1687SOL    HW1 5079   3.103   0.533   0.695
 1687SOL    HW2 5080   3.177   0.418   0.784
 1688SOL     OW 5081   3.455   0.221   0.882
 1688SOL    HW1 5082   3.371   0.220   0.936
 1688SOL    HW2 5083   3.457   0.304   0.826
 1689SOL     OW 5084   1.901   1.077   0.300
 1689SOL    HW1 5085   2.000   1.066   0.291
 1689SOL    HW2 5086   1.861   0.991   0.332
 1690SOL     OW 5087   2.737   1.646   0.337
 1690SOL    HW1 5088   2.660   1.611   0.283
 1690SOL    HW2 5089   2.705   1.717   0.399
 1691SOL     OW 5090   2.092   0.628   1.975
 1691SOL    HW1 5091   1.999   0.626   2.012
 1691SOL    HW2 5092   2.093   0.589   1.883
 1692SOL     OW 5093   2.087   0.275   2.858
 1692SOL    HW1 5094   2.122   0.258   2.950
 1692SOL    HW2 5095   1.999   0.230   2.846
 1693SOL     OW 5096   1.881   0.368   2.509
 1693SOL    HW1 5097   1.799   0.411   2.548
 1693SOL    HW2 5098   1.853   0.295   2.446
 1694SOL     OW 5099   2.431   1.275   3.027
 1694SOL    HW1 5100   2.338   1.268   2.990
 1694SOL    HW2 5101   2.442   1.364   3.071
 1695SOL     OW 5102   3.417   1.511   2.565
 1695SOL    HW1 5103   3.360   1.495   2.646
 1695SOL    HW2 5104   3.358   1.521   2.485
 1696SOL     OW 5105   2.997   0.703   2.579
 1696SOL    HW1 5106   3.054   0.781   2.554
 1696SOL    HW2 5107   2.937   0.729   2.655
 1697SOL     OW 5108   3.617   0.607   2.093
 1697SOL    HW1 5109   3.605   0.594   1.994
 1697SOL    HW2 5110   3.587   0.526   2.142
 1698SOL     OW 5111   2.630   1.144   2.885
 1698SOL    HW1 5112   2.552   1.161   2.945
 1698SOL    HW2 5113   2.664   1.231   2.849
 1699SOL     OW 5114   2.712   0.798   3.685
 1699SOL    HW1 5115   2.708   0.874   3.750
 1699SOL    HW2 5116   2.734   0.834   3.594
 1700SOL     OW 5117   2.547   1.012   2.527
 1700SOL    HW1 5118   2.616   0.996   2.597
 1700SOL    HW2 5119   2.474   1.069   2.565
 1701SOL     OW 5120   2.548   1.161   3.665
 1701SOL    HW1 5121   2.608   1.240   3.679
 1701SOL    HW2 5122   2.462   1.192   3.624
 1702SOL     OW 5123   2.197   1.435   2.923
 1702SOL    HW1 5124   2.119   1.404   2.870
 1702SOL    HW2 5125   2.255   1.493   2.866
 1703SOL     OW 5126   3.322   1.505   3.201
 1703SOL    HW1 5127   3.346   1.599   3.227
 1703SOL    HW2 5128   3.306   1.451   3.283
 1704SOL     OW 5129   2.300   0.392   3.361
 1704SOL    HW1 5130   2.382   0.336   3.370
 1704SOL    HW2 5131   2.219   0.334   3.365
 1705SOL     OW 5132   3.465   0.447   2.599
 1705SOL    HW1 5133   3.391   0.493   2.549
 1705SOL    HW2 5134   3.516   0.515   2.652
 1706SOL     OW 5135   2.093   1.713   2.345
 1706SOL    HW1 5136   2.127   1.790   2.399
 1706SOL    HW2 5137   2.137   1.713   2.255
 1707SOL     OW 5138   2.989   1.341   3.552
 1707SOL    HW1 5139   3.036   1.341   3.640
 1707SOL    HW2 5140   2.941   1.254   3.541
 1708SOL     OW 5141   2.092   1.434   2.400
 1708SOL    HW1 5142   2.066   1.530   2.400
 1708SOL    HW2 5143   2.021   1.380   2.445
 1709SOL     OW 5144   2.102   1.091   2.748
 1709SOL    HW1 5145   2.116   1.007   2.800
 1709SOL    HW2 5146   2.047   1.155   2.803
 1710SOL     OW 5147   2.482   1.786   3.301
 1710SOL    HW1 5148   2.390   1.769   3.336
 1710SOL    HW2 5149   2.510   1.878   3.327
 1711SOL     OW 5150   2.468   0.964   1.985
 1711SOL    HW1 5151   2.475   1.048   1.931
 1711SOL    HW2 5152   2.514   0.977   2.073
 1712SOL     OW 5153   3.456   0.114   3.342
 1712SOL    HW1 5154   3.438   0.181   3.270
 1712SOL    HW2 5155   3.453   0.160   3.431
 1713SOL     OW 5156   1.984   0.643   2.425
 1713SOL    HW1 5157   1.939   0.555   2.442
 1713SOL    HW2 5158   1.983   0.697   2.509
 1714SOL     OW 5159   3.704   1.767   2.221
 1714SOL    HW1 5160   3.758   1.738   2.301
 1714SOL    HW2 5161   3.734   1.857   2.192
 1715SOL     OW 5162   1.889   1.596   1.979
 1715SOL    HW1 5163   1.870   1.500   2.000
 1715SOL    HW2 5164   1.856   1.654   2.054
 1716SOL     OW 5165   3.551   0.922   2.474
 1716SOL    HW1 5166   3.646   0.893   2.482
 1716SOL    HW2 5167   3.543   0.987   2.399
 1717SOL     OW 5168   3.503   1.108   2.294
 1717SOL    HW1 5169   3.589   1.110   2.242
 1717SOL    HW2 5170   3.517   1.155   2.382
 1718SOL     OW 5171   1.975   0.737   3.459
 1718SOL    HW1 5172   2.063   0.724   3.504
 1718SOL    HW2 5173   1.962   0.834   3.437
 1719SOL     OW 5174   2.475   1.365   2.588
 1719SOL    HW1 5175   2.426   1.278   2.597
 1719SOL    HW2 5176   2.452   1.408   2.501
 1720SOL     OW 5177   3.155   1.228   3.285
 1720SOL    HW1 5178   3.192   1.155   3.227
 1720SOL    HW2 5179   3.207   1.233   3.370
 1721SOL     OW 5180   2.671   0.004   2.364
 1721SOL    HW1 5181   2.711   0.095   2.355
 1721SOL    HW2 5182   2.571   0.012   2.370
 1722SOL     OW 5183   2.059   0.976   3.126
 1722SOL    HW1 5184   2.148   0.931   3.112
 1722SOL    HW2 5185   1.986   0.911   3.107
 1723SOL     OW 5186   3.387   0.999   2.052
 1723SOL    HW1 5187   3.324   0.923   2.065
 1723SOL    HW2 5188   3.435   1.017   2.138
 1724SOL     OW 5189   3.049   1.792   3.478
 1724SOL    HW1 5190   3.073   1.852   3.402
 1724SOL    HW2 5191   3.056   1.697   3.448
 1725SOL     OW 5192   2.179   0.251   3.663
 1725SOL    HW1 5193   2.250   0.322   3.669
 1725SOL    HW2 5194   2.091   0.290   3.691
 1726SOL     OW 5195   3.328   1.417   2.815
 1726SOL    HW1 5196   3.269   1.423   2.895
 1726SOL    HW2 5197   3.313   1.329   2.769
 1727SOL     OW 5198   3.529   1.714   2.434
 1727SOL    HW1 5199   3.488   1.691   2.346
 1727SOL    HW2 5200   3.511   1.640   2.499
 1728SOL     OW 5201   2.460   0.729   2.132
 1728SOL    HW1 5202   2.484   0.798   2.064
 1728SOL    HW2 5203   2.382   0.762   2.186
 1729SOL     OW 5204   3.143   0.345   2.806
 1729SOL    HW1 5205   3.057   0.295   2.793
 1729SOL    HW2 5206   3.205   0.291   2.862
 1730SOL     OW 5207   3.438   1.662   2.169
 1730SOL    HW1 5208   3.527   1.708   2.172
 1730SOL    HW2 5209   3.417   1.638   2.074
 1731SOL     OW 5210   2.669   0.605   3.327
 1731SOL    HW1 5211   2.622   0.602   3.416
 1731SOL    HW2 5212   2.618   0.550   3.261
 1732SOL     OW 5213   3.256   0.469   3.536
 1732SOL    HW1 5214   3.236   0.512   3.624
 1732SOL    HW2 5215   3.334   0.407   3.545
 1733SOL     OW 5216   2.835   0.890   3.434
 1733SOL    HW1 5217   2.881   0.806   3.405
 1733SOL    HW2 5218   2.779   0.924   3.359
 1734SOL     OW 5219   2.853   0.410   3.104
 1734SOL    HW1 5220   2.776   0.444   3.158
 1734SOL    HW2 5221   2.819   0.359   3.025
 1735SOL     OW 5222   2.903   0.701   2.291
 1735SOL    HW1 5223   2.929   0.697   2.387
 1735SOL    HW2 5224   2.818   0.650   2.277
 1736SOL     OW 5225   1.938   0.811   2.651
 1736SOL    HW1 5226   2.037   0.799   2.660
 1736SOL    HW2 5227   1.914   0.906   2.672
 1737SOL     OW 5228   1.992   1.821   3.433
 1737SOL    HW1 5229   1.982   1.806   3.532
 1737SOL    HW2 5230   1.906   1.857   3.397
 1738SOL     OW 5231   2.727   0.348   2.057
 1738SOL    HW1 5232   2.786   0.411   2.008
 1738SOL    HW2 5233   2.746   0.254   2.028
 1739SOL     OW 5234   3.581   0.585   3.693
 1739SOL    HW1 5235   3.555   0.674   3.657
 1739SOL    HW2 5236   3.579   0.517   3.620
 1740SOL     OW 5237   3.224   1.144   2.407
 1740SOL    HW1 5238   3.307   1.115   2.359
 1740SOL    HW2 5239   3.175   1.211   2.351
 1741SOL     OW 5240   2.412   0.196   2.747
 1741SOL    HW1 5241   2.407   0.191   2.847
 1741SOL    HW2 5242   2.414   0.292   2.718
 1742SOL     OW 5243   2.870   1.456   2.339
 1742SOL    HW1 5244   2.824   1.528   2.287
 1742SOL    HW2 5245   2.866   1.476   2.437
 1743SOL     OW 5246   2.213   1.801   2.715
 1743SOL    HW1 5247   2.263   1.715   2.721
 1743SOL    HW2 5248   2.278   1.878   2.712
 1744SOL     OW 5249   3.657   1.066   2.735
 1744SOL    HW1 5250   3.595   1.051   2.659
 1744SOL    HW2 5251   3.605   1.077   2.820
 1745SOL     OW 5252   3.089   1.550   3.368
 1745SOL    HW1 5253   3.095   1.473   3.432
 1745SOL    HW2 5254   3.037   1.524   3.288
 1746SOL     OW 5255   2.183   0.943   2.104
 1746SOL    HW1 5256   2.265   0.982   2.062
 1746SOL    HW2 5257   2.156   0.861   2.055
 1747SOL     OW 5258   3.320   0.735   2.590
 1747SOL    HW1 5259   3.315   0.670   2.665
 1747SOL    HW2 5260   3.400   0.794   2.603
 1748SOL     OW 5261   2.323   1.266   3.589
 1748SOL    HW1 5262   2.273   1.267   3.503
 1748SOL    HW2 5263   2.260   1.248   3.665
 1749SOL     OW 5264   2.973   1.776   2.099
 1749SOL    HW1 5265   2.913   1.714   2.149
 1749SOL    HW2 5266   3.004   1.732   2.014
 1750SOL     OW 5267   2.064   0.285   3.360
 1750SOL    HW1 5268   1.984   0.345   3.347
 1750SOL    HW2 5269   2.054   0.236   3.446
 1751SOL     OW 5270   3.494   1.377   1.943
 1751SOL    HW1 5271   3.462   1.471   1.933
 1751SOL    HW2 5272   3.418   1.314   1.931
 1752SOL     OW 5273   2.326   1.743   2.185
 1752SOL    HW1 5274   2.359   1.782   2.271
 1752SOL    HW2 5275   2.402   1.736   2.120
 1753SOL     OW 5276   3.262   0.107   2.288
 1753SOL    HW1 5277   3.238   0.070   2.198
 1753SOL    HW2 5278   3.361   0.123   2.292
 1754SOL     OW 5279   2.111   1.785   3.103
 1754SOL    HW1 5280   2.168   1.720   3.153
 1754SOL    HW2 5281   2.095   1.752   3.010
 1755SOL     OW 5282   2.802   1.698   2.766
 1755SOL    HW1 5283   2.882   1.641   2.787
 1755SOL    HW2 5284   2.753   1.658   2.689
 1756SOL     OW 5285   2.244   0.700   2.342
 1756SOL    HW1 5286   2.289   0.610   2.339
 1756SOL    HW2 5287   2.150   0.689   2.375
 1757SOL     OW 5288   3.409   0.222   3.591
 1757SOL    HW1 5289   3.404   0.259   3.683
 1757SOL    HW2 5290   3.337   0.153   3.579
 1758SOL     OW 5291   2.476   0.122   1.979
 1758SOL    HW1 5292   2.574   0.100   1.986
 1758SOL    HW2 5293   2.445   0.105   1.886
 1759SOL     OW 5294   2.643   0.264   3.611
 1759SOL    HW1 5295   2.710   0.203   3.654
 1759SOL    HW2 5296   2.570   0.283   3.676
 1760SOL     OW 5297   2.750   1.514   3.057
 1760SOL    HW1 5298   2.727   1.489   2.963
 1760SOL    HW2 5299   2.811   1.445   3.096
 1761SOL     OW 5300   3.213   0.590   3.295
 1761SOL    HW1 5301   3.241   0.547   3.380
 1761SOL    HW2 5302   3.238   0.686   3.296
 1762SOL     OW 5303   2.665   1.402   2.786
 1762SOL    HW1 5304   2.755   1.416   2.744
 1762SOL    HW2 5305   2.594   1.404   2.715
 1763SOL     OW 5306   2.784   0.503   2.761
 1763SOL    HW1 5307   2.759   0.494   2.665
 1763SOL    HW2 5308   2.832   0.421   2.792
 1764SOL     OW 5309   2.401   0.064   2.374
 1764SOL    HW1 5310   2.320   0.065   2.432
 1764SOL    HW2 5311   2.404   0.147   2.319
 1765SOL     OW 5312   3.296   1.188   1.903
 1765SOL    HW1 5313   3.328   1.112   1.960
 1765SOL    HW2 5314   3.204   1.215   1.933
 1766SOL     OW 5315   2.159   0.035   2.033
 1766SOL    HW1 5316   2.208   0.119   2.012
 1766SOL    HW2 5317   2.221  -0.030   2.078
 1767SOL     OW 5318   2.797   0.236   2.342
 1767SOL    HW1 5319   2.749   0.277   2.264
 1767SOL    HW2 5320   2.896   0.234   2.323
 1768SOL     OW 5321   2.938   0.683   3.326
 1768SOL    HW1 5322   2.858   0.622   3.329
 1768SOL    HW2 5323   3.019   0.630   3.302
 1769SOL     OW 5324   3.089   1.570   2.655
 1769SOL    HW1 5325   3.110   1.644   2.590
 1769SOL    HW2 5326   3.157   1.570   2.728
 1770SOL     OW 5327   2.321   1.152   2.603
 1770SOL    HW1 5328   2.250   1.125   2.668
 1770SOL    HW2 5329   2.295   1.124   2.510
 1771SOL     OW 5330   3.133   1.797   2.453
 1771SOL    HW1 5331   3.177   1.861   2.389
 1771SOL    HW2 5332   3.083   1.849   2.523
 1772SOL     OW 5333   2.894   0.549   1.878
 1772SOL    HW1 5334   2.853   0.631   1.839
 1772SOL    HW2 5335   2.958   0.575   1.951
 1773SOL     OW 5336   1.940   0.556   3.248
 1773SOL    HW1 5337   2.032   0.555   3.207
 1773SOL    HW2 5338   1.934   0.630   3.315
 1774SOL     OW 5339   2.423   0.222   3.009
 1774SOL    HW1 5340   2.461   0.138   3.046
 1774SOL    HW2 5341   2.335   0.241   3.053
 1775SOL     OW 5342   2.728   0.454   2.504
 1775SOL    HW1 5343   2.696   0.526   2.442
 1775SOL    HW2 5344   2.752   0.373   2.451
 1776SOL     OW 5345   2.879   0.039   2.615
 1776SOL    HW1 5346   2.807   0.044   2.546
 1776SOL    HW2 5347   2.855  -0.030   2.684
 1777SOL     OW 5348   3.291   1.173   2.729
 1777SOL    HW1 5349   3.236   1.089   2.722
 1777SOL    HW2 5350   3.317   1.202   2.637
 1778SOL     OW 5351   3.328   0.590   2.854
 1778SOL    HW1 5352   3.298   0.495   2.861
 1778SOL    HW2 5353   3.401   0.606   2.920
 1779SOL     OW 5354   3.719   0.833   2.239
 1779SOL    HW1 5355   3.761   0.769   2.303
 1779SOL    HW2 5356   3.681   0.782   2.161
 1780SOL     OW 5357   2.350   1.385   2.036
 1780SOL    HW1 5358   2.263   1.370   2.083
 1780SOL    HW2 5359   2.333   1.411   1.941
 1781SOL     OW 5360   3.526   1.280   2.519
 1781SOL    HW1 5361   3.625   1.288   2.533
 1781SOL    HW2 5362   3.481   1.364   2.550
 1782SOL     OW 5363   3.252   0.575   1.940
 1782SOL    HW1 5364   3.198   0.554   2.021
 1782SOL    HW2 5365   3.343   0.534   1.949
 1783SOL     OW 5366   2.389   0.256   2.190
 1783SOL    HW1 5367   2.416   0.197   2.115
 1783SOL    HW2 5368   2.389   0.351   2.159
 1784SOL     OW 5369   3.616   1.223   3.450
 1784SOL    HW1 5370   3.707   1.184   3.437
 1784SOL    HW2 5371   3.624   1.319   3.474
 1785SOL     OW 5372   2.926   1.347   3.202
 1785SOL    HW1 5373   2.846   1.324   3.257
 1785SOL    HW2 5374   3.009   1.321   3.251
 1786SOL     OW 5375   3.454   1.629   3.487
 1786SOL    HW1 5376   3.481   1.663   3.397
 1786SOL    HW2 5377   3.533   1.591   3.533
 1787SOL     OW 5378   2.973   1.195   2.962
 1787SOL    HW1 5379   2.933   1.239   3.043
 1787SOL    HW2 5380   2.932   1.232   2.879
 1788SOL     OW 5381   3.500   1.099   2.941
 1788SOL    HW1 5382   3.505   1.180   3.000
 1788SOL    HW2 5383   3.414   1.101   2.890
 1789SOL     OW 5384   2.777   0.089   3.264
 1789SOL    HW1 5385   2.802   0.069   3.169
 1789SOL    HW2 5386   2.849   0.145   3.306
 1790SOL     OW 5387   2.842   1.116   3.581
 1790SOL    HW1 5388   2.743   1.122   3.591
 1790SOL    HW2 5389   2.865   1.036   3.525
 1791SOL     OW 5390   2.567   1.050   2.230
 1791SOL    HW1 5391   2.553   1.057   2.329
 1791SOL    HW2 5392   2.651   0.999   2.212
 1792SOL     OW 5393   2.272   0.813   3.113
 1792SOL    HW1 5394   2.358   0.825   3.163
 1792SOL    HW2 5395   2.230   0.726   3.140
 1793SOL     OW 5396   3.136   0.386   3.124
 1793SOL    HW1 5397   3.157   0.460   3.188
 1793SOL    HW2 5398   3.047   0.403   3.081
 1794SOL     OW 5399   1.926   1.564   3.193
 1794SOL    HW1 5400   1.880   1.646   3.159
 1794SOL    HW2 5401   2.024   1.583   3.202
 1795SOL     OW 5402   2.229   1.100   2.363
 1795SOL    HW1 5403   2.222   1.183   2.307
 1795SOL    HW2 5404   2.233   1.020   2.303
 1796SOL     OW 5405   2.428   0.537   2.727
 1796SOL    HW1 5406   2.440   0.603   2.653
 1796SOL    HW2 5407   2.474   0.571   2.810
 1797SOL     OW 5408   3.114   1.348   2.250
 1797SOL    HW1 5409   3.164   1.425   2.290
 1797SOL    HW2 5410   3.019   1.350   2.282
 1798SOL     OW 5411   3.134   1.445   3.004
 1798SOL    HW1 5412   3.181   1.458   3.091
 1798SOL    HW2 5413   3.068   1.371   3.013
 1799SOL     OW 5414   3.444   0.639   2.334
 1799SOL    HW1 5415   3.413   0.700   2.407
 1799SOL    HW2 5416   3.494   0.691   2.265
 1800SOL     OW 5417   2.216   1.510   3.191
 1800SOL    HW1 5418   2.195   1.466   3.104
 1800SOL    HW2 5419   2.313   1.536   3.194
 1801SOL     OW 5420   2.264   0.751   3.460
 1801SOL    HW1 5421   2.332   0.806   3.413
 1801SOL    HW2 5422   2.304   0.663   3.487
 1802SOL     OW 5423   3.449   0.779   3.532
 1802SOL    HW1 5424   3.357   0.817   3.527
 1802SOL    HW2 5425   3.509   0.826   3.467
 1803SOL     OW 5426   2.875   0.105   3.632
 1803SOL    HW1 5427   2.881   0.190   3.580
 1803SOL    HW2 5428   2.907   0.029   3.575
 1804SOL     OW 5429   2.366   0.050   3.602
 1804SOL    HW1 5430   2.324  -0.007   3.532
 1804SOL    HW2 5431   2.300   0.119   3.634
 1805SOL     OW 5432   2.435   0.870   2.891
 1805SOL    HW1 5433   2.479   0.959   2.882
 1805SOL    HW2 5434   2.372   0.870   2.968
 1806SOL     OW 5435   3.222   0.862   2.907
 1806SOL    HW1 5436   3.147   0.862   2.841
 1806SOL    HW2 5437   3.259   0.770   2.916
 1807SOL     OW 5438   3.071   0.525   2.137
 1807SOL    HW1 5439   3.084   0.441   2.191
 1807SOL    HW2 5440   3.042   0.599   2.197
 1808SOL     OW 5441   2.169   0.213   3.093
 1808SOL    HW1 5442   2.146   0.250   3.183
 1808SOL    HW2 5443   2.139   0.118   3.087
 1809SOL     OW 5444   1.899   1.310   3.144
 1809SOL    HW1 5445   1.952   1.261   3.212
 1809SOL    HW2 5446   1.921   1.408   3.149
 1810SOL     OW 5447   2.594   0.634   2.926
 1810SOL    HW1 5448   2.653   0.608   2.850
 1810SOL    HW2 5449   2.566   0.730   2.915
 1811SOL     OW 5450   3.590   0.935   3.716
 1811SOL    HW1 5451   3.544   0.928   3.627
 1811SOL    HW2 5452   3.528   0.979   3.782
 1812SOL     OW 5453   2.169   0.063   2.480
 1812SOL    HW1 5454   2.158   0.157   2.513
 1812SOL    HW2 5455   2.164   0.000   2.557
 1813SOL     OW 5456   3.484   0.367   2.236
 1813SOL    HW1 5457   3.486   0.291   2.300
 1813SOL    HW2 5458   3.436   0.444   2.276
 1814SOL     OW 5459   2.885   0.766   2.828
 1814SOL    HW1 5460   2.900   0.787   2.924
 1814SOL    HW2 5461   2.855   0.671   2.819
 1815SOL     OW 5462   2.842   1.573   3.562
 1815SOL    HW1 5463   2.822   1.617   3.474
 1815SOL    HW2 5464   2.881   1.482   3.546
 1816SOL     OW 5465   3.721   1.518   3.467
 1816SOL    HW1 5466   3.735   1.545   3.372
 1816SOL    HW2 5467   3.804   1.540   3.520
 1817SOL     OW 5468   2.212   0.898   3.666
 1817SOL    HW1 5469   2.288   0.942   3.714
 1817SOL    HW2 5470   2.247   0.851   3.584
 1818SOL     OW 5471   3.402   0.274   1.987
 1818SOL    HW1 5472   3.341   0.199   2.010
 1818SOL    HW2 5473   3.424   0.326   2.070
 1819SOL     OW 5474   3.165   0.838   1.904
 1819SOL    HW1 5475   3.199   0.745   1.919
 1819SOL    HW2 5476   3.183   0.865   1.809
 1820SOL     OW 5477   2.930   1.333   2.711
 1820SOL    HW1 5478   2.937   1.249   2.656
 1820SOL    HW2 5479   2.992   1.402   2.675
 1821SOL     OW 5480   2.181   0.810   2.811
 1821SOL    HW1 5481   2.274   0.846   2.816
 1821SOL    HW2 5482   2.175   0.725   2.863
 1822SOL     OW 5483   2.201   0.509   2.868
 1822SOL    HW1 5484   2.149   0.426   2.851
 1822SOL    HW2 5485   2.278   0.514   2.804
 1823SOL     OW 5486   3.000   0.380   3.540
 1823SOL    HW1 5487   2.955   0.443   3.604
 1823SOL    HW2 5488   3.093   0.411   3.523
 1824SOL     OW 5489   3.022   0.207   3.339
 1824SOL    HW1 5490   3.022   0.271   3.416
 1824SOL    HW2 5491   3.050   0.255   3.256
 1825SOL     OW 5492   1.870   1.326   2.062
 1825SOL    HW1 5493   1.777   1.347   2.031
 1825SOL    HW2 5494   1.880   1.227   2.075
 1826SOL     OW 5495   1.950   1.801   2.789
 1826SOL    HW1 5496   1.908   1.715   2.762
 1826SOL    HW2 5497   2.044   1.804   2.755
 1827SOL     OW 5498   2.366   1.568   2.772
 1827SOL    HW1 5499   2.432   1.642   2.781
 1827SOL    HW2 5500   2.410   1.489   2.730
 1828SOL     OW 5501   2.864   0.796   3.100
 1828SOL    HW1 5502   2.905   0.764   3.186
 1828SOL    HW2 5503   2.768   0.769   3.097
 1829SOL     OW 5504   1.902   0.544   2.976
 1829SOL    HW1 5505   1.987   0.511   2.935
 1829SOL    HW2 5506   1.915   0.559   3.074
 1830SOL     OW 5507   2.051   0.520   3.584
 1830SOL    HW1 5508   2.110   0.480   3.514
 1830SOL    HW2 5509   1.993   0.591   3.543
 1831SOL     OW 5510   3.231   0.950   3.522
 1831SOL    HW1 5511   3.270   1.039   3.542
 1831SOL    HW2 5512   3.241   0.930   3.425
 1832SOL     OW 5513   2.677   0.572   2.187
 1832SOL    HW1 5514   2.684   0.483   2.141
 1832SOL    HW2 5515   2.583   0.606   2.179
 1833SOL     OW 5516   3.519   0.604   3.068
 1833SOL    HW1 5517   3.481   0.535   3.130
 1833SOL    HW2 5518   3.601   0.568   3.024
 1834SOL     OW 5519   2.114   1.564   3.606
 1834SOL    HW1 5520   2.084   1.621   3.682
 1834SOL    HW2 5521   2.107   1.467   3.632
 1835SOL     OW 5522   2.533   0.464   3.131
 1835SOL    HW1 5523   2.499   0.375   3.101
 1835SOL    HW2 5524   2.559   0.518   3.051
 1836SOL     OW 5525   2.792   1.678   3.327
 1836SOL    HW1 5526   2.768   1.660   3.232
 1836SOL    HW2 5527   2.822   1.772   3.337
 1837SOL     OW 5528   2.335   0.500   2.053
 1837SOL    HW1 5529   2.396   0.580   2.057
 1837SOL    HW2 5530   2.240   0.531   2.060
 1838SOL     OW 5531   2.021   1.137   3.328
 1838SOL    HW1 5532   2.043   1.076   3.404
 1838SOL    HW2 5533   2.031   1.088   3.242
 1839SOL     OW 5534   3.209   1.059   3.096
 1839SOL    HW1 5535   3.233   0.996   3.022
 1839SOL    HW2 5536   3.119   1.099   3.078
 1840SOL     OW 5537   3.164   0.855   2.171
 1840SOL    HW1 5538   3.078   0.824   2.213
 1840SOL    HW2 5539   3.160   0.841   2.072
 1841SOL     OW 5540   3.621   1.747   3.016
 1841SOL    HW1 5541   3.682   1.777   2.943
 1841SOL    HW2 5542   3.583   1.658   2.994
 1842SOL     OW 5543   3.114   1.731   2.990
 1842SOL    HW1 5544   3.198   1.736   2.936
 1842SOL    HW2 5545   3.091   1.635   3.008
 1843SOL     OW 5546   1.945   1.258   2.884
 1843SOL    HW1 5547   1.940   1.257   2.984
 1843SOL    HW2 5548   1.862   1.217   2.846
 1844SOL     OW 5549   2.550   1.662   3.578
 1844SOL    HW1 5550   2.494   1.743   3.587
 1844SOL    HW2 5551   2.602   1.666   3.492
 1845SOL     OW 5552   3.588   0.135   2.385
 1845SOL    HW1 5553   3.661   0.118   2.318
 1845SOL    HW2 5554   3.557   0.048   2.423
 1846SOL     OW 5555   3.250   1.573   2.339
 1846SOL    HW1 5556   3.317   1.585   2.265
 1846SOL    HW2 5557   3.210   1.662   2.362
 1847SOL     OW 5558   1.992   1.794   3.713
 1847SOL    HW1 5559   1.951   1.720   3.766
 1847SOL    HW2 5560   2.056   1.845   3.771
 1848SOL     OW 5561   3.142   0.927   2.534
 1848SOL    HW1 5562   3.202   0.846   2.536
 1848SOL    HW2 5563   3.182   0.996   2.474
 1849SOL     OW 5564   2.692   1.273   3.284
 1849SOL    HW1 5565   2.687   1.306   3.379
 1849SOL    HW2 5566   2.606   1.292   3.238
 1850SOL     OW 5567   2.534   1.616   2.016
 1850SOL    HW1 5568   2.543   1.626   1.917
 1850SOL    HW2 5569   2.494   1.527   2.037
 1851SOL     OW 5570   3.512   1.720   3.256
 1851SOL    HW1 5571   3.565   1.730   3.172
 1851SOL    HW2 5572   3.485   1.810   3.290
 1852SOL     OW 5573   3.703   0.175   2.825
 1852SOL    HW1 5574   3.742   0.090   2.789
 1852SOL    HW2 5575   3.605   0.177   2.806
 1853SOL     OW 5576   2.125   0.326   2.582
 1853SOL    HW1 5577   2.046   0.377   2.548
 1853SOL    HW2 5578   2.116   0.311   2.680
 1854SOL     OW 5579   3.056   1.612   1.893
 1854SOL    HW1 5580   3.062   1.519   1.930
 1854SOL    HW2 5581   2.997   1.612   1.813
 1855SOL     OW 5582   2.684   1.002   3.234
 1855SOL    HW1 5583   2.724   1.001   3.142
 1855SOL    HW2 5584   2.694   1.094   3.274
 1856SOL     OW 5585   2.778   0.910   2.153
 1856SOL    HW1 5586   2.841   0.948   2.085
 1856SOL    HW2 5587   2.818   0.827   2.192
 1857SOL     OW 5588   3.366   1.607   1.906
 1857SOL    HW1 5589   3.274   1.644   1.913
 1857SOL    HW2 5590   3.404   1.627   1.816
 1858SOL     OW 5591   2.234   1.288   3.352
 1858SOL    HW1 5592   2.221   1.381   3.318
 1858SOL    HW2 5593   2.150   1.236   3.339
 1859SOL     OW 5594   3.476   1.292   3.151
 1859SOL    HW1 5595   3.536   1.295   3.231
 1859SOL    HW2 5596   3.401   1.356   3.164
 1860SOL     OW 5597   2.901   1.098   2.558
 1860SOL    HW1 5598   2.831   1.051   2.612
 1860SOL    HW2 5599   2.960   1.030   2.515
 1861SOL     OW 5600   2.876   0.236   2.833
 1861SOL    HW1 5601   2.868   0.200   2.740
 1861SOL    HW2 5602   2.874   0.160   2.898
 1862SOL     OW 5603   2.452   1.487   2.353
 1862SOL    HW1 5604   2.494   1.429   2.283
 1862SOL    HW2 5605   2.408   1.566   2.309
 1863SOL     OW 5606   3.571   0.385   3.243
 1863SOL    HW1 5607   3.644   0.454   3.247
 1863SOL    HW2 5608   3.599   0.310   3.184
 1864SOL     OW 5609   2.117   1.348   2.152
 1864SOL    HW1 5610   2.021   1.349   2.125
 1864SOL    HW2 5611   2.129   1.401   2.236
 1865SOL     OW 5612   1.967   1.013   3.588
 1865SOL    HW1 5613   1.890   0.980   3.642
 1865SOL    HW2 5614   2.052   0.983   3.630
 1866SOL     OW 5615   2.534   0.203   3.351
 1866SOL    HW1 5616   2.624   0.187   3.311
 1866SOL    HW2 5617   2.542   0.208   3.450
 1867SOL     OW 5618   1.937   0.345   1.895
 1867SOL    HW1 5619   1.845   0.317   1.866
 1867SOL    HW2 5620   1.968   0.422   1.839
 1868SOL     OW 5621   3.302   0.856   3.260
 1868SOL    HW1 5622   3.245   0.908   3.197
 1868SOL    HW2 5623   3.398   0.868   3.236
 1869SOL     OW 5624   1.934   0.166   2.180
 1869SOL    HW1 5625   1.917   0.249   2.126
 1869SOL    HW2 5626   2.024   0.129   2.158
 1870SOL     OW 5627   3.045   1.335   1.981
 1870SOL    HW1 5628   2.946   1.324   1.983
 1870SOL    HW2 5629   3.079   1.350   2.074
 1871SOL     OW 5630   2.475   0.842   3.293
 1871SOL    HW1 5631   2.531   0.923   3.276
 1871SOL    HW2 5632   2.534   0.762   3.296
 1872SOL     OW 5633   3.355   1.767   2.821
 1872SOL    HW1 5634   3.388   1.831   2.752
 1872SOL    HW2 5635   3.421   1.761   2.896
 1873SOL     OW 5636   2.578   0.565   3.570
 1873SOL    HW1 5637   2.597   0.630   3.644
 1873SOL    HW2 5638   2.638   0.485   3.579
 1874SOL     OW 5639   3.312   1.220   3.495
 1874SOL    HW1 5640   3.303   1.210   3.594
 1874SOL    HW2 5641   3.408   1.213   3.469
 1875SOL     OW 5642   2.252   1.741   3.422
 1875SOL    HW1 5643   2.161   1.782   3.420
 1875SOL    HW2 5644   2.245   1.647   3.454
 1876SOL     OW 5645   3.536   0.883   3.116
 1876SOL    HW1 5646   3.509   0.794   3.079
 1876SOL    HW2 5647   3.537   0.951   3.043
 1877SOL     OW 5648   3.087   0.325   2.311
 1877SOL    HW1 5649   3.152   0.251   2.300
 1877SOL    HW2 5650   3.107   0.375   2.395
 1878SOL     OW 5651   2.456   0.745   2.514
 1878SOL    HW1 5652   2.506   0.830   2.495
 1878SOL    HW2 5653   2.368   0.747   2.466
 1879SOL     OW 5654   3.639   0.342   3.504
 1879SOL    HW1 5655   3.622   0.373   3.410
 1879SOL    HW2 5656   3.555   0.305   3.542
 1880SOL     OW 5657   3.592   0.934   3.379
 1880SOL    HW1 5658   3.630   1.025   3.394
 1880SOL    HW2 5659   3.584   0.917   3.280
 1881SOL     OW 5660   2.721   1.374   1.878
 1881SOL    HW1 5661   2.675   1.389   1.966
 1881SOL    HW2 5662   2.765   1.459   1.848
 1882SOL     OW 5663   2.523   1.790   2.815
 1882SOL    HW1 5664   2.477   1.878   2.802
 1882SOL    HW2 5665   2.622   1.802   2.808
 1883SOL     OW 5666   2.721   0.956   2.723
 1883SOL    HW1 5667   2.775   0.887   2.771
 1883SOL    HW2 5668   2.689   1.025   2.789
 1884SOL     OW 5669   2.945   0.984   1.949
 1884SOL    HW1 5670   2.922   1.037   1.867
 1884SOL    HW2 5671   3.026   0.928   1.930
 1885SOL     OW 5672   3.723   1.569   2.713
 1885SOL    HW1 5673   3.652   1.557   2.643
 1885SOL    HW2 5674   3.724   1.490   2.773
 1886SOL     OW 5675   2.083   1.314   3.706
 1886SOL    HW1 5676   2.018   1.241   3.685
 1886SOL    HW2 5677   2.087   1.328   3.804
 1887SOL     OW 5678   1.941   1.240   2.515
 1887SOL    HW1 5679   1.940   1.193   2.603
 1887SOL    HW2 5680   2.023   1.212   2.464
 1888SOL     OW 5681   2.534   1.391   3.486
 1888SOL    HW1 5682   2.456   1.341   3.524
 1888SOL    HW2 5683   2.531   1.486   3.517
 1889SOL     OW 5684   3.686   0.192   3.089
 1889SOL    HW1 5685   3.682   0.102   3.133
 1889SOL    HW2 5686   3.689   0.181   2.990
 1890SOL     OW 5687   2.290   0.424   2.382
 1890SOL    HW1 5688   2.320   0.352   2.320
 1890SOL    HW2 5689   2.251   0.384   2.465
 1891SOL     OW 5690   3.567   1.487   2.966
 1891SOL    HW1 5691   3.474   1.462   2.939
 1891SOL    HW2 5692   3.593   1.437   3.048
 1892SOL     OW 5693   2.179   0.547   3.142
 1892SOL    HW1 5694   2.217   0.488   3.214
 1892SOL    HW2 5695   2.219   0.521   3.054
 1893SOL     OW 5696   2.674   1.586   2.549
 1893SOL    HW1 5697   2.706   1.596   2.455
 1893SOL    HW2 5698   2.595   1.524   2.551
 1894SOL     OW 5699   3.286   0.214   2.974
 1894SOL    HW1 5700   3.338   0.149   3.029
 1894SOL    HW2 5701   3.237   0.277   3.035
 1895SOL     OW 5702   2.863   0.034   3.016
 1895SOL    HW1 5703   2.800  -0.038   2.985
 1895SOL    HW2 5704   2.956  -0.002   3.016
 1896SOL     OW 5705   2.632   1.330   2.163
 1896SOL    HW1 5706   2.586   1.243   2.180
 1896SOL    HW2 5707   2.723   1.327   2.204
 1897SOL     OW 5708   2.480   1.567   3.146
 1897SOL    HW1 5709   2.475   1.649   3.203
 1897SOL    HW2 5710   2.569   1.564   3.101
 1898SOL     OW 5711   3.214   0.052   2.030
 1898SOL    HW1 5712   3.249   0.011   1.946
 1898SOL    HW2 5713   3.124   0.014   2.050
 1899SOL     OW 5714   3.162   0.453   2.553
 1899SOL    HW1 5715   3.103   0.533   2.557
 1899SOL    HW2 5716   3.177   0.418   2.646
 1900SOL     OW 5717   3.455   0.221   2.744
 1900SOL    HW1 5718   3.371   0.220   2.798
 1900SOL    HW2 5719   3.457   0.304   2.688
 1901SOL     OW 5720   1.901   1.077   2.162
 1901SOL    HW1 5721   2.000   1.066   2.153
 1901SOL    HW2 5722   1.861   0.991   2.194
 1902SOL     OW 5723   2.737   1.646   2.199
 1902SOL    HW1 5724   2.660   1.611   2.145
 1902SOL    HW2 5725   2.705   1.717   2.261
 1903SOL     OW 5726   2.092   0.628   3.837
 1903SOL    HW1 5727   1.999   0.626   3.874
 1903SOL    HW2 5728   2.093   0.589   3.745
 1904SOL     OW 5729   2.087   0.275   4.720
 1904SOL    HW1 5730   2.122   0.258   4.812
 1904SOL    HW2 5731   1.999   0.230   4.708
 1905SOL     OW 5732   1.881   0.368   4.371
 1905SOL    HW1 5733   1.799   0.411   4.410
 1905SOL    HW2 5734   1.853   0.295   4.308
 1906SOL     OW 5735   3.417   1.511   4.427
 1906SOL    HW1 5736   3.360   1.495   4.508
 1906SOL    HW2 5737   3.358   1.521   4.347
 1907SOL     OW 5738   2.997   0.703   4.441
 1907SOL    HW1 5739   3.054   0.781   4.416
 1907SOL    HW2 5740   2.937   0.729   4.517
 1908SOL     OW 5741   3.617   0.607   3.955
 1908SOL    HW1 5742   3.605   0.594   3.856
 1908SOL    HW2 5743   3.587   0.526   4.004
 1909SOL     OW 5744   2.630   1.144   4.747
 1909SOL    HW1 5745   2.552   1.161   4.807
 1909SOL    HW2 5746   2.664   1.231   4.711
 1910SOL     OW 5747   2.547   1.012   4.389
 1910SOL    HW1 5748   2.616   0.996   4.459
 1910SOL    HW2 5749   2.474   1.069   4.427
 1911SOL     OW 5750   2.197   1.435   4.785
 1911SOL    HW1 5751   2.119   1.404   4.732
 1911SOL    HW2 5752   2.255   1.493   4.728
 1912SOL     OW 5753   3.465   0.447   4.461
 1912SOL    HW1 5754   3.391   0.493   4.411
 1912SOL    HW2 5755   3.516   0.515   4.514
 1913SOL     OW 5756   2.093   1.713   4.207
 1913SOL    HW1 5757   2.127   1.790   4.261
 1913SOL    HW2 5758   2.137   1.713   4.117
 1914SOL     OW 5759   2.092   1.434   4.262
 1914SOL    HW1 5760   2.066   1.530   4.262
 1914SOL    HW2 5761   2.021   1.380   4.307
 1915SOL     OW 5762   2.102   1.091   4.610
 1915SOL    HW1 5763   2.116   1.007   4.662
 1915SOL    HW2 5764   2.047   1.155   4.665
 1916SOL     OW 5765   2.468   0.964   3.847
 1916SOL    HW1 5766   2.475   1.048   3.793
 1916SOL    HW2 5767   2.514   0.977   3.935
 1917SOL     OW 5768   1.984   0.643   4.287
 1917SOL    HW1 5769   1.939   0.555   4.304
 1917SOL    HW2 5770   1.983   0.697   4.371
 1918SOL     OW 5771   3.704   1.767   4.083
 1918SOL    HW1 5772   3.758   1.738   4.163
 1918SOL    HW2 5773   3.734   1.857   4.054
 1919SOL     OW 5774   1.889   1.596   3.841
 1919SOL    HW1 5775   1.870   1.500   3.862
 1919SOL    HW2 5776   1.856   1.654   3.916
 1920SOL     OW 5777   3.551   0.922   4.336
 1920SOL    HW1 5778   3.646   0.893   4.344
 1920SOL    HW2 5779   3.543   0.987   4.261
 1921SOL     OW 5780   3.503   1.108   4.156
 1921SOL    HW1 5781   3.589   1.110   4.104
 1921SOL    HW2 5782   3.517   1.155   4.244
 1922SOL     OW 5783   2.475   1.365   4.450
 1922SOL    HW1 5784   2.426   1.278   4.459
 1922SOL    HW2 5785   2.452   1.408   4.363
 1923SOL     OW 5786   2.671   0.004   4.226
 1923SOL    HW1 5787   2.711   0.095   4.217
 1923SOL    HW2 5788   2.571   0.012   4.232
 1924SOL     OW 5789   2.059   0.976   4.988
 1924SOL    HW1 5790   2.148   0.931   4.974
 1924SOL    HW2 5791   1.986   0.911   4.969
 1925SOL     OW 5792   3.387   0.999   3.914
 1925SOL    HW1 5793   3.324   0.923   3.927
 1925SOL    HW2 5794   3.435   1.017   4.000
 1926SOL     OW 5795   3.328   1.417   4.677
 1926SOL    HW1 5796   3.269   1.423   4.757
 1926SOL    HW2 5797   3.313   1.329   4.631
 1927SOL     OW 5798   3.529   1.714   4.296
 1927SOL    HW1 5799   3.488   1.691   4.208
 1927SOL    HW2 5800   3.511   1.640   4.361
 1928SOL     OW 5801   2.460   0.729   3.994
 1928SOL    HW1 5802   2.484   0.798   3.926
 1928SOL    HW2 5803   2.382   0.762   4.048
 1929SOL     OW 5804   3.143   0.345   4.668
 1929SOL    HW1 5805   3.057   0.295   4.655
 1929SOL    HW2 5806   3.205   0.291   4.724
 1930SOL     OW 5807   3.438   1.662   4.031
 1930SOL    HW1 5808   3.527   1.708   4.034
 1930SOL    HW2 5809   3.417   1.638   3.936
 1931SOL     OW 5810   2.903   0.701   4.153
 1931SOL    HW1 5811   2.929   0.697   4.249
 1931SOL    HW2 5812   2.818   0.650   4.139
 1932SOL     OW 5813   1.938   0.811   4.513
 1932SOL    HW1 5814   2.037   0.799   4.522
 1932SOL    HW2 5815   1.914   0.906   4.534
 1933SOL     OW 5816   2.727   0.348   3.919
 1933SOL    HW1 5817   2.786   0.411   3.870
 1933SOL    HW2 5818   2.746   0.254   3.890
 1934SOL     OW 5819   3.224   1.144   4.269
 1934SOL    HW1 5820   3.307   1.115   4.221
 1934SOL    HW2 5821   3.175   1.211   4.213
 1935SOL     OW 5822   2.412   0.196   4.609
 1935SOL    HW1 5823   2.407   0.191   4.709
 1935SOL    HW2 5824   2.414   0.292   4.580
 1936SOL     OW 5825   2.870   1.456   4.201
 1936SOL    HW1 5826   2.824   1.528   4.149
 1936SOL    HW2 5827   2.866   1.476   4.299
 1937SOL     OW 5828   2.213   1.801   4.577
 1937SOL    HW1 5829   2.263   1.715   4.583
 1937SOL    HW2 5830   2.278   1.878   4.574
 1938SOL     OW 5831   3.657   1.066   4.597
 1938SOL    HW1 5832   3.595   1.051   4.521
 1938SOL    HW2 5833   3.605   1.077   4.682
 1939SOL     OW 5834   2.183   0.943   3.966
 1939SOL    HW1 5835   2.265   0.982   3.924
 1939SOL    HW2 5836   2.156   0.861   3.917
 1940SOL     OW 5837   3.320   0.735   4.452
 1940SOL    HW1 5838   3.315   0.670   4.527
 1940SOL    HW2 5839   3.400   0.794   4.465
 1941SOL     OW 5840   2.973   1.776   3.961
 1941SOL    HW1 5841   2.913   1.714   4.011
 1941SOL    HW2 5842   3.004   1.732   3.876
 1942SOL     OW 5843   3.494   1.377   3.805
 1942SOL    HW1 5844   3.462   1.471   3.795
 1942SOL    HW2 5845   3.418   1.314   3.793
 1943SOL     OW 5846   2.326   1.743   4.047
 1943SOL    HW1 5847   2.359   1.782   4.133
 1943SOL    HW2 5848   2.402   1.736   3.982
 1944SOL     OW 5849   3.262   0.107   4.150
 1944SOL    HW1 5850   3.238   0.070   4.060
 1944SOL    HW2 5851   3.361   0.123   4.154
 1945SOL     OW 5852   2.111   1.785   4.965
 1945SOL    HW1 5853   2.168   1.720   5.015
 1945SOL    HW2 5854   2.095   1.752   4.872
 1946SOL     OW 5855   2.802   1.698   4.628
 1946SOL    HW1 5856   2.882   1.641   4.649
 1946SOL    HW2 5857   2.753   1.658   4.551
 1947SOL     OW 5858   2.244   0.700   4.204
 1947SOL    HW1 5859   2.289   0.610   4.201
 1947SOL    HW2 5860   2.150   0.689   4.237
 1948SOL     OW 5861   2.476   0.122   3.841
 1948SOL    HW1 5862   2.574   0.100   3.848
 1948SOL    HW2 5863   2.445   0.105   3.748
 1949SOL     OW 5864   2.665   1.402   4.648
 1949SOL    HW1 5865   2.755   1.416   4.606
 1949SOL    HW2 5866   2.594   1.404   4.577
 1950SOL     OW 5867   2.784   0.503   4.623
 1950SOL    HW1 5868   2.759   0.494   4.527
 1950SOL    HW2 5869   2.832   0.421   4.654
 1951SOL     OW 5870   2.401   0.064   4.236
 1951SOL    HW1 5871   2.320   0.065   4.294
 1951SOL    HW2 5872   2.404   0.147   4.181
 1952SOL     OW 5873   3.296   1.188   3.765
 1952SOL    HW1 5874   3.328   1.112   3.822
 1952SOL    HW2 5875   3.204   1.215   3.795
 1953SOL     OW 5876   2.159   0.035   3.895
 1953SOL    HW1 5877   2.208   0.119   3.874
 1953SOL    HW2 5878   2.221  -0.030   3.940
 1954SOL     OW 5879   2.797   0.236   4.204
 1954SOL    HW1 5880   2.749   0.277   4.126
 1954SOL    HW2 5881   2.896   0.234   4.185
 1955SOL     OW 5882   3.089   1.570   4.517
 1955SOL    HW1 5883   3.110   1.644   4.452
 1955SOL    HW2 5884   3.157   1.570   4.590
 1956SOL     OW 5885   2.321   1.152   4.465
 1956SOL    HW1 5886   2.250   1.125   4.530
 1956SOL    HW2 5887   2.295   1.124   4.372
 1957SOL     OW 5888   3.133   1.797   4.315
 1957SOL    HW1 5889   3.177   1.861   4.251
 1957SOL    HW2 5890   3.083   1.849   4.385
 1958SOL     OW 5891   2.894   0.549   3.740
 1958SOL    HW1 5892   2.853   0.631   3.701
 1958SOL    HW2 5893   2.958   0.575   3.813
 1959SOL     OW 5894   2.728   0.454   4.366
 1959SOL    HW1 5895   2.696   0.526   4.304
 1959SOL    HW2 5896   2.752   0.373   4.313
 1960SOL     OW 5897   2.879   0.039   4.477
 1960SOL    HW1 5898   2.807   0.044   4.408
 1960SOL    HW2 5899   2.855  -0.030   4.546
 1961SOL     OW 5900   3.291   1.173   4.591
 1961SOL    HW1 5901   3.236   1.089   4.584
 1961SOL    HW2 5902   3.317   1.202   4.499
 1962SOL     OW 5903   3.328   0.590   4.716
 1962SOL    HW1 5904   3.298   0.495   4.723
 1962SOL    HW2 5905   3.401   0.606   4.782
 1963SOL     OW 5906   3.719   0.833   4.101
 1963SOL    HW1 5907   3.761   0.769   4.165
 1963SOL    HW2 5908   3.681   0.782   4.023
 1964SOL     OW 5909   2.350   1.385   3.898
 1964SOL    HW1 5910   2.263   1.370   3.945
 1964SOL    HW2 5911   2.333   1.411   3.803
 1965SOL     OW 5912   3.526   1.280   4.381
 1965SOL    HW1 5913   3.625   1.288   4.395
 1965SOL    HW2 5914   3.481   1.364   4.412
 1966SOL     OW 5915   3.252   0.575   3.802
 1966SOL    HW1 5916   3.198   0.554   3.883
 1966SOL    HW2 5917   3.343   0.534   3.811
 1967SOL     OW 5918   2.389   0.256   4.052
 1967SOL    HW1 5919   2.416   0.197   3.977
 1967SOL    HW2 5920   2.389   0.351   4.021
 1968SOL     OW 5921   2.973   1.195   4.824
 1968SOL    HW1 5922   2.933   1.239   4.905
 1968SOL    HW2 5923   2.932   1.232   4.741
 1969SOL     OW 5924   3.500   1.099   4.803
 1969SOL    HW1 5925   3.505   1.180   4.862
 1969SOL    HW2 5926   3.414   1.101   4.752
 1970SOL     OW 5927   2.567   1.050   4.092
 1970SOL    HW1 5928   2.553   1.057   4.191
 1970SOL    HW2 5929   2.651   0.999   4.074
 1971SOL     OW 5930   2.272   0.813   4.975
 1971SOL    HW1 5931   2.358   0.825   5.025
 1971SOL    HW2 5932   2.230   0.726   5.002
 1972SOL     OW 5933   2.229   1.100   4.225
 1972SOL    HW1 5934   2.222   1.183   4.169
 1972SOL    HW2 5935   2.233   1.020   4.165
 1973SOL     OW 5936   2.428   0.537   4.589
 1973SOL    HW1 5937   2.440   0.603   4.515
 1973SOL    HW2 5938   2.474   0.571   4.672
 1974SOL     OW 5939   3.114   1.348   4.112
 1974SOL    HW1 5940   3.164   1.425   4.152
 1974SOL    HW2 5941   3.019   1.350   4.144
 1975SOL     OW 5942   3.134   1.445   4.866
 1975SOL    HW1 5943   3.181   1.458   4.953
 1975SOL    HW2 5944   3.068   1.371   4.875
 1976SOL     OW 5945   3.444   0.639   4.196
 1976SOL    HW1 5946   3.413   0.700   4.269
 1976SOL    HW2 5947   3.494   0.691   4.127
 1977SOL     OW 5948   2.216   1.510   5.053
 1977SOL    HW1 5949   2.195   1.466   4.966
 1977SOL    HW2 5950   2.313   1.536   5.056
 1978SOL     OW 5951   2.435   0.870   4.753
 1978SOL    HW1 5952   2.479   0.959   4.744
 1978SOL    HW2 5953   2.372   0.870   4.830
 1979SOL     OW 5954   3.071   0.525   3.999
 1979SOL    HW1 5955   3.084   0.441   4.053
 1979SOL    HW2 5956   3.042   0.599   4.059
 1980SOL     OW 5957   2.594   0.634   4.788
 1980SOL    HW1 5958   2.653   0.608   4.712
 1980SOL    HW2 5959   2.566   0.730   4.777
 1981SOL     OW 5960   2.169   0.063   4.342
 1981SOL    HW1 5961   2.158   0.157   4.375
 1981SOL    HW2 5962   2.164   0.000   4.419
 1982SOL     OW 5963   3.484   0.367   4.098
 1982SOL    HW1 5964   3.486   0.291   4.162
 1982SOL    HW2 5965   3.436   0.444   4.138
 1983SOL     OW 5966   2.885   0.766   4.690
 1983SOL    HW1 5967   2.900   0.787   4.786
 1983SOL    HW2 5968   2.855   0.671   4.681
 1984SOL     OW 5969   3.402   0.274   3.849
 1984SOL    HW1 5970   3.341   0.199   3.872
 1984SOL    HW2 5971   3.424   0.326   3.932
 1985SOL     OW 5972   3.165   0.838   3.766
 1985SOL    HW1 5973   3.199   0.745   3.781
 1985SOL    HW2 5974   3.183   0.865   3.671
 1986SOL     OW 5975   2.930   1.333   4.573
 1986SOL    HW1 5976   2.937   1.249   4.518
 1986SOL    HW2 5977   2.992   1.402   4.537
 1987SOL     OW 5978   2.181   0.810   4.673
 1987SOL    HW1 5979   2.274   0.846   4.678
 1987SOL    HW2 5980   2.175   0.725   4.725
 1988SOL     OW 5981   2.201   0.509   4.730
 1988SOL    HW1 5982   2.149   0.426   4.713
 1988SOL    HW2 5983   2.278   0.514   4.666
 1989SOL     OW 5984   1.870   1.326   3.924
 1989SOL    HW1 5985   1.777   1.347   3.893
 1989SOL    HW2 5986   1.880   1.227   3.937
 1990SOL     OW 5987   1.950   1.801   4.651
 1990SOL    HW1 5988   1.908   1.715   4.624
 1990SOL    HW2 5989   2.044   1.804   4.617
 1991SOL     OW 5990   2.366   1.568   4.634
 1991SOL    HW1 5991   2.432   1.642   4.643
 1991SOL    HW2 5992   2.410   1.489   4.592
 1992SOL     OW 5993   2.864   0.796   4.962
 1992SOL    HW1 5994   2.905   0.764   5.048
 1992SOL    HW2 5995   2.768   0.769   4.959
 1993SOL     OW 5996   1.902   0.544   4.838
 1993SOL    HW1 5997   1.987   0.511   4.797
 1993SOL    HW2 5998   1.915   0.559   4.936
 1994SOL     OW 5999   2.677   0.572   4.049
 1994SOL    HW1 6000   2.684   0.483   4.003
 1994SOL    HW2 6001   2.583   0.606   4.041
 1995SOL     OW 6002   2.533   0.464   4.993
 1995SOL    HW1 6003   2.499   0.375   4.963
 1995SOL    HW2 6004   2.559   0.518   4.913
 1996SOL     OW 6005   2.335   0.500   3.915
 1996SOL    HW1 6006   2.396   0.580   3.919
 1996SOL    HW2 6007   2.240   0.531   3.922
 1997SOL     OW 6008   3.164   0.855   4.033
 1997SOL    HW1 6009   3.078   0.824   4.075
 1997SOL    HW2 6010   3.160   0.841   3.934
 1998SOL     OW 6011   3.621   1.747   4.878
 1998SOL    HW1 6012   3.682   1.777   4.805
 1998SOL    HW2 6013   3.583   1.658   4.856
 1999SOL     OW 6014   1.945   1.258   4.746
 1999SOL    HW1 6015   1.940   1.257   4.846
 1999SOL    HW2 6016   1.862   1.217   4.708
 2000SOL     OW 6017   3.588   0.135   4.247
 2000SOL    HW1 6018   3.661   0.118   4.180
 2000SOL    HW2 6019   3.557   0.048   4.285
 2001SOL     OW 6020   3.250   1.573   4.201
 2001SOL    HW1 6021   3.317   1.585   4.127
 2001SOL    HW2 6022   3.210   1.662   4.224
 2002SOL     OW 6023   3.142   0.927   4.396
 2002SOL    HW1 6024   3.202   0.846   4.398
 2002SOL    HW2 6025   3.182   0.996   4.336
 2003SOL     OW 6026   2.534   1.616   3.878
 2003SOL    HW1 6027   2.543   1.626   3.779
 2003SOL    HW2 6028   2.494   1.527   3.899
 2004SOL     OW 6029   3.703   0.175   4.687
 2004SOL    HW1 6030   3.742   0.090   4.651
 2004SOL    HW2 6031   3.605   0.177   4.668
 2005SOL     OW 6032   2.125   0.326   4.444
 2005SOL    HW1 6033   2.046   0.377   4.410
 2005SOL    HW2 6034   2.116   0.311   4.542
 2006SOL     OW 6035   3.056   1.612   3.755
 2006SOL    HW1 6036   3.062   1.519   3.792
 2006SOL    HW2 6037   2.997   1.612   3.675
 2007SOL     OW 6038   2.684   1.002   5.096
 2007SOL    HW1 6039   2.724   1.001   5.004
 2007SOL    HW2 6040   2.694   1.094   5.136
 2008SOL     OW 6041   2.778   0.910   4.015
 2008SOL    HW1 6042   2.841   0.948   3.947
 2008SOL    HW2 6043   2.818   0.827   4.054
 2009SOL     OW 6044   3.366   1.607   3.768
 2009SOL    HW1 6045   3.274   1.644   3.775
 2009SOL    HW2 6046   3.404   1.627   3.678
 2010SOL     OW 6047   2.901   1.098   4.420
 2010SOL    HW1 6048   2.831   1.051   4.474
 2010SOL    HW2 6049   2.960   1.030   4.377
 2011SOL     OW 6050   2.876   0.236   4.695
 2011SOL    HW1 6051   2.868   0.200   4.602
 2011SOL    HW2 6052   2.874   0.160   4.760
 2012SOL     OW 6053   2.452   1.487   4.215
 2012SOL    HW1 6054   2.494   1.429   4.145
 2012SOL    HW2 6055   2.408   1.566   4.171
 2013SOL     OW 6056   2.117   1.348   4.014
 2013SOL    HW1 6057   2.021   1.349   3.987
 2013SOL    HW2 6058   2.129   1.401   4.098
 2014SOL     OW 6059   1.937   0.345   3.757
 2014SOL    HW1 6060   1.845   0.317   3.728
 2014SOL    HW2 6061   1.968   0.422   3.701
 2015SOL     OW 6062   1.934   0.166   4.042
 2015SOL    HW1 6063   1.917   0.249   3.988
 2015SOL    HW2 6064   2.024   0.129   4.020
 2016SOL     OW 6065   3.045   1.335   3.843
 2016SOL    HW1 6066   2.946   1.324   3.845
 2016SOL    HW2 6067   3.079   1.350   3.936
 2017SOL     OW 6068   3.355   1.767   4.683
 2017SOL    HW1 6069   3.388   1.831   4.614
 2017SOL    HW2 6070   3.421   1.761   4.758
 2018SOL     OW 6071   3.536   0.883   4.978
 2018SOL    HW1 6072   3.509   0.794   4.941
 2018SOL    HW2 6073   3.537   0.951   4.905
 2019SOL     OW 6074   3.087   0.325   4.173
 2019SOL    HW1 6075   3.152   0.251   4.162
 2019SOL    HW2 6076   3.107   0.375   4.257
 2020SOL     OW 6077   2.456   0.745   4.376
 2020SOL    HW1 6078   2.506   0.830   4.357
 2020SOL    HW2 6079   2.368   0.747   4.328
 2021SOL     OW 6080   2.721   1.374   3.740
 2021SOL    HW1 6081   2.675   1.389   3.828
 2021SOL    HW2 6082   2.765   1.459   3.710
 2022SOL     OW 6083   2.523   1.790   4.677
 2022SOL    HW1 6084   2.477   1.878   4.664
 2022SOL    HW2 6085   2.622   1.802   4.670
 2023SOL     OW 6086   2.721   0.956   4.585
 2023SOL    HW1 6087   2.775   0.887   4.633
 2023SOL    HW2 6088   2.689   1.025   4.651
 2024SOL     OW 6089   2.945   0.984   3.811
 2024SOL    HW1 6090   2.922   1.037   3.729
 2024SOL    HW2 6091   3.026   0.928   3.792
 2025SOL     OW 6092   3.723   1.569   4.575
 2025SOL    HW1 6093   3.652   1.557   4.505
 2025SOL    HW2 6094   3.724   1.490   4.635
 2026SOL     OW 6095   1.941   1.240   4.377
 2026SOL    HW1 6096   1.940   1.193   4.465
 2026SOL    HW2 6097   2.023   1.212   4.326
 2027SOL     OW 6098   3.686   0.192   4.951
 2027SOL    HW1 6099   3.682   0.102   4.995
 2027SOL    HW2 6100   3.689   0.181   4.852
 2028SOL     OW 6101   2.290   0.424   4.244
 2028SOL    HW1 6102   2.320   0.352   4.182
 2028SOL    HW2 6103   2.251   0.384   4.327
 2029SOL     OW 6104   2.674   1.586   4.411
 2029SOL    HW1 6105   2.706   1.596   4.317
 2029SOL    HW2 6106   2.595   1.524   4.413
 2030SOL     OW 6107   3.286   0.214   4.836
 2030SOL    HW1 6108   3.338   0.149   4.891
 2030SOL    HW2 6109   3.237   0.277   4.897
 2031SOL     OW 6110   2.632   1.330   4.025
 2031SOL    HW1 6111   2.586   1.243   4.042
 2031SOL    HW2 6112   2.723   1.327   4.066
 2032SOL     OW 6113   3.214   0.052   3.892
 2032SOL    HW1 6114   3.249   0.011   3.808
 2032SOL    HW2 6115   3.124   0.014   3.912
 2033SOL     OW 6116   3.162   0.453   4.415
 2033SOL    HW1 6117   3.103   0.533   4.419
 2033SOL    HW2 6118   3.177   0.418   4.508
 2034SOL     OW 6119   3.455   0.221   4.606
 2034SOL    HW1 6120   3.371   0.220   4.660
 2034SOL    HW2 6121   3.457   0.304   4.550
 2035SOL     OW 6122   1.901   1.077   4.024
 2035SOL    HW1 6123   2.000   1.066   4.015
 2035SOL    HW2 6124   1.861   0.991   4.056
 2036SOL     OW 6125   2.737   1.646   4.061
 2036SOL    HW1 6126   2.660   1.611   4.007
 2036SOL    HW2 6127   2.705   1.717   4.123
 2037SOL     OW 6128   2.092   2.490   0.113
 2037SOL    HW1 6129   1.999   2.488   0.150
 2037SOL    HW2 6130   2.093   2.451   0.021
 2038SOL     OW 6131   2.087   2.137   0.996
 2038SOL    HW1 6132   2.122   2.120   1.088
 2038SOL    HW2 6133   1.999   2.092   0.984
 2039SOL     OW 6134   1.881   2.230   0.647
 2039SOL    HW1 6135   1.799   2.273   0.686
 2039SOL    HW2 6136   1.853   2.157   0.584
 2040SOL     OW 6137   2.431   3.137   1.165
 2040SOL    HW1 6138   2.338   3.130   1.128
 2040SOL    HW2 6139   2.442   3.226   1.209
 2041SOL     OW 6140   3.417   3.373   0.703
 2041SOL    HW1 6141   3.360   3.357   0.784
 2041SOL    HW2 6142   3.358   3.383   0.623
 2042SOL     OW 6143   2.997   2.565   0.717
 2042SOL    HW1 6144   3.054   2.643   0.692
 2042SOL    HW2 6145   2.937   2.591   0.793
 2043SOL     OW 6146   3.617   2.469   0.231
 2043SOL    HW1 6147   3.605   2.456   0.132
 2043SOL    HW2 6148   3.587   2.388   0.280
 2044SOL     OW 6149   2.630   3.006   1.023
 2044SOL    HW1 6150   2.552   3.023   1.083
 2044SOL    HW2 6151   2.664   3.093   0.987
 2045SOL     OW 6152   2.712   2.660   1.823
 2045SOL    HW1 6153   2.708   2.736   1.888
 2045SOL    HW2 6154   2.734   2.696   1.732
 2046SOL     OW 6155   2.547   2.874   0.665
 2046SOL    HW1 6156   2.616   2.858   0.735
 2046SOL    HW2 6157   2.474   2.931   0.703
 2047SOL     OW 6158   2.548   3.023   1.803
 2047SOL    HW1 6159   2.608   3.102   1.817
 2047SOL    HW2 6160   2.462   3.054   1.762
 2048SOL     OW 6161   2.197   3.297   1.061
 2048SOL    HW1 6162   2.119   3.266   1.008
 2048SOL    HW2 6163   2.255   3.355   1.004
 2049SOL     OW 6164   3.322   3.367   1.339
 2049SOL    HW1 6165   3.346   3.461   1.365
 2049SOL    HW2 6166   3.306   3.313   1.421
 2050SOL     OW 6167   2.300   2.254   1.499
 2050SOL    HW1 6168   2.382   2.198   1.508
 2050SOL    HW2 6169   2.219   2.196   1.503
 2051SOL     OW 6170   3.465   2.309   0.737
 2051SOL    HW1 6171   3.391   2.355   0.687
 2051SOL    HW2 6172   3.516   2.377   0.790
 2052SOL     OW 6173   2.093   3.575   0.483
 2052SOL    HW1 6174   2.127   3.652   0.537
 2052SOL    HW2 6175   2.137   3.575   0.393
 2053SOL     OW 6176   2.989   3.203   1.690
 2053SOL    HW1 6177   3.036   3.203   1.778
 2053SOL    HW2 6178   2.941   3.116   1.679
 2054SOL     OW 6179   2.092   3.296   0.538
 2054SOL    HW1 6180   2.066   3.392   0.538
 2054SOL    HW2 6181   2.021   3.242   0.583
 2055SOL     OW 6182   2.102   2.953   0.886
 2055SOL    HW1 6183   2.116   2.869   0.938
 2055SOL    HW2 6184   2.047   3.017   0.941
 2056SOL     OW 6185   2.482   3.648   1.439
 2056SOL    HW1 6186   2.390   3.631   1.474
 2056SOL    HW2 6187   2.510   3.740   1.465
 2057SOL     OW 6188   2.468   2.826   0.123
 2057SOL    HW1 6189   2.475   2.910   0.069
 2057SOL    HW2 6190   2.514   2.839   0.211
 2058SOL     OW 6191   3.456   1.976   1.480
 2058SOL    HW1 6192   3.438   2.043   1.408
 2058SOL    HW2 6193   3.453   2.022   1.569
 2059SOL     OW 6194   1.984   2.505   0.563
 2059SOL    HW1 6195   1.939   2.417   0.580
 2059SOL    HW2 6196   1.983   2.559   0.647
 2060SOL     OW 6197   3.704   3.629   0.359
 2060SOL    HW1 6198   3.758   3.600   0.439
 2060SOL    HW2 6199   3.734   3.719   0.330
 2061SOL     OW 6200   1.889   3.458   0.117
 2061SOL    HW1 6201   1.870   3.362   0.138
 2061SOL    HW2 6202   1.856   3.516   0.192
 2062SOL     OW 6203   3.551   2.784   0.612
 2062SOL    HW1 6204   3.646   2.755   0.620
 2062SOL    HW2 6205   3.543   2.849   0.537
 2063SOL     OW 6206   3.503   2.970   0.432
 2063SOL    HW1 6207   3.589   2.972   0.380
 2063SOL    HW2 6208   3.517   3.017   0.520
 2064SOL     OW 6209   1.975   2.599   1.597
 2064SOL    HW1 6210   2.063   2.586   1.642
 2064SOL    HW2 6211   1.962   2.696   1.575
 2065SOL     OW 6212   2.475   3.227   0.726
 2065SOL    HW1 6213   2.426   3.140   0.735
 2065SOL    HW2 6214   2.452   3.270   0.639
 2066SOL     OW 6215   3.155   3.090   1.423
 2066SOL    HW1 6216   3.192   3.017   1.365
 2066SOL    HW2 6217   3.207   3.095   1.508
 2067SOL     OW 6218   2.671   1.866   0.502
 2067SOL    HW1 6219   2.711   1.957   0.493
 2067SOL    HW2 6220   2.571   1.874   0.508
 2068SOL     OW 6221   2.059   2.838   1.264
 2068SOL    HW1 6222   2.148   2.793   1.250
 2068SOL    HW2 6223   1.986   2.773   1.245
 2069SOL     OW 6224   3.387   2.861   0.190
 2069SOL    HW1 6225   3.324   2.785   0.203
 2069SOL    HW2 6226   3.435   2.879   0.276
 2070SOL     OW 6227   3.049   3.654   1.616
 2070SOL    HW1 6228   3.073   3.714   1.540
 2070SOL    HW2 6229   3.056   3.559   1.586
 2071SOL     OW 6230   2.179   2.113   1.801
 2071SOL    HW1 6231   2.250   2.184   1.807
 2071SOL    HW2 6232   2.091   2.152   1.829
 2072SOL     OW 6233   3.328   3.279   0.953
 2072SOL    HW1 6234   3.269   3.285   1.033
 2072SOL    HW2 6235   3.313   3.191   0.907
 2073SOL     OW 6236   3.529   3.576   0.572
 2073SOL    HW1 6237   3.488   3.553   0.484
 2073SOL    HW2 6238   3.511   3.502   0.637
 2074SOL     OW 6239   2.460   2.591   0.270
 2074SOL    HW1 6240   2.484   2.660   0.202
 2074SOL    HW2 6241   2.382   2.624   0.324
 2075SOL     OW 6242   3.143   2.207   0.944
 2075SOL    HW1 6243   3.057   2.157   0.931
 2075SOL    HW2 6244   3.205   2.153   1.000
 2076SOL     OW 6245   3.438   3.524   0.307
 2076SOL    HW1 6246   3.527   3.570   0.310
 2076SOL    HW2 6247   3.417   3.500   0.212
 2077SOL     OW 6248   2.669   2.467   1.465
 2077SOL    HW1 6249   2.622   2.464   1.554
 2077SOL    HW2 6250   2.618   2.412   1.399
 2078SOL     OW 6251   3.256   2.331   1.674
 2078SOL    HW1 6252   3.236   2.374   1.762
 2078SOL    HW2 6253   3.334   2.269   1.683
 2079SOL     OW 6254   2.835   2.752   1.572
 2079SOL    HW1 6255   2.881   2.668   1.543
 2079SOL    HW2 6256   2.779   2.786   1.497
 2080SOL     OW 6257   2.853   2.272   1.242
 2080SOL    HW1 6258   2.776   2.306   1.296
 2080SOL    HW2 6259   2.819   2.221   1.163
 2081SOL     OW 6260   2.903   2.563   0.429
 2081SOL    HW1 6261   2.929   2.559   0.525
 2081SOL    HW2 6262   2.818   2.512   0.415
 2082SOL     OW 6263   1.938   2.673   0.789
 2082SOL    HW1 6264   2.037   2.661   0.798
 2082SOL    HW2 6265   1.914   2.768   0.810
 2083SOL     OW 6266   1.992   3.683   1.571
 2083SOL    HW1 6267   1.982   3.668   1.670
 2083SOL    HW2 6268   1.906   3.719   1.535
 2084SOL     OW 6269   2.727   2.210   0.195
 2084SOL    HW1 6270   2.786   2.273   0.146
 2084SOL    HW2 6271   2.746   2.116   0.166
 2085SOL     OW 6272   3.581   2.447   1.831
 2085SOL    HW1 6273   3.555   2.536   1.795
 2085SOL    HW2 6274   3.579   2.379   1.758
 2086SOL     OW 6275   3.224   3.006   0.545
 2086SOL    HW1 6276   3.307   2.977   0.497
 2086SOL    HW2 6277   3.175   3.073   0.489
 2087SOL     OW 6278   2.412   2.058   0.885
 2087SOL    HW1 6279   2.407   2.053   0.985
 2087SOL    HW2 6280   2.414   2.154   0.856
 2088SOL     OW 6281   2.870   3.318   0.477
 2088SOL    HW1 6282   2.824   3.390   0.425
 2088SOL    HW2 6283   2.866   3.338   0.575
 2089SOL     OW 6284   2.213   3.663   0.853
 2089SOL    HW1 6285   2.263   3.577   0.859
 2089SOL    HW2 6286   2.278   3.740   0.850
 2090SOL     OW 6287   3.657   2.928   0.873
 2090SOL    HW1 6288   3.595   2.913   0.797
 2090SOL    HW2 6289   3.605   2.939   0.958
 2091SOL     OW 6290   3.089   3.412   1.506
 2091SOL    HW1 6291   3.095   3.335   1.570
 2091SOL    HW2 6292   3.037   3.386   1.426
 2092SOL     OW 6293   2.183   2.805   0.242
 2092SOL    HW1 6294   2.265   2.844   0.200
 2092SOL    HW2 6295   2.156   2.723   0.193
 2093SOL     OW 6296   3.320   2.597   0.728
 2093SOL    HW1 6297   3.315   2.532   0.803
 2093SOL    HW2 6298   3.400   2.656   0.741
 2094SOL     OW 6299   2.323   3.128   1.727
 2094SOL    HW1 6300   2.273   3.129   1.641
 2094SOL    HW2 6301   2.260   3.110   1.803
 2095SOL     OW 6302   2.973   3.638   0.237
 2095SOL    HW1 6303   2.913   3.576   0.287
 2095SOL    HW2 6304   3.004   3.594   0.152
 2096SOL     OW 6305   2.064   2.147   1.498
 2096SOL    HW1 6306   1.984   2.207   1.485
 2096SOL    HW2 6307   2.054   2.098   1.584
 2097SOL     OW 6308   3.494   3.239   0.081
 2097SOL    HW1 6309   3.462   3.333   0.071
 2097SOL    HW2 6310   3.418   3.176   0.069
 2098SOL     OW 6311   2.326   3.605   0.323
 2098SOL    HW1 6312   2.359   3.644   0.409
 2098SOL    HW2 6313   2.402   3.598   0.258
 2099SOL     OW 6314   3.262   1.969   0.426
 2099SOL    HW1 6315   3.238   1.932   0.336
 2099SOL    HW2 6316   3.361   1.985   0.430
 2100SOL     OW 6317   2.111   3.647   1.241
 2100SOL    HW1 6318   2.168   3.582   1.291
 2100SOL    HW2 6319   2.095   3.614   1.148
 2101SOL     OW 6320   2.802   3.560   0.904
 2101SOL    HW1 6321   2.882   3.503   0.925
 2101SOL    HW2 6322   2.753   3.520   0.827
 2102SOL     OW 6323   2.244   2.562   0.480
 2102SOL    HW1 6324   2.289   2.472   0.477
 2102SOL    HW2 6325   2.150   2.551   0.513
 2103SOL     OW 6326   3.409   2.084   1.729
 2103SOL    HW1 6327   3.404   2.121   1.821
 2103SOL    HW2 6328   3.337   2.015   1.717
 2104SOL     OW 6329   2.476   1.984   0.117
 2104SOL    HW1 6330   2.574   1.962   0.124
 2104SOL    HW2 6331   2.445   1.967   0.024
 2105SOL     OW 6332   2.643   2.126   1.749
 2105SOL    HW1 6333   2.710   2.065   1.792
 2105SOL    HW2 6334   2.570   2.145   1.814
 2106SOL     OW 6335   2.750   3.376   1.195
 2106SOL    HW1 6336   2.727   3.351   1.101
 2106SOL    HW2 6337   2.811   3.307   1.234
 2107SOL     OW 6338   3.213   2.452   1.433
 2107SOL    HW1 6339   3.241   2.409   1.518
 2107SOL    HW2 6340   3.238   2.548   1.434
 2108SOL     OW 6341   2.665   3.264   0.924
 2108SOL    HW1 6342   2.755   3.278   0.882
 2108SOL    HW2 6343   2.594   3.266   0.853
 2109SOL     OW 6344   2.784   2.365   0.899
 2109SOL    HW1 6345   2.759   2.356   0.803
 2109SOL    HW2 6346   2.832   2.283   0.930
 2110SOL     OW 6347   2.401   1.926   0.512
 2110SOL    HW1 6348   2.320   1.927   0.570
 2110SOL    HW2 6349   2.404   2.009   0.457
 2111SOL     OW 6350   3.296   3.050   0.041
 2111SOL    HW1 6351   3.328   2.974   0.098
 2111SOL    HW2 6352   3.204   3.077   0.071
 2112SOL     OW 6353   2.159   1.897   0.171
 2112SOL    HW1 6354   2.208   1.981   0.150
 2112SOL    HW2 6355   2.221   1.832   0.216
 2113SOL     OW 6356   2.797   2.098   0.480
 2113SOL    HW1 6357   2.749   2.139   0.402
 2113SOL    HW2 6358   2.896   2.096   0.461
 2114SOL     OW 6359   2.938   2.545   1.464
 2114SOL    HW1 6360   2.858   2.484   1.467
 2114SOL    HW2 6361   3.019   2.492   1.440
 2115SOL     OW 6362   3.089   3.432   0.793
 2115SOL    HW1 6363   3.110   3.506   0.728
 2115SOL    HW2 6364   3.157   3.432   0.866
 2116SOL     OW 6365   2.321   3.014   0.741
 2116SOL    HW1 6366   2.250   2.987   0.806
 2116SOL    HW2 6367   2.295   2.986   0.648
 2117SOL     OW 6368   3.133   3.659   0.591
 2117SOL    HW1 6369   3.177   3.723   0.527
 2117SOL    HW2 6370   3.083   3.711   0.661
 2118SOL     OW 6371   2.894   2.411   0.016
 2118SOL    HW1 6372   2.853   2.493  -0.023
 2118SOL    HW2 6373   2.958   2.437   0.089
 2119SOL     OW 6374   1.940   2.418   1.386
 2119SOL    HW1 6375   2.032   2.417   1.345
 2119SOL    HW2 6376   1.934   2.492   1.453
 2120SOL     OW 6377   2.423   2.084   1.147
 2120SOL    HW1 6378   2.461   2.000   1.184
 2120SOL    HW2 6379   2.335   2.103   1.191
 2121SOL     OW 6380   2.728   2.316   0.642
 2121SOL    HW1 6381   2.696   2.388   0.580
 2121SOL    HW2 6382   2.752   2.235   0.589
 2122SOL     OW 6383   2.879   1.901   0.753
 2122SOL    HW1 6384   2.807   1.906   0.684
 2122SOL    HW2 6385   2.855   1.832   0.822
 2123SOL     OW 6386   3.291   3.035   0.867
 2123SOL    HW1 6387   3.236   2.951   0.860
 2123SOL    HW2 6388   3.317   3.064   0.775
 2124SOL     OW 6389   3.328   2.452   0.992
 2124SOL    HW1 6390   3.298   2.357   0.999
 2124SOL    HW2 6391   3.401   2.468   1.058
 2125SOL     OW 6392   3.719   2.695   0.377
 2125SOL    HW1 6393   3.761   2.631   0.441
 2125SOL    HW2 6394   3.681   2.644   0.299
 2126SOL     OW 6395   2.350   3.247   0.174
 2126SOL    HW1 6396   2.263   3.232   0.221
 2126SOL    HW2 6397   2.333   3.273   0.079
 2127SOL     OW 6398   3.526   3.142   0.657
 2127SOL    HW1 6399   3.625   3.150   0.671
 2127SOL    HW2 6400   3.481   3.226   0.688
 2128SOL     OW 6401   3.252   2.437   0.078
 2128SOL    HW1 6402   3.198   2.416   0.159
 2128SOL    HW2 6403   3.343   2.396   0.087
 2129SOL     OW 6404   2.389   2.118   0.328
 2129SOL    HW1 6405   2.416   2.059   0.253
 2129SOL    HW2 6406   2.389   2.213   0.297
 2130SOL     OW 6407   3.616   3.085   1.588
 2130SOL    HW1 6408   3.707   3.046   1.575
 2130SOL    HW2 6409   3.624   3.181   1.612
 2131SOL     OW 6410   2.926   3.209   1.340
 2131SOL    HW1 6411   2.846   3.186   1.395
 2131SOL    HW2 6412   3.009   3.183   1.389
 2132SOL     OW 6413   3.454   3.491   1.625
 2132SOL    HW1 6414   3.481   3.525   1.535
 2132SOL    HW2 6415   3.533   3.453   1.671
 2133SOL     OW 6416   2.973   3.057   1.100
 2133SOL    HW1 6417   2.933   3.101   1.181
 2133SOL    HW2 6418   2.932   3.094   1.017
 2134SOL     OW 6419   3.500   2.961   1.079
 2134SOL    HW1 6420   3.505   3.042   1.138
 2134SOL    HW2 6421   3.414   2.963   1.028
 2135SOL     OW 6422   2.777   1.951   1.402
 2135SOL    HW1 6423   2.802   1.931   1.307
 2135SOL    HW2 6424   2.849   2.007   1.444
 2136SOL     OW 6425   2.842   2.978   1.719
 2136SOL    HW1 6426   2.743   2.984   1.729
 2136SOL    HW2 6427   2.865   2.898   1.663
 2137SOL     OW 6428   2.567   2.912   0.368
 2137SOL    HW1 6429   2.553   2.919   0.467
 2137SOL    HW2 6430   2.651   2.861   0.350
 2138SOL     OW 6431   2.272   2.675   1.251
 2138SOL    HW1 6432   2.358   2.687   1.301
 2138SOL    HW2 6433   2.230   2.588   1.278
 2139SOL     OW 6434   3.136   2.248   1.262
 2139SOL    HW1 6435   3.157   2.322   1.326
 2139SOL    HW2 6436   3.047   2.265   1.219
 2140SOL     OW 6437   1.926   3.426   1.331
 2140SOL    HW1 6438   1.880   3.508   1.297
 2140SOL    HW2 6439   2.024   3.445   1.340
 2141SOL     OW 6440   2.229   2.962   0.501
 2141SOL    HW1 6441   2.222   3.045   0.445
 2141SOL    HW2 6442   2.233   2.882   0.441
 2142SOL     OW 6443   2.428   2.399   0.865
 2142SOL    HW1 6444   2.440   2.465   0.791
 2142SOL    HW2 6445   2.474   2.433   0.948
 2143SOL     OW 6446   3.114   3.210   0.388
 2143SOL    HW1 6447   3.164   3.287   0.428
 2143SOL    HW2 6448   3.019   3.212   0.420
 2144SOL     OW 6449   3.134   3.307   1.142
 2144SOL    HW1 6450   3.181   3.320   1.229
 2144SOL    HW2 6451   3.068   3.233   1.151
 2145SOL     OW 6452   3.444   2.501   0.472
 2145SOL    HW1 6453   3.413   2.562   0.545
 2145SOL    HW2 6454   3.494   2.553   0.403
 2146SOL     OW 6455   2.216   3.372   1.329
 2146SOL    HW1 6456   2.195   3.328   1.242
 2146SOL    HW2 6457   2.313   3.398   1.332
 2147SOL     OW 6458   2.264   2.613   1.598
 2147SOL    HW1 6459   2.332   2.668   1.551
 2147SOL    HW2 6460   2.304   2.525   1.625
 2148SOL     OW 6461   3.449   2.641   1.670
 2148SOL    HW1 6462   3.357   2.679   1.665
 2148SOL    HW2 6463   3.509   2.688   1.605
 2149SOL     OW 6464   2.875   1.967   1.770
 2149SOL    HW1 6465   2.881   2.052   1.718
 2149SOL    HW2 6466   2.907   1.891   1.713
 2150SOL     OW 6467   2.366   1.912   1.740
 2150SOL    HW1 6468   2.324   1.855   1.670
 2150SOL    HW2 6469   2.300   1.981   1.772
 2151SOL     OW 6470   2.435   2.732   1.029
 2151SOL    HW1 6471   2.479   2.821   1.020
 2151SOL    HW2 6472   2.372   2.732   1.106
 2152SOL     OW 6473   3.222   2.724   1.045
 2152SOL    HW1 6474   3.147   2.724   0.979
 2152SOL    HW2 6475   3.259   2.632   1.054
 2153SOL     OW 6476   3.071   2.387   0.275
 2153SOL    HW1 6477   3.084   2.303   0.329
 2153SOL    HW2 6478   3.042   2.461   0.335
 2154SOL     OW 6479   2.169   2.075   1.231
 2154SOL    HW1 6480   2.146   2.112   1.321
 2154SOL    HW2 6481   2.139   1.980   1.225
 2155SOL     OW 6482   1.899   3.172   1.282
 2155SOL    HW1 6483   1.952   3.123   1.350
 2155SOL    HW2 6484   1.921   3.270   1.287
 2156SOL     OW 6485   2.594   2.496   1.064
 2156SOL    HW1 6486   2.653   2.470   0.988
 2156SOL    HW2 6487   2.566   2.592   1.053
 2157SOL     OW 6488   3.590   2.797   1.854
 2157SOL    HW1 6489   3.544   2.790   1.765
 2157SOL    HW2 6490   3.528   2.841   1.920
 2158SOL     OW 6491   2.169   1.925   0.618
 2158SOL    HW1 6492   2.158   2.019   0.651
 2158SOL    HW2 6493   2.164   1.862   0.695
 2159SOL     OW 6494   3.484   2.229   0.374
 2159SOL    HW1 6495   3.486   2.153   0.438
 2159SOL    HW2 6496   3.436   2.306   0.414
 2160SOL     OW 6497   2.885   2.628   0.966
 2160SOL    HW1 6498   2.900   2.649   1.062
 2160SOL    HW2 6499   2.855   2.533   0.957
 2161SOL     OW 6500   2.842   3.435   1.700
 2161SOL    HW1 6501   2.822   3.479   1.612
 2161SOL    HW2 6502   2.881   3.344   1.684
 2162SOL     OW 6503   3.721   3.380   1.605
 2162SOL    HW1 6504   3.735   3.407   1.510
 2162SOL    HW2 6505   3.804   3.402   1.658
 2163SOL     OW 6506   2.212   2.760   1.804
 2163SOL    HW1 6507   2.288   2.804   1.852
 2163SOL    HW2 6508   2.247   2.713   1.722
 2164SOL     OW 6509   3.402   2.136   0.125
 2164SOL    HW1 6510   3.341   2.061   0.148
 2164SOL    HW2 6511   3.424   2.188   0.208
 2165SOL     OW 6512   3.165   2.700   0.042
 2165SOL    HW1 6513   3.199   2.607   0.057
 2165SOL    HW2 6514   3.183   2.727  -0.053
 2166SOL     OW 6515   2.930   3.195   0.849
 2166SOL    HW1 6516   2.937   3.111   0.794
 2166SOL    HW2 6517   2.992   3.264   0.813
 2167SOL     OW 6518   2.181   2.672   0.949
 2167SOL    HW1 6519   2.274   2.708   0.954
 2167SOL    HW2 6520   2.175   2.587   1.001
 2168SOL     OW 6521   2.201   2.371   1.006
 2168SOL    HW1 6522   2.149   2.288   0.989
 2168SOL    HW2 6523   2.278   2.376   0.942
 2169SOL     OW 6524   3.000   2.242   1.678
 2169SOL    HW1 6525   2.955   2.305   1.742
 2169SOL    HW2 6526   3.093   2.273   1.661
 2170SOL     OW 6527   3.022   2.069   1.477
 2170SOL    HW1 6528   3.022   2.133   1.554
 2170SOL    HW2 6529   3.050   2.117   1.394
 2171SOL     OW 6530   1.870   3.188   0.200
 2171SOL    HW1 6531   1.777   3.209   0.169
 2171SOL    HW2 6532   1.880   3.089   0.213
 2172SOL     OW 6533   1.950   3.663   0.927
 2172SOL    HW1 6534   1.908   3.577   0.900
 2172SOL    HW2 6535   2.044   3.666   0.893
 2173SOL     OW 6536   2.366   3.430   0.910
 2173SOL    HW1 6537   2.432   3.504   0.919
 2173SOL    HW2 6538   2.410   3.351   0.868
 2174SOL     OW 6539   2.864   2.658   1.238
 2174SOL    HW1 6540   2.905   2.626   1.324
 2174SOL    HW2 6541   2.768   2.631   1.235
 2175SOL     OW 6542   1.902   2.406   1.114
 2175SOL    HW1 6543   1.987   2.373   1.073
 2175SOL    HW2 6544   1.915   2.421   1.212
 2176SOL     OW 6545   2.051   2.382   1.722
 2176SOL    HW1 6546   2.110   2.342   1.652
 2176SOL    HW2 6547   1.993   2.453   1.681
 2177SOL     OW 6548   3.231   2.812   1.660
 2177SOL    HW1 6549   3.270   2.901   1.680
 2177SOL    HW2 6550   3.241   2.792   1.563
 2178SOL     OW 6551   2.677   2.434   0.325
 2178SOL    HW1 6552   2.684   2.345   0.279
 2178SOL    HW2 6553   2.583   2.468   0.317
 2179SOL     OW 6554   3.519   2.466   1.206
 2179SOL    HW1 6555   3.481   2.397   1.268
 2179SOL    HW2 6556   3.601   2.430   1.162
 2180SOL     OW 6557   2.114   3.426   1.744
 2180SOL    HW1 6558   2.084   3.483   1.820
 2180SOL    HW2 6559   2.107   3.329   1.770
 2181SOL     OW 6560   2.533   2.326   1.269
 2181SOL    HW1 6561   2.499   2.237   1.239
 2181SOL    HW2 6562   2.559   2.380   1.189
 2182SOL     OW 6563   2.792   3.540   1.465
 2182SOL    HW1 6564   2.768   3.522   1.370
 2182SOL    HW2 6565   2.822   3.634   1.475
 2183SOL     OW 6566   2.335   2.362   0.191
 2183SOL    HW1 6567   2.396   2.442   0.195
 2183SOL    HW2 6568   2.240   2.393   0.198
 2184SOL     OW 6569   2.021   2.999   1.466
 2184SOL    HW1 6570   2.043   2.938   1.542
 2184SOL    HW2 6571   2.031   2.950   1.380
 2185SOL     OW 6572   3.209   2.921   1.234
 2185SOL    HW1 6573   3.233   2.858   1.160
 2185SOL    HW2 6574   3.119   2.961   1.216
 2186SOL     OW 6575   3.164   2.717   0.309
 2186SOL    HW1 6576   3.078   2.686   0.351
 2186SOL    HW2 6577   3.160   2.703   0.210
 2187SOL     OW 6578   3.621   3.609   1.154
 2187SOL    HW1 6579   3.682   3.639   1.081
 2187SOL    HW2 6580   3.583   3.520   1.132
 2188SOL     OW 6581   3.114   3.593   1.128
 2188SOL    HW1 6582   3.198   3.598   1.074
 2188SOL    HW2 6583   3.091   3.497   1.146
 2189SOL     OW 6584   1.945   3.120   1.022
 2189SOL    HW1 6585   1.940   3.119   1.122
 2189SOL    HW2 6586   1.862   3.079   0.984
 2190SOL     OW 6587   2.550   3.524   1.716
 2190SOL    HW1 6588   2.494   3.605   1.725
 2190SOL    HW2 6589   2.602   3.528   1.630
 2191SOL     OW 6590   2.765   1.948   0.133
 2191SOL    HW1 6591   2.816   1.949   0.047
 2191SOL    HW2 6592   2.821   1.906   0.204
 2192SOL     OW 6593   3.588   1.997   0.523
 2192SOL    HW1 6594   3.661   1.980   0.456
 2192SOL    HW2 6595   3.557   1.910   0.561
 2193SOL     OW 6596   3.250   3.435   0.477
 2193SOL    HW1 6597   3.317   3.447   0.403
 2193SOL    HW2 6598   3.210   3.524   0.500
 2194SOL     OW 6599   1.992   3.656   1.851
 2194SOL    HW1 6600   1.951   3.582   1.904
 2194SOL    HW2 6601   2.056   3.707   1.909
 2195SOL     OW 6602   3.142   2.789   0.672
 2195SOL    HW1 6603   3.202   2.708   0.674
 2195SOL    HW2 6604   3.182   2.858   0.612
 2196SOL     OW 6605   2.692   3.135   1.422
 2196SOL    HW1 6606   2.687   3.168   1.517
 2196SOL    HW2 6607   2.606   3.154   1.376
 2197SOL     OW 6608   2.534   3.478   0.154
 2197SOL    HW1 6609   2.543   3.488   0.055
 2197SOL    HW2 6610   2.494   3.389   0.175
 2198SOL     OW 6611   3.512   3.582   1.394
 2198SOL    HW1 6612   3.565   3.592   1.310
 2198SOL    HW2 6613   3.485   3.672   1.428
 2199SOL     OW 6614   3.703   2.037   0.963
 2199SOL    HW1 6615   3.742   1.952   0.927
 2199SOL    HW2 6616   3.605   2.039   0.944
 2200SOL     OW 6617   2.125   2.188   0.720
 2200SOL    HW1 6618   2.046   2.239   0.686
 2200SOL    HW2 6619   2.116   2.173   0.818
 2201SOL     OW 6620   3.056   3.474   0.031
 2201SOL    HW1 6621   3.062   3.381   0.068
 2201SOL    HW2 6622   2.997   3.474  -0.049
 2202SOL     OW 6623   2.684   2.864   1.372
 2202SOL    HW1 6624   2.724   2.863   1.280
 2202SOL    HW2 6625   2.694   2.956   1.412
 2203SOL     OW 6626   2.778   2.772   0.291
 2203SOL    HW1 6627   2.841   2.810   0.223
 2203SOL    HW2 6628   2.818   2.689   0.330
 2204SOL     OW 6629   3.366   3.469   0.044
 2204SOL    HW1 6630   3.274   3.506   0.051
 2204SOL    HW2 6631   3.404   3.489  -0.046
 2205SOL     OW 6632   2.234   3.150   1.490
 2205SOL    HW1 6633   2.221   3.243   1.456
 2205SOL    HW2 6634   2.150   3.098   1.477
 2206SOL     OW 6635   3.476   3.154   1.289
 2206SOL    HW1 6636   3.536   3.157   1.369
 2206SOL    HW2 6637   3.401   3.218   1.302
 2207SOL     OW 6638   2.901   2.960   0.696
 2207SOL    HW1 6639   2.831   2.913   0.750
 2207SOL    HW2 6640   2.960   2.892   0.653
 2208SOL     OW 6641   2.876   2.098   0.971
 2208SOL    HW1 6642   2.868   2.062   0.878
 2208SOL    HW2 6643   2.874   2.022   1.036
 2209SOL     OW 6644   2.452   3.349   0.491
 2209SOL    HW1 6645   2.494   3.291   0.421
 2209SOL    HW2 6646   2.408   3.428   0.447
 2210SOL     OW 6647   3.571   2.247   1.381
 2210SOL    HW1 6648   3.644   2.316   1.385
 2210SOL    HW2 6649   3.599   2.172   1.322
 2211SOL     OW 6650   2.117   3.210   0.290
 2211SOL    HW1 6651   2.021   3.211   0.263
 2211SOL    HW2 6652   2.129   3.263   0.374
 2212SOL     OW 6653   1.967   2.875   1.726
 2212SOL    HW1 6654   1.890   2.842   1.780
 2212SOL    HW2 6655   2.052   2.845   1.768
 2213SOL     OW 6656   2.534   2.065   1.489
 2213SOL    HW1 6657   2.624   2.049   1.449
 2213SOL    HW2 6658   2.542   2.070   1.588
 2214SOL     OW 6659   3.302   2.718   1.398
 2214SOL    HW1 6660   3.245   2.770   1.335
 2214SOL    HW2 6661   3.398   2.730   1.374
 2215SOL     OW 6662   1.934   2.028   0.318
 2215SOL    HW1 6663   1.917   2.111   0.264
 2215SOL    HW2 6664   2.024   1.991   0.296
 2216SOL     OW 6665   3.045   3.197   0.119
 2216SOL    HW1 6666   2.946   3.186   0.121
 2216SOL    HW2 6667   3.079   3.212   0.212
 2217SOL     OW 6668   2.475   2.704   1.431
 2217SOL    HW1 6669   2.531   2.785   1.414
 2217SOL    HW2 6670   2.534   2.624   1.434
 2218SOL     OW 6671   3.355   3.629   0.959
 2218SOL    HW1 6672   3.388   3.693   0.890
 2218SOL    HW2 6673   3.421   3.623   1.034
 2219SOL     OW 6674   2.578   2.427   1.708
 2219SOL    HW1 6675   2.597   2.492   1.782
 2219SOL    HW2 6676   2.638   2.347   1.717
 2220SOL     OW 6677   3.312   3.082   1.633
 2220SOL    HW1 6678   3.303   3.072   1.732
 2220SOL    HW2 6679   3.408   3.075   1.607
 2221SOL     OW 6680   2.252   3.603   1.560
 2221SOL    HW1 6681   2.161   3.644   1.558
 2221SOL    HW2 6682   2.245   3.509   1.592
 2222SOL     OW 6683   3.536   2.745   1.254
 2222SOL    HW1 6684   3.509   2.656   1.217
 2222SOL    HW2 6685   3.537   2.813   1.181
 2223SOL     OW 6686   3.087   2.187   0.449
 2223SOL    HW1 6687   3.152   2.113   0.438
 2223SOL    HW2 6688   3.107   2.237   0.533
 2224SOL     OW 6689   2.456   2.607   0.652
 2224SOL    HW1 6690   2.506   2.692   0.633
 2224SOL    HW2 6691   2.368   2.609   0.604
 2225SOL     OW 6692   3.639   2.204   1.642
 2225SOL    HW1 6693   3.622   2.235   1.548
 2225SOL    HW2 6694   3.555   2.167   1.680
 2226SOL     OW 6695   3.592   2.796   1.517
 2226SOL    HW1 6696   3.630   2.887   1.532
 2226SOL    HW2 6697   3.584   2.779   1.418
 2227SOL     OW 6698   2.721   3.236   0.016
 2227SOL    HW1 6699   2.675   3.251   0.104
 2227SOL    HW2 6700   2.765   3.321  -0.014
 2228SOL     OW 6701   2.523   3.652   0.953
 2228SOL    HW1 6702   2.477   3.740   0.940
 2228SOL    HW2 6703   2.622   3.664   0.946
 2229SOL     OW 6704   2.721   2.818   0.861
 2229SOL    HW1 6705   2.775   2.749   0.909
 2229SOL    HW2 6706   2.689   2.887   0.927
 2230SOL     OW 6707   2.945   2.846   0.087
 2230SOL    HW1 6708   2.922   2.899   0.005
 2230SOL    HW2 6709   3.026   2.790   0.068
 2231SOL     OW 6710   3.723   3.431   0.851
 2231SOL    HW1 6711   3.652   3.419   0.781
 2231SOL    HW2 6712   3.724   3.352   0.911
 2232SOL     OW 6713   2.083   3.176   1.844
 2232SOL    HW1 6714   2.018   3.103   1.823
 2232SOL    HW2 6715   2.087   3.190   1.942
 2233SOL     OW 6716   1.941   3.102   0.653
 2233SOL    HW1 6717   1.940   3.055   0.741
 2233SOL    HW2 6718   2.023   3.074   0.602
 2234SOL     OW 6719   2.534   3.253   1.624
 2234SOL    HW1 6720   2.456   3.203   1.662
 2234SOL    HW2 6721   2.531   3.348   1.655
 2235SOL     OW 6722   3.686   2.054   1.227
 2235SOL    HW1 6723   3.682   1.964   1.271
 2235SOL    HW2 6724   3.689   2.043   1.128
 2236SOL     OW 6725   2.290   2.286   0.520
 2236SOL    HW1 6726   2.320   2.214   0.458
 2236SOL    HW2 6727   2.251   2.246   0.603
 2237SOL     OW 6728   3.567   3.349   1.104
 2237SOL    HW1 6729   3.474   3.324   1.077
 2237SOL    HW2 6730   3.593   3.299   1.186
 2238SOL     OW 6731   2.179   2.409   1.280
 2238SOL    HW1 6732   2.217   2.350   1.352
 2238SOL    HW2 6733   2.219   2.383   1.192
 2239SOL     OW 6734   2.674   3.448   0.687
 2239SOL    HW1 6735   2.706   3.458   0.593
 2239SOL    HW2 6736   2.595   3.386   0.689
 2240SOL     OW 6737   3.286   2.076   1.112
 2240SOL    HW1 6738   3.338   2.011   1.167
 2240SOL    HW2 6739   3.237   2.139   1.173
 2241SOL     OW 6740   2.863   1.896   1.154
 2241SOL    HW1 6741   2.800   1.824   1.123
 2241SOL    HW2 6742   2.956   1.860   1.154
 2242SOL     OW 6743   2.632   3.192   0.301
 2242SOL    HW1 6744   2.586   3.105   0.318
 2242SOL    HW2 6745   2.723   3.189   0.342
 2243SOL     OW 6746   2.480   3.429   1.284
 2243SOL    HW1 6747   2.475   3.511   1.341
 2243SOL    HW2 6748   2.569   3.426   1.239
 2244SOL     OW 6749   3.214   1.914   0.168
 2244SOL    HW1 6750   3.249   1.873   0.084
 2244SOL    HW2 6751   3.124   1.876   0.188
 2245SOL     OW 6752   3.162   2.315   0.691
 2245SOL    HW1 6753   3.103   2.395   0.695
 2245SOL    HW2 6754   3.177   2.280   0.784
 2246SOL     OW 6755   3.455   2.083   0.882
 2246SOL    HW1 6756   3.371   2.082   0.936
 2246SOL    HW2 6757   3.457   2.166   0.826
 2247SOL     OW 6758   1.901   2.939   0.300
 2247SOL    HW1 6759   2.000   2.928   0.291
 2247SOL    HW2 6760   1.861   2.853   0.332
 2248SOL     OW 6761   2.737   3.508   0.337
 2248SOL    HW1 6762   2.660   3.473   0.283
 2248SOL    HW2 6763   2.705   3.579   0.399
 2249SOL     OW 6764   2.092   2.490   1.975
 2249SOL    HW1 6765   1.999   2.488   2.012
 2249SOL    HW2 6766   2.093   2.451   1.883
 2250SOL     OW 6767   2.087   2.137   2.858
 2250SOL    HW1 6768   2.122   2.120   2.950
 2250SOL    HW2 6769   1.999   2.092   2.846
 2251SOL     OW 6770   1.881   2.230   2.509
 2251SOL    HW1 6771   1.799   2.273   2.548
 2251SOL    HW2 6772   1.853   2.157   2.446
 2252SOL     OW 6773   2.431   3.137   3.027
 2252SOL    HW1 6774   2.338   3.130   2.990
 2252SOL    HW2 6775   2.442   3.226   3.071
 2253SOL     OW 6776   3.417   3.373   2.565
 2253SOL    HW1 6777   3.360   3.357   2.646
 2253SOL    HW2 6778   3.358   3.383   2.485
 2254SOL     OW 6779   2.997   2.565   2.579
 2254SOL    HW1 6780   3.054   2.643   2.554
 2254SOL    HW2 6781   2.937   2.591   2.655
 2255SOL     OW 6782   3.617   2.469   2.093
 2255SOL    HW1 6783   3.605   2.456   1.994
 2255SOL    HW2 6784   3.587   2.388   2.142
 2256SOL     OW 6785   2.630   3.006   2.885
 2256SOL    HW1 6786   2.552   3.023   2.945
 2256SOL    HW2 6787   2.664   3.093   2.849
 2257SOL     OW 6788   2.712   2.660   3.685
 2257SOL    HW1 6789   2.708   2.736   3.750
 2257SOL    HW2 6790   2.734   2.696   3.594
 2258SOL     OW 6791   2.547   2.874   2.527
 2258SOL    HW1 6792   2.616   2.858   2.597
 2258SOL    HW2 6793   2.474   2.931   2.565
 2259SOL     OW 6794   2.548   3.023   3.665
 2259SOL    HW1 6795   2.608   3.102   3.679
 2259SOL    HW2 6796   2.462   3.054   3.624
 2260SOL     OW 6797   2.197   3.297   2.923
 2260SOL    HW1 6798   2.119   3.266   2.870
 2260SOL    HW2 6799   2.255   3.355   2.866
 2261SOL     OW 6800   3.322   3.367   3.201
 2261SOL    HW1 6801   3.346   3.461   3.227
 2261SOL    HW2 6802   3.306   3.313   3.283
 2262SOL     OW 6803   2.300   2.254   3.361
 2262SOL    HW1 6804   2.382   2.198   3.370
 2262SOL    HW2 6805   2.219   2.196   3.365
 2263SOL     OW 6806   3.465   2.309   2.599
 2263SOL    HW1 6807   3.391   2.355   2.549
 2263SOL    HW2 6808   3.516   2.377   2.652
 2264SOL     OW 6809   2.093   3.575   2.345
 2264SOL    HW1 6810   2.127   3.652   2.399
 2264SOL    HW2 6811   2.137   3.575   2.255
 2265SOL     OW 6812   2.989   3.203   3.552
 2265SOL    HW1 6813   3.036   3.203   3.640
 2265SOL    HW2 6814   2.941   3.116   3.541
 2266SOL     OW 6815   2.092   3.296   2.400
 2266SOL    HW1 6816   2.066   3.392   2.400
 2266SOL    HW2 6817   2.021   3.242   2.445
 2267SOL     OW 6818   2.102   2.953   2.748
 2267SOL    HW1 6819   2.116   2.869   2.800
 2267SOL    HW2 6820   2.047   3.017   2.803
 2268SOL     OW 6821   2.482   3.648   3.301
 2268SOL    HW1 6822   2.390   3.631   3.336
 2268SOL    HW2 6823   2.510   3.740   3.327
 2269SOL     OW 6824   2.468   2.826   1.985
 2269SOL    HW1 6825   2.475   2.910   1.931
 2269SOL    HW2 6826   2.514   2.839   2.073
 2270SOL     OW 6827   3.456   1.976   3.342
 2270SOL    HW1 6828   3.438   2.043   3.270
 2270SOL    HW2 6829   3.453   2.022   3.431
 2271SOL     OW 6830   1.984   2.505   2.425
 2271SOL    HW1 6831   1.939   2.417   2.442
 2271SOL    HW2 6832   1.983   2.559   2.509
 2272SOL     OW 6833   3.704   3.629   2.221
 2272SOL    HW1 6834   3.758   3.600   2.301
 2272SOL    HW2 6835   3.734   3.719   2.192
 2273SOL     OW 6836   1.889   3.458   1.979
 2273SOL    HW1 6837   1.870   3.362   2.000
 2273SOL    HW2 6838   1.856   3.516   2.054
 2274SOL     OW 6839   3.551   2.784   2.474
 2274SOL    HW1 6840   3.646   2.755   2.482
 2274SOL    HW2 6841   3.543   2.849   2.399
 2275SOL     OW 6842   3.503   2.970   2.294
 2275SOL    HW1 6843   3.589   2.972   2.242
 2275SOL    HW2 6844   3.517   3.017   2.382
 2276SOL     OW 6845   1.975   2.599   3.459
 2276SOL    HW1 6846   2.063   2.586   3.504
 2276SOL    HW2 6847   1.962   2.696   3.437
 2277SOL     OW 6848   2.475   3.227   2.588
 2277SOL    HW1 6849   2.426   3.140   2.597
 2277SOL    HW2 6850   2.452   3.270   2.501
 2278SOL     OW 6851   3.155   3.090   3.285
 2278SOL    HW1 6852   3.192   3.017   3.227
 2278SOL    HW2 6853   3.207   3.095   3.370
 2279SOL     OW 6854   2.671   1.866   2.364
 2279SOL    HW1 6855   2.711   1.957   2.355
 2279SOL    HW2 6856   2.571   1.874   2.370
 2280SOL     OW 6857   2.059   2.838   3.126
 2280SOL    HW1 6858   2.148   2.793   3.112
 2280SOL    HW2 6859   1.986   2.773   3.107
 2281SOL     OW 6860   3.387   2.861   2.052
 2281SOL    HW1 6861   3.324   2.785   2.065
 2281SOL    HW2 6862   3.435   2.879   2.138
 2282SOL     OW 6863   3.049   3.654   3.478
 2282SOL    HW1 6864   3.073   3.714   3.402
 2282SOL    HW2 6865   3.056   3.559   3.448
 2283SOL     OW 6866   2.179   2.113   3.663
 2283SOL    HW1 6867   2.250   2.184   3.669
 2283SOL    HW2 6868   2.091   2.152   3.691
 2284SOL     OW 6869   3.328   3.279   2.815
 2284SOL    HW1 6870   3.269   3.285   2.895
 2284SOL    HW2 6871   3.313   3.191   2.769
 2285SOL     OW 6872   3.529   3.576   2.434
 2285SOL    HW1 6873   3.488   3.553   2.346
 2285SOL    HW2 6874   3.511   3.502   2.499
 2286SOL     OW 6875   2.460   2.591   2.132
 2286SOL    HW1 6876   2.484   2.660   2.064
 2286SOL    HW2 6877   2.382   2.624   2.186
 2287SOL     OW 6878   3.143   2.207   2.806
 2287SOL    HW1 6879   3.057   2.157   2.793
 2287SOL    HW2 6880   3.205   2.153   2.862
 2288SOL     OW 6881   3.438   3.524   2.169
 2288SOL    HW1 6882   3.527   3.570   2.172
 2288SOL    HW2 6883   3.417   3.500   2.074
 2289SOL     OW 6884   2.669   2.467   3.327
 2289SOL    HW1 6885   2.622   2.464   3.416
 2289SOL    HW2 6886   2.618   2.412   3.261
 2290SOL     OW 6887   3.256   2.331   3.536
 2290SOL    HW1 6888   3.236   2.374   3.624
 2290SOL    HW2 6889   3.334   2.269   3.545
 2291SOL     OW 6890   2.835   2.752   3.434
 2291SOL    HW1 6891   2.881   2.668   3.405
 2291SOL    HW2 6892   2.779   2.786   3.359
 2292SOL     OW 6893   2.853   2.272   3.104
 2292SOL    HW1 6894   2.776   2.306   3.158
 2292SOL    HW2 6895   2.819   2.221   3.025
 2293SOL     OW 6896   2.903   2.563   2.291
 2293SOL    HW1 6897   2.929   2.559   2.387
 2293SOL    HW2 6898   2.818   2.512   2.277
 2294SOL     OW 6899   1.938   2.673   2.651
 2294SOL    HW1 6900   2.037   2.661   2.660
 2294SOL    HW2 6901   1.914   2.768   2.672
 2295SOL     OW 6902   1.992   3.683   3.433
 2295SOL    HW1 6903   1.982   3.668   3.532
 2295SOL    HW2 6904   1.906   3.719   3.397
 2296SOL     OW 6905   2.727   2.210   2.057
 2296SOL    HW1 6906   2.786   2.273   2.008
 2296SOL    HW2 6907   2.746   2.116   2.028
 2297SOL     OW 6908   3.581   2.447   3.693
 2297SOL    HW1 6909   3.555   2.536   3.657
 2297SOL    HW2 6910   3.579   2.379   3.620
 2298SOL     OW 6911   3.224   3.006   2.407
 2298SOL    HW1 6912   3.307   2.977   2.359
 2298SOL    HW2 6913   3.175   3.073   2.351
 2299SOL     OW 6914   2.412   2.058   2.747
 2299SOL    HW1 6915   2.407   2.053   2.847
 2299SOL    HW2 6916   2.414   2.154   2.718
 2300SOL     OW 6917   2.870   3.318   2.339
 2300SOL    HW1 6918   2.824   3.390   2.287
 2300SOL    HW2 6919   2.866   3.338   2.437
 2301SOL     OW 6920   2.213   3.663   2.715
 2301SOL    HW1 6921   2.263   3.577   2.721
 2301SOL    HW2 6922   2.278   3.740   2.712
 2302SOL     OW 6923   3.657   2.928   2.735
 2302SOL    HW1 6924   3.595   2.913   2.659
 2302SOL    HW2 6925   3.605   2.939   2.820
 2303SOL     OW 6926   3.089   3.412   3.368
 2303SOL    HW1 6927   3.095   3.335   3.432
 2303SOL    HW2 6928   3.037   3.386   3.288
 2304SOL     OW 6929   2.183   2.805   2.104
 2304SOL    HW1 6930   2.265   2.844   2.062
 2304SOL    HW2 6931   2.156   2.723   2.055
 2305SOL     OW 6932   3.320   2.597   2.590
 2305SOL    HW1 6933   3.315   2.532   2.665
 2305SOL    HW2 6934   3.400   2.656   2.603
 2306SOL     OW 6935   2.323   3.128   3.589
 2306SOL    HW1 6936   2.273   3.129   3.503
 2306SOL    HW2 6937   2.260   3.110   3.665
 2307SOL     OW 6938   2.973   3.638   2.099
 2307SOL    HW1 6939   2.913   3.576   2.149
 2307SOL    HW2 6940   3.004   3.594   2.014
 2308SOL     OW 6941   2.064   2.147   3.360
 2308SOL    HW1 6942   1.984   2.207   3.347
 2308SOL    HW2 6943   2.054   2.098   3.446
 2309SOL     OW 6944   3.494   3.239   1.943
 2309SOL    HW1 6945   3.462   3.333   1.933
 2309SOL    HW2 6946   3.418   3.176   1.931
 2310SOL     OW 6947   2.326   3.605   2.185
 2310SOL    HW1 6948   2.359   3.644   2.271
 2310SOL    HW2 6949   2.402   3.598   2.120
 2311SOL     OW 6950   3.262   1.969   2.288
 2311SOL    HW1 6951   3.238   1.932   2.198
 2311SOL    HW2 6952   3.361   1.985   2.292
 2312SOL     OW 6953   2.111   3.647   3.103
 2312SOL    HW1 6954   2.168   3.582   3.153
 2312SOL    HW2 6955   2.095   3.614   3.010
 2313SOL     OW 6956   2.802   3.560   2.766
 2313SOL    HW1 6957   2.882   3.503   2.787
 2313SOL    HW2 6958   2.753   3.520   2.689
 2314SOL     OW 6959   3.409   2.084   3.591
 2314SOL    HW1 6960   3.404   2.121   3.683
 2314SOL    HW2 6961   3.337   2.015   3.579
 2315SOL     OW 6962   2.476   1.984   1.979
 2315SOL    HW1 6963   2.574   1.962   1.986
 2315SOL    HW2 6964   2.445   1.967   1.886
 2316SOL     OW 6965   2.643   2.126   3.611
 2316SOL    HW1 6966   2.710   2.065   3.654
 2316SOL    HW2 6967   2.570   2.145   3.676
 2317SOL     OW 6968   2.750   3.376   3.057
 2317SOL    HW1 6969   2.727   3.351   2.963
 2317SOL    HW2 6970   2.811   3.307   3.096
 2318SOL     OW 6971   3.213   2.452   3.295
 2318SOL    HW1 6972   3.241   2.409   3.380
 2318SOL    HW2 6973   3.238   2.548   3.296
 2319SOL     OW 6974   2.665   3.264   2.786
 2319SOL    HW1 6975   2.755   3.278   2.744
 2319SOL    HW2 6976   2.594   3.266   2.715
 2320SOL     OW 6977   2.401   1.926   2.374
 2320SOL    HW1 6978   2.320   1.927   2.432
 2320SOL    HW2 6979   2.404   2.009   2.319
 2321SOL     OW 6980   3.296   3.050   1.903
 2321SOL    HW1 6981   3.328   2.974   1.960
 2321SOL    HW2 6982   3.204   3.077   1.933
 2322SOL     OW 6983   2.159   1.897   2.033
 2322SOL    HW1 6984   2.208   1.981   2.012
 2322SOL    HW2 6985   2.221   1.832   2.078
 2323SOL     OW 6986   2.797   2.098   2.342
 2323SOL    HW1 6987   2.749   2.139   2.264
 2323SOL    HW2 6988   2.896   2.096   2.323
 2324SOL     OW 6989   2.938   2.545   3.326
 2324SOL    HW1 6990   2.858   2.484   3.329
 2324SOL    HW2 6991   3.019   2.492   3.302
 2325SOL     OW 6992   3.089   3.432   2.655
 2325SOL    HW1 6993   3.110   3.506   2.590
 2325SOL    HW2 6994   3.157   3.432   2.728
 2326SOL     OW 6995   2.321   3.014   2.603
 2326SOL    HW1 6996   2.250   2.987   2.668
 2326SOL    HW2 6997   2.295   2.986   2.510
 2327SOL     OW 6998   3.133   3.659   2.453
 2327SOL    HW1 6999   3.177   3.723   2.389
 2327SOL    HW2 7000   3.083   3.711   2.523
 2328SOL     OW 7001   2.894   2.411   1.878
 2328SOL    HW1 7002   2.853   2.493   1.839
 2328SOL    HW2 7003   2.958   2.437   1.951
 2329SOL     OW 7004   1.940   2.418   3.248
 2329SOL    HW1 7005   2.032   2.417   3.207
 2329SOL    HW2 7006   1.934   2.492   3.315
 2330SOL     OW 7007   2.423   2.084   3.009
 2330SOL    HW1 7008   2.461   2.000   3.046
 2330SOL    HW2 7009   2.335   2.103   3.053
 2331SOL     OW 7010   2.879   1.901   2.615
 2331SOL    HW1 7011   2.807   1.906   2.546
 2331SOL    HW2 7012   2.855   1.832   2.684
 2332SOL     OW 7013   3.291   3.035   2.729
 2332SOL    HW1 7014   3.236   2.951   2.722
 2332SOL    HW2 7015   3.317   3.064   2.637
 2333SOL     OW 7016   3.328   2.452   2.854
 2333SOL    HW1 7017   3.298   2.357   2.861
 2333SOL    HW2 7018   3.401   2.468   2.920
 2334SOL     OW 7019   3.719   2.695   2.239
 2334SOL    HW1 7020   3.761   2.631   2.303
 2334SOL    HW2 7021   3.681   2.644   2.161
 2335SOL     OW 7022   2.350   3.247   2.036
 2335SOL    HW1 7023   2.263   3.232   2.083
 2335SOL    HW2 7024   2.333   3.273   1.941
 2336SOL     OW 7025   3.526   3.142   2.519
 2336SOL    HW1 7026   3.625   3.150   2.533
 2336SOL    HW2 7027   3.481   3.226   2.550
 2337SOL     OW 7028   3.252   2.437   1.940
 2337SOL    HW1 7029   3.198   2.416   2.021
 2337SOL    HW2 7030   3.343   2.396   1.949
 2338SOL     OW 7031   3.616   3.085   3.450
 2338SOL    HW1 7032   3.707   3.046   3.437
 2338SOL    HW2 7033   3.624   3.181   3.474
 2339SOL     OW 7034   2.926   3.209   3.202
 2339SOL    HW1 7035   2.846   3.186   3.257
 2339SOL    HW2 7036   3.009   3.183   3.251
 2340SOL     OW 7037   3.454   3.491   3.487
 2340SOL    HW1 7038   3.481   3.525   3.397
 2340SOL    HW2 7039   3.533   3.453   3.533
 2341SOL     OW 7040   2.973   3.057   2.962
 2341SOL    HW1 7041   2.933   3.101   3.043
 2341SOL    HW2 7042   2.932   3.094   2.879
 2342SOL     OW 7043   3.500   2.961   2.941
 2342SOL    HW1 7044   3.505   3.042   3.000
 2342SOL    HW2 7045   3.414   2.963   2.890
 2343SOL     OW 7046   2.777   1.951   3.264
 2343SOL    HW1 7047   2.802   1.931   3.169
 2343SOL    HW2 7048   2.849   2.007   3.306
 2344SOL     OW 7049   2.842   2.978   3.581
 2344SOL    HW1 7050   2.743   2.984   3.591
 2344SOL    HW2 7051   2.865   2.898   3.525
 2345SOL     OW 7052   2.567   2.912   2.230
 2345SOL    HW1 7053   2.553   2.919   2.329
 2345SOL    HW2 7054   2.651   2.861   2.212
 2346SOL     OW 7055   2.272   2.675   3.113
 2346SOL    HW1 7056   2.358   2.687   3.163
 2346SOL    HW2 7057   2.230   2.588   3.140
 2347SOL     OW 7058   3.136   2.248   3.124
 2347SOL    HW1 7059   3.157   2.322   3.188
 2347SOL    HW2 7060   3.047   2.265   3.081
 2348SOL     OW 7061   1.926   3.426   3.193
 2348SOL    HW1 7062   1.880   3.508   3.159
 2348SOL    HW2 7063   2.024   3.445   3.202
 2349SOL     OW 7064   2.229   2.962   2.363
 2349SOL    HW1 7065   2.222   3.045   2.307
 2349SOL    HW2 7066   2.233   2.882   2.303
 2350SOL     OW 7067   3.114   3.210   2.250
 2350SOL    HW1 7068   3.164   3.287   2.290
 2350SOL    HW2 7069   3.019   3.212   2.282
 2351SOL     OW 7070   3.134   3.307   3.004
 2351SOL    HW1 7071   3.181   3.320   3.091
 2351SOL    HW2 7072   3.068   3.233   3.013
 2352SOL     OW 7073   3.444   2.501   2.334
 2352SOL    HW1 7074   3.413   2.562   2.407
 2352SOL    HW2 7075   3.494   2.553   2.265
 2353SOL     OW 7076   2.216   3.372   3.191
 2353SOL    HW1 7077   2.195   3.328   3.104
 2353SOL    HW2 7078   2.313   3.398   3.194
 2354SOL     OW 7079   2.264   2.613   3.460
 2354SOL    HW1 7080   2.332   2.668   3.413
 2354SOL    HW2 7081   2.304   2.525   3.487
 2355SOL     OW 7082   3.449   2.641   3.532
 2355SOL    HW1 7083   3.357   2.679   3.527
 2355SOL    HW2 7084   3.509   2.688   3.467
 2356SOL     OW 7085   2.875   1.967   3.632
 2356SOL    HW1 7086   2.881   2.052   3.580
 2356SOL    HW2 7087   2.907   1.891   3.575
 2357SOL     OW 7088   2.366   1.912   3.602
 2357SOL    HW1 7089   2.324   1.855   3.532
 2357SOL    HW2 7090   2.300   1.981   3.634
 2358SOL     OW 7091   2.435   2.732   2.891
 2358SOL    HW1 7092   2.479   2.821   2.882
 2358SOL    HW2 7093   2.372   2.732   2.968
 2359SOL     OW 7094   3.222   2.724   2.907
 2359SOL    HW1 7095   3.147   2.724   2.841
 2359SOL    HW2 7096   3.259   2.632   2.916
 2360SOL     OW 7097   3.071   2.387   2.137
 2360SOL    HW1 7098   3.084   2.303   2.191
 2360SOL    HW2 7099   3.042   2.461   2.197
 2361SOL     OW 7100   2.169   2.075   3.093
 2361SOL    HW1 7101   2.146   2.112   3.183
 2361SOL    HW2 7102   2.139   1.980   3.087
 2362SOL     OW 7103   1.899   3.172   3.144
 2362SOL    HW1 7104   1.952   3.123   3.212
 2362SOL    HW2 7105   1.921   3.270   3.149
 2363SOL     OW 7106   2.594   2.496   2.926
 2363SOL    HW1 7107   2.653   2.470   2.850
 2363SOL    HW2 7108   2.566   2.592   2.915
 2364SOL     OW 7109   3.590   2.797   3.716
 2364SOL    HW1 7110   3.544   2.790   3.627
 2364SOL    HW2 7111   3.528   2.841   3.782
 2365SOL     OW 7112   2.169   1.925   2.480
 2365SOL    HW1 7113   2.158   2.019   2.513
 2365SOL    HW2 7114   2.164   1.862   2.557
 2366SOL     OW 7115   3.484   2.229   2.236
 2366SOL    HW1 7116   3.486   2.153   2.300
 2366SOL    HW2 7117   3.436   2.306   2.276
 2367SOL     OW 7118   2.842   3.435   3.562
 2367SOL    HW1 7119   2.822   3.479   3.474
 2367SOL    HW2 7120   2.881   3.344   3.546
 2368SOL     OW 7121   3.721   3.380   3.467
 2368SOL    HW1 7122   3.735   3.407   3.372
 2368SOL    HW2 7123   3.804   3.402   3.520
 2369SOL     OW 7124   2.212   2.760   3.666
 2369SOL    HW1 7125   2.288   2.804   3.714
 2369SOL    HW2 7126   2.247   2.713   3.584
 2370SOL     OW 7127   3.402   2.136   1.987
 2370SOL    HW1 7128   3.341   2.061   2.010
 2370SOL    HW2 7129   3.424   2.188   2.070
 2371SOL     OW 7130   3.165   2.700   1.904
 2371SOL    HW1 7131   3.199   2.607   1.919
 2371SOL    HW2 7132   3.183   2.727   1.809
 2372SOL     OW 7133   2.930   3.195   2.711
 2372SOL    HW1 7134   2.937   3.111   2.656
 2372SOL    HW2 7135   2.992   3.264   2.675
 2373SOL     OW 7136   2.181   2.672   2.811
 2373SOL    HW1 7137   2.274   2.708   2.816
 2373SOL    HW2 7138   2.175   2.587   2.863
 2374SOL     OW 7139   2.201   2.371   2.868
 2374SOL    HW1 7140   2.149   2.288   2.851
 2374SOL    HW2 7141   2.278   2.376   2.804
 2375SOL     OW 7142   3.000   2.242   3.540
 2375SOL    HW1 7143   2.955   2.305   3.604
 2375SOL    HW2 7144   3.093   2.273   3.523
 2376SOL     OW 7145   3.022   2.069   3.339
 2376SOL    HW1 7146   3.022   2.133   3.416
 2376SOL    HW2 7147   3.050   2.117   3.256
 2377SOL     OW 7148   1.870   3.188   2.062
 2377SOL    HW1 7149   1.777   3.209   2.031
 2377SOL    HW2 7150   1.880   3.089   2.075
 2378SOL     OW 7151   1.950   3.663   2.789
 2378SOL    HW1 7152   1.908   3.577   2.762
 2378SOL    HW2 7153   2.044   3.666   2.755
 2379SOL     OW 7154   2.366   3.430   2.772
 2379SOL    HW1 7155   2.432   3.504   2.781
 2379SOL    HW2 7156   2.410   3.351   2.730
 2380SOL     OW 7157   2.864   2.658   3.100
 2380SOL    HW1 7158   2.905   2.626   3.186
 2380SOL    HW2 7159   2.768   2.631   3.097
 2381SOL     OW 7160   1.902   2.406   2.976
 2381SOL    HW1 7161   1.987   2.373   2.935
 2381SOL    HW2 7162   1.915   2.421   3.074
 2382SOL     OW 7163   2.051   2.382   3.584
 2382SOL    HW1 7164   2.110   2.342   3.514
 2382SOL    HW2 7165   1.993   2.453   3.543
 2383SOL     OW 7166   3.231   2.812   3.522
 2383SOL    HW1 7167   3.270   2.901   3.542
 2383SOL    HW2 7168   3.241   2.792   3.425
 2384SOL     OW 7169   2.677   2.434   2.187
 2384SOL    HW1 7170   2.684   2.345   2.141
 2384SOL    HW2 7171   2.583   2.468   2.179
 2385SOL     OW 7172   3.519   2.466   3.068
 2385SOL    HW1 7173   3.481   2.397   3.130
 2385SOL    HW2 7174   3.601   2.430   3.024
 2386SOL     OW 7175   2.114   3.426   3.606
 2386SOL    HW1 7176   2.084   3.483   3.682
 2386SOL    HW2 7177   2.107   3.329   3.632
 2387SOL     OW 7178   2.533   2.326   3.131
 2387SOL    HW1 7179   2.499   2.237   3.101
 2387SOL    HW2 7180   2.559   2.380   3.051
 2388SOL     OW 7181   2.792   3.540   3.327
 2388SOL    HW1 7182   2.768   3.522   3.232
 2388SOL    HW2 7183   2.822   3.634   3.337
 2389SOL     OW 7184   2.021   2.999   3.328
 2389SOL    HW1 7185   2.043   2.938   3.404
 2389SOL    HW2 7186   2.031   2.950   3.242
 2390SOL     OW 7187   3.209   2.921   3.096
 2390SOL    HW1 7188   3.233   2.858   3.022
 2390SOL    HW2 7189   3.119   2.961   3.078
 2391SOL     OW 7190   3.164   2.717   2.171
 2391SOL    HW1 7191   3.078   2.686   2.213
 2391SOL    HW2 7192   3.160   2.703   2.072
 2392SOL     OW 7193   3.621   3.609   3.016
 2392SOL    HW1 7194   3.682   3.639   2.943
 2392SOL    HW2 7195   3.583   3.520   2.994
 2393SOL     OW 7196   3.114   3.593   2.990
 2393SOL    HW1 7197   3.198   3.598   2.936
 2393SOL    HW2 7198   3.091   3.497   3.008
 2394SOL     OW 7199   1.945   3.120   2.884
 2394SOL    HW1 7200   1.940   3.119   2.984
 2394SOL    HW2 7201   1.862   3.079   2.846
 2395SOL     OW 7202   2.550   3.524   3.578
 2395SOL    HW1 7203   2.494   3.605   3.587
 2395SOL    HW2 7204   2.602   3.528   3.492
 2396SOL     OW 7205   3.588   1.997   2.385
 2396SOL    HW1 7206   3.661   1.980   2.318
 2396SOL    HW2 7207   3.557   1.910   2.423
 2397SOL     OW 7208   3.250   3.435   2.339
 2397SOL    HW1 7209   3.317   3.447   2.265
 2397SOL    HW2 7210   3.210   3.524   2.362
 2398SOL     OW 7211   1.992   3.656   3.713
 2398SOL    HW1 7212   1.951   3.582   3.766
 2398SOL    HW2 7213   2.056   3.707   3.771
 2399SOL     OW 7214   3.142   2.789   2.534
 2399SOL    HW1 7215   3.202   2.708   2.536
 2399SOL    HW2 7216   3.182   2.858   2.474
 2400SOL     OW 7217   2.692   3.135   3.284
 2400SOL    HW1 7218   2.687   3.168   3.379
 2400SOL    HW2 7219   2.606   3.154   3.238
 2401SOL     OW 7220   2.534   3.478   2.016
 2401SOL    HW1 7221   2.543   3.488   1.917
 2401SOL    HW2 7222   2.494   3.389   2.037
 2402SOL     OW 7223   3.512   3.582   3.256
 2402SOL    HW1 7224   3.565   3.592   3.172
 2402SOL    HW2 7225   3.485   3.672   3.290
 2403SOL     OW 7226   3.703   2.037   2.825
 2403SOL    HW1 7227   3.742   1.952   2.789
 2403SOL    HW2 7228   3.605   2.039   2.806
 2404SOL     OW 7229   2.125   2.188   2.582
 2404SOL    HW1 7230   2.046   2.239   2.548
 2404SOL    HW2 7231   2.116   2.173   2.680
 2405SOL     OW 7232   3.056   3.474   1.893
 2405SOL    HW1 7233   3.062   3.381   1.930
 2405SOL    HW2 7234   2.997   3.474   1.813
 2406SOL     OW 7235   2.684   2.864   3.234
 2406SOL    HW1 7236   2.724   2.863   3.142
 2406SOL    HW2 7237   2.694   2.956   3.274
 2407SOL     OW 7238   2.778   2.772   2.153
 2407SOL    HW1 7239   2.841   2.810   2.085
 2407SOL    HW2 7240   2.818   2.689   2.192
 2408SOL     OW 7241   3.366   3.469   1.906
 2408SOL    HW1 7242   3.274   3.506   1.913
 2408SOL    HW2 7243   3.404   3.489   1.816
 2409SOL     OW 7244   2.234   3.150   3.352
 2409SOL    HW1 7245   2.221   3.243   3.318
 2409SOL    HW2 7246   2.150   3.098   3.339
 2410SOL     OW 7247   3.476   3.154   3.151
 2410SOL    HW1 7248   3.536   3.157   3.231
 2410SOL    HW2 7249   3.401   3.218   3.164
 2411SOL     OW 7250   2.901   2.960   2.558
 2411SOL    HW1 7251   2.831   2.913   2.612
 2411SOL    HW2 7252   2.960   2.892   2.515
 2412SOL     OW 7253   2.876   2.098   2.833
 2412SOL    HW1 7254   2.868   2.062   2.740
 2412SOL    HW2 7255   2.874   2.022   2.898
 2413SOL     OW 7256   2.452   3.349   2.353
 2413SOL    HW1 7257   2.494   3.291   2.283
 2413SOL    HW2 7258   2.408   3.428   2.309
 2414SOL     OW 7259   3.571   2.247   3.243
 2414SOL    HW1 7260   3.644   2.316   3.247
 2414SOL    HW2 7261   3.599   2.172   3.184
 2415SOL     OW 7262   2.117   3.210   2.152
 2415SOL    HW1 7263   2.021   3.211   2.125
 2415SOL    HW2 7264   2.129   3.263   2.236
 2416SOL     OW 7265   1.967   2.875   3.588
 2416SOL    HW1 7266   1.890   2.842   3.642
 2416SOL    HW2 7267   2.052   2.845   3.630
 2417SOL     OW 7268   2.534   2.065   3.351
 2417SOL    HW1 7269   2.624   2.049   3.311
 2417SOL    HW2 7270   2.542   2.070   3.450
 2418SOL     OW 7271   1.937   2.207   1.895
 2418SOL    HW1 7272   1.845   2.179   1.866
 2418SOL    HW2 7273   1.968   2.284   1.839
 2419SOL     OW 7274   3.302   2.718   3.260
 2419SOL    HW1 7275   3.245   2.770   3.197
 2419SOL    HW2 7276   3.398   2.730   3.236
 2420SOL     OW 7277   1.934   2.028   2.180
 2420SOL    HW1 7278   1.917   2.111   2.126
 2420SOL    HW2 7279   2.024   1.991   2.158
 2421SOL     OW 7280   3.045   3.197   1.981
 2421SOL    HW1 7281   2.946   3.186   1.983
 2421SOL    HW2 7282   3.079   3.212   2.074
 2422SOL     OW 7283   2.475   2.704   3.293
 2422SOL    HW1 7284   2.531   2.785   3.276
 2422SOL    HW2 7285   2.534   2.624   3.296
 2423SOL     OW 7286   3.355   3.629   2.821
 2423SOL    HW1 7287   3.388   3.693   2.752
 2423SOL    HW2 7288   3.421   3.623   2.896
 2424SOL     OW 7289   2.578   2.427   3.570
 2424SOL    HW1 7290   2.597   2.492   3.644
 2424SOL    HW2 7291   2.638   2.347   3.579
 2425SOL     OW 7292   3.312   3.082   3.495
 2425SOL    HW1 7293   3.303   3.072   3.594
 2425SOL    HW2 7294   3.408   3.075   3.469
 2426SOL     OW 7295   2.252   3.603   3.422
 2426SOL    HW1 7296   2.161   3.644   3.420
 2426SOL    HW2 7297   2.245   3.509   3.454
 2427SOL     OW 7298   3.536   2.745   3.116
 2427SOL    HW1 7299   3.509   2.656   3.079
 2427SOL    HW2 7300   3.537   2.813   3.043
 2428SOL     OW 7301   3.087   2.187   2.311
 2428SOL    HW1 7302   3.152   2.113   2.300
 2428SOL    HW2 7303   3.107   2.237   2.395
 2429SOL     OW 7304   3.639   2.204   3.504
 2429SOL    HW1 7305   3.622   2.235   3.410
 2429SOL    HW2 7306   3.555   2.167   3.542
 2430SOL     OW 7307   3.592   2.796   3.379
 2430SOL    HW1 7308   3.630   2.887   3.394
 2430SOL    HW2 7309   3.584   2.779   3.280
 2431SOL     OW 7310   2.721   3.236   1.878
 2431SOL    HW1 7311   2.675   3.251   1.966
 2431SOL    HW2 7312   2.765   3.321   1.848
 2432SOL     OW 7313   2.523   3.652   2.815
 2432SOL    HW1 7314   2.477   3.740   2.802
 2432SOL    HW2 7315   2.622   3.664   2.808
 2433SOL     OW 7316   2.721   2.818   2.723
 2433SOL    HW1 7317   2.775   2.749   2.771
 2433SOL    HW2 7318   2.689   2.887   2.789
 2434SOL     OW 7319   2.945   2.846   1.949
 2434SOL    HW1 7320   2.922   2.899   1.867
 2434SOL    HW2 7321   3.026   2.790   1.930
 2435SOL     OW 7322   3.723   3.431   2.713
 2435SOL    HW1 7323   3.652   3.419   2.643
 2435SOL    HW2 7324   3.724   3.352   2.773
 2436SOL     OW 7325   2.083   3.176   3.706
 2436SOL    HW1 7326   2.018   3.103   3.685
 2436SOL    HW2 7327   2.087   3.190   3.804
 2437SOL     OW 7328   1.941   3.102   2.515
 2437SOL    HW1 7329   1.940   3.055   2.603
 2437SOL    HW2 7330   2.023   3.074   2.464
 2438SOL     OW 7331   2.534   3.253   3.486
 2438SOL    HW1 7332   2.456   3.203   3.524
 2438SOL    HW2 7333   2.531   3.348   3.517
 2439SOL     OW 7334   3.686   2.054   3.089
 2439SOL    HW1 7335   3.682   1.964   3.133
 2439SOL    HW2 7336   3.689   2.043   2.990
 2440SOL     OW 7337   3.567   3.349   2.966
 2440SOL    HW1 7338   3.474   3.324   2.939
 2440SOL    HW2 7339   3.593   3.299   3.048
 2441SOL     OW 7340   2.179   2.409   3.142
 2441SOL    HW1 7341   2.217   2.350   3.214
 2441SOL    HW2 7342   2.219   2.383   3.054
 2442SOL     OW 7343   2.674   3.448   2.549
 2442SOL    HW1 7344   2.706   3.458   2.455
 2442SOL    HW2 7345   2.595   3.386   2.551
 2443SOL     OW 7346   3.286   2.076   2.974
 2443SOL    HW1 7347   3.338   2.011   3.029
 2443SOL    HW2 7348   3.237   2.139   3.035
 2444SOL     OW 7349   2.863   1.896   3.016
 2444SOL    HW1 7350   2.800   1.824   2.985
 2444SOL    HW2 7351   2.956   1.860   3.016
 2445SOL     OW 7352   2.632   3.192   2.163
 2445SOL    HW1 7353   2.586   3.105   2.180
 2445SOL    HW2 7354   2.723   3.189   2.204
 2446SOL     OW 7355   2.480   3.429   3.146
 2446SOL    HW1 7356   2.475   3.511   3.203
 2446SOL    HW2 7357   2.569   3.426   3.101
 2447SOL     OW 7358   3.214   1.914   2.030
 2447SOL    HW1 7359   3.249   1.873   1.946
 2447SOL    HW2 7360   3.124   1.876   2.050
 2448SOL     OW 7361   3.162   2.315   2.553
 2448SOL    HW1 7362   3.103   2.395   2.557
 2448SOL    HW2 7363   3.177   2.280   2.646
 2449SOL     OW 7364   3.455   2.083   2.744
 2449SOL    HW1 7365   3.371   2.082   2.798
 2449SOL    HW2 7366   3.457   2.166   2.688
 2450SOL     OW 7367   1.901   2.939   2.162
 2450SOL    HW1 7368   2.000   2.928   2.153
 2450SOL    HW2 7369   1.861   2.853   2.194
 2451SOL     OW 7370   2.737   3.508   2.199
 2451SOL    HW1 7371   2.660   3.473   2.145
 2451SOL    HW2 7372   2.705   3.579   2.261
 2452SOL     OW 7373   2.092   2.490   3.837
 2452SOL    HW1 7374   1.999   2.488   3.874
 2452SOL    HW2 7375   2.093   2.451   3.745
 2453SOL     OW 7376   2.087   2.137   4.720
 2453SOL    HW1 7377   2.122   2.120   4.812
 2453SOL    HW2 7378   1.999   2.092   4.708
 2454SOL     OW 7379   1.881   2.230   4.371
 2454SOL    HW1 7380   1.799   2.273   4.410
 2454SOL    HW2 7381   1.853   2.157   4.308
 2455SOL     OW 7382   3.417   3.373   4.427
 2455SOL    HW1 7383   3.360   3.357   4.508
 2455SOL    HW2 7384   3.358   3.383   4.347
 2456SOL     OW 7385   2.997   2.565   4.441
 2456SOL    HW1 7386   3.054   2.643   4.416
 2456SOL    HW2 7387   2.937   2.591   4.517
 2457SOL     OW 7388   3.617   2.469   3.955
 2457SOL    HW1 7389   3.605   2.456   3.856
 2457SOL    HW2 7390   3.587   2.388   4.004
 2458SOL     OW 7391   2.630   3.006   4.747
 2458SOL    HW1 7392   2.552   3.023   4.807
 2458SOL    HW2 7393   2.664   3.093   4.711
 2459SOL     OW 7394   2.547   2.874   4.389
 2459SOL    HW1 7395   2.616   2.858   4.459
 2459SOL    HW2 7396   2.474   2.931   4.427
 2460SOL     OW 7397   2.197   3.297   4.785
 2460SOL    HW1 7398   2.119   3.266   4.732
 2460SOL    HW2 7399   2.255   3.355   4.728
 2461SOL     OW 7400   3.465   2.309   4.461
 2461SOL    HW1 7401   3.391   2.355   4.411
 2461SOL    HW2 7402   3.516   2.377   4.514
 2462SOL     OW 7403   2.093   3.575   4.207
 2462SOL    HW1 7404   2.127   3.652   4.261
 2462SOL    HW2 7405   2.137   3.575   4.117
 2463SOL     OW 7406   2.092   3.296   4.262
 2463SOL    HW1 7407   2.066   3.392   4.262
 2463SOL    HW2 7408   2.021   3.242   4.307
 2464SOL     OW 7409   2.102   2.953   4.610
 2464SOL    HW1 7410   2.116   2.869   4.662
 2464SOL    HW2 7411   2.047   3.017   4.665
 2465SOL     OW 7412   2.468   2.826   3.847
 2465SOL    HW1 7413   2.475   2.910   3.793
 2465SOL    HW2 7414   2.514   2.839   3.935
 2466SOL     OW 7415   1.984   2.505   4.287
 2466SOL    HW1 7416   1.939   2.417   4.304
 2466SOL    HW2 7417   1.983   2.559   4.371
 2467SOL     OW 7418   3.704   3.629   4.083
 2467SOL    HW1 7419   3.758   3.600   4.163
 2467SOL    HW2 7420   3.734   3.719   4.054
 2468SOL     OW 7421   1.889   3.458   3.841
 2468SOL    HW1 7422   1.870   3.362   3.862
 2468SOL    HW2 7423   1.856   3.516   3.916
 2469SOL     OW 7424   3.551   2.784   4.336
 2469SOL    HW1 7425   3.646   2.755   4.344
 2469SOL    HW2 7426   3.543   2.849   4.261
 2470SOL     OW 7427   3.503   2.970   4.156
 2470SOL    HW1 7428   3.589   2.972   4.104
 2470SOL    HW2 7429   3.517   3.017   4.244
 2471SOL     OW 7430   2.475   3.227   4.450
 2471SOL    HW1 7431   2.426   3.140   4.459
 2471SOL    HW2 7432   2.452   3.270   4.363
 2472SOL     OW 7433   2.671   1.866   4.226
 2472SOL    HW1 7434   2.711   1.957   4.217
 2472SOL    HW2 7435   2.571   1.874   4.232
 2473SOL     OW 7436   2.059   2.838   4.988
 2473SOL    HW1 7437   2.148   2.793   4.974
 2473SOL    HW2 7438   1.986   2.773   4.969
 2474SOL     OW 7439   3.387   2.861   3.914
 2474SOL    HW1 7440   3.324   2.785   3.927
 2474SOL    HW2 7441   3.435   2.879   4.000
 2475SOL     OW 7442   3.328   3.279   4.677
 2475SOL    HW1 7443   3.269   3.285   4.757
 2475SOL    HW2 7444   3.313   3.191   4.631
 2476SOL     OW 7445   3.529   3.576   4.296
 2476SOL    HW1 7446   3.488   3.553   4.208
 2476SOL    HW2 7447   3.511   3.502   4.361
 2477SOL     OW 7448   2.460   2.591   3.994
 2477SOL    HW1 7449   2.484   2.660   3.926
 2477SOL    HW2 7450   2.382   2.624   4.048
 2478SOL     OW 7451   3.143   2.207   4.668
 2478SOL    HW1 7452   3.057   2.157   4.655
 2478SOL    HW2 7453   3.205   2.153   4.724
 2479SOL     OW 7454   3.438   3.524   4.031
 2479SOL    HW1 7455   3.527   3.570   4.034
 2479SOL    HW2 7456   3.417   3.500   3.936
 2480SOL     OW 7457   2.903   2.563   4.153
 2480SOL    HW1 7458   2.929   2.559   4.249
 2480SOL    HW2 7459   2.818   2.512   4.139
 2481SOL     OW 7460   1.938   2.673   4.513
 2481SOL    HW1 7461   2.037   2.661   4.522
 2481SOL    HW2 7462   1.914   2.768   4.534
 2482SOL     OW 7463   2.727   2.210   3.919
 2482SOL    HW1 7464   2.786   2.273   3.870
 2482SOL    HW2 7465   2.746   2.116   3.890
 2483SOL     OW 7466   3.224   3.006   4.269
 2483SOL    HW1 7467   3.307   2.977   4.221
 2483SOL    HW2 7468   3.175   3.073   4.213
 2484SOL     OW 7469   2.412   2.058   4.609
 2484SOL    HW1 7470   2.407   2.053   4.709
 2484SOL    HW2 7471   2.414   2.154   4.580
 2485SOL     OW 7472   2.870   3.318   4.201
 2485SOL    HW1 7473   2.824   3.390   4.149
 2485SOL    HW2 7474   2.866   3.338   4.299
 2486SOL     OW 7475   2.213   3.663   4.577
 2486SOL    HW1 7476   2.263   3.577   4.583
 2486SOL    HW2 7477   2.278   3.740   4.574
 2487SOL     OW 7478   3.657   2.928   4.597
 2487SOL    HW1 7479   3.595   2.913   4.521
 2487SOL    HW2 7480   3.605   2.939   4.682
 2488SOL     OW 7481   2.183   2.805   3.966
 2488SOL    HW1 7482   2.265   2.844   3.924
 2488SOL    HW2 7483   2.156   2.723   3.917
 2489SOL     OW 7484   3.320   2.597   4.452
 2489SOL    HW1 7485   3.315   2.532   4.527
 2489SOL    HW2 7486   3.400   2.656   4.465
 2490SOL     OW 7487   2.973   3.638   3.961
 2490SOL    HW1 7488   2.913   3.576   4.011
 2490SOL    HW2 7489   3.004   3.594   3.876
 2491SOL     OW 7490   3.494   3.239   3.805
 2491SOL    HW1 7491   3.462   3.333   3.795
 2491SOL    HW2 7492   3.418   3.176   3.793
 2492SOL     OW 7493   2.326   3.605   4.047
 2492SOL    HW1 7494   2.359   3.644   4.133
 2492SOL    HW2 7495   2.402   3.598   3.982
 2493SOL     OW 7496   3.262   1.969   4.150
 2493SOL    HW1 7497   3.238   1.932   4.060
 2493SOL    HW2 7498   3.361   1.985   4.154
 2494SOL     OW 7499   2.111   3.647   4.965
 2494SOL    HW1 7500   2.168   3.582   5.015
 2494SOL    HW2 7501   2.095   3.614   4.872
 2495SOL     OW 7502   2.802   3.560   4.628
 2495SOL    HW1 7503   2.882   3.503   4.649
 2495SOL    HW2 7504   2.753   3.520   4.551
 2496SOL     OW 7505   2.244   2.562   4.204
 2496SOL    HW1 7506   2.289   2.472   4.201
 2496SOL    HW2 7507   2.150   2.551   4.237
 2497SOL     OW 7508   2.476   1.984   3.841
 2497SOL    HW1 7509   2.574   1.962   3.848
 2497SOL    HW2 7510   2.445   1.967   3.748
 2498SOL     OW 7511   2.665   3.264   4.648
 2498SOL    HW1 7512   2.755   3.278   4.606
 2498SOL    HW2 7513   2.594   3.266   4.577
 2499SOL     OW 7514   2.784   2.365   4.623
 2499SOL    HW1 7515   2.759   2.356   4.527
 2499SOL    HW2 7516   2.832   2.283   4.654
 2500SOL     OW 7517   2.401   1.926   4.236
 2500SOL    HW1 7518   2.320   1.927   4.294
 2500SOL    HW2 7519   2.404   2.009   4.181
 2501SOL     OW 7520   3.296   3.050   3.765
 2501SOL    HW1 7521   3.328   2.974   3.822
 2501SOL    HW2 7522   3.204   3.077   3.795
 2502SOL     OW 7523   2.159   1.897   3.895
 2502SOL    HW1 7524   2.208   1.981   3.874
 2502SOL    HW2 7525   2.221   1.832   3.940
 2503SOL     OW 7526   2.797   2.098   4.204
 2503SOL    HW1 7527   2.749   2.139   4.126
 2503SOL    HW2 7528   2.896   2.096   4.185
 2504SOL     OW 7529   3.089   3.432   4.517
 2504SOL    HW1 7530   3.110   3.506   4.452
 2504SOL    HW2 7531   3.157   3.432   4.590
 2505SOL     OW 7532   2.321   3.014   4.465
 2505SOL    HW1 7533   2.250   2.987   4.530
 2505SOL    HW2 7534   2.295   2.986   4.372
 2506SOL     OW 7535   3.133   3.659   4.315
 2506SOL    HW1 7536   3.177   3.723   4.251
 2506SOL    HW2 7537   3.083   3.711   4.385
 2507SOL     OW 7538   2.894   2.411   3.740
 2507SOL    HW1 7539   2.853   2.493   3.701
 2507SOL    HW2 7540   2.958   2.437   3.813
 2508SOL     OW 7541   2.728   2.316   4.366
 2508SOL    HW1 7542   2.696   2.388   4.304
 2508SOL    HW2 7543   2.752   2.235   4.313
 2509SOL     OW 7544   2.879   1.901   4.477
 2509SOL    HW1 7545   2.807   1.906   4.408
 2509SOL    HW2 7546   2.855   1.832   4.546
 2510SOL     OW 7547   3.291   3.035   4.591
 2510SOL    HW1 7548   3.236   2.951   4.584
 2510SOL    HW2 7549   3.317   3.064   4.499
 2511SOL     OW 7550   3.328   2.452   4.716
 2511SOL    HW1 7551   3.298   2.357   4.723
 2511SOL    HW2 7552   3.401   2.468   4.782
 2512SOL     OW 7553   3.719   2.695   4.101
 2512SOL    HW1 7554   3.761   2.631   4.165
 2512SOL    HW2 7555   3.681   2.644   4.023
 2513SOL     OW 7556   2.350   3.247   3.898
 2513SOL    HW1 7557   2.263   3.232   3.945
 2513SOL    HW2 7558   2.333   3.273   3.803
 2514SOL     OW 7559   3.526   3.142   4.381
 2514SOL    HW1 7560   3.625   3.150   4.395
 2514SOL    HW2 7561   3.481   3.226   4.412
 2515SOL     OW 7562   3.252   2.437   3.802
 2515SOL    HW1 7563   3.198   2.416   3.883
 2515SOL    HW2 7564   3.343   2.396   3.811
 2516SOL     OW 7565   2.389   2.118   4.052
 2516SOL    HW1 7566   2.416   2.059   3.977
 2516SOL    HW2 7567   2.389   2.213   4.021
 2517SOL     OW 7568   2.973   3.057   4.824
 2517SOL    HW1 7569   2.933   3.101   4.905
 2517SOL    HW2 7570   2.932   3.094   4.741
 2518SOL     OW 7571   3.500   2.961   4.803
 2518SOL    HW1 7572   3.505   3.042   4.862
 2518SOL    HW2 7573   3.414   2.963   4.752
 2519SOL     OW 7574   2.567   2.912   4.092
 2519SOL    HW1 7575   2.553   2.919   4.191
 2519SOL    HW2 7576   2.651   2.861   4.074
 2520SOL     OW 7577   2.272   2.675   4.975
 2520SOL    HW1 7578   2.358   2.687   5.025
 2520SOL    HW2 7579   2.230   2.588   5.002
 2521SOL     OW 7580   2.229   2.962   4.225
 2521SOL    HW1 7581   2.222   3.045   4.169
 2521SOL    HW2 7582   2.233   2.882   4.165
 2522SOL     OW 7583   2.428   2.399   4.589
 2522SOL    HW1 7584   2.440   2.465   4.515
 2522SOL    HW2 7585   2.474   2.433   4.672
 2523SOL     OW 7586   3.114   3.210   4.112
 2523SOL    HW1 7587   3.164   3.287   4.152
 2523SOL    HW2 7588   3.019   3.212   4.144
 2524SOL     OW 7589   3.134   3.307   4.866
 2524SOL    HW1 7590   3.181   3.320   4.953
 2524SOL    HW2 7591   3.068   3.233   4.875
 2525SOL     OW 7592   3.444   2.501   4.196
 2525SOL    HW1 7593   3.413   2.562   4.269
 2525SOL    HW2 7594   3.494   2.553   4.127
 2526SOL     OW 7595   2.216   3.372   5.053
 2526SOL    HW1 7596   2.195   3.328   4.966
 2526SOL    HW2 7597   2.313   3.398   5.056
 2527SOL     OW 7598   2.435   2.732   4.753
 2527SOL    HW1 7599   2.479   2.821   4.744
 2527SOL    HW2 7600   2.372   2.732   4.830
 2528SOL     OW 7601   3.071   2.387   3.999
 2528SOL    HW1 7602   3.084   2.303   4.053
 2528SOL    HW2 7603   3.042   2.461   4.059
 2529SOL     OW 7604   2.594   2.496   4.788
 2529SOL    HW1 7605   2.653   2.470   4.712
 2529SOL    HW2 7606   2.566   2.592   4.777
 2530SOL     OW 7607   2.169   1.925   4.342
 2530SOL    HW1 7608   2.158   2.019   4.375
 2530SOL    HW2 7609   2.164   1.862   4.419
 2531SOL     OW 7610   3.484   2.229   4.098
 2531SOL    HW1 7611   3.486   2.153   4.162
 2531SOL    HW2 7612   3.436   2.306   4.138
 2532SOL     OW 7613   2.885   2.628   4.690
 2532SOL    HW1 7614   2.900   2.649   4.786
 2532SOL    HW2 7615   2.855   2.533   4.681
 2533SOL     OW 7616   3.402   2.136   3.849
 2533SOL    HW1 7617   3.341   2.061   3.872
 2533SOL    HW2 7618   3.424   2.188   3.932
 2534SOL     OW 7619   3.165   2.700   3.766
 2534SOL    HW1 7620   3.199   2.607   3.781
 2534SOL    HW2 7621   3.183   2.727   3.671
 2535SOL     OW 7622   2.930   3.195   4.573
 2535SOL    HW1 7623   2.937   3.111   4.518
 2535SOL    HW2 7624   2.992   3.264   4.537
 2536SOL     OW 7625   2.181   2.672   4.673
 2536SOL    HW1 7626   2.274   2.708   4.678
 2536SOL    HW2 7627   2.175   2.587   4.725
 2537SOL     OW 7628   2.201   2.371   4.730
 2537SOL    HW1 7629   2.149   2.288   4.713
 2537SOL    HW2 7630   2.278   2.376   4.666
 2538SOL     OW 7631   1.870   3.188   3.924
 2538SOL    HW1 7632   1.777   3.209   3.893
 2538SOL    HW2 7633   1.880   3.089   3.937
 2539SOL     OW 7634   1.950   3.663   4.651
 2539SOL    HW1 7635   1.908   3.577   4.624
 2539SOL    HW2 7636   2.044   3.666   4.617
 2540SOL     OW 7637   2.366   3.430   4.634
 2540SOL    HW1 7638   2.432   3.504   4.643
 2540SOL    HW2 7639   2.410   3.351   4.592
 2541SOL     OW 7640   2.864   2.658   4.962
 2541SOL    HW1 7641   2.905   2.626   5.048
 2541SOL    HW2 7642   2.768   2.631   4.959
 2542SOL     OW 7643   1.902   2.406   4.838
 2542SOL    HW1 7644   1.987   2.373   4.797
 2542SOL    HW2 7645   1.915   2.421   4.936
 2543SOL     OW 7646   2.677   2.434   4.049
 2543SOL    HW1 7647   2.684   2.345   4.003
 2543SOL    HW2 7648   2.583   2.468   4.041
 2544SOL     OW 7649   2.533   2.326   4.993
 2544SOL    HW1 7650   2.499   2.237   4.963
 2544SOL    HW2 7651   2.559   2.380   4.913
 2545SOL     OW 7652   2.335   2.362   3.915
 2545SOL    HW1 7653   2.396   2.442   3.919
 2545SOL    HW2 7654   2.240   2.393   3.922
 2546SOL     OW 7655   3.164   2.717   4.033
 2546SOL    HW1 7656   3.078   2.686   4.075
 2546SOL    HW2 7657   3.160   2.703   3.934
 2547SOL     OW 7658   3.621   3.609   4.878
 2547SOL    HW1 7659   3.682   3.639   4.805
 2547SOL    HW2 7660   3.583   3.520   4.856
 2548SOL     OW 7661   1.945   3.120   4.746
 2548SOL    HW1 7662   1.940   3.119   4.846
 2548SOL    HW2 7663   1.862   3.079   4.708
 2549SOL     OW 7664   3.588   1.997   4.247
 2549SOL    HW1 7665   3.661   1.980   4.180
 2549SOL    HW2 7666   3.557   1.910   4.285
 2550SOL     OW 7667   3.250   3.435   4.201
 2550SOL    HW1 7668   3.317   3.447   4.127
 2550SOL    HW2 7669   3.210   3.524   4.224
 2551SOL     OW 7670   3.142   2.789   4.396
 2551SOL    HW1 7671   3.202   2.708   4.398
 2551SOL    HW2 7672   3.182   2.858   4.336
 2552SOL     OW 7673   2.534   3.478   3.878
 2552SOL    HW1 7674   2.543   3.488   3.779
 2552SOL    HW2 7675   2.494   3.389   3.899
 2553SOL     OW 7676   3.703   2.037   4.687
 2553SOL    HW1 7677   3.742   1.952   4.651
 2553SOL    HW2 7678   3.605   2.039   4.668
 2554SOL     OW 7679   2.125   2.188   4.444
 2554SOL    HW1 7680   2.046   2.239   4.410
 2554SOL    HW2 7681   2.116   2.173   4.542
 2555SOL     OW 7682   3.056   3.474   3.755
 2555SOL    HW1 7683   3.062   3.381   3.792
 2555SOL    HW2 7684   2.997   3.474   3.675
 2556SOL     OW 7685   2.684   2.864   5.096
 2556SOL    HW1 7686   2.724   2.863   5.004
 2556SOL    HW2 7687   2.694   2.956   5.136
 2557SOL     OW 7688   2.778   2.772   4.015
 2557SOL    HW1 7689   2.841   2.810   3.947
 2557SOL    HW2 7690   2.818   2.689   4.054
 2558SOL     OW 7691   3.366   3.469   3.768
 2558SOL    HW1 7692   3.274   3.506   3.775
 2558SOL    HW2 7693   3.404   3.489   3.678
 2559SOL     OW 7694   2.901   2.960   4.420
 2559SOL    HW1 7695   2.831   2.913   4.474
 2559SOL    HW2 7696   2.960   2.892   4.377
 2560SOL     OW 7697   2.876   2.098   4.695
 2560SOL    HW1 7698   2.868   2.062   4.602
 2560SOL    HW2 7699   2.874   2.022   4.760
 2561SOL     OW 7700   2.452   3.349   4.215
 2561SOL    HW1 7701   2.494   3.291   4.145
 2561SOL    HW2 7702   2.408   3.428   4.171
 2562SOL     OW 7703   2.117   3.210   4.014
 2562SOL    HW1 7704   2.021   3.211   3.987
 2562SOL    HW2 7705   2.129   3.263   4.098
 2563SOL     OW 7706   1.937   2.207   3.757
 2563SOL    HW1 7707   1.845   2.179   3.728
 2563SOL    HW2 7708   1.968   2.284   3.701
 2564SOL     OW 7709   1.934   2.028   4.042
 2564SOL    HW1 7710   1.917   2.111   3.988
 2564SOL    HW2 7711   2.024   1.991   4.020
 2565SOL     OW 7712   3.045   3.197   3.843
 2565SOL    HW1 7713   2.946   3.186   3.845
 2565SOL    HW2 7714   3.079   3.212   3.936
 2566SOL     OW 7715   3.355   3.629   4.683
 2566SOL    HW1 7716   3.388   3.693   4.614
 2566SOL    HW2 7717   3.421   3.623   4.758
 2567SOL     OW 7718   3.536   2.745   4.978
 2567SOL    HW1 7719   3.509   2.656   4.941
 2567SOL    HW2 7720   3.537   2.813   4.905
 2568SOL     OW 7721   3.087   2.187   4.173
 2568SOL    HW1 7722   3.152   2.113   4.162
 2568SOL    HW2 7723   3.107   2.237   4.257
 2569SOL     OW 7724   2.456   2.607   4.376
 2569SOL    HW1 7725   2.506   2.692   4.357
 2569SOL    HW2 7726   2.368   2.609   4.328
 2570SOL     OW 7727   2.721   3.236   3.740
 2570SOL    HW1 7728   2.675   3.251   3.828
 2570SOL    HW2 7729   2.765   3.321   3.710
 2571SOL     OW 7730   2.523   3.652   4.677
 2571SOL    HW1 7731   2.477   3.740   4.664
 2571SOL    HW2 7732   2.622   3.664   4.670
 2572SOL     OW 7733   2.721   2.818   4.585
 2572SOL    HW1 7734   2.775   2.749   4.633
 2572SOL    HW2 7735   2.689   2.887   4.651
 2573SOL     OW 7736   2.945   2.846   3.811
 2573SOL    HW1 7737   2.922   2.899   3.729
 2573SOL    HW2 7738   3.026   2.790   3.792
 2574SOL     OW 7739   3.723   3.431   4.575
 2574SOL    HW1 7740   3.652   3.419   4.505
 2574SOL    HW2 7741   3.724   3.352   4.635
 2575SOL     OW 7742   1.941   3.102   4.377
 2575SOL    HW1 7743   1.940   3.055   4.465
 2575SOL    HW2 7744   2.023   3.074   4.326
 2576SOL     OW 7745   3.686   2.054   4.951
 2576SOL    HW1 7746   3.682   1.964   4.995
 2576SOL    HW2 7747   3.689   2.043   4.852
 2577SOL     OW 7748   2.290   2.286   4.244
 2577SOL    HW1 7749   2.320   2.214   4.182
 2577SOL    HW2 7750   2.251   2.246   4.327
 2578SOL     OW 7751   2.674   3.448   4.411
 2578SOL    HW1 7752   2.706   3.458   4.317
 2578SOL    HW2 7753   2.595   3.386   4.413
 2579SOL     OW 7754   3.286   2.076   4.836
 2579SOL    HW1 7755   3.338   2.011   4.891
 2579SOL    HW2 7756   3.237   2.139   4.897
 2580SOL     OW 7757   2.632   3.192   4.025
 2580SOL    HW1 7758   2.586   3.105   4.042
 2580SOL    HW2 7759   2.723   3.189   4.066
 2581SOL     OW 7760   3.214   1.914   3.892
 2581SOL    HW1 7761   3.249   1.873   3.808
 2581SOL    HW2 7762   3.124   1.876   3.912
 2582SOL     OW 7763   3.162   2.315   4.415
 2582SOL    HW1 7764   3.103   2.395   4.419
 2582SOL    HW2 7765   3.177   2.280   4.508
 2583SOL     OW 7766   3.455   2.083   4.606
 2583SOL    HW1 7767   3.371   2.082   4.660
 2583SOL    HW2 7768   3.457   2.166   4.550
 2584SOL     OW 7769   1.901   2.939   4.024
 2584SOL    HW1 7770   2.000   2.928   4.015
 2584SOL    HW2 7771   1.861   2.853   4.056
 2585SOL     OW 7772   2.737   3.508   4.061
 2585SOL    HW1 7773   2.660   3.473   4.007
 2585SOL    HW2 7774   2.705   3.579   4.123
 2586SOL     OW 7775   2.092   4.352   0.113
 2586SOL    HW1 7776   1.999   4.350   0.150
 2586SOL    HW2 7777   2.093   4.313   0.021
 2587SOL     OW 7778   2.087   3.999   0.996
 2587SOL    HW1 7779   2.122   3.982   1.088
 2587SOL    HW2 7780   1.999   3.954   0.984
 2588SOL     OW 7781   1.881   4.092   0.647
 2588SOL    HW1 7782   1.799   4.135   0.686
 2588SOL    HW2 7783   1.853   4.019   0.584
 2589SOL     OW 7784   2.997   4.427   0.717
 2589SOL    HW1 7785   3.054   4.505   0.692
 2589SOL    HW2 7786   2.937   4.453   0.793
 2590SOL     OW 7787   3.617   4.331   0.231
 2590SOL    HW1 7788   3.605   4.318   0.132
 2590SOL    HW2 7789   3.587   4.250   0.280
 2591SOL     OW 7790   2.630   4.868   1.023
 2591SOL    HW1 7791   2.552   4.885   1.083
 2591SOL    HW2 7792   2.664   4.955   0.987
 2592SOL     OW 7793   2.712   4.522   1.823
 2592SOL    HW1 7794   2.708   4.598   1.888
 2592SOL    HW2 7795   2.734   4.558   1.732
 2593SOL     OW 7796   2.547   4.736   0.665
 2593SOL    HW1 7797   2.616   4.720   0.735
 2593SOL    HW2 7798   2.474   4.793   0.703
 2594SOL     OW 7799   3.322   5.229   1.339
 2594SOL    HW1 7800   3.346   5.323   1.365
 2594SOL    HW2 7801   3.306   5.175   1.421
 2595SOL     OW 7802   2.300   4.116   1.499
 2595SOL    HW1 7803   2.382   4.060   1.508
 2595SOL    HW2 7804   2.219   4.058   1.503
 2596SOL     OW 7805   3.465   4.171   0.737
 2596SOL    HW1 7806   3.391   4.217   0.687
 2596SOL    HW2 7807   3.516   4.239   0.790
 2597SOL     OW 7808   2.102   4.815   0.886
 2597SOL    HW1 7809   2.116   4.731   0.938
 2597SOL    HW2 7810   2.047   4.879   0.941
 2598SOL     OW 7811   2.468   4.688   0.123
 2598SOL    HW1 7812   2.475   4.772   0.069
 2598SOL    HW2 7813   2.514   4.701   0.211
 2599SOL     OW 7814   3.456   3.838   1.480
 2599SOL    HW1 7815   3.438   3.905   1.408
 2599SOL    HW2 7816   3.453   3.884   1.569
 2600SOL     OW 7817   1.984   4.367   0.563
 2600SOL    HW1 7818   1.939   4.279   0.580
 2600SOL    HW2 7819   1.983   4.421   0.647
 2601SOL     OW 7820   3.551   4.646   0.612
 2601SOL    HW1 7821   3.646   4.617   0.620
 2601SOL    HW2 7822   3.543   4.711   0.537
 2602SOL     OW 7823   1.975   4.461   1.597
 2602SOL    HW1 7824   2.063   4.448   1.642
 2602SOL    HW2 7825   1.962   4.558   1.575
 2603SOL     OW 7826   3.155   4.952   1.423
 2603SOL    HW1 7827   3.192   4.879   1.365
 2603SOL    HW2 7828   3.207   4.957   1.508
 2604SOL     OW 7829   2.671   3.728   0.502
 2604SOL    HW1 7830   2.711   3.819   0.493
 2604SOL    HW2 7831   2.571   3.736   0.508
 2605SOL     OW 7832   2.059   4.700   1.264
 2605SOL    HW1 7833   2.148   4.655   1.250
 2605SOL    HW2 7834   1.986   4.635   1.245
 2606SOL     OW 7835   3.387   4.723   0.190
 2606SOL    HW1 7836   3.324   4.647   0.203
 2606SOL    HW2 7837   3.435   4.741   0.276
 2607SOL     OW 7838   2.179   3.975   1.801
 2607SOL    HW1 7839   2.250   4.046   1.807
 2607SOL    HW2 7840   2.091   4.014   1.829
 2608SOL     OW 7841   2.460   4.453   0.270
 2608SOL    HW1 7842   2.484   4.522   0.202
 2608SOL    HW2 7843   2.382   4.486   0.324
 2609SOL     OW 7844   3.143   4.069   0.944
 2609SOL    HW1 7845   3.057   4.019   0.931
 2609SOL    HW2 7846   3.205   4.015   1.000
 2610SOL     OW 7847   2.669   4.329   1.465
 2610SOL    HW1 7848   2.622   4.326   1.554
 2610SOL    HW2 7849   2.618   4.274   1.399
 2611SOL     OW 7850   3.256   4.193   1.674
 2611SOL    HW1 7851   3.236   4.236   1.762
 2611SOL    HW2 7852   3.334   4.131   1.683
 2612SOL     OW 7853   2.835   4.614   1.572
 2612SOL    HW1 7854   2.881   4.530   1.543
 2612SOL    HW2 7855   2.779   4.648   1.497
 2613SOL     OW 7856   2.853   4.134   1.242
 2613SOL    HW1 7857   2.776   4.168   1.296
 2613SOL    HW2 7858   2.819   4.083   1.163
 2614SOL     OW 7859   2.903   4.425   0.429
 2614SOL    HW1 7860   2.929   4.421   0.525
 2614SOL    HW2 7861   2.818   4.374   0.415
 2615SOL     OW 7862   1.938   4.535   0.789
 2615SOL    HW1 7863   2.037   4.523   0.798
 2615SOL    HW2 7864   1.914   4.630   0.810
 2616SOL     OW 7865   2.727   4.072   0.195
 2616SOL    HW1 7866   2.786   4.135   0.146
 2616SOL    HW2 7867   2.746   3.978   0.166
 2617SOL     OW 7868   3.581   4.309   1.831
 2617SOL    HW1 7869   3.555   4.398   1.795
 2617SOL    HW2 7870   3.579   4.241   1.758
 2618SOL     OW 7871   2.412   3.920   0.885
 2618SOL    HW1 7872   2.407   3.915   0.985
 2618SOL    HW2 7873   2.414   4.016   0.856
 2619SOL     OW 7874   3.657   4.790   0.873
 2619SOL    HW1 7875   3.595   4.775   0.797
 2619SOL    HW2 7876   3.605   4.801   0.958
 2620SOL     OW 7877   2.183   4.667   0.242
 2620SOL    HW1 7878   2.265   4.706   0.200
 2620SOL    HW2 7879   2.156   4.585   0.193
 2621SOL     OW 7880   3.320   4.459   0.728
 2621SOL    HW1 7881   3.315   4.394   0.803
 2621SOL    HW2 7882   3.400   4.518   0.741
 2622SOL     OW 7883   2.064   4.009   1.498
 2622SOL    HW1 7884   1.984   4.069   1.485
 2622SOL    HW2 7885   2.054   3.960   1.584
 2623SOL     OW 7886   3.262   3.831   0.426
 2623SOL    HW1 7887   3.238   3.794   0.336
 2623SOL    HW2 7888   3.361   3.847   0.430
 2624SOL     OW 7889   2.244   4.424   0.480
 2624SOL    HW1 7890   2.289   4.334   0.477
 2624SOL    HW2 7891   2.150   4.413   0.513
 2625SOL     OW 7892   3.409   3.946   1.729
 2625SOL    HW1 7893   3.404   3.983   1.821
 2625SOL    HW2 7894   3.337   3.877   1.717
 2626SOL     OW 7895   2.476   3.846   0.117
 2626SOL    HW1 7896   2.574   3.824   0.124
 2626SOL    HW2 7897   2.445   3.829   0.024
 2627SOL     OW 7898   2.643   3.988   1.749
 2627SOL    HW1 7899   2.710   3.927   1.792
 2627SOL    HW2 7900   2.570   4.007   1.814
 2628SOL     OW 7901   3.213   4.314   1.433
 2628SOL    HW1 7902   3.241   4.271   1.518
 2628SOL    HW2 7903   3.238   4.410   1.434
 2629SOL     OW 7904   2.784   4.227   0.899
 2629SOL    HW1 7905   2.759   4.218   0.803
 2629SOL    HW2 7906   2.832   4.145   0.930
 2630SOL     OW 7907   2.401   3.788   0.512
 2630SOL    HW1 7908   2.320   3.789   0.570
 2630SOL    HW2 7909   2.404   3.871   0.457
 2631SOL     OW 7910   2.159   3.759   0.171
 2631SOL    HW1 7911   2.208   3.843   0.150
 2631SOL    HW2 7912   2.221   3.694   0.216
 2632SOL     OW 7913   2.797   3.960   0.480
 2632SOL    HW1 7914   2.749   4.001   0.402
 2632SOL    HW2 7915   2.896   3.958   0.461
 2633SOL     OW 7916   2.938   4.407   1.464
 2633SOL    HW1 7917   2.858   4.346   1.467
 2633SOL    HW2 7918   3.019   4.354   1.440
 2634SOL     OW 7919   2.321   4.876   0.741
 2634SOL    HW1 7920   2.250   4.849   0.806
 2634SOL    HW2 7921   2.295   4.848   0.648
 2635SOL     OW 7922   2.894   4.273   0.016
 2635SOL    HW1 7923   2.853   4.355  -0.023
 2635SOL    HW2 7924   2.958   4.299   0.089
 2636SOL     OW 7925   1.940   4.280   1.386
 2636SOL    HW1 7926   2.032   4.279   1.345
 2636SOL    HW2 7927   1.934   4.354   1.453
 2637SOL     OW 7928   2.423   3.946   1.147
 2637SOL    HW1 7929   2.461   3.862   1.184
 2637SOL    HW2 7930   2.335   3.965   1.191
 2638SOL     OW 7931   2.728   4.178   0.642
 2638SOL    HW1 7932   2.696   4.250   0.580
 2638SOL    HW2 7933   2.752   4.097   0.589
 2639SOL     OW 7934   2.879   3.763   0.753
 2639SOL    HW1 7935   2.807   3.768   0.684
 2639SOL    HW2 7936   2.855   3.694   0.822
 2640SOL     OW 7937   3.291   4.897   0.867
 2640SOL    HW1 7938   3.236   4.813   0.860
 2640SOL    HW2 7939   3.317   4.926   0.775
 2641SOL     OW 7940   3.328   4.314   0.992
 2641SOL    HW1 7941   3.298   4.219   0.999
 2641SOL    HW2 7942   3.401   4.330   1.058
 2642SOL     OW 7943   3.719   4.557   0.377
 2642SOL    HW1 7944   3.761   4.493   0.441
 2642SOL    HW2 7945   3.681   4.506   0.299
 2643SOL     OW 7946   3.252   4.299   0.078
 2643SOL    HW1 7947   3.198   4.278   0.159
 2643SOL    HW2 7948   3.343   4.258   0.087
 2644SOL     OW 7949   2.389   3.980   0.328
 2644SOL    HW1 7950   2.416   3.921   0.253
 2644SOL    HW2 7951   2.389   4.075   0.297
 2645SOL     OW 7952   3.616   4.947   1.588
 2645SOL    HW1 7953   3.707   4.908   1.575
 2645SOL    HW2 7954   3.624   5.043   1.612
 2646SOL     OW 7955   3.500   4.823   1.079
 2646SOL    HW1 7956   3.505   4.904   1.138
 2646SOL    HW2 7957   3.414   4.825   1.028
 2647SOL     OW 7958   2.777   3.813   1.402
 2647SOL    HW1 7959   2.802   3.793   1.307
 2647SOL    HW2 7960   2.849   3.869   1.444
 2648SOL     OW 7961   2.567   4.774   0.368
 2648SOL    HW1 7962   2.553   4.781   0.467
 2648SOL    HW2 7963   2.651   4.723   0.350
 2649SOL     OW 7964   2.272   4.537   1.251
 2649SOL    HW1 7965   2.358   4.549   1.301
 2649SOL    HW2 7966   2.230   4.450   1.278
 2650SOL     OW 7967   3.136   4.110   1.262
 2650SOL    HW1 7968   3.157   4.184   1.326
 2650SOL    HW2 7969   3.047   4.127   1.219
 2651SOL     OW 7970   2.229   4.824   0.501
 2651SOL    HW1 7971   2.222   4.907   0.445
 2651SOL    HW2 7972   2.233   4.744   0.441
 2652SOL     OW 7973   2.428   4.261   0.865
 2652SOL    HW1 7974   2.440   4.327   0.791
 2652SOL    HW2 7975   2.474   4.295   0.948
 2653SOL     OW 7976   3.444   4.363   0.472
 2653SOL    HW1 7977   3.413   4.424   0.545
 2653SOL    HW2 7978   3.494   4.415   0.403
 2654SOL     OW 7979   2.264   4.475   1.598
 2654SOL    HW1 7980   2.332   4.530   1.551
 2654SOL    HW2 7981   2.304   4.387   1.625
 2655SOL     OW 7982   3.449   4.503   1.670
 2655SOL    HW1 7983   3.357   4.541   1.665
 2655SOL    HW2 7984   3.509   4.550   1.605
 2656SOL     OW 7985   2.875   3.829   1.770
 2656SOL    HW1 7986   2.881   3.914   1.718
 2656SOL    HW2 7987   2.907   3.753   1.713
 2657SOL     OW 7988   2.366   3.774   1.740
 2657SOL    HW1 7989   2.324   3.717   1.670
 2657SOL    HW2 7990   2.300   3.843   1.772
 2658SOL     OW 7991   2.435   4.594   1.029
 2658SOL    HW1 7992   2.479   4.683   1.020
 2658SOL    HW2 7993   2.372   4.594   1.106
 2659SOL     OW 7994   3.222   4.586   1.045
 2659SOL    HW1 7995   3.147   4.586   0.979
 2659SOL    HW2 7996   3.259   4.494   1.054
 2660SOL     OW 7997   3.071   4.249   0.275
 2660SOL    HW1 7998   3.084   4.165   0.329
 2660SOL    HW2 7999   3.042   4.323   0.335
 2661SOL     OW 8000   2.169   3.937   1.231
 2661SOL    HW1 8001   2.146   3.974   1.321
 2661SOL    HW2 8002   2.139   3.842   1.225
 2662SOL     OW 8003   2.594   4.358   1.064
 2662SOL    HW1 8004   2.653   4.332   0.988
 2662SOL    HW2 8005   2.566   4.454   1.053
 2663SOL     OW 8006   3.590   4.659   1.854
 2663SOL    HW1 8007   3.544   4.652   1.765
 2663SOL    HW2 8008   3.528   4.703   1.920
 2664SOL     OW 8009   2.169   3.787   0.618
 2664SOL    HW1 8010   2.158   3.881   0.651
 2664SOL    HW2 8011   2.164   3.724   0.695
 2665SOL     OW 8012   3.484   4.091   0.374
 2665SOL    HW1 8013   3.486   4.015   0.438
 2665SOL    HW2 8014   3.436   4.168   0.414
 2666SOL     OW 8015   2.885   4.490   0.966
 2666SOL    HW1 8016   2.900   4.511   1.062
 2666SOL    HW2 8017   2.855   4.395   0.957
 2667SOL     OW 8018   2.212   4.622   1.804
 2667SOL    HW1 8019   2.288   4.666   1.852
 2667SOL    HW2 8020   2.247   4.575   1.722
 2668SOL     OW 8021   3.402   3.998   0.125
 2668SOL    HW1 8022   3.341   3.923   0.148
 2668SOL    HW2 8023   3.424   4.050   0.208
 2669SOL     OW 8024   3.165   4.562   0.042
 2669SOL    HW1 8025   3.199   4.469   0.057
 2669SOL    HW2 8026   3.183   4.589  -0.053
 2670SOL     OW 8027   2.181   4.534   0.949
 2670SOL    HW1 8028   2.274   4.570   0.954
 2670SOL    HW2 8029   2.175   4.449   1.001
 2671SOL     OW 8030   2.201   4.233   1.006
 2671SOL    HW1 8031   2.149   4.150   0.989
 2671SOL    HW2 8032   2.278   4.238   0.942
 2672SOL     OW 8033   3.000   4.104   1.678
 2672SOL    HW1 8034   2.955   4.167   1.742
 2672SOL    HW2 8035   3.093   4.135   1.661
 2673SOL     OW 8036   3.022   3.931   1.477
 2673SOL    HW1 8037   3.022   3.995   1.554
 2673SOL    HW2 8038   3.050   3.979   1.394
 2674SOL     OW 8039   2.864   4.520   1.238
 2674SOL    HW1 8040   2.905   4.488   1.324
 2674SOL    HW2 8041   2.768   4.493   1.235
 2675SOL     OW 8042   1.902   4.268   1.114
 2675SOL    HW1 8043   1.987   4.235   1.073
 2675SOL    HW2 8044   1.915   4.283   1.212
 2676SOL     OW 8045   2.051   4.244   1.722
 2676SOL    HW1 8046   2.110   4.204   1.652
 2676SOL    HW2 8047   1.993   4.315   1.681
 2677SOL     OW 8048   3.231   4.674   1.660
 2677SOL    HW1 8049   3.270   4.763   1.680
 2677SOL    HW2 8050   3.241   4.654   1.563
 2678SOL     OW 8051   2.677   4.296   0.325
 2678SOL    HW1 8052   2.684   4.207   0.279
 2678SOL    HW2 8053   2.583   4.330   0.317
 2679SOL     OW 8054   3.519   4.328   1.206
 2679SOL    HW1 8055   3.481   4.259   1.268
 2679SOL    HW2 8056   3.601   4.292   1.162
 2680SOL     OW 8057   2.533   4.188   1.269
 2680SOL    HW1 8058   2.499   4.099   1.239
 2680SOL    HW2 8059   2.559   4.242   1.189
 2681SOL     OW 8060   2.335   4.224   0.191
 2681SOL    HW1 8061   2.396   4.304   0.195
 2681SOL    HW2 8062   2.240   4.255   0.198
 2682SOL     OW 8063   2.021   4.861   1.466
 2682SOL    HW1 8064   2.043   4.800   1.542
 2682SOL    HW2 8065   2.031   4.812   1.380
 2683SOL     OW 8066   3.209   4.783   1.234
 2683SOL    HW1 8067   3.233   4.720   1.160
 2683SOL    HW2 8068   3.119   4.823   1.216
 2684SOL     OW 8069   3.164   4.579   0.309
 2684SOL    HW1 8070   3.078   4.548   0.351
 2684SOL    HW2 8071   3.160   4.565   0.210
 2685SOL     OW 8072   2.765   3.810   0.133
 2685SOL    HW1 8073   2.816   3.811   0.047
 2685SOL    HW2 8074   2.821   3.768   0.204
 2686SOL     OW 8075   3.588   3.859   0.523
 2686SOL    HW1 8076   3.661   3.842   0.456
 2686SOL    HW2 8077   3.557   3.772   0.561
 2687SOL     OW 8078   3.142   4.651   0.672
 2687SOL    HW1 8079   3.202   4.570   0.674
 2687SOL    HW2 8080   3.182   4.720   0.612
 2688SOL     OW 8081   3.703   3.899   0.963
 2688SOL    HW1 8082   3.742   3.814   0.927
 2688SOL    HW2 8083   3.605   3.901   0.944
 2689SOL     OW 8084   2.125   4.050   0.720
 2689SOL    HW1 8085   2.046   4.101   0.686
 2689SOL    HW2 8086   2.116   4.035   0.818
 2690SOL     OW 8087   2.684   4.726   1.372
 2690SOL    HW1 8088   2.724   4.725   1.280
 2690SOL    HW2 8089   2.694   4.818   1.412
 2691SOL     OW 8090   2.778   4.634   0.291
 2691SOL    HW1 8091   2.841   4.672   0.223
 2691SOL    HW2 8092   2.818   4.551   0.330
 2692SOL     OW 8093   2.234   5.012   1.490
 2692SOL    HW1 8094   2.221   5.105   1.456
 2692SOL    HW2 8095   2.150   4.960   1.477
 2693SOL     OW 8096   2.876   3.960   0.971
 2693SOL    HW1 8097   2.868   3.924   0.878
 2693SOL    HW2 8098   2.874   3.884   1.036
 2694SOL     OW 8099   3.571   4.109   1.381
 2694SOL    HW1 8100   3.644   4.178   1.385
 2694SOL    HW2 8101   3.599   4.034   1.322
 2695SOL     OW 8102   1.967   4.737   1.726
 2695SOL    HW1 8103   1.890   4.704   1.780
 2695SOL    HW2 8104   2.052   4.707   1.768
 2696SOL     OW 8105   2.534   3.927   1.489
 2696SOL    HW1 8106   2.624   3.911   1.449
 2696SOL    HW2 8107   2.542   3.932   1.588
 2697SOL     OW 8108   3.302   4.580   1.398
 2697SOL    HW1 8109   3.245   4.632   1.335
 2697SOL    HW2 8110   3.398   4.592   1.374
 2698SOL     OW 8111   1.934   3.890   0.318
 2698SOL    HW1 8112   1.917   3.973   0.264
 2698SOL    HW2 8113   2.024   3.853   0.296
 2699SOL     OW 8114   3.045   5.059   0.119
 2699SOL    HW1 8115   2.946   5.048   0.121
 2699SOL    HW2 8116   3.079   5.074   0.212
 2700SOL     OW 8117   2.475   4.566   1.431
 2700SOL    HW1 8118   2.531   4.647   1.414
 2700SOL    HW2 8119   2.534   4.486   1.434
 2701SOL     OW 8120   2.578   4.289   1.708
 2701SOL    HW1 8121   2.597   4.354   1.782
 2701SOL    HW2 8122   2.638   4.209   1.717
 2702SOL     OW 8123   3.312   4.944   1.633
 2702SOL    HW1 8124   3.303   4.934   1.732
 2702SOL    HW2 8125   3.408   4.937   1.607
 2703SOL     OW 8126   3.536   4.607   1.254
 2703SOL    HW1 8127   3.509   4.518   1.217
 2703SOL    HW2 8128   3.537   4.675   1.181
 2704SOL     OW 8129   3.087   4.049   0.449
 2704SOL    HW1 8130   3.152   3.975   0.438
 2704SOL    HW2 8131   3.107   4.099   0.533
 2705SOL     OW 8132   2.456   4.469   0.652
 2705SOL    HW1 8133   2.506   4.554   0.633
 2705SOL    HW2 8134   2.368   4.471   0.604
 2706SOL     OW 8135   3.639   4.066   1.642
 2706SOL    HW1 8136   3.622   4.097   1.548
 2706SOL    HW2 8137   3.555   4.029   1.680
 2707SOL     OW 8138   3.592   4.658   1.517
 2707SOL    HW1 8139   3.630   4.749   1.532
 2707SOL    HW2 8140   3.584   4.641   1.418
 2708SOL     OW 8141   2.721   4.680   0.861
 2708SOL    HW1 8142   2.775   4.611   0.909
 2708SOL    HW2 8143   2.689   4.749   0.927
 2709SOL     OW 8144   2.945   4.708   0.087
 2709SOL    HW1 8145   2.922   4.761   0.005
 2709SOL    HW2 8146   3.026   4.652   0.068
 2710SOL     OW 8147   3.686   3.916   1.227
 2710SOL    HW1 8148   3.682   3.826   1.271
 2710SOL    HW2 8149   3.689   3.905   1.128
 2711SOL     OW 8150   2.290   4.148   0.520
 2711SOL    HW1 8151   2.320   4.076   0.458
 2711SOL    HW2 8152   2.251   4.108   0.603
 2712SOL     OW 8153   2.179   4.271   1.280
 2712SOL    HW1 8154   2.217   4.212   1.352
 2712SOL    HW2 8155   2.219   4.245   1.192
 2713SOL     OW 8156   3.286   3.938   1.112
 2713SOL    HW1 8157   3.338   3.873   1.167
 2713SOL    HW2 8158   3.237   4.001   1.173
 2714SOL     OW 8159   2.863   3.758   1.154
 2714SOL    HW1 8160   2.800   3.686   1.123
 2714SOL    HW2 8161   2.956   3.722   1.154
 2715SOL     OW 8162   2.632   5.054   0.301
 2715SOL    HW1 8163   2.586   4.967   0.318
 2715SOL    HW2 8164   2.723   5.051   0.342
 2716SOL     OW 8165   3.214   3.776   0.168
 2716SOL    HW1 8166   3.249   3.735   0.084
 2716SOL    HW2 8167   3.124   3.738   0.188
 2717SOL     OW 8168   3.162   4.177   0.691
 2717SOL    HW1 8169   3.103   4.257   0.695
 2717SOL    HW2 8170   3.177   4.142   0.784
 2718SOL     OW 8171   3.455   3.945   0.882
 2718SOL    HW1 8172   3.371   3.944   0.936
 2718SOL    HW2 8173   3.457   4.028   0.826
 2719SOL     OW 8174   1.901   4.801   0.300
 2719SOL    HW1 8175   2.000   4.790   0.291
 2719SOL    HW2 8176   1.861   4.715   0.332
 2720SOL     OW 8177   2.092   4.352   1.975
 2720SOL    HW1 8178   1.999   4.350   2.012
 2720SOL    HW2 8179   2.093   4.313   1.883
 2721SOL     OW 8180   2.087   3.999   2.858
 2721SOL    HW1 8181   2.122   3.982   2.950
 2721SOL    HW2 8182   1.999   3.954   2.846
 2722SOL     OW 8183   1.881   4.092   2.509
 2722SOL    HW1 8184   1.799   4.135   2.548
 2722SOL    HW2 8185   1.853   4.019   2.446
 2723SOL     OW 8186   2.997   4.427   2.579
 2723SOL    HW1 8187   3.054   4.505   2.554
 2723SOL    HW2 8188   2.937   4.453   2.655
 2724SOL     OW 8189   3.617   4.331   2.093
 2724SOL    HW1 8190   3.605   4.318   1.994
 2724SOL    HW2 8191   3.587   4.250   2.142
 2725SOL     OW 8192   2.630   4.868   2.885
 2725SOL    HW1 8193   2.552   4.885   2.945
 2725SOL    HW2 8194   2.664   4.955   2.849
 2726SOL     OW 8195   2.712   4.522   3.685
 2726SOL    HW1 8196   2.708   4.598   3.750
 2726SOL    HW2 8197   2.734   4.558   3.594
 2727SOL     OW 8198   2.547   4.736   2.527
 2727SOL    HW1 8199   2.616   4.720   2.597
 2727SOL    HW2 8200   2.474   4.793   2.565
 2728SOL     OW 8201   3.322   5.229   3.201
 2728SOL    HW1 8202   3.346   5.323   3.227
 2728SOL    HW2 8203   3.306   5.175   3.283
 2729SOL     OW 8204   2.300   4.116   3.361
 2729SOL    HW1 8205   2.382   4.060   3.370
 2729SOL    HW2 8206   2.219   4.058   3.365
 2730SOL     OW 8207   3.465   4.171   2.599
 2730SOL    HW1 8208   3.391   4.217   2.549
 2730SOL    HW2 8209   3.516   4.239   2.652
 2731SOL     OW 8210   2.102   4.815   2.748
 2731SOL    HW1 8211   2.116   4.731   2.800
 2731SOL    HW2 8212   2.047   4.879   2.803
 2732SOL     OW 8213   2.468   4.688   1.985
 2732SOL    HW1 8214   2.475   4.772   1.931
 2732SOL    HW2 8215   2.514   4.701   2.073
 2733SOL     OW 8216   3.456   3.838   3.342
 2733SOL    HW1 8217   3.438   3.905   3.270
 2733SOL    HW2 8218   3.453   3.884   3.431
 2734SOL     OW 8219   1.984   4.367   2.425
 2734SOL    HW1 8220   1.939   4.279   2.442
 2734SOL    HW2 8221   1.983   4.421   2.509
 2735SOL     OW 8222   3.551   4.646   2.474
 2735SOL    HW1 8223   3.646   4.617   2.482
 2735SOL    HW2 8224   3.543   4.711   2.399
 2736SOL     OW 8225   1.975   4.461   3.459
 2736SOL    HW1 8226   2.063   4.448   3.504
 2736SOL    HW2 8227   1.962   4.558   3.437
 2737SOL     OW 8228   3.155   4.952   3.285
 2737SOL    HW1 8229   3.192   4.879   3.227
 2737SOL    HW2 8230   3.207   4.957   3.370
 2738SOL     OW 8231   2.671   3.728   2.364
 2738SOL    HW1 8232   2.711   3.819   2.355
 2738SOL    HW2 8233   2.571   3.736   2.370
 2739SOL     OW 8234   2.059   4.700   3.126
 2739SOL    HW1 8235   2.148   4.655   3.112
 2739SOL    HW2 8236   1.986   4.635   3.107
 2740SOL     OW 8237   3.387   4.723   2.052
 2740SOL    HW1 8238   3.324   4.647   2.065
 2740SOL    HW2 8239   3.435   4.741   2.138
 2741SOL     OW 8240   2.179   3.975   3.663
 2741SOL    HW1 8241   2.250   4.046   3.669
 2741SOL    HW2 8242   2.091   4.014   3.691
 2742SOL     OW 8243   2.460   4.453   2.132
 2742SOL    HW1 8244   2.484   4.522   2.064
 2742SOL    HW2 8245   2.382   4.486   2.186
 2743SOL     OW 8246   3.143   4.069   2.806
 2743SOL    HW1 8247   3.057   4.019   2.793
 2743SOL    HW2 8248   3.205   4.015   2.862
 2744SOL     OW 8249   2.669   4.329   3.327
 2744SOL    HW1 8250   2.622   4.326   3.416
 2744SOL    HW2 8251   2.618   4.274   3.261
 2745SOL     OW 8252   3.256   4.193   3.536
 2745SOL    HW1 8253   3.236   4.236   3.624
 2745SOL    HW2 8254   3.334   4.131   3.545
 2746SOL     OW 8255   2.835   4.614   3.434
 2746SOL    HW1 8256   2.881   4.530   3.405
 2746SOL    HW2 8257   2.779   4.648   3.359
 2747SOL     OW 8258   2.853   4.134   3.104
 2747SOL    HW1 8259   2.776   4.168   3.158
 2747SOL    HW2 8260   2.819   4.083   3.025
 2748SOL     OW 8261   2.903   4.425   2.291
 2748SOL    HW1 8262   2.929   4.421   2.387
 2748SOL    HW2 8263   2.818   4.374   2.277
 2749SOL     OW 8264   1.938   4.535   2.651
 2749SOL    HW1 8265   2.037   4.523   2.660
 2749SOL    HW2 8266   1.914   4.630   2.672
 2750SOL     OW 8267   2.727   4.072   2.057
 2750SOL    HW1 8268   2.786   4.135   2.008
 2750SOL    HW2 8269   2.746   3.978   2.028
 2751SOL     OW 8270   3.581   4.309   3.693
 2751SOL    HW1 8271   3.555   4.398   3.657
 2751SOL    HW2 8272   3.579   4.241   3.620
 2752SOL     OW 8273   2.412   3.920   2.747
 2752SOL    HW1 8274   2.407   3.915   2.847
 2752SOL    HW2 8275   2.414   4.016   2.718
 2753SOL     OW 8276   3.657   4.790   2.735
 2753SOL    HW1 8277   3.595   4.775   2.659
 2753SOL    HW2 8278   3.605   4.801   2.820
 2754SOL     OW 8279   2.183   4.667   2.104
 2754SOL    HW1 8280   2.265   4.706   2.062
 2754SOL    HW2 8281   2.156   4.585   2.055
 2755SOL     OW 8282   3.320   4.459   2.590
 2755SOL    HW1 8283   3.315   4.394   2.665
 2755SOL    HW2 8284   3.400   4.518   2.603
 2756SOL     OW 8285   2.064   4.009   3.360
 2756SOL    HW1 8286   1.984   4.069   3.347
 2756SOL    HW2 8287   2.054   3.960   3.446
 2757SOL     OW 8288   3.262   3.831   2.288
 2757SOL    HW1 8289   3.238   3.794   2.198
 2757SOL    HW2 8290   3.361   3.847   2.292
 2758SOL     OW 8291   2.244   4.424   2.342
 2758SOL    HW1 8292   2.289   4.334   2.339
 2758SOL    HW2 8293   2.150   4.413   2.375
 2759SOL     OW 8294   3.409   3.946   3.591
 2759SOL    HW1 8295   3.404   3.983   3.683
 2759SOL    HW2 8296   3.337   3.877   3.579
 2760SOL     OW 8297   2.476   3.846   1.979
 2760SOL    HW1 8298   2.574   3.824   1.986
 2760SOL    HW2 8299   2.445   3.829   1.886
 2761SOL     OW 8300   2.643   3.988   3.611
 2761SOL    HW1 8301   2.710   3.927   3.654
 2761SOL    HW2 8302   2.570   4.007   3.676
 2762SOL     OW 8303   3.213   4.314   3.295
 2762SOL    HW1 8304   3.241   4.271   3.380
 2762SOL    HW2 8305   3.238   4.410   3.296
 2763SOL     OW 8306   2.784   4.227   2.761
 2763SOL    HW1 8307   2.759   4.218   2.665
 2763SOL    HW2 8308   2.832   4.145   2.792
 2764SOL     OW 8309   2.401   3.788   2.374
 2764SOL    HW1 8310   2.320   3.789   2.432
 2764SOL    HW2 8311   2.404   3.871   2.319
 2765SOL     OW 8312   2.159   3.759   2.033
 2765SOL    HW1 8313   2.208   3.843   2.012
 2765SOL    HW2 8314   2.221   3.694   2.078
 2766SOL     OW 8315   2.797   3.960   2.342
 2766SOL    HW1 8316   2.749   4.001   2.264
 2766SOL    HW2 8317   2.896   3.958   2.323
 2767SOL     OW 8318   2.938   4.407   3.326
 2767SOL    HW1 8319   2.858   4.346   3.329
 2767SOL    HW2 8320   3.019   4.354   3.302
 2768SOL     OW 8321   2.321   4.876   2.603
 2768SOL    HW1 8322   2.250   4.849   2.668
 2768SOL    HW2 8323   2.295   4.848   2.510
 2769SOL     OW 8324   2.894   4.273   1.878
 2769SOL    HW1 8325   2.853   4.355   1.839
 2769SOL    HW2 8326   2.958   4.299   1.951
 2770SOL     OW 8327   1.940   4.280   3.248
 2770SOL    HW1 8328   2.032   4.279   3.207
 2770SOL    HW2 8329   1.934   4.354   3.315
 2771SOL     OW 8330   2.423   3.946   3.009
 2771SOL    HW1 8331   2.461   3.862   3.046
 2771SOL    HW2 8332   2.335   3.965   3.053
 2772SOL     OW 8333   2.728   4.178   2.504
 2772SOL    HW1 8334   2.696   4.250   2.442
 2772SOL    HW2 8335   2.752   4.097   2.451
 2773SOL     OW 8336   2.879   3.763   2.615
 2773SOL    HW1 8337   2.807   3.768   2.546
 2773SOL    HW2 8338   2.855   3.694   2.684
 2774SOL     OW 8339   3.291   4.897   2.729
 2774SOL    HW1 8340   3.236   4.813   2.722
 2774SOL    HW2 8341   3.317   4.926   2.637
 2775SOL     OW 8342   3.328   4.314   2.854
 2775SOL    HW1 8343   3.298   4.219   2.861
 2775SOL    HW2 8344   3.401   4.330   2.920
 2776SOL     OW 8345   3.719   4.557   2.239
 2776SOL    HW1 8346   3.761   4.493   2.303
 2776SOL    HW2 8347   3.681   4.506   2.161
 2777SOL     OW 8348   3.252   4.299   1.940
 2777SOL    HW1 8349   3.198   4.278   2.021
 2777SOL    HW2 8350   3.343   4.258   1.949
 2778SOL     OW 8351   2.389   3.980   2.190
 2778SOL    HW1 8352   2.416   3.921   2.115
 2778SOL    HW2 8353   2.389   4.075   2.159
 2779SOL     OW 8354   3.616   4.947   3.450
 2779SOL    HW1 8355   3.707   4.908   3.437
 2779SOL    HW2 8356   3.624   5.043   3.474
 2780SOL     OW 8357   3.500   4.823   2.941
 2780SOL    HW1 8358   3.505   4.904   3.000
 2780SOL    HW2 8359   3.414   4.825   2.890
 2781SOL     OW 8360   2.777   3.813   3.264
 2781SOL    HW1 8361   2.802   3.793   3.169
 2781SOL    HW2 8362   2.849   3.869   3.306
 2782SOL     OW 8363   2.567   4.774   2.230
 2782SOL    HW1 8364   2.553   4.781   2.329
 2782SOL    HW2 8365   2.651   4.723   2.212
 2783SOL     OW 8366   2.272   4.537   3.113
 2783SOL    HW1 8367   2.358   4.549   3.163
 2783SOL    HW2 8368   2.230   4.450   3.140
 2784SOL     OW 8369   3.136   4.110   3.124
 2784SOL    HW1 8370   3.157   4.184   3.188
 2784SOL    HW2 8371   3.047   4.127   3.081
 2785SOL     OW 8372   2.229   4.824   2.363
 2785SOL    HW1 8373   2.222   4.907   2.307
 2785SOL    HW2 8374   2.233   4.744   2.303
 2786SOL     OW 8375   2.428   4.261   2.727
 2786SOL    HW1 8376   2.440   4.327   2.653
 2786SOL    HW2 8377   2.474   4.295   2.810
 2787SOL     OW 8378   3.444   4.363   2.334
 2787SOL    HW1 8379   3.413   4.424   2.407
 2787SOL    HW2 8380   3.494   4.415   2.265
 2788SOL     OW 8381   2.264   4.475   3.460
 2788SOL    HW1 8382   2.332   4.530   3.413
 2788SOL    HW2 8383   2.304   4.387   3.487
 2789SOL     OW 8384   3.449   4.503   3.532
 2789SOL    HW1 8385   3.357   4.541   3.527
 2789SOL    HW2 8386   3.509   4.550   3.467
 2790SOL     OW 8387   2.875   3.829   3.632
 2790SOL    HW1 8388   2.881   3.914   3.580
 2790SOL    HW2 8389   2.907   3.753   3.575
 2791SOL     OW 8390   2.366   3.774   3.602
 2791SOL    HW1 8391   2.324   3.717   3.532
 2791SOL    HW2 8392   2.300   3.843   3.634
 2792SOL     OW 8393   2.435   4.594   2.891
 2792SOL    HW1 8394   2.479   4.683   2.882
 2792SOL    HW2 8395   2.372   4.594   2.968
 2793SOL     OW 8396   3.222   4.586   2.907
 2793SOL    HW1 8397   3.147   4.586   2.841
 2793SOL    HW2 8398   3.259   4.494   2.916
 2794SOL     OW 8399   3.071   4.249   2.137
 2794SOL    HW1 8400   3.084   4.165   2.191
 2794SOL    HW2 8401   3.042   4.323   2.197
 2795SOL     OW 8402   2.169   3.937   3.093
 2795SOL    HW1 8403   2.146   3.974   3.183
 2795SOL    HW2 8404   2.139   3.842   3.087
 2796SOL     OW 8405   2.594   4.358   2.926
 2796SOL    HW1 8406   2.653   4.332   2.850
 2796SOL    HW2 8407   2.566   4.454   2.915
 2797SOL     OW 8408   3.590   4.659   3.716
 2797SOL    HW1 8409   3.544   4.652   3.627
 2797SOL    HW2 8410   3.528   4.703   3.782
 2798SOL     OW 8411   2.169   3.787   2.480
 2798SOL    HW1 8412   2.158   3.881   2.513
 2798SOL    HW2 8413   2.164   3.724   2.557
 2799SOL     OW 8414   3.484   4.091   2.236
 2799SOL    HW1 8415   3.486   4.015   2.300
 2799SOL    HW2 8416   3.436   4.168   2.276
 2800SOL     OW 8417   2.885   4.490   2.828
 2800SOL    HW1 8418   2.900   4.511   2.924
 2800SOL    HW2 8419   2.855   4.395   2.819
 2801SOL     OW 8420   2.212   4.622   3.666
 2801SOL    HW1 8421   2.288   4.666   3.714
 2801SOL    HW2 8422   2.247   4.575   3.584
 2802SOL     OW 8423   3.402   3.998   1.987
 2802SOL    HW1 8424   3.341   3.923   2.010
 2802SOL    HW2 8425   3.424   4.050   2.070
 2803SOL     OW 8426   3.165   4.562   1.904
 2803SOL    HW1 8427   3.199   4.469   1.919
 2803SOL    HW2 8428   3.183   4.589   1.809
 2804SOL     OW 8429   2.181   4.534   2.811
 2804SOL    HW1 8430   2.274   4.570   2.816
 2804SOL    HW2 8431   2.175   4.449   2.863
 2805SOL     OW 8432   2.201   4.233   2.868
 2805SOL    HW1 8433   2.149   4.150   2.851
 2805SOL    HW2 8434   2.278   4.238   2.804
 2806SOL     OW 8435   3.000   4.104   3.540
 2806SOL    HW1 8436   2.955   4.167   3.604
 2806SOL    HW2 8437   3.093   4.135   3.523
 2807SOL     OW 8438   3.022   3.931   3.339
 2807SOL    HW1 8439   3.022   3.995   3.416
 2807SOL    HW2 8440   3.050   3.979   3.256
 2808SOL     OW 8441   2.864   4.520   3.100
 2808SOL    HW1 8442   2.905   4.488   3.186
 2808SOL    HW2 8443   2.768   4.493   3.097
 2809SOL     OW 8444   1.902   4.268   2.976
 2809SOL    HW1 8445   1.987   4.235   2.935
 2809SOL    HW2 8446   1.915   4.283   3.074
 2810SOL     OW 8447   2.051   4.244   3.584
 2810SOL    HW1 8448   2.110   4.204   3.514
 2810SOL    HW2 8449   1.993   4.315   3.543
 2811SOL     OW 8450   3.231   4.674   3.522
 2811SOL    HW1 8451   3.270   4.763   3.542
 2811SOL    HW2 8452   3.241   4.654   3.425
 2812SOL     OW 8453   2.677   4.296   2.187
 2812SOL    HW1 8454   2.684   4.207   2.141
 2812SOL    HW2 8455   2.583   4.330   2.179
 2813SOL     OW 8456   3.519   4.328   3.068
 2813SOL    HW1 8457   3.481   4.259   3.130
 2813SOL    HW2 8458   3.601   4.292   3.024
 2814SOL     OW 8459   2.533   4.188   3.131
 2814SOL    HW1 8460   2.499   4.099   3.101
 2814SOL    HW2 8461   2.559   4.242   3.051
 2815SOL     OW 8462   2.335   4.224   2.053
 2815SOL    HW1 8463   2.396   4.304   2.057
 2815SOL    HW2 8464   2.240   4.255   2.060
 2816SOL     OW 8465   2.021   4.861   3.328
 2816SOL    HW1 8466   2.043   4.800   3.404
 2816SOL    HW2 8467   2.031   4.812   3.242
 2817SOL     OW 8468   3.209   4.783   3.096
 2817SOL    HW1 8469   3.233   4.720   3.022
 2817SOL    HW2 8470   3.119   4.823   3.078
 2818SOL     OW 8471   3.164   4.579   2.171
 2818SOL    HW1 8472   3.078   4.548   2.213
 2818SOL    HW2 8473   3.160   4.565   2.072
 2819SOL     OW 8474   3.588   3.859   2.385
 2819SOL    HW1 8475   3.661   3.842   2.318
 2819SOL    HW2 8476   3.557   3.772   2.423
 2820SOL     OW 8477   3.142   4.651   2.534
 2820SOL    HW1 8478   3.202   4.570   2.536
 2820SOL    HW2 8479   3.182   4.720   2.474
 2821SOL     OW 8480   3.703   3.899   2.825
 2821SOL    HW1 8481   3.742   3.814   2.789
 2821SOL    HW2 8482   3.605   3.901   2.806
 2822SOL     OW 8483   2.125   4.050   2.582
 2822SOL    HW1 8484   2.046   4.101   2.548
 2822SOL    HW2 8485   2.116   4.035   2.680
 2823SOL     OW 8486   2.684   4.726   3.234
 2823SOL    HW1 8487   2.724   4.725   3.142
 2823SOL    HW2 8488   2.694   4.818   3.274
 2824SOL     OW 8489   2.778   4.634   2.153
 2824SOL    HW1 8490   2.841   4.672   2.085
 2824SOL    HW2 8491   2.818   4.551   2.192
 2825SOL     OW 8492   2.234   5.012   3.352
 2825SOL    HW1 8493   2.221   5.105   3.318
 2825SOL    HW2 8494   2.150   4.960   3.339
 2826SOL     OW 8495   2.876   3.960   2.833
 2826SOL    HW1 8496   2.868   3.924   2.740
 2826SOL    HW2 8497   2.874   3.884   2.898
 2827SOL     OW 8498   3.571   4.109   3.243
 2827SOL    HW1 8499   3.644   4.178   3.247
 2827SOL    HW2 8500   3.599   4.034   3.184
 2828SOL     OW 8501   1.967   4.737   3.588
 2828SOL    HW1 8502   1.890   4.704   3.642
 2828SOL    HW2 8503   2.052   4.707   3.630
 2829SOL     OW 8504   2.534   3.927   3.351
 2829SOL    HW1 8505   2.624   3.911   3.311
 2829SOL    HW2 8506   2.542   3.932   3.450
 2830SOL     OW 8507   1.937   4.069   1.895
 2830SOL    HW1 8508   1.845   4.041   1.866
 2830SOL    HW2 8509   1.968   4.146   1.839
 2831SOL     OW 8510   3.302   4.580   3.260
 2831SOL    HW1 8511   3.245   4.632   3.197
 2831SOL    HW2 8512   3.398   4.592   3.236
 2832SOL     OW 8513   1.934   3.890   2.180
 2832SOL    HW1 8514   1.917   3.973   2.126
 2832SOL    HW2 8515   2.024   3.853   2.158
 2833SOL     OW 8516   3.045   5.059   1.981
 2833SOL    HW1 8517   2.946   5.048   1.983
 2833SOL    HW2 8518   3.079   5.074   2.074
 2834SOL     OW 8519   2.475   4.566   3.293
 2834SOL    HW1 8520   2.531   4.647   3.276
 2834SOL    HW2 8521   2.534   4.486   3.296
 2835SOL     OW 8522   2.578   4.289   3.570
 2835SOL    HW1 8523   2.597   4.354   3.644
 2835SOL    HW2 8524   2.638   4.209   3.579
 2836SOL     OW 8525   3.312   4.944   3.495
 2836SOL    HW1 8526   3.303   4.934   3.594
 2836SOL    HW2 8527   3.408   4.937   3.469
 2837SOL     OW 8528   3.536   4.607   3.116
 2837SOL    HW1 8529   3.509   4.518   3.079
 2837SOL    HW2 8530   3.537   4.675   3.043
 2838SOL     OW 8531   3.087   4.049   2.311
 2838SOL    HW1 8532   3.152   3.975   2.300
 2838SOL    HW2 8533   3.107   4.099   2.395
 2839SOL     OW 8534   2.456   4.469   2.514
 2839SOL    HW1 8535   2.506   4.554   2.495
 2839SOL    HW2 8536   2.368   4.471   2.466
 2840SOL     OW 8537   3.639   4.066   3.504
 2840SOL    HW1 8538   3.622   4.097   3.410
 2840SOL    HW2 8539   3.555   4.029   3.542
 2841SOL     OW 8540   3.592   4.658   3.379
 2841SOL    HW1 8541   3.630   4.749   3.394
 2841SOL    HW2 8542   3.584   4.641   3.280
 2842SOL     OW 8543   2.721   4.680   2.723
 2842SOL    HW1 8544   2.775   4.611   2.771
 2842SOL    HW2 8545   2.689   4.749   2.789
 2843SOL     OW 8546   2.945   4.708   1.949
 2843SOL    HW1 8547   2.922   4.761   1.867
 2843SOL    HW2 8548   3.026   4.652   1.930
 2844SOL     OW 8549   3.686   3.916   3.089
 2844SOL    HW1 8550   3.682   3.826   3.133
 2844SOL    HW2 8551   3.689   3.905   2.990
 2845SOL     OW 8552   2.290   4.148   2.382
 2845SOL    HW1 8553   2.320   4.076   2.320
 2845SOL    HW2 8554   2.251   4.108   2.465
 2846SOL     OW 8555   2.179   4.271   3.142
 2846SOL    HW1 8556   2.217   4.212   3.214
 2846SOL    HW2 8557   2.219   4.245   3.054
 2847SOL     OW 8558   3.286   3.938   2.974
 2847SOL    HW1 8559   3.338   3.873   3.029
 2847SOL    HW2 8560   3.237   4.001   3.035
 2848SOL     OW 8561   2.863   3.758   3.016
 2848SOL    HW1 8562   2.800   3.686   2.985
 2848SOL    HW2 8563   2.956   3.722   3.016
 2849SOL     OW 8564   2.632   5.054   2.163
 2849SOL    HW1 8565   2.586   4.967   2.180
 2849SOL    HW2 8566   2.723   5.051   2.204
 2850SOL     OW 8567   3.214   3.776   2.030
 2850SOL    HW1 8568   3.249   3.735   1.946
 2850SOL    HW2 8569   3.124   3.738   2.050
 2851SOL     OW 8570   3.162   4.177   2.553
 2851SOL    HW1 8571   3.103   4.257   2.557
 2851SOL    HW2 8572   3.177   4.142   2.646
 2852SOL     OW 8573   3.455   3.945   2.744
 2852SOL    HW1 8574   3.371   3.944   2.798
 2852SOL    HW2 8575   3.457   4.028   2.688
 2853SOL     OW 8576   1.901   4.801   2.162
 2853SOL    HW1 8577   2.000   4.790   2.153
 2853SOL    HW2 8578   1.861   4.715   2.194
 2854SOL     OW 8579   2.092   4.352   3.837
 2854SOL    HW1 8580   1.999   4.350   3.874
 2854SOL    HW2 8581   2.093   4.313   3.745
 2855SOL     OW 8582   2.087   3.999   4.720
 2855SOL    HW1 8583   2.122   3.982   4.812
 2855SOL    HW2 8584   1.999   3.954   4.708
 2856SOL     OW 8585   1.881   4.092   4.371
 2856SOL    HW1 8586   1.799   4.135   4.410
 2856SOL    HW2 8587   1.853   4.019   4.308
 2857SOL     OW 8588   2.997   4.427   4.441
 2857SOL    HW1 8589   3.054   4.505   4.416
 2857SOL    HW2 8590   2.937   4.453   4.517
 2858SOL     OW 8591   3.617   4.331   3.955
 2858SOL    HW1 8592   3.605   4.318   3.856
 2858SOL    HW2 8593   3.587   4.250   4.004
 2859SOL     OW 8594   2.630   4.868   4.747
 2859SOL    HW1 8595   2.552   4.885   4.807
 2859SOL    HW2 8596   2.664   4.955   4.711
 2860SOL     OW 8597   2.547   4.736   4.389
 2860SOL    HW1 8598   2.616   4.720   4.459
 2860SOL    HW2 8599   2.474   4.793   4.427
 2861SOL     OW 8600   3.465   4.171   4.461
 2861SOL    HW1 8601   3.391   4.217   4.411
 2861SOL    HW2 8602   3.516   4.239   4.514
 2862SOL     OW 8603   2.102   4.815   4.610
 2862SOL    HW1 8604   2.116   4.731   4.662
 2862SOL    HW2 8605   2.047   4.879   4.665
 2863SOL     OW 8606   2.468   4.688   3.847
 2863SOL    HW1 8607   2.475   4.772   3.793
 2863SOL    HW2 8608   2.514   4.701   3.935
 2864SOL     OW 8609   1.984   4.367   4.287
 2864SOL    HW1 8610   1.939   4.279   4.304
 2864SOL    HW2 8611   1.983   4.421   4.371
 2865SOL     OW 8612   3.551   4.646   4.336
 2865SOL    HW1 8613   3.646   4.617   4.344
 2865SOL    HW2 8614   3.543   4.711   4.261
 2866SOL     OW 8615   2.671   3.728   4.226
 2866SOL    HW1 8616   2.711   3.819   4.217
 2866SOL    HW2 8617   2.571   3.736   4.232
 2867SOL     OW 8618   2.059   4.700   4.988
 2867SOL    HW1 8619   2.148   4.655   4.974
 2867SOL    HW2 8620   1.986   4.635   4.969
 2868SOL     OW 8621   3.387   4.723   3.914
 2868SOL    HW1 8622   3.324   4.647   3.927
 2868SOL    HW2 8623   3.435   4.741   4.000
 2869SOL     OW 8624   2.460   4.453   3.994
 2869SOL    HW1 8625   2.484   4.522   3.926
 2869SOL    HW2 8626   2.382   4.486   4.048
 2870SOL     OW 8627   3.143   4.069   4.668
 2870SOL    HW1 8628   3.057   4.019   4.655
 2870SOL    HW2 8629   3.205   4.015   4.724
 2871SOL     OW 8630   2.903   4.425   4.153
 2871SOL    HW1 8631   2.929   4.421   4.249
 2871SOL    HW2 8632   2.818   4.374   4.139
 2872SOL     OW 8633   1.938   4.535   4.513
 2872SOL    HW1 8634   2.037   4.523   4.522
 2872SOL    HW2 8635   1.914   4.630   4.534
 2873SOL     OW 8636   2.727   4.072   3.919
 2873SOL    HW1 8637   2.786   4.135   3.870
 2873SOL    HW2 8638   2.746   3.978   3.890
 2874SOL     OW 8639   2.412   3.920   4.609
 2874SOL    HW1 8640   2.407   3.915   4.709
 2874SOL    HW2 8641   2.414   4.016   4.580
 2875SOL     OW 8642   3.657   4.790   4.597
 2875SOL    HW1 8643   3.595   4.775   4.521
 2875SOL    HW2 8644   3.605   4.801   4.682
 2876SOL     OW 8645   2.183   4.667   3.966
 2876SOL    HW1 8646   2.265   4.706   3.924
 2876SOL    HW2 8647   2.156   4.585   3.917
 2877SOL     OW 8648   3.320   4.459   4.452
 2877SOL    HW1 8649   3.315   4.394   4.527
 2877SOL    HW2 8650   3.400   4.518   4.465
 2878SOL     OW 8651   3.262   3.831   4.150
 2878SOL    HW1 8652   3.238   3.794   4.060
 2878SOL    HW2 8653   3.361   3.847   4.154
 2879SOL     OW 8654   2.244   4.424   4.204
 2879SOL    HW1 8655   2.289   4.334   4.201
 2879SOL    HW2 8656   2.150   4.413   4.237
 2880SOL     OW 8657   2.476   3.846   3.841
 2880SOL    HW1 8658   2.574   3.824   3.848
 2880SOL    HW2 8659   2.445   3.829   3.748
 2881SOL     OW 8660   2.750   5.238   4.919
 2881SOL    HW1 8661   2.727   5.213   4.825
 2881SOL    HW2 8662   2.811   5.169   4.958
 2882SOL     OW 8663   2.784   4.227   4.623
 2882SOL    HW1 8664   2.759   4.218   4.527
 2882SOL    HW2 8665   2.832   4.145   4.654
 2883SOL     OW 8666   2.401   3.788   4.236
 2883SOL    HW1 8667   2.320   3.789   4.294
 2883SOL    HW2 8668   2.404   3.871   4.181
 2884SOL     OW 8669   2.159   3.759   3.895
 2884SOL    HW1 8670   2.208   3.843   3.874
 2884SOL    HW2 8671   2.221   3.694   3.940
 2885SOL     OW 8672   2.797   3.960   4.204
 2885SOL    HW1 8673   2.749   4.001   4.126
 2885SOL    HW2 8674   2.896   3.958   4.185
 2886SOL     OW 8675   2.321   4.876   4.465
 2886SOL    HW1 8676   2.250   4.849   4.530
 2886SOL    HW2 8677   2.295   4.848   4.372
 2887SOL     OW 8678   2.894   4.273   3.740
 2887SOL    HW1 8679   2.853   4.355   3.701
 2887SOL    HW2 8680   2.958   4.299   3.813
 2888SOL     OW 8681   2.728   4.178   4.366
 2888SOL    HW1 8682   2.696   4.250   4.304
 2888SOL    HW2 8683   2.752   4.097   4.313
 2889SOL     OW 8684   2.879   3.763   4.477
 2889SOL    HW1 8685   2.807   3.768   4.408
 2889SOL    HW2 8686   2.855   3.694   4.546
 2890SOL     OW 8687   3.291   4.897   4.591
 2890SOL    HW1 8688   3.236   4.813   4.584
 2890SOL    HW2 8689   3.317   4.926   4.499
 2891SOL     OW 8690   3.328   4.314   4.716
 2891SOL    HW1 8691   3.298   4.219   4.723
 2891SOL    HW2 8692   3.401   4.330   4.782
 2892SOL     OW 8693   3.719   4.557   4.101
 2892SOL    HW1 8694   3.761   4.493   4.165
 2892SOL    HW2 8695   3.681   4.506   4.023
 2893SOL     OW 8696   3.252   4.299   3.802
 2893SOL    HW1 8697   3.198   4.278   3.883
 2893SOL    HW2 8698   3.343   4.258   3.811
 2894SOL     OW 8699   2.389   3.980   4.052
 2894SOL    HW1 8700   2.416   3.921   3.977
 2894SOL    HW2 8701   2.389   4.075   4.021
 2895SOL     OW 8702   2.973   4.919   4.824
 2895SOL    HW1 8703   2.933   4.963   4.905
 2895SOL    HW2 8704   2.932   4.956   4.741
 2896SOL     OW 8705   3.500   4.823   4.803
 2896SOL    HW1 8706   3.505   4.904   4.862
 2896SOL    HW2 8707   3.414   4.825   4.752
 2897SOL     OW 8708   2.567   4.774   4.092
 2897SOL    HW1 8709   2.553   4.781   4.191
 2897SOL    HW2 8710   2.651   4.723   4.074
 2898SOL     OW 8711   2.272   4.537   4.975
 2898SOL    HW1 8712   2.358   4.549   5.025
 2898SOL    HW2 8713   2.230   4.450   5.002
 2899SOL     OW 8714   2.229   4.824   4.225
 2899SOL    HW1 8715   2.222   4.907   4.169
 2899SOL    HW2 8716   2.233   4.744   4.165
 2900SOL     OW 8717   2.428   4.261   4.589
 2900SOL    HW1 8718   2.440   4.327   4.515
 2900SOL    HW2 8719   2.474   4.295   4.672
 2901SOL     OW 8720   3.444   4.363   4.196
 2901SOL    HW1 8721   3.413   4.424   4.269
 2901SOL    HW2 8722   3.494   4.415   4.127
 2902SOL     OW 8723   2.435   4.594   4.753
 2902SOL    HW1 8724   2.479   4.683   4.744
 2902SOL    HW2 8725   2.372   4.594   4.830
 2903SOL     OW 8726   3.071   4.249   3.999
 2903SOL    HW1 8727   3.084   4.165   4.053
 2903SOL    HW2 8728   3.042   4.323   4.059
 2904SOL     OW 8729   2.594   4.358   4.788
 2904SOL    HW1 8730   2.653   4.332   4.712
 2904SOL    HW2 8731   2.566   4.454   4.777
 2905SOL     OW 8732   2.169   3.787   4.342
 2905SOL    HW1 8733   2.158   3.881   4.375
 2905SOL    HW2 8734   2.164   3.724   4.419
 2906SOL     OW 8735   3.484   4.091   4.098
 2906SOL    HW1 8736   3.486   4.015   4.162
 2906SOL    HW2 8737   3.436   4.168   4.138
 2907SOL     OW 8738   2.885   4.490   4.690
 2907SOL    HW1 8739   2.900   4.511   4.786
 2907SOL    HW2 8740   2.855   4.395   4.681
 2908SOL     OW 8741   3.402   3.998   3.849
 2908SOL    HW1 8742   3.341   3.923   3.872
 2908SOL    HW2 8743   3.424   4.050   3.932
 2909SOL     OW 8744   3.165   4.562   3.766
 2909SOL    HW1 8745   3.199   4.469   3.781
 2909SOL    HW2 8746   3.183   4.589   3.671
 2910SOL     OW 8747   2.181   4.534   4.673
 2910SOL    HW1 8748   2.274   4.570   4.678
 2910SOL    HW2 8749   2.175   4.449   4.725
 2911SOL     OW 8750   2.201   4.233   4.730
 2911SOL    HW1 8751   2.149   4.150   4.713
 2911SOL    HW2 8752   2.278   4.238   4.666
 2912SOL     OW 8753   2.864   4.520   4.962
 2912SOL    HW1 8754   2.905   4.488   5.048
 2912SOL    HW2 8755   2.768   4.493   4.959
 2913SOL     OW 8756   1.902   4.268   4.838
 2913SOL    HW1 8757   1.987   4.235   4.797
 2913SOL    HW2 8758   1.915   4.283   4.936
 2914SOL     OW 8759   2.677   4.296   4.049
 2914SOL    HW1 8760   2.684   4.207   4.003
 2914SOL    HW2 8761   2.583   4.330   4.041
 2915SOL     OW 8762   2.533   4.188   4.993
 2915SOL    HW1 8763   2.499   4.099   4.963
 2915SOL    HW2 8764   2.559   4.242   4.913
 2916SOL     OW 8765   2.335   4.224   3.915
 2916SOL    HW1 8766   2.396   4.304   3.919
 2916SOL    HW2 8767   2.240   4.255   3.922
 2917SOL     OW 8768   3.209   4.783   4.958
 2917SOL    HW1 8769   3.233   4.720   4.884
 2917SOL    HW2 8770   3.119   4.823   4.940
 2918SOL     OW 8771   3.164   4.579   4.033
 2918SOL    HW1 8772   3.078   4.548   4.075
 2918SOL    HW2 8773   3.160   4.565   3.934
 2919SOL     OW 8774   3.588   3.859   4.247
 2919SOL    HW1 8775   3.661   3.842   4.180
 2919SOL    HW2 8776   3.557   3.772   4.285
 2920SOL     OW 8777   3.142   4.651   4.396
 2920SOL    HW1 8778   3.202   4.570   4.398
 2920SOL    HW2 8779   3.182   4.720   4.336
 2921SOL     OW 8780   3.703   3.899   4.687
 2921SOL    HW1 8781   3.742   3.814   4.651
 2921SOL    HW2 8782   3.605   3.901   4.668
 2922SOL     OW 8783   2.125   4.050   4.444
 2922SOL    HW1 8784   2.046   4.101   4.410
 2922SOL    HW2 8785   2.116   4.035   4.542
 2923SOL     OW 8786   2.684   4.726   5.096
 2923SOL    HW1 8787   2.724   4.725   5.004
 2923SOL    HW2 8788   2.694   4.818   5.136
 2924SOL     OW 8789   2.778   4.634   4.015
 2924SOL    HW1 8790   2.841   4.672   3.947
 2924SOL    HW2 8791   2.818   4.551   4.054
 2925SOL     OW 8792   2.876   3.960   4.695
 2925SOL    HW1 8793   2.868   3.924   4.602
 2925SOL    HW2 8794   2.874   3.884   4.760
 2926SOL     OW 8795   1.937   4.069   3.757
 2926SOL    HW1 8796   1.845   4.041   3.728
 2926SOL    HW2 8797   1.968   4.146   3.701
 2927SOL     OW 8798   1.934   3.890   4.042
 2927SOL    HW1 8799   1.917   3.973   3.988
 2927SOL    HW2 8800   2.024   3.853   4.020
 2928SOL     OW 8801   3.045   5.059   3.843
 2928SOL    HW1 8802   2.946   5.048   3.845
 2928SOL    HW2 8803   3.079   5.074   3.936
 2929SOL     OW 8804   3.536   4.607   4.978
 2929SOL    HW1 8805   3.509   4.518   4.941
 2929SOL    HW2 8806   3.537   4.675   4.905
 2930SOL     OW 8807   3.087   4.049   4.173
 2930SOL    HW1 8808   3.152   3.975   4.162
 2930SOL    HW2 8809   3.107   4.099   4.257
 2931SOL     OW 8810   2.456   4.469   4.376
 2931SOL    HW1 8811   2.506   4.554   4.357
 2931SOL    HW2 8812   2.368   4.471   4.328
 2932SOL     OW 8813   2.721   4.680   4.585
 2932SOL    HW1 8814   2.775   4.611   4.633
 2932SOL    HW2 8815   2.689   4.749   4.651
 2933SOL     OW 8816   2.945   4.708   3.811
 2933SOL    HW1 8817   2.922   4.761   3.729
 2933SOL    HW2 8818   3.026   4.652   3.792
 2934SOL     OW 8819   3.686   3.916   4.951
 2934SOL    HW1 8820   3.682   3.826   4.995
 2934SOL    HW2 8821   3.689   3.905   4.852
 2935SOL     OW 8822   2.290   4.148   4.244
 2935SOL    HW1 8823   2.320   4.076   4.182
 2935SOL    HW2 8824   2.251   4.108   4.327
 2936SOL     OW 8825   3.286   3.938   4.836
 2936SOL    HW1 8826   3.338   3.873   4.891
 2936SOL    HW2 8827   3.237   4.001   4.897
 2937SOL     OW 8828   2.632   5.054   4.025
 2937SOL    HW1 8829   2.586   4.967   4.042
 2937SOL    HW2 8830   2.723   5.051   4.066
 2938SOL     OW 8831   3.214   3.776   3.892
 2938SOL    HW1 8832   3.249   3.735   3.808
 2938SOL    HW2 8833   3.124   3.738   3.912
 2939SOL     OW 8834   3.162   4.177   4.415
 2939SOL    HW1 8835   3.103   4.257   4.419
 2939SOL    HW2 8836   3.177   4.142   4.508
 2940SOL     OW 8837   3.455   3.945   4.606
 2940SOL    HW1 8838   3.371   3.944   4.660
 2940SOL    HW2 8839   3.457   4.028   4.550
 2941SOL     OW 8840   1.901   4.801   4.024
 2941SOL    HW1 8841   2.000   4.790   4.015
 2941SOL    HW2 8842   1.861   4.715   4.056
 2942SOL     OW 8843   3.954   0.628   0.113
 2942SOL    HW1 8844   3.861   0.626   0.150
 2942SOL    HW2 8845   3.955   0.589   0.021
 2943SOL     OW 8846   3.949   0.275   0.996
 2943SOL    HW1 8847   3.984   0.258   1.088
 2943SOL    HW2 8848   3.861   0.230   0.984
 2944SOL     OW 8849   3.743   0.368   0.647
 2944SOL    HW1 8850   3.661   0.411   0.686
 2944SOL    HW2 8851   3.715   0.295   0.584
 2945SOL     OW 8852   4.293   1.275   1.165
 2945SOL    HW1 8853   4.200   1.268   1.128
 2945SOL    HW2 8854   4.304   1.364   1.209
 2946SOL     OW 8855   4.492   1.144   1.023
 2946SOL    HW1 8856   4.414   1.161   1.083
 2946SOL    HW2 8857   4.526   1.231   0.987
 2947SOL     OW 8858   4.574   0.798   1.823
 2947SOL    HW1 8859   4.570   0.874   1.888
 2947SOL    HW2 8860   4.596   0.834   1.732
 2948SOL     OW 8861   4.409   1.012   0.665
 2948SOL    HW1 8862   4.478   0.996   0.735
 2948SOL    HW2 8863   4.336   1.069   0.703
 2949SOL     OW 8864   4.410   1.161   1.803
 2949SOL    HW1 8865   4.470   1.240   1.817
 2949SOL    HW2 8866   4.324   1.192   1.762
 2950SOL     OW 8867   4.059   1.435   1.061
 2950SOL    HW1 8868   3.981   1.404   1.008
 2950SOL    HW2 8869   4.117   1.493   1.004
 2951SOL     OW 8870   4.162   0.392   1.499
 2951SOL    HW1 8871   4.244   0.336   1.508
 2951SOL    HW2 8872   4.081   0.334   1.503
 2952SOL     OW 8873   3.955   1.713   0.483
 2952SOL    HW1 8874   3.989   1.790   0.537
 2952SOL    HW2 8875   3.999   1.713   0.393
 2953SOL     OW 8876   4.851   1.341   1.690
 2953SOL    HW1 8877   4.898   1.341   1.778
 2953SOL    HW2 8878   4.803   1.254   1.679
 2954SOL     OW 8879   3.954   1.434   0.538
 2954SOL    HW1 8880   3.928   1.530   0.538
 2954SOL    HW2 8881   3.883   1.380   0.583
 2955SOL     OW 8882   3.964   1.091   0.886
 2955SOL    HW1 8883   3.978   1.007   0.938
 2955SOL    HW2 8884   3.909   1.155   0.941
 2956SOL     OW 8885   4.344   1.786   1.439
 2956SOL    HW1 8886   4.252   1.769   1.474
 2956SOL    HW2 8887   4.372   1.878   1.465
 2957SOL     OW 8888   4.330   0.964   0.123
 2957SOL    HW1 8889   4.337   1.048   0.069
 2957SOL    HW2 8890   4.376   0.977   0.211
 2958SOL     OW 8891   3.846   0.643   0.563
 2958SOL    HW1 8892   3.801   0.555   0.580
 2958SOL    HW2 8893   3.845   0.697   0.647
 2959SOL     OW 8894   3.751   1.596   0.117
 2959SOL    HW1 8895   3.732   1.500   0.138
 2959SOL    HW2 8896   3.718   1.654   0.192
 2960SOL     OW 8897   3.837   0.737   1.597
 2960SOL    HW1 8898   3.925   0.724   1.642
 2960SOL    HW2 8899   3.824   0.834   1.575
 2961SOL     OW 8900   4.337   1.365   0.726
 2961SOL    HW1 8901   4.288   1.278   0.735
 2961SOL    HW2 8902   4.314   1.408   0.639
 2962SOL     OW 8903   4.533   0.004   0.502
 2962SOL    HW1 8904   4.573   0.095   0.493
 2962SOL    HW2 8905   4.433   0.012   0.508
 2963SOL     OW 8906   3.921   0.976   1.264
 2963SOL    HW1 8907   4.010   0.931   1.250
 2963SOL    HW2 8908   3.848   0.911   1.245
 2964SOL     OW 8909   4.041   0.251   1.801
 2964SOL    HW1 8910   4.112   0.322   1.807
 2964SOL    HW2 8911   3.953   0.290   1.829
 2965SOL     OW 8912   4.322   0.729   0.270
 2965SOL    HW1 8913   4.346   0.798   0.202
 2965SOL    HW2 8914   4.244   0.762   0.324
 2966SOL     OW 8915   4.531   0.605   1.465
 2966SOL    HW1 8916   4.484   0.602   1.554
 2966SOL    HW2 8917   4.480   0.550   1.399
 2967SOL     OW 8918   4.697   0.890   1.572
 2967SOL    HW1 8919   4.743   0.806   1.543
 2967SOL    HW2 8920   4.641   0.924   1.497
 2968SOL     OW 8921   4.715   0.410   1.242
 2968SOL    HW1 8922   4.638   0.444   1.296
 2968SOL    HW2 8923   4.681   0.359   1.163
 2969SOL     OW 8924   4.765   0.701   0.429
 2969SOL    HW1 8925   4.791   0.697   0.525
 2969SOL    HW2 8926   4.680   0.650   0.415
 2970SOL     OW 8927   3.800   0.811   0.789
 2970SOL    HW1 8928   3.899   0.799   0.798
 2970SOL    HW2 8929   3.776   0.906   0.810
 2971SOL     OW 8930   3.854   1.821   1.571
 2971SOL    HW1 8931   3.844   1.806   1.670
 2971SOL    HW2 8932   3.768   1.857   1.535
 2972SOL     OW 8933   4.589   0.348   0.195
 2972SOL    HW1 8934   4.648   0.411   0.146
 2972SOL    HW2 8935   4.608   0.254   0.166
 2973SOL     OW 8936   4.274   0.196   0.885
 2973SOL    HW1 8937   4.269   0.191   0.985
 2973SOL    HW2 8938   4.276   0.292   0.856
 2974SOL     OW 8939   4.732   1.456   0.477
 2974SOL    HW1 8940   4.686   1.528   0.425
 2974SOL    HW2 8941   4.728   1.476   0.575
 2975SOL     OW 8942   4.075   1.801   0.853
 2975SOL    HW1 8943   4.125   1.715   0.859
 2975SOL    HW2 8944   4.140   1.878   0.850
 2976SOL     OW 8945   4.045   0.943   0.242
 2976SOL    HW1 8946   4.127   0.982   0.200
 2976SOL    HW2 8947   4.018   0.861   0.193
 2977SOL     OW 8948   4.185   1.266   1.727
 2977SOL    HW1 8949   4.135   1.267   1.641
 2977SOL    HW2 8950   4.122   1.248   1.803
 2978SOL     OW 8951   3.926   0.285   1.498
 2978SOL    HW1 8952   3.846   0.345   1.485
 2978SOL    HW2 8953   3.916   0.236   1.584
 2979SOL     OW 8954   4.188   1.743   0.323
 2979SOL    HW1 8955   4.221   1.782   0.409
 2979SOL    HW2 8956   4.264   1.736   0.258
 2980SOL     OW 8957   3.973   1.785   1.241
 2980SOL    HW1 8958   4.030   1.720   1.291
 2980SOL    HW2 8959   3.957   1.752   1.148
 2981SOL     OW 8960   4.664   1.698   0.904
 2981SOL    HW1 8961   4.744   1.641   0.925
 2981SOL    HW2 8962   4.615   1.658   0.827
 2982SOL     OW 8963   4.106   0.700   0.480
 2982SOL    HW1 8964   4.151   0.610   0.477
 2982SOL    HW2 8965   4.012   0.689   0.513
 2983SOL     OW 8966   4.338   0.122   0.117
 2983SOL    HW1 8967   4.436   0.100   0.124
 2983SOL    HW2 8968   4.307   0.105   0.024
 2984SOL     OW 8969   4.505   0.264   1.749
 2984SOL    HW1 8970   4.572   0.203   1.792
 2984SOL    HW2 8971   4.432   0.283   1.814
 2985SOL     OW 8972   4.612   1.514   1.195
 2985SOL    HW1 8973   4.589   1.489   1.101
 2985SOL    HW2 8974   4.673   1.445   1.234
 2986SOL     OW 8975   4.527   1.402   0.924
 2986SOL    HW1 8976   4.617   1.416   0.882
 2986SOL    HW2 8977   4.456   1.404   0.853
 2987SOL     OW 8978   4.646   0.503   0.899
 2987SOL    HW1 8979   4.621   0.494   0.803
 2987SOL    HW2 8980   4.694   0.421   0.930
 2988SOL     OW 8981   4.263   0.064   0.512
 2988SOL    HW1 8982   4.182   0.065   0.570
 2988SOL    HW2 8983   4.266   0.147   0.457
 2989SOL     OW 8984   5.158   1.188   0.041
 2989SOL    HW1 8985   5.190   1.112   0.098
 2989SOL    HW2 8986   5.066   1.215   0.071
 2990SOL     OW 8987   4.021   0.035   0.171
 2990SOL    HW1 8988   4.070   0.119   0.150
 2990SOL    HW2 8989   4.083  -0.030   0.216
 2991SOL     OW 8990   4.659   0.236   0.480
 2991SOL    HW1 8991   4.611   0.277   0.402
 2991SOL    HW2 8992   4.758   0.234   0.461
 2992SOL     OW 8993   4.951   1.570   0.793
 2992SOL    HW1 8994   4.972   1.644   0.728
 2992SOL    HW2 8995   5.019   1.570   0.866
 2993SOL     OW 8996   4.183   1.152   0.741
 2993SOL    HW1 8997   4.112   1.125   0.806
 2993SOL    HW2 8998   4.157   1.124   0.648
 2994SOL     OW 8999   4.995   1.797   0.591
 2994SOL    HW1 9000   5.039   1.861   0.527
 2994SOL    HW2 9001   4.945   1.849   0.661
 2995SOL     OW 9002   4.756   0.549   0.016
 2995SOL    HW1 9003   4.715   0.631  -0.023
 2995SOL    HW2 9004   4.820   0.575   0.089
 2996SOL     OW 9005   3.802   0.556   1.386
 2996SOL    HW1 9006   3.894   0.555   1.345
 2996SOL    HW2 9007   3.796   0.630   1.453
 2997SOL     OW 9008   4.285   0.222   1.147
 2997SOL    HW1 9009   4.323   0.138   1.184
 2997SOL    HW2 9010   4.197   0.241   1.191
 2998SOL     OW 9011   4.590   0.454   0.642
 2998SOL    HW1 9012   4.558   0.526   0.580
 2998SOL    HW2 9013   4.614   0.373   0.589
 2999SOL     OW 9014   4.741   0.039   0.753
 2999SOL    HW1 9015   4.669   0.044   0.684
 2999SOL    HW2 9016   4.717  -0.030   0.822
 3000SOL     OW 9017   4.212   1.385   0.174
 3000SOL    HW1 9018   4.125   1.370   0.221
 3000SOL    HW2 9019   4.195   1.411   0.079
 3001SOL     OW 9020   4.251   0.256   0.328
 3001SOL    HW1 9021   4.278   0.197   0.253
 3001SOL    HW2 9022   4.251   0.351   0.297
 3002SOL     OW 9023   4.639   0.089   1.402
 3002SOL    HW1 9024   4.664   0.069   1.307
 3002SOL    HW2 9025   4.711   0.145   1.444
 3003SOL     OW 9026   4.704   1.116   1.719
 3003SOL    HW1 9027   4.605   1.122   1.729
 3003SOL    HW2 9028   4.727   1.036   1.663
 3004SOL     OW 9029   4.429   1.050   0.368
 3004SOL    HW1 9030   4.415   1.057   0.467
 3004SOL    HW2 9031   4.513   0.999   0.350
 3005SOL     OW 9032   4.134   0.813   1.251
 3005SOL    HW1 9033   4.220   0.825   1.301
 3005SOL    HW2 9034   4.092   0.726   1.278
 3006SOL     OW 9035   3.788   1.564   1.331
 3006SOL    HW1 9036   3.742   1.646   1.297
 3006SOL    HW2 9037   3.886   1.583   1.340
 3007SOL     OW 9038   4.091   1.100   0.501
 3007SOL    HW1 9039   4.084   1.183   0.445
 3007SOL    HW2 9040   4.095   1.020   0.441
 3008SOL     OW 9041   4.290   0.537   0.865
 3008SOL    HW1 9042   4.302   0.603   0.791
 3008SOL    HW2 9043   4.336   0.571   0.948
 3009SOL     OW 9044   4.976   1.348   0.388
 3009SOL    HW1 9045   5.026   1.425   0.428
 3009SOL    HW2 9046   4.881   1.350   0.420
 3010SOL     OW 9047   4.078   1.510   1.329
 3010SOL    HW1 9048   4.057   1.466   1.242
 3010SOL    HW2 9049   4.175   1.536   1.332
 3011SOL     OW 9050   4.126   0.751   1.598
 3011SOL    HW1 9051   4.194   0.806   1.551
 3011SOL    HW2 9052   4.166   0.663   1.625
 3012SOL     OW 9053   4.737   0.105   1.770
 3012SOL    HW1 9054   4.743   0.190   1.718
 3012SOL    HW2 9055   4.769   0.029   1.713
 3013SOL     OW 9056   4.228   0.050   1.740
 3013SOL    HW1 9057   4.186  -0.007   1.670
 3013SOL    HW2 9058   4.162   0.119   1.772
 3014SOL     OW 9059   4.297   0.870   1.029
 3014SOL    HW1 9060   4.341   0.959   1.020
 3014SOL    HW2 9061   4.234   0.870   1.106
 3015SOL     OW 9062   4.933   0.525   0.275
 3015SOL    HW1 9063   4.946   0.441   0.329
 3015SOL    HW2 9064   4.904   0.599   0.335
 3016SOL     OW 9065   4.031   0.213   1.231
 3016SOL    HW1 9066   4.008   0.250   1.321
 3016SOL    HW2 9067   4.001   0.118   1.225
 3017SOL     OW 9068   3.761   1.310   1.282
 3017SOL    HW1 9069   3.814   1.261   1.350
 3017SOL    HW2 9070   3.783   1.408   1.287
 3018SOL     OW 9071   4.456   0.634   1.064
 3018SOL    HW1 9072   4.515   0.608   0.988
 3018SOL    HW2 9073   4.428   0.730   1.053
 3019SOL     OW 9074   4.031   0.063   0.618
 3019SOL    HW1 9075   4.020   0.157   0.651
 3019SOL    HW2 9076   4.026   0.000   0.695
 3020SOL     OW 9077   4.747   0.766   0.966
 3020SOL    HW1 9078   4.762   0.787   1.062
 3020SOL    HW2 9079   4.717   0.671   0.957
 3021SOL     OW 9080   4.704   1.573   1.700
 3021SOL    HW1 9081   4.684   1.617   1.612
 3021SOL    HW2 9082   4.743   1.482   1.684
 3022SOL     OW 9083   4.074   0.898   1.804
 3022SOL    HW1 9084   4.150   0.942   1.852
 3022SOL    HW2 9085   4.109   0.851   1.722
 3023SOL     OW 9086   4.792   1.333   0.849
 3023SOL    HW1 9087   4.799   1.249   0.794
 3023SOL    HW2 9088   4.854   1.402   0.813
 3024SOL     OW 9089   4.043   0.810   0.949
 3024SOL    HW1 9090   4.136   0.846   0.954
 3024SOL    HW2 9091   4.037   0.725   1.001
 3025SOL     OW 9092   4.063   0.509   1.006
 3025SOL    HW1 9093   4.011   0.426   0.989
 3025SOL    HW2 9094   4.140   0.514   0.942
 3026SOL     OW 9095   4.862   0.380   1.678
 3026SOL    HW1 9096   4.817   0.443   1.742
 3026SOL    HW2 9097   4.955   0.411   1.661
 3027SOL     OW 9098   3.732   1.326   0.200
 3027SOL    HW1 9099   3.639   1.347   0.169
 3027SOL    HW2 9100   3.742   1.227   0.213
 3028SOL     OW 9101   3.812   1.801   0.927
 3028SOL    HW1 9102   3.770   1.715   0.900
 3028SOL    HW2 9103   3.906   1.804   0.893
 3029SOL     OW 9104   4.228   1.568   0.910
 3029SOL    HW1 9105   4.294   1.642   0.919
 3029SOL    HW2 9106   4.272   1.489   0.868
 3030SOL     OW 9107   4.726   0.796   1.238
 3030SOL    HW1 9108   4.767   0.764   1.324
 3030SOL    HW2 9109   4.630   0.769   1.235
 3031SOL     OW 9110   3.764   0.544   1.114
 3031SOL    HW1 9111   3.849   0.511   1.073
 3031SOL    HW2 9112   3.777   0.559   1.212
 3032SOL     OW 9113   3.913   0.520   1.722
 3032SOL    HW1 9114   3.972   0.480   1.652
 3032SOL    HW2 9115   3.855   0.591   1.681
 3033SOL     OW 9116   4.539   0.572   0.325
 3033SOL    HW1 9117   4.546   0.483   0.279
 3033SOL    HW2 9118   4.445   0.606   0.317
 3034SOL     OW 9119   3.976   1.564   1.744
 3034SOL    HW1 9120   3.946   1.621   1.820
 3034SOL    HW2 9121   3.969   1.467   1.770
 3035SOL     OW 9122   4.395   0.464   1.269
 3035SOL    HW1 9123   4.361   0.375   1.239
 3035SOL    HW2 9124   4.421   0.518   1.189
 3036SOL     OW 9125   4.654   1.678   1.465
 3036SOL    HW1 9126   4.630   1.660   1.370
 3036SOL    HW2 9127   4.684   1.772   1.475
 3037SOL     OW 9128   4.197   0.500   0.191
 3037SOL    HW1 9129   4.258   0.580   0.195
 3037SOL    HW2 9130   4.102   0.531   0.198
 3038SOL     OW 9131   3.883   1.137   1.466
 3038SOL    HW1 9132   3.905   1.076   1.542
 3038SOL    HW2 9133   3.893   1.088   1.380
 3039SOL     OW 9134   5.026   0.855   0.309
 3039SOL    HW1 9135   4.940   0.824   0.351
 3039SOL    HW2 9136   5.022   0.841   0.210
 3040SOL     OW 9137   3.807   1.258   1.022
 3040SOL    HW1 9138   3.802   1.257   1.122
 3040SOL    HW2 9139   3.724   1.217   0.984
 3041SOL     OW 9140   4.412   1.662   1.716
 3041SOL    HW1 9141   4.356   1.743   1.725
 3041SOL    HW2 9142   4.464   1.666   1.630
 3042SOL     OW 9143   4.627   0.086   0.133
 3042SOL    HW1 9144   4.678   0.087   0.047
 3042SOL    HW2 9145   4.683   0.044   0.204
 3043SOL     OW 9146   3.854   1.794   1.851
 3043SOL    HW1 9147   3.813   1.720   1.904
 3043SOL    HW2 9148   3.918   1.845   1.909
 3044SOL     OW 9149   4.554   1.273   1.422
 3044SOL    HW1 9150   4.549   1.306   1.517
 3044SOL    HW2 9151   4.468   1.292   1.376
 3045SOL     OW 9152   4.396   1.616   0.154
 3045SOL    HW1 9153   4.405   1.626   0.055
 3045SOL    HW2 9154   4.356   1.527   0.175
 3046SOL     OW 9155   3.987   0.326   0.720
 3046SOL    HW1 9156   3.908   0.377   0.686
 3046SOL    HW2 9157   3.978   0.311   0.818
 3047SOL     OW 9158   4.546   1.002   1.372
 3047SOL    HW1 9159   4.586   1.001   1.280
 3047SOL    HW2 9160   4.556   1.094   1.412
 3048SOL     OW 9161   4.640   0.910   0.291
 3048SOL    HW1 9162   4.703   0.948   0.223
 3048SOL    HW2 9163   4.680   0.827   0.330
 3049SOL     OW 9164   4.096   1.288   1.490
 3049SOL    HW1 9165   4.083   1.381   1.456
 3049SOL    HW2 9166   4.012   1.236   1.477
 3050SOL     OW 9167   4.763   1.098   0.696
 3050SOL    HW1 9168   4.693   1.051   0.750
 3050SOL    HW2 9169   4.822   1.030   0.653
 3051SOL     OW 9170   4.738   0.236   0.971
 3051SOL    HW1 9171   4.730   0.200   0.878
 3051SOL    HW2 9172   4.736   0.160   1.036
 3052SOL     OW 9173   4.314   1.487   0.491
 3052SOL    HW1 9174   4.356   1.429   0.421
 3052SOL    HW2 9175   4.270   1.566   0.447
 3053SOL     OW 9176   3.979   1.348   0.290
 3053SOL    HW1 9177   3.883   1.349   0.263
 3053SOL    HW2 9178   3.991   1.401   0.374
 3054SOL     OW 9179   3.829   1.013   1.726
 3054SOL    HW1 9180   3.752   0.980   1.780
 3054SOL    HW2 9181   3.914   0.983   1.768
 3055SOL     OW 9182   4.396   0.203   1.489
 3055SOL    HW1 9183   4.486   0.187   1.449
 3055SOL    HW2 9184   4.404   0.208   1.588
 3056SOL     OW 9185   3.796   0.166   0.318
 3056SOL    HW1 9186   3.779   0.249   0.264
 3056SOL    HW2 9187   3.886   0.129   0.296
 3057SOL     OW 9188   4.337   0.842   1.431
 3057SOL    HW1 9189   4.393   0.923   1.414
 3057SOL    HW2 9190   4.396   0.762   1.434
 3058SOL     OW 9191   4.440   0.565   1.708
 3058SOL    HW1 9192   4.459   0.630   1.782
 3058SOL    HW2 9193   4.500   0.485   1.717
 3059SOL     OW 9194   4.114   1.741   1.560
 3059SOL    HW1 9195   4.023   1.782   1.558
 3059SOL    HW2 9196   4.107   1.647   1.592
 3060SOL     OW 9197   4.318   0.745   0.652
 3060SOL    HW1 9198   4.368   0.830   0.633
 3060SOL    HW2 9199   4.230   0.747   0.604
 3061SOL     OW 9200   4.583   1.374   0.016
 3061SOL    HW1 9201   4.537   1.389   0.104
 3061SOL    HW2 9202   4.627   1.459  -0.014
 3062SOL     OW 9203   4.385   1.790   0.953
 3062SOL    HW1 9204   4.339   1.878   0.940
 3062SOL    HW2 9205   4.484   1.802   0.946
 3063SOL     OW 9206   4.583   0.956   0.861
 3063SOL    HW1 9207   4.637   0.887   0.909
 3063SOL    HW2 9208   4.551   1.025   0.927
 3064SOL     OW 9209   4.807   0.984   0.087
 3064SOL    HW1 9210   4.784   1.037   0.005
 3064SOL    HW2 9211   4.888   0.928   0.068
 3065SOL     OW 9212   3.945   1.314   1.844
 3065SOL    HW1 9213   3.880   1.241   1.823
 3065SOL    HW2 9214   3.949   1.328   1.942
 3066SOL     OW 9215   3.803   1.240   0.653
 3066SOL    HW1 9216   3.802   1.193   0.741
 3066SOL    HW2 9217   3.885   1.212   0.602
 3067SOL     OW 9218   4.396   1.391   1.624
 3067SOL    HW1 9219   4.318   1.341   1.662
 3067SOL    HW2 9220   4.393   1.486   1.655
 3068SOL     OW 9221   4.152   0.424   0.520
 3068SOL    HW1 9222   4.182   0.352   0.458
 3068SOL    HW2 9223   4.113   0.384   0.603
 3069SOL     OW 9224   4.041   0.547   1.280
 3069SOL    HW1 9225   4.079   0.488   1.352
 3069SOL    HW2 9226   4.081   0.521   1.192
 3070SOL     OW 9227   4.536   1.586   0.687
 3070SOL    HW1 9228   4.568   1.596   0.593
 3070SOL    HW2 9229   4.457   1.524   0.689
 3071SOL     OW 9230   4.725   0.034   1.154
 3071SOL    HW1 9231   4.662  -0.038   1.123
 3071SOL    HW2 9232   4.818  -0.002   1.154
 3072SOL     OW 9233   4.494   1.330   0.301
 3072SOL    HW1 9234   4.448   1.243   0.318
 3072SOL    HW2 9235   4.585   1.327   0.342
 3073SOL     OW 9236   4.342   1.567   1.284
 3073SOL    HW1 9237   4.337   1.649   1.341
 3073SOL    HW2 9238   4.431   1.564   1.239
 3074SOL     OW 9239   3.763   1.077   0.300
 3074SOL    HW1 9240   3.862   1.066   0.291
 3074SOL    HW2 9241   3.723   0.991   0.332
 3075SOL     OW 9242   4.599   1.646   0.337
 3075SOL    HW1 9243   4.522   1.611   0.283
 3075SOL    HW2 9244   4.567   1.717   0.399
 3076SOL     OW 9245   3.954   0.628   1.975
 3076SOL    HW1 9246   3.861   0.626   2.012
 3076SOL    HW2 9247   3.955   0.589   1.883
 3077SOL     OW 9248   3.949   0.275   2.858
 3077SOL    HW1 9249   3.984   0.258   2.950
 3077SOL    HW2 9250   3.861   0.230   2.846
 3078SOL     OW 9251   3.743   0.368   2.509
 3078SOL    HW1 9252   3.661   0.411   2.548
 3078SOL    HW2 9253   3.715   0.295   2.446
 3079SOL     OW 9254   4.293   1.275   3.027
 3079SOL    HW1 9255   4.200   1.268   2.990
 3079SOL    HW2 9256   4.304   1.364   3.071
 3080SOL     OW 9257   4.492   1.144   2.885
 3080SOL    HW1 9258   4.414   1.161   2.945
 3080SOL    HW2 9259   4.526   1.231   2.849
 3081SOL     OW 9260   4.574   0.798   3.685
 3081SOL    HW1 9261   4.570   0.874   3.750
 3081SOL    HW2 9262   4.596   0.834   3.594
 3082SOL     OW 9263   4.409   1.012   2.527
 3082SOL    HW1 9264   4.478   0.996   2.597
 3082SOL    HW2 9265   4.336   1.069   2.565
 3083SOL     OW 9266   4.410   1.161   3.665
 3083SOL    HW1 9267   4.470   1.240   3.679
 3083SOL    HW2 9268   4.324   1.192   3.624
 3084SOL     OW 9269   4.059   1.435   2.923
 3084SOL    HW1 9270   3.981   1.404   2.870
 3084SOL    HW2 9271   4.117   1.493   2.866
 3085SOL     OW 9272   4.162   0.392   3.361
 3085SOL    HW1 9273   4.244   0.336   3.370
 3085SOL    HW2 9274   4.081   0.334   3.365
 3086SOL     OW 9275   3.955   1.713   2.345
 3086SOL    HW1 9276   3.989   1.790   2.399
 3086SOL    HW2 9277   3.999   1.713   2.255
 3087SOL     OW 9278   4.851   1.341   3.552
 3087SOL    HW1 9279   4.898   1.341   3.640
 3087SOL    HW2 9280   4.803   1.254   3.541
 3088SOL     OW 9281   3.954   1.434   2.400
 3088SOL    HW1 9282   3.928   1.530   2.400
 3088SOL    HW2 9283   3.883   1.380   2.445
 3089SOL     OW 9284   3.964   1.091   2.748
 3089SOL    HW1 9285   3.978   1.007   2.800
 3089SOL    HW2 9286   3.909   1.155   2.803
 3090SOL     OW 9287   4.344   1.786   3.301
 3090SOL    HW1 9288   4.252   1.769   3.336
 3090SOL    HW2 9289   4.372   1.878   3.327
 3091SOL     OW 9290   4.330   0.964   1.985
 3091SOL    HW1 9291   4.337   1.048   1.931
 3091SOL    HW2 9292   4.376   0.977   2.073
 3092SOL     OW 9293   3.846   0.643   2.425
 3092SOL    HW1 9294   3.801   0.555   2.442
 3092SOL    HW2 9295   3.845   0.697   2.509
 3093SOL     OW 9296   3.751   1.596   1.979
 3093SOL    HW1 9297   3.732   1.500   2.000
 3093SOL    HW2 9298   3.718   1.654   2.054
 3094SOL     OW 9299   3.837   0.737   3.459
 3094SOL    HW1 9300   3.925   0.724   3.504
 3094SOL    HW2 9301   3.824   0.834   3.437
 3095SOL     OW 9302   4.337   1.365   2.588
 3095SOL    HW1 9303   4.288   1.278   2.597
 3095SOL    HW2 9304   4.314   1.408   2.501
 3096SOL     OW 9305   4.533   0.004   2.364
 3096SOL    HW1 9306   4.573   0.095   2.355
 3096SOL    HW2 9307   4.433   0.012   2.370
 3097SOL     OW 9308   3.921   0.976   3.126
 3097SOL    HW1 9309   4.010   0.931   3.112
 3097SOL    HW2 9310   3.848   0.911   3.107
 3098SOL     OW 9311   4.041   0.251   3.663
 3098SOL    HW1 9312   4.112   0.322   3.669
 3098SOL    HW2 9313   3.953   0.290   3.691
 3099SOL     OW 9314   4.322   0.729   2.132
 3099SOL    HW1 9315   4.346   0.798   2.064
 3099SOL    HW2 9316   4.244   0.762   2.186
 3100SOL     OW 9317   4.531   0.605   3.327
 3100SOL    HW1 9318   4.484   0.602   3.416
 3100SOL    HW2 9319   4.480   0.550   3.261
 3101SOL     OW 9320   4.697   0.890   3.434
 3101SOL    HW1 9321   4.743   0.806   3.405
 3101SOL    HW2 9322   4.641   0.924   3.359
 3102SOL     OW 9323   4.715   0.410   3.104
 3102SOL    HW1 9324   4.638   0.444   3.158
 3102SOL    HW2 9325   4.681   0.359   3.025
 3103SOL     OW 9326   4.765   0.701   2.291
 3103SOL    HW1 9327   4.791   0.697   2.387
 3103SOL    HW2 9328   4.680   0.650   2.277
 3104SOL     OW 9329   3.800   0.811   2.651
 3104SOL    HW1 9330   3.899   0.799   2.660
 3104SOL    HW2 9331   3.776   0.906   2.672
 3105SOL     OW 9332   3.854   1.821   3.433
 3105SOL    HW1 9333   3.844   1.806   3.532
 3105SOL    HW2 9334   3.768   1.857   3.397
 3106SOL     OW 9335   4.589   0.348   2.057
 3106SOL    HW1 9336   4.648   0.411   2.008
 3106SOL    HW2 9337   4.608   0.254   2.028
 3107SOL     OW 9338   4.274   0.196   2.747
 3107SOL    HW1 9339   4.269   0.191   2.847
 3107SOL    HW2 9340   4.276   0.292   2.718
 3108SOL     OW 9341   4.732   1.456   2.339
 3108SOL    HW1 9342   4.686   1.528   2.287
 3108SOL    HW2 9343   4.728   1.476   2.437
 3109SOL     OW 9344   4.075   1.801   2.715
 3109SOL    HW1 9345   4.125   1.715   2.721
 3109SOL    HW2 9346   4.140   1.878   2.712
 3110SOL     OW 9347   4.045   0.943   2.104
 3110SOL    HW1 9348   4.127   0.982   2.062
 3110SOL    HW2 9349   4.018   0.861   2.055
 3111SOL     OW 9350   4.185   1.266   3.589
 3111SOL    HW1 9351   4.135   1.267   3.503
 3111SOL    HW2 9352   4.122   1.248   3.665
 3112SOL     OW 9353   3.926   0.285   3.360
 3112SOL    HW1 9354   3.846   0.345   3.347
 3112SOL    HW2 9355   3.916   0.236   3.446
 3113SOL     OW 9356   4.188   1.743   2.185
 3113SOL    HW1 9357   4.221   1.782   2.271
 3113SOL    HW2 9358   4.264   1.736   2.120
 3114SOL     OW 9359   3.973   1.785   3.103
 3114SOL    HW1 9360   4.030   1.720   3.153
 3114SOL    HW2 9361   3.957   1.752   3.010
 3115SOL     OW 9362   4.664   1.698   2.766
 3115SOL    HW1 9363   4.744   1.641   2.787
 3115SOL    HW2 9364   4.615   1.658   2.689
 3116SOL     OW 9365   4.106   0.700   2.342
 3116SOL    HW1 9366   4.151   0.610   2.339
 3116SOL    HW2 9367   4.012   0.689   2.375
 3117SOL     OW 9368   4.338   0.122   1.979
 3117SOL    HW1 9369   4.436   0.100   1.986
 3117SOL    HW2 9370   4.307   0.105   1.886
 3118SOL     OW 9371   4.505   0.264   3.611
 3118SOL    HW1 9372   4.572   0.203   3.654
 3118SOL    HW2 9373   4.432   0.283   3.676
 3119SOL     OW 9374   4.612   1.514   3.057
 3119SOL    HW1 9375   4.589   1.489   2.963
 3119SOL    HW2 9376   4.673   1.445   3.096
 3120SOL     OW 9377   4.527   1.402   2.786
 3120SOL    HW1 9378   4.617   1.416   2.744
 3120SOL    HW2 9379   4.456   1.404   2.715
 3121SOL     OW 9380   4.646   0.503   2.761
 3121SOL    HW1 9381   4.621   0.494   2.665
 3121SOL    HW2 9382   4.694   0.421   2.792
 3122SOL     OW 9383   4.263   0.064   2.374
 3122SOL    HW1 9384   4.182   0.065   2.432
 3122SOL    HW2 9385   4.266   0.147   2.319
 3123SOL     OW 9386   4.021   0.035   2.033
 3123SOL    HW1 9387   4.070   0.119   2.012
 3123SOL    HW2 9388   4.083  -0.030   2.078
 3124SOL     OW 9389   4.659   0.236   2.342
 3124SOL    HW1 9390   4.611   0.277   2.264
 3124SOL    HW2 9391   4.758   0.234   2.323
 3125SOL     OW 9392   4.951   1.570   2.655
 3125SOL    HW1 9393   4.972   1.644   2.590
 3125SOL    HW2 9394   5.019   1.570   2.728
 3126SOL     OW 9395   4.183   1.152   2.603
 3126SOL    HW1 9396   4.112   1.125   2.668
 3126SOL    HW2 9397   4.157   1.124   2.510
 3127SOL     OW 9398   4.995   1.797   2.453
 3127SOL    HW1 9399   5.039   1.861   2.389
 3127SOL    HW2 9400   4.945   1.849   2.523
 3128SOL     OW 9401   4.756   0.549   1.878
 3128SOL    HW1 9402   4.715   0.631   1.839
 3128SOL    HW2 9403   4.820   0.575   1.951
 3129SOL     OW 9404   3.802   0.556   3.248
 3129SOL    HW1 9405   3.894   0.555   3.207
 3129SOL    HW2 9406   3.796   0.630   3.315
 3130SOL     OW 9407   4.285   0.222   3.009
 3130SOL    HW1 9408   4.323   0.138   3.046
 3130SOL    HW2 9409   4.197   0.241   3.053
 3131SOL     OW 9410   4.590   0.454   2.504
 3131SOL    HW1 9411   4.558   0.526   2.442
 3131SOL    HW2 9412   4.614   0.373   2.451
 3132SOL     OW 9413   4.741   0.039   2.615
 3132SOL    HW1 9414   4.669   0.044   2.546
 3132SOL    HW2 9415   4.717  -0.030   2.684
 3133SOL     OW 9416   4.212   1.385   2.036
 3133SOL    HW1 9417   4.125   1.370   2.083
 3133SOL    HW2 9418   4.195   1.411   1.941
 3134SOL     OW 9419   4.251   0.256   2.190
 3134SOL    HW1 9420   4.278   0.197   2.115
 3134SOL    HW2 9421   4.251   0.351   2.159
 3135SOL     OW 9422   4.639   0.089   3.264
 3135SOL    HW1 9423   4.664   0.069   3.169
 3135SOL    HW2 9424   4.711   0.145   3.306
 3136SOL     OW 9425   4.704   1.116   3.581
 3136SOL    HW1 9426   4.605   1.122   3.591
 3136SOL    HW2 9427   4.727   1.036   3.525
 3137SOL     OW 9428   4.429   1.050   2.230
 3137SOL    HW1 9429   4.415   1.057   2.329
 3137SOL    HW2 9430   4.513   0.999   2.212
 3138SOL     OW 9431   4.134   0.813   3.113
 3138SOL    HW1 9432   4.220   0.825   3.163
 3138SOL    HW2 9433   4.092   0.726   3.140
 3139SOL     OW 9434   3.788   1.564   3.193
 3139SOL    HW1 9435   3.742   1.646   3.159
 3139SOL    HW2 9436   3.886   1.583   3.202
 3140SOL     OW 9437   4.091   1.100   2.363
 3140SOL    HW1 9438   4.084   1.183   2.307
 3140SOL    HW2 9439   4.095   1.020   2.303
 3141SOL     OW 9440   4.290   0.537   2.727
 3141SOL    HW1 9441   4.302   0.603   2.653
 3141SOL    HW2 9442   4.336   0.571   2.810
 3142SOL     OW 9443   4.976   1.348   2.250
 3142SOL    HW1 9444   5.026   1.425   2.290
 3142SOL    HW2 9445   4.881   1.350   2.282
 3143SOL     OW 9446   4.078   1.510   3.191
 3143SOL    HW1 9447   4.057   1.466   3.104
 3143SOL    HW2 9448   4.175   1.536   3.194
 3144SOL     OW 9449   4.126   0.751   3.460
 3144SOL    HW1 9450   4.194   0.806   3.413
 3144SOL    HW2 9451   4.166   0.663   3.487
 3145SOL     OW 9452   4.737   0.105   3.632
 3145SOL    HW1 9453   4.743   0.190   3.580
 3145SOL    HW2 9454   4.769   0.029   3.575
 3146SOL     OW 9455   4.228   0.050   3.602
 3146SOL    HW1 9456   4.186  -0.007   3.532
 3146SOL    HW2 9457   4.162   0.119   3.634
 3147SOL     OW 9458   4.297   0.870   2.891
 3147SOL    HW1 9459   4.341   0.959   2.882
 3147SOL    HW2 9460   4.234   0.870   2.968
 3148SOL     OW 9461   4.933   0.525   2.137
 3148SOL    HW1 9462   4.946   0.441   2.191
 3148SOL    HW2 9463   4.904   0.599   2.197
 3149SOL     OW 9464   4.031   0.213   3.093
 3149SOL    HW1 9465   4.008   0.250   3.183
 3149SOL    HW2 9466   4.001   0.118   3.087
 3150SOL     OW 9467   3.761   1.310   3.144
 3150SOL    HW1 9468   3.814   1.261   3.212
 3150SOL    HW2 9469   3.783   1.408   3.149
 3151SOL     OW 9470   4.456   0.634   2.926
 3151SOL    HW1 9471   4.515   0.608   2.850
 3151SOL    HW2 9472   4.428   0.730   2.915
 3152SOL     OW 9473   4.031   0.063   2.480
 3152SOL    HW1 9474   4.020   0.157   2.513
 3152SOL    HW2 9475   4.026   0.000   2.557
 3153SOL     OW 9476   4.747   0.766   2.828
 3153SOL    HW1 9477   4.762   0.787   2.924
 3153SOL    HW2 9478   4.717   0.671   2.819
 3154SOL     OW 9479   4.704   1.573   3.562
 3154SOL    HW1 9480   4.684   1.617   3.474
 3154SOL    HW2 9481   4.743   1.482   3.546
 3155SOL     OW 9482   4.074   0.898   3.666
 3155SOL    HW1 9483   4.150   0.942   3.714
 3155SOL    HW2 9484   4.109   0.851   3.584
 3156SOL     OW 9485   5.027   0.838   1.904
 3156SOL    HW1 9486   5.061   0.745   1.919
 3156SOL    HW2 9487   5.045   0.865   1.809
 3157SOL     OW 9488   4.792   1.333   2.711
 3157SOL    HW1 9489   4.799   1.249   2.656
 3157SOL    HW2 9490   4.854   1.402   2.675
 3158SOL     OW 9491   4.043   0.810   2.811
 3158SOL    HW1 9492   4.136   0.846   2.816
 3158SOL    HW2 9493   4.037   0.725   2.863
 3159SOL     OW 9494   4.063   0.509   2.868
 3159SOL    HW1 9495   4.011   0.426   2.851
 3159SOL    HW2 9496   4.140   0.514   2.804
 3160SOL     OW 9497   4.862   0.380   3.540
 3160SOL    HW1 9498   4.817   0.443   3.604
 3160SOL    HW2 9499   4.955   0.411   3.523
 3161SOL     OW 9500   3.732   1.326   2.062
 3161SOL    HW1 9501   3.639   1.347   2.031
 3161SOL    HW2 9502   3.742   1.227   2.075
 3162SOL     OW 9503   3.812   1.801   2.789
 3162SOL    HW1 9504   3.770   1.715   2.762
 3162SOL    HW2 9505   3.906   1.804   2.755
 3163SOL     OW 9506   4.228   1.568   2.772
 3163SOL    HW1 9507   4.294   1.642   2.781
 3163SOL    HW2 9508   4.272   1.489   2.730
 3164SOL     OW 9509   4.726   0.796   3.100
 3164SOL    HW1 9510   4.767   0.764   3.186
 3164SOL    HW2 9511   4.630   0.769   3.097
 3165SOL     OW 9512   3.764   0.544   2.976
 3165SOL    HW1 9513   3.849   0.511   2.935
 3165SOL    HW2 9514   3.777   0.559   3.074
 3166SOL     OW 9515   3.913   0.520   3.584
 3166SOL    HW1 9516   3.972   0.480   3.514
 3166SOL    HW2 9517   3.855   0.591   3.543
 3167SOL     OW 9518   4.539   0.572   2.187
 3167SOL    HW1 9519   4.546   0.483   2.141
 3167SOL    HW2 9520   4.445   0.606   2.179
 3168SOL     OW 9521   3.976   1.564   3.606
 3168SOL    HW1 9522   3.946   1.621   3.682
 3168SOL    HW2 9523   3.969   1.467   3.632
 3169SOL     OW 9524   4.395   0.464   3.131
 3169SOL    HW1 9525   4.361   0.375   3.101
 3169SOL    HW2 9526   4.421   0.518   3.051
 3170SOL     OW 9527   4.654   1.678   3.327
 3170SOL    HW1 9528   4.630   1.660   3.232
 3170SOL    HW2 9529   4.684   1.772   3.337
 3171SOL     OW 9530   4.197   0.500   2.053
 3171SOL    HW1 9531   4.258   0.580   2.057
 3171SOL    HW2 9532   4.102   0.531   2.060
 3172SOL     OW 9533   3.883   1.137   3.328
 3172SOL    HW1 9534   3.905   1.076   3.404
 3172SOL    HW2 9535   3.893   1.088   3.242
 3173SOL     OW 9536   5.026   0.855   2.171
 3173SOL    HW1 9537   4.940   0.824   2.213
 3173SOL    HW2 9538   5.022   0.841   2.072
 3174SOL     OW 9539   3.807   1.258   2.884
 3174SOL    HW1 9540   3.802   1.257   2.984
 3174SOL    HW2 9541   3.724   1.217   2.846
 3175SOL     OW 9542   4.412   1.662   3.578
 3175SOL    HW1 9543   4.356   1.743   3.587
 3175SOL    HW2 9544   4.464   1.666   3.492
 3176SOL     OW 9545   3.854   1.794   3.713
 3176SOL    HW1 9546   3.813   1.720   3.766
 3176SOL    HW2 9547   3.918   1.845   3.771
 3177SOL     OW 9548   4.554   1.273   3.284
 3177SOL    HW1 9549   4.549   1.306   3.379
 3177SOL    HW2 9550   4.468   1.292   3.238
 3178SOL     OW 9551   4.396   1.616   2.016
 3178SOL    HW1 9552   4.405   1.626   1.917
 3178SOL    HW2 9553   4.356   1.527   2.037
 3179SOL     OW 9554   3.987   0.326   2.582
 3179SOL    HW1 9555   3.908   0.377   2.548
 3179SOL    HW2 9556   3.978   0.311   2.680
 3180SOL     OW 9557   4.546   1.002   3.234
 3180SOL    HW1 9558   4.586   1.001   3.142
 3180SOL    HW2 9559   4.556   1.094   3.274
 3181SOL     OW 9560   4.640   0.910   2.153
 3181SOL    HW1 9561   4.703   0.948   2.085
 3181SOL    HW2 9562   4.680   0.827   2.192
 3182SOL     OW 9563   4.096   1.288   3.352
 3182SOL    HW1 9564   4.083   1.381   3.318
 3182SOL    HW2 9565   4.012   1.236   3.339
 3183SOL     OW 9566   4.763   1.098   2.558
 3183SOL    HW1 9567   4.693   1.051   2.612
 3183SOL    HW2 9568   4.822   1.030   2.515
 3184SOL     OW 9569   4.738   0.236   2.833
 3184SOL    HW1 9570   4.730   0.200   2.740
 3184SOL    HW2 9571   4.736   0.160   2.898
 3185SOL     OW 9572   4.314   1.487   2.353
 3185SOL    HW1 9573   4.356   1.429   2.283
 3185SOL    HW2 9574   4.270   1.566   2.309
 3186SOL     OW 9575   3.979   1.348   2.152
 3186SOL    HW1 9576   3.883   1.349   2.125
 3186SOL    HW2 9577   3.991   1.401   2.236
 3187SOL     OW 9578   3.829   1.013   3.588
 3187SOL    HW1 9579   3.752   0.980   3.642
 3187SOL    HW2 9580   3.914   0.983   3.630
 3188SOL     OW 9581   4.396   0.203   3.351
 3188SOL    HW1 9582   4.486   0.187   3.311
 3188SOL    HW2 9583   4.404   0.208   3.450
 3189SOL     OW 9584   3.799   0.345   1.895
 3189SOL    HW1 9585   3.707   0.317   1.866
 3189SOL    HW2 9586   3.830   0.422   1.839
 3190SOL     OW 9587   3.796   0.166   2.180
 3190SOL    HW1 9588   3.779   0.249   2.126
 3190SOL    HW2 9589   3.886   0.129   2.158
 3191SOL     OW 9590   4.337   0.842   3.293
 3191SOL    HW1 9591   4.393   0.923   3.276
 3191SOL    HW2 9592   4.396   0.762   3.296
 3192SOL     OW 9593   4.440   0.565   3.570
 3192SOL    HW1 9594   4.459   0.630   3.644
 3192SOL    HW2 9595   4.500   0.485   3.579
 3193SOL     OW 9596   4.114   1.741   3.422
 3193SOL    HW1 9597   4.023   1.782   3.420
 3193SOL    HW2 9598   4.107   1.647   3.454
 3194SOL     OW 9599   4.318   0.745   2.514
 3194SOL    HW1 9600   4.368   0.830   2.495
 3194SOL    HW2 9601   4.230   0.747   2.466
 3195SOL     OW 9602   4.583   1.374   1.878
 3195SOL    HW1 9603   4.537   1.389   1.966
 3195SOL    HW2 9604   4.627   1.459   1.848
 3196SOL     OW 9605   4.385   1.790   2.815
 3196SOL    HW1 9606   4.339   1.878   2.802
 3196SOL    HW2 9607   4.484   1.802   2.808
 3197SOL     OW 9608   4.583   0.956   2.723
 3197SOL    HW1 9609   4.637   0.887   2.771
 3197SOL    HW2 9610   4.551   1.025   2.789
 3198SOL     OW 9611   4.807   0.984   1.949
 3198SOL    HW1 9612   4.784   1.037   1.867
 3198SOL    HW2 9613   4.888   0.928   1.930
 3199SOL     OW 9614   3.945   1.314   3.706
 3199SOL    HW1 9615   3.880   1.241   3.685
 3199SOL    HW2 9616   3.949   1.328   3.804
 3200SOL     OW 9617   3.803   1.240   2.515
 3200SOL    HW1 9618   3.802   1.193   2.603
 3200SOL    HW2 9619   3.885   1.212   2.464
 3201SOL     OW 9620   4.396   1.391   3.486
 3201SOL    HW1 9621   4.318   1.341   3.524
 3201SOL    HW2 9622   4.393   1.486   3.517
 3202SOL     OW 9623   4.152   0.424   2.382
 3202SOL    HW1 9624   4.182   0.352   2.320
 3202SOL    HW2 9625   4.113   0.384   2.465
 3203SOL     OW 9626   4.041   0.547   3.142
 3203SOL    HW1 9627   4.079   0.488   3.214
 3203SOL    HW2 9628   4.081   0.521   3.054
 3204SOL     OW 9629   4.536   1.586   2.549
 3204SOL    HW1 9630   4.568   1.596   2.455
 3204SOL    HW2 9631   4.457   1.524   2.551
 3205SOL     OW 9632   4.725   0.034   3.016
 3205SOL    HW1 9633   4.662  -0.038   2.985
 3205SOL    HW2 9634   4.818  -0.002   3.016
 3206SOL     OW 9635   4.494   1.330   2.163
 3206SOL    HW1 9636   4.448   1.243   2.180
 3206SOL    HW2 9637   4.585   1.327   2.204
 3207SOL     OW 9638   4.342   1.567   3.146
 3207SOL    HW1 9639   4.337   1.649   3.203
 3207SOL    HW2 9640   4.431   1.564   3.101
 3208SOL     OW 9641   3.763   1.077   2.162
 3208SOL    HW1 9642   3.862   1.066   2.153
 3208SOL    HW2 9643   3.723   0.991   2.194
 3209SOL     OW 9644   4.599   1.646   2.199
 3209SOL    HW1 9645   4.522   1.611   2.145
 3209SOL    HW2 9646   4.567   1.717   2.261
 3210SOL     OW 9647   3.954   0.628   3.837
 3210SOL    HW1 9648   3.861   0.626   3.874
 3210SOL    HW2 9649   3.955   0.589   3.745
 3211SOL     OW 9650   3.949   0.275   4.720
 3211SOL    HW1 9651   3.984   0.258   4.812
 3211SOL    HW2 9652   3.861   0.230   4.708
 3212SOL     OW 9653   3.743   0.368   4.371
 3212SOL    HW1 9654   3.661   0.411   4.410
 3212SOL    HW2 9655   3.715   0.295   4.308
 3213SOL     OW 9656   4.492   1.144   4.747
 3213SOL    HW1 9657   4.414   1.161   4.807
 3213SOL    HW2 9658   4.526   1.231   4.711
 3214SOL     OW 9659   4.409   1.012   4.389
 3214SOL    HW1 9660   4.478   0.996   4.459
 3214SOL    HW2 9661   4.336   1.069   4.427
 3215SOL     OW 9662   4.059   1.435   4.785
 3215SOL    HW1 9663   3.981   1.404   4.732
 3215SOL    HW2 9664   4.117   1.493   4.728
 3216SOL     OW 9665   3.955   1.713   4.207
 3216SOL    HW1 9666   3.989   1.790   4.261
 3216SOL    HW2 9667   3.999   1.713   4.117
 3217SOL     OW 9668   3.954   1.434   4.262
 3217SOL    HW1 9669   3.928   1.530   4.262
 3217SOL    HW2 9670   3.883   1.380   4.307
 3218SOL     OW 9671   3.964   1.091   4.610
 3218SOL    HW1 9672   3.978   1.007   4.662
 3218SOL    HW2 9673   3.909   1.155   4.665
 3219SOL     OW 9674   4.330   0.964   3.847
 3219SOL    HW1 9675   4.337   1.048   3.793
 3219SOL    HW2 9676   4.376   0.977   3.935
 3220SOL     OW 9677   3.846   0.643   4.287
 3220SOL    HW1 9678   3.801   0.555   4.304
 3220SOL    HW2 9679   3.845   0.697   4.371
 3221SOL     OW 9680   3.751   1.596   3.841
 3221SOL    HW1 9681   3.732   1.500   3.862
 3221SOL    HW2 9682   3.718   1.654   3.916
 3222SOL     OW 9683   4.337   1.365   4.450
 3222SOL    HW1 9684   4.288   1.278   4.459
 3222SOL    HW2 9685   4.314   1.408   4.363
 3223SOL     OW 9686   4.533   0.004   4.226
 3223SOL    HW1 9687   4.573   0.095   4.217
 3223SOL    HW2 9688   4.433   0.012   4.232
 3224SOL     OW 9689   3.921   0.976   4.988
 3224SOL    HW1 9690   4.010   0.931   4.974
 3224SOL    HW2 9691   3.848   0.911   4.969
 3225SOL     OW 9692   4.322   0.729   3.994
 3225SOL    HW1 9693   4.346   0.798   3.926
 3225SOL    HW2 9694   4.244   0.762   4.048
 3226SOL     OW 9695   4.765   0.701   4.153
 3226SOL    HW1 9696   4.791   0.697   4.249
 3226SOL    HW2 9697   4.680   0.650   4.139
 3227SOL     OW 9698   3.800   0.811   4.513
 3227SOL    HW1 9699   3.899   0.799   4.522
 3227SOL    HW2 9700   3.776   0.906   4.534
 3228SOL     OW 9701   4.589   0.348   3.919
 3228SOL    HW1 9702   4.648   0.411   3.870
 3228SOL    HW2 9703   4.608   0.254   3.890
 3229SOL     OW 9704   4.274   0.196   4.609
 3229SOL    HW1 9705   4.269   0.191   4.709
 3229SOL    HW2 9706   4.276   0.292   4.580
 3230SOL     OW 9707   4.732   1.456   4.201
 3230SOL    HW1 9708   4.686   1.528   4.149
 3230SOL    HW2 9709   4.728   1.476   4.299
 3231SOL     OW 9710   4.075   1.801   4.577
 3231SOL    HW1 9711   4.125   1.715   4.583
 3231SOL    HW2 9712   4.140   1.878   4.574
 3232SOL     OW 9713   4.045   0.943   3.966
 3232SOL    HW1 9714   4.127   0.982   3.924
 3232SOL    HW2 9715   4.018   0.861   3.917
 3233SOL     OW 9716   4.188   1.743   4.047
 3233SOL    HW1 9717   4.221   1.782   4.133
 3233SOL    HW2 9718   4.264   1.736   3.982
 3234SOL     OW 9719   3.973   1.785   4.965
 3234SOL    HW1 9720   4.030   1.720   5.015
 3234SOL    HW2 9721   3.957   1.752   4.872
 3235SOL     OW 9722   4.664   1.698   4.628
 3235SOL    HW1 9723   4.744   1.641   4.649
 3235SOL    HW2 9724   4.615   1.658   4.551
 3236SOL     OW 9725   4.106   0.700   4.204
 3236SOL    HW1 9726   4.151   0.610   4.201
 3236SOL    HW2 9727   4.012   0.689   4.237
 3237SOL     OW 9728   4.338   0.122   3.841
 3237SOL    HW1 9729   4.436   0.100   3.848
 3237SOL    HW2 9730   4.307   0.105   3.748
 3238SOL     OW 9731   4.527   1.402   4.648
 3238SOL    HW1 9732   4.617   1.416   4.606
 3238SOL    HW2 9733   4.456   1.404   4.577
 3239SOL     OW 9734   4.646   0.503   4.623
 3239SOL    HW1 9735   4.621   0.494   4.527
 3239SOL    HW2 9736   4.694   0.421   4.654
 3240SOL     OW 9737   4.263   0.064   4.236
 3240SOL    HW1 9738   4.182   0.065   4.294
 3240SOL    HW2 9739   4.266   0.147   4.181
 3241SOL     OW 9740   4.021   0.035   3.895
 3241SOL    HW1 9741   4.070   0.119   3.874
 3241SOL    HW2 9742   4.083  -0.030   3.940
 3242SOL     OW 9743   4.659   0.236   4.204
 3242SOL    HW1 9744   4.611   0.277   4.126
 3242SOL    HW2 9745   4.758   0.234   4.185
 3243SOL     OW 9746   4.951   1.570   4.517
 3243SOL    HW1 9747   4.972   1.644   4.452
 3243SOL    HW2 9748   5.019   1.570   4.590
 3244SOL     OW 9749   4.183   1.152   4.465
 3244SOL    HW1 9750   4.112   1.125   4.530
 3244SOL    HW2 9751   4.157   1.124   4.372
 3245SOL     OW 9752   4.995   1.797   4.315
 3245SOL    HW1 9753   5.039   1.861   4.251
 3245SOL    HW2 9754   4.945   1.849   4.385
 3246SOL     OW 9755   4.756   0.549   3.740
 3246SOL    HW1 9756   4.715   0.631   3.701
 3246SOL    HW2 9757   4.820   0.575   3.813
 3247SOL     OW 9758   4.590   0.454   4.366
 3247SOL    HW1 9759   4.558   0.526   4.304
 3247SOL    HW2 9760   4.614   0.373   4.313
 3248SOL     OW 9761   4.741   0.039   4.477
 3248SOL    HW1 9762   4.669   0.044   4.408
 3248SOL    HW2 9763   4.717  -0.030   4.546
 3249SOL     OW 9764   4.212   1.385   3.898
 3249SOL    HW1 9765   4.125   1.370   3.945
 3249SOL    HW2 9766   4.195   1.411   3.803
 3250SOL     OW 9767   4.251   0.256   4.052
 3250SOL    HW1 9768   4.278   0.197   3.977
 3250SOL    HW2 9769   4.251   0.351   4.021
 3251SOL     OW 9770   4.429   1.050   4.092
 3251SOL    HW1 9771   4.415   1.057   4.191
 3251SOL    HW2 9772   4.513   0.999   4.074
 3252SOL     OW 9773   4.134   0.813   4.975
 3252SOL    HW1 9774   4.220   0.825   5.025
 3252SOL    HW2 9775   4.092   0.726   5.002
 3253SOL     OW 9776   4.091   1.100   4.225
 3253SOL    HW1 9777   4.084   1.183   4.169
 3253SOL    HW2 9778   4.095   1.020   4.165
 3254SOL     OW 9779   4.290   0.537   4.589
 3254SOL    HW1 9780   4.302   0.603   4.515
 3254SOL    HW2 9781   4.336   0.571   4.672
 3255SOL     OW 9782   4.976   1.348   4.112
 3255SOL    HW1 9783   5.026   1.425   4.152
 3255SOL    HW2 9784   4.881   1.350   4.144
 3256SOL     OW 9785   4.078   1.510   5.053
 3256SOL    HW1 9786   4.057   1.466   4.966
 3256SOL    HW2 9787   4.175   1.536   5.056
 3257SOL     OW 9788   4.297   0.870   4.753
 3257SOL    HW1 9789   4.341   0.959   4.744
 3257SOL    HW2 9790   4.234   0.870   4.830
 3258SOL     OW 9791   4.933   0.525   3.999
 3258SOL    HW1 9792   4.946   0.441   4.053
 3258SOL    HW2 9793   4.904   0.599   4.059
 3259SOL     OW 9794   4.456   0.634   4.788
 3259SOL    HW1 9795   4.515   0.608   4.712
 3259SOL    HW2 9796   4.428   0.730   4.777
 3260SOL     OW 9797   4.031   0.063   4.342
 3260SOL    HW1 9798   4.020   0.157   4.375
 3260SOL    HW2 9799   4.026   0.000   4.419
 3261SOL     OW 9800   4.747   0.766   4.690
 3261SOL    HW1 9801   4.762   0.787   4.786
 3261SOL    HW2 9802   4.717   0.671   4.681
 3262SOL     OW 9803   5.027   0.838   3.766
 3262SOL    HW1 9804   5.061   0.745   3.781
 3262SOL    HW2 9805   5.045   0.865   3.671
 3263SOL     OW 9806   4.792   1.333   4.573
 3263SOL    HW1 9807   4.799   1.249   4.518
 3263SOL    HW2 9808   4.854   1.402   4.537
 3264SOL     OW 9809   4.043   0.810   4.673
 3264SOL    HW1 9810   4.136   0.846   4.678
 3264SOL    HW2 9811   4.037   0.725   4.725
 3265SOL     OW 9812   4.063   0.509   4.730
 3265SOL    HW1 9813   4.011   0.426   4.713
 3265SOL    HW2 9814   4.140   0.514   4.666
 3266SOL     OW 9815   3.732   1.326   3.924
 3266SOL    HW1 9816   3.639   1.347   3.893
 3266SOL    HW2 9817   3.742   1.227   3.937
 3267SOL     OW 9818   3.812   1.801   4.651
 3267SOL    HW1 9819   3.770   1.715   4.624
 3267SOL    HW2 9820   3.906   1.804   4.617
 3268SOL     OW 9821   4.228   1.568   4.634
 3268SOL    HW1 9822   4.294   1.642   4.643
 3268SOL    HW2 9823   4.272   1.489   4.592
 3269SOL     OW 9824   4.726   0.796   4.962
 3269SOL    HW1 9825   4.767   0.764   5.048
 3269SOL    HW2 9826   4.630   0.769   4.959
 3270SOL     OW 9827   3.764   0.544   4.838
 3270SOL    HW1 9828   3.849   0.511   4.797
 3270SOL    HW2 9829   3.777   0.559   4.936
 3271SOL     OW 9830   4.539   0.572   4.049
 3271SOL    HW1 9831   4.546   0.483   4.003
 3271SOL    HW2 9832   4.445   0.606   4.041
 3272SOL     OW 9833   4.395   0.464   4.993
 3272SOL    HW1 9834   4.361   0.375   4.963
 3272SOL    HW2 9835   4.421   0.518   4.913
 3273SOL     OW 9836   4.197   0.500   3.915
 3273SOL    HW1 9837   4.258   0.580   3.919
 3273SOL    HW2 9838   4.102   0.531   3.922
 3274SOL     OW 9839   5.026   0.855   4.033
 3274SOL    HW1 9840   4.940   0.824   4.075
 3274SOL    HW2 9841   5.022   0.841   3.934
 3275SOL     OW 9842   3.807   1.258   4.746
 3275SOL    HW1 9843   3.802   1.257   4.846
 3275SOL    HW2 9844   3.724   1.217   4.708
 3276SOL     OW 9845   4.396   1.616   3.878
 3276SOL    HW1 9846   4.405   1.626   3.779
 3276SOL    HW2 9847   4.356   1.527   3.899
 3277SOL     OW 9848   3.987   0.326   4.444
 3277SOL    HW1 9849   3.908   0.377   4.410
 3277SOL    HW2 9850   3.978   0.311   4.542
 3278SOL     OW 9851   4.546   1.002   5.096
 3278SOL    HW1 9852   4.586   1.001   5.004
 3278SOL    HW2 9853   4.556   1.094   5.136
 3279SOL     OW 9854   4.640   0.910   4.015
 3279SOL    HW1 9855   4.703   0.948   3.947
 3279SOL    HW2 9856   4.680   0.827   4.054
 3280SOL     OW 9857   4.763   1.098   4.420
 3280SOL    HW1 9858   4.693   1.051   4.474
 3280SOL    HW2 9859   4.822   1.030   4.377
 3281SOL     OW 9860   4.738   0.236   4.695
 3281SOL    HW1 9861   4.730   0.200   4.602
 3281SOL    HW2 9862   4.736   0.160   4.760
 3282SOL     OW 9863   4.314   1.487   4.215
 3282SOL    HW1 9864   4.356   1.429   4.145
 3282SOL    HW2 9865   4.270   1.566   4.171
 3283SOL     OW 9866   3.979   1.348   4.014
 3283SOL    HW1 9867   3.883   1.349   3.987
 3283SOL    HW2 9868   3.991   1.401   4.098
 3284SOL     OW 9869   3.799   0.345   3.757
 3284SOL    HW1 9870   3.707   0.317   3.728
 3284SOL    HW2 9871   3.830   0.422   3.701
 3285SOL     OW 9872   3.796   0.166   4.042
 3285SOL    HW1 9873   3.779   0.249   3.988
 3285SOL    HW2 9874   3.886   0.129   4.020
 3286SOL     OW 9875   4.318   0.745   4.376
 3286SOL    HW1 9876   4.368   0.830   4.357
 3286SOL    HW2 9877   4.230   0.747   4.328
 3287SOL     OW 9878   4.583   1.374   3.740
 3287SOL    HW1 9879   4.537   1.389   3.828
 3287SOL    HW2 9880   4.627   1.459   3.710
 3288SOL     OW 9881   4.385   1.790   4.677
 3288SOL    HW1 9882   4.339   1.878   4.664
 3288SOL    HW2 9883   4.484   1.802   4.670
 3289SOL     OW 9884   4.583   0.956   4.585
 3289SOL    HW1 9885   4.637   0.887   4.633
 3289SOL    HW2 9886   4.551   1.025   4.651
 3290SOL     OW 9887   4.807   0.984   3.811
 3290SOL    HW1 9888   4.784   1.037   3.729
 3290SOL    HW2 9889   4.888   0.928   3.792
 3291SOL     OW 9890   3.803   1.240   4.377
 3291SOL    HW1 9891   3.802   1.193   4.465
 3291SOL    HW2 9892   3.885   1.212   4.326
 3292SOL     OW 9893   4.152   0.424   4.244
 3292SOL    HW1 9894   4.182   0.352   4.182
 3292SOL    HW2 9895   4.113   0.384   4.327
 3293SOL     OW 9896   4.536   1.586   4.411
 3293SOL    HW1 9897   4.568   1.596   4.317
 3293SOL    HW2 9898   4.457   1.524   4.413
 3294SOL     OW 9899   4.494   1.330   4.025
 3294SOL    HW1 9900   4.448   1.243   4.042
 3294SOL    HW2 9901   4.585   1.327   4.066
 3295SOL     OW 9902   3.763   1.077   4.024
 3295SOL    HW1 9903   3.862   1.066   4.015
 3295SOL    HW2 9904   3.723   0.991   4.056
 3296SOL     OW 9905   4.599   1.646   4.061
 3296SOL    HW1 9906   4.522   1.611   4.007
 3296SOL    HW2 9907   4.567   1.717   4.123
 3297SOL     OW 9908   3.954   2.490   0.113
 3297SOL    HW1 9909   3.861   2.488   0.150
 3297SOL    HW2 9910   3.955   2.451   0.021
 3298SOL     OW 9911   3.949   2.137   0.996
 3298SOL    HW1 9912   3.984   2.120   1.088
 3298SOL    HW2 9913   3.861   2.092   0.984
 3299SOL     OW 9914   3.743   2.230   0.647
 3299SOL    HW1 9915   3.661   2.273   0.686
 3299SOL    HW2 9916   3.715   2.157   0.584
 3300SOL     OW 9917   4.293   3.137   1.165
 3300SOL    HW1 9918   4.200   3.130   1.128
 3300SOL    HW2 9919   4.304   3.226   1.209
 3301SOL     OW 9920   4.492   3.006   1.023
 3301SOL    HW1 9921   4.414   3.023   1.083
 3301SOL    HW2 9922   4.526   3.093   0.987
 3302SOL     OW 9923   4.574   2.660   1.823
 3302SOL    HW1 9924   4.570   2.736   1.888
 3302SOL    HW2 9925   4.596   2.696   1.732
 3303SOL     OW 9926   4.409   2.874   0.665
 3303SOL    HW1 9927   4.478   2.858   0.735
 3303SOL    HW2 9928   4.336   2.931   0.703
 3304SOL     OW 9929   4.410   3.023   1.803
 3304SOL    HW1 9930   4.470   3.102   1.817
 3304SOL    HW2 9931   4.324   3.054   1.762
 3305SOL     OW 9932   4.059   3.297   1.061
 3305SOL    HW1 9933   3.981   3.266   1.008
 3305SOL    HW2 9934   4.117   3.355   1.004
 3306SOL     OW 9935   4.162   2.254   1.499
 3306SOL    HW1 9936   4.244   2.198   1.508
 3306SOL    HW2 9937   4.081   2.196   1.503
 3307SOL     OW 9938   3.955   3.575   0.483
 3307SOL    HW1 9939   3.989   3.652   0.537
 3307SOL    HW2 9940   3.999   3.575   0.393
 3308SOL     OW 9941   4.851   3.203   1.690
 3308SOL    HW1 9942   4.898   3.203   1.778
 3308SOL    HW2 9943   4.803   3.116   1.679
 3309SOL     OW 9944   3.954   3.296   0.538
 3309SOL    HW1 9945   3.928   3.392   0.538
 3309SOL    HW2 9946   3.883   3.242   0.583
 3310SOL     OW 9947   3.964   2.953   0.886
 3310SOL    HW1 9948   3.978   2.869   0.938
 3310SOL    HW2 9949   3.909   3.017   0.941
 3311SOL     OW 9950   4.344   3.648   1.439
 3311SOL    HW1 9951   4.252   3.631   1.474
 3311SOL    HW2 9952   4.372   3.740   1.465
 3312SOL     OW 9953   4.330   2.826   0.123
 3312SOL    HW1 9954   4.337   2.910   0.069
 3312SOL    HW2 9955   4.376   2.839   0.211
 3313SOL     OW 9956   3.846   2.505   0.563
 3313SOL    HW1 9957   3.801   2.417   0.580
 3313SOL    HW2 9958   3.845   2.559   0.647
 3314SOL     OW 9959   3.751   3.458   0.117
 3314SOL    HW1 9960   3.732   3.362   0.138
 3314SOL    HW2 9961   3.718   3.516   0.192
 3315SOL     OW 9962   3.837   2.599   1.597
 3315SOL    HW1 9963   3.925   2.586   1.642
 3315SOL    HW2 9964   3.824   2.696   1.575
 3316SOL     OW 9965   4.337   3.227   0.726
 3316SOL    HW1 9966   4.288   3.140   0.735
 3316SOL    HW2 9967   4.314   3.270   0.639
 3317SOL     OW 9968   4.533   1.866   0.502
 3317SOL    HW1 9969   4.573   1.957   0.493
 3317SOL    HW2 9970   4.433   1.874   0.508
 3318SOL     OW 9971   3.921   2.838   1.264
 3318SOL    HW1 9972   4.010   2.793   1.250
 3318SOL    HW2 9973   3.848   2.773   1.245
 3319SOL     OW 9974   4.041   2.113   1.801
 3319SOL    HW1 9975   4.112   2.184   1.807
 3319SOL    HW2 9976   3.953   2.152   1.829
 3320SOL     OW 9977   4.322   2.591   0.270
 3320SOL    HW1 9978   4.346   2.660   0.202
 3320SOL    HW2 9979   4.244   2.624   0.324
 3321SOL     OW 9980   4.531   2.467   1.465
 3321SOL    HW1 9981   4.484   2.464   1.554
 3321SOL    HW2 9982   4.480   2.412   1.399
 3322SOL     OW 9983   4.697   2.752   1.572
 3322SOL    HW1 9984   4.743   2.668   1.543
 3322SOL    HW2 9985   4.641   2.786   1.497
 3323SOL     OW 9986   4.715   2.272   1.242
 3323SOL    HW1 9987   4.638   2.306   1.296
 3323SOL    HW2 9988   4.681   2.221   1.163
 3324SOL     OW 9989   4.765   2.563   0.429
 3324SOL    HW1 9990   4.791   2.559   0.525
 3324SOL    HW2 9991   4.680   2.512   0.415
 3325SOL     OW 9992   3.800   2.673   0.789
 3325SOL    HW1 9993   3.899   2.661   0.798
 3325SOL    HW2 9994   3.776   2.768   0.810
 3326SOL     OW 9995   3.854   3.683   1.571
 3326SOL    HW1 9996   3.844   3.668   1.670
 3326SOL    HW2 9997   3.768   3.719   1.535
 3327SOL     OW 9998   4.589   2.210   0.195
 3327SOL    HW1 9999   4.648   2.273   0.146
 3327SOL    HW210000   4.608   2.116   0.166
 3328SOL     OW10001   4.274   2.058   0.885
 3328SOL    HW110002   4.269   2.053   0.985
 3328SOL    HW210003   4.276   2.154   0.856
 3329SOL     OW10004   4.732   3.318   0.477
 3329SOL    HW110005   4.686   3.390   0.425
 3329SOL    HW210006   4.728   3.338   0.575
 3330SOL     OW10007   4.075   3.663   0.853
 3330SOL    HW110008   4.125   3.577   0.859
 3330SOL    HW210009   4.140   3.740   0.850
 3331SOL     OW10010   4.045   2.805   0.242
 3331SOL    HW110011   4.127   2.844   0.200
 3331SOL    HW210012   4.018   2.723   0.193
 3332SOL     OW10013   4.185   3.128   1.727
 3332SOL    HW110014   4.135   3.129   1.641
 3332SOL    HW210015   4.122   3.110   1.803
 3333SOL     OW10016   3.926   2.147   1.498
 3333SOL    HW110017   3.846   2.207   1.485
 3333SOL    HW210018   3.916   2.098   1.584
 3334SOL     OW10019   4.188   3.605   0.323
 3334SOL    HW110020   4.221   3.644   0.409
 3334SOL    HW210021   4.264   3.598   0.258
 3335SOL     OW10022   3.973   3.647   1.241
 3335SOL    HW110023   4.030   3.582   1.291
 3335SOL    HW210024   3.957   3.614   1.148
 3336SOL     OW10025   4.664   3.560   0.904
 3336SOL    HW110026   4.744   3.503   0.925
 3336SOL    HW210027   4.615   3.520   0.827
 3337SOL     OW10028   4.106   2.562   0.480
 3337SOL    HW110029   4.151   2.472   0.477
 3337SOL    HW210030   4.012   2.551   0.513
 3338SOL     OW10031   4.338   1.984   0.117
 3338SOL    HW110032   4.436   1.962   0.124
 3338SOL    HW210033   4.307   1.967   0.024
 3339SOL     OW10034   4.505   2.126   1.749
 3339SOL    HW110035   4.572   2.065   1.792
 3339SOL    HW210036   4.432   2.145   1.814
 3340SOL     OW10037   4.612   3.376   1.195
 3340SOL    HW110038   4.589   3.351   1.101
 3340SOL    HW210039   4.673   3.307   1.234
 3341SOL     OW10040   4.527   3.264   0.924
 3341SOL    HW110041   4.617   3.278   0.882
 3341SOL    HW210042   4.456   3.266   0.853
 3342SOL     OW10043   4.646   2.365   0.899
 3342SOL    HW110044   4.621   2.356   0.803
 3342SOL    HW210045   4.694   2.283   0.930
 3343SOL     OW10046   4.263   1.926   0.512
 3343SOL    HW110047   4.182   1.927   0.570
 3343SOL    HW210048   4.266   2.009   0.457
 3344SOL     OW10049   5.158   3.050   0.041
 3344SOL    HW110050   5.190   2.974   0.098
 3344SOL    HW210051   5.066   3.077   0.071
 3345SOL     OW10052   4.021   1.897   0.171
 3345SOL    HW110053   4.070   1.981   0.150
 3345SOL    HW210054   4.083   1.832   0.216
 3346SOL     OW10055   4.659   2.098   0.480
 3346SOL    HW110056   4.611   2.139   0.402
 3346SOL    HW210057   4.758   2.096   0.461
 3347SOL     OW10058   4.951   3.432   0.793
 3347SOL    HW110059   4.972   3.506   0.728
 3347SOL    HW210060   5.019   3.432   0.866
 3348SOL     OW10061   4.183   3.014   0.741
 3348SOL    HW110062   4.112   2.987   0.806
 3348SOL    HW210063   4.157   2.986   0.648
 3349SOL     OW10064   4.995   3.659   0.591
 3349SOL    HW110065   5.039   3.723   0.527
 3349SOL    HW210066   4.945   3.711   0.661
 3350SOL     OW10067   4.756   2.411   0.016
 3350SOL    HW110068   4.715   2.493  -0.023
 3350SOL    HW210069   4.820   2.437   0.089
 3351SOL     OW10070   3.802   2.418   1.386
 3351SOL    HW110071   3.894   2.417   1.345
 3351SOL    HW210072   3.796   2.492   1.453
 3352SOL     OW10073   4.285   2.084   1.147
 3352SOL    HW110074   4.323   2.000   1.184
 3352SOL    HW210075   4.197   2.103   1.191
 3353SOL     OW10076   4.590   2.316   0.642
 3353SOL    HW110077   4.558   2.388   0.580
 3353SOL    HW210078   4.614   2.235   0.589
 3354SOL     OW10079   4.741   1.901   0.753
 3354SOL    HW110080   4.669   1.906   0.684
 3354SOL    HW210081   4.717   1.832   0.822
 3355SOL     OW10082   4.212   3.247   0.174
 3355SOL    HW110083   4.125   3.232   0.221
 3355SOL    HW210084   4.195   3.273   0.079
 3356SOL     OW10085   4.251   2.118   0.328
 3356SOL    HW110086   4.278   2.059   0.253
 3356SOL    HW210087   4.251   2.213   0.297
 3357SOL     OW10088   4.639   1.951   1.402
 3357SOL    HW110089   4.664   1.931   1.307
 3357SOL    HW210090   4.711   2.007   1.444
 3358SOL     OW10091   4.704   2.978   1.719
 3358SOL    HW110092   4.605   2.984   1.729
 3358SOL    HW210093   4.727   2.898   1.663
 3359SOL     OW10094   4.429   2.912   0.368
 3359SOL    HW110095   4.415   2.919   0.467
 3359SOL    HW210096   4.513   2.861   0.350
 3360SOL     OW10097   4.134   2.675   1.251
 3360SOL    HW110098   4.220   2.687   1.301
 3360SOL    HW210099   4.092   2.588   1.278
 3361SOL     OW10100   3.788   3.426   1.331
 3361SOL    HW110101   3.742   3.508   1.297
 3361SOL    HW210102   3.886   3.445   1.340
 3362SOL     OW10103   4.091   2.962   0.501
 3362SOL    HW110104   4.084   3.045   0.445
 3362SOL    HW210105   4.095   2.882   0.441
 3363SOL     OW10106   4.290   2.399   0.865
 3363SOL    HW110107   4.302   2.465   0.791
 3363SOL    HW210108   4.336   2.433   0.948
 3364SOL     OW10109   4.976   3.210   0.388
 3364SOL    HW110110   5.026   3.287   0.428
 3364SOL    HW210111   4.881   3.212   0.420
 3365SOL     OW10112   4.078   3.372   1.329
 3365SOL    HW110113   4.057   3.328   1.242
 3365SOL    HW210114   4.175   3.398   1.332
 3366SOL     OW10115   4.126   2.613   1.598
 3366SOL    HW110116   4.194   2.668   1.551
 3366SOL    HW210117   4.166   2.525   1.625
 3367SOL     OW10118   4.737   1.967   1.770
 3367SOL    HW110119   4.743   2.052   1.718
 3367SOL    HW210120   4.769   1.891   1.713
 3368SOL     OW10121   4.228   1.912   1.740
 3368SOL    HW110122   4.186   1.855   1.670
 3368SOL    HW210123   4.162   1.981   1.772
 3369SOL     OW10124   4.297   2.732   1.029
 3369SOL    HW110125   4.341   2.821   1.020
 3369SOL    HW210126   4.234   2.732   1.106
 3370SOL     OW10127   4.933   2.387   0.275
 3370SOL    HW110128   4.946   2.303   0.329
 3370SOL    HW210129   4.904   2.461   0.335
 3371SOL     OW10130   4.031   2.075   1.231
 3371SOL    HW110131   4.008   2.112   1.321
 3371SOL    HW210132   4.001   1.980   1.225
 3372SOL     OW10133   3.761   3.172   1.282
 3372SOL    HW110134   3.814   3.123   1.350
 3372SOL    HW210135   3.783   3.270   1.287
 3373SOL     OW10136   4.456   2.496   1.064
 3373SOL    HW110137   4.515   2.470   0.988
 3373SOL    HW210138   4.428   2.592   1.053
 3374SOL     OW10139   4.031   1.925   0.618
 3374SOL    HW110140   4.020   2.019   0.651
 3374SOL    HW210141   4.026   1.862   0.695
 3375SOL     OW10142   4.747   2.628   0.966
 3375SOL    HW110143   4.762   2.649   1.062
 3375SOL    HW210144   4.717   2.533   0.957
 3376SOL     OW10145   4.704   3.435   1.700
 3376SOL    HW110146   4.684   3.479   1.612
 3376SOL    HW210147   4.743   3.344   1.684
 3377SOL     OW10148   4.074   2.760   1.804
 3377SOL    HW110149   4.150   2.804   1.852
 3377SOL    HW210150   4.109   2.713   1.722
 3378SOL     OW10151   4.792   3.195   0.849
 3378SOL    HW110152   4.799   3.111   0.794
 3378SOL    HW210153   4.854   3.264   0.813
 3379SOL     OW10154   4.043   2.672   0.949
 3379SOL    HW110155   4.136   2.708   0.954
 3379SOL    HW210156   4.037   2.587   1.001
 3380SOL     OW10157   4.063   2.371   1.006
 3380SOL    HW110158   4.011   2.288   0.989
 3380SOL    HW210159   4.140   2.376   0.942
 3381SOL     OW10160   4.862   2.242   1.678
 3381SOL    HW110161   4.817   2.305   1.742
 3381SOL    HW210162   4.955   2.273   1.661
 3382SOL     OW10163   4.884   2.069   1.477
 3382SOL    HW110164   4.884   2.133   1.554
 3382SOL    HW210165   4.912   2.117   1.394
 3383SOL     OW10166   3.732   3.188   0.200
 3383SOL    HW110167   3.639   3.209   0.169
 3383SOL    HW210168   3.742   3.089   0.213
 3384SOL     OW10169   3.812   3.663   0.927
 3384SOL    HW110170   3.770   3.577   0.900
 3384SOL    HW210171   3.906   3.666   0.893
 3385SOL     OW10172   4.228   3.430   0.910
 3385SOL    HW110173   4.294   3.504   0.919
 3385SOL    HW210174   4.272   3.351   0.868
 3386SOL     OW10175   4.726   2.658   1.238
 3386SOL    HW110176   4.767   2.626   1.324
 3386SOL    HW210177   4.630   2.631   1.235
 3387SOL     OW10178   3.764   2.406   1.114
 3387SOL    HW110179   3.849   2.373   1.073
 3387SOL    HW210180   3.777   2.421   1.212
 3388SOL     OW10181   3.913   2.382   1.722
 3388SOL    HW110182   3.972   2.342   1.652
 3388SOL    HW210183   3.855   2.453   1.681
 3389SOL     OW10184   4.539   2.434   0.325
 3389SOL    HW110185   4.546   2.345   0.279
 3389SOL    HW210186   4.445   2.468   0.317
 3390SOL     OW10187   3.976   3.426   1.744
 3390SOL    HW110188   3.946   3.483   1.820
 3390SOL    HW210189   3.969   3.329   1.770
 3391SOL     OW10190   4.395   2.326   1.269
 3391SOL    HW110191   4.361   2.237   1.239
 3391SOL    HW210192   4.421   2.380   1.189
 3392SOL     OW10193   4.654   3.540   1.465
 3392SOL    HW110194   4.630   3.522   1.370
 3392SOL    HW210195   4.684   3.634   1.475
 3393SOL     OW10196   4.197   2.362   0.191
 3393SOL    HW110197   4.258   2.442   0.195
 3393SOL    HW210198   4.102   2.393   0.198
 3394SOL     OW10199   3.883   2.999   1.466
 3394SOL    HW110200   3.905   2.938   1.542
 3394SOL    HW210201   3.893   2.950   1.380
 3395SOL     OW10202   5.026   2.717   0.309
 3395SOL    HW110203   4.940   2.686   0.351
 3395SOL    HW210204   5.022   2.703   0.210
 3396SOL     OW10205   3.807   3.120   1.022
 3396SOL    HW110206   3.802   3.119   1.122
 3396SOL    HW210207   3.724   3.079   0.984
 3397SOL     OW10208   4.412   3.524   1.716
 3397SOL    HW110209   4.356   3.605   1.725
 3397SOL    HW210210   4.464   3.528   1.630
 3398SOL     OW10211   4.627   1.948   0.133
 3398SOL    HW110212   4.678   1.949   0.047
 3398SOL    HW210213   4.683   1.906   0.204
 3399SOL     OW10214   3.854   3.656   1.851
 3399SOL    HW110215   3.813   3.582   1.904
 3399SOL    HW210216   3.918   3.707   1.909
 3400SOL     OW10217   4.554   3.135   1.422
 3400SOL    HW110218   4.549   3.168   1.517
 3400SOL    HW210219   4.468   3.154   1.376
 3401SOL     OW10220   4.396   3.478   0.154
 3401SOL    HW110221   4.405   3.488   0.055
 3401SOL    HW210222   4.356   3.389   0.175
 3402SOL     OW10223   3.987   2.188   0.720
 3402SOL    HW110224   3.908   2.239   0.686
 3402SOL    HW210225   3.978   2.173   0.818
 3403SOL     OW10226   4.546   2.864   1.372
 3403SOL    HW110227   4.586   2.863   1.280
 3403SOL    HW210228   4.556   2.956   1.412
 3404SOL     OW10229   4.640   2.772   0.291
 3404SOL    HW110230   4.703   2.810   0.223
 3404SOL    HW210231   4.680   2.689   0.330
 3405SOL     OW10232   4.096   3.150   1.490
 3405SOL    HW110233   4.083   3.243   1.456
 3405SOL    HW210234   4.012   3.098   1.477
 3406SOL     OW10235   4.763   2.960   0.696
 3406SOL    HW110236   4.693   2.913   0.750
 3406SOL    HW210237   4.822   2.892   0.653
 3407SOL     OW10238   4.738   2.098   0.971
 3407SOL    HW110239   4.730   2.062   0.878
 3407SOL    HW210240   4.736   2.022   1.036
 3408SOL     OW10241   4.314   3.349   0.491
 3408SOL    HW110242   4.356   3.291   0.421
 3408SOL    HW210243   4.270   3.428   0.447
 3409SOL     OW10244   3.979   3.210   0.290
 3409SOL    HW110245   3.883   3.211   0.263
 3409SOL    HW210246   3.991   3.263   0.374
 3410SOL     OW10247   3.829   2.875   1.726
 3410SOL    HW110248   3.752   2.842   1.780
 3410SOL    HW210249   3.914   2.845   1.768
 3411SOL     OW10250   4.396   2.065   1.489
 3411SOL    HW110251   4.486   2.049   1.449
 3411SOL    HW210252   4.404   2.070   1.588
 3412SOL     OW10253   3.796   2.028   0.318
 3412SOL    HW110254   3.779   2.111   0.264
 3412SOL    HW210255   3.886   1.991   0.296
 3413SOL     OW10256   4.337   2.704   1.431
 3413SOL    HW110257   4.393   2.785   1.414
 3413SOL    HW210258   4.396   2.624   1.434
 3414SOL     OW10259   4.440   2.427   1.708
 3414SOL    HW110260   4.459   2.492   1.782
 3414SOL    HW210261   4.500   2.347   1.717
 3415SOL     OW10262   4.114   3.603   1.560
 3415SOL    HW110263   4.023   3.644   1.558
 3415SOL    HW210264   4.107   3.509   1.592
 3416SOL     OW10265   4.318   2.607   0.652
 3416SOL    HW110266   4.368   2.692   0.633
 3416SOL    HW210267   4.230   2.609   0.604
 3417SOL     OW10268   4.583   3.236   0.016
 3417SOL    HW110269   4.537   3.251   0.104
 3417SOL    HW210270   4.627   3.321  -0.014
 3418SOL     OW10271   4.385   3.652   0.953
 3418SOL    HW110272   4.339   3.740   0.940
 3418SOL    HW210273   4.484   3.664   0.946
 3419SOL     OW10274   4.583   2.818   0.861
 3419SOL    HW110275   4.637   2.749   0.909
 3419SOL    HW210276   4.551   2.887   0.927
 3420SOL     OW10277   4.807   2.846   0.087
 3420SOL    HW110278   4.784   2.899   0.005
 3420SOL    HW210279   4.888   2.790   0.068
 3421SOL     OW10280   3.945   3.176   1.844
 3421SOL    HW110281   3.880   3.103   1.823
 3421SOL    HW210282   3.949   3.190   1.942
 3422SOL     OW10283   3.803   3.102   0.653
 3422SOL    HW110284   3.802   3.055   0.741
 3422SOL    HW210285   3.885   3.074   0.602
 3423SOL     OW10286   4.396   3.253   1.624
 3423SOL    HW110287   4.318   3.203   1.662
 3423SOL    HW210288   4.393   3.348   1.655
 3424SOL     OW10289   4.152   2.286   0.520
 3424SOL    HW110290   4.182   2.214   0.458
 3424SOL    HW210291   4.113   2.246   0.603
 3425SOL     OW10292   4.041   2.409   1.280
 3425SOL    HW110293   4.079   2.350   1.352
 3425SOL    HW210294   4.081   2.383   1.192
 3426SOL     OW10295   4.536   3.448   0.687
 3426SOL    HW110296   4.568   3.458   0.593
 3426SOL    HW210297   4.457   3.386   0.689
 3427SOL     OW10298   4.725   1.896   1.154
 3427SOL    HW110299   4.662   1.824   1.123
 3427SOL    HW210300   4.818   1.860   1.154
 3428SOL     OW10301   4.494   3.192   0.301
 3428SOL    HW110302   4.448   3.105   0.318
 3428SOL    HW210303   4.585   3.189   0.342
 3429SOL     OW10304   4.342   3.429   1.284
 3429SOL    HW110305   4.337   3.511   1.341
 3429SOL    HW210306   4.431   3.426   1.239
 3430SOL     OW10307   3.763   2.939   0.300
 3430SOL    HW110308   3.862   2.928   0.291
 3430SOL    HW210309   3.723   2.853   0.332
 3431SOL     OW10310   4.599   3.508   0.337
 3431SOL    HW110311   4.522   3.473   0.283
 3431SOL    HW210312   4.567   3.579   0.399
 3432SOL     OW10313   3.954   2.490   1.975
 3432SOL    HW110314   3.861   2.488   2.012
 3432SOL    HW210315   3.955   2.451   1.883
 3433SOL     OW10316   3.949   2.137   2.858
 3433SOL    HW110317   3.984   2.120   2.950
 3433SOL    HW210318   3.861   2.092   2.846
 3434SOL     OW10319   3.743   2.230   2.509
 3434SOL    HW110320   3.661   2.273   2.548
 3434SOL    HW210321   3.715   2.157   2.446
 3435SOL     OW10322   4.293   3.137   3.027
 3435SOL    HW110323   4.200   3.130   2.990
 3435SOL    HW210324   4.304   3.226   3.071
 3436SOL     OW10325   4.492   3.006   2.885
 3436SOL    HW110326   4.414   3.023   2.945
 3436SOL    HW210327   4.526   3.093   2.849
 3437SOL     OW10328   4.574   2.660   3.685
 3437SOL    HW110329   4.570   2.736   3.750
 3437SOL    HW210330   4.596   2.696   3.594
 3438SOL     OW10331   4.409   2.874   2.527
 3438SOL    HW110332   4.478   2.858   2.597
 3438SOL    HW210333   4.336   2.931   2.565
 3439SOL     OW10334   4.410   3.023   3.665
 3439SOL    HW110335   4.470   3.102   3.679
 3439SOL    HW210336   4.324   3.054   3.624
 3440SOL     OW10337   4.059   3.297   2.923
 3440SOL    HW110338   3.981   3.266   2.870
 3440SOL    HW210339   4.117   3.355   2.866
 3441SOL     OW10340   4.162   2.254   3.361
 3441SOL    HW110341   4.244   2.198   3.370
 3441SOL    HW210342   4.081   2.196   3.365
 3442SOL     OW10343   3.955   3.575   2.345
 3442SOL    HW110344   3.989   3.652   2.399
 3442SOL    HW210345   3.999   3.575   2.255
 3443SOL     OW10346   4.851   3.203   3.552
 3443SOL    HW110347   4.898   3.203   3.640
 3443SOL    HW210348   4.803   3.116   3.541
 3444SOL     OW10349   3.954   3.296   2.400
 3444SOL    HW110350   3.928   3.392   2.400
 3444SOL    HW210351   3.883   3.242   2.445
 3445SOL     OW10352   3.964   2.953   2.748
 3445SOL    HW110353   3.978   2.869   2.800
 3445SOL    HW210354   3.909   3.017   2.803
 3446SOL     OW10355   4.344   3.648   3.301
 3446SOL    HW110356   4.252   3.631   3.336
 3446SOL    HW210357   4.372   3.740   3.327
 3447SOL     OW10358   4.330   2.826   1.985
 3447SOL    HW110359   4.337   2.910   1.931
 3447SOL    HW210360   4.376   2.839   2.073
 3448SOL     OW10361   3.846   2.505   2.425
 3448SOL    HW110362   3.801   2.417   2.442
 3448SOL    HW210363   3.845   2.559   2.509
 3449SOL     OW10364   3.751   3.458   1.979
 3449SOL    HW110365   3.732   3.362   2.000
 3449SOL    HW210366   3.718   3.516   2.054
 3450SOL     OW10367   3.837   2.599   3.459
 3450SOL    HW110368   3.925   2.586   3.504
 3450SOL    HW210369   3.824   2.696   3.437
 3451SOL     OW10370   4.337   3.227   2.588
 3451SOL    HW110371   4.288   3.140   2.597
 3451SOL    HW210372   4.314   3.270   2.501
 3452SOL     OW10373   4.533   1.866   2.364
 3452SOL    HW110374   4.573   1.957   2.355
 3452SOL    HW210375   4.433   1.874   2.370
 3453SOL     OW10376   3.921   2.838   3.126
 3453SOL    HW110377   4.010   2.793   3.112
 3453SOL    HW210378   3.848   2.773   3.107
 3454SOL     OW10379   4.041   2.113   3.663
 3454SOL    HW110380   4.112   2.184   3.669
 3454SOL    HW210381   3.953   2.152   3.691
 3455SOL     OW10382   4.322   2.591   2.132
 3455SOL    HW110383   4.346   2.660   2.064
 3455SOL    HW210384   4.244   2.624   2.186
 3456SOL     OW10385   4.531   2.467   3.327
 3456SOL    HW110386   4.484   2.464   3.416
 3456SOL    HW210387   4.480   2.412   3.261
 3457SOL     OW10388   4.697   2.752   3.434
 3457SOL    HW110389   4.743   2.668   3.405
 3457SOL    HW210390   4.641   2.786   3.359
 3458SOL     OW10391   4.715   2.272   3.104
 3458SOL    HW110392   4.638   2.306   3.158
 3458SOL    HW210393   4.681   2.221   3.025
 3459SOL     OW10394   4.765   2.563   2.291
 3459SOL    HW110395   4.791   2.559   2.387
 3459SOL    HW210396   4.680   2.512   2.277
 3460SOL     OW10397   3.800   2.673   2.651
 3460SOL    HW110398   3.899   2.661   2.660
 3460SOL    HW210399   3.776   2.768   2.672
 3461SOL     OW10400   3.854   3.683   3.433
 3461SOL    HW110401   3.844   3.668   3.532
 3461SOL    HW210402   3.768   3.719   3.397
 3462SOL     OW10403   4.589   2.210   2.057
 3462SOL    HW110404   4.648   2.273   2.008
 3462SOL    HW210405   4.608   2.116   2.028
 3463SOL     OW10406   4.274   2.058   2.747
 3463SOL    HW110407   4.269   2.053   2.847
 3463SOL    HW210408   4.276   2.154   2.718
 3464SOL     OW10409   4.732   3.318   2.339
 3464SOL    HW110410   4.686   3.390   2.287
 3464SOL    HW210411   4.728   3.338   2.437
 3465SOL     OW10412   4.075   3.663   2.715
 3465SOL    HW110413   4.125   3.577   2.721
 3465SOL    HW210414   4.140   3.740   2.712
 3466SOL     OW10415   4.045   2.805   2.104
 3466SOL    HW110416   4.127   2.844   2.062
 3466SOL    HW210417   4.018   2.723   2.055
 3467SOL     OW10418   4.185   3.128   3.589
 3467SOL    HW110419   4.135   3.129   3.503
 3467SOL    HW210420   4.122   3.110   3.665
 3468SOL     OW10421   3.926   2.147   3.360
 3468SOL    HW110422   3.846   2.207   3.347
 3468SOL    HW210423   3.916   2.098   3.446
 3469SOL     OW10424   4.188   3.605   2.185
 3469SOL    HW110425   4.221   3.644   2.271
 3469SOL    HW210426   4.264   3.598   2.120
 3470SOL     OW10427   3.973   3.647   3.103
 3470SOL    HW110428   4.030   3.582   3.153
 3470SOL    HW210429   3.957   3.614   3.010
 3471SOL     OW10430   4.664   3.560   2.766
 3471SOL    HW110431   4.744   3.503   2.787
 3471SOL    HW210432   4.615   3.520   2.689
 3472SOL     OW10433   4.106   2.562   2.342
 3472SOL    HW110434   4.151   2.472   2.339
 3472SOL    HW210435   4.012   2.551   2.375
 3473SOL     OW10436   4.338   1.984   1.979
 3473SOL    HW110437   4.436   1.962   1.986
 3473SOL    HW210438   4.307   1.967   1.886
 3474SOL     OW10439   4.505   2.126   3.611
 3474SOL    HW110440   4.572   2.065   3.654
 3474SOL    HW210441   4.432   2.145   3.676
 3475SOL     OW10442   4.612   3.376   3.057
 3475SOL    HW110443   4.589   3.351   2.963
 3475SOL    HW210444   4.673   3.307   3.096
 3476SOL     OW10445   4.527   3.264   2.786
 3476SOL    HW110446   4.617   3.278   2.744
 3476SOL    HW210447   4.456   3.266   2.715
 3477SOL     OW10448   4.646   2.365   2.761
 3477SOL    HW110449   4.621   2.356   2.665
 3477SOL    HW210450   4.694   2.283   2.792
 3478SOL     OW10451   4.263   1.926   2.374
 3478SOL    HW110452   4.182   1.927   2.432
 3478SOL    HW210453   4.266   2.009   2.319
 3479SOL     OW10454   4.021   1.897   2.033
 3479SOL    HW110455   4.070   1.981   2.012
 3479SOL    HW210456   4.083   1.832   2.078
 3480SOL     OW10457   4.659   2.098   2.342
 3480SOL    HW110458   4.611   2.139   2.264
 3480SOL    HW210459   4.758   2.096   2.323
 3481SOL     OW10460   4.951   3.432   2.655
 3481SOL    HW110461   4.972   3.506   2.590
 3481SOL    HW210462   5.019   3.432   2.728
 3482SOL     OW10463   4.183   3.014   2.603
 3482SOL    HW110464   4.112   2.987   2.668
 3482SOL    HW210465   4.157   2.986   2.510
 3483SOL     OW10466   4.995   3.659   2.453
 3483SOL    HW110467   5.039   3.723   2.389
 3483SOL    HW210468   4.945   3.711   2.523
 3484SOL     OW10469   4.756   2.411   1.878
 3484SOL    HW110470   4.715   2.493   1.839
 3484SOL    HW210471   4.820   2.437   1.951
 3485SOL     OW10472   3.802   2.418   3.248
 3485SOL    HW110473   3.894   2.417   3.207
 3485SOL    HW210474   3.796   2.492   3.315
 3486SOL     OW10475   4.285   2.084   3.009
 3486SOL    HW110476   4.323   2.000   3.046
 3486SOL    HW210477   4.197   2.103   3.053
 3487SOL     OW10478   4.590   2.316   2.504
 3487SOL    HW110479   4.558   2.388   2.442
 3487SOL    HW210480   4.614   2.235   2.451
 3488SOL     OW10481   4.741   1.901   2.615
 3488SOL    HW110482   4.669   1.906   2.546
 3488SOL    HW210483   4.717   1.832   2.684
 3489SOL     OW10484   4.212   3.247   2.036
 3489SOL    HW110485   4.125   3.232   2.083
 3489SOL    HW210486   4.195   3.273   1.941
 3490SOL     OW10487   4.251   2.118   2.190
 3490SOL    HW110488   4.278   2.059   2.115
 3490SOL    HW210489   4.251   2.213   2.159
 3491SOL     OW10490   4.639   1.951   3.264
 3491SOL    HW110491   4.664   1.931   3.169
 3491SOL    HW210492   4.711   2.007   3.306
 3492SOL     OW10493   4.704   2.978   3.581
 3492SOL    HW110494   4.605   2.984   3.591
 3492SOL    HW210495   4.727   2.898   3.525
 3493SOL     OW10496   4.429   2.912   2.230
 3493SOL    HW110497   4.415   2.919   2.329
 3493SOL    HW210498   4.513   2.861   2.212
 3494SOL     OW10499   4.134   2.675   3.113
 3494SOL    HW110500   4.220   2.687   3.163
 3494SOL    HW210501   4.092   2.588   3.140
 3495SOL     OW10502   3.788   3.426   3.193
 3495SOL    HW110503   3.742   3.508   3.159
 3495SOL    HW210504   3.886   3.445   3.202
 3496SOL     OW10505   4.091   2.962   2.363
 3496SOL    HW110506   4.084   3.045   2.307
 3496SOL    HW210507   4.095   2.882   2.303
 3497SOL     OW10508   4.290   2.399   2.727
 3497SOL    HW110509   4.302   2.465   2.653
 3497SOL    HW210510   4.336   2.433   2.810
 3498SOL     OW10511   4.976   3.210   2.250
 3498SOL    HW110512   5.026   3.287   2.290
 3498SOL    HW210513   4.881   3.212   2.282
 3499SOL     OW10514   4.078   3.372   3.191
 3499SOL    HW110515   4.057   3.328   3.104
 3499SOL    HW210516   4.175   3.398   3.194
 3500SOL     OW10517   4.126   2.613   3.460
 3500SOL    HW110518   4.194   2.668   3.413
 3500SOL    HW210519   4.166   2.525   3.487
 3501SOL     OW10520   4.737   1.967   3.632
 3501SOL    HW110521   4.743   2.052   3.580
 3501SOL    HW210522   4.769   1.891   3.575
 3502SOL     OW10523   4.228   1.912   3.602
 3502SOL    HW110524   4.186   1.855   3.532
 3502SOL    HW210525   4.162   1.981   3.634
 3503SOL     OW10526   4.297   2.732   2.891
 3503SOL    HW110527   4.341   2.821   2.882
 3503SOL    HW210528   4.234   2.732   2.968
 3504SOL     OW10529   4.933   2.387   2.137
 3504SOL    HW110530   4.946   2.303   2.191
 3504SOL    HW210531   4.904   2.461   2.197
 3505SOL     OW10532   4.031   2.075   3.093
 3505SOL    HW110533   4.008   2.112   3.183
 3505SOL    HW210534   4.001   1.980   3.087
 3506SOL     OW10535   3.761   3.172   3.144
 3506SOL    HW110536   3.814   3.123   3.212
 3506SOL    HW210537   3.783   3.270   3.149
 3507SOL     OW10538   4.456   2.496   2.926
 3507SOL    HW110539   4.515   2.470   2.850
 3507SOL    HW210540   4.428   2.592   2.915
 3508SOL     OW10541   4.031   1.925   2.480
 3508SOL    HW110542   4.020   2.019   2.513
 3508SOL    HW210543   4.026   1.862   2.557
 3509SOL     OW10544   4.747   2.628   2.828
 3509SOL    HW110545   4.762   2.649   2.924
 3509SOL    HW210546   4.717   2.533   2.819
 3510SOL     OW10547   4.704   3.435   3.562
 3510SOL    HW110548   4.684   3.479   3.474
 3510SOL    HW210549   4.743   3.344   3.546
 3511SOL     OW10550   4.074   2.760   3.666
 3511SOL    HW110551   4.150   2.804   3.714
 3511SOL    HW210552   4.109   2.713   3.584
 3512SOL     OW10553   5.027   2.700   1.904
 3512SOL    HW110554   5.061   2.607   1.919
 3512SOL    HW210555   5.045   2.727   1.809
 3513SOL     OW10556   4.792   3.195   2.711
 3513SOL    HW110557   4.799   3.111   2.656
 3513SOL    HW210558   4.854   3.264   2.675
 3514SOL     OW10559   4.043   2.672   2.811
 3514SOL    HW110560   4.136   2.708   2.816
 3514SOL    HW210561   4.037   2.587   2.863
 3515SOL     OW10562   4.063   2.371   2.868
 3515SOL    HW110563   4.011   2.288   2.851
 3515SOL    HW210564   4.140   2.376   2.804
 3516SOL     OW10565   4.862   2.242   3.540
 3516SOL    HW110566   4.817   2.305   3.604
 3516SOL    HW210567   4.955   2.273   3.523
 3517SOL     OW10568   4.884   2.069   3.339
 3517SOL    HW110569   4.884   2.133   3.416
 3517SOL    HW210570   4.912   2.117   3.256
 3518SOL     OW10571   3.732   3.188   2.062
 3518SOL    HW110572   3.639   3.209   2.031
 3518SOL    HW210573   3.742   3.089   2.075
 3519SOL     OW10574   3.812   3.663   2.789
 3519SOL    HW110575   3.770   3.577   2.762
 3519SOL    HW210576   3.906   3.666   2.755
 3520SOL     OW10577   4.228   3.430   2.772
 3520SOL    HW110578   4.294   3.504   2.781
 3520SOL    HW210579   4.272   3.351   2.730
 3521SOL     OW10580   4.726   2.658   3.100
 3521SOL    HW110581   4.767   2.626   3.186
 3521SOL    HW210582   4.630   2.631   3.097
 3522SOL     OW10583   3.764   2.406   2.976
 3522SOL    HW110584   3.849   2.373   2.935
 3522SOL    HW210585   3.777   2.421   3.074
 3523SOL     OW10586   3.913   2.382   3.584
 3523SOL    HW110587   3.972   2.342   3.514
 3523SOL    HW210588   3.855   2.453   3.543
 3524SOL     OW10589   4.539   2.434   2.187
 3524SOL    HW110590   4.546   2.345   2.141
 3524SOL    HW210591   4.445   2.468   2.179
 3525SOL     OW10592   3.976   3.426   3.606
 3525SOL    HW110593   3.946   3.483   3.682
 3525SOL    HW210594   3.969   3.329   3.632
 3526SOL     OW10595   4.395   2.326   3.131
 3526SOL    HW110596   4.361   2.237   3.101
 3526SOL    HW210597   4.421   2.380   3.051
 3527SOL     OW10598   4.654   3.540   3.327
 3527SOL    HW110599   4.630   3.522   3.232
 3527SOL    HW210600   4.684   3.634   3.337
 3528SOL     OW10601   4.197   2.362   2.053
 3528SOL    HW110602   4.258   2.442   2.057
 3528SOL    HW210603   4.102   2.393   2.060
 3529SOL     OW10604   3.883   2.999   3.328
 3529SOL    HW110605   3.905   2.938   3.404
 3529SOL    HW210606   3.893   2.950   3.242
 3530SOL     OW10607   5.026   2.717   2.171
 3530SOL    HW110608   4.940   2.686   2.213
 3530SOL    HW210609   5.022   2.703   2.072
 3531SOL     OW10610   3.807   3.120   2.884
 3531SOL    HW110611   3.802   3.119   2.984
 3531SOL    HW210612   3.724   3.079   2.846
 3532SOL     OW10613   4.412   3.524   3.578
 3532SOL    HW110614   4.356   3.605   3.587
 3532SOL    HW210615   4.464   3.528   3.492
 3533SOL     OW10616   3.854   3.656   3.713
 3533SOL    HW110617   3.813   3.582   3.766
 3533SOL    HW210618   3.918   3.707   3.771
 3534SOL     OW10619   4.554   3.135   3.284
 3534SOL    HW110620   4.549   3.168   3.379
 3534SOL    HW210621   4.468   3.154   3.238
 3535SOL     OW10622   4.396   3.478   2.016
 3535SOL    HW110623   4.405   3.488   1.917
 3535SOL    HW210624   4.356   3.389   2.037
 3536SOL     OW10625   3.987   2.188   2.582
 3536SOL    HW110626   3.908   2.239   2.548
 3536SOL    HW210627   3.978   2.173   2.680
 3537SOL     OW10628   4.546   2.864   3.234
 3537SOL    HW110629   4.586   2.863   3.142
 3537SOL    HW210630   4.556   2.956   3.274
 3538SOL     OW10631   4.640   2.772   2.153
 3538SOL    HW110632   4.703   2.810   2.085
 3538SOL    HW210633   4.680   2.689   2.192
 3539SOL     OW10634   4.096   3.150   3.352
 3539SOL    HW110635   4.083   3.243   3.318
 3539SOL    HW210636   4.012   3.098   3.339
 3540SOL     OW10637   4.763   2.960   2.558
 3540SOL    HW110638   4.693   2.913   2.612
 3540SOL    HW210639   4.822   2.892   2.515
 3541SOL     OW10640   4.738   2.098   2.833
 3541SOL    HW110641   4.730   2.062   2.740
 3541SOL    HW210642   4.736   2.022   2.898
 3542SOL     OW10643   4.314   3.349   2.353
 3542SOL    HW110644   4.356   3.291   2.283
 3542SOL    HW210645   4.270   3.428   2.309
 3543SOL     OW10646   3.979   3.210   2.152
 3543SOL    HW110647   3.883   3.211   2.125
 3543SOL    HW210648   3.991   3.263   2.236
 3544SOL     OW10649   3.829   2.875   3.588
 3544SOL    HW110650   3.752   2.842   3.642
 3544SOL    HW210651   3.914   2.845   3.630
 3545SOL     OW10652   4.396   2.065   3.351
 3545SOL    HW110653   4.486   2.049   3.311
 3545SOL    HW210654   4.404   2.070   3.450
 3546SOL     OW10655   3.799   2.207   1.895
 3546SOL    HW110656   3.707   2.179   1.866
 3546SOL    HW210657   3.830   2.284   1.839
 3547SOL     OW10658   3.796   2.028   2.180
 3547SOL    HW110659   3.779   2.111   2.126
 3547SOL    HW210660   3.886   1.991   2.158
 3548SOL     OW10661   4.337   2.704   3.293
 3548SOL    HW110662   4.393   2.785   3.276
 3548SOL    HW210663   4.396   2.624   3.296
 3549SOL     OW10664   4.440   2.427   3.570
 3549SOL    HW110665   4.459   2.492   3.644
 3549SOL    HW210666   4.500   2.347   3.579
 3550SOL     OW10667   4.114   3.603   3.422
 3550SOL    HW110668   4.023   3.644   3.420
 3550SOL    HW210669   4.107   3.509   3.454
 3551SOL     OW10670   4.318   2.607   2.514
 3551SOL    HW110671   4.368   2.692   2.495
 3551SOL    HW210672   4.230   2.609   2.466
 3552SOL     OW10673   4.583   3.236   1.878
 3552SOL    HW110674   4.537   3.251   1.966
 3552SOL    HW210675   4.627   3.321   1.848
 3553SOL     OW10676   4.385   3.652   2.815
 3553SOL    HW110677   4.339   3.740   2.802
 3553SOL    HW210678   4.484   3.664   2.808
 3554SOL     OW10679   4.583   2.818   2.723
 3554SOL    HW110680   4.637   2.749   2.771
 3554SOL    HW210681   4.551   2.887   2.789
 3555SOL     OW10682   4.807   2.846   1.949
 3555SOL    HW110683   4.784   2.899   1.867
 3555SOL    HW210684   4.888   2.790   1.930
 3556SOL     OW10685   3.945   3.176   3.706
 3556SOL    HW110686   3.880   3.103   3.685
 3556SOL    HW210687   3.949   3.190   3.804
 3557SOL     OW10688   3.803   3.102   2.515
 3557SOL    HW110689   3.802   3.055   2.603
 3557SOL    HW210690   3.885   3.074   2.464
 3558SOL     OW10691   4.396   3.253   3.486
 3558SOL    HW110692   4.318   3.203   3.524
 3558SOL    HW210693   4.393   3.348   3.517
 3559SOL     OW10694   4.152   2.286   2.382
 3559SOL    HW110695   4.182   2.214   2.320
 3559SOL    HW210696   4.113   2.246   2.465
 3560SOL     OW10697   4.041   2.409   3.142
 3560SOL    HW110698   4.079   2.350   3.214
 3560SOL    HW210699   4.081   2.383   3.054
 3561SOL     OW10700   4.536   3.448   2.549
 3561SOL    HW110701   4.568   3.458   2.455
 3561SOL    HW210702   4.457   3.386   2.551
 3562SOL     OW10703   4.725   1.896   3.016
 3562SOL    HW110704   4.662   1.824   2.985
 3562SOL    HW210705   4.818   1.860   3.016
 3563SOL     OW10706   4.494   3.192   2.163
 3563SOL    HW110707   4.448   3.105   2.180
 3563SOL    HW210708   4.585   3.189   2.204
 3564SOL     OW10709   4.342   3.429   3.146
 3564SOL    HW110710   4.337   3.511   3.203
 3564SOL    HW210711   4.431   3.426   3.101
 3565SOL     OW10712   3.763   2.939   2.162
 3565SOL    HW110713   3.862   2.928   2.153
 3565SOL    HW210714   3.723   2.853   2.194
 3566SOL     OW10715   4.599   3.508   2.199
 3566SOL    HW110716   4.522   3.473   2.145
 3566SOL    HW210717   4.567   3.579   2.261
 3567SOL     OW10718   3.954   2.490   3.837
 3567SOL    HW110719   3.861   2.488   3.874
 3567SOL    HW210720   3.955   2.451   3.745
 3568SOL     OW10721   3.949   2.137   4.720
 3568SOL    HW110722   3.984   2.120   4.812
 3568SOL    HW210723   3.861   2.092   4.708
 3569SOL     OW10724   3.743   2.230   4.371
 3569SOL    HW110725   3.661   2.273   4.410
 3569SOL    HW210726   3.715   2.157   4.308
 3570SOL     OW10727   4.492   3.006   4.747
 3570SOL    HW110728   4.414   3.023   4.807
 3570SOL    HW210729   4.526   3.093   4.711
 3571SOL     OW10730   4.409   2.874   4.389
 3571SOL    HW110731   4.478   2.858   4.459
 3571SOL    HW210732   4.336   2.931   4.427
 3572SOL     OW10733   4.059   3.297   4.785
 3572SOL    HW110734   3.981   3.266   4.732
 3572SOL    HW210735   4.117   3.355   4.728
 3573SOL     OW10736   3.955   3.575   4.207
 3573SOL    HW110737   3.989   3.652   4.261
 3573SOL    HW210738   3.999   3.575   4.117
 3574SOL     OW10739   3.954   3.296   4.262
 3574SOL    HW110740   3.928   3.392   4.262
 3574SOL    HW210741   3.883   3.242   4.307
 3575SOL     OW10742   3.964   2.953   4.610
 3575SOL    HW110743   3.978   2.869   4.662
 3575SOL    HW210744   3.909   3.017   4.665
 3576SOL     OW10745   4.330   2.826   3.847
 3576SOL    HW110746   4.337   2.910   3.793
 3576SOL    HW210747   4.376   2.839   3.935
 3577SOL     OW10748   3.846   2.505   4.287
 3577SOL    HW110749   3.801   2.417   4.304
 3577SOL    HW210750   3.845   2.559   4.371
 3578SOL     OW10751   3.751   3.458   3.841
 3578SOL    HW110752   3.732   3.362   3.862
 3578SOL    HW210753   3.718   3.516   3.916
 3579SOL     OW10754   4.337   3.227   4.450
 3579SOL    HW110755   4.288   3.140   4.459
 3579SOL    HW210756   4.314   3.270   4.363
 3580SOL     OW10757   4.533   1.866   4.226
 3580SOL    HW110758   4.573   1.957   4.217
 3580SOL    HW210759   4.433   1.874   4.232
 3581SOL     OW10760   3.921   2.838   4.988
 3581SOL    HW110761   4.010   2.793   4.974
 3581SOL    HW210762   3.848   2.773   4.969
 3582SOL     OW10763   4.322   2.591   3.994
 3582SOL    HW110764   4.346   2.660   3.926
 3582SOL    HW210765   4.244   2.624   4.048
 3583SOL     OW10766   4.765   2.563   4.153
 3583SOL    HW110767   4.791   2.559   4.249
 3583SOL    HW210768   4.680   2.512   4.139
 3584SOL     OW10769   3.800   2.673   4.513
 3584SOL    HW110770   3.899   2.661   4.522
 3584SOL    HW210771   3.776   2.768   4.534
 3585SOL     OW10772   4.589   2.210   3.919
 3585SOL    HW110773   4.648   2.273   3.870
 3585SOL    HW210774   4.608   2.116   3.890
 3586SOL     OW10775   4.274   2.058   4.609
 3586SOL    HW110776   4.269   2.053   4.709
 3586SOL    HW210777   4.276   2.154   4.580
 3587SOL     OW10778   4.732   3.318   4.201
 3587SOL    HW110779   4.686   3.390   4.149
 3587SOL    HW210780   4.728   3.338   4.299
 3588SOL     OW10781   4.075   3.663   4.577
 3588SOL    HW110782   4.125   3.577   4.583
 3588SOL    HW210783   4.140   3.740   4.574
 3589SOL     OW10784   4.045   2.805   3.966
 3589SOL    HW110785   4.127   2.844   3.924
 3589SOL    HW210786   4.018   2.723   3.917
 3590SOL     OW10787   4.188   3.605   4.047
 3590SOL    HW110788   4.221   3.644   4.133
 3590SOL    HW210789   4.264   3.598   3.982
 3591SOL     OW10790   3.973   3.647   4.965
 3591SOL    HW110791   4.030   3.582   5.015
 3591SOL    HW210792   3.957   3.614   4.872
 3592SOL     OW10793   4.664   3.560   4.628
 3592SOL    HW110794   4.744   3.503   4.649
 3592SOL    HW210795   4.615   3.520   4.551
 3593SOL     OW10796   4.106   2.562   4.204
 3593SOL    HW110797   4.151   2.472   4.201
 3593SOL    HW210798   4.012   2.551   4.237
 3594SOL     OW10799   4.338   1.984   3.841
 3594SOL    HW110800   4.436   1.962   3.848
 3594SOL    HW210801   4.307   1.967   3.748
 3595SOL     OW10802   4.527   3.264   4.648
 3595SOL    HW110803   4.617   3.278   4.606
 3595SOL    HW210804   4.456   3.266   4.577
 3596SOL     OW10805   4.646   2.365   4.623
 3596SOL    HW110806   4.621   2.356   4.527
 3596SOL    HW210807   4.694   2.283   4.654
 3597SOL     OW10808   4.263   1.926   4.236
 3597SOL    HW110809   4.182   1.927   4.294
 3597SOL    HW210810   4.266   2.009   4.181
 3598SOL     OW10811   4.021   1.897   3.895
 3598SOL    HW110812   4.070   1.981   3.874
 3598SOL    HW210813   4.083   1.832   3.940
 3599SOL     OW10814   4.659   2.098   4.204
 3599SOL    HW110815   4.611   2.139   4.126
 3599SOL    HW210816   4.758   2.096   4.185
 3600SOL     OW10817   4.951   3.432   4.517
 3600SOL    HW110818   4.972   3.506   4.452
 3600SOL    HW210819   5.019   3.432   4.590
 3601SOL     OW10820   4.183   3.014   4.465
 3601SOL    HW110821   4.112   2.987   4.530
 3601SOL    HW210822   4.157   2.986   4.372
 3602SOL     OW10823   4.995   3.659   4.315
 3602SOL    HW110824   5.039   3.723   4.251
 3602SOL    HW210825   4.945   3.711   4.385
 3603SOL     OW10826   4.756   2.411   3.740
 3603SOL    HW110827   4.715   2.493   3.701
 3603SOL    HW210828   4.820   2.437   3.813
 3604SOL     OW10829   4.590   2.316   4.366
 3604SOL    HW110830   4.558   2.388   4.304
 3604SOL    HW210831   4.614   2.235   4.313
 3605SOL     OW10832   4.741   1.901   4.477
 3605SOL    HW110833   4.669   1.906   4.408
 3605SOL    HW210834   4.717   1.832   4.546
 3606SOL     OW10835   4.212   3.247   3.898
 3606SOL    HW110836   4.125   3.232   3.945
 3606SOL    HW210837   4.195   3.273   3.803
 3607SOL     OW10838   4.251   2.118   4.052
 3607SOL    HW110839   4.278   2.059   3.977
 3607SOL    HW210840   4.251   2.213   4.021
 3608SOL     OW10841   4.429   2.912   4.092
 3608SOL    HW110842   4.415   2.919   4.191
 3608SOL    HW210843   4.513   2.861   4.074
 3609SOL     OW10844   4.134   2.675   4.975
 3609SOL    HW110845   4.220   2.687   5.025
 3609SOL    HW210846   4.092   2.588   5.002
 3610SOL     OW10847   4.091   2.962   4.225
 3610SOL    HW110848   4.084   3.045   4.169
 3610SOL    HW210849   4.095   2.882   4.165
 3611SOL     OW10850   4.290   2.399   4.589
 3611SOL    HW110851   4.302   2.465   4.515
 3611SOL    HW210852   4.336   2.433   4.672
 3612SOL     OW10853   4.976   3.210   4.112
 3612SOL    HW110854   5.026   3.287   4.152
 3612SOL    HW210855   4.881   3.212   4.144
 3613SOL     OW10856   4.078   3.372   5.053
 3613SOL    HW110857   4.057   3.328   4.966
 3613SOL    HW210858   4.175   3.398   5.056
 3614SOL     OW10859   4.297   2.732   4.753
 3614SOL    HW110860   4.341   2.821   4.744
 3614SOL    HW210861   4.234   2.732   4.830
 3615SOL     OW10862   4.933   2.387   3.999
 3615SOL    HW110863   4.946   2.303   4.053
 3615SOL    HW210864   4.904   2.461   4.059
 3616SOL     OW10865   4.456   2.496   4.788
 3616SOL    HW110866   4.515   2.470   4.712
 3616SOL    HW210867   4.428   2.592   4.777
 3617SOL     OW10868   4.031   1.925   4.342
 3617SOL    HW110869   4.020   2.019   4.375
 3617SOL    HW210870   4.026   1.862   4.419
 3618SOL     OW10871   4.747   2.628   4.690
 3618SOL    HW110872   4.762   2.649   4.786
 3618SOL    HW210873   4.717   2.533   4.681
 3619SOL     OW10874   5.027   2.700   3.766
 3619SOL    HW110875   5.061   2.607   3.781
 3619SOL    HW210876   5.045   2.727   3.671
 3620SOL     OW10877   4.792   3.195   4.573
 3620SOL    HW110878   4.799   3.111   4.518
 3620SOL    HW210879   4.854   3.264   4.537
 3621SOL     OW10880   4.043   2.672   4.673
 3621SOL    HW110881   4.136   2.708   4.678
 3621SOL    HW210882   4.037   2.587   4.725
 3622SOL     OW10883   4.063   2.371   4.730
 3622SOL    HW110884   4.011   2.288   4.713
 3622SOL    HW210885   4.140   2.376   4.666
 3623SOL     OW10886   3.732   3.188   3.924
 3623SOL    HW110887   3.639   3.209   3.893
 3623SOL    HW210888   3.742   3.089   3.937
 3624SOL     OW10889   3.812   3.663   4.651
 3624SOL    HW110890   3.770   3.577   4.624
 3624SOL    HW210891   3.906   3.666   4.617
 3625SOL     OW10892   4.228   3.430   4.634
 3625SOL    HW110893   4.294   3.504   4.643
 3625SOL    HW210894   4.272   3.351   4.592
 3626SOL     OW10895   4.726   2.658   4.962
 3626SOL    HW110896   4.767   2.626   5.048
 3626SOL    HW210897   4.630   2.631   4.959
 3627SOL     OW10898   3.764   2.406   4.838
 3627SOL    HW110899   3.849   2.373   4.797
 3627SOL    HW210900   3.777   2.421   4.936
 3628SOL     OW10901   4.539   2.434   4.049
 3628SOL    HW110902   4.546   2.345   4.003
 3628SOL    HW210903   4.445   2.468   4.041
 3629SOL     OW10904   4.395   2.326   4.993
 3629SOL    HW110905   4.361   2.237   4.963
 3629SOL    HW210906   4.421   2.380   4.913
 3630SOL     OW10907   4.197   2.362   3.915
 3630SOL    HW110908   4.258   2.442   3.919
 3630SOL    HW210909   4.102   2.393   3.922
 3631SOL     OW10910   5.026   2.717   4.033
 3631SOL    HW110911   4.940   2.686   4.075
 3631SOL    HW210912   5.022   2.703   3.934
 3632SOL     OW10913   3.807   3.120   4.746
 3632SOL    HW110914   3.802   3.119   4.846
 3632SOL    HW210915   3.724   3.079   4.708
 3633SOL     OW10916   4.396   3.478   3.878
 3633SOL    HW110917   4.405   3.488   3.779
 3633SOL    HW210918   4.356   3.389   3.899
 3634SOL     OW10919   3.987   2.188   4.444
 3634SOL    HW110920   3.908   2.239   4.410
 3634SOL    HW210921   3.978   2.173   4.542
 3635SOL     OW10922   4.546   2.864   5.096
 3635SOL    HW110923   4.586   2.863   5.004
 3635SOL    HW210924   4.556   2.956   5.136
 3636SOL     OW10925   4.640   2.772   4.015
 3636SOL    HW110926   4.703   2.810   3.947
 3636SOL    HW210927   4.680   2.689   4.054
 3637SOL     OW10928   4.763   2.960   4.420
 3637SOL    HW110929   4.693   2.913   4.474
 3637SOL    HW210930   4.822   2.892   4.377
 3638SOL     OW10931   4.738   2.098   4.695
 3638SOL    HW110932   4.730   2.062   4.602
 3638SOL    HW210933   4.736   2.022   4.760
 3639SOL     OW10934   4.314   3.349   4.215
 3639SOL    HW110935   4.356   3.291   4.145
 3639SOL    HW210936   4.270   3.428   4.171
 3640SOL     OW10937   3.979   3.210   4.014
 3640SOL    HW110938   3.883   3.211   3.987
 3640SOL    HW210939   3.991   3.263   4.098
 3641SOL     OW10940   3.799   2.207   3.757
 3641SOL    HW110941   3.707   2.179   3.728
 3641SOL    HW210942   3.830   2.284   3.701
 3642SOL     OW10943   3.796   2.028   4.042
 3642SOL    HW110944   3.779   2.111   3.988
 3642SOL    HW210945   3.886   1.991   4.020
 3643SOL     OW10946   4.318   2.607   4.376
 3643SOL    HW110947   4.368   2.692   4.357
 3643SOL    HW210948   4.230   2.609   4.328
 3644SOL     OW10949   4.583   3.236   3.740
 3644SOL    HW110950   4.537   3.251   3.828
 3644SOL    HW210951   4.627   3.321   3.710
 3645SOL     OW10952   4.385   3.652   4.677
 3645SOL    HW110953   4.339   3.740   4.664
 3645SOL    HW210954   4.484   3.664   4.670
 3646SOL     OW10955   4.583   2.818   4.585
 3646SOL    HW110956   4.637   2.749   4.633
 3646SOL    HW210957   4.551   2.887   4.651
 3647SOL     OW10958   4.807   2.846   3.811
 3647SOL    HW110959   4.784   2.899   3.729
 3647SOL    HW210960   4.888   2.790   3.792
 3648SOL     OW10961   3.803   3.102   4.377
 3648SOL    HW110962   3.802   3.055   4.465
 3648SOL    HW210963   3.885   3.074   4.326
 3649SOL     OW10964   4.152   2.286   4.244
 3649SOL    HW110965   4.182   2.214   4.182
 3649SOL    HW210966   4.113   2.246   4.327
 3650SOL     OW10967   4.536   3.448   4.411
 3650SOL    HW110968   4.568   3.458   4.317
 3650SOL    HW210969   4.457   3.386   4.413
 3651SOL     OW10970   4.494   3.192   4.025
 3651SOL    HW110971   4.448   3.105   4.042
 3651SOL    HW210972   4.585   3.189   4.066
 3652SOL     OW10973   3.763   2.939   4.024
 3652SOL    HW110974   3.862   2.928   4.015
 3652SOL    HW210975   3.723   2.853   4.056
 3653SOL     OW10976   4.599   3.508   4.061
 3653SOL    HW110977   4.522   3.473   4.007
 3653SOL    HW210978   4.567   3.579   4.123
 3654SOL     OW10979   3.954   4.352   0.113
 3654SOL    HW110980   3.861   4.350   0.150
 3654SOL    HW210981   3.955   4.313   0.021
 3655SOL     OW10982   3.949   3.999   0.996
 3655SOL    HW110983   3.984   3.982   1.088
 3655SOL    HW210984   3.861   3.954   0.984
 3656SOL     OW10985   3.743   4.092   0.647
 3656SOL    HW110986   3.661   4.135   0.686
 3656SOL    HW210987   3.715   4.019   0.584
 3657SOL     OW10988   4.492   4.868   1.023
 3657SOL    HW110989   4.414   4.885   1.083
 3657SOL    HW210990   4.526   4.955   0.987
 3658SOL     OW10991   4.574   4.522   1.823
 3658SOL    HW110992   4.570   4.598   1.888
 3658SOL    HW210993   4.596   4.558   1.732
 3659SOL     OW10994   4.409   4.736   0.665
 3659SOL    HW110995   4.478   4.720   0.735
 3659SOL    HW210996   4.336   4.793   0.703
 3660SOL     OW10997   4.162   4.116   1.499
 3660SOL    HW110998   4.244   4.060   1.508
 3660SOL    HW210999   4.081   4.058   1.503
 3661SOL     OW11000   3.964   4.815   0.886
 3661SOL    HW111001   3.978   4.731   0.938
 3661SOL    HW211002   3.909   4.879   0.941
 3662SOL     OW11003   4.330   4.688   0.123
 3662SOL    HW111004   4.337   4.772   0.069
 3662SOL    HW211005   4.376   4.701   0.211
 3663SOL     OW11006   3.846   4.367   0.563
 3663SOL    HW111007   3.801   4.279   0.580
 3663SOL    HW211008   3.845   4.421   0.647
 3664SOL     OW11009   3.837   4.461   1.597
 3664SOL    HW111010   3.925   4.448   1.642
 3664SOL    HW211011   3.824   4.558   1.575
 3665SOL     OW11012   4.533   3.728   0.502
 3665SOL    HW111013   4.573   3.819   0.493
 3665SOL    HW211014   4.433   3.736   0.508
 3666SOL     OW11015   3.921   4.700   1.264
 3666SOL    HW111016   4.010   4.655   1.250
 3666SOL    HW211017   3.848   4.635   1.245
 3667SOL     OW11018   4.041   3.975   1.801
 3667SOL    HW111019   4.112   4.046   1.807
 3667SOL    HW211020   3.953   4.014   1.829
 3668SOL     OW11021   4.322   4.453   0.270
 3668SOL    HW111022   4.346   4.522   0.202
 3668SOL    HW211023   4.244   4.486   0.324
 3669SOL     OW11024   4.531   4.329   1.465
 3669SOL    HW111025   4.484   4.326   1.554
 3669SOL    HW211026   4.480   4.274   1.399
 3670SOL     OW11027   4.697   4.614   1.572
 3670SOL    HW111028   4.743   4.530   1.543
 3670SOL    HW211029   4.641   4.648   1.497
 3671SOL     OW11030   4.715   4.134   1.242
 3671SOL    HW111031   4.638   4.168   1.296
 3671SOL    HW211032   4.681   4.083   1.163
 3672SOL     OW11033   4.765   4.425   0.429
 3672SOL    HW111034   4.791   4.421   0.525
 3672SOL    HW211035   4.680   4.374   0.415
 3673SOL     OW11036   3.800   4.535   0.789
 3673SOL    HW111037   3.899   4.523   0.798
 3673SOL    HW211038   3.776   4.630   0.810
 3674SOL     OW11039   4.589   4.072   0.195
 3674SOL    HW111040   4.648   4.135   0.146
 3674SOL    HW211041   4.608   3.978   0.166
 3675SOL     OW11042   4.274   3.920   0.885
 3675SOL    HW111043   4.269   3.915   0.985
 3675SOL    HW211044   4.276   4.016   0.856
 3676SOL     OW11045   4.045   4.667   0.242
 3676SOL    HW111046   4.127   4.706   0.200
 3676SOL    HW211047   4.018   4.585   0.193
 3677SOL     OW11048   3.926   4.009   1.498
 3677SOL    HW111049   3.846   4.069   1.485
 3677SOL    HW211050   3.916   3.960   1.584
 3678SOL     OW11051   4.106   4.424   0.480
 3678SOL    HW111052   4.151   4.334   0.477
 3678SOL    HW211053   4.012   4.413   0.513
 3679SOL     OW11054   4.338   3.846   0.117
 3679SOL    HW111055   4.436   3.824   0.124
 3679SOL    HW211056   4.307   3.829   0.024
 3680SOL     OW11057   4.505   3.988   1.749
 3680SOL    HW111058   4.572   3.927   1.792
 3680SOL    HW211059   4.432   4.007   1.814
 3681SOL     OW11060   4.646   4.227   0.899
 3681SOL    HW111061   4.621   4.218   0.803
 3681SOL    HW211062   4.694   4.145   0.930
 3682SOL     OW11063   4.263   3.788   0.512
 3682SOL    HW111064   4.182   3.789   0.570
 3682SOL    HW211065   4.266   3.871   0.457
 3683SOL     OW11066   4.021   3.759   0.171
 3683SOL    HW111067   4.070   3.843   0.150
 3683SOL    HW211068   4.083   3.694   0.216
 3684SOL     OW11069   4.659   3.960   0.480
 3684SOL    HW111070   4.611   4.001   0.402
 3684SOL    HW211071   4.758   3.958   0.461
 3685SOL     OW11072   4.183   4.876   0.741
 3685SOL    HW111073   4.112   4.849   0.806
 3685SOL    HW211074   4.157   4.848   0.648
 3686SOL     OW11075   4.756   4.273   0.016
 3686SOL    HW111076   4.715   4.355  -0.023
 3686SOL    HW211077   4.820   4.299   0.089
 3687SOL     OW11078   3.802   4.280   1.386
 3687SOL    HW111079   3.894   4.279   1.345
 3687SOL    HW211080   3.796   4.354   1.453
 3688SOL     OW11081   4.285   3.946   1.147
 3688SOL    HW111082   4.323   3.862   1.184
 3688SOL    HW211083   4.197   3.965   1.191
 3689SOL     OW11084   4.590   4.178   0.642
 3689SOL    HW111085   4.558   4.250   0.580
 3689SOL    HW211086   4.614   4.097   0.589
 3690SOL     OW11087   4.741   3.763   0.753
 3690SOL    HW111088   4.669   3.768   0.684
 3690SOL    HW211089   4.717   3.694   0.822
 3691SOL     OW11090   4.251   3.980   0.328
 3691SOL    HW111091   4.278   3.921   0.253
 3691SOL    HW211092   4.251   4.075   0.297
 3692SOL     OW11093   4.639   3.813   1.402
 3692SOL    HW111094   4.664   3.793   1.307
 3692SOL    HW211095   4.711   3.869   1.444
 3693SOL     OW11096   4.429   4.774   0.368
 3693SOL    HW111097   4.415   4.781   0.467
 3693SOL    HW211098   4.513   4.723   0.350
 3694SOL     OW11099   4.134   4.537   1.251
 3694SOL    HW111100   4.220   4.549   1.301
 3694SOL    HW211101   4.092   4.450   1.278
 3695SOL     OW11102   4.091   4.824   0.501
 3695SOL    HW111103   4.084   4.907   0.445
 3695SOL    HW211104   4.095   4.744   0.441
 3696SOL     OW11105   4.290   4.261   0.865
 3696SOL    HW111106   4.302   4.327   0.791
 3696SOL    HW211107   4.336   4.295   0.948
 3697SOL     OW11108   4.126   4.475   1.598
 3697SOL    HW111109   4.194   4.530   1.551
 3697SOL    HW211110   4.166   4.387   1.625
 3698SOL     OW11111   4.737   3.829   1.770
 3698SOL    HW111112   4.743   3.914   1.718
 3698SOL    HW211113   4.769   3.753   1.713
 3699SOL     OW11114   4.228   3.774   1.740
 3699SOL    HW111115   4.186   3.717   1.670
 3699SOL    HW211116   4.162   3.843   1.772
 3700SOL     OW11117   4.297   4.594   1.029
 3700SOL    HW111118   4.341   4.683   1.020
 3700SOL    HW211119   4.234   4.594   1.106
 3701SOL     OW11120   4.933   4.249   0.275
 3701SOL    HW111121   4.946   4.165   0.329
 3701SOL    HW211122   4.904   4.323   0.335
 3702SOL     OW11123   4.031   3.937   1.231
 3702SOL    HW111124   4.008   3.974   1.321
 3702SOL    HW211125   4.001   3.842   1.225
 3703SOL     OW11126   4.456   4.358   1.064
 3703SOL    HW111127   4.515   4.332   0.988
 3703SOL    HW211128   4.428   4.454   1.053
 3704SOL     OW11129   4.031   3.787   0.618
 3704SOL    HW111130   4.020   3.881   0.651
 3704SOL    HW211131   4.026   3.724   0.695
 3705SOL     OW11132   4.747   4.490   0.966
 3705SOL    HW111133   4.762   4.511   1.062
 3705SOL    HW211134   4.717   4.395   0.957
 3706SOL     OW11135   4.074   4.622   1.804
 3706SOL    HW111136   4.150   4.666   1.852
 3706SOL    HW211137   4.109   4.575   1.722
 3707SOL     OW11138   4.043   4.534   0.949
 3707SOL    HW111139   4.136   4.570   0.954
 3707SOL    HW211140   4.037   4.449   1.001
 3708SOL     OW11141   4.063   4.233   1.006
 3708SOL    HW111142   4.011   4.150   0.989
 3708SOL    HW211143   4.140   4.238   0.942
 3709SOL     OW11144   4.862   4.104   1.678
 3709SOL    HW111145   4.817   4.167   1.742
 3709SOL    HW211146   4.955   4.135   1.661
 3710SOL     OW11147   4.884   3.931   1.477
 3710SOL    HW111148   4.884   3.995   1.554
 3710SOL    HW211149   4.912   3.979   1.394
 3711SOL     OW11150   4.726   4.520   1.238
 3711SOL    HW111151   4.767   4.488   1.324
 3711SOL    HW211152   4.630   4.493   1.235
 3712SOL     OW11153   3.764   4.268   1.114
 3712SOL    HW111154   3.849   4.235   1.073
 3712SOL    HW211155   3.777   4.283   1.212
 3713SOL     OW11156   3.913   4.244   1.722
 3713SOL    HW111157   3.972   4.204   1.652
 3713SOL    HW211158   3.855   4.315   1.681
 3714SOL     OW11159   4.539   4.296   0.325
 3714SOL    HW111160   4.546   4.207   0.279
 3714SOL    HW211161   4.445   4.330   0.317
 3715SOL     OW11162   4.395   4.188   1.269
 3715SOL    HW111163   4.361   4.099   1.239
 3715SOL    HW211164   4.421   4.242   1.189
 3716SOL     OW11165   4.197   4.224   0.191
 3716SOL    HW111166   4.258   4.304   0.195
 3716SOL    HW211167   4.102   4.255   0.198
 3717SOL     OW11168   3.883   4.861   1.466
 3717SOL    HW111169   3.905   4.800   1.542
 3717SOL    HW211170   3.893   4.812   1.380
 3718SOL     OW11171   5.026   4.579   0.309
 3718SOL    HW111172   4.940   4.548   0.351
 3718SOL    HW211173   5.022   4.565   0.210
 3719SOL     OW11174   4.627   3.810   0.133
 3719SOL    HW111175   4.678   3.811   0.047
 3719SOL    HW211176   4.683   3.768   0.204
 3720SOL     OW11177   3.987   4.050   0.720
 3720SOL    HW111178   3.908   4.101   0.686
 3720SOL    HW211179   3.978   4.035   0.818
 3721SOL     OW11180   4.546   4.726   1.372
 3721SOL    HW111181   4.586   4.725   1.280
 3721SOL    HW211182   4.556   4.818   1.412
 3722SOL     OW11183   4.640   4.634   0.291
 3722SOL    HW111184   4.703   4.672   0.223
 3722SOL    HW211185   4.680   4.551   0.330
 3723SOL     OW11186   4.096   5.012   1.490
 3723SOL    HW111187   4.083   5.105   1.456
 3723SOL    HW211188   4.012   4.960   1.477
 3724SOL     OW11189   4.738   3.960   0.971
 3724SOL    HW111190   4.730   3.924   0.878
 3724SOL    HW211191   4.736   3.884   1.036
 3725SOL     OW11192   3.829   4.737   1.726
 3725SOL    HW111193   3.752   4.704   1.780
 3725SOL    HW211194   3.914   4.707   1.768
 3726SOL     OW11195   4.396   3.927   1.489
 3726SOL    HW111196   4.486   3.911   1.449
 3726SOL    HW211197   4.404   3.932   1.588
 3727SOL     OW11198   3.796   3.890   0.318
 3727SOL    HW111199   3.779   3.973   0.264
 3727SOL    HW211200   3.886   3.853   0.296
 3728SOL     OW11201   4.337   4.566   1.431
 3728SOL    HW111202   4.393   4.647   1.414
 3728SOL    HW211203   4.396   4.486   1.434
 3729SOL     OW11204   4.440   4.289   1.708
 3729SOL    HW111205   4.459   4.354   1.782
 3729SOL    HW211206   4.500   4.209   1.717
 3730SOL     OW11207   4.318   4.469   0.652
 3730SOL    HW111208   4.368   4.554   0.633
 3730SOL    HW211209   4.230   4.471   0.604
 3731SOL     OW11210   4.583   4.680   0.861
 3731SOL    HW111211   4.637   4.611   0.909
 3731SOL    HW211212   4.551   4.749   0.927
 3732SOL     OW11213   4.807   4.708   0.087
 3732SOL    HW111214   4.784   4.761   0.005
 3732SOL    HW211215   4.888   4.652   0.068
 3733SOL     OW11216   4.152   4.148   0.520
 3733SOL    HW111217   4.182   4.076   0.458
 3733SOL    HW211218   4.113   4.108   0.603
 3734SOL     OW11219   4.041   4.271   1.280
 3734SOL    HW111220   4.079   4.212   1.352
 3734SOL    HW211221   4.081   4.245   1.192
 3735SOL     OW11222   4.725   3.758   1.154
 3735SOL    HW111223   4.662   3.686   1.123
 3735SOL    HW211224   4.818   3.722   1.154
 3736SOL     OW11225   4.494   5.054   0.301
 3736SOL    HW111226   4.448   4.967   0.318
 3736SOL    HW211227   4.585   5.051   0.342
 3737SOL     OW11228   3.763   4.801   0.300
 3737SOL    HW111229   3.862   4.790   0.291
 3737SOL    HW211230   3.723   4.715   0.332
 3738SOL     OW11231   3.954   4.352   1.975
 3738SOL    HW111232   3.861   4.350   2.012
 3738SOL    HW211233   3.955   4.313   1.883
 3739SOL     OW11234   3.949   3.999   2.858
 3739SOL    HW111235   3.984   3.982   2.950
 3739SOL    HW211236   3.861   3.954   2.846
 3740SOL     OW11237   3.743   4.092   2.509
 3740SOL    HW111238   3.661   4.135   2.548
 3740SOL    HW211239   3.715   4.019   2.446
 3741SOL     OW11240   4.492   4.868   2.885
 3741SOL    HW111241   4.414   4.885   2.945
 3741SOL    HW211242   4.526   4.955   2.849
 3742SOL     OW11243   4.574   4.522   3.685
 3742SOL    HW111244   4.570   4.598   3.750
 3742SOL    HW211245   4.596   4.558   3.594
 3743SOL     OW11246   4.409   4.736   2.527
 3743SOL    HW111247   4.478   4.720   2.597
 3743SOL    HW211248   4.336   4.793   2.565
 3744SOL     OW11249   4.162   4.116   3.361
 3744SOL    HW111250   4.244   4.060   3.370
 3744SOL    HW211251   4.081   4.058   3.365
 3745SOL     OW11252   3.964   4.815   2.748
 3745SOL    HW111253   3.978   4.731   2.800
 3745SOL    HW211254   3.909   4.879   2.803
 3746SOL     OW11255   4.330   4.688   1.985
 3746SOL    HW111256   4.337   4.772   1.931
 3746SOL    HW211257   4.376   4.701   2.073
 3747SOL     OW11258   3.846   4.367   2.425
 3747SOL    HW111259   3.801   4.279   2.442
 3747SOL    HW211260   3.845   4.421   2.509
 3748SOL     OW11261   3.837   4.461   3.459
 3748SOL    HW111262   3.925   4.448   3.504
 3748SOL    HW211263   3.824   4.558   3.437
 3749SOL     OW11264   4.533   3.728   2.364
 3749SOL    HW111265   4.573   3.819   2.355
 3749SOL    HW211266   4.433   3.736   2.370
 3750SOL     OW11267   3.921   4.700   3.126
 3750SOL    HW111268   4.010   4.655   3.112
 3750SOL    HW211269   3.848   4.635   3.107
 3751SOL     OW11270   4.041   3.975   3.663
 3751SOL    HW111271   4.112   4.046   3.669
 3751SOL    HW211272   3.953   4.014   3.691
 3752SOL     OW11273   4.322   4.453   2.132
 3752SOL    HW111274   4.346   4.522   2.064
 3752SOL    HW211275   4.244   4.486   2.186
 3753SOL     OW11276   4.531   4.329   3.327
 3753SOL    HW111277   4.484   4.326   3.416
 3753SOL    HW211278   4.480   4.274   3.261
 3754SOL     OW11279   4.697   4.614   3.434
 3754SOL    HW111280   4.743   4.530   3.405
 3754SOL    HW211281   4.641   4.648   3.359
 3755SOL     OW11282   4.715   4.134   3.104
 3755SOL    HW111283   4.638   4.168   3.158
 3755SOL    HW211284   4.681   4.083   3.025
 3756SOL     OW11285   4.765   4.425   2.291
 3756SOL    HW111286   4.791   4.421   2.387
 3756SOL    HW211287   4.680   4.374   2.277
 3757SOL     OW11288   3.800   4.535   2.651
 3757SOL    HW111289   3.899   4.523   2.660
 3757SOL    HW211290   3.776   4.630   2.672
 3758SOL     OW11291   4.589   4.072   2.057
 3758SOL    HW111292   4.648   4.135   2.008
 3758SOL    HW211293   4.608   3.978   2.028
 3759SOL     OW11294   4.274   3.920   2.747
 3759SOL    HW111295   4.269   3.915   2.847
 3759SOL    HW211296   4.276   4.016   2.718
 3760SOL     OW11297   4.045   4.667   2.104
 3760SOL    HW111298   4.127   4.706   2.062
 3760SOL    HW211299   4.018   4.585   2.055
 3761SOL     OW11300   3.926   4.009   3.360
 3761SOL    HW111301   3.846   4.069   3.347
 3761SOL    HW211302   3.916   3.960   3.446
 3762SOL     OW11303   4.106   4.424   2.342
 3762SOL    HW111304   4.151   4.334   2.339
 3762SOL    HW211305   4.012   4.413   2.375
 3763SOL     OW11306   4.338   3.846   1.979
 3763SOL    HW111307   4.436   3.824   1.986
 3763SOL    HW211308   4.307   3.829   1.886
 3764SOL     OW11309   4.505   3.988   3.611
 3764SOL    HW111310   4.572   3.927   3.654
 3764SOL    HW211311   4.432   4.007   3.676
 3765SOL     OW11312   4.646   4.227   2.761
 3765SOL    HW111313   4.621   4.218   2.665
 3765SOL    HW211314   4.694   4.145   2.792
 3766SOL     OW11315   4.263   3.788   2.374
 3766SOL    HW111316   4.182   3.789   2.432
 3766SOL    HW211317   4.266   3.871   2.319
 3767SOL     OW11318   4.021   3.759   2.033
 3767SOL    HW111319   4.070   3.843   2.012
 3767SOL    HW211320   4.083   3.694   2.078
 3768SOL     OW11321   4.659   3.960   2.342
 3768SOL    HW111322   4.611   4.001   2.264
 3768SOL    HW211323   4.758   3.958   2.323
 3769SOL     OW11324   4.183   4.876   2.603
 3769SOL    HW111325   4.112   4.849   2.668
 3769SOL    HW211326   4.157   4.848   2.510
 3770SOL     OW11327   4.756   4.273   1.878
 3770SOL    HW111328   4.715   4.355   1.839
 3770SOL    HW211329   4.820   4.299   1.951
 3771SOL     OW11330   3.802   4.280   3.248
 3771SOL    HW111331   3.894   4.279   3.207
 3771SOL    HW211332   3.796   4.354   3.315
 3772SOL     OW11333   4.285   3.946   3.009
 3772SOL    HW111334   4.323   3.862   3.046
 3772SOL    HW211335   4.197   3.965   3.053
 3773SOL     OW11336   4.590   4.178   2.504
 3773SOL    HW111337   4.558   4.250   2.442
 3773SOL    HW211338   4.614   4.097   2.451
 3774SOL     OW11339   4.741   3.763   2.615
 3774SOL    HW111340   4.669   3.768   2.546
 3774SOL    HW211341   4.717   3.694   2.684
 3775SOL     OW11342   4.251   3.980   2.190
 3775SOL    HW111343   4.278   3.921   2.115
 3775SOL    HW211344   4.251   4.075   2.159
 3776SOL     OW11345   4.639   3.813   3.264
 3776SOL    HW111346   4.664   3.793   3.169
 3776SOL    HW211347   4.711   3.869   3.306
 3777SOL     OW11348   4.429   4.774   2.230
 3777SOL    HW111349   4.415   4.781   2.329
 3777SOL    HW211350   4.513   4.723   2.212
 3778SOL     OW11351   4.134   4.537   3.113
 3778SOL    HW111352   4.220   4.549   3.163
 3778SOL    HW211353   4.092   4.450   3.140
 3779SOL     OW11354   4.091   4.824   2.363
 3779SOL    HW111355   4.084   4.907   2.307
 3779SOL    HW211356   4.095   4.744   2.303
 3780SOL     OW11357   4.290   4.261   2.727
 3780SOL    HW111358   4.302   4.327   2.653
 3780SOL    HW211359   4.336   4.295   2.810
 3781SOL     OW11360   4.126   4.475   3.460
 3781SOL    HW111361   4.194   4.530   3.413
 3781SOL    HW211362   4.166   4.387   3.487
 3782SOL     OW11363   4.737   3.829   3.632
 3782SOL    HW111364   4.743   3.914   3.580
 3782SOL    HW211365   4.769   3.753   3.575
 3783SOL     OW11366   4.228   3.774   3.602
 3783SOL    HW111367   4.186   3.717   3.532
 3783SOL    HW211368   4.162   3.843   3.634
 3784SOL     OW11369   4.297   4.594   2.891
 3784SOL    HW111370   4.341   4.683   2.882
 3784SOL    HW211371   4.234   4.594   2.968
 3785SOL     OW11372   4.933   4.249   2.137
 3785SOL    HW111373   4.946   4.165   2.191
 3785SOL    HW211374   4.904   4.323   2.197
 3786SOL     OW11375   4.031   3.937   3.093
 3786SOL    HW111376   4.008   3.974   3.183
 3786SOL    HW211377   4.001   3.842   3.087
 3787SOL     OW11378   4.456   4.358   2.926
 3787SOL    HW111379   4.515   4.332   2.850
 3787SOL    HW211380   4.428   4.454   2.915
 3788SOL     OW11381   4.031   3.787   2.480
 3788SOL    HW111382   4.020   3.881   2.513
 3788SOL    HW211383   4.026   3.724   2.557
 3789SOL     OW11384   4.747   4.490   2.828
 3789SOL    HW111385   4.762   4.511   2.924
 3789SOL    HW211386   4.717   4.395   2.819
 3790SOL     OW11387   4.074   4.622   3.666
 3790SOL    HW111388   4.150   4.666   3.714
 3790SOL    HW211389   4.109   4.575   3.584
 3791SOL     OW11390   5.027   4.562   1.904
 3791SOL    HW111391   5.061   4.469   1.919
 3791SOL    HW211392   5.045   4.589   1.809
 3792SOL     OW11393   4.043   4.534   2.811
 3792SOL    HW111394   4.136   4.570   2.816
 3792SOL    HW211395   4.037   4.449   2.863
 3793SOL     OW11396   4.063   4.233   2.868
 3793SOL    HW111397   4.011   4.150   2.851
 3793SOL    HW211398   4.140   4.238   2.804
 3794SOL     OW11399   4.862   4.104   3.540
 3794SOL    HW111400   4.817   4.167   3.604
 3794SOL    HW211401   4.955   4.135   3.523
 3795SOL     OW11402   4.884   3.931   3.339
 3795SOL    HW111403   4.884   3.995   3.416
 3795SOL    HW211404   4.912   3.979   3.256
 3796SOL     OW11405   4.726   4.520   3.100
 3796SOL    HW111406   4.767   4.488   3.186
 3796SOL    HW211407   4.630   4.493   3.097
 3797SOL     OW11408   3.764   4.268   2.976
 3797SOL    HW111409   3.849   4.235   2.935
 3797SOL    HW211410   3.777   4.283   3.074
 3798SOL     OW11411   3.913   4.244   3.584
 3798SOL    HW111412   3.972   4.204   3.514
 3798SOL    HW211413   3.855   4.315   3.543
 3799SOL     OW11414   4.539   4.296   2.187
 3799SOL    HW111415   4.546   4.207   2.141
 3799SOL    HW211416   4.445   4.330   2.179
 3800SOL     OW11417   4.395   4.188   3.131
 3800SOL    HW111418   4.361   4.099   3.101
 3800SOL    HW211419   4.421   4.242   3.051
 3801SOL     OW11420   4.197   4.224   2.053
 3801SOL    HW111421   4.258   4.304   2.057
 3801SOL    HW211422   4.102   4.255   2.060
 3802SOL     OW11423   3.883   4.861   3.328
 3802SOL    HW111424   3.905   4.800   3.404
 3802SOL    HW211425   3.893   4.812   3.242
 3803SOL     OW11426   5.026   4.579   2.171
 3803SOL    HW111427   4.940   4.548   2.213
 3803SOL    HW211428   5.022   4.565   2.072
 3804SOL     OW11429   3.987   4.050   2.582
 3804SOL    HW111430   3.908   4.101   2.548
 3804SOL    HW211431   3.978   4.035   2.680
 3805SOL     OW11432   4.546   4.726   3.234
 3805SOL    HW111433   4.586   4.725   3.142
 3805SOL    HW211434   4.556   4.818   3.274
 3806SOL     OW11435   4.640   4.634   2.153
 3806SOL    HW111436   4.703   4.672   2.085
 3806SOL    HW211437   4.680   4.551   2.192
 3807SOL     OW11438   4.096   5.012   3.352
 3807SOL    HW111439   4.083   5.105   3.318
 3807SOL    HW211440   4.012   4.960   3.339
 3808SOL     OW11441   4.738   3.960   2.833
 3808SOL    HW111442   4.730   3.924   2.740
 3808SOL    HW211443   4.736   3.884   2.898
 3809SOL     OW11444   3.829   4.737   3.588
 3809SOL    HW111445   3.752   4.704   3.642
 3809SOL    HW211446   3.914   4.707   3.630
 3810SOL     OW11447   4.396   3.927   3.351
 3810SOL    HW111448   4.486   3.911   3.311
 3810SOL    HW211449   4.404   3.932   3.450
 3811SOL     OW11450   3.799   4.069   1.895
 3811SOL    HW111451   3.707   4.041   1.866
 3811SOL    HW211452   3.830   4.146   1.839
 3812SOL     OW11453   3.796   3.890   2.180
 3812SOL    HW111454   3.779   3.973   2.126
 3812SOL    HW211455   3.886   3.853   2.158
 3813SOL     OW11456   4.337   4.566   3.293
 3813SOL    HW111457   4.393   4.647   3.276
 3813SOL    HW211458   4.396   4.486   3.296
 3814SOL     OW11459   4.440   4.289   3.570
 3814SOL    HW111460   4.459   4.354   3.644
 3814SOL    HW211461   4.500   4.209   3.579
 3815SOL     OW11462   4.318   4.469   2.514
 3815SOL    HW111463   4.368   4.554   2.495
 3815SOL    HW211464   4.230   4.471   2.466
 3816SOL     OW11465   4.583   4.680   2.723
 3816SOL    HW111466   4.637   4.611   2.771
 3816SOL    HW211467   4.551   4.749   2.789
 3817SOL     OW11468   4.807   4.708   1.949
 3817SOL    HW111469   4.784   4.761   1.867
 3817SOL    HW211470   4.888   4.652   1.930
 3818SOL     OW11471   4.152   4.148   2.382
 3818SOL    HW111472   4.182   4.076   2.320
 3818SOL    HW211473   4.113   4.108   2.465
 3819SOL     OW11474   4.041   4.271   3.142
 3819SOL    HW111475   4.079   4.212   3.214
 3819SOL    HW211476   4.081   4.245   3.054
 3820SOL     OW11477   4.725   3.758   3.016
 3820SOL    HW111478   4.662   3.686   2.985
 3820SOL    HW211479   4.818   3.722   3.016
 3821SOL     OW11480   4.494   5.054   2.163
 3821SOL    HW111481   4.448   4.967   2.180
 3821SOL    HW211482   4.585   5.051   2.204
 3822SOL     OW11483   3.763   4.801   2.162
 3822SOL    HW111484   3.862   4.790   2.153
 3822SOL    HW211485   3.723   4.715   2.194
 3823SOL     OW11486   3.954   4.352   3.837
 3823SOL    HW111487   3.861   4.350   3.874
 3823SOL    HW211488   3.955   4.313   3.745
 3824SOL     OW11489   3.949   3.999   4.720
 3824SOL    HW111490   3.984   3.982   4.812
 3824SOL    HW211491   3.861   3.954   4.708
 3825SOL     OW11492   3.743   4.092   4.371
 3825SOL    HW111493   3.661   4.135   4.410
 3825SOL    HW211494   3.715   4.019   4.308
 3826SOL     OW11495   4.492   4.868   4.747
 3826SOL    HW111496   4.414   4.885   4.807
 3826SOL    HW211497   4.526   4.955   4.711
 3827SOL     OW11498   4.409   4.736   4.389
 3827SOL    HW111499   4.478   4.720   4.459
 3827SOL    HW211500   4.336   4.793   4.427
 3828SOL     OW11501   5.184   5.229   5.063
 3828SOL    HW111502   5.208   5.323   5.089
 3828SOL    HW211503   5.168   5.175   5.145
 3829SOL     OW11504   3.964   4.815   4.610
 3829SOL    HW111505   3.978   4.731   4.662
 3829SOL    HW211506   3.909   4.879   4.665
 3830SOL     OW11507   4.330   4.688   3.847
 3830SOL    HW111508   4.337   4.772   3.793
 3830SOL    HW211509   4.376   4.701   3.935
 3831SOL     OW11510   3.846   4.367   4.287
 3831SOL    HW111511   3.801   4.279   4.304
 3831SOL    HW211512   3.845   4.421   4.371
 3832SOL     OW11513   4.533   3.728   4.226
 3832SOL    HW111514   4.573   3.819   4.217
 3832SOL    HW211515   4.433   3.736   4.232
 3833SOL     OW11516   3.921   4.700   4.988
 3833SOL    HW111517   4.010   4.655   4.974
 3833SOL    HW211518   3.848   4.635   4.969
 3834SOL     OW11519   4.322   4.453   3.994
 3834SOL    HW111520   4.346   4.522   3.926
 3834SOL    HW211521   4.244   4.486   4.048
 3835SOL     OW11522   4.765   4.425   4.153
 3835SOL    HW111523   4.791   4.421   4.249
 3835SOL    HW211524   4.680   4.374   4.139
 3836SOL     OW11525   3.800   4.535   4.513
 3836SOL    HW111526   3.899   4.523   4.522
 3836SOL    HW211527   3.776   4.630   4.534
 3837SOL     OW11528   4.589   4.072   3.919
 3837SOL    HW111529   4.648   4.135   3.870
 3837SOL    HW211530   4.608   3.978   3.890
 3838SOL     OW11531   4.274   3.920   4.609
 3838SOL    HW111532   4.269   3.915   4.709
 3838SOL    HW211533   4.276   4.016   4.580
 3839SOL     OW11534   4.045   4.667   3.966
 3839SOL    HW111535   4.127   4.706   3.924
 3839SOL    HW211536   4.018   4.585   3.917
 3840SOL     OW11537   4.106   4.424   4.204
 3840SOL    HW111538   4.151   4.334   4.201
 3840SOL    HW211539   4.012   4.413   4.237
 3841SOL     OW11540   4.338   3.846   3.841
 3841SOL    HW111541   4.436   3.824   3.848
 3841SOL    HW211542   4.307   3.829   3.748
 3842SOL     OW11543   4.612   5.238   4.919
 3842SOL    HW111544   4.589   5.213   4.825
 3842SOL    HW211545   4.673   5.169   4.958
 3843SOL     OW11546   4.646   4.227   4.623
 3843SOL    HW111547   4.621   4.218   4.527
 3843SOL    HW211548   4.694   4.145   4.654
 3844SOL     OW11549   4.263   3.788   4.236
 3844SOL    HW111550   4.182   3.789   4.294
 3844SOL    HW211551   4.266   3.871   4.181
 3845SOL     OW11552   4.021   3.759   3.895
 3845SOL    HW111553   4.070   3.843   3.874
 3845SOL    HW211554   4.083   3.694   3.940
 3846SOL     OW11555   4.659   3.960   4.204
 3846SOL    HW111556   4.611   4.001   4.126
 3846SOL    HW211557   4.758   3.958   4.185
 3847SOL     OW11558   4.183   4.876   4.465
 3847SOL    HW111559   4.112   4.849   4.530
 3847SOL    HW211560   4.157   4.848   4.372
 3848SOL     OW11561   4.756   4.273   3.740
 3848SOL    HW111562   4.715   4.355   3.701
 3848SOL    HW211563   4.820   4.299   3.813
 3849SOL     OW11564   4.590   4.178   4.366
 3849SOL    HW111565   4.558   4.250   4.304
 3849SOL    HW211566   4.614   4.097   4.313
 3850SOL     OW11567   4.741   3.763   4.477
 3850SOL    HW111568   4.669   3.768   4.408
 3850SOL    HW211569   4.717   3.694   4.546
 3851SOL     OW11570   4.251   3.980   4.052
 3851SOL    HW111571   4.278   3.921   3.977
 3851SOL    HW211572   4.251   4.075   4.021
 3852SOL     OW11573   4.429   4.774   4.092
 3852SOL    HW111574   4.415   4.781   4.191
 3852SOL    HW211575   4.513   4.723   4.074
 3853SOL     OW11576   4.134   4.537   4.975
 3853SOL    HW111577   4.220   4.549   5.025
 3853SOL    HW211578   4.092   4.450   5.002
 3854SOL     OW11579   4.091   4.824   4.225
 3854SOL    HW111580   4.084   4.907   4.169
 3854SOL    HW211581   4.095   4.744   4.165
 3855SOL     OW11582   4.290   4.261   4.589
 3855SOL    HW111583   4.302   4.327   4.515
 3855SOL    HW211584   4.336   4.295   4.672
 3856SOL     OW11585   4.297   4.594   4.753
 3856SOL    HW111586   4.341   4.683   4.744
 3856SOL    HW211587   4.234   4.594   4.830
 3857SOL     OW11588   4.933   4.249   3.999
 3857SOL    HW111589   4.946   4.165   4.053
 3857SOL    HW211590   4.904   4.323   4.059
 3858SOL     OW11591   4.456   4.358   4.788
 3858SOL    HW111592   4.515   4.332   4.712
 3858SOL    HW211593   4.428   4.454   4.777
 3859SOL     OW11594   4.031   3.787   4.342
 3859SOL    HW111595   4.020   3.881   4.375
 3859SOL    HW211596   4.026   3.724   4.419
 3860SOL     OW11597   4.747   4.490   4.690
 3860SOL    HW111598   4.762   4.511   4.786
 3860SOL    HW211599   4.717   4.395   4.681
 3861SOL     OW11600   5.027   4.562   3.766
 3861SOL    HW111601   5.061   4.469   3.781
 3861SOL    HW211602   5.045   4.589   3.671
 3862SOL     OW11603   4.043   4.534   4.673
 3862SOL    HW111604   4.136   4.570   4.678
 3862SOL    HW211605   4.037   4.449   4.725
 3863SOL     OW11606   4.063   4.233   4.730
 3863SOL    HW111607   4.011   4.150   4.713
 3863SOL    HW211608   4.140   4.238   4.666
 3864SOL     OW11609   4.726   4.520   4.962
 3864SOL    HW111610   4.767   4.488   5.048
 3864SOL    HW211611   4.630   4.493   4.959
 3865SOL     OW11612   3.764   4.268   4.838
 3865SOL    HW111613   3.849   4.235   4.797
 3865SOL    HW211614   3.777   4.283   4.936
 3866SOL     OW11615   4.539   4.296   4.049
 3866SOL    HW111616   4.546   4.207   4.003
 3866SOL    HW211617   4.445   4.330   4.041
 3867SOL     OW11618   4.395   4.188   4.993
 3867SOL    HW111619   4.361   4.099   4.963
 3867SOL    HW211620   4.421   4.242   4.913
 3868SOL     OW11621   4.197   4.224   3.915
 3868SOL    HW111622   4.258   4.304   3.919
 3868SOL    HW211623   4.102   4.255   3.922
 3869SOL     OW11624   5.026   4.579   4.033
 3869SOL    HW111625   4.940   4.548   4.075
 3869SOL    HW211626   5.022   4.565   3.934
 3870SOL     OW11627   3.987   4.050   4.444
 3870SOL    HW111628   3.908   4.101   4.410
 3870SOL    HW211629   3.978   4.035   4.542
 3871SOL     OW11630   4.546   4.726   5.096
 3871SOL    HW111631   4.586   4.725   5.004
 3871SOL    HW211632   4.556   4.818   5.136
 3872SOL     OW11633   4.640   4.634   4.015
 3872SOL    HW111634   4.703   4.672   3.947
 3872SOL    HW211635   4.680   4.551   4.054
 3873SOL     OW11636   4.738   3.960   4.695
 3873SOL    HW111637   4.730   3.924   4.602
 3873SOL    HW211638   4.736   3.884   4.760
 3874SOL     OW11639   3.799   4.069   3.757
 3874SOL    HW111640   3.707   4.041   3.728
 3874SOL    HW211641   3.830   4.146   3.701
 3875SOL     OW11642   3.796   3.890   4.042
 3875SOL    HW111643   3.779   3.973   3.988
 3875SOL    HW211644   3.886   3.853   4.020
 3876SOL     OW11645   4.318   4.469   4.376
 3876SOL    HW111646   4.368   4.554   4.357
 3876SOL    HW211647   4.230   4.471   4.328
 3877SOL     OW11648   4.583   4.680   4.585
 3877SOL    HW111649   4.637   4.611   4.633
 3877SOL    HW211650   4.551   4.749   4.651
 3878SOL     OW11651   4.807   4.708   3.811
 3878SOL    HW111652   4.784   4.761   3.729
 3878SOL    HW211653   4.888   4.652   3.792
 3879SOL     OW11654   4.152   4.148   4.244
 3879SOL    HW111655   4.182   4.076   4.182
 3879SOL    HW211656   4.113   4.108   4.327
 3880SOL     OW11657   4.494   5.054   4.025
 3880SOL    HW111658   4.448   4.967   4.042
 3880SOL    HW211659   4.585   5.051   4.066
 3881SOL     OW11660   3.763   4.801   4.024
 3881SOL    HW111661   3.862   4.790   4.015
 3881SOL    HW211662   3.723   4.715   4.056
   4.92046   4.92046   4.92046
