; mobley_1017962_GMX_OPLS.top created by acpype (v: 2023.10.27) on Thu May 21 00:00:06 2026

; Include forcefield parameters
#include "ffoplsaa.itp"

; Include mobley_1017962_GMX.itp topology
#include "mobley_1017962_GMX.itp"

; Ligand position restraints
#ifdef POSRES_LIG
#include "posre_mobley_1017962.itp"
#endif

[ system ]
 mobley_1017962

[ molecules ]
; Compound        nmols
 mobley_1017962   1     
