; mobley_1017962_GMX_OPLS.itp created by acpype (v: 2023.10.27) on Thu May 21 00:00:06 2026

; For OPLS atomtypes manual fine tuning
; AC_at:OPLS_at:OPLScode: Possible_Alternatives (see ffoplsaa.atp and ffoplsaanb.itp)
; c:C:opls_235: ['271']
; c3:CT:opls_135: ['136', '137', '149', '157', '158', '206', '209', '210', '223B', '224B', '245', '246', '274', '283', '284', '285', '292', '292B', '293B', '296', '307', '308', '505']
; o:O:opls_236: ['272']
; os:x:opls_x: []
; hc:HC:opls_140: []
; h1:HC:opls_140: []

[ moleculetype ]
;name            nrexcl
 mobley_1017962   3

[ atoms ]
;   nr  type  resi  res  atom  cgnr     charge      mass       ; qtot   bond_type
     1 opls_235     1   MOL    C1    1     0.628099     12.01100 ; qtot  0.628  C   
     2 opls_135     1   MOL    C2    2    -0.093100     12.01100 ; qtot  0.535  CT  
     3 opls_135     1   MOL    C3    3     0.125700     12.01100 ; qtot  0.661  CT  
     4 opls_135     1   MOL    C4    4    -0.126400     12.01100 ; qtot  0.534  CT  
     5 opls_135     1   MOL    C5    5    -0.080400     12.01100 ; qtot  0.454  CT  
     6 opls_135     1   MOL    C6    6    -0.079400     12.01100 ; qtot  0.374  CT  
     7 opls_135     1   MOL    C7    7    -0.079400     12.01100 ; qtot  0.295  CT  
     8 opls_236     1   MOL    O1    8    -0.541000     15.99940 ; qtot -0.246  O   
     9 opls_x     1   MOL    O2    9    -0.443900      0.00000 ; qtot -0.690  x   
    10 opls_140     1   MOL    H1   10     0.033700      1.00800 ; qtot -0.656  HC  
    11 opls_140     1   MOL    H2   11     0.033700      1.00800 ; qtot -0.622  HC  
    12 opls_140     1   MOL    H3   12     0.033700      1.00800 ; qtot -0.589  HC  
    13 opls_140     1   MOL    H4   13     0.050367      1.00800 ; qtot -0.538  HC  
    14 opls_140     1   MOL    H5   14     0.050367      1.00800 ; qtot -0.488  HC  
    15 opls_140     1   MOL    H6   15     0.050367      1.00800 ; qtot -0.438  HC  
    16 opls_140     1   MOL    H7   16     0.078200      1.00800 ; qtot -0.359  HC  
    17 opls_140     1   MOL    H8   17     0.078200      1.00800 ; qtot -0.281  HC  
    18 opls_140     1   MOL    H9   18     0.041700      1.00800 ; qtot -0.239  HC  
    19 opls_140     1   MOL   H10   19     0.041700      1.00800 ; qtot -0.198  HC  
    20 opls_140     1   MOL   H11   20     0.057700      1.00800 ; qtot -0.140  HC  
    21 opls_140     1   MOL   H12   21     0.057700      1.00800 ; qtot -0.082  HC  
    22 opls_140     1   MOL   H13   22     0.041200      1.00800 ; qtot -0.041  HC  
    23 opls_140     1   MOL   H14   23     0.041200      1.00800 ; qtot  0.000  HC  

[ bonds ]
;   ai     aj funct   r             k
     1      4   1 ;    1.5270e-01    1.9652e+05 ;     C1 - C4          C - CT    
     1      8   1 ;    1.2190e-01    4.9421e+05 ;     C1 - O1          C - O     
     1      9   1 ;    1.3621e-01    2.9398e+05 ;     C1 - O2          C - x     
     2      5   1 ;    1.5354e-01    1.9154e+05 ;     C2 - C5         CT - CT    
     2     10   1 ;    1.0962e-01    2.8891e+05 ;     C2 - H1         CT - HC    
     2     11   1 ;    1.0962e-01    2.8891e+05 ;     C2 - H2         CT - HC    
     2     12   1 ;    1.0962e-01    2.8891e+05 ;     C2 - H3         CT - HC    
     3      9   1 ;    1.4273e-01    2.3620e+05 ;     C3 - O2         CT - x     
     3     13   1 ;    1.0969e-01    2.8804e+05 ;     C3 - H4         CT - HC    
     3     14   1 ;    1.0969e-01    2.8804e+05 ;     C3 - H5         CT - HC    
     3     15   1 ;    1.0969e-01    2.8804e+05 ;     C3 - H6         CT - HC    
     4      6   1 ;    1.5354e-01    1.9154e+05 ;     C4 - C6         CT - CT    
     4     16   1 ;    1.0962e-01    2.8891e+05 ;     C4 - H7         CT - HC    
     4     17   1 ;    1.0962e-01    2.8891e+05 ;     C4 - H8         CT - HC    
     5      7   1 ;    1.5354e-01    1.9154e+05 ;     C5 - C7         CT - CT    
     5     18   1 ;    1.0962e-01    2.8891e+05 ;     C5 - H9         CT - HC    
     5     19   1 ;    1.0962e-01    2.8891e+05 ;     C5 - H10        CT - HC    
     6      7   1 ;    1.5354e-01    1.9154e+05 ;     C6 - C7         CT - CT    
     6     20   1 ;    1.0962e-01    2.8891e+05 ;     C6 - H11        CT - HC    
     6     21   1 ;    1.0962e-01    2.8891e+05 ;     C6 - H12        CT - HC    
     7     22   1 ;    1.0962e-01    2.8891e+05 ;     C7 - H13        CT - HC    
     7     23   1 ;    1.0962e-01    2.8891e+05 ;     C7 - H14        CT - HC    

[ pairs ]
;   ai     aj    funct
     1      7      1 ;     C1 - C7    
     1     13      1 ;     C1 - H4    
     1     14      1 ;     C1 - H5    
     1     15      1 ;     C1 - H6    
     1     20      1 ;     C1 - H11   
     1     21      1 ;     C1 - H12   
     2      6      1 ;     C2 - C6    
     2     22      1 ;     C2 - H13   
     2     23      1 ;     C2 - H14   
     4      3      1 ;     C4 - C3    
     4      5      1 ;     C4 - C5    
     4     22      1 ;     C4 - H13   
     4     23      1 ;     C4 - H14   
     5     20      1 ;     C5 - H11   
     5     21      1 ;     C5 - H12   
     6     18      1 ;     C6 - H9    
     6     19      1 ;     C6 - H10   
     7     10      1 ;     C7 - H1    
     7     11      1 ;     C7 - H2    
     7     12      1 ;     C7 - H3    
     7     16      1 ;     C7 - H7    
     7     17      1 ;     C7 - H8    
     8      3      1 ;     O1 - C3    
     8      6      1 ;     O1 - C6    
     8     16      1 ;     O1 - H7    
     8     17      1 ;     O1 - H8    
     9      6      1 ;     O2 - C6    
     9     16      1 ;     O2 - H7    
     9     17      1 ;     O2 - H8    
    10     18      1 ;     H1 - H9    
    10     19      1 ;     H1 - H10   
    11     18      1 ;     H2 - H9    
    11     19      1 ;     H2 - H10   
    12     18      1 ;     H3 - H9    
    12     19      1 ;     H3 - H10   
    16     20      1 ;     H7 - H11   
    16     21      1 ;     H7 - H12   
    17     20      1 ;     H8 - H11   
    17     21      1 ;     H8 - H12   
    18     22      1 ;     H9 - H13   
    18     23      1 ;     H9 - H14   
    19     22      1 ;    H10 - H13   
    19     23      1 ;    H10 - H14   
    20     22      1 ;    H11 - H13   
    20     23      1 ;    H11 - H14   
    21     22      1 ;    H12 - H13   
    21     23      1 ;    H12 - H14   

[ angles ]
;   ai     aj     ak    funct   theta         cth
     1      4      6      1 ;    1.1143e+02    5.0509e+02 ;     C1 - C4   - C6        C -   CT - CT  
     1      4     16      1 ;    1.0895e+02    3.6510e+02 ;     C1 - C4   - H7        C -   CT - HC  
     1      4     17      1 ;    1.0895e+02    3.6510e+02 ;     C1 - C4   - H8        C -   CT - HC  
     1      9      3      1 ;    1.1582e+02    7.4835e+02 ;     C1 - O2   - C3        C -    x - CT  
     2      5      7      1 ;    1.1263e+02    5.0099e+02 ;     C2 - C5   - C7       CT -   CT - CT  
     2      5     18      1 ;    1.0968e+02    3.6208e+02 ;     C2 - C5   - H9       CT -   CT - HC  
     2      5     19      1 ;    1.0968e+02    3.6208e+02 ;     C2 - C5   - H10      CT -   CT - HC  
     4      1      8      1 ;    1.2290e+02    6.3973e+02 ;     C4 - C1   - O1       CT -    C - O   
     4      1      9      1 ;    1.1080e+02    6.5245e+02 ;     C4 - C1   - O2       CT -    C - x   
     4      6      7      1 ;    1.1263e+02    5.0099e+02 ;     C4 - C6   - C7       CT -   CT - CT  
     4      6     20      1 ;    1.0968e+02    3.6208e+02 ;     C4 - C6   - H11      CT -   CT - HC  
     4      6     21      1 ;    1.0968e+02    3.6208e+02 ;     C4 - C6   - H12      CT -   CT - HC  
     5      2     10      1 ;    1.0968e+02    3.6208e+02 ;     C5 - C2   - H1       CT -   CT - HC  
     5      2     11      1 ;    1.0968e+02    3.6208e+02 ;     C5 - C2   - H2       CT -   CT - HC  
     5      2     12      1 ;    1.0968e+02    3.6208e+02 ;     C5 - C2   - H3       CT -   CT - HC  
     5      7      6      1 ;    1.1263e+02    5.0099e+02 ;     C5 - C7   - C6       CT -   CT - CT  
     5      7     22      1 ;    1.0968e+02    3.6208e+02 ;     C5 - C7   - H13      CT -   CT - HC  
     5      7     23      1 ;    1.0968e+02    3.6208e+02 ;     C5 - C7   - H14      CT -   CT - HC  
     6      4     16      1 ;    1.0968e+02    3.6208e+02 ;     C6 - C4   - H7       CT -   CT - HC  
     6      4     17      1 ;    1.0968e+02    3.6208e+02 ;     C6 - C4   - H8       CT -   CT - HC  
     6      7     22      1 ;    1.0968e+02    3.6208e+02 ;     C6 - C7   - H13      CT -   CT - HC  
     6      7     23      1 ;    1.0968e+02    3.6208e+02 ;     C6 - C7   - H14      CT -   CT - HC  
     7      5     18      1 ;    1.0968e+02    3.6208e+02 ;     C7 - C5   - H9       CT -   CT - HC  
     7      5     19      1 ;    1.0968e+02    3.6208e+02 ;     C7 - C5   - H10      CT -   CT - HC  
     7      6     20      1 ;    1.0968e+02    3.6208e+02 ;     C7 - C6   - H11      CT -   CT - HC  
     7      6     21      1 ;    1.0968e+02    3.6208e+02 ;     C7 - C6   - H12      CT -   CT - HC  
     8      1      9      1 ;    1.2320e+02    8.4734e+02 ;     O1 - C1   - O2        O -    C - x   
     9      3     13      1 ;    1.1034e+02    4.7028e+02 ;     O2 - C3   - H4        x -   CT - HC  
     9      3     14      1 ;    1.1034e+02    4.7028e+02 ;     O2 - C3   - H5        x -   CT - HC  
     9      3     15      1 ;    1.1034e+02    4.7028e+02 ;     O2 - C3   - H6        x -   CT - HC  
    10      2     11      1 ;    1.0773e+02    2.9957e+02 ;     H1 - C2   - H2       HC -   CT - HC  
    10      2     12      1 ;    1.0773e+02    2.9957e+02 ;     H1 - C2   - H3       HC -   CT - HC  
    11      2     12      1 ;    1.0773e+02    2.9957e+02 ;     H2 - C2   - H3       HC -   CT - HC  
    13      3     14      1 ;    1.0855e+02    2.9824e+02 ;     H4 - C3   - H5       HC -   CT - HC  
    13      3     15      1 ;    1.0855e+02    2.9824e+02 ;     H4 - C3   - H6       HC -   CT - HC  
    14      3     15      1 ;    1.0855e+02    2.9824e+02 ;     H5 - C3   - H6       HC -   CT - HC  
    16      4     17      1 ;    1.0773e+02    2.9957e+02 ;     H7 - C4   - H8       HC -   CT - HC  
    18      5     19      1 ;    1.0773e+02    2.9957e+02 ;     H9 - C5   - H10      HC -   CT - HC  
    20      6     21      1 ;    1.0773e+02    2.9957e+02 ;    H11 - C6   - H12      HC -   CT - HC  
    22      7     23      1 ;    1.0773e+02    2.9957e+02 ;    H13 - C7   - H14      HC -   CT - HC  

[ dihedrals ] ; propers
; for gromacs 4.5 or higher, using funct 9
;    i      j      k      l   func   phase     kd      pn
     1      4      6      7      9 ;     0.00   0.00000   0 ;     C1-    C4-    C6-    C7
     1      4      6      7      9 ;     0.00   0.16736   2 ;     C1-    C4-    C6-    C7
     1      4      6      7      9 ;   180.00   1.92464   1 ;     C1-    C4-    C6-    C7
     1      4      6     20      9 ;     0.00   0.65084   3 ;     C1-    C4-    C6-   H11
     1      4      6     21      9 ;     0.00   0.65084   3 ;     C1-    C4-    C6-   H12
     1      9      3     13      9 ;     0.00   1.60387   3 ;     C1-    O2-    C3-    H4
     1      9      3     14      9 ;     0.00   1.60387   3 ;     C1-    O2-    C3-    H5
     1      9      3     15      9 ;     0.00   1.60387   3 ;     C1-    O2-    C3-    H6
     2      5      7      6      9 ;     0.00   2.17568   3 ;     C2-    C5-    C7-    C6
     2      5      7     22      9 ;     0.00   0.54392   3 ;     C2-    C5-    C7-   H13
     2      5      7     23      9 ;     0.00   0.54392   3 ;     C2-    C5-    C7-   H14
     4      1      9      3      9 ;     0.00   3.13800   3 ;     C4-    C1-    O2-    C3
     4      1      9      3      9 ;   180.00   7.90776   1 ;     C4-    C1-    O2-    C3
     4      1      9      3      9 ;   180.00  13.76536   2 ;     C4-    C1-    O2-    C3
     4      6      7      5      9 ;     0.00   2.17568   3 ;     C4-    C6-    C7-    C5
     4      6      7     22      9 ;     0.00   0.54392   3 ;     C4-    C6-    C7-   H13
     4      6      7     23      9 ;     0.00   0.54392   3 ;     C4-    C6-    C7-   H14
     5      7      6     20      9 ;     0.00   0.54392   3 ;     C5-    C7-    C6-   H11
     5      7      6     21      9 ;     0.00   0.54392   3 ;     C5-    C7-    C6-   H12
     6      7      5     18      9 ;     0.00   0.54392   3 ;     C6-    C7-    C5-    H9
     6      7      5     19      9 ;     0.00   0.54392   3 ;     C6-    C7-    C5-   H10
     7      5      2     10      9 ;     0.00   0.54392   3 ;     C7-    C5-    C2-    H1
     7      5      2     11      9 ;     0.00   0.54392   3 ;     C7-    C5-    C2-    H2
     7      5      2     12      9 ;     0.00   0.54392   3 ;     C7-    C5-    C2-    H3
     7      6      4     16      9 ;     0.00   0.54392   3 ;     C7-    C6-    C4-    H7
     7      6      4     17      9 ;     0.00   0.54392   3 ;     C7-    C6-    C4-    H8
     8      1      4      6      9 ;     0.00   2.84512   1 ;     O1-    C1-    C4-    C6
     8      1      4      6      9 ;   180.00   0.83680   2 ;     O1-    C1-    C4-    C6
     8      1      4      6      9 ;   180.00   1.84096   3 ;     O1-    C1-    C4-    C6
     8      1      4     16      9 ;     0.00  16.86152   1 ;     O1-    C1-    C4-    H7
     8      1      4     16      9 ;   180.00  15.31344   2 ;     O1-    C1-    C4-    H7
     8      1      4     17      9 ;     0.00  16.86152   1 ;     O1-    C1-    C4-    H8
     8      1      4     17      9 ;   180.00  15.31344   2 ;     O1-    C1-    C4-    H8
     8      1      9      3      9 ;   180.00   5.85760   1 ;     O1-    C1-    O2-    C3
     8      1      9      3      9 ;   180.00  11.29680   2 ;     O1-    C1-    O2-    C3
     9      1      4      6      9 ;   180.00   0.00000   2 ;     O2-    C1-    C4-    C6
     9      1      4     16      9 ;   180.00   0.00000   2 ;     O2-    C1-    C4-    H7
     9      1      4     17      9 ;   180.00   0.00000   2 ;     O2-    C1-    C4-    H8
    10      2      5     18      9 ;     0.00   0.50208   3 ;     H1-    C2-    C5-    H9
    10      2      5     19      9 ;     0.00   0.50208   3 ;     H1-    C2-    C5-   H10
    11      2      5     18      9 ;     0.00   0.50208   3 ;     H2-    C2-    C5-    H9
    11      2      5     19      9 ;     0.00   0.50208   3 ;     H2-    C2-    C5-   H10
    12      2      5     18      9 ;     0.00   0.50208   3 ;     H3-    C2-    C5-    H9
    12      2      5     19      9 ;     0.00   0.50208   3 ;     H3-    C2-    C5-   H10
    16      4      6     20      9 ;     0.00   0.50208   3 ;     H7-    C4-    C6-   H11
    16      4      6     21      9 ;     0.00   0.50208   3 ;     H7-    C4-    C6-   H12
    17      4      6     20      9 ;     0.00   0.50208   3 ;     H8-    C4-    C6-   H11
    17      4      6     21      9 ;     0.00   0.50208   3 ;     H8-    C4-    C6-   H12
    18      5      7     22      9 ;     0.00   0.50208   3 ;     H9-    C5-    C7-   H13
    18      5      7     23      9 ;     0.00   0.50208   3 ;     H9-    C5-    C7-   H14
    19      5      7     22      9 ;     0.00   0.50208   3 ;    H10-    C5-    C7-   H13
    19      5      7     23      9 ;     0.00   0.50208   3 ;    H10-    C5-    C7-   H14
    20      6      7     22      9 ;     0.00   0.50208   3 ;    H11-    C6-    C7-   H13
    20      6      7     23      9 ;     0.00   0.50208   3 ;    H11-    C6-    C7-   H14
    21      6      7     22      9 ;     0.00   0.50208   3 ;    H12-    C6-    C7-   H13
    21      6      7     23      9 ;     0.00   0.50208   3 ;    H12-    C6-    C7-   H14

[ dihedrals ] ; impropers
; treated as propers in GROMACS to use correct AMBER analytical function
;    i      j      k      l   func   phase     kd      pn
     9      1      8      4      4 ;   180.00   4.60240   2 ;     O2-    C1-    O1-    C4
