methyl_hexanoate
    23
   1.5900000   0.9610000   6.3330000   0.0860000   1.1280000   0.1340000
   2.6050000   0.7410000   8.4590000   1.7850000   0.6050000   4.8760000
  -0.1410000   1.4630000   1.6000000   0.7150000   1.2020000   3.9620000
   0.9240000   0.8240000   2.4920000   0.6590000   1.6170000   6.7800000
   2.6330000   0.4570000   7.0560000   1.0610000   1.4940000  -0.2050000
   0.0470000   0.0470000  -0.0320000  -0.6860000   1.5950000  -0.4850000
   3.2410000   0.0270000   8.9890000   1.5780000   0.6720000   8.8250000
   2.9820000   1.7530000   8.6240000   1.7930000  -0.4860000   4.7710000
   2.7670000   0.9890000   4.5780000  -1.1360000   1.1130000   1.8990000
  -0.1280000   2.5520000   1.7260000   0.7510000   2.2950000   4.0550000
  -0.2820000   0.8870000   4.2890000   0.8890000  -0.2650000   2.3740000
   1.9190000   1.1510000   2.1670000
