mobley_1017962_GMX.gro created by acpype (v: 2023.10.27) on Thu May 21 00:00:06 2026
 23
    1  MOL   C1    1   0.159   0.096   0.633
    1  MOL   C2    2   0.009   0.113   0.013
    1  MOL   C3    3   0.261   0.074   0.846
    1  MOL   C4    4   0.178   0.060   0.488
    1  MOL   C5    5  -0.014   0.146   0.160
    1  MOL   C6    6   0.071   0.120   0.396
    1  MOL   C7    7   0.092   0.082   0.249
    1  MOL   O1    8   0.066   0.162   0.678
    1  MOL   O2    9   0.263   0.046   0.706
    1  MOL   H1   10   0.106   0.149  -0.021
    1  MOL   H2   11   0.005   0.005  -0.003
    1  MOL   H3   12  -0.069   0.160  -0.049
    1  MOL   H4   13   0.324   0.003   0.899
    1  MOL   H5   14   0.158   0.067   0.882
    1  MOL   H6   15   0.298   0.175   0.862
    1  MOL   H7   16   0.179  -0.049   0.477
    1  MOL   H8   17   0.277   0.099   0.458
    1  MOL   H9   18  -0.114   0.111   0.190
    1  MOL  H10   19  -0.013   0.255   0.173
    1  MOL  H11   20   0.075   0.230   0.405
    1  MOL  H12   21  -0.028   0.089   0.429
    1  MOL  H13   22   0.089  -0.027   0.237
    1  MOL  H14   23   0.192   0.115   0.217
    8.75400     6.07600    18.94800
