%VERSION  VERSION_STAMP = V0001.000  DATE = 05/20/26  23:52:14                  
%FLAG TITLE                                                                     
%FORMAT(20a4)                                                                   
1_naphthol                                                                      
%FLAG POINTERS                                                                  
%FORMAT(10I8)                                                                   
      19       4       8      12      15      16      32      24       0       0
      96       1      12      16      24       4       4       3       4       0
       0       0       0       0       0       0       0       0      19       0
       0
%FLAG ATOM_NAME                                                                 
%FORMAT(20a4)                                                                   
C1  C2  C3  C4  C5  C6  C7  C8  C9  C10 O1  H1  H2  H3  H4  H5  H6  H7  H8  
%FLAG CHARGE                                                                    
%FORMAT(5E16.8)                                                                 
 -2.22312060E+00 -2.29600980E+00 -1.67645160E+00 -2.16845370E+00 -2.22312060E+00
 -2.82445650E+00 -3.07956870E+00 -1.27556100E-01 -1.60356240E+00  2.42538813E+00
 -9.07652763E+00  2.44178820E+00  2.44178820E+00  2.46001050E+00  2.46001050E+00
  2.22312060E+00  2.46001050E+00  2.75156730E+00  7.65336600E+00
%FLAG ATOMIC_NUMBER                                                             
%FORMAT(10I8)                                                                   
       6       6       6       6       6       6       6       6       6       6
       8       1       1       1       1       1       1       1       1
%FLAG MASS                                                                      
%FORMAT(5E16.8)                                                                 
  1.20100000E+01  1.20100000E+01  1.20100000E+01  1.20100000E+01  1.20100000E+01
  1.20100000E+01  1.20100000E+01  1.20100000E+01  1.20100000E+01  1.20100000E+01
  1.60000000E+01  1.00800000E+00  1.00800000E+00  1.00800000E+00  1.00800000E+00
  1.00800000E+00  1.00800000E+00  1.00800000E+00  1.00800000E+00
%FLAG ATOM_TYPE_INDEX                                                           
%FORMAT(10I8)                                                                   
       1       1       1       1       1       1       1       1       1       1
       2       3       3       3       3       3       3       3       4
%FLAG NUMBER_EXCLUDED_ATOMS                                                     
%FORMAT(10I8)                                                                   
      10       9      10       9       9       8       8       8       8       5
       2       2       1       2       1       1       1       1       1
%FLAG NONBONDED_PARM_INDEX                                                      
%FORMAT(10I8)                                                                   
       1       2       4       7       2       3       5       8       4       5
       6       9       7       8       9      10
%FLAG RESIDUE_LABEL                                                             
%FORMAT(20a4)                                                                   
MOL 
%FLAG RESIDUE_POINTER                                                           
%FORMAT(10I8)                                                                   
       1
%FLAG BOND_FORCE_CONSTANT                                                       
%FORMAT(5E16.8)                                                                 
  3.54250000E+02  3.60690000E+02  3.48550000E+02  5.35510000E+02
%FLAG BOND_EQUIL_VALUE                                                          
%FORMAT(5E16.8)                                                                 
  1.39860000E+00  1.08600000E+00  1.36440000E+00  9.72500000E-01
%FLAG ANGLE_FORCE_CONSTANT                                                      
%FORMAT(5E16.8)                                                                 
  6.36700000E+01  4.49000000E+01  7.88600000E+01  6.74100000E+01
%FLAG ANGLE_EQUIL_VALUE                                                         
%FORMAT(5E16.8)                                                                 
  2.09474507E+00  2.09230160E+00  2.09265067E+00  1.89507931E+00
%FLAG DIHEDRAL_FORCE_CONSTANT                                                   
%FORMAT(5E16.8)                                                                 
  3.62500000E+00  8.55000000E-01  1.10000000E+00
%FLAG DIHEDRAL_PERIODICITY                                                      
%FORMAT(5E16.8)                                                                 
  2.00000000E+00  2.00000000E+00  2.00000000E+00
%FLAG DIHEDRAL_PHASE                                                            
%FORMAT(5E16.8)                                                                 
  3.14159400E+00  3.14159400E+00  3.14159400E+00
%FLAG SCEE_SCALE_FACTOR                                                         
%FORMAT(5E16.8)                                                                 
  1.20000000E+00  1.20000000E+00  0.00000000E+00
%FLAG SCNB_SCALE_FACTOR                                                         
%FORMAT(5E16.8)                                                                 
  2.00000000E+00  2.00000000E+00  0.00000000E+00
%FLAG SOLTY                                                                     
%FORMAT(5E16.8)                                                                 
  0.00000000E+00  0.00000000E+00  0.00000000E+00  0.00000000E+00
%FLAG LENNARD_JONES_ACOEF                                                       
%FORMAT(5E16.8)                                                                 
  6.96551276E+05  5.92438683E+05  5.03152404E+05  7.52549148E+04  6.30298721E+04
  6.90855956E+03  2.25372434E+02  1.74176419E+02  8.53132435E+00  1.10360882E-05
%FLAG LENNARD_JONES_BCOEF                                                       
%FORMAT(5E16.8)                                                                 
  5.24668528E+02  4.76608379E+02  4.32634597E+02  1.09570372E+02  9.87712192E+01
  2.10929191E+01  4.40751799E+00  3.81654050E+00  5.44840215E-01  4.55498033E-04
%FLAG BONDS_INC_HYDROGEN                                                        
%FORMAT(10I8)                                                                   
       0      33       2       3      36       2       6      39       2       9
      42       2      12      45       2      15      48       2      18      51
       2      30      54       4
%FLAG BONDS_WITHOUT_HYDROGEN                                                    
%FORMAT(10I8)                                                                   
       0       3       1       0       9       1       3      12       1       6
      15       1       6      18       1       9      21       1      12      24
       1      15      21       1      18      27       1      21      24       1
      24      27       1      27      30       3
%FLAG ANGLES_INC_HYDROGEN                                                       
%FORMAT(10I8)                                                                   
       0       3      36       2       0       9      42       2       3       0
      33       2       3      12      45       2       6      15      48       2
       6      18      51       2       9       0      33       2      12       3
      36       2      15       6      39       2      18       6      39       2
      21       9      42       2      21      15      48       2      24      12
      45       2      27      18      51       2      27      30      54       4
%FLAG ANGLES_WITHOUT_HYDROGEN                                                   
%FORMAT(10I8)                                                                   
       0       3      12       1       0       9      21       1       3       0
       9       1       3      12      24       1       6      15      21       1
       6      18      27       1       9      21      15       1       9      21
      24       1      12      24      21       1      12      24      27       1
      15       6      18       1      15      21      24       1      18      27
      24       1      18      27      30       3      21      24      27       1
      24      27      30       3
%FLAG DIHEDRALS_INC_HYDROGEN                                                    
%FORMAT(10I8)                                                                   
       0       3      12      45       1       3       0       9      42       1
       9       0       3      36       1       9      21      15      48       1
      33       0       3      12       1      15       6      18      51       1
      15      21       9      42       1      18       6      15      48       1
      18      27      30      54       2      33       0       9      21       1
      21      15       6      39       1      21      24      12      45       1
      24      12       3      36       1      24      21       9      42       1
      24      21      15      48       1      24      27      18      51       1
      24      27      30      54       2      27      18       6      39       1
      27      24      12      45       1      30      27      18      51       1
      33       0       3      36       1      33       0       9      42       1
      36       3      12      45       1      39       6      15      48       1
      39       6      18      51       1      33       0      -9      -3       3
       0      12      -3     -36       3      15      18      -6     -39       3
       0      21      -9     -42       3       3      24     -12     -45       3
       6      21     -15     -48       3       6      27     -18     -51       3
%FLAG DIHEDRALS_WITHOUT_HYDROGEN                                                
%FORMAT(10I8)                                                                   
       0       3      12      24       1       0       9      21      15       1
       0       9     -21      24       1       3       0       9      21       1
       3      12     -24      21       1       3      12      24      27       1
       6      15      21       9       1       6      15      21      24       1
       6      18     -27      24       1       6      18      27      30       1
       9       0       3      12       1       9      21     -24      12       1
       9      21      24      27       1      12      24      21      15       1
      12      24      27      18       1      12      24      27      30       1
      15       6      18      27       1      15      21     -24      27       1
      18       6      15      21       1      18      27     -24      21       1
      21      24      27      30       1       9      15     -21     -24       3
      12      21     -24     -27       3      18      24     -27     -30       3
%FLAG EXCLUDED_ATOMS_LIST                                                       
%FORMAT(10I8)                                                                   
       2       4       5       6       8       9      12      13      15      16
       4       5       8       9      10      12      13      15      16       4
       6       7       8       9      10      11      14      17      18       5
       6       8       9      10      12      13      15      17       6       7
       8       9      10      11      12      13      16       7       8       9
      10      14      15      17      18       8       9      10      11      14
      17      18      19       9      10      11      12      14      15      16
      17      10      11      13      15      16      17      18      19      11
      14      16      18      19      18      19      13      15      16      17
      18       0       0       0       0       0
%FLAG HBOND_ACOEF                                                               
%FORMAT(5E16.8)                                                                 

%FLAG HBOND_BCOEF                                                               
%FORMAT(5E16.8)                                                                 

%FLAG HBCUT                                                                     
%FORMAT(5E16.8)                                                                 

%FLAG AMBER_ATOM_TYPE                                                           
%FORMAT(20a4)                                                                   
ca  ca  ca  ca  ca  ca  ca  ca  ca  ca  oh  ha  ha  ha  ha  ha  ha  ha  ho  
%FLAG TREE_CHAIN_CLASSIFICATION                                                 
%FORMAT(20a4)                                                                   
BLA BLA BLA BLA BLA BLA BLA BLA BLA BLA BLA BLA BLA BLA BLA BLA BLA BLA BLA 
%FLAG JOIN_ARRAY                                                                
%FORMAT(10I8)                                                                   
       0       0       0       0       0       0       0       0       0       0
       0       0       0       0       0       0       0       0       0
%FLAG IROTAT                                                                    
%FORMAT(10I8)                                                                   
       0       0       0       0       0       0       0       0       0       0
       0       0       0       0       0       0       0       0       0
%FLAG RADIUS_SET                                                                
%FORMAT(1a80)                                                                   
modified Bondi radii (mbondi)                                                   
%FLAG RADII                                                                     
%FORMAT(5E16.8)                                                                 
  1.70000000E+00  1.70000000E+00  1.70000000E+00  1.70000000E+00  1.70000000E+00
  1.70000000E+00  1.70000000E+00  1.70000000E+00  1.70000000E+00  1.70000000E+00
  1.50000000E+00  1.30000000E+00  1.30000000E+00  1.30000000E+00  1.30000000E+00
  1.30000000E+00  1.30000000E+00  1.30000000E+00  8.00000000E-01
%FLAG SCREEN                                                                    
%FORMAT(5E16.8)                                                                 
  7.20000000E-01  7.20000000E-01  7.20000000E-01  7.20000000E-01  7.20000000E-01
  7.20000000E-01  7.20000000E-01  7.20000000E-01  7.20000000E-01  7.20000000E-01
  8.50000000E-01  8.50000000E-01  8.50000000E-01  8.50000000E-01  8.50000000E-01
  8.50000000E-01  8.50000000E-01  8.50000000E-01  8.50000000E-01
%FLAG IPOL                                                                      
%FORMAT(1I8)                                                                    
       0
