mobley_7039935_GMX.gro created by acpype (v: 2023.10.27) on Wed May 20 23:52:10 2026
 19
    1  MOL   C1    1  -0.057  -0.206   0.023
    1  MOL   C2    2   0.034  -0.103   0.002
    1  MOL   C3    3   0.304  -0.531  -0.010
    1  MOL   C4    4  -0.013  -0.339   0.025
    1  MOL   C5    5   0.169  -0.132  -0.017
    1  MOL   C6    6   0.169  -0.502   0.009
    1  MOL   C7    7   0.395  -0.428  -0.031
    1  MOL   C8    8   0.123  -0.369   0.007
    1  MOL   C9    9   0.215  -0.265  -0.015
    1  MOL  C10   10   0.351  -0.296  -0.033
    1  MOL   O1   11   0.444  -0.198  -0.054
    1  MOL   H1   12  -0.162  -0.184   0.037
    1  MOL   H2   13  -0.000  -0.000   0.000
    1  MOL   H3   14   0.338  -0.634  -0.008
    1  MOL   H4   15  -0.086  -0.418   0.042
    1  MOL   H5   16   0.238  -0.049  -0.033
    1  MOL   H6   17   0.099  -0.585   0.025
    1  MOL   H7   18   0.500  -0.451  -0.045
    1  MOL   H8   19   0.464  -0.155   0.031
   13.24400    12.68400     1.91600
