; mobley_7039935_GMX_OPLS.top created by acpype (v: 2023.10.27) on Wed May 20 23:52:10 2026

; Include forcefield parameters
#include "ffoplsaa.itp"

; Include mobley_7039935_GMX.itp topology
#include "mobley_7039935_GMX.itp"

; Ligand position restraints
#ifdef POSRES_LIG
#include "posre_mobley_7039935.itp"
#endif

[ system ]
 mobley_7039935

[ molecules ]
; Compound        nmols
 mobley_7039935   1     
