1_naphthol
    19
  -0.5680000  -2.0630000   0.2280000   0.3420000  -1.0310000   0.0180000
   3.0390000  -5.3110000  -0.1010000  -0.1300000  -3.3870000   0.2510000
   1.6940000  -1.3190000  -0.1680000   1.6870000  -5.0230000   0.0860000
   3.9500000  -4.2790000  -0.3090000   1.2280000  -3.6950000   0.0650000
   2.1530000  -2.6460000  -0.1470000   3.5110000  -2.9550000  -0.3330000
   4.4410000  -1.9760000  -0.5410000  -1.6210000  -1.8370000   0.3720000
  -0.0000000  -0.0000000   0.0010000   3.3810000  -6.3420000  -0.0810000
  -0.8590000  -4.1770000   0.4170000   2.3790000  -0.4890000  -0.3310000
   0.9930000  -5.8450000   0.2470000   5.0010000  -4.5130000  -0.4540000
   4.6430000  -1.5550000   0.3130000
