; mobley_7039935_GMX_OPLS.itp created by acpype (v: 2023.10.27) on Wed May 20 23:52:10 2026

; For OPLS atomtypes manual fine tuning
; AC_at:OPLS_at:OPLScode: Possible_Alternatives (see ffoplsaa.atp and ffoplsaanb.itp)
; ca:CA:opls_145: ['166', '501', '502']
; oh:OH:opls_154: ['167']
; ha:HA:opls_146: []
; ho:HO:opls_155: ['168']

[ moleculetype ]
;name            nrexcl
 mobley_7039935   3

[ atoms ]
;   nr  type  resi  res  atom  cgnr     charge      mass       ; qtot   bond_type
     1 opls_145     1   MOL    C1    1    -0.122000     12.01100 ; qtot -0.122  CA  
     2 opls_145     1   MOL    C2    2    -0.126000     12.01100 ; qtot -0.248  CA  
     3 opls_145     1   MOL    C3    3    -0.092000     12.01100 ; qtot -0.340  CA  
     4 opls_145     1   MOL    C4    4    -0.119000     12.01100 ; qtot -0.459  CA  
     5 opls_145     1   MOL    C5    5    -0.122000     12.01100 ; qtot -0.581  CA  
     6 opls_145     1   MOL    C6    6    -0.155000     12.01100 ; qtot -0.736  CA  
     7 opls_145     1   MOL    C7    7    -0.169000     12.01100 ; qtot -0.905  CA  
     8 opls_145     1   MOL    C8    8    -0.007000     12.01100 ; qtot -0.912  CA  
     9 opls_145     1   MOL    C9    9    -0.088000     12.01100 ; qtot -1.000  CA  
    10 opls_145     1   MOL   C10   10     0.133100     12.01100 ; qtot -0.867  CA  
    11 opls_154     1   MOL    O1   11    -0.499100     15.99940 ; qtot -1.366  OH  
    12 opls_146     1   MOL    H1   12     0.134000      1.00800 ; qtot -1.232  HA  
    13 opls_146     1   MOL    H2   13     0.134000      1.00800 ; qtot -1.098  HA  
    14 opls_146     1   MOL    H3   14     0.135000      1.00800 ; qtot -0.963  HA  
    15 opls_146     1   MOL    H4   15     0.135000      1.00800 ; qtot -0.828  HA  
    16 opls_146     1   MOL    H5   16     0.122000      1.00800 ; qtot -0.706  HA  
    17 opls_146     1   MOL    H6   17     0.135000      1.00800 ; qtot -0.571  HA  
    18 opls_146     1   MOL    H7   18     0.151000      1.00800 ; qtot -0.420  HA  
    19 opls_155     1   MOL    H8   19     0.420000      1.00800 ; qtot -0.000  HO  

[ bonds ]
;   ai     aj funct   r             k
     1      2   1 ;    1.3986e-01    2.9644e+05 ;     C1 - C2         CA - CA    
     1      4   1 ;    1.3986e-01    2.9644e+05 ;     C1 - C4         CA - CA    
     1     12   1 ;    1.0860e-01    3.0183e+05 ;     C1 - H1         CA - HA    
     2      5   1 ;    1.3986e-01    2.9644e+05 ;     C2 - C5         CA - CA    
     2     13   1 ;    1.0860e-01    3.0183e+05 ;     C2 - H2         CA - HA    
     3      6   1 ;    1.3986e-01    2.9644e+05 ;     C3 - C6         CA - CA    
     3      7   1 ;    1.3986e-01    2.9644e+05 ;     C3 - C7         CA - CA    
     3     14   1 ;    1.0860e-01    3.0183e+05 ;     C3 - H3         CA - HA    
     4      8   1 ;    1.3986e-01    2.9644e+05 ;     C4 - C8         CA - CA    
     4     15   1 ;    1.0860e-01    3.0183e+05 ;     C4 - H4         CA - HA    
     5      9   1 ;    1.3986e-01    2.9644e+05 ;     C5 - C9         CA - CA    
     5     16   1 ;    1.0860e-01    3.0183e+05 ;     C5 - H5         CA - HA    
     6      8   1 ;    1.3986e-01    2.9644e+05 ;     C6 - C8         CA - CA    
     6     17   1 ;    1.0860e-01    3.0183e+05 ;     C6 - H6         CA - HA    
     7     10   1 ;    1.3986e-01    2.9644e+05 ;     C7 - C10        CA - CA    
     7     18   1 ;    1.0860e-01    3.0183e+05 ;     C7 - H7         CA - HA    
     8      9   1 ;    1.3986e-01    2.9644e+05 ;     C8 - C9         CA - CA    
     9     10   1 ;    1.3986e-01    2.9644e+05 ;     C9 - C10        CA - CA    
    10     11   1 ;    1.3644e-01    2.9167e+05 ;    C10 - O1         CA - OH    
    11     19   1 ;    9.7250e-02    4.4811e+05 ;     O1 - H8         OH - HO    

[ pairs ]
;   ai     aj    funct
     1      6      1 ;     C1 - C6    
     1      9      1 ;     C1 - C9    
     1     16      1 ;     C1 - H5    
     2      8      1 ;     C2 - C8    
     2     10      1 ;     C2 - C10   
     2     15      1 ;     C2 - H4    
     3      4      1 ;     C3 - C4    
     3      9      1 ;     C3 - C9    
     3     11      1 ;     C3 - O1    
     4      5      1 ;     C4 - C5    
     4     10      1 ;     C4 - C10   
     4     13      1 ;     C4 - H2    
     4     17      1 ;     C4 - H6    
     5      6      1 ;     C5 - C6    
     5      7      1 ;     C5 - C7    
     5     11      1 ;     C5 - O1    
     6     10      1 ;     C6 - C10   
     6     15      1 ;     C6 - H4    
     6     18      1 ;     C6 - H7    
     7      8      1 ;     C7 - C8    
     7     17      1 ;     C7 - H6    
     7     19      1 ;     C7 - H8    
     8     11      1 ;     C8 - O1    
     8     14      1 ;     C8 - H3    
     8     16      1 ;     C8 - H5    
     9     13      1 ;     C9 - H2    
     9     15      1 ;     C9 - H4    
     9     17      1 ;     C9 - H6    
     9     18      1 ;     C9 - H7    
     9     19      1 ;     C9 - H8    
    10     14      1 ;    C10 - H3    
    10     16      1 ;    C10 - H5    
    11     18      1 ;     O1 - H7    
    12      5      1 ;     H1 - C5    
    12      8      1 ;     H1 - C8    
    12     13      1 ;     H1 - H2    
    12     15      1 ;     H1 - H4    
    13     16      1 ;     H2 - H5    
    14     17      1 ;     H3 - H6    
    14     18      1 ;     H3 - H7    

[ angles ]
;   ai     aj     ak    funct   theta         cth
     1      2      5      1 ;    1.2002e+02    5.3279e+02 ;     C1 - C2   - C5       CA -   CA - CA  
     1      2     13      1 ;    1.1988e+02    3.7572e+02 ;     C1 - C2   - H2       CA -   CA - HA  
     1      4      8      1 ;    1.2002e+02    5.3279e+02 ;     C1 - C4   - C8       CA -   CA - CA  
     1      4     15      1 ;    1.1988e+02    3.7572e+02 ;     C1 - C4   - H4       CA -   CA - HA  
     2      1      4      1 ;    1.2002e+02    5.3279e+02 ;     C2 - C1   - C4       CA -   CA - CA  
     2      1     12      1 ;    1.1988e+02    3.7572e+02 ;     C2 - C1   - H1       CA -   CA - HA  
     2      5      9      1 ;    1.2002e+02    5.3279e+02 ;     C2 - C5   - C9       CA -   CA - CA  
     2      5     16      1 ;    1.1988e+02    3.7572e+02 ;     C2 - C5   - H5       CA -   CA - HA  
     3      6      8      1 ;    1.2002e+02    5.3279e+02 ;     C3 - C6   - C8       CA -   CA - CA  
     3      6     17      1 ;    1.1988e+02    3.7572e+02 ;     C3 - C6   - H6       CA -   CA - HA  
     3      7     10      1 ;    1.2002e+02    5.3279e+02 ;     C3 - C7   - C10      CA -   CA - CA  
     3      7     18      1 ;    1.1988e+02    3.7572e+02 ;     C3 - C7   - H7       CA -   CA - HA  
     4      1     12      1 ;    1.1988e+02    3.7572e+02 ;     C4 - C1   - H1       CA -   CA - HA  
     4      8      6      1 ;    1.2002e+02    5.3279e+02 ;     C4 - C8   - C6       CA -   CA - CA  
     4      8      9      1 ;    1.2002e+02    5.3279e+02 ;     C4 - C8   - C9       CA -   CA - CA  
     5      2     13      1 ;    1.1988e+02    3.7572e+02 ;     C5 - C2   - H2       CA -   CA - HA  
     5      9      8      1 ;    1.2002e+02    5.3279e+02 ;     C5 - C9   - C8       CA -   CA - CA  
     5      9     10      1 ;    1.2002e+02    5.3279e+02 ;     C5 - C9   - C10      CA -   CA - CA  
     6      3      7      1 ;    1.2002e+02    5.3279e+02 ;     C6 - C3   - C7       CA -   CA - CA  
     6      3     14      1 ;    1.1988e+02    3.7572e+02 ;     C6 - C3   - H3       CA -   CA - HA  
     6      8      9      1 ;    1.2002e+02    5.3279e+02 ;     C6 - C8   - C9       CA -   CA - CA  
     7      3     14      1 ;    1.1988e+02    3.7572e+02 ;     C7 - C3   - H3       CA -   CA - HA  
     7     10      9      1 ;    1.2002e+02    5.3279e+02 ;     C7 - C10  - C9       CA -   CA - CA  
     7     10     11      1 ;    1.1990e+02    6.5990e+02 ;     C7 - C10  - O1       CA -   CA - OH  
     8      4     15      1 ;    1.1988e+02    3.7572e+02 ;     C8 - C4   - H4       CA -   CA - HA  
     8      6     17      1 ;    1.1988e+02    3.7572e+02 ;     C8 - C6   - H6       CA -   CA - HA  
     8      9     10      1 ;    1.2002e+02    5.3279e+02 ;     C8 - C9   - C10      CA -   CA - CA  
     9      5     16      1 ;    1.1988e+02    3.7572e+02 ;     C9 - C5   - H5       CA -   CA - HA  
     9     10     11      1 ;    1.1990e+02    6.5990e+02 ;     C9 - C10  - O1       CA -   CA - OH  
    10      7     18      1 ;    1.1988e+02    3.7572e+02 ;    C10 - C7   - H7       CA -   CA - HA  
    10     11     19      1 ;    1.0858e+02    5.6409e+02 ;    C10 - O1   - H8       CA -   OH - HO  

[ dihedrals ] ; propers
; for gromacs 4.5 or higher, using funct 9
;    i      j      k      l   func   phase     kd      pn
     1      2      5      9      9 ;   180.00  15.16700   2 ;     C1-    C2-    C5-    C9
     1      2      5     16      9 ;   180.00  15.16700   2 ;     C1-    C2-    C5-    H5
     1      4      8      6      9 ;   180.00  15.16700   2 ;     C1-    C4-    C8-    C6
     1      4      8      9      9 ;   180.00  15.16700   2 ;     C1-    C4-    C8-    C9
     2      1      4      8      9 ;   180.00  15.16700   2 ;     C2-    C1-    C4-    C8
     2      1      4     15      9 ;   180.00  15.16700   2 ;     C2-    C1-    C4-    H4
     2      5      9      8      9 ;   180.00  15.16700   2 ;     C2-    C5-    C9-    C8
     2      5      9     10      9 ;   180.00  15.16700   2 ;     C2-    C5-    C9-   C10
     3      6      8      4      9 ;   180.00  15.16700   2 ;     C3-    C6-    C8-    C4
     3      6      8      9      9 ;   180.00  15.16700   2 ;     C3-    C6-    C8-    C9
     3      7     10      9      9 ;   180.00  15.16700   2 ;     C3-    C7-   C10-    C9
     3      7     10     11      9 ;   180.00  15.16700   2 ;     C3-    C7-   C10-    O1
     4      1      2      5      9 ;   180.00  15.16700   2 ;     C4-    C1-    C2-    C5
     4      1      2     13      9 ;   180.00  15.16700   2 ;     C4-    C1-    C2-    H2
     4      8      6     17      9 ;   180.00  15.16700   2 ;     C4-    C8-    C6-    H6
     4      8      9      5      9 ;   180.00  15.16700   2 ;     C4-    C8-    C9-    C5
     4      8      9     10      9 ;   180.00  15.16700   2 ;     C4-    C8-    C9-   C10
     5      9      8      6      9 ;   180.00  15.16700   2 ;     C5-    C9-    C8-    C6
     5      9     10      7      9 ;   180.00  15.16700   2 ;     C5-    C9-   C10-    C7
     5      9     10     11      9 ;   180.00  15.16700   2 ;     C5-    C9-   C10-    O1
     6      3      7     10      9 ;   180.00  15.16700   2 ;     C6-    C3-    C7-   C10
     6      3      7     18      9 ;   180.00  15.16700   2 ;     C6-    C3-    C7-    H7
     6      8      4     15      9 ;   180.00  15.16700   2 ;     C6-    C8-    C4-    H4
     6      8      9     10      9 ;   180.00  15.16700   2 ;     C6-    C8-    C9-   C10
     7      3      6      8      9 ;   180.00  15.16700   2 ;     C7-    C3-    C6-    C8
     7      3      6     17      9 ;   180.00  15.16700   2 ;     C7-    C3-    C6-    H6
     7     10      9      8      9 ;   180.00  15.16700   2 ;     C7-   C10-    C9-    C8
     7     10     11     19      9 ;   180.00   3.57732   2 ;     C7-   C10-    O1-    H8
     8      6      3     14      9 ;   180.00  15.16700   2 ;     C8-    C6-    C3-    H3
     8      9      5     16      9 ;   180.00  15.16700   2 ;     C8-    C9-    C5-    H5
     8      9     10     11      9 ;   180.00  15.16700   2 ;     C8-    C9-   C10-    O1
     9      5      2     13      9 ;   180.00  15.16700   2 ;     C9-    C5-    C2-    H2
     9      8      4     15      9 ;   180.00  15.16700   2 ;     C9-    C8-    C4-    H4
     9      8      6     17      9 ;   180.00  15.16700   2 ;     C9-    C8-    C6-    H6
     9     10      7     18      9 ;   180.00  15.16700   2 ;     C9-   C10-    C7-    H7
     9     10     11     19      9 ;   180.00   3.57732   2 ;     C9-   C10-    O1-    H8
    10      7      3     14      9 ;   180.00  15.16700   2 ;    C10-    C7-    C3-    H3
    10      9      5     16      9 ;   180.00  15.16700   2 ;    C10-    C9-    C5-    H5
    11     10      7     18      9 ;   180.00  15.16700   2 ;     O1-   C10-    C7-    H7
    12      1      2      5      9 ;   180.00  15.16700   2 ;     H1-    C1-    C2-    C5
    12      1      2     13      9 ;   180.00  15.16700   2 ;     H1-    C1-    C2-    H2
    12      1      4      8      9 ;   180.00  15.16700   2 ;     H1-    C1-    C4-    C8
    12      1      4     15      9 ;   180.00  15.16700   2 ;     H1-    C1-    C4-    H4
    13      2      5     16      9 ;   180.00  15.16700   2 ;     H2-    C2-    C5-    H5
    14      3      6     17      9 ;   180.00  15.16700   2 ;     H3-    C3-    C6-    H6
    14      3      7     18      9 ;   180.00  15.16700   2 ;     H3-    C3-    C7-    H7

[ dihedrals ] ; impropers
; treated as propers in GROMACS to use correct AMBER analytical function
;    i      j      k      l   func   phase     kd      pn
     1      5      2     13      4 ;   180.00   4.60240   2 ;     C1-    C5-    C2-    H2
     1      8      4     15      4 ;   180.00   4.60240   2 ;     C1-    C8-    C4-    H4
     2      9      5     16      4 ;   180.00   4.60240   2 ;     C2-    C9-    C5-    H5
     3      8      6     17      4 ;   180.00   4.60240   2 ;     C3-    C8-    C6-    H6
     3     10      7     18      4 ;   180.00   4.60240   2 ;     C3-   C10-    C7-    H7
     4      6      8      9      4 ;   180.00   4.60240   2 ;     C4-    C6-    C8-    C9
     5      8      9     10      4 ;   180.00   4.60240   2 ;     C5-    C8-    C9-   C10
     6      7      3     14      4 ;   180.00   4.60240   2 ;     C6-    C7-    C3-    H3
     7      9     10     11      4 ;   180.00   4.60240   2 ;     C7-    C9-   C10-    O1
    12      1      4      2      4 ;   180.00   4.60240   2 ;     H1-    C1-    C4-    C2
