mobley_1650157_GMX.gro created by acpype (v: 2023.10.27) on Wed May 20 23:59:27 2026
   15
    1MOL     C1    1   2.104   2.242   2.130
    1MOL     C2    2   2.314   2.318   2.247
    1MOL     C3    3   2.271   2.073   2.212
    1MOL     C4    4   2.207   2.209   2.238
    1MOL     O1    5   2.140   2.204   2.364
    1MOL     H1    6   2.055   2.338   2.151
    1MOL     H2    7   2.151   2.249   2.031
    1MOL     H3    8   2.025   2.167   2.126
    1MOL     H4    9   2.385   2.297   2.327
    1MOL     H5   10   2.269   2.415   2.270
    1MOL     H6   11   2.370   2.327   2.153
    1MOL     H7   12   2.196   1.994   2.210
    1MOL     H8   13   2.326   2.072   2.117
    1MOL     H9   14   2.341   2.047   2.293
    1MOL    H10   15   2.085   2.284   2.369
   4.43232   4.43232   4.43232
