mobley_5690766_GMX.gro created by acpype (v: 2023.10.27) on Thu May 21 00:04:32 2026
 16
    1  MOL   C1    1  -0.628   0.276   0.198
    1  MOL   C2    2  -0.203   0.372   0.174
    1  MOL   C3    3  -0.555   0.270   0.086
    1  MOL   C4    4  -0.259   0.251   0.161
    1  MOL   C5    5  -0.465   0.156   0.050
    1  MOL   C6    6  -0.319   0.200   0.033
    1  MOL   H1    7  -0.693   0.360   0.220
    1  MOL   H2    8  -0.625   0.195   0.270
    1  MOL   H3    9  -0.161   0.405   0.268
    1  MOL   H4   10  -0.199   0.441   0.090
    1  MOL   H5   11  -0.563   0.352   0.015
    1  MOL   H6   12  -0.260   0.185   0.247
    1  MOL   H7   13  -0.500   0.114  -0.045
    1  MOL   H8   14  -0.471   0.076   0.125
    1  MOL   H9   15  -0.311   0.275  -0.047
    1  MOL  H10   16  -0.260   0.113   0.001
   10.64200     7.29400     6.33000
