hexa_15_diene
    16
  -6.2840000   2.7560000   1.9800000  -2.0320000   3.7240000   1.7420000
  -5.5550000   2.7020000   0.8590000  -2.5850000   2.5130000   1.6110000
  -4.6460000   1.5610000   0.5030000  -3.1870000   2.0000000   0.3340000
  -6.9290000   3.6000000   2.1970000  -6.2450000   1.9460000   2.7000000
  -1.6080000   4.0550000   2.6840000  -1.9940000   4.4050000   0.8990000
  -5.6260000   3.5240000   0.1520000  -2.5970000   1.8490000   2.4710000
  -4.9960000   1.1360000  -0.4450000  -4.7130000   0.7580000   1.2480000
  -3.1100000   2.7470000  -0.4650000  -2.5960000   1.1340000   0.0090000
