; mobley_5690766_GMX_OPLS.top created by acpype (v: 2023.10.27) on Thu May 21 00:04:32 2026

; Include forcefield parameters
#include "ffoplsaa.itp"

; Include mobley_5690766_GMX.itp topology
#include "mobley_5690766_GMX.itp"

; Ligand position restraints
#ifdef POSRES_LIG
#include "posre_mobley_5690766.itp"
#endif

[ system ]
 mobley_5690766

[ molecules ]
; Compound        nmols
 mobley_5690766   1     
