; mobley_5690766_GMX_OPLS.itp created by acpype (v: 2023.10.27) on Thu May 21 00:04:32 2026

; For OPLS atomtypes manual fine tuning
; AC_at:OPLS_at:OPLScode: Possible_Alternatives (see ffoplsaa.atp and ffoplsaanb.itp)
; c2:CR:opls_509: ['510']
; c3:CT:opls_135: ['136', '137', '149', '157', '158', '206', '209', '210', '223B', '224B', '245', '246', '274', '283', '284', '285', '292', '292B', '293B', '296', '307', '308', '505']
; ha:HA:opls_146: []
; hc:HC:opls_140: []

[ moleculetype ]
;name            nrexcl
 mobley_5690766   3

[ atoms ]
;   nr  type  resi  res  atom  cgnr     charge      mass       ; qtot   bond_type
     1 opls_509     1   MOL    C1    1    -0.225000     12.01100 ; qtot -0.225  CR  
     2 opls_509     1   MOL    C2    2    -0.225000     12.01100 ; qtot -0.450  CR  
     3 opls_509     1   MOL    C3    3    -0.160200     12.01100 ; qtot -0.610  CR  
     4 opls_509     1   MOL    C4    4    -0.160200     12.01100 ; qtot -0.770  CR  
     5 opls_135     1   MOL    C5    5    -0.048200     12.01100 ; qtot -0.819  CT  
     6 opls_135     1   MOL    C6    6    -0.048200     12.01100 ; qtot -0.867  CT  
     7 opls_146     1   MOL    H1    7     0.110000      1.00800 ; qtot -0.757  HA  
     8 opls_146     1   MOL    H2    8     0.110000      1.00800 ; qtot -0.647  HA  
     9 opls_146     1   MOL    H3    9     0.110000      1.00800 ; qtot -0.537  HA  
    10 opls_146     1   MOL    H4   10     0.110000      1.00800 ; qtot -0.427  HA  
    11 opls_146     1   MOL    H5   11     0.120000      1.00800 ; qtot -0.307  HA  
    12 opls_146     1   MOL    H6   12     0.120000      1.00800 ; qtot -0.187  HA  
    13 opls_140     1   MOL    H7   13     0.046700      1.00800 ; qtot -0.140  HC  
    14 opls_140     1   MOL    H8   14     0.046700      1.00800 ; qtot -0.093  HC  
    15 opls_140     1   MOL    H9   15     0.046700      1.00800 ; qtot -0.047  HC  
    16 opls_140     1   MOL   H10   16     0.046700      1.00800 ; qtot -0.000  HC  

[ bonds ]
;   ai     aj funct   r             k
     1      3   1 ;    1.3379e-01    3.6484e+05 ;     C1 - C3         CR - CR    
     1      7   1 ;    1.0882e-01    2.9898e+05 ;     C1 - H1         CR - HA    
     1      8   1 ;    1.0882e-01    2.9898e+05 ;     C1 - H2         CR - HA    
     2      4   1 ;    1.3379e-01    3.6484e+05 ;     C2 - C4         CR - CR    
     2      9   1 ;    1.0882e-01    2.9898e+05 ;     C2 - H3         CR - HA    
     2     10   1 ;    1.0882e-01    2.9898e+05 ;     C2 - H4         CR - HA    
     3      5   1 ;    1.5088e-01    2.0786e+05 ;     C3 - C5         CR - CT    
     3     11   1 ;    1.0882e-01    2.9898e+05 ;     C3 - H5         CR - HA    
     4      6   1 ;    1.5088e-01    2.0786e+05 ;     C4 - C6         CR - CT    
     4     12   1 ;    1.0882e-01    2.9898e+05 ;     C4 - H6         CR - HA    
     5      6   1 ;    1.5354e-01    1.9154e+05 ;     C5 - C6         CT - CT    
     5     13   1 ;    1.0962e-01    2.8891e+05 ;     C5 - H7         CT - HC    
     5     14   1 ;    1.0962e-01    2.8891e+05 ;     C5 - H8         CT - HC    
     6     15   1 ;    1.0962e-01    2.8891e+05 ;     C6 - H9         CT - HC    
     6     16   1 ;    1.0962e-01    2.8891e+05 ;     C6 - H10        CT - HC    

[ pairs ]
;   ai     aj    funct
     1      6      1 ;     C1 - C6    
     1     13      1 ;     C1 - H7    
     1     14      1 ;     C1 - H8    
     2      5      1 ;     C2 - C5    
     2     15      1 ;     C2 - H9    
     2     16      1 ;     C2 - H10   
     3      4      1 ;     C3 - C4    
     3     15      1 ;     C3 - H9    
     3     16      1 ;     C3 - H10   
     4     13      1 ;     C4 - H7    
     4     14      1 ;     C4 - H8    
     5     12      1 ;     C5 - H6    
     6      9      1 ;     C6 - H3    
     6     10      1 ;     C6 - H4    
     6     11      1 ;     C6 - H5    
     7      5      1 ;     H1 - C5    
     7     11      1 ;     H1 - H5    
     8      5      1 ;     H2 - C5    
     8     11      1 ;     H2 - H5    
     9     12      1 ;     H3 - H6    
    10     12      1 ;     H4 - H6    
    11     13      1 ;     H5 - H7    
    11     14      1 ;     H5 - H8    
    12     15      1 ;     H6 - H9    
    12     16      1 ;     H6 - H10   
    13     15      1 ;     H7 - H9    
    13     16      1 ;     H7 - H10   
    14     15      1 ;     H8 - H9    
    14     16      1 ;     H8 - H10   

[ angles ]
;   ai     aj     ak    funct   theta         cth
     1      3      5      1 ;    1.2495e+02    5.0944e+02 ;     C1 - C3   - C5       CR -   CR - CT  
     1      3     11      1 ;    1.2039e+02    3.8802e+02 ;     C1 - C3   - H5       CR -   CR - HA  
     2      4      6      1 ;    1.2495e+02    5.0944e+02 ;     C2 - C4   - C6       CR -   CR - CT  
     2      4     12      1 ;    1.2039e+02    3.8802e+02 ;     C2 - C4   - H6       CR -   CR - HA  
     3      1      7      1 ;    1.2039e+02    3.8802e+02 ;     C3 - C1   - H1       CR -   CR - HA  
     3      1      8      1 ;    1.2039e+02    3.8802e+02 ;     C3 - C1   - H2       CR -   CR - HA  
     3      5      6      1 ;    1.1258e+02    5.0543e+02 ;     C3 - C5   - C6       CR -   CT - CT  
     3      5     13      1 ;    1.1065e+02    3.6618e+02 ;     C3 - C5   - H7       CR -   CT - HC  
     3      5     14      1 ;    1.1065e+02    3.6618e+02 ;     C3 - C5   - H8       CR -   CT - HC  
     4      2      9      1 ;    1.2039e+02    3.8802e+02 ;     C4 - C2   - H3       CR -   CR - HA  
     4      2     10      1 ;    1.2039e+02    3.8802e+02 ;     C4 - C2   - H4       CR -   CR - HA  
     4      6      5      1 ;    1.1258e+02    5.0543e+02 ;     C4 - C6   - C5       CR -   CT - CT  
     4      6     15      1 ;    1.1065e+02    3.6618e+02 ;     C4 - C6   - H9       CR -   CT - HC  
     4      6     16      1 ;    1.1065e+02    3.6618e+02 ;     C4 - C6   - H10      CR -   CT - HC  
     5      3     11      1 ;    1.1505e+02    3.5941e+02 ;     C5 - C3   - H5       CT -   CR - HA  
     5      6     15      1 ;    1.0968e+02    3.6208e+02 ;     C5 - C6   - H9       CT -   CT - HC  
     5      6     16      1 ;    1.0968e+02    3.6208e+02 ;     C5 - C6   - H10      CT -   CT - HC  
     6      4     12      1 ;    1.1505e+02    3.5941e+02 ;     C6 - C4   - H6       CT -   CR - HA  
     6      5     13      1 ;    1.0968e+02    3.6208e+02 ;     C6 - C5   - H7       CT -   CT - HC  
     6      5     14      1 ;    1.0968e+02    3.6208e+02 ;     C6 - C5   - H8       CT -   CT - HC  
     7      1      8      1 ;    1.1666e+02    2.9003e+02 ;     H1 - C1   - H2       HA -   CR - HA  
     9      2     10      1 ;    1.1666e+02    2.9003e+02 ;     H3 - C2   - H4       HA -   CR - HA  
    13      5     14      1 ;    1.0773e+02    2.9957e+02 ;     H7 - C5   - H8       HC -   CT - HC  
    15      6     16      1 ;    1.0773e+02    2.9957e+02 ;     H9 - C6   - H10      HC -   CT - HC  

[ dihedrals ] ; propers
; for gromacs 4.5 or higher, using funct 9
;    i      j      k      l   func   phase     kd      pn
     1      3      5      6      9 ;     0.00   0.00000   0 ;     C1-    C3-    C5-    C6
     1      3      5     13      9 ;   180.00   1.08784   3 ;     C1-    C3-    C5-    H7
     1      3      5     14      9 ;   180.00   1.08784   3 ;     C1-    C3-    C5-    H8
     2      4      6      5      9 ;     0.00   0.00000   0 ;     C2-    C4-    C6-    C5
     2      4      6     15      9 ;   180.00   1.08784   3 ;     C2-    C4-    C6-    H9
     2      4      6     16      9 ;   180.00   1.08784   3 ;     C2-    C4-    C6-   H10
     3      5      6      4      9 ;     0.00   0.65084   3 ;     C3-    C5-    C6-    C4
     3      5      6     15      9 ;     0.00   0.65084   3 ;     C3-    C5-    C6-    H9
     3      5      6     16      9 ;     0.00   0.65084   3 ;     C3-    C5-    C6-   H10
     4      6      5     13      9 ;     0.00   0.65084   3 ;     C4-    C6-    C5-    H7
     4      6      5     14      9 ;     0.00   0.65084   3 ;     C4-    C6-    C5-    H8
     5      6      4     12      9 ;     0.00   0.00000   0 ;     C5-    C6-    C4-    H6
     6      4      2      9      9 ;   180.00  27.82360   2 ;     C6-    C4-    C2-    H3
     6      4      2     10      9 ;   180.00  27.82360   2 ;     C6-    C4-    C2-    H4
     6      5      3     11      9 ;     0.00   0.00000   0 ;     C6-    C5-    C3-    H5
     7      1      3      5      9 ;   180.00  27.82360   2 ;     H1-    C1-    C3-    C5
     7      1      3     11      9 ;   180.00  27.82360   2 ;     H1-    C1-    C3-    H5
     8      1      3      5      9 ;   180.00  27.82360   2 ;     H2-    C1-    C3-    C5
     8      1      3     11      9 ;   180.00  27.82360   2 ;     H2-    C1-    C3-    H5
     9      2      4     12      9 ;   180.00  27.82360   2 ;     H3-    C2-    C4-    H6
    10      2      4     12      9 ;   180.00  27.82360   2 ;     H4-    C2-    C4-    H6
    11      3      5     13      9 ;     0.00   0.00000   0 ;     H5-    C3-    C5-    H7
    11      3      5     14      9 ;     0.00   0.00000   0 ;     H5-    C3-    C5-    H8
    12      4      6     15      9 ;     0.00   0.00000   0 ;     H6-    C4-    C6-    H9
    12      4      6     16      9 ;     0.00   0.00000   0 ;     H6-    C4-    C6-   H10
    13      5      6     15      9 ;     0.00   0.50208   3 ;     H7-    C5-    C6-    H9
    13      5      6     16      9 ;     0.00   0.50208   3 ;     H7-    C5-    C6-   H10
    14      5      6     15      9 ;     0.00   0.50208   3 ;     H8-    C5-    C6-    H9
    14      5      6     16      9 ;     0.00   0.50208   3 ;     H8-    C5-    C6-   H10

[ dihedrals ] ; impropers
; treated as propers in GROMACS to use correct AMBER analytical function
;    i      j      k      l   func   phase     kd      pn
     1      5      3     11      4 ;   180.00   4.60240   2 ;     C1-    C5-    C3-    H5
     2      6      4     12      4 ;   180.00   4.60240   2 ;     C2-    C6-    C4-    H6
     4      9      2     10      4 ;   180.00   4.60240   2 ;     C4-    H3-    C2-    H4
     8      1      7      3      4 ;   180.00   4.60240   2 ;     H2-    C1-    H1-    C3
