1_nitropropane
    13
  -0.2800000  -0.7280000   0.7680000   0.5920000  -0.5780000   2.0040000
   0.4520000   0.8070000   2.6090000   1.2710000   0.8520000   3.8320000
   0.7260000   0.5470000   4.9070000   2.4660000   1.1770000   3.7110000
  -1.3370000  -0.5810000   1.0130000   0.0000000  -0.0000000   0.0000000
  -0.1660000  -1.7310000   0.3430000   1.6370000  -0.7710000   1.7330000
   0.3110000  -1.3440000   2.7380000  -0.5740000   1.0310000   2.9140000
   0.8310000   1.5930000   1.9510000
