mobley_9671033_GMX.gro created by acpype (v: 2023.10.27) on Wed May 20 23:44:04 2026
 13
    1  MOL   C1    1  -0.028  -0.073   0.077
    1  MOL   C2    2   0.059  -0.058   0.200
    1  MOL   C3    3   0.045   0.081   0.261
    1  MOL   N1    4   0.127   0.085   0.383
    1  MOL   O1    5   0.073   0.055   0.491
    1  MOL   O2    6   0.247   0.118   0.371
    1  MOL   H1    7  -0.134  -0.058   0.101
    1  MOL   H2    8   0.000  -0.000   0.000
    1  MOL   H3    9  -0.017  -0.173   0.034
    1  MOL   H4   10   0.164  -0.077   0.173
    1  MOL   H5   11   0.031  -0.134   0.274
    1  MOL   H6   12  -0.057   0.103   0.291
    1  MOL   H7   13   0.083   0.159   0.195
    7.60600     6.64800     9.81400
