%VERSION  VERSION_STAMP = V0001.000  DATE = 05/20/26  23:45:14                  
%FLAG TITLE                                                                     
%FORMAT(20a4)                                                                   
cyclohepta_135_triene                                                           
%FLAG POINTERS                                                                  
%FORMAT(10I8)                                                                   
      15       4       8       7      17       7      31       7       0       0
      72       1       7       7       7      10      18       4       6       0
       0       0       0       0       0       0       0       0      15       0
       0
%FLAG ATOM_NAME                                                                 
%FORMAT(20a4)                                                                   
C1  C2  C3  C4  C5  C6  C7  H1  H2  H3  H4  H5  H6  H7  H8  
%FLAG CHARGE                                                                    
%FORMAT(5E16.8)                                                                 
 -2.27778750E+00 -2.27778750E+00 -2.56934430E+00 -2.56934430E+00 -2.64587796E+00
 -2.64587796E+00 -3.09779100E-01  2.22312060E+00  2.22312060E+00  2.25956520E+00
  2.25956520E+00  2.20489830E+00  2.20489830E+00  9.42092910E-01  9.42092910E-01
%FLAG ATOMIC_NUMBER                                                             
%FORMAT(10I8)                                                                   
       6       6       6       6       6       6       6       1       1       1
       1       1       1       1       1
%FLAG MASS                                                                      
%FORMAT(5E16.8)                                                                 
  1.20100000E+01  1.20100000E+01  1.20100000E+01  1.20100000E+01  1.20100000E+01
  1.20100000E+01  1.20100000E+01  1.00800000E+00  1.00800000E+00  1.00800000E+00
  1.00800000E+00  1.00800000E+00  1.00800000E+00  1.00800000E+00  1.00800000E+00
%FLAG ATOM_TYPE_INDEX                                                           
%FORMAT(10I8)                                                                   
       1       1       1       1       1       1       2       3       3       3
       3       3       3       4       4
%FLAG NUMBER_EXCLUDED_ATOMS                                                     
%FORMAT(10I8)                                                                   
      11      10      10       9       8       7       6       2       1       1
       1       2       2       1       1
%FLAG NONBONDED_PARM_INDEX                                                      
%FORMAT(10I8)                                                                   
       1       2       4       7       2       3       5       8       4       5
       6       9       7       8       9      10
%FLAG RESIDUE_LABEL                                                             
%FORMAT(20a4)                                                                   
MOL 
%FLAG RESIDUE_POINTER                                                           
%FORMAT(10I8)                                                                   
       1
%FLAG BOND_FORCE_CONSTANT                                                       
%FORMAT(5E16.8)                                                                 
  4.09280000E+02  2.88330000E+02  3.57590000E+02  2.97840000E+02  3.56820000E+02
  4.24300000E+02  4.21360000E+02  2.48400000E+02  3.57290000E+02  3.45250000E+02
%FLAG BOND_EQUIL_VALUE                                                          
%FORMAT(5E16.8)                                                                 
  1.35610000E+00  1.46150000E+00  1.08800000E+00  1.45140000E+00  1.08850000E+00
  1.34570000E+00  1.34770000E+00  1.50880000E+00  1.08820000E+00  1.09620000E+00
%FLAG ANGLE_FORCE_CONSTANT                                                      
%FORMAT(5E16.8)                                                                 
  6.22000000E+01  4.63300000E+01  6.24000000E+01  4.38700000E+01  6.19500000E+01
  4.62800000E+01  6.25700000E+01  4.41100000E+01  6.06000000E+01  4.61500000E+01
  6.06900000E+01  4.63200000E+01  4.62400000E+01  6.11400000E+01  4.37600000E+01
  4.64000000E+01  4.29500000E+01  3.58000000E+01
%FLAG ANGLE_EQUIL_VALUE                                                         
%FORMAT(5E16.8)                                                                 
  2.16892159E+00  2.06158380E+00  2.15077016E+00  2.03540385E+00  2.16857253E+00
  2.06699432E+00  2.15426082E+00  2.03732371E+00  2.19178541E+00  2.10294812E+00
  2.18305876E+00  2.08287682E+00  2.09439600E+00  1.95215161E+00  1.93120765E+00
  2.07537190E+00  2.00800217E+00  1.88024401E+00
%FLAG DIHEDRAL_FORCE_CONSTANT                                                   
%FORMAT(5E16.8)                                                                 
  1.00000000E+00  6.65000000E+00  0.00000000E+00  1.10000000E+00
%FLAG DIHEDRAL_PERIODICITY                                                      
%FORMAT(5E16.8)                                                                 
  2.00000000E+00  2.00000000E+00  2.00000000E+00  2.00000000E+00
%FLAG DIHEDRAL_PHASE                                                            
%FORMAT(5E16.8)                                                                 
  3.14159400E+00  3.14159400E+00  0.00000000E+00  3.14159400E+00
%FLAG SCEE_SCALE_FACTOR                                                         
%FORMAT(5E16.8)                                                                 
  1.20000000E+00  1.20000000E+00  1.20000000E+00  0.00000000E+00
%FLAG SCNB_SCALE_FACTOR                                                         
%FORMAT(5E16.8)                                                                 
  2.00000000E+00  2.00000000E+00  2.00000000E+00  0.00000000E+00
%FLAG SOLTY                                                                     
%FORMAT(5E16.8)                                                                 
  0.00000000E+00  0.00000000E+00  0.00000000E+00  0.00000000E+00  0.00000000E+00
  0.00000000E+00
%FLAG LENNARD_JONES_ACOEF                                                       
%FORMAT(5E16.8)                                                                 
  6.96551276E+05  8.43969952E+05  1.02073671E+06  7.52549148E+04  9.27554496E+04
  6.90855956E+03  8.12662403E+04  1.00235148E+05  7.41026906E+03  7.94617769E+03
%FLAG LENNARD_JONES_BCOEF                                                       
%FORMAT(5E16.8)                                                                 
  5.24668528E+02  5.90251928E+02  6.63431737E+02  1.09570372E+02  1.24325688E+02
  2.10929191E+01  1.21392023E+02  1.37787728E+02  2.32899892E+01  2.57122925E+01
%FLAG BONDS_INC_HYDROGEN                                                        
%FORMAT(10I8)                                                                   
       0      21       3       3      24       5       6      27       3       9
      30       5      12      33       9      15      36       9      18      39
      10      18      42      10
%FLAG BONDS_WITHOUT_HYDROGEN                                                    
%FORMAT(10I8)                                                                   
       0       3       1       0       6       2       3       9       4       6
      12       6       9      15       7      12      18       8      15      18
       8
%FLAG ANGLES_INC_HYDROGEN                                                       
%FORMAT(10I8)                                                                   
       0       3      24       2       0       6      27       4       3       0
      21       6       3       9      30       8       6       0      21       4
       6      12      33      10       9       3      24       8       9      15
      36      12      12       6      27      13      12      18      39      15
      12      18      42      15      15       9      30      16      15      18
      39      15      15      18      42      15      18      12      33      17
      18      15      36      17      39      18      42      18
%FLAG ANGLES_WITHOUT_HYDROGEN                                                   
%FORMAT(10I8)                                                                   
       0       3       9       1       0       6      12       3       3       0
       6       5       3       9      15       7       6      12      18       9
       9      15      18      11      12      18      15      14
%FLAG DIHEDRALS_INC_HYDROGEN                                                    
%FORMAT(10I8)                                                                   
       0       3       9      30       1       0       6      12      33       2
       3       0       6      27       1       3       9      15      36       2
       6       0       3      24       2       6      12      18      39       3
       6      12      18      42       3      21       0       3       9       2
       9      15      18      39       3       9      15      18      42       3
      21       0       6      12       1      12      18      15      36       3
      15       9       3      24       1      15      18      12      33       3
      18      12       6      27       2      18      15       9      30       2
      21       0       3      24       2      21       0       6      27       1
      24       3       9      30       1      27       6      12      33       2
      30       9      15      36       2      33      12      18      39       3
      33      12      18      42       3      36      15      18      39       3
      36      15      18      42       3      21       0      -3      -6       4
       0       9      -3     -24       4      12       0      -6     -27       4
      15       3      -9     -30       4      18       6     -12     -33       4
      18       9     -15     -36       4
%FLAG DIHEDRALS_WITHOUT_HYDROGEN                                                
%FORMAT(10I8)                                                                   
       0       3       9      15       1       0       6      12      18       2
       3       0       6      12       1       3       9      15      18       2
       6       0       3       9       2       6      12      18      15       3
       9      15      18      12       3
%FLAG EXCLUDED_ATOMS_LIST                                                       
%FORMAT(10I8)                                                                   
       2       3       4       5       6       7       8       9      10      11
      12       3       4       5       6       7       8       9      10      11
      13       4       5       6       7       8       9      10      12      14
      15       5       6       7       8       9      11      13      14      15
       6       7       8      10      12      13      14      15       7       9
      11      12      13      14      15      10      11      12      13      14
      15       9      10      11      12      13      14      15      14      15
      15       0
%FLAG HBOND_ACOEF                                                               
%FORMAT(5E16.8)                                                                 

%FLAG HBOND_BCOEF                                                               
%FORMAT(5E16.8)                                                                 

%FLAG HBCUT                                                                     
%FORMAT(5E16.8)                                                                 

%FLAG AMBER_ATOM_TYPE                                                           
%FORMAT(20a4)                                                                   
ce  cf  ce  cf  c2  c2  c3  ha  ha  ha  ha  ha  ha  hc  hc  
%FLAG TREE_CHAIN_CLASSIFICATION                                                 
%FORMAT(20a4)                                                                   
BLA BLA BLA BLA BLA BLA BLA BLA BLA BLA BLA BLA BLA BLA BLA 
%FLAG JOIN_ARRAY                                                                
%FORMAT(10I8)                                                                   
       0       0       0       0       0       0       0       0       0       0
       0       0       0       0       0
%FLAG IROTAT                                                                    
%FORMAT(10I8)                                                                   
       0       0       0       0       0       0       0       0       0       0
       0       0       0       0       0
%FLAG RADIUS_SET                                                                
%FORMAT(1a80)                                                                   
modified Bondi radii (mbondi)                                                   
%FLAG RADII                                                                     
%FORMAT(5E16.8)                                                                 
  1.70000000E+00  1.70000000E+00  1.70000000E+00  1.70000000E+00  1.70000000E+00
  1.70000000E+00  1.70000000E+00  1.30000000E+00  1.30000000E+00  1.30000000E+00
  1.30000000E+00  1.30000000E+00  1.30000000E+00  1.30000000E+00  1.30000000E+00
%FLAG SCREEN                                                                    
%FORMAT(5E16.8)                                                                 
  7.20000000E-01  7.20000000E-01  7.20000000E-01  7.20000000E-01  7.20000000E-01
  7.20000000E-01  7.20000000E-01  8.50000000E-01  8.50000000E-01  8.50000000E-01
  8.50000000E-01  8.50000000E-01  8.50000000E-01  8.50000000E-01  8.50000000E-01
%FLAG IPOL                                                                      
%FORMAT(1I8)                                                                    
       0
