; mobley_9729792_GMX_OPLS.top created by acpype (v: 2023.10.27) on Wed May 20 23:45:13 2026

; Include forcefield parameters
#include "ffoplsaa.itp"

; Include mobley_9729792_GMX.itp topology
#include "mobley_9729792_GMX.itp"

; Ligand position restraints
#ifdef POSRES_LIG
#include "posre_mobley_9729792.itp"
#endif

[ system ]
 mobley_9729792

[ molecules ]
; Compound        nmols
 mobley_9729792   1     
