cyclohepta_135_triene
    15
   0.7690000   0.7140000   0.2900000   2.0430000   0.3200000   0.1940000
   0.2560000   1.9770000   0.7510000   3.2340000   1.0540000   0.5250000
   0.9100000   3.1330000   0.9140000   3.3730000   2.3700000   0.7270000
   2.3580000   3.4710000   0.7400000   0.0000000   0.0000000  -0.0010000
   2.2280000  -0.6900000  -0.1700000  -0.8170000   1.9780000   0.9390000
   4.1360000   0.4450000   0.5630000   0.3000000   3.9820000   1.2230000
   4.3910000   2.7150000   0.9120000   2.4750000   4.0730000  -0.1690000
   2.6250000   4.1280000   1.5780000
