; mobley_9729792_GMX_OPLS.itp created by acpype (v: 2023.10.27) on Wed May 20 23:45:13 2026

; For OPLS atomtypes manual fine tuning
; AC_at:OPLS_at:OPLScode: Possible_Alternatives (see ffoplsaa.atp and ffoplsaanb.itp)
; ce:x:opls_x: []
; cf:x:opls_x: []
; c2:CR:opls_509: ['510']
; c3:CT:opls_135: ['136', '137', '149', '157', '158', '206', '209', '210', '223B', '224B', '245', '246', '274', '283', '284', '285', '292', '292B', '293B', '296', '307', '308', '505']
; ha:HA:opls_146: []
; hc:HC:opls_140: []

[ moleculetype ]
;name            nrexcl
 mobley_9729792   3

[ atoms ]
;   nr  type  resi  res  atom  cgnr     charge      mass       ; qtot   bond_type
     1 opls_x     1   MOL    C1    1    -0.125000      0.00000 ; qtot -0.125  x   
     2 opls_x     1   MOL    C2    2    -0.125000      0.00000 ; qtot -0.250  x   
     3 opls_x     1   MOL    C3    3    -0.141000      0.00000 ; qtot -0.391  x   
     4 opls_x     1   MOL    C4    4    -0.141000      0.00000 ; qtot -0.532  x   
     5 opls_509     1   MOL    C5    5    -0.144200     12.01100 ; qtot -0.676  CR  
     6 opls_509     1   MOL    C6    6    -0.144200     12.01100 ; qtot -0.820  CR  
     7 opls_135     1   MOL    C7    7    -0.017000     12.01100 ; qtot -0.837  CT  
     8 opls_146     1   MOL    H1    8     0.122000      1.00800 ; qtot -0.715  HA  
     9 opls_146     1   MOL    H2    9     0.122000      1.00800 ; qtot -0.593  HA  
    10 opls_146     1   MOL    H3   10     0.124000      1.00800 ; qtot -0.469  HA  
    11 opls_146     1   MOL    H4   11     0.124000      1.00800 ; qtot -0.345  HA  
    12 opls_146     1   MOL    H5   12     0.121000      1.00800 ; qtot -0.224  HA  
    13 opls_146     1   MOL    H6   13     0.121000      1.00800 ; qtot -0.103  HA  
    14 opls_140     1   MOL    H7   14     0.051700      1.00800 ; qtot -0.052  HC  
    15 opls_140     1   MOL    H8   15     0.051700      1.00800 ; qtot -0.000  HC  

[ bonds ]
;   ai     aj funct   r             k
     1      2   1 ;    1.3561e-01    3.4249e+05 ;     C1 - C2          x - x     
     1      3   1 ;    1.4615e-01    2.4127e+05 ;     C1 - C3          x - x     
     1      8   1 ;    1.0880e-01    2.9923e+05 ;     C1 - H1          x - HA    
     2      4   1 ;    1.4514e-01    2.4923e+05 ;     C2 - C4          x - x     
     2      9   1 ;    1.0885e-01    2.9859e+05 ;     C2 - H2          x - HA    
     3      5   1 ;    1.3457e-01    3.5505e+05 ;     C3 - C5          x - CR    
     3     10   1 ;    1.0880e-01    2.9923e+05 ;     C3 - H3          x - HA    
     4      6   1 ;    1.3477e-01    3.5259e+05 ;     C4 - C6          x - CR    
     4     11   1 ;    1.0885e-01    2.9859e+05 ;     C4 - H4          x - HA    
     5      7   1 ;    1.5088e-01    2.0786e+05 ;     C5 - C7         CR - CT    
     5     12   1 ;    1.0882e-01    2.9898e+05 ;     C5 - H5         CR - HA    
     6      7   1 ;    1.5088e-01    2.0786e+05 ;     C6 - C7         CR - CT    
     6     13   1 ;    1.0882e-01    2.9898e+05 ;     C6 - H6         CR - HA    
     7     14   1 ;    1.0962e-01    2.8891e+05 ;     C7 - H7         CT - HC    
     7     15   1 ;    1.0962e-01    2.8891e+05 ;     C7 - H8         CT - HC    

[ pairs ]
;   ai     aj    funct
     1      6      1 ;     C1 - C6    
     1      7      1 ;     C1 - C7    
     1     11      1 ;     C1 - H4    
     1     12      1 ;     C1 - H5    
     2      5      1 ;     C2 - C5    
     2      7      1 ;     C2 - C7    
     2     10      1 ;     C2 - H3    
     2     13      1 ;     C2 - H6    
     3      4      1 ;     C3 - C4    
     3      6      1 ;     C3 - C6    
     3      9      1 ;     C3 - H2    
     3     14      1 ;     C3 - H7    
     3     15      1 ;     C3 - H8    
     4      5      1 ;     C4 - C5    
     4     14      1 ;     C4 - H7    
     4     15      1 ;     C4 - H8    
     5     13      1 ;     C5 - H6    
     6      9      1 ;     C6 - H2    
     6     12      1 ;     C6 - H5    
     7     10      1 ;     C7 - H3    
     7     11      1 ;     C7 - H4    
     8      4      1 ;     H1 - C4    
     8      5      1 ;     H1 - C5    
     8      9      1 ;     H1 - H2    
     8     10      1 ;     H1 - H3    
     9     11      1 ;     H2 - H4    
    10     12      1 ;     H3 - H5    
    11     13      1 ;     H4 - H6    
    12     14      1 ;     H5 - H7    
    12     15      1 ;     H5 - H8    
    13     14      1 ;     H6 - H7    
    13     15      1 ;     H6 - H8    

[ angles ]
;   ai     aj     ak    funct   theta         cth
     1      2      4      1 ;    1.2427e+02    5.2049e+02 ;     C1 - C2   - C4        x -    x - x   
     1      2      9      1 ;    1.1812e+02    3.8769e+02 ;     C1 - C2   - H2        x -    x - HA  
     1      3      5      1 ;    1.2323e+02    5.2216e+02 ;     C1 - C3   - C5        x -    x - CR  
     1      3     10      1 ;    1.1662e+02    3.6710e+02 ;     C1 - C3   - H3        x -    x - HA  
     2      1      3      1 ;    1.2425e+02    5.1840e+02 ;     C2 - C1   - C3        x -    x - x   
     2      1      8      1 ;    1.1843e+02    3.8727e+02 ;     C2 - C1   - H1        x -    x - HA  
     2      4      6      1 ;    1.2343e+02    5.2359e+02 ;     C2 - C4   - C6        x -    x - CR  
     2      4     11      1 ;    1.1673e+02    3.6911e+02 ;     C2 - C4   - H4        x -    x - HA  
     3      1      8      1 ;    1.1662e+02    3.6710e+02 ;     C3 - C1   - H1        x -    x - HA  
     3      5      7      1 ;    1.2558e+02    5.0710e+02 ;     C3 - C5   - C7        x -   CR - CT  
     3      5     12      1 ;    1.2049e+02    3.8618e+02 ;     C3 - C5   - H5        x -   CR - HA  
     4      2      9      1 ;    1.1673e+02    3.6911e+02 ;     C4 - C2   - H2        x -    x - HA  
     4      6      7      1 ;    1.2508e+02    5.0785e+02 ;     C4 - C6   - C7        x -   CR - CT  
     4      6     13      1 ;    1.1934e+02    3.8761e+02 ;     C4 - C6   - H6        x -   CR - HA  
     5      3     10      1 ;    1.2000e+02    3.8694e+02 ;     C5 - C3   - H3       CR -    x - HA  
     5      7      6      1 ;    1.1185e+02    5.1162e+02 ;     C5 - C7   - C6       CR -   CT - CR  
     5      7     14      1 ;    1.1065e+02    3.6618e+02 ;     C5 - C7   - H7       CR -   CT - HC  
     5      7     15      1 ;    1.1065e+02    3.6618e+02 ;     C5 - C7   - H8       CR -   CT - HC  
     6      4     11      1 ;    1.1891e+02    3.8828e+02 ;     C6 - C4   - H4       CR -    x - HA  
     6      7     14      1 ;    1.1065e+02    3.6618e+02 ;     C6 - C7   - H7       CR -   CT - HC  
     6      7     15      1 ;    1.1065e+02    3.6618e+02 ;     C6 - C7   - H8       CR -   CT - HC  
     7      5     12      1 ;    1.1505e+02    3.5941e+02 ;     C7 - C5   - H5       CT -   CR - HA  
     7      6     13      1 ;    1.1505e+02    3.5941e+02 ;     C7 - C6   - H6       CT -   CR - HA  
    14      7     15      1 ;    1.0773e+02    2.9957e+02 ;     H7 - C7   - H8       HC -   CT - HC  

[ dihedrals ] ; propers
; for gromacs 4.5 or higher, using funct 9
;    i      j      k      l   func   phase     kd      pn
     1      2      4      6      9 ;   180.00   4.18400   2 ;     C1-    C2-    C4-    C6
     1      2      4     11      9 ;   180.00   4.18400   2 ;     C1-    C2-    C4-    H4
     1      3      5      7      9 ;   180.00  27.82360   2 ;     C1-    C3-    C5-    C7
     1      3      5     12      9 ;   180.00  27.82360   2 ;     C1-    C3-    C5-    H5
     2      1      3      5      9 ;   180.00   4.18400   2 ;     C2-    C1-    C3-    C5
     2      1      3     10      9 ;   180.00   4.18400   2 ;     C2-    C1-    C3-    H3
     2      4      6      7      9 ;   180.00  27.82360   2 ;     C2-    C4-    C6-    C7
     2      4      6     13      9 ;   180.00  27.82360   2 ;     C2-    C4-    C6-    H6
     3      1      2      4      9 ;   180.00  27.82360   2 ;     C3-    C1-    C2-    C4
     3      1      2      9      9 ;   180.00  27.82360   2 ;     C3-    C1-    C2-    H2
     3      5      7      6      9 ;     0.00   0.00000   0 ;     C3-    C5-    C7-    C6
     3      5      7     14      9 ;     0.00   0.00000   0 ;     C3-    C5-    C7-    H7
     3      5      7     15      9 ;     0.00   0.00000   0 ;     C3-    C5-    C7-    H8
     4      6      7      5      9 ;     0.00   0.00000   0 ;     C4-    C6-    C7-    C5
     4      6      7     14      9 ;     0.00   0.00000   0 ;     C4-    C6-    C7-    H7
     4      6      7     15      9 ;     0.00   0.00000   0 ;     C4-    C6-    C7-    H8
     5      7      6     13      9 ;     0.00   0.00000   0 ;     C5-    C7-    C6-    H6
     6      4      2      9      9 ;   180.00   4.18400   2 ;     C6-    C4-    C2-    H2
     6      7      5     12      9 ;     0.00   0.00000   0 ;     C6-    C7-    C5-    H5
     7      5      3     10      9 ;   180.00  27.82360   2 ;     C7-    C5-    C3-    H3
     7      6      4     11      9 ;   180.00  27.82360   2 ;     C7-    C6-    C4-    H4
     8      1      2      4      9 ;   180.00  27.82360   2 ;     H1-    C1-    C2-    C4
     8      1      2      9      9 ;   180.00  27.82360   2 ;     H1-    C1-    C2-    H2
     8      1      3      5      9 ;   180.00   4.18400   2 ;     H1-    C1-    C3-    C5
     8      1      3     10      9 ;   180.00   4.18400   2 ;     H1-    C1-    C3-    H3
     9      2      4     11      9 ;   180.00   4.18400   2 ;     H2-    C2-    C4-    H4
    10      3      5     12      9 ;   180.00  27.82360   2 ;     H3-    C3-    C5-    H5
    11      4      6     13      9 ;   180.00  27.82360   2 ;     H4-    C4-    C6-    H6
    12      5      7     14      9 ;     0.00   0.00000   0 ;     H5-    C5-    C7-    H7
    12      5      7     15      9 ;     0.00   0.00000   0 ;     H5-    C5-    C7-    H8
    13      6      7     14      9 ;     0.00   0.00000   0 ;     H6-    C6-    C7-    H7
    13      6      7     15      9 ;     0.00   0.00000   0 ;     H6-    C6-    C7-    H8

[ dihedrals ] ; impropers
; treated as propers in GROMACS to use correct AMBER analytical function
;    i      j      k      l   func   phase     kd      pn
     1      4      2      9      4 ;   180.00   4.60240   2 ;     C1-    C4-    C2-    H2
     5      1      3     10      4 ;   180.00   4.60240   2 ;     C5-    C1-    C3-    H3
     6      2      4     11      4 ;   180.00   4.60240   2 ;     C6-    C2-    C4-    H4
     7      3      5     12      4 ;   180.00   4.60240   2 ;     C7-    C3-    C5-    H5
     7      4      6     13      4 ;   180.00   4.60240   2 ;     C7-    C4-    C6-    H6
     8      1      2      3      4 ;   180.00   4.60240   2 ;     H1-    C1-    C2-    C3
