mobley_9729792_GMX.gro created by acpype (v: 2023.10.27) on Wed May 20 23:45:13 2026
 15
    1  MOL   C1    1   0.077   0.071   0.029
    1  MOL   C2    2   0.204   0.032   0.019
    1  MOL   C3    3   0.026   0.198   0.075
    1  MOL   C4    4   0.323   0.105   0.053
    1  MOL   C5    5   0.091   0.313   0.091
    1  MOL   C6    6   0.337   0.237   0.073
    1  MOL   C7    7   0.236   0.347   0.074
    1  MOL   H1    8   0.000   0.000  -0.000
    1  MOL   H2    9   0.223  -0.069  -0.017
    1  MOL   H3   10  -0.082   0.198   0.094
    1  MOL   H4   11   0.414   0.045   0.056
    1  MOL   H5   12   0.030   0.398   0.122
    1  MOL   H6   13   0.439   0.272   0.091
    1  MOL   H7   14   0.248   0.407  -0.017
    1  MOL   H8   15   0.263   0.413   0.158
   10.41600     9.63600     3.49600
