mobley_8492526_GMX.gro created by acpype (v: 2023.10.27) on Wed May 20 23:41:31 2026
   16
    1MOL     C1    1   2.523   2.158   2.420
    1MOL     C2    2   2.232   2.542   2.271
    1MOL     C3    3   2.383   2.204   2.386
    1MOL     C4    4   2.237   2.395   2.311
    1MOL     C5    5   2.378   2.352   2.349
    1MOL     O1    6   2.623   2.228   2.417
    1MOL     H1    7   2.530   2.052   2.451
    1MOL     H2    8   2.130   2.570   2.244
    1MOL     H3    9   2.296   2.561   2.185
    1MOL     H4   10   2.264   2.606   2.353
    1MOL     H5   11   2.348   2.143   2.302
    1MOL     H6   12   2.319   2.184   2.472
    1MOL     H7   13   2.200   2.334   2.228
    1MOL     H8   14   2.169   2.379   2.395
    1MOL     H9   15   2.413   2.412   2.434
    1MOL    H10   16   2.447   2.372   2.266
   4.68642   4.68642   4.68642
