mobley_6091882_GMX.gro created by acpype (v: 2023.10.27) on Wed May 20 23:51:50 2026
    6
    1MOL     C1    1   2.200   2.107   2.167
    1MOL     C2    2   2.108   2.200   2.140
    1MOL     H1    3   2.306   2.133   2.170
    1MOL     H2    4   2.172   2.004   2.185
    1MOL     H3    5   2.003   2.174   2.137
    1MOL     H4    6   2.136   2.303   2.122
   4.30768   4.30768   4.30768
