mobley_6091882_GMX.gro created by acpype (v: 2023.10.27) on Wed May 20 23:51:50 2026
 7881
    1MOL     C1    1   2.200   2.107   2.167
    1MOL     C2    2   2.108   2.200   2.140
    1MOL     H1    3   2.306   2.133   2.170
    1MOL     H2    4   2.172   2.004   2.185
    1MOL     H3    5   2.003   2.174   2.137
    1MOL     H4    6   2.136   2.303   2.122
    2SOL     OW    7   0.230   0.628   0.113
    2SOL    HW1    8   0.137   0.626   0.150
    2SOL    HW2    9   0.231   0.589   0.021
    3SOL     OW   10   0.225   0.275   0.996
    3SOL    HW1   11   0.260   0.258   1.088
    3SOL    HW2   12   0.137   0.230   0.984
    4SOL     OW   13   0.019   0.368   0.647
    4SOL    HW1   14  -0.063   0.411   0.686
    4SOL    HW2   15  -0.009   0.295   0.584
    5SOL     OW   16   0.569   1.275   1.165
    5SOL    HW1   17   0.476   1.268   1.128
    5SOL    HW2   18   0.580   1.364   1.209
    6SOL     OW   19   1.555   1.511   0.703
    6SOL    HW1   20   1.498   1.495   0.784
    6SOL    HW2   21   1.496   1.521   0.623
    7SOL     OW   22   1.135   0.703   0.717
    7SOL    HW1   23   1.192   0.781   0.692
    7SOL    HW2   24   1.075   0.729   0.793
    8SOL     OW   25   1.755   0.607   0.231
    8SOL    HW1   26   1.743   0.594   0.132
    8SOL    HW2   27   1.725   0.526   0.280
    9SOL     OW   28   0.768   1.144   1.023
    9SOL    HW1   29   0.690   1.161   1.083
    9SOL    HW2   30   0.802   1.231   0.987
   10SOL     OW   31   0.850   0.798   1.823
   10SOL    HW1   32   0.846   0.874   1.888
   10SOL    HW2   33   0.872   0.834   1.732
   11SOL     OW   34   0.685   1.012   0.665
   11SOL    HW1   35   0.754   0.996   0.735
   11SOL    HW2   36   0.612   1.069   0.703
   12SOL     OW   37   0.686   1.161   1.803
   12SOL    HW1   38   0.746   1.240   1.817
   12SOL    HW2   39   0.600   1.192   1.762
   13SOL     OW   40   0.335   1.435   1.061
   13SOL    HW1   41   0.257   1.404   1.008
   13SOL    HW2   42   0.393   1.493   1.004
   14SOL     OW   43   1.460   1.505   1.339
   14SOL    HW1   44   1.484   1.599   1.365
   14SOL    HW2   45   1.444   1.451   1.421
   15SOL     OW   46   0.438   0.392   1.499
   15SOL    HW1   47   0.520   0.336   1.508
   15SOL    HW2   48   0.357   0.334   1.503
   16SOL     OW   49   1.603   0.447   0.737
   16SOL    HW1   50   1.529   0.493   0.687
   16SOL    HW2   51   1.654   0.515   0.790
   17SOL     OW   52   0.231   1.713   0.483
   17SOL    HW1   53   0.265   1.790   0.537
   17SOL    HW2   54   0.275   1.713   0.393
   18SOL     OW   55   1.127   1.341   1.690
   18SOL    HW1   56   1.174   1.341   1.778
   18SOL    HW2   57   1.079   1.254   1.679
   19SOL     OW   58   0.230   1.434   0.538
   19SOL    HW1   59   0.204   1.530   0.538
   19SOL    HW2   60   0.159   1.380   0.583
   20SOL     OW   61   0.240   1.091   0.886
   20SOL    HW1   62   0.254   1.007   0.938
   20SOL    HW2   63   0.185   1.155   0.941
   21SOL     OW   64   0.620   1.786   1.439
   21SOL    HW1   65   0.528   1.769   1.474
   21SOL    HW2   66   0.648   1.878   1.465
   22SOL     OW   67   0.606   0.964   0.123
   22SOL    HW1   68   0.613   1.048   0.069
   22SOL    HW2   69   0.652   0.977   0.211
   23SOL     OW   70   1.594   0.114   1.480
   23SOL    HW1   71   1.576   0.181   1.408
   23SOL    HW2   72   1.591   0.160   1.569
   24SOL     OW   73   0.122   0.643   0.563
   24SOL    HW1   74   0.077   0.555   0.580
   24SOL    HW2   75   0.121   0.697   0.647
   25SOL     OW   76   1.842   1.767   0.359
   25SOL    HW1   77   1.896   1.738   0.439
   25SOL    HW2   78   1.872   1.857   0.330
   26SOL     OW   79   0.027   1.596   0.117
   26SOL    HW1   80   0.008   1.500   0.138
   26SOL    HW2   81  -0.006   1.654   0.192
   27SOL     OW   82   1.689   0.922   0.612
   27SOL    HW1   83   1.784   0.893   0.620
   27SOL    HW2   84   1.681   0.987   0.537
   28SOL     OW   85   1.641   1.108   0.432
   28SOL    HW1   86   1.727   1.110   0.380
   28SOL    HW2   87   1.655   1.155   0.520
   29SOL     OW   88   0.113   0.737   1.597
   29SOL    HW1   89   0.201   0.724   1.642
   29SOL    HW2   90   0.100   0.834   1.575
   30SOL     OW   91   0.613   1.365   0.726
   30SOL    HW1   92   0.564   1.278   0.735
   30SOL    HW2   93   0.590   1.408   0.639
   31SOL     OW   94   1.293   1.228   1.423
   31SOL    HW1   95   1.330   1.155   1.365
   31SOL    HW2   96   1.345   1.233   1.508
   32SOL     OW   97   0.809   0.004   0.502
   32SOL    HW1   98   0.849   0.095   0.493
   32SOL    HW2   99   0.709   0.012   0.508
   33SOL     OW  100   0.197   0.976   1.264
   33SOL    HW1  101   0.286   0.931   1.250
   33SOL    HW2  102   0.124   0.911   1.245
   34SOL     OW  103   1.525   0.999   0.190
   34SOL    HW1  104   1.462   0.923   0.203
   34SOL    HW2  105   1.573   1.017   0.276
   35SOL     OW  106   1.187   1.792   1.616
   35SOL    HW1  107   1.211   1.852   1.540
   35SOL    HW2  108   1.194   1.697   1.586
   36SOL     OW  109   0.317   0.251   1.801
   36SOL    HW1  110   0.388   0.322   1.807
   36SOL    HW2  111   0.229   0.290   1.829
   37SOL     OW  112   1.466   1.417   0.953
   37SOL    HW1  113   1.407   1.423   1.033
   37SOL    HW2  114   1.451   1.329   0.907
   38SOL     OW  115   1.667   1.714   0.572
   38SOL    HW1  116   1.626   1.691   0.484
   38SOL    HW2  117   1.649   1.640   0.637
   39SOL     OW  118   0.598   0.729   0.270
   39SOL    HW1  119   0.622   0.798   0.202
   39SOL    HW2  120   0.520   0.762   0.324
   40SOL     OW  121   1.281   0.345   0.944
   40SOL    HW1  122   1.195   0.295   0.931
   40SOL    HW2  123   1.343   0.291   1.000
   41SOL     OW  124   1.576   1.662   0.307
   41SOL    HW1  125   1.665   1.708   0.310
   41SOL    HW2  126   1.555   1.638   0.212
   42SOL     OW  127   0.807   0.605   1.465
   42SOL    HW1  128   0.760   0.602   1.554
   42SOL    HW2  129   0.756   0.550   1.399
   43SOL     OW  130   1.394   0.469   1.674
   43SOL    HW1  131   1.374   0.512   1.762
   43SOL    HW2  132   1.472   0.407   1.683
   44SOL     OW  133   0.973   0.890   1.572
   44SOL    HW1  134   1.019   0.806   1.543
   44SOL    HW2  135   0.917   0.924   1.497
   45SOL     OW  136   0.991   0.410   1.242
   45SOL    HW1  137   0.914   0.444   1.296
   45SOL    HW2  138   0.957   0.359   1.163
   46SOL     OW  139   1.041   0.701   0.429
   46SOL    HW1  140   1.067   0.697   0.525
   46SOL    HW2  141   0.956   0.650   0.415
   47SOL     OW  142   0.076   0.811   0.789
   47SOL    HW1  143   0.175   0.799   0.798
   47SOL    HW2  144   0.052   0.906   0.810
   48SOL     OW  145   0.130   1.821   1.571
   48SOL    HW1  146   0.120   1.806   1.670
   48SOL    HW2  147   0.044   1.857   1.535
   49SOL     OW  148   0.865   0.348   0.195
   49SOL    HW1  149   0.924   0.411   0.146
   49SOL    HW2  150   0.884   0.254   0.166
   50SOL     OW  151   1.719   0.585   1.831
   50SOL    HW1  152   1.693   0.674   1.795
   50SOL    HW2  153   1.717   0.517   1.758
   51SOL     OW  154   1.362   1.144   0.545
   51SOL    HW1  155   1.445   1.115   0.497
   51SOL    HW2  156   1.313   1.211   0.489
   52SOL     OW  157   0.550   0.196   0.885
   52SOL    HW1  158   0.545   0.191   0.985
   52SOL    HW2  159   0.552   0.292   0.856
   53SOL     OW  160   1.008   1.456   0.477
   53SOL    HW1  161   0.962   1.528   0.425
   53SOL    HW2  162   1.004   1.476   0.575
   54SOL     OW  163   0.351   1.801   0.853
   54SOL    HW1  164   0.401   1.715   0.859
   54SOL    HW2  165   0.416   1.878   0.850
   55SOL     OW  166   1.795   1.066   0.873
   55SOL    HW1  167   1.733   1.051   0.797
   55SOL    HW2  168   1.743   1.077   0.958
   56SOL     OW  169   1.227   1.550   1.506
   56SOL    HW1  170   1.233   1.473   1.570
   56SOL    HW2  171   1.175   1.524   1.426
   57SOL     OW  172   0.321   0.943   0.242
   57SOL    HW1  173   0.403   0.982   0.200
   57SOL    HW2  174   0.294   0.861   0.193
   58SOL     OW  175   1.458   0.735   0.728
   58SOL    HW1  176   1.453   0.670   0.803
   58SOL    HW2  177   1.538   0.794   0.741
   59SOL     OW  178   0.461   1.266   1.727
   59SOL    HW1  179   0.411   1.267   1.641
   59SOL    HW2  180   0.398   1.248   1.803
   60SOL     OW  181   1.111   1.776   0.237
   60SOL    HW1  182   1.051   1.714   0.287
   60SOL    HW2  183   1.142   1.732   0.152
   61SOL     OW  184   0.202   0.285   1.498
   61SOL    HW1  185   0.122   0.345   1.485
   61SOL    HW2  186   0.192   0.236   1.584
   62SOL     OW  187   1.632   1.377   0.081
   62SOL    HW1  188   1.600   1.471   0.071
   62SOL    HW2  189   1.556   1.314   0.069
   63SOL     OW  190   0.464   1.743   0.323
   63SOL    HW1  191   0.497   1.782   0.409
   63SOL    HW2  192   0.540   1.736   0.258
   64SOL     OW  193   1.400   0.107   0.426
   64SOL    HW1  194   1.376   0.070   0.336
   64SOL    HW2  195   1.499   0.123   0.430
   65SOL     OW  196   0.249   1.785   1.241
   65SOL    HW1  197   0.306   1.720   1.291
   65SOL    HW2  198   0.233   1.752   1.148
   66SOL     OW  199   0.940   1.698   0.904
   66SOL    HW1  200   1.020   1.641   0.925
   66SOL    HW2  201   0.891   1.658   0.827
   67SOL     OW  202   0.382   0.700   0.480
   67SOL    HW1  203   0.427   0.610   0.477
   67SOL    HW2  204   0.288   0.689   0.513
   68SOL     OW  205   1.547   0.222   1.729
   68SOL    HW1  206   1.542   0.259   1.821
   68SOL    HW2  207   1.475   0.153   1.717
   69SOL     OW  208   0.614   0.122   0.117
   69SOL    HW1  209   0.712   0.100   0.124
   69SOL    HW2  210   0.583   0.105   0.024
   70SOL     OW  211   0.781   0.264   1.749
   70SOL    HW1  212   0.848   0.203   1.792
   70SOL    HW2  213   0.708   0.283   1.814
   71SOL     OW  214   0.888   1.514   1.195
   71SOL    HW1  215   0.865   1.489   1.101
   71SOL    HW2  216   0.949   1.445   1.234
   72SOL     OW  217   1.351   0.590   1.433
   72SOL    HW1  218   1.379   0.547   1.518
   72SOL    HW2  219   1.376   0.686   1.434
   73SOL     OW  220   0.803   1.402   0.924
   73SOL    HW1  221   0.893   1.416   0.882
   73SOL    HW2  222   0.732   1.404   0.853
   74SOL     OW  223   0.922   0.503   0.899
   74SOL    HW1  224   0.897   0.494   0.803
   74SOL    HW2  225   0.970   0.421   0.930
   75SOL     OW  226   0.539   0.064   0.512
   75SOL    HW1  227   0.458   0.065   0.570
   75SOL    HW2  228   0.542   0.147   0.457
   76SOL     OW  229   1.434   1.188   0.041
   76SOL    HW1  230   1.466   1.112   0.098
   76SOL    HW2  231   1.342   1.215   0.071
   77SOL     OW  232   0.297   0.035   0.171
   77SOL    HW1  233   0.346   0.119   0.150
   77SOL    HW2  234   0.359  -0.030   0.216
   78SOL     OW  235   0.935   0.236   0.480
   78SOL    HW1  236   0.887   0.277   0.402
   78SOL    HW2  237   1.034   0.234   0.461
   79SOL     OW  238   1.076   0.683   1.464
   79SOL    HW1  239   0.996   0.622   1.467
   79SOL    HW2  240   1.157   0.630   1.440
   80SOL     OW  241   1.227   1.570   0.793
   80SOL    HW1  242   1.248   1.644   0.728
   80SOL    HW2  243   1.295   1.570   0.866
   81SOL     OW  244   0.459   1.152   0.741
   81SOL    HW1  245   0.388   1.125   0.806
   81SOL    HW2  246   0.433   1.124   0.648
   82SOL     OW  247   1.271   1.797   0.591
   82SOL    HW1  248   1.315   1.861   0.527
   82SOL    HW2  249   1.221   1.849   0.661
   83SOL     OW  250   1.032   0.549   0.016
   83SOL    HW1  251   0.991   0.631  -0.023
   83SOL    HW2  252   1.096   0.575   0.089
   84SOL     OW  253   0.078   0.556   1.386
   84SOL    HW1  254   0.170   0.555   1.345
   84SOL    HW2  255   0.072   0.630   1.453
   85SOL     OW  256   0.561   0.222   1.147
   85SOL    HW1  257   0.599   0.138   1.184
   85SOL    HW2  258   0.473   0.241   1.191
   86SOL     OW  259   0.866   0.454   0.642
   86SOL    HW1  260   0.834   0.526   0.580
   86SOL    HW2  261   0.890   0.373   0.589
   87SOL     OW  262   1.017   0.039   0.753
   87SOL    HW1  263   0.945   0.044   0.684
   87SOL    HW2  264   0.993  -0.030   0.822
   88SOL     OW  265   1.429   1.173   0.867
   88SOL    HW1  266   1.374   1.089   0.860
   88SOL    HW2  267   1.455   1.202   0.775
   89SOL     OW  268   1.466   0.590   0.992
   89SOL    HW1  269   1.436   0.495   0.999
   89SOL    HW2  270   1.539   0.606   1.058
   90SOL     OW  271   1.857   0.833   0.377
   90SOL    HW1  272   1.899   0.769   0.441
   90SOL    HW2  273   1.819   0.782   0.299
   91SOL     OW  274   0.488   1.385   0.174
   91SOL    HW1  275   0.401   1.370   0.221
   91SOL    HW2  276   0.471   1.411   0.079
   92SOL     OW  277   1.664   1.280   0.657
   92SOL    HW1  278   1.763   1.288   0.671
   92SOL    HW2  279   1.619   1.364   0.688
   93SOL     OW  280   1.390   0.575   0.078
   93SOL    HW1  281   1.336   0.554   0.159
   93SOL    HW2  282   1.481   0.534   0.087
   94SOL     OW  283   0.527   0.256   0.328
   94SOL    HW1  284   0.554   0.197   0.253
   94SOL    HW2  285   0.527   0.351   0.297
   95SOL     OW  286   1.754   1.223   1.588
   95SOL    HW1  287   1.845   1.184   1.575
   95SOL    HW2  288   1.762   1.319   1.612
   96SOL     OW  289   1.064   1.347   1.340
   96SOL    HW1  290   0.984   1.324   1.395
   96SOL    HW2  291   1.147   1.321   1.389
   97SOL     OW  292   1.592   1.629   1.625
   97SOL    HW1  293   1.619   1.663   1.535
   97SOL    HW2  294   1.671   1.591   1.671
   98SOL     OW  295   1.111   1.195   1.100
   98SOL    HW1  296   1.071   1.239   1.181
   98SOL    HW2  297   1.070   1.232   1.017
   99SOL     OW  298   1.638   1.099   1.079
   99SOL    HW1  299   1.643   1.180   1.138
   99SOL    HW2  300   1.552   1.101   1.028
  100SOL     OW  301   0.915   0.089   1.402
  100SOL    HW1  302   0.940   0.069   1.307
  100SOL    HW2  303   0.987   0.145   1.444
  101SOL     OW  304   0.980   1.116   1.719
  101SOL    HW1  305   0.881   1.122   1.729
  101SOL    HW2  306   1.003   1.036   1.663
  102SOL     OW  307   0.705   1.050   0.368
  102SOL    HW1  308   0.691   1.057   0.467
  102SOL    HW2  309   0.789   0.999   0.350
  103SOL     OW  310   0.410   0.813   1.251
  103SOL    HW1  311   0.496   0.825   1.301
  103SOL    HW2  312   0.368   0.726   1.278
  104SOL     OW  313   1.274   0.386   1.262
  104SOL    HW1  314   1.295   0.460   1.326
  104SOL    HW2  315   1.185   0.403   1.219
  105SOL     OW  316   0.064   1.564   1.331
  105SOL    HW1  317   0.018   1.646   1.297
  105SOL    HW2  318   0.162   1.583   1.340
  106SOL     OW  319   0.367   1.100   0.501
  106SOL    HW1  320   0.360   1.183   0.445
  106SOL    HW2  321   0.371   1.020   0.441
  107SOL     OW  322   0.566   0.537   0.865
  107SOL    HW1  323   0.578   0.603   0.791
  107SOL    HW2  324   0.612   0.571   0.948
  108SOL     OW  325   1.252   1.348   0.388
  108SOL    HW1  326   1.302   1.425   0.428
  108SOL    HW2  327   1.157   1.350   0.420
  109SOL     OW  328   1.272   1.445   1.142
  109SOL    HW1  329   1.319   1.458   1.229
  109SOL    HW2  330   1.206   1.371   1.151
  110SOL     OW  331   1.582   0.639   0.472
  110SOL    HW1  332   1.551   0.700   0.545
  110SOL    HW2  333   1.632   0.691   0.403
  111SOL     OW  334   0.354   1.510   1.329
  111SOL    HW1  335   0.333   1.466   1.242
  111SOL    HW2  336   0.451   1.536   1.332
  112SOL     OW  337   0.402   0.751   1.598
  112SOL    HW1  338   0.470   0.806   1.551
  112SOL    HW2  339   0.442   0.663   1.625
  113SOL     OW  340   1.587   0.779   1.670
  113SOL    HW1  341   1.495   0.817   1.665
  113SOL    HW2  342   1.647   0.826   1.605
  114SOL     OW  343   1.013   0.105   1.770
  114SOL    HW1  344   1.019   0.190   1.718
  114SOL    HW2  345   1.045   0.029   1.713
  115SOL     OW  346   0.504   0.050   1.740
  115SOL    HW1  347   0.462  -0.007   1.670
  115SOL    HW2  348   0.438   0.119   1.772
  116SOL     OW  349   0.573   0.870   1.029
  116SOL    HW1  350   0.617   0.959   1.020
  116SOL    HW2  351   0.510   0.870   1.106
  117SOL     OW  352   1.360   0.862   1.045
  117SOL    HW1  353   1.285   0.862   0.979
  117SOL    HW2  354   1.397   0.770   1.054
  118SOL     OW  355   1.209   0.525   0.275
  118SOL    HW1  356   1.222   0.441   0.329
  118SOL    HW2  357   1.180   0.599   0.335
  119SOL     OW  358   0.307   0.213   1.231
  119SOL    HW1  359   0.284   0.250   1.321
  119SOL    HW2  360   0.277   0.118   1.225
  120SOL     OW  361   0.037   1.310   1.282
  120SOL    HW1  362   0.090   1.261   1.350
  120SOL    HW2  363   0.059   1.408   1.287
  121SOL     OW  364   0.732   0.634   1.064
  121SOL    HW1  365   0.791   0.608   0.988
  121SOL    HW2  366   0.704   0.730   1.053
  122SOL     OW  367   1.728   0.935   1.854
  122SOL    HW1  368   1.682   0.928   1.765
  122SOL    HW2  369   1.666   0.979   1.920
  123SOL     OW  370   0.307   0.063   0.618
  123SOL    HW1  371   0.296   0.157   0.651
  123SOL    HW2  372   0.302   0.000   0.695
  124SOL     OW  373   1.622   0.367   0.374
  124SOL    HW1  374   1.624   0.291   0.438
  124SOL    HW2  375   1.574   0.444   0.414
  125SOL     OW  376   1.023   0.766   0.966
  125SOL    HW1  377   1.038   0.787   1.062
  125SOL    HW2  378   0.993   0.671   0.957
  126SOL     OW  379   0.980   1.573   1.700
  126SOL    HW1  380   0.960   1.617   1.612
  126SOL    HW2  381   1.019   1.482   1.684
  127SOL     OW  382   1.859   1.518   1.605
  127SOL    HW1  383   1.873   1.545   1.510
  127SOL    HW2  384   1.942   1.540   1.658
  128SOL     OW  385   0.350   0.898   1.804
  128SOL    HW1  386   0.426   0.942   1.852
  128SOL    HW2  387   0.385   0.851   1.722
  129SOL     OW  388   1.540   0.274   0.125
  129SOL    HW1  389   1.479   0.199   0.148
  129SOL    HW2  390   1.562   0.326   0.208
  130SOL     OW  391   1.303   0.838   0.042
  130SOL    HW1  392   1.337   0.745   0.057
  130SOL    HW2  393   1.321   0.865  -0.053
  131SOL     OW  394   1.068   1.333   0.849
  131SOL    HW1  395   1.075   1.249   0.794
  131SOL    HW2  396   1.130   1.402   0.813
  132SOL     OW  397   0.319   0.810   0.949
  132SOL    HW1  398   0.412   0.846   0.954
  132SOL    HW2  399   0.313   0.725   1.001
  133SOL     OW  400   0.339   0.509   1.006
  133SOL    HW1  401   0.287   0.426   0.989
  133SOL    HW2  402   0.416   0.514   0.942
  134SOL     OW  403   1.138   0.380   1.678
  134SOL    HW1  404   1.093   0.443   1.742
  134SOL    HW2  405   1.231   0.411   1.661
  135SOL     OW  406   1.160   0.207   1.477
  135SOL    HW1  407   1.160   0.271   1.554
  135SOL    HW2  408   1.188   0.255   1.394
  136SOL     OW  409   0.008   1.326   0.200
  136SOL    HW1  410  -0.085   1.347   0.169
  136SOL    HW2  411   0.018   1.227   0.213
  137SOL     OW  412   0.088   1.801   0.927
  137SOL    HW1  413   0.046   1.715   0.900
  137SOL    HW2  414   0.182   1.804   0.893
  138SOL     OW  415   0.504   1.568   0.910
  138SOL    HW1  416   0.570   1.642   0.919
  138SOL    HW2  417   0.548   1.489   0.868
  139SOL     OW  418   1.002   0.796   1.238
  139SOL    HW1  419   1.043   0.764   1.324
  139SOL    HW2  420   0.906   0.769   1.235
  140SOL     OW  421   0.040   0.544   1.114
  140SOL    HW1  422   0.125   0.511   1.073
  140SOL    HW2  423   0.053   0.559   1.212
  141SOL     OW  424   0.189   0.520   1.722
  141SOL    HW1  425   0.248   0.480   1.652
  141SOL    HW2  426   0.131   0.591   1.681
  142SOL     OW  427   1.369   0.950   1.660
  142SOL    HW1  428   1.408   1.039   1.680
  142SOL    HW2  429   1.379   0.930   1.563
  143SOL     OW  430   0.815   0.572   0.325
  143SOL    HW1  431   0.822   0.483   0.279
  143SOL    HW2  432   0.721   0.606   0.317
  144SOL     OW  433   1.657   0.604   1.206
  144SOL    HW1  434   1.619   0.535   1.268
  144SOL    HW2  435   1.739   0.568   1.162
  145SOL     OW  436   0.252   1.564   1.744
  145SOL    HW1  437   0.222   1.621   1.820
  145SOL    HW2  438   0.245   1.467   1.770
  146SOL     OW  439   0.671   0.464   1.269
  146SOL    HW1  440   0.637   0.375   1.239
  146SOL    HW2  441   0.697   0.518   1.189
  147SOL     OW  442   0.930   1.678   1.465
  147SOL    HW1  443   0.906   1.660   1.370
  147SOL    HW2  444   0.960   1.772   1.475
  148SOL     OW  445   0.473   0.500   0.191
  148SOL    HW1  446   0.534   0.580   0.195
  148SOL    HW2  447   0.378   0.531   0.198
  149SOL     OW  448   0.159   1.137   1.466
  149SOL    HW1  449   0.181   1.076   1.542
  149SOL    HW2  450   0.169   1.088   1.380
  150SOL     OW  451   1.347   1.059   1.234
  150SOL    HW1  452   1.371   0.996   1.160
  150SOL    HW2  453   1.257   1.099   1.216
  151SOL     OW  454   1.302   0.855   0.309
  151SOL    HW1  455   1.216   0.824   0.351
  151SOL    HW2  456   1.298   0.841   0.210
  152SOL     OW  457   1.759   1.747   1.154
  152SOL    HW1  458   1.820   1.777   1.081
  152SOL    HW2  459   1.721   1.658   1.132
  153SOL     OW  460   1.252   1.731   1.128
  153SOL    HW1  461   1.336   1.736   1.074
  153SOL    HW2  462   1.229   1.635   1.146
  154SOL     OW  463   0.083   1.258   1.022
  154SOL    HW1  464   0.078   1.257   1.122
  154SOL    HW2  465   0.000   1.217   0.984
  155SOL     OW  466   0.688   1.662   1.716
  155SOL    HW1  467   0.632   1.743   1.725
  155SOL    HW2  468   0.740   1.666   1.630
  156SOL     OW  469   0.903   0.086   0.133
  156SOL    HW1  470   0.954   0.087   0.047
  156SOL    HW2  471   0.959   0.044   0.204
  157SOL     OW  472   1.726   0.135   0.523
  157SOL    HW1  473   1.799   0.118   0.456
  157SOL    HW2  474   1.695   0.048   0.561
  158SOL     OW  475   1.388   1.573   0.477
  158SOL    HW1  476   1.455   1.585   0.403
  158SOL    HW2  477   1.348   1.662   0.500
  159SOL     OW  478   0.130   1.794   1.851
  159SOL    HW1  479   0.089   1.720   1.904
  159SOL    HW2  480   0.194   1.845   1.909
  160SOL     OW  481   1.280   0.927   0.672
  160SOL    HW1  482   1.340   0.846   0.674
  160SOL    HW2  483   1.320   0.996   0.612
  161SOL     OW  484   0.830   1.273   1.422
  161SOL    HW1  485   0.825   1.306   1.517
  161SOL    HW2  486   0.744   1.292   1.376
  162SOL     OW  487   0.672   1.616   0.154
  162SOL    HW1  488   0.681   1.626   0.055
  162SOL    HW2  489   0.632   1.527   0.175
  163SOL     OW  490   1.650   1.720   1.394
  163SOL    HW1  491   1.703   1.730   1.310
  163SOL    HW2  492   1.623   1.810   1.428
  164SOL     OW  493   1.841   0.175   0.963
  164SOL    HW1  494   1.880   0.090   0.927
  164SOL    HW2  495   1.743   0.177   0.944
  165SOL     OW  496   0.263   0.326   0.720
  165SOL    HW1  497   0.184   0.377   0.686
  165SOL    HW2  498   0.254   0.311   0.818
  166SOL     OW  499   1.194   1.612   0.031
  166SOL    HW1  500   1.200   1.519   0.068
  166SOL    HW2  501   1.135   1.612  -0.049
  167SOL     OW  502   0.822   1.002   1.372
  167SOL    HW1  503   0.862   1.001   1.280
  167SOL    HW2  504   0.832   1.094   1.412
  168SOL     OW  505   0.916   0.910   0.291
  168SOL    HW1  506   0.979   0.948   0.223
  168SOL    HW2  507   0.956   0.827   0.330
  169SOL     OW  508   1.504   1.607   0.044
  169SOL    HW1  509   1.412   1.644   0.051
  169SOL    HW2  510   1.542   1.627  -0.046
  170SOL     OW  511   0.372   1.288   1.490
  170SOL    HW1  512   0.359   1.381   1.456
  170SOL    HW2  513   0.288   1.236   1.477
  171SOL     OW  514   1.614   1.292   1.289
  171SOL    HW1  515   1.674   1.295   1.369
  171SOL    HW2  516   1.539   1.356   1.302
  172SOL     OW  517   1.039   1.098   0.696
  172SOL    HW1  518   0.969   1.051   0.750
  172SOL    HW2  519   1.098   1.030   0.653
  173SOL     OW  520   1.014   0.236   0.971
  173SOL    HW1  521   1.006   0.200   0.878
  173SOL    HW2  522   1.012   0.160   1.036
  174SOL     OW  523   0.590   1.487   0.491
  174SOL    HW1  524   0.632   1.429   0.421
  174SOL    HW2  525   0.546   1.566   0.447
  175SOL     OW  526   1.709   0.385   1.381
  175SOL    HW1  527   1.782   0.454   1.385
  175SOL    HW2  528   1.737   0.310   1.322
  176SOL     OW  529   0.255   1.348   0.290
  176SOL    HW1  530   0.159   1.349   0.263
  176SOL    HW2  531   0.267   1.401   0.374
  177SOL     OW  532   0.105   1.013   1.726
  177SOL    HW1  533   0.028   0.980   1.780
  177SOL    HW2  534   0.190   0.983   1.768
  178SOL     OW  535   0.672   0.203   1.489
  178SOL    HW1  536   0.762   0.187   1.449
  178SOL    HW2  537   0.680   0.208   1.588
  179SOL     OW  538   0.075   0.345   0.033
  179SOL    HW1  539  -0.017   0.317   0.004
  179SOL    HW2  540   0.106   0.422  -0.023
  180SOL     OW  541   1.440   0.856   1.398
  180SOL    HW1  542   1.383   0.908   1.335
  180SOL    HW2  543   1.536   0.868   1.374
  181SOL     OW  544   0.072   0.166   0.318
  181SOL    HW1  545   0.055   0.249   0.264
  181SOL    HW2  546   0.162   0.129   0.296
  182SOL     OW  547   1.183   1.335   0.119
  182SOL    HW1  548   1.084   1.324   0.121
  182SOL    HW2  549   1.217   1.350   0.212
  183SOL     OW  550   0.613   0.842   1.431
  183SOL    HW1  551   0.669   0.923   1.414
  183SOL    HW2  552   0.672   0.762   1.434
  184SOL     OW  553   1.493   1.767   0.959
  184SOL    HW1  554   1.526   1.831   0.890
  184SOL    HW2  555   1.559   1.761   1.034
  185SOL     OW  556   0.716   0.565   1.708
  185SOL    HW1  557   0.735   0.630   1.782
  185SOL    HW2  558   0.776   0.485   1.717
  186SOL     OW  559   1.450   1.220   1.633
  186SOL    HW1  560   1.441   1.210   1.732
  186SOL    HW2  561   1.546   1.213   1.607
  187SOL     OW  562   0.390   1.741   1.560
  187SOL    HW1  563   0.299   1.782   1.558
  187SOL    HW2  564   0.383   1.647   1.592
  188SOL     OW  565   1.674   0.883   1.254
  188SOL    HW1  566   1.647   0.794   1.217
  188SOL    HW2  567   1.675   0.951   1.181
  189SOL     OW  568   1.225   0.325   0.449
  189SOL    HW1  569   1.290   0.251   0.438
  189SOL    HW2  570   1.245   0.375   0.533
  190SOL     OW  571   0.594   0.745   0.652
  190SOL    HW1  572   0.644   0.830   0.633
  190SOL    HW2  573   0.506   0.747   0.604
  191SOL     OW  574   1.777   0.342   1.642
  191SOL    HW1  575   1.760   0.373   1.548
  191SOL    HW2  576   1.693   0.305   1.680
  192SOL     OW  577   1.730   0.934   1.517
  192SOL    HW1  578   1.768   1.025   1.532
  192SOL    HW2  579   1.722   0.917   1.418
  193SOL     OW  580   0.859   1.374   0.016
  193SOL    HW1  581   0.813   1.389   0.104
  193SOL    HW2  582   0.903   1.459  -0.014
  194SOL     OW  583   0.661   1.790   0.953
  194SOL    HW1  584   0.615   1.878   0.940
  194SOL    HW2  585   0.760   1.802   0.946
  195SOL     OW  586   0.859   0.956   0.861
  195SOL    HW1  587   0.913   0.887   0.909
  195SOL    HW2  588   0.827   1.025   0.927
  196SOL     OW  589   1.083   0.984   0.087
  196SOL    HW1  590   1.060   1.037   0.005
  196SOL    HW2  591   1.164   0.928   0.068
  197SOL     OW  592   1.861   1.569   0.851
  197SOL    HW1  593   1.790   1.557   0.781
  197SOL    HW2  594   1.862   1.490   0.911
  198SOL     OW  595   0.221   1.314   1.844
  198SOL    HW1  596   0.156   1.241   1.823
  198SOL    HW2  597   0.225   1.328   1.942
  199SOL     OW  598   0.079   1.240   0.653
  199SOL    HW1  599   0.078   1.193   0.741
  199SOL    HW2  600   0.161   1.212   0.602
  200SOL     OW  601   0.672   1.391   1.624
  200SOL    HW1  602   0.594   1.341   1.662
  200SOL    HW2  603   0.669   1.486   1.655
  201SOL     OW  604   1.824   0.192   1.227
  201SOL    HW1  605   1.820   0.102   1.271
  201SOL    HW2  606   1.827   0.181   1.128
  202SOL     OW  607   0.428   0.424   0.520
  202SOL    HW1  608   0.458   0.352   0.458
  202SOL    HW2  609   0.389   0.384   0.603
  203SOL     OW  610   1.705   1.487   1.104
  203SOL    HW1  611   1.612   1.462   1.077
  203SOL    HW2  612   1.731   1.437   1.186
  204SOL     OW  613   0.317   0.547   1.280
  204SOL    HW1  614   0.355   0.488   1.352
  204SOL    HW2  615   0.357   0.521   1.192
  205SOL     OW  616   0.812   1.586   0.687
  205SOL    HW1  617   0.844   1.596   0.593
  205SOL    HW2  618   0.733   1.524   0.689
  206SOL     OW  619   1.424   0.214   1.112
  206SOL    HW1  620   1.476   0.149   1.167
  206SOL    HW2  621   1.375   0.277   1.173
  207SOL     OW  622   1.001   0.034   1.154
  207SOL    HW1  623   0.938  -0.038   1.123
  207SOL    HW2  624   1.094  -0.002   1.154
  208SOL     OW  625   0.770   1.330   0.301
  208SOL    HW1  626   0.724   1.243   0.318
  208SOL    HW2  627   0.861   1.327   0.342
  209SOL     OW  628   0.618   1.567   1.284
  209SOL    HW1  629   0.613   1.649   1.341
  209SOL    HW2  630   0.707   1.564   1.239
  210SOL     OW  631   1.352   0.052   0.168
  210SOL    HW1  632   1.387   0.011   0.084
  210SOL    HW2  633   1.262   0.014   0.188
  211SOL     OW  634   1.300   0.453   0.691
  211SOL    HW1  635   1.241   0.533   0.695
  211SOL    HW2  636   1.315   0.418   0.784
  212SOL     OW  637   1.593   0.221   0.882
  212SOL    HW1  638   1.509   0.220   0.936
  212SOL    HW2  639   1.595   0.304   0.826
  213SOL     OW  640   0.039   1.077   0.300
  213SOL    HW1  641   0.138   1.066   0.291
  213SOL    HW2  642  -0.001   0.991   0.332
  214SOL     OW  643   0.875   1.646   0.337
  214SOL    HW1  644   0.798   1.611   0.283
  214SOL    HW2  645   0.843   1.717   0.399
  215SOL     OW  646   0.230   0.628   1.975
  215SOL    HW1  647   0.137   0.626   2.012
  215SOL    HW2  648   0.231   0.589   1.883
  216SOL     OW  649   0.225   0.275   2.858
  216SOL    HW1  650   0.260   0.258   2.950
  216SOL    HW2  651   0.137   0.230   2.846
  217SOL     OW  652   0.019   0.368   2.509
  217SOL    HW1  653  -0.063   0.411   2.548
  217SOL    HW2  654  -0.009   0.295   2.446
  218SOL     OW  655   0.569   1.275   3.027
  218SOL    HW1  656   0.476   1.268   2.990
  218SOL    HW2  657   0.580   1.364   3.071
  219SOL     OW  658   1.555   1.511   2.565
  219SOL    HW1  659   1.498   1.495   2.646
  219SOL    HW2  660   1.496   1.521   2.485
  220SOL     OW  661   1.135   0.703   2.579
  220SOL    HW1  662   1.192   0.781   2.554
  220SOL    HW2  663   1.075   0.729   2.655
  221SOL     OW  664   1.755   0.607   2.093
  221SOL    HW1  665   1.743   0.594   1.994
  221SOL    HW2  666   1.725   0.526   2.142
  222SOL     OW  667   0.768   1.144   2.885
  222SOL    HW1  668   0.690   1.161   2.945
  222SOL    HW2  669   0.802   1.231   2.849
  223SOL     OW  670   0.850   0.798   3.685
  223SOL    HW1  671   0.846   0.874   3.750
  223SOL    HW2  672   0.872   0.834   3.594
  224SOL     OW  673   0.685   1.012   2.527
  224SOL    HW1  674   0.754   0.996   2.597
  224SOL    HW2  675   0.612   1.069   2.565
  225SOL     OW  676   0.686   1.161   3.665
  225SOL    HW1  677   0.746   1.240   3.679
  225SOL    HW2  678   0.600   1.192   3.624
  226SOL     OW  679   0.335   1.435   2.923
  226SOL    HW1  680   0.257   1.404   2.870
  226SOL    HW2  681   0.393   1.493   2.866
  227SOL     OW  682   1.460   1.505   3.201
  227SOL    HW1  683   1.484   1.599   3.227
  227SOL    HW2  684   1.444   1.451   3.283
  228SOL     OW  685   0.438   0.392   3.361
  228SOL    HW1  686   0.520   0.336   3.370
  228SOL    HW2  687   0.357   0.334   3.365
  229SOL     OW  688   1.603   0.447   2.599
  229SOL    HW1  689   1.529   0.493   2.549
  229SOL    HW2  690   1.654   0.515   2.652
  230SOL     OW  691   0.231   1.713   2.345
  230SOL    HW1  692   0.265   1.790   2.399
  230SOL    HW2  693   0.275   1.713   2.255
  231SOL     OW  694   1.127   1.341   3.552
  231SOL    HW1  695   1.174   1.341   3.640
  231SOL    HW2  696   1.079   1.254   3.541
  232SOL     OW  697   0.230   1.434   2.400
  232SOL    HW1  698   0.204   1.530   2.400
  232SOL    HW2  699   0.159   1.380   2.445
  233SOL     OW  700   0.240   1.091   2.748
  233SOL    HW1  701   0.254   1.007   2.800
  233SOL    HW2  702   0.185   1.155   2.803
  234SOL     OW  703   0.620   1.786   3.301
  234SOL    HW1  704   0.528   1.769   3.336
  234SOL    HW2  705   0.648   1.878   3.327
  235SOL     OW  706   0.606   0.964   1.985
  235SOL    HW1  707   0.613   1.048   1.931
  235SOL    HW2  708   0.652   0.977   2.073
  236SOL     OW  709   1.594   0.114   3.342
  236SOL    HW1  710   1.576   0.181   3.270
  236SOL    HW2  711   1.591   0.160   3.431
  237SOL     OW  712   0.122   0.643   2.425
  237SOL    HW1  713   0.077   0.555   2.442
  237SOL    HW2  714   0.121   0.697   2.509
  238SOL     OW  715   1.842   1.767   2.221
  238SOL    HW1  716   1.896   1.738   2.301
  238SOL    HW2  717   1.872   1.857   2.192
  239SOL     OW  718   0.027   1.596   1.979
  239SOL    HW1  719   0.008   1.500   2.000
  239SOL    HW2  720  -0.006   1.654   2.054
  240SOL     OW  721   1.689   0.922   2.474
  240SOL    HW1  722   1.784   0.893   2.482
  240SOL    HW2  723   1.681   0.987   2.399
  241SOL     OW  724   1.641   1.108   2.294
  241SOL    HW1  725   1.727   1.110   2.242
  241SOL    HW2  726   1.655   1.155   2.382
  242SOL     OW  727   0.113   0.737   3.459
  242SOL    HW1  728   0.201   0.724   3.504
  242SOL    HW2  729   0.100   0.834   3.437
  243SOL     OW  730   0.613   1.365   2.588
  243SOL    HW1  731   0.564   1.278   2.597
  243SOL    HW2  732   0.590   1.408   2.501
  244SOL     OW  733   1.293   1.228   3.285
  244SOL    HW1  734   1.330   1.155   3.227
  244SOL    HW2  735   1.345   1.233   3.370
  245SOL     OW  736   0.809   0.004   2.364
  245SOL    HW1  737   0.849   0.095   2.355
  245SOL    HW2  738   0.709   0.012   2.370
  246SOL     OW  739   0.197   0.976   3.126
  246SOL    HW1  740   0.286   0.931   3.112
  246SOL    HW2  741   0.124   0.911   3.107
  247SOL     OW  742   1.525   0.999   2.052
  247SOL    HW1  743   1.462   0.923   2.065
  247SOL    HW2  744   1.573   1.017   2.138
  248SOL     OW  745   1.187   1.792   3.478
  248SOL    HW1  746   1.211   1.852   3.402
  248SOL    HW2  747   1.194   1.697   3.448
  249SOL     OW  748   0.317   0.251   3.663
  249SOL    HW1  749   0.388   0.322   3.669
  249SOL    HW2  750   0.229   0.290   3.691
  250SOL     OW  751   1.466   1.417   2.815
  250SOL    HW1  752   1.407   1.423   2.895
  250SOL    HW2  753   1.451   1.329   2.769
  251SOL     OW  754   1.667   1.714   2.434
  251SOL    HW1  755   1.626   1.691   2.346
  251SOL    HW2  756   1.649   1.640   2.499
  252SOL     OW  757   0.598   0.729   2.132
  252SOL    HW1  758   0.622   0.798   2.064
  252SOL    HW2  759   0.520   0.762   2.186
  253SOL     OW  760   1.281   0.345   2.806
  253SOL    HW1  761   1.195   0.295   2.793
  253SOL    HW2  762   1.343   0.291   2.862
  254SOL     OW  763   1.576   1.662   2.169
  254SOL    HW1  764   1.665   1.708   2.172
  254SOL    HW2  765   1.555   1.638   2.074
  255SOL     OW  766   0.807   0.605   3.327
  255SOL    HW1  767   0.760   0.602   3.416
  255SOL    HW2  768   0.756   0.550   3.261
  256SOL     OW  769   1.394   0.469   3.536
  256SOL    HW1  770   1.374   0.512   3.624
  256SOL    HW2  771   1.472   0.407   3.545
  257SOL     OW  772   0.973   0.890   3.434
  257SOL    HW1  773   1.019   0.806   3.405
  257SOL    HW2  774   0.917   0.924   3.359
  258SOL     OW  775   0.991   0.410   3.104
  258SOL    HW1  776   0.914   0.444   3.158
  258SOL    HW2  777   0.957   0.359   3.025
  259SOL     OW  778   1.041   0.701   2.291
  259SOL    HW1  779   1.067   0.697   2.387
  259SOL    HW2  780   0.956   0.650   2.277
  260SOL     OW  781   0.076   0.811   2.651
  260SOL    HW1  782   0.175   0.799   2.660
  260SOL    HW2  783   0.052   0.906   2.672
  261SOL     OW  784   0.130   1.821   3.433
  261SOL    HW1  785   0.120   1.806   3.532
  261SOL    HW2  786   0.044   1.857   3.397
  262SOL     OW  787   0.865   0.348   2.057
  262SOL    HW1  788   0.924   0.411   2.008
  262SOL    HW2  789   0.884   0.254   2.028
  263SOL     OW  790   1.719   0.585   3.693
  263SOL    HW1  791   1.693   0.674   3.657
  263SOL    HW2  792   1.717   0.517   3.620
  264SOL     OW  793   1.362   1.144   2.407
  264SOL    HW1  794   1.445   1.115   2.359
  264SOL    HW2  795   1.313   1.211   2.351
  265SOL     OW  796   0.550   0.196   2.747
  265SOL    HW1  797   0.545   0.191   2.847
  265SOL    HW2  798   0.552   0.292   2.718
  266SOL     OW  799   1.008   1.456   2.339
  266SOL    HW1  800   0.962   1.528   2.287
  266SOL    HW2  801   1.004   1.476   2.437
  267SOL     OW  802   0.351   1.801   2.715
  267SOL    HW1  803   0.401   1.715   2.721
  267SOL    HW2  804   0.416   1.878   2.712
  268SOL     OW  805   1.795   1.066   2.735
  268SOL    HW1  806   1.733   1.051   2.659
  268SOL    HW2  807   1.743   1.077   2.820
  269SOL     OW  808   1.227   1.550   3.368
  269SOL    HW1  809   1.233   1.473   3.432
  269SOL    HW2  810   1.175   1.524   3.288
  270SOL     OW  811   0.321   0.943   2.104
  270SOL    HW1  812   0.403   0.982   2.062
  270SOL    HW2  813   0.294   0.861   2.055
  271SOL     OW  814   1.458   0.735   2.590
  271SOL    HW1  815   1.453   0.670   2.665
  271SOL    HW2  816   1.538   0.794   2.603
  272SOL     OW  817   0.461   1.266   3.589
  272SOL    HW1  818   0.411   1.267   3.503
  272SOL    HW2  819   0.398   1.248   3.665
  273SOL     OW  820   1.111   1.776   2.099
  273SOL    HW1  821   1.051   1.714   2.149
  273SOL    HW2  822   1.142   1.732   2.014
  274SOL     OW  823   0.202   0.285   3.360
  274SOL    HW1  824   0.122   0.345   3.347
  274SOL    HW2  825   0.192   0.236   3.446
  275SOL     OW  826   1.632   1.377   1.943
  275SOL    HW1  827   1.600   1.471   1.933
  275SOL    HW2  828   1.556   1.314   1.931
  276SOL     OW  829   0.464   1.743   2.185
  276SOL    HW1  830   0.497   1.782   2.271
  276SOL    HW2  831   0.540   1.736   2.120
  277SOL     OW  832   1.400   0.107   2.288
  277SOL    HW1  833   1.376   0.070   2.198
  277SOL    HW2  834   1.499   0.123   2.292
  278SOL     OW  835   0.249   1.785   3.103
  278SOL    HW1  836   0.306   1.720   3.153
  278SOL    HW2  837   0.233   1.752   3.010
  279SOL     OW  838   0.940   1.698   2.766
  279SOL    HW1  839   1.020   1.641   2.787
  279SOL    HW2  840   0.891   1.658   2.689
  280SOL     OW  841   0.382   0.700   2.342
  280SOL    HW1  842   0.427   0.610   2.339
  280SOL    HW2  843   0.288   0.689   2.375
  281SOL     OW  844   1.547   0.222   3.591
  281SOL    HW1  845   1.542   0.259   3.683
  281SOL    HW2  846   1.475   0.153   3.579
  282SOL     OW  847   0.614   0.122   1.979
  282SOL    HW1  848   0.712   0.100   1.986
  282SOL    HW2  849   0.583   0.105   1.886
  283SOL     OW  850   0.781   0.264   3.611
  283SOL    HW1  851   0.848   0.203   3.654
  283SOL    HW2  852   0.708   0.283   3.676
  284SOL     OW  853   0.888   1.514   3.057
  284SOL    HW1  854   0.865   1.489   2.963
  284SOL    HW2  855   0.949   1.445   3.096
  285SOL     OW  856   1.351   0.590   3.295
  285SOL    HW1  857   1.379   0.547   3.380
  285SOL    HW2  858   1.376   0.686   3.296
  286SOL     OW  859   0.803   1.402   2.786
  286SOL    HW1  860   0.893   1.416   2.744
  286SOL    HW2  861   0.732   1.404   2.715
  287SOL     OW  862   0.922   0.503   2.761
  287SOL    HW1  863   0.897   0.494   2.665
  287SOL    HW2  864   0.970   0.421   2.792
  288SOL     OW  865   0.539   0.064   2.374
  288SOL    HW1  866   0.458   0.065   2.432
  288SOL    HW2  867   0.542   0.147   2.319
  289SOL     OW  868   1.434   1.188   1.903
  289SOL    HW1  869   1.466   1.112   1.960
  289SOL    HW2  870   1.342   1.215   1.933
  290SOL     OW  871   0.297   0.035   2.033
  290SOL    HW1  872   0.346   0.119   2.012
  290SOL    HW2  873   0.359  -0.030   2.078
  291SOL     OW  874   0.935   0.236   2.342
  291SOL    HW1  875   0.887   0.277   2.264
  291SOL    HW2  876   1.034   0.234   2.323
  292SOL     OW  877   1.076   0.683   3.326
  292SOL    HW1  878   0.996   0.622   3.329
  292SOL    HW2  879   1.157   0.630   3.302
  293SOL     OW  880   1.227   1.570   2.655
  293SOL    HW1  881   1.248   1.644   2.590
  293SOL    HW2  882   1.295   1.570   2.728
  294SOL     OW  883   0.459   1.152   2.603
  294SOL    HW1  884   0.388   1.125   2.668
  294SOL    HW2  885   0.433   1.124   2.510
  295SOL     OW  886   1.271   1.797   2.453
  295SOL    HW1  887   1.315   1.861   2.389
  295SOL    HW2  888   1.221   1.849   2.523
  296SOL     OW  889   1.032   0.549   1.878
  296SOL    HW1  890   0.991   0.631   1.839
  296SOL    HW2  891   1.096   0.575   1.951
  297SOL     OW  892   0.078   0.556   3.248
  297SOL    HW1  893   0.170   0.555   3.207
  297SOL    HW2  894   0.072   0.630   3.315
  298SOL     OW  895   0.561   0.222   3.009
  298SOL    HW1  896   0.599   0.138   3.046
  298SOL    HW2  897   0.473   0.241   3.053
  299SOL     OW  898   0.866   0.454   2.504
  299SOL    HW1  899   0.834   0.526   2.442
  299SOL    HW2  900   0.890   0.373   2.451
  300SOL     OW  901   1.017   0.039   2.615
  300SOL    HW1  902   0.945   0.044   2.546
  300SOL    HW2  903   0.993  -0.030   2.684
  301SOL     OW  904   1.429   1.173   2.729
  301SOL    HW1  905   1.374   1.089   2.722
  301SOL    HW2  906   1.455   1.202   2.637
  302SOL     OW  907   1.466   0.590   2.854
  302SOL    HW1  908   1.436   0.495   2.861
  302SOL    HW2  909   1.539   0.606   2.920
  303SOL     OW  910   1.857   0.833   2.239
  303SOL    HW1  911   1.899   0.769   2.303
  303SOL    HW2  912   1.819   0.782   2.161
  304SOL     OW  913   0.488   1.385   2.036
  304SOL    HW1  914   0.401   1.370   2.083
  304SOL    HW2  915   0.471   1.411   1.941
  305SOL     OW  916   1.664   1.280   2.519
  305SOL    HW1  917   1.763   1.288   2.533
  305SOL    HW2  918   1.619   1.364   2.550
  306SOL     OW  919   1.390   0.575   1.940
  306SOL    HW1  920   1.336   0.554   2.021
  306SOL    HW2  921   1.481   0.534   1.949
  307SOL     OW  922   0.527   0.256   2.190
  307SOL    HW1  923   0.554   0.197   2.115
  307SOL    HW2  924   0.527   0.351   2.159
  308SOL     OW  925   1.754   1.223   3.450
  308SOL    HW1  926   1.845   1.184   3.437
  308SOL    HW2  927   1.762   1.319   3.474
  309SOL     OW  928   1.064   1.347   3.202
  309SOL    HW1  929   0.984   1.324   3.257
  309SOL    HW2  930   1.147   1.321   3.251
  310SOL     OW  931   1.592   1.629   3.487
  310SOL    HW1  932   1.619   1.663   3.397
  310SOL    HW2  933   1.671   1.591   3.533
  311SOL     OW  934   1.111   1.195   2.962
  311SOL    HW1  935   1.071   1.239   3.043
  311SOL    HW2  936   1.070   1.232   2.879
  312SOL     OW  937   1.638   1.099   2.941
  312SOL    HW1  938   1.643   1.180   3.000
  312SOL    HW2  939   1.552   1.101   2.890
  313SOL     OW  940   0.915   0.089   3.264
  313SOL    HW1  941   0.940   0.069   3.169
  313SOL    HW2  942   0.987   0.145   3.306
  314SOL     OW  943   0.980   1.116   3.581
  314SOL    HW1  944   0.881   1.122   3.591
  314SOL    HW2  945   1.003   1.036   3.525
  315SOL     OW  946   0.705   1.050   2.230
  315SOL    HW1  947   0.691   1.057   2.329
  315SOL    HW2  948   0.789   0.999   2.212
  316SOL     OW  949   0.410   0.813   3.113
  316SOL    HW1  950   0.496   0.825   3.163
  316SOL    HW2  951   0.368   0.726   3.140
  317SOL     OW  952   1.274   0.386   3.124
  317SOL    HW1  953   1.295   0.460   3.188
  317SOL    HW2  954   1.185   0.403   3.081
  318SOL     OW  955   0.064   1.564   3.193
  318SOL    HW1  956   0.018   1.646   3.159
  318SOL    HW2  957   0.162   1.583   3.202
  319SOL     OW  958   0.367   1.100   2.363
  319SOL    HW1  959   0.360   1.183   2.307
  319SOL    HW2  960   0.371   1.020   2.303
  320SOL     OW  961   0.566   0.537   2.727
  320SOL    HW1  962   0.578   0.603   2.653
  320SOL    HW2  963   0.612   0.571   2.810
  321SOL     OW  964   1.252   1.348   2.250
  321SOL    HW1  965   1.302   1.425   2.290
  321SOL    HW2  966   1.157   1.350   2.282
  322SOL     OW  967   1.272   1.445   3.004
  322SOL    HW1  968   1.319   1.458   3.091
  322SOL    HW2  969   1.206   1.371   3.013
  323SOL     OW  970   1.582   0.639   2.334
  323SOL    HW1  971   1.551   0.700   2.407
  323SOL    HW2  972   1.632   0.691   2.265
  324SOL     OW  973   0.354   1.510   3.191
  324SOL    HW1  974   0.333   1.466   3.104
  324SOL    HW2  975   0.451   1.536   3.194
  325SOL     OW  976   0.402   0.751   3.460
  325SOL    HW1  977   0.470   0.806   3.413
  325SOL    HW2  978   0.442   0.663   3.487
  326SOL     OW  979   1.587   0.779   3.532
  326SOL    HW1  980   1.495   0.817   3.527
  326SOL    HW2  981   1.647   0.826   3.467
  327SOL     OW  982   1.013   0.105   3.632
  327SOL    HW1  983   1.019   0.190   3.580
  327SOL    HW2  984   1.045   0.029   3.575
  328SOL     OW  985   0.504   0.050   3.602
  328SOL    HW1  986   0.462  -0.007   3.532
  328SOL    HW2  987   0.438   0.119   3.634
  329SOL     OW  988   0.573   0.870   2.891
  329SOL    HW1  989   0.617   0.959   2.882
  329SOL    HW2  990   0.510   0.870   2.968
  330SOL     OW  991   1.360   0.862   2.907
  330SOL    HW1  992   1.285   0.862   2.841
  330SOL    HW2  993   1.397   0.770   2.916
  331SOL     OW  994   1.209   0.525   2.137
  331SOL    HW1  995   1.222   0.441   2.191
  331SOL    HW2  996   1.180   0.599   2.197
  332SOL     OW  997   0.307   0.213   3.093
  332SOL    HW1  998   0.284   0.250   3.183
  332SOL    HW2  999   0.277   0.118   3.087
  333SOL     OW 1000   0.037   1.310   3.144
  333SOL    HW1 1001   0.090   1.261   3.212
  333SOL    HW2 1002   0.059   1.408   3.149
  334SOL     OW 1003   0.732   0.634   2.926
  334SOL    HW1 1004   0.791   0.608   2.850
  334SOL    HW2 1005   0.704   0.730   2.915
  335SOL     OW 1006   1.728   0.935   3.716
  335SOL    HW1 1007   1.682   0.928   3.627
  335SOL    HW2 1008   1.666   0.979   3.782
  336SOL     OW 1009   0.307   0.063   2.480
  336SOL    HW1 1010   0.296   0.157   2.513
  336SOL    HW2 1011   0.302   0.000   2.557
  337SOL     OW 1012   1.622   0.367   2.236
  337SOL    HW1 1013   1.624   0.291   2.300
  337SOL    HW2 1014   1.574   0.444   2.276
  338SOL     OW 1015   1.023   0.766   2.828
  338SOL    HW1 1016   1.038   0.787   2.924
  338SOL    HW2 1017   0.993   0.671   2.819
  339SOL     OW 1018   0.980   1.573   3.562
  339SOL    HW1 1019   0.960   1.617   3.474
  339SOL    HW2 1020   1.019   1.482   3.546
  340SOL     OW 1021   1.859   1.518   3.467
  340SOL    HW1 1022   1.873   1.545   3.372
  340SOL    HW2 1023   1.942   1.540   3.520
  341SOL     OW 1024   0.350   0.898   3.666
  341SOL    HW1 1025   0.426   0.942   3.714
  341SOL    HW2 1026   0.385   0.851   3.584
  342SOL     OW 1027   1.540   0.274   1.987
  342SOL    HW1 1028   1.479   0.199   2.010
  342SOL    HW2 1029   1.562   0.326   2.070
  343SOL     OW 1030   1.303   0.838   1.904
  343SOL    HW1 1031   1.337   0.745   1.919
  343SOL    HW2 1032   1.321   0.865   1.809
  344SOL     OW 1033   1.068   1.333   2.711
  344SOL    HW1 1034   1.075   1.249   2.656
  344SOL    HW2 1035   1.130   1.402   2.675
  345SOL     OW 1036   0.319   0.810   2.811
  345SOL    HW1 1037   0.412   0.846   2.816
  345SOL    HW2 1038   0.313   0.725   2.863
  346SOL     OW 1039   0.339   0.509   2.868
  346SOL    HW1 1040   0.287   0.426   2.851
  346SOL    HW2 1041   0.416   0.514   2.804
  347SOL     OW 1042   1.138   0.380   3.540
  347SOL    HW1 1043   1.093   0.443   3.604
  347SOL    HW2 1044   1.231   0.411   3.523
  348SOL     OW 1045   1.160   0.207   3.339
  348SOL    HW1 1046   1.160   0.271   3.416
  348SOL    HW2 1047   1.188   0.255   3.256
  349SOL     OW 1048   0.008   1.326   2.062
  349SOL    HW1 1049  -0.085   1.347   2.031
  349SOL    HW2 1050   0.018   1.227   2.075
  350SOL     OW 1051   0.088   1.801   2.789
  350SOL    HW1 1052   0.046   1.715   2.762
  350SOL    HW2 1053   0.182   1.804   2.755
  351SOL     OW 1054   0.504   1.568   2.772
  351SOL    HW1 1055   0.570   1.642   2.781
  351SOL    HW2 1056   0.548   1.489   2.730
  352SOL     OW 1057   1.002   0.796   3.100
  352SOL    HW1 1058   1.043   0.764   3.186
  352SOL    HW2 1059   0.906   0.769   3.097
  353SOL     OW 1060   0.040   0.544   2.976
  353SOL    HW1 1061   0.125   0.511   2.935
  353SOL    HW2 1062   0.053   0.559   3.074
  354SOL     OW 1063   0.189   0.520   3.584
  354SOL    HW1 1064   0.248   0.480   3.514
  354SOL    HW2 1065   0.131   0.591   3.543
  355SOL     OW 1066   1.369   0.950   3.522
  355SOL    HW1 1067   1.408   1.039   3.542
  355SOL    HW2 1068   1.379   0.930   3.425
  356SOL     OW 1069   0.815   0.572   2.187
  356SOL    HW1 1070   0.822   0.483   2.141
  356SOL    HW2 1071   0.721   0.606   2.179
  357SOL     OW 1072   1.657   0.604   3.068
  357SOL    HW1 1073   1.619   0.535   3.130
  357SOL    HW2 1074   1.739   0.568   3.024
  358SOL     OW 1075   0.252   1.564   3.606
  358SOL    HW1 1076   0.222   1.621   3.682
  358SOL    HW2 1077   0.245   1.467   3.632
  359SOL     OW 1078   0.671   0.464   3.131
  359SOL    HW1 1079   0.637   0.375   3.101
  359SOL    HW2 1080   0.697   0.518   3.051
  360SOL     OW 1081   0.930   1.678   3.327
  360SOL    HW1 1082   0.906   1.660   3.232
  360SOL    HW2 1083   0.960   1.772   3.337
  361SOL     OW 1084   0.473   0.500   2.053
  361SOL    HW1 1085   0.534   0.580   2.057
  361SOL    HW2 1086   0.378   0.531   2.060
  362SOL     OW 1087   0.159   1.137   3.328
  362SOL    HW1 1088   0.181   1.076   3.404
  362SOL    HW2 1089   0.169   1.088   3.242
  363SOL     OW 1090   1.347   1.059   3.096
  363SOL    HW1 1091   1.371   0.996   3.022
  363SOL    HW2 1092   1.257   1.099   3.078
  364SOL     OW 1093   1.302   0.855   2.171
  364SOL    HW1 1094   1.216   0.824   2.213
  364SOL    HW2 1095   1.298   0.841   2.072
  365SOL     OW 1096   1.759   1.747   3.016
  365SOL    HW1 1097   1.820   1.777   2.943
  365SOL    HW2 1098   1.721   1.658   2.994
  366SOL     OW 1099   1.252   1.731   2.990
  366SOL    HW1 1100   1.336   1.736   2.936
  366SOL    HW2 1101   1.229   1.635   3.008
  367SOL     OW 1102   0.083   1.258   2.884
  367SOL    HW1 1103   0.078   1.257   2.984
  367SOL    HW2 1104   0.000   1.217   2.846
  368SOL     OW 1105   0.688   1.662   3.578
  368SOL    HW1 1106   0.632   1.743   3.587
  368SOL    HW2 1107   0.740   1.666   3.492
  369SOL     OW 1108   1.726   0.135   2.385
  369SOL    HW1 1109   1.799   0.118   2.318
  369SOL    HW2 1110   1.695   0.048   2.423
  370SOL     OW 1111   1.388   1.573   2.339
  370SOL    HW1 1112   1.455   1.585   2.265
  370SOL    HW2 1113   1.348   1.662   2.362
  371SOL     OW 1114   0.130   1.794   3.713
  371SOL    HW1 1115   0.089   1.720   3.766
  371SOL    HW2 1116   0.194   1.845   3.771
  372SOL     OW 1117   1.280   0.927   2.534
  372SOL    HW1 1118   1.340   0.846   2.536
  372SOL    HW2 1119   1.320   0.996   2.474
  373SOL     OW 1120   0.830   1.273   3.284
  373SOL    HW1 1121   0.825   1.306   3.379
  373SOL    HW2 1122   0.744   1.292   3.238
  374SOL     OW 1123   0.672   1.616   2.016
  374SOL    HW1 1124   0.681   1.626   1.917
  374SOL    HW2 1125   0.632   1.527   2.037
  375SOL     OW 1126   1.650   1.720   3.256
  375SOL    HW1 1127   1.703   1.730   3.172
  375SOL    HW2 1128   1.623   1.810   3.290
  376SOL     OW 1129   1.841   0.175   2.825
  376SOL    HW1 1130   1.880   0.090   2.789
  376SOL    HW2 1131   1.743   0.177   2.806
  377SOL     OW 1132   0.263   0.326   2.582
  377SOL    HW1 1133   0.184   0.377   2.548
  377SOL    HW2 1134   0.254   0.311   2.680
  378SOL     OW 1135   1.194   1.612   1.893
  378SOL    HW1 1136   1.200   1.519   1.930
  378SOL    HW2 1137   1.135   1.612   1.813
  379SOL     OW 1138   0.822   1.002   3.234
  379SOL    HW1 1139   0.862   1.001   3.142
  379SOL    HW2 1140   0.832   1.094   3.274
  380SOL     OW 1141   0.916   0.910   2.153
  380SOL    HW1 1142   0.979   0.948   2.085
  380SOL    HW2 1143   0.956   0.827   2.192
  381SOL     OW 1144   1.504   1.607   1.906
  381SOL    HW1 1145   1.412   1.644   1.913
  381SOL    HW2 1146   1.542   1.627   1.816
  382SOL     OW 1147   0.372   1.288   3.352
  382SOL    HW1 1148   0.359   1.381   3.318
  382SOL    HW2 1149   0.288   1.236   3.339
  383SOL     OW 1150   1.614   1.292   3.151
  383SOL    HW1 1151   1.674   1.295   3.231
  383SOL    HW2 1152   1.539   1.356   3.164
  384SOL     OW 1153   1.039   1.098   2.558
  384SOL    HW1 1154   0.969   1.051   2.612
  384SOL    HW2 1155   1.098   1.030   2.515
  385SOL     OW 1156   1.014   0.236   2.833
  385SOL    HW1 1157   1.006   0.200   2.740
  385SOL    HW2 1158   1.012   0.160   2.898
  386SOL     OW 1159   0.590   1.487   2.353
  386SOL    HW1 1160   0.632   1.429   2.283
  386SOL    HW2 1161   0.546   1.566   2.309
  387SOL     OW 1162   1.709   0.385   3.243
  387SOL    HW1 1163   1.782   0.454   3.247
  387SOL    HW2 1164   1.737   0.310   3.184
  388SOL     OW 1165   0.255   1.348   2.152
  388SOL    HW1 1166   0.159   1.349   2.125
  388SOL    HW2 1167   0.267   1.401   2.236
  389SOL     OW 1168   0.105   1.013   3.588
  389SOL    HW1 1169   0.028   0.980   3.642
  389SOL    HW2 1170   0.190   0.983   3.630
  390SOL     OW 1171   0.672   0.203   3.351
  390SOL    HW1 1172   0.762   0.187   3.311
  390SOL    HW2 1173   0.680   0.208   3.450
  391SOL     OW 1174   0.075   0.345   1.895
  391SOL    HW1 1175  -0.017   0.317   1.866
  391SOL    HW2 1176   0.106   0.422   1.839
  392SOL     OW 1177   1.440   0.856   3.260
  392SOL    HW1 1178   1.383   0.908   3.197
  392SOL    HW2 1179   1.536   0.868   3.236
  393SOL     OW 1180   0.072   0.166   2.180
  393SOL    HW1 1181   0.055   0.249   2.126
  393SOL    HW2 1182   0.162   0.129   2.158
  394SOL     OW 1183   1.183   1.335   1.981
  394SOL    HW1 1184   1.084   1.324   1.983
  394SOL    HW2 1185   1.217   1.350   2.074
  395SOL     OW 1186   0.613   0.842   3.293
  395SOL    HW1 1187   0.669   0.923   3.276
  395SOL    HW2 1188   0.672   0.762   3.296
  396SOL     OW 1189   1.493   1.767   2.821
  396SOL    HW1 1190   1.526   1.831   2.752
  396SOL    HW2 1191   1.559   1.761   2.896
  397SOL     OW 1192   0.716   0.565   3.570
  397SOL    HW1 1193   0.735   0.630   3.644
  397SOL    HW2 1194   0.776   0.485   3.579
  398SOL     OW 1195   1.450   1.220   3.495
  398SOL    HW1 1196   1.441   1.210   3.594
  398SOL    HW2 1197   1.546   1.213   3.469
  399SOL     OW 1198   0.390   1.741   3.422
  399SOL    HW1 1199   0.299   1.782   3.420
  399SOL    HW2 1200   0.383   1.647   3.454
  400SOL     OW 1201   1.674   0.883   3.116
  400SOL    HW1 1202   1.647   0.794   3.079
  400SOL    HW2 1203   1.675   0.951   3.043
  401SOL     OW 1204   1.225   0.325   2.311
  401SOL    HW1 1205   1.290   0.251   2.300
  401SOL    HW2 1206   1.245   0.375   2.395
  402SOL     OW 1207   0.594   0.745   2.514
  402SOL    HW1 1208   0.644   0.830   2.495
  402SOL    HW2 1209   0.506   0.747   2.466
  403SOL     OW 1210   1.777   0.342   3.504
  403SOL    HW1 1211   1.760   0.373   3.410
  403SOL    HW2 1212   1.693   0.305   3.542
  404SOL     OW 1213   1.730   0.934   3.379
  404SOL    HW1 1214   1.768   1.025   3.394
  404SOL    HW2 1215   1.722   0.917   3.280
  405SOL     OW 1216   0.859   1.374   1.878
  405SOL    HW1 1217   0.813   1.389   1.966
  405SOL    HW2 1218   0.903   1.459   1.848
  406SOL     OW 1219   0.661   1.790   2.815
  406SOL    HW1 1220   0.615   1.878   2.802
  406SOL    HW2 1221   0.760   1.802   2.808
  407SOL     OW 1222   0.859   0.956   2.723
  407SOL    HW1 1223   0.913   0.887   2.771
  407SOL    HW2 1224   0.827   1.025   2.789
  408SOL     OW 1225   1.083   0.984   1.949
  408SOL    HW1 1226   1.060   1.037   1.867
  408SOL    HW2 1227   1.164   0.928   1.930
  409SOL     OW 1228   1.861   1.569   2.713
  409SOL    HW1 1229   1.790   1.557   2.643
  409SOL    HW2 1230   1.862   1.490   2.773
  410SOL     OW 1231   0.221   1.314   3.706
  410SOL    HW1 1232   0.156   1.241   3.685
  410SOL    HW2 1233   0.225   1.328   3.804
  411SOL     OW 1234   0.079   1.240   2.515
  411SOL    HW1 1235   0.078   1.193   2.603
  411SOL    HW2 1236   0.161   1.212   2.464
  412SOL     OW 1237   0.672   1.391   3.486
  412SOL    HW1 1238   0.594   1.341   3.524
  412SOL    HW2 1239   0.669   1.486   3.517
  413SOL     OW 1240   1.824   0.192   3.089
  413SOL    HW1 1241   1.820   0.102   3.133
  413SOL    HW2 1242   1.827   0.181   2.990
  414SOL     OW 1243   0.428   0.424   2.382
  414SOL    HW1 1244   0.458   0.352   2.320
  414SOL    HW2 1245   0.389   0.384   2.465
  415SOL     OW 1246   1.705   1.487   2.966
  415SOL    HW1 1247   1.612   1.462   2.939
  415SOL    HW2 1248   1.731   1.437   3.048
  416SOL     OW 1249   0.317   0.547   3.142
  416SOL    HW1 1250   0.355   0.488   3.214
  416SOL    HW2 1251   0.357   0.521   3.054
  417SOL     OW 1252   0.812   1.586   2.549
  417SOL    HW1 1253   0.844   1.596   2.455
  417SOL    HW2 1254   0.733   1.524   2.551
  418SOL     OW 1255   1.424   0.214   2.974
  418SOL    HW1 1256   1.476   0.149   3.029
  418SOL    HW2 1257   1.375   0.277   3.035
  419SOL     OW 1258   1.001   0.034   3.016
  419SOL    HW1 1259   0.938  -0.038   2.985
  419SOL    HW2 1260   1.094  -0.002   3.016
  420SOL     OW 1261   0.770   1.330   2.163
  420SOL    HW1 1262   0.724   1.243   2.180
  420SOL    HW2 1263   0.861   1.327   2.204
  421SOL     OW 1264   0.618   1.567   3.146
  421SOL    HW1 1265   0.613   1.649   3.203
  421SOL    HW2 1266   0.707   1.564   3.101
  422SOL     OW 1267   1.352   0.052   2.030
  422SOL    HW1 1268   1.387   0.011   1.946
  422SOL    HW2 1269   1.262   0.014   2.050
  423SOL     OW 1270   1.300   0.453   2.553
  423SOL    HW1 1271   1.241   0.533   2.557
  423SOL    HW2 1272   1.315   0.418   2.646
  424SOL     OW 1273   1.593   0.221   2.744
  424SOL    HW1 1274   1.509   0.220   2.798
  424SOL    HW2 1275   1.595   0.304   2.688
  425SOL     OW 1276   0.039   1.077   2.162
  425SOL    HW1 1277   0.138   1.066   2.153
  425SOL    HW2 1278  -0.001   0.991   2.194
  426SOL     OW 1279   0.875   1.646   2.199
  426SOL    HW1 1280   0.798   1.611   2.145
  426SOL    HW2 1281   0.843   1.717   2.261
  427SOL     OW 1282   0.230   0.628   3.837
  427SOL    HW1 1283   0.137   0.626   3.874
  427SOL    HW2 1284   0.231   0.589   3.745
  428SOL     OW 1285   1.755   0.607   3.955
  428SOL    HW1 1286   1.743   0.594   3.856
  428SOL    HW2 1287   1.725   0.526   4.004
  429SOL     OW 1288   0.231   1.713   4.207
  429SOL    HW1 1289   0.265   1.790   4.261
  429SOL    HW2 1290   0.275   1.713   4.117
  430SOL     OW 1291   0.230   1.434   4.262
  430SOL    HW1 1292   0.204   1.530   4.262
  430SOL    HW2 1293   0.159   1.380   4.307
  431SOL     OW 1294   0.606   0.964   3.847
  431SOL    HW1 1295   0.613   1.048   3.793
  431SOL    HW2 1296   0.652   0.977   3.935
  432SOL     OW 1297   1.842   1.767   4.083
  432SOL    HW1 1298   1.896   1.738   4.163
  432SOL    HW2 1299   1.872   1.857   4.054
  433SOL     OW 1300   0.027   1.596   3.841
  433SOL    HW1 1301   0.008   1.500   3.862
  433SOL    HW2 1302  -0.006   1.654   3.916
  434SOL     OW 1303   1.689   0.922   4.336
  434SOL    HW1 1304   1.784   0.893   4.344
  434SOL    HW2 1305   1.681   0.987   4.261
  435SOL     OW 1306   1.641   1.108   4.156
  435SOL    HW1 1307   1.727   1.110   4.104
  435SOL    HW2 1308   1.655   1.155   4.244
  436SOL     OW 1309   0.809   0.004   4.226
  436SOL    HW1 1310   0.849   0.095   4.217
  436SOL    HW2 1311   0.709   0.012   4.232
  437SOL     OW 1312   1.525   0.999   3.914
  437SOL    HW1 1313   1.462   0.923   3.927
  437SOL    HW2 1314   1.573   1.017   4.000
  438SOL     OW 1315   0.598   0.729   3.994
  438SOL    HW1 1316   0.622   0.798   3.926
  438SOL    HW2 1317   0.520   0.762   4.048
  439SOL     OW 1318   1.576   1.662   4.031
  439SOL    HW1 1319   1.665   1.708   4.034
  439SOL    HW2 1320   1.555   1.638   3.936
  440SOL     OW 1321   0.865   0.348   3.919
  440SOL    HW1 1322   0.924   0.411   3.870
  440SOL    HW2 1323   0.884   0.254   3.890
  441SOL     OW 1324   0.321   0.943   3.966
  441SOL    HW1 1325   0.403   0.982   3.924
  441SOL    HW2 1326   0.294   0.861   3.917
  442SOL     OW 1327   1.111   1.776   3.961
  442SOL    HW1 1328   1.051   1.714   4.011
  442SOL    HW2 1329   1.142   1.732   3.876
  443SOL     OW 1330   1.632   1.377   3.805
  443SOL    HW1 1331   1.600   1.471   3.795
  443SOL    HW2 1332   1.556   1.314   3.793
  444SOL     OW 1333   0.464   1.743   4.047
  444SOL    HW1 1334   0.497   1.782   4.133
  444SOL    HW2 1335   0.540   1.736   3.982
  445SOL     OW 1336   1.400   0.107   4.150
  445SOL    HW1 1337   1.376   0.070   4.060
  445SOL    HW2 1338   1.499   0.123   4.154
  446SOL     OW 1339   0.382   0.700   4.204
  446SOL    HW1 1340   0.427   0.610   4.201
  446SOL    HW2 1341   0.288   0.689   4.237
  447SOL     OW 1342   0.614   0.122   3.841
  447SOL    HW1 1343   0.712   0.100   3.848
  447SOL    HW2 1344   0.583   0.105   3.748
  448SOL     OW 1345   1.434   1.188   3.765
  448SOL    HW1 1346   1.466   1.112   3.822
  448SOL    HW2 1347   1.342   1.215   3.795
  449SOL     OW 1348   0.297   0.035   3.895
  449SOL    HW1 1349   0.346   0.119   3.874
  449SOL    HW2 1350   0.359  -0.030   3.940
  450SOL     OW 1351   0.935   0.236   4.204
  450SOL    HW1 1352   0.887   0.277   4.126
  450SOL    HW2 1353   1.034   0.234   4.185
  451SOL     OW 1354   0.459   1.152   4.465
  451SOL    HW1 1355   0.388   1.125   4.530
  451SOL    HW2 1356   0.433   1.124   4.372
  452SOL     OW 1357   1.032   0.549   3.740
  452SOL    HW1 1358   0.991   0.631   3.701
  452SOL    HW2 1359   1.096   0.575   3.813
  453SOL     OW 1360   1.857   0.833   4.101
  453SOL    HW1 1361   1.899   0.769   4.165
  453SOL    HW2 1362   1.819   0.782   4.023
  454SOL     OW 1363   0.488   1.385   3.898
  454SOL    HW1 1364   0.401   1.370   3.945
  454SOL    HW2 1365   0.471   1.411   3.803
  455SOL     OW 1366   1.390   0.575   3.802
  455SOL    HW1 1367   1.336   0.554   3.883
  455SOL    HW2 1368   1.481   0.534   3.811
  456SOL     OW 1369   0.527   0.256   4.052
  456SOL    HW1 1370   0.554   0.197   3.977
  456SOL    HW2 1371   0.527   0.351   4.021
  457SOL     OW 1372   0.705   1.050   4.092
  457SOL    HW1 1373   0.691   1.057   4.191
  457SOL    HW2 1374   0.789   0.999   4.074
  458SOL     OW 1375   0.367   1.100   4.225
  458SOL    HW1 1376   0.360   1.183   4.169
  458SOL    HW2 1377   0.371   1.020   4.165
  459SOL     OW 1378   1.252   1.348   4.112
  459SOL    HW1 1379   1.302   1.425   4.152
  459SOL    HW2 1380   1.157   1.350   4.144
  460SOL     OW 1381   1.582   0.639   4.196
  460SOL    HW1 1382   1.551   0.700   4.269
  460SOL    HW2 1383   1.632   0.691   4.127
  461SOL     OW 1384   1.209   0.525   3.999
  461SOL    HW1 1385   1.222   0.441   4.053
  461SOL    HW2 1386   1.180   0.599   4.059
  462SOL     OW 1387   1.622   0.367   4.098
  462SOL    HW1 1388   1.624   0.291   4.162
  462SOL    HW2 1389   1.574   0.444   4.138
  463SOL     OW 1390   1.540   0.274   3.849
  463SOL    HW1 1391   1.479   0.199   3.872
  463SOL    HW2 1392   1.562   0.326   3.932
  464SOL     OW 1393   1.303   0.838   3.766
  464SOL    HW1 1394   1.337   0.745   3.781
  464SOL    HW2 1395   1.321   0.865   3.671
  465SOL     OW 1396   0.008   1.326   3.924
  465SOL    HW1 1397  -0.085   1.347   3.893
  465SOL    HW2 1398   0.018   1.227   3.937
  466SOL     OW 1399   0.815   0.572   4.049
  466SOL    HW1 1400   0.822   0.483   4.003
  466SOL    HW2 1401   0.721   0.606   4.041
  467SOL     OW 1402   0.473   0.500   3.915
  467SOL    HW1 1403   0.534   0.580   3.919
  467SOL    HW2 1404   0.378   0.531   3.922
  468SOL     OW 1405   1.302   0.855   4.033
  468SOL    HW1 1406   1.216   0.824   4.075
  468SOL    HW2 1407   1.298   0.841   3.934
  469SOL     OW 1408   1.726   0.135   4.247
  469SOL    HW1 1409   1.799   0.118   4.180
  469SOL    HW2 1410   1.695   0.048   4.285
  470SOL     OW 1411   1.388   1.573   4.201
  470SOL    HW1 1412   1.455   1.585   4.127
  470SOL    HW2 1413   1.348   1.662   4.224
  471SOL     OW 1414   0.672   1.616   3.878
  471SOL    HW1 1415   0.681   1.626   3.779
  471SOL    HW2 1416   0.632   1.527   3.899
  472SOL     OW 1417   1.194   1.612   3.755
  472SOL    HW1 1418   1.200   1.519   3.792
  472SOL    HW2 1419   1.135   1.612   3.675
  473SOL     OW 1420   0.916   0.910   4.015
  473SOL    HW1 1421   0.979   0.948   3.947
  473SOL    HW2 1422   0.956   0.827   4.054
  474SOL     OW 1423   1.504   1.607   3.768
  474SOL    HW1 1424   1.412   1.644   3.775
  474SOL    HW2 1425   1.542   1.627   3.678
  475SOL     OW 1426   0.590   1.487   4.215
  475SOL    HW1 1427   0.632   1.429   4.145
  475SOL    HW2 1428   0.546   1.566   4.171
  476SOL     OW 1429   0.255   1.348   4.014
  476SOL    HW1 1430   0.159   1.349   3.987
  476SOL    HW2 1431   0.267   1.401   4.098
  477SOL     OW 1432   0.075   0.345   3.757
  477SOL    HW1 1433  -0.017   0.317   3.728
  477SOL    HW2 1434   0.106   0.422   3.701
  478SOL     OW 1435   0.072   0.166   4.042
  478SOL    HW1 1436   0.055   0.249   3.988
  478SOL    HW2 1437   0.162   0.129   4.020
  479SOL     OW 1438   1.183   1.335   3.843
  479SOL    HW1 1439   1.084   1.324   3.845
  479SOL    HW2 1440   1.217   1.350   3.936
  480SOL     OW 1441   1.225   0.325   4.173
  480SOL    HW1 1442   1.290   0.251   4.162
  480SOL    HW2 1443   1.245   0.375   4.257
  481SOL     OW 1444   0.859   1.374   3.740
  481SOL    HW1 1445   0.813   1.389   3.828
  481SOL    HW2 1446   0.903   1.459   3.710
  482SOL     OW 1447   1.083   0.984   3.811
  482SOL    HW1 1448   1.060   1.037   3.729
  482SOL    HW2 1449   1.164   0.928   3.792
  483SOL     OW 1450   0.428   0.424   4.244
  483SOL    HW1 1451   0.458   0.352   4.182
  483SOL    HW2 1452   0.389   0.384   4.327
  484SOL     OW 1453   0.770   1.330   4.025
  484SOL    HW1 1454   0.724   1.243   4.042
  484SOL    HW2 1455   0.861   1.327   4.066
  485SOL     OW 1456   1.352   0.052   3.892
  485SOL    HW1 1457   1.387   0.011   3.808
  485SOL    HW2 1458   1.262   0.014   3.912
  486SOL     OW 1459   0.039   1.077   4.024
  486SOL    HW1 1460   0.138   1.066   4.015
  486SOL    HW2 1461  -0.001   0.991   4.056
  487SOL     OW 1462   0.875   1.646   4.061
  487SOL    HW1 1463   0.798   1.611   4.007
  487SOL    HW2 1464   0.843   1.717   4.123
  488SOL     OW 1465   0.230   2.490   0.113
  488SOL    HW1 1466   0.137   2.488   0.150
  488SOL    HW2 1467   0.231   2.451   0.021
  489SOL     OW 1468   0.225   2.137   0.996
  489SOL    HW1 1469   0.260   2.120   1.088
  489SOL    HW2 1470   0.137   2.092   0.984
  490SOL     OW 1471   0.019   2.230   0.647
  490SOL    HW1 1472  -0.063   2.273   0.686
  490SOL    HW2 1473  -0.009   2.157   0.584
  491SOL     OW 1474   0.569   3.137   1.165
  491SOL    HW1 1475   0.476   3.130   1.128
  491SOL    HW2 1476   0.580   3.226   1.209
  492SOL     OW 1477   1.555   3.373   0.703
  492SOL    HW1 1478   1.498   3.357   0.784
  492SOL    HW2 1479   1.496   3.383   0.623
  493SOL     OW 1480   1.135   2.565   0.717
  493SOL    HW1 1481   1.192   2.643   0.692
  493SOL    HW2 1482   1.075   2.591   0.793
  494SOL     OW 1483   1.755   2.469   0.231
  494SOL    HW1 1484   1.743   2.456   0.132
  494SOL    HW2 1485   1.725   2.388   0.280
  495SOL     OW 1486   0.768   3.006   1.023
  495SOL    HW1 1487   0.690   3.023   1.083
  495SOL    HW2 1488   0.802   3.093   0.987
  496SOL     OW 1489   0.850   2.660   1.823
  496SOL    HW1 1490   0.846   2.736   1.888
  496SOL    HW2 1491   0.872   2.696   1.732
  497SOL     OW 1492   0.685   2.874   0.665
  497SOL    HW1 1493   0.754   2.858   0.735
  497SOL    HW2 1494   0.612   2.931   0.703
  498SOL     OW 1495   0.686   3.023   1.803
  498SOL    HW1 1496   0.746   3.102   1.817
  498SOL    HW2 1497   0.600   3.054   1.762
  499SOL     OW 1498   0.335   3.297   1.061
  499SOL    HW1 1499   0.257   3.266   1.008
  499SOL    HW2 1500   0.393   3.355   1.004
  500SOL     OW 1501   1.460   3.367   1.339
  500SOL    HW1 1502   1.484   3.461   1.365
  500SOL    HW2 1503   1.444   3.313   1.421
  501SOL     OW 1504   0.438   2.254   1.499
  501SOL    HW1 1505   0.520   2.198   1.508
  501SOL    HW2 1506   0.357   2.196   1.503
  502SOL     OW 1507   1.603   2.309   0.737
  502SOL    HW1 1508   1.529   2.355   0.687
  502SOL    HW2 1509   1.654   2.377   0.790
  503SOL     OW 1510   0.231   3.575   0.483
  503SOL    HW1 1511   0.265   3.652   0.537
  503SOL    HW2 1512   0.275   3.575   0.393
  504SOL     OW 1513   1.127   3.203   1.690
  504SOL    HW1 1514   1.174   3.203   1.778
  504SOL    HW2 1515   1.079   3.116   1.679
  505SOL     OW 1516   0.230   3.296   0.538
  505SOL    HW1 1517   0.204   3.392   0.538
  505SOL    HW2 1518   0.159   3.242   0.583
  506SOL     OW 1519   0.240   2.953   0.886
  506SOL    HW1 1520   0.254   2.869   0.938
  506SOL    HW2 1521   0.185   3.017   0.941
  507SOL     OW 1522   0.620   3.648   1.439
  507SOL    HW1 1523   0.528   3.631   1.474
  507SOL    HW2 1524   0.648   3.740   1.465
  508SOL     OW 1525   0.606   2.826   0.123
  508SOL    HW1 1526   0.613   2.910   0.069
  508SOL    HW2 1527   0.652   2.839   0.211
  509SOL     OW 1528   1.594   1.976   1.480
  509SOL    HW1 1529   1.576   2.043   1.408
  509SOL    HW2 1530   1.591   2.022   1.569
  510SOL     OW 1531   0.122   2.505   0.563
  510SOL    HW1 1532   0.077   2.417   0.580
  510SOL    HW2 1533   0.121   2.559   0.647
  511SOL     OW 1534   1.842   3.629   0.359
  511SOL    HW1 1535   1.896   3.600   0.439
  511SOL    HW2 1536   1.872   3.719   0.330
  512SOL     OW 1537   0.027   3.458   0.117
  512SOL    HW1 1538   0.008   3.362   0.138
  512SOL    HW2 1539  -0.006   3.516   0.192
  513SOL     OW 1540   1.689   2.784   0.612
  513SOL    HW1 1541   1.784   2.755   0.620
  513SOL    HW2 1542   1.681   2.849   0.537
  514SOL     OW 1543   1.641   2.970   0.432
  514SOL    HW1 1544   1.727   2.972   0.380
  514SOL    HW2 1545   1.655   3.017   0.520
  515SOL     OW 1546   0.113   2.599   1.597
  515SOL    HW1 1547   0.201   2.586   1.642
  515SOL    HW2 1548   0.100   2.696   1.575
  516SOL     OW 1549   0.613   3.227   0.726
  516SOL    HW1 1550   0.564   3.140   0.735
  516SOL    HW2 1551   0.590   3.270   0.639
  517SOL     OW 1552   1.293   3.090   1.423
  517SOL    HW1 1553   1.330   3.017   1.365
  517SOL    HW2 1554   1.345   3.095   1.508
  518SOL     OW 1555   0.809   1.866   0.502
  518SOL    HW1 1556   0.849   1.957   0.493
  518SOL    HW2 1557   0.709   1.874   0.508
  519SOL     OW 1558   0.197   2.838   1.264
  519SOL    HW1 1559   0.286   2.793   1.250
  519SOL    HW2 1560   0.124   2.773   1.245
  520SOL     OW 1561   1.525   2.861   0.190
  520SOL    HW1 1562   1.462   2.785   0.203
  520SOL    HW2 1563   1.573   2.879   0.276
  521SOL     OW 1564   1.187   3.654   1.616
  521SOL    HW1 1565   1.211   3.714   1.540
  521SOL    HW2 1566   1.194   3.559   1.586
  522SOL     OW 1567   0.317   2.113   1.801
  522SOL    HW1 1568   0.388   2.184   1.807
  522SOL    HW2 1569   0.229   2.152   1.829
  523SOL     OW 1570   1.466   3.279   0.953
  523SOL    HW1 1571   1.407   3.285   1.033
  523SOL    HW2 1572   1.451   3.191   0.907
  524SOL     OW 1573   1.667   3.576   0.572
  524SOL    HW1 1574   1.626   3.553   0.484
  524SOL    HW2 1575   1.649   3.502   0.637
  525SOL     OW 1576   0.598   2.591   0.270
  525SOL    HW1 1577   0.622   2.660   0.202
  525SOL    HW2 1578   0.520   2.624   0.324
  526SOL     OW 1579   1.281   2.207   0.944
  526SOL    HW1 1580   1.195   2.157   0.931
  526SOL    HW2 1581   1.343   2.153   1.000
  527SOL     OW 1582   1.576   3.524   0.307
  527SOL    HW1 1583   1.665   3.570   0.310
  527SOL    HW2 1584   1.555   3.500   0.212
  528SOL     OW 1585   0.807   2.467   1.465
  528SOL    HW1 1586   0.760   2.464   1.554
  528SOL    HW2 1587   0.756   2.412   1.399
  529SOL     OW 1588   1.394   2.331   1.674
  529SOL    HW1 1589   1.374   2.374   1.762
  529SOL    HW2 1590   1.472   2.269   1.683
  530SOL     OW 1591   0.973   2.752   1.572
  530SOL    HW1 1592   1.019   2.668   1.543
  530SOL    HW2 1593   0.917   2.786   1.497
  531SOL     OW 1594   0.991   2.272   1.242
  531SOL    HW1 1595   0.914   2.306   1.296
  531SOL    HW2 1596   0.957   2.221   1.163
  532SOL     OW 1597   1.041   2.563   0.429
  532SOL    HW1 1598   1.067   2.559   0.525
  532SOL    HW2 1599   0.956   2.512   0.415
  533SOL     OW 1600   0.076   2.673   0.789
  533SOL    HW1 1601   0.175   2.661   0.798
  533SOL    HW2 1602   0.052   2.768   0.810
  534SOL     OW 1603   0.130   3.683   1.571
  534SOL    HW1 1604   0.120   3.668   1.670
  534SOL    HW2 1605   0.044   3.719   1.535
  535SOL     OW 1606   0.865   2.210   0.195
  535SOL    HW1 1607   0.924   2.273   0.146
  535SOL    HW2 1608   0.884   2.116   0.166
  536SOL     OW 1609   1.719   2.447   1.831
  536SOL    HW1 1610   1.693   2.536   1.795
  536SOL    HW2 1611   1.717   2.379   1.758
  537SOL     OW 1612   1.362   3.006   0.545
  537SOL    HW1 1613   1.445   2.977   0.497
  537SOL    HW2 1614   1.313   3.073   0.489
  538SOL     OW 1615   0.550   2.058   0.885
  538SOL    HW1 1616   0.545   2.053   0.985
  538SOL    HW2 1617   0.552   2.154   0.856
  539SOL     OW 1618   1.008   3.318   0.477
  539SOL    HW1 1619   0.962   3.390   0.425
  539SOL    HW2 1620   1.004   3.338   0.575
  540SOL     OW 1621   0.351   3.663   0.853
  540SOL    HW1 1622   0.401   3.577   0.859
  540SOL    HW2 1623   0.416   3.740   0.850
  541SOL     OW 1624   1.795   2.928   0.873
  541SOL    HW1 1625   1.733   2.913   0.797
  541SOL    HW2 1626   1.743   2.939   0.958
  542SOL     OW 1627   1.227   3.412   1.506
  542SOL    HW1 1628   1.233   3.335   1.570
  542SOL    HW2 1629   1.175   3.386   1.426
  543SOL     OW 1630   0.321   2.805   0.242
  543SOL    HW1 1631   0.403   2.844   0.200
  543SOL    HW2 1632   0.294   2.723   0.193
  544SOL     OW 1633   1.458   2.597   0.728
  544SOL    HW1 1634   1.453   2.532   0.803
  544SOL    HW2 1635   1.538   2.656   0.741
  545SOL     OW 1636   0.461   3.128   1.727
  545SOL    HW1 1637   0.411   3.129   1.641
  545SOL    HW2 1638   0.398   3.110   1.803
  546SOL     OW 1639   1.111   3.638   0.237
  546SOL    HW1 1640   1.051   3.576   0.287
  546SOL    HW2 1641   1.142   3.594   0.152
  547SOL     OW 1642   0.202   2.147   1.498
  547SOL    HW1 1643   0.122   2.207   1.485
  547SOL    HW2 1644   0.192   2.098   1.584
  548SOL     OW 1645   1.632   3.239   0.081
  548SOL    HW1 1646   1.600   3.333   0.071
  548SOL    HW2 1647   1.556   3.176   0.069
  549SOL     OW 1648   0.464   3.605   0.323
  549SOL    HW1 1649   0.497   3.644   0.409
  549SOL    HW2 1650   0.540   3.598   0.258
  550SOL     OW 1651   1.400   1.969   0.426
  550SOL    HW1 1652   1.376   1.932   0.336
  550SOL    HW2 1653   1.499   1.985   0.430
  551SOL     OW 1654   0.249   3.647   1.241
  551SOL    HW1 1655   0.306   3.582   1.291
  551SOL    HW2 1656   0.233   3.614   1.148
  552SOL     OW 1657   0.940   3.560   0.904
  552SOL    HW1 1658   1.020   3.503   0.925
  552SOL    HW2 1659   0.891   3.520   0.827
  553SOL     OW 1660   0.382   2.562   0.480
  553SOL    HW1 1661   0.427   2.472   0.477
  553SOL    HW2 1662   0.288   2.551   0.513
  554SOL     OW 1663   1.547   2.084   1.729
  554SOL    HW1 1664   1.542   2.121   1.821
  554SOL    HW2 1665   1.475   2.015   1.717
  555SOL     OW 1666   0.614   1.984   0.117
  555SOL    HW1 1667   0.712   1.962   0.124
  555SOL    HW2 1668   0.583   1.967   0.024
  556SOL     OW 1669   0.781   2.126   1.749
  556SOL    HW1 1670   0.848   2.065   1.792
  556SOL    HW2 1671   0.708   2.145   1.814
  557SOL     OW 1672   0.888   3.376   1.195
  557SOL    HW1 1673   0.865   3.351   1.101
  557SOL    HW2 1674   0.949   3.307   1.234
  558SOL     OW 1675   1.351   2.452   1.433
  558SOL    HW1 1676   1.379   2.409   1.518
  558SOL    HW2 1677   1.376   2.548   1.434
  559SOL     OW 1678   0.803   3.264   0.924
  559SOL    HW1 1679   0.893   3.278   0.882
  559SOL    HW2 1680   0.732   3.266   0.853
  560SOL     OW 1681   0.922   2.365   0.899
  560SOL    HW1 1682   0.897   2.356   0.803
  560SOL    HW2 1683   0.970   2.283   0.930
  561SOL     OW 1684   0.539   1.926   0.512
  561SOL    HW1 1685   0.458   1.927   0.570
  561SOL    HW2 1686   0.542   2.009   0.457
  562SOL     OW 1687   1.434   3.050   0.041
  562SOL    HW1 1688   1.466   2.974   0.098
  562SOL    HW2 1689   1.342   3.077   0.071
  563SOL     OW 1690   0.297   1.897   0.171
  563SOL    HW1 1691   0.346   1.981   0.150
  563SOL    HW2 1692   0.359   1.832   0.216
  564SOL     OW 1693   0.935   2.098   0.480
  564SOL    HW1 1694   0.887   2.139   0.402
  564SOL    HW2 1695   1.034   2.096   0.461
  565SOL     OW 1696   1.076   2.545   1.464
  565SOL    HW1 1697   0.996   2.484   1.467
  565SOL    HW2 1698   1.157   2.492   1.440
  566SOL     OW 1699   1.227   3.432   0.793
  566SOL    HW1 1700   1.248   3.506   0.728
  566SOL    HW2 1701   1.295   3.432   0.866
  567SOL     OW 1702   0.459   3.014   0.741
  567SOL    HW1 1703   0.388   2.987   0.806
  567SOL    HW2 1704   0.433   2.986   0.648
  568SOL     OW 1705   1.271   3.659   0.591
  568SOL    HW1 1706   1.315   3.723   0.527
  568SOL    HW2 1707   1.221   3.711   0.661
  569SOL     OW 1708   1.032   2.411   0.016
  569SOL    HW1 1709   0.991   2.493  -0.023
  569SOL    HW2 1710   1.096   2.437   0.089
  570SOL     OW 1711   0.078   2.418   1.386
  570SOL    HW1 1712   0.170   2.417   1.345
  570SOL    HW2 1713   0.072   2.492   1.453
  571SOL     OW 1714   0.561   2.084   1.147
  571SOL    HW1 1715   0.599   2.000   1.184
  571SOL    HW2 1716   0.473   2.103   1.191
  572SOL     OW 1717   0.866   2.316   0.642
  572SOL    HW1 1718   0.834   2.388   0.580
  572SOL    HW2 1719   0.890   2.235   0.589
  573SOL     OW 1720   1.017   1.901   0.753
  573SOL    HW1 1721   0.945   1.906   0.684
  573SOL    HW2 1722   0.993   1.832   0.822
  574SOL     OW 1723   1.429   3.035   0.867
  574SOL    HW1 1724   1.374   2.951   0.860
  574SOL    HW2 1725   1.455   3.064   0.775
  575SOL     OW 1726   1.466   2.452   0.992
  575SOL    HW1 1727   1.436   2.357   0.999
  575SOL    HW2 1728   1.539   2.468   1.058
  576SOL     OW 1729   1.857   2.695   0.377
  576SOL    HW1 1730   1.899   2.631   0.441
  576SOL    HW2 1731   1.819   2.644   0.299
  577SOL     OW 1732   0.488   3.247   0.174
  577SOL    HW1 1733   0.401   3.232   0.221
  577SOL    HW2 1734   0.471   3.273   0.079
  578SOL     OW 1735   1.664   3.142   0.657
  578SOL    HW1 1736   1.763   3.150   0.671
  578SOL    HW2 1737   1.619   3.226   0.688
  579SOL     OW 1738   1.390   2.437   0.078
  579SOL    HW1 1739   1.336   2.416   0.159
  579SOL    HW2 1740   1.481   2.396   0.087
  580SOL     OW 1741   0.527   2.118   0.328
  580SOL    HW1 1742   0.554   2.059   0.253
  580SOL    HW2 1743   0.527   2.213   0.297
  581SOL     OW 1744   1.754   3.085   1.588
  581SOL    HW1 1745   1.845   3.046   1.575
  581SOL    HW2 1746   1.762   3.181   1.612
  582SOL     OW 1747   1.064   3.209   1.340
  582SOL    HW1 1748   0.984   3.186   1.395
  582SOL    HW2 1749   1.147   3.183   1.389
  583SOL     OW 1750   1.592   3.491   1.625
  583SOL    HW1 1751   1.619   3.525   1.535
  583SOL    HW2 1752   1.671   3.453   1.671
  584SOL     OW 1753   1.111   3.057   1.100
  584SOL    HW1 1754   1.071   3.101   1.181
  584SOL    HW2 1755   1.070   3.094   1.017
  585SOL     OW 1756   1.638   2.961   1.079
  585SOL    HW1 1757   1.643   3.042   1.138
  585SOL    HW2 1758   1.552   2.963   1.028
  586SOL     OW 1759   0.915   1.951   1.402
  586SOL    HW1 1760   0.940   1.931   1.307
  586SOL    HW2 1761   0.987   2.007   1.444
  587SOL     OW 1762   0.980   2.978   1.719
  587SOL    HW1 1763   0.881   2.984   1.729
  587SOL    HW2 1764   1.003   2.898   1.663
  588SOL     OW 1765   0.705   2.912   0.368
  588SOL    HW1 1766   0.691   2.919   0.467
  588SOL    HW2 1767   0.789   2.861   0.350
  589SOL     OW 1768   0.410   2.675   1.251
  589SOL    HW1 1769   0.496   2.687   1.301
  589SOL    HW2 1770   0.368   2.588   1.278
  590SOL     OW 1771   1.274   2.248   1.262
  590SOL    HW1 1772   1.295   2.322   1.326
  590SOL    HW2 1773   1.185   2.265   1.219
  591SOL     OW 1774   0.064   3.426   1.331
  591SOL    HW1 1775   0.018   3.508   1.297
  591SOL    HW2 1776   0.162   3.445   1.340
  592SOL     OW 1777   0.367   2.962   0.501
  592SOL    HW1 1778   0.360   3.045   0.445
  592SOL    HW2 1779   0.371   2.882   0.441
  593SOL     OW 1780   0.566   2.399   0.865
  593SOL    HW1 1781   0.578   2.465   0.791
  593SOL    HW2 1782   0.612   2.433   0.948
  594SOL     OW 1783   1.252   3.210   0.388
  594SOL    HW1 1784   1.302   3.287   0.428
  594SOL    HW2 1785   1.157   3.212   0.420
  595SOL     OW 1786   1.272   3.307   1.142
  595SOL    HW1 1787   1.319   3.320   1.229
  595SOL    HW2 1788   1.206   3.233   1.151
  596SOL     OW 1789   1.582   2.501   0.472
  596SOL    HW1 1790   1.551   2.562   0.545
  596SOL    HW2 1791   1.632   2.553   0.403
  597SOL     OW 1792   0.354   3.372   1.329
  597SOL    HW1 1793   0.333   3.328   1.242
  597SOL    HW2 1794   0.451   3.398   1.332
  598SOL     OW 1795   0.402   2.613   1.598
  598SOL    HW1 1796   0.470   2.668   1.551
  598SOL    HW2 1797   0.442   2.525   1.625
  599SOL     OW 1798   1.587   2.641   1.670
  599SOL    HW1 1799   1.495   2.679   1.665
  599SOL    HW2 1800   1.647   2.688   1.605
  600SOL     OW 1801   1.013   1.967   1.770
  600SOL    HW1 1802   1.019   2.052   1.718
  600SOL    HW2 1803   1.045   1.891   1.713
  601SOL     OW 1804   0.504   1.912   1.740
  601SOL    HW1 1805   0.462   1.855   1.670
  601SOL    HW2 1806   0.438   1.981   1.772
  602SOL     OW 1807   0.573   2.732   1.029
  602SOL    HW1 1808   0.617   2.821   1.020
  602SOL    HW2 1809   0.510   2.732   1.106
  603SOL     OW 1810   1.360   2.724   1.045
  603SOL    HW1 1811   1.285   2.724   0.979
  603SOL    HW2 1812   1.397   2.632   1.054
  604SOL     OW 1813   1.209   2.387   0.275
  604SOL    HW1 1814   1.222   2.303   0.329
  604SOL    HW2 1815   1.180   2.461   0.335
  605SOL     OW 1816   0.307   2.075   1.231
  605SOL    HW1 1817   0.284   2.112   1.321
  605SOL    HW2 1818   0.277   1.980   1.225
  606SOL     OW 1819   0.037   3.172   1.282
  606SOL    HW1 1820   0.090   3.123   1.350
  606SOL    HW2 1821   0.059   3.270   1.287
  607SOL     OW 1822   0.732   2.496   1.064
  607SOL    HW1 1823   0.791   2.470   0.988
  607SOL    HW2 1824   0.704   2.592   1.053
  608SOL     OW 1825   1.728   2.797   1.854
  608SOL    HW1 1826   1.682   2.790   1.765
  608SOL    HW2 1827   1.666   2.841   1.920
  609SOL     OW 1828   0.307   1.925   0.618
  609SOL    HW1 1829   0.296   2.019   0.651
  609SOL    HW2 1830   0.302   1.862   0.695
  610SOL     OW 1831   1.622   2.229   0.374
  610SOL    HW1 1832   1.624   2.153   0.438
  610SOL    HW2 1833   1.574   2.306   0.414
  611SOL     OW 1834   1.023   2.628   0.966
  611SOL    HW1 1835   1.038   2.649   1.062
  611SOL    HW2 1836   0.993   2.533   0.957
  612SOL     OW 1837   0.980   3.435   1.700
  612SOL    HW1 1838   0.960   3.479   1.612
  612SOL    HW2 1839   1.019   3.344   1.684
  613SOL     OW 1840   1.859   3.380   1.605
  613SOL    HW1 1841   1.873   3.407   1.510
  613SOL    HW2 1842   1.942   3.402   1.658
  614SOL     OW 1843   0.350   2.760   1.804
  614SOL    HW1 1844   0.426   2.804   1.852
  614SOL    HW2 1845   0.385   2.713   1.722
  615SOL     OW 1846   1.540   2.136   0.125
  615SOL    HW1 1847   1.479   2.061   0.148
  615SOL    HW2 1848   1.562   2.188   0.208
  616SOL     OW 1849   1.303   2.700   0.042
  616SOL    HW1 1850   1.337   2.607   0.057
  616SOL    HW2 1851   1.321   2.727  -0.053
  617SOL     OW 1852   1.068   3.195   0.849
  617SOL    HW1 1853   1.075   3.111   0.794
  617SOL    HW2 1854   1.130   3.264   0.813
  618SOL     OW 1855   0.319   2.672   0.949
  618SOL    HW1 1856   0.412   2.708   0.954
  618SOL    HW2 1857   0.313   2.587   1.001
  619SOL     OW 1858   0.339   2.371   1.006
  619SOL    HW1 1859   0.287   2.288   0.989
  619SOL    HW2 1860   0.416   2.376   0.942
  620SOL     OW 1861   1.138   2.242   1.678
  620SOL    HW1 1862   1.093   2.305   1.742
  620SOL    HW2 1863   1.231   2.273   1.661
  621SOL     OW 1864   1.160   2.069   1.477
  621SOL    HW1 1865   1.160   2.133   1.554
  621SOL    HW2 1866   1.188   2.117   1.394
  622SOL     OW 1867   0.008   3.188   0.200
  622SOL    HW1 1868  -0.085   3.209   0.169
  622SOL    HW2 1869   0.018   3.089   0.213
  623SOL     OW 1870   0.088   3.663   0.927
  623SOL    HW1 1871   0.046   3.577   0.900
  623SOL    HW2 1872   0.182   3.666   0.893
  624SOL     OW 1873   0.504   3.430   0.910
  624SOL    HW1 1874   0.570   3.504   0.919
  624SOL    HW2 1875   0.548   3.351   0.868
  625SOL     OW 1876   1.002   2.658   1.238
  625SOL    HW1 1877   1.043   2.626   1.324
  625SOL    HW2 1878   0.906   2.631   1.235
  626SOL     OW 1879   0.040   2.406   1.114
  626SOL    HW1 1880   0.125   2.373   1.073
  626SOL    HW2 1881   0.053   2.421   1.212
  627SOL     OW 1882   0.189   2.382   1.722
  627SOL    HW1 1883   0.248   2.342   1.652
  627SOL    HW2 1884   0.131   2.453   1.681
  628SOL     OW 1885   1.369   2.812   1.660
  628SOL    HW1 1886   1.408   2.901   1.680
  628SOL    HW2 1887   1.379   2.792   1.563
  629SOL     OW 1888   0.815   2.434   0.325
  629SOL    HW1 1889   0.822   2.345   0.279
  629SOL    HW2 1890   0.721   2.468   0.317
  630SOL     OW 1891   1.657   2.466   1.206
  630SOL    HW1 1892   1.619   2.397   1.268
  630SOL    HW2 1893   1.739   2.430   1.162
  631SOL     OW 1894   0.252   3.426   1.744
  631SOL    HW1 1895   0.222   3.483   1.820
  631SOL    HW2 1896   0.245   3.329   1.770
  632SOL     OW 1897   0.671   2.326   1.269
  632SOL    HW1 1898   0.637   2.237   1.239
  632SOL    HW2 1899   0.697   2.380   1.189
  633SOL     OW 1900   0.930   3.540   1.465
  633SOL    HW1 1901   0.906   3.522   1.370
  633SOL    HW2 1902   0.960   3.634   1.475
  634SOL     OW 1903   0.473   2.362   0.191
  634SOL    HW1 1904   0.534   2.442   0.195
  634SOL    HW2 1905   0.378   2.393   0.198
  635SOL     OW 1906   0.159   2.999   1.466
  635SOL    HW1 1907   0.181   2.938   1.542
  635SOL    HW2 1908   0.169   2.950   1.380
  636SOL     OW 1909   1.347   2.921   1.234
  636SOL    HW1 1910   1.371   2.858   1.160
  636SOL    HW2 1911   1.257   2.961   1.216
  637SOL     OW 1912   1.302   2.717   0.309
  637SOL    HW1 1913   1.216   2.686   0.351
  637SOL    HW2 1914   1.298   2.703   0.210
  638SOL     OW 1915   1.759   3.609   1.154
  638SOL    HW1 1916   1.820   3.639   1.081
  638SOL    HW2 1917   1.721   3.520   1.132
  639SOL     OW 1918   1.252   3.593   1.128
  639SOL    HW1 1919   1.336   3.598   1.074
  639SOL    HW2 1920   1.229   3.497   1.146
  640SOL     OW 1921   0.083   3.120   1.022
  640SOL    HW1 1922   0.078   3.119   1.122
  640SOL    HW2 1923   0.000   3.079   0.984
  641SOL     OW 1924   0.688   3.524   1.716
  641SOL    HW1 1925   0.632   3.605   1.725
  641SOL    HW2 1926   0.740   3.528   1.630
  642SOL     OW 1927   0.903   1.948   0.133
  642SOL    HW1 1928   0.954   1.949   0.047
  642SOL    HW2 1929   0.959   1.906   0.204
  643SOL     OW 1930   1.726   1.997   0.523
  643SOL    HW1 1931   1.799   1.980   0.456
  643SOL    HW2 1932   1.695   1.910   0.561
  644SOL     OW 1933   1.388   3.435   0.477
  644SOL    HW1 1934   1.455   3.447   0.403
  644SOL    HW2 1935   1.348   3.524   0.500
  645SOL     OW 1936   0.130   3.656   1.851
  645SOL    HW1 1937   0.089   3.582   1.904
  645SOL    HW2 1938   0.194   3.707   1.909
  646SOL     OW 1939   1.280   2.789   0.672
  646SOL    HW1 1940   1.340   2.708   0.674
  646SOL    HW2 1941   1.320   2.858   0.612
  647SOL     OW 1942   0.830   3.135   1.422
  647SOL    HW1 1943   0.825   3.168   1.517
  647SOL    HW2 1944   0.744   3.154   1.376
  648SOL     OW 1945   0.672   3.478   0.154
  648SOL    HW1 1946   0.681   3.488   0.055
  648SOL    HW2 1947   0.632   3.389   0.175
  649SOL     OW 1948   1.650   3.582   1.394
  649SOL    HW1 1949   1.703   3.592   1.310
  649SOL    HW2 1950   1.623   3.672   1.428
  650SOL     OW 1951   1.841   2.037   0.963
  650SOL    HW1 1952   1.880   1.952   0.927
  650SOL    HW2 1953   1.743   2.039   0.944
  651SOL     OW 1954   0.263   2.188   0.720
  651SOL    HW1 1955   0.184   2.239   0.686
  651SOL    HW2 1956   0.254   2.173   0.818
  652SOL     OW 1957   1.194   3.474   0.031
  652SOL    HW1 1958   1.200   3.381   0.068
  652SOL    HW2 1959   1.135   3.474  -0.049
  653SOL     OW 1960   0.822   2.864   1.372
  653SOL    HW1 1961   0.862   2.863   1.280
  653SOL    HW2 1962   0.832   2.956   1.412
  654SOL     OW 1963   0.916   2.772   0.291
  654SOL    HW1 1964   0.979   2.810   0.223
  654SOL    HW2 1965   0.956   2.689   0.330
  655SOL     OW 1966   1.504   3.469   0.044
  655SOL    HW1 1967   1.412   3.506   0.051
  655SOL    HW2 1968   1.542   3.489  -0.046
  656SOL     OW 1969   0.372   3.150   1.490
  656SOL    HW1 1970   0.359   3.243   1.456
  656SOL    HW2 1971   0.288   3.098   1.477
  657SOL     OW 1972   1.614   3.154   1.289
  657SOL    HW1 1973   1.674   3.157   1.369
  657SOL    HW2 1974   1.539   3.218   1.302
  658SOL     OW 1975   1.039   2.960   0.696
  658SOL    HW1 1976   0.969   2.913   0.750
  658SOL    HW2 1977   1.098   2.892   0.653
  659SOL     OW 1978   1.014   2.098   0.971
  659SOL    HW1 1979   1.006   2.062   0.878
  659SOL    HW2 1980   1.012   2.022   1.036
  660SOL     OW 1981   0.590   3.349   0.491
  660SOL    HW1 1982   0.632   3.291   0.421
  660SOL    HW2 1983   0.546   3.428   0.447
  661SOL     OW 1984   1.709   2.247   1.381
  661SOL    HW1 1985   1.782   2.316   1.385
  661SOL    HW2 1986   1.737   2.172   1.322
  662SOL     OW 1987   0.255   3.210   0.290
  662SOL    HW1 1988   0.159   3.211   0.263
  662SOL    HW2 1989   0.267   3.263   0.374
  663SOL     OW 1990   0.105   2.875   1.726
  663SOL    HW1 1991   0.028   2.842   1.780
  663SOL    HW2 1992   0.190   2.845   1.768
  664SOL     OW 1993   0.672   2.065   1.489
  664SOL    HW1 1994   0.762   2.049   1.449
  664SOL    HW2 1995   0.680   2.070   1.588
  665SOL     OW 1996   0.075   2.207   0.033
  665SOL    HW1 1997  -0.017   2.179   0.004
  665SOL    HW2 1998   0.106   2.284  -0.023
  666SOL     OW 1999   1.440   2.718   1.398
  666SOL    HW1 2000   1.383   2.770   1.335
  666SOL    HW2 2001   1.536   2.730   1.374
  667SOL     OW 2002   0.072   2.028   0.318
  667SOL    HW1 2003   0.055   2.111   0.264
  667SOL    HW2 2004   0.162   1.991   0.296
  668SOL     OW 2005   1.183   3.197   0.119
  668SOL    HW1 2006   1.084   3.186   0.121
  668SOL    HW2 2007   1.217   3.212   0.212
  669SOL     OW 2008   0.613   2.704   1.431
  669SOL    HW1 2009   0.669   2.785   1.414
  669SOL    HW2 2010   0.672   2.624   1.434
  670SOL     OW 2011   1.493   3.629   0.959
  670SOL    HW1 2012   1.526   3.693   0.890
  670SOL    HW2 2013   1.559   3.623   1.034
  671SOL     OW 2014   0.716   2.427   1.708
  671SOL    HW1 2015   0.735   2.492   1.782
  671SOL    HW2 2016   0.776   2.347   1.717
  672SOL     OW 2017   1.450   3.082   1.633
  672SOL    HW1 2018   1.441   3.072   1.732
  672SOL    HW2 2019   1.546   3.075   1.607
  673SOL     OW 2020   0.390   3.603   1.560
  673SOL    HW1 2021   0.299   3.644   1.558
  673SOL    HW2 2022   0.383   3.509   1.592
  674SOL     OW 2023   1.674   2.745   1.254
  674SOL    HW1 2024   1.647   2.656   1.217
  674SOL    HW2 2025   1.675   2.813   1.181
  675SOL     OW 2026   1.225   2.187   0.449
  675SOL    HW1 2027   1.290   2.113   0.438
  675SOL    HW2 2028   1.245   2.237   0.533
  676SOL     OW 2029   0.594   2.607   0.652
  676SOL    HW1 2030   0.644   2.692   0.633
  676SOL    HW2 2031   0.506   2.609   0.604
  677SOL     OW 2032   1.777   2.204   1.642
  677SOL    HW1 2033   1.760   2.235   1.548
  677SOL    HW2 2034   1.693   2.167   1.680
  678SOL     OW 2035   1.730   2.796   1.517
  678SOL    HW1 2036   1.768   2.887   1.532
  678SOL    HW2 2037   1.722   2.779   1.418
  679SOL     OW 2038   0.859   3.236   0.016
  679SOL    HW1 2039   0.813   3.251   0.104
  679SOL    HW2 2040   0.903   3.321  -0.014
  680SOL     OW 2041   0.661   3.652   0.953
  680SOL    HW1 2042   0.615   3.740   0.940
  680SOL    HW2 2043   0.760   3.664   0.946
  681SOL     OW 2044   0.859   2.818   0.861
  681SOL    HW1 2045   0.913   2.749   0.909
  681SOL    HW2 2046   0.827   2.887   0.927
  682SOL     OW 2047   1.083   2.846   0.087
  682SOL    HW1 2048   1.060   2.899   0.005
  682SOL    HW2 2049   1.164   2.790   0.068
  683SOL     OW 2050   1.861   3.431   0.851
  683SOL    HW1 2051   1.790   3.419   0.781
  683SOL    HW2 2052   1.862   3.352   0.911
  684SOL     OW 2053   0.221   3.176   1.844
  684SOL    HW1 2054   0.156   3.103   1.823
  684SOL    HW2 2055   0.225   3.190   1.942
  685SOL     OW 2056   0.079   3.102   0.653
  685SOL    HW1 2057   0.078   3.055   0.741
  685SOL    HW2 2058   0.161   3.074   0.602
  686SOL     OW 2059   0.672   3.253   1.624
  686SOL    HW1 2060   0.594   3.203   1.662
  686SOL    HW2 2061   0.669   3.348   1.655
  687SOL     OW 2062   1.824   2.054   1.227
  687SOL    HW1 2063   1.820   1.964   1.271
  687SOL    HW2 2064   1.827   2.043   1.128
  688SOL     OW 2065   0.428   2.286   0.520
  688SOL    HW1 2066   0.458   2.214   0.458
  688SOL    HW2 2067   0.389   2.246   0.603
  689SOL     OW 2068   1.705   3.349   1.104
  689SOL    HW1 2069   1.612   3.324   1.077
  689SOL    HW2 2070   1.731   3.299   1.186
  690SOL     OW 2071   0.317   2.409   1.280
  690SOL    HW1 2072   0.355   2.350   1.352
  690SOL    HW2 2073   0.357   2.383   1.192
  691SOL     OW 2074   0.812   3.448   0.687
  691SOL    HW1 2075   0.844   3.458   0.593
  691SOL    HW2 2076   0.733   3.386   0.689
  692SOL     OW 2077   1.424   2.076   1.112
  692SOL    HW1 2078   1.476   2.011   1.167
  692SOL    HW2 2079   1.375   2.139   1.173
  693SOL     OW 2080   1.001   1.896   1.154
  693SOL    HW1 2081   0.938   1.824   1.123
  693SOL    HW2 2082   1.094   1.860   1.154
  694SOL     OW 2083   0.770   3.192   0.301
  694SOL    HW1 2084   0.724   3.105   0.318
  694SOL    HW2 2085   0.861   3.189   0.342
  695SOL     OW 2086   0.618   3.429   1.284
  695SOL    HW1 2087   0.613   3.511   1.341
  695SOL    HW2 2088   0.707   3.426   1.239
  696SOL     OW 2089   1.352   1.914   0.168
  696SOL    HW1 2090   1.387   1.873   0.084
  696SOL    HW2 2091   1.262   1.876   0.188
  697SOL     OW 2092   1.300   2.315   0.691
  697SOL    HW1 2093   1.241   2.395   0.695
  697SOL    HW2 2094   1.315   2.280   0.784
  698SOL     OW 2095   1.593   2.083   0.882
  698SOL    HW1 2096   1.509   2.082   0.936
  698SOL    HW2 2097   1.595   2.166   0.826
  699SOL     OW 2098   0.039   2.939   0.300
  699SOL    HW1 2099   0.138   2.928   0.291
  699SOL    HW2 2100  -0.001   2.853   0.332
  700SOL     OW 2101   0.875   3.508   0.337
  700SOL    HW1 2102   0.798   3.473   0.283
  700SOL    HW2 2103   0.843   3.579   0.399
  701SOL     OW 2104   0.230   2.490   1.975
  701SOL    HW1 2105   0.137   2.488   2.012
  701SOL    HW2 2106   0.231   2.451   1.883
  702SOL     OW 2107   0.225   2.137   2.858
  702SOL    HW1 2108   0.260   2.120   2.950
  702SOL    HW2 2109   0.137   2.092   2.846
  703SOL     OW 2110   0.019   2.230   2.509
  703SOL    HW1 2111  -0.063   2.273   2.548
  703SOL    HW2 2112  -0.009   2.157   2.446
  704SOL     OW 2113   0.569   3.137   3.027
  704SOL    HW1 2114   0.476   3.130   2.990
  704SOL    HW2 2115   0.580   3.226   3.071
  705SOL     OW 2116   1.555   3.373   2.565
  705SOL    HW1 2117   1.498   3.357   2.646
  705SOL    HW2 2118   1.496   3.383   2.485
  706SOL     OW 2119   1.135   2.565   2.579
  706SOL    HW1 2120   1.192   2.643   2.554
  706SOL    HW2 2121   1.075   2.591   2.655
  707SOL     OW 2122   1.755   2.469   2.093
  707SOL    HW1 2123   1.743   2.456   1.994
  707SOL    HW2 2124   1.725   2.388   2.142
  708SOL     OW 2125   0.768   3.006   2.885
  708SOL    HW1 2126   0.690   3.023   2.945
  708SOL    HW2 2127   0.802   3.093   2.849
  709SOL     OW 2128   0.850   2.660   3.685
  709SOL    HW1 2129   0.846   2.736   3.750
  709SOL    HW2 2130   0.872   2.696   3.594
  710SOL     OW 2131   0.685   2.874   2.527
  710SOL    HW1 2132   0.754   2.858   2.597
  710SOL    HW2 2133   0.612   2.931   2.565
  711SOL     OW 2134   0.686   3.023   3.665
  711SOL    HW1 2135   0.746   3.102   3.679
  711SOL    HW2 2136   0.600   3.054   3.624
  712SOL     OW 2137   0.335   3.297   2.923
  712SOL    HW1 2138   0.257   3.266   2.870
  712SOL    HW2 2139   0.393   3.355   2.866
  713SOL     OW 2140   1.460   3.367   3.201
  713SOL    HW1 2141   1.484   3.461   3.227
  713SOL    HW2 2142   1.444   3.313   3.283
  714SOL     OW 2143   0.438   2.254   3.361
  714SOL    HW1 2144   0.520   2.198   3.370
  714SOL    HW2 2145   0.357   2.196   3.365
  715SOL     OW 2146   1.603   2.309   2.599
  715SOL    HW1 2147   1.529   2.355   2.549
  715SOL    HW2 2148   1.654   2.377   2.652
  716SOL     OW 2149   0.231   3.575   2.345
  716SOL    HW1 2150   0.265   3.652   2.399
  716SOL    HW2 2151   0.275   3.575   2.255
  717SOL     OW 2152   1.127   3.203   3.552
  717SOL    HW1 2153   1.174   3.203   3.640
  717SOL    HW2 2154   1.079   3.116   3.541
  718SOL     OW 2155   0.230   3.296   2.400
  718SOL    HW1 2156   0.204   3.392   2.400
  718SOL    HW2 2157   0.159   3.242   2.445
  719SOL     OW 2158   0.240   2.953   2.748
  719SOL    HW1 2159   0.254   2.869   2.800
  719SOL    HW2 2160   0.185   3.017   2.803
  720SOL     OW 2161   0.620   3.648   3.301
  720SOL    HW1 2162   0.528   3.631   3.336
  720SOL    HW2 2163   0.648   3.740   3.327
  721SOL     OW 2164   0.606   2.826   1.985
  721SOL    HW1 2165   0.613   2.910   1.931
  721SOL    HW2 2166   0.652   2.839   2.073
  722SOL     OW 2167   1.594   1.976   3.342
  722SOL    HW1 2168   1.576   2.043   3.270
  722SOL    HW2 2169   1.591   2.022   3.431
  723SOL     OW 2170   0.122   2.505   2.425
  723SOL    HW1 2171   0.077   2.417   2.442
  723SOL    HW2 2172   0.121   2.559   2.509
  724SOL     OW 2173   1.842   3.629   2.221
  724SOL    HW1 2174   1.896   3.600   2.301
  724SOL    HW2 2175   1.872   3.719   2.192
  725SOL     OW 2176   0.027   3.458   1.979
  725SOL    HW1 2177   0.008   3.362   2.000
  725SOL    HW2 2178  -0.006   3.516   2.054
  726SOL     OW 2179   1.689   2.784   2.474
  726SOL    HW1 2180   1.784   2.755   2.482
  726SOL    HW2 2181   1.681   2.849   2.399
  727SOL     OW 2182   1.641   2.970   2.294
  727SOL    HW1 2183   1.727   2.972   2.242
  727SOL    HW2 2184   1.655   3.017   2.382
  728SOL     OW 2185   0.113   2.599   3.459
  728SOL    HW1 2186   0.201   2.586   3.504
  728SOL    HW2 2187   0.100   2.696   3.437
  729SOL     OW 2188   0.613   3.227   2.588
  729SOL    HW1 2189   0.564   3.140   2.597
  729SOL    HW2 2190   0.590   3.270   2.501
  730SOL     OW 2191   1.293   3.090   3.285
  730SOL    HW1 2192   1.330   3.017   3.227
  730SOL    HW2 2193   1.345   3.095   3.370
  731SOL     OW 2194   0.809   1.866   2.364
  731SOL    HW1 2195   0.849   1.957   2.355
  731SOL    HW2 2196   0.709   1.874   2.370
  732SOL     OW 2197   0.197   2.838   3.126
  732SOL    HW1 2198   0.286   2.793   3.112
  732SOL    HW2 2199   0.124   2.773   3.107
  733SOL     OW 2200   1.525   2.861   2.052
  733SOL    HW1 2201   1.462   2.785   2.065
  733SOL    HW2 2202   1.573   2.879   2.138
  734SOL     OW 2203   1.187   3.654   3.478
  734SOL    HW1 2204   1.211   3.714   3.402
  734SOL    HW2 2205   1.194   3.559   3.448
  735SOL     OW 2206   0.317   2.113   3.663
  735SOL    HW1 2207   0.388   2.184   3.669
  735SOL    HW2 2208   0.229   2.152   3.691
  736SOL     OW 2209   1.466   3.279   2.815
  736SOL    HW1 2210   1.407   3.285   2.895
  736SOL    HW2 2211   1.451   3.191   2.769
  737SOL     OW 2212   1.667   3.576   2.434
  737SOL    HW1 2213   1.626   3.553   2.346
  737SOL    HW2 2214   1.649   3.502   2.499
  738SOL     OW 2215   0.598   2.591   2.132
  738SOL    HW1 2216   0.622   2.660   2.064
  738SOL    HW2 2217   0.520   2.624   2.186
  739SOL     OW 2218   1.281   2.207   2.806
  739SOL    HW1 2219   1.195   2.157   2.793
  739SOL    HW2 2220   1.343   2.153   2.862
  740SOL     OW 2221   1.576   3.524   2.169
  740SOL    HW1 2222   1.665   3.570   2.172
  740SOL    HW2 2223   1.555   3.500   2.074
  741SOL     OW 2224   0.807   2.467   3.327
  741SOL    HW1 2225   0.760   2.464   3.416
  741SOL    HW2 2226   0.756   2.412   3.261
  742SOL     OW 2227   1.394   2.331   3.536
  742SOL    HW1 2228   1.374   2.374   3.624
  742SOL    HW2 2229   1.472   2.269   3.545
  743SOL     OW 2230   0.973   2.752   3.434
  743SOL    HW1 2231   1.019   2.668   3.405
  743SOL    HW2 2232   0.917   2.786   3.359
  744SOL     OW 2233   0.991   2.272   3.104
  744SOL    HW1 2234   0.914   2.306   3.158
  744SOL    HW2 2235   0.957   2.221   3.025
  745SOL     OW 2236   1.041   2.563   2.291
  745SOL    HW1 2237   1.067   2.559   2.387
  745SOL    HW2 2238   0.956   2.512   2.277
  746SOL     OW 2239   0.076   2.673   2.651
  746SOL    HW1 2240   0.175   2.661   2.660
  746SOL    HW2 2241   0.052   2.768   2.672
  747SOL     OW 2242   0.130   3.683   3.433
  747SOL    HW1 2243   0.120   3.668   3.532
  747SOL    HW2 2244   0.044   3.719   3.397
  748SOL     OW 2245   0.865   2.210   2.057
  748SOL    HW1 2246   0.924   2.273   2.008
  748SOL    HW2 2247   0.884   2.116   2.028
  749SOL     OW 2248   1.719   2.447   3.693
  749SOL    HW1 2249   1.693   2.536   3.657
  749SOL    HW2 2250   1.717   2.379   3.620
  750SOL     OW 2251   1.362   3.006   2.407
  750SOL    HW1 2252   1.445   2.977   2.359
  750SOL    HW2 2253   1.313   3.073   2.351
  751SOL     OW 2254   0.550   2.058   2.747
  751SOL    HW1 2255   0.545   2.053   2.847
  751SOL    HW2 2256   0.552   2.154   2.718
  752SOL     OW 2257   1.008   3.318   2.339
  752SOL    HW1 2258   0.962   3.390   2.287
  752SOL    HW2 2259   1.004   3.338   2.437
  753SOL     OW 2260   0.351   3.663   2.715
  753SOL    HW1 2261   0.401   3.577   2.721
  753SOL    HW2 2262   0.416   3.740   2.712
  754SOL     OW 2263   1.795   2.928   2.735
  754SOL    HW1 2264   1.733   2.913   2.659
  754SOL    HW2 2265   1.743   2.939   2.820
  755SOL     OW 2266   1.227   3.412   3.368
  755SOL    HW1 2267   1.233   3.335   3.432
  755SOL    HW2 2268   1.175   3.386   3.288
  756SOL     OW 2269   0.321   2.805   2.104
  756SOL    HW1 2270   0.403   2.844   2.062
  756SOL    HW2 2271   0.294   2.723   2.055
  757SOL     OW 2272   1.458   2.597   2.590
  757SOL    HW1 2273   1.453   2.532   2.665
  757SOL    HW2 2274   1.538   2.656   2.603
  758SOL     OW 2275   0.461   3.128   3.589
  758SOL    HW1 2276   0.411   3.129   3.503
  758SOL    HW2 2277   0.398   3.110   3.665
  759SOL     OW 2278   1.111   3.638   2.099
  759SOL    HW1 2279   1.051   3.576   2.149
  759SOL    HW2 2280   1.142   3.594   2.014
  760SOL     OW 2281   0.202   2.147   3.360
  760SOL    HW1 2282   0.122   2.207   3.347
  760SOL    HW2 2283   0.192   2.098   3.446
  761SOL     OW 2284   1.632   3.239   1.943
  761SOL    HW1 2285   1.600   3.333   1.933
  761SOL    HW2 2286   1.556   3.176   1.931
  762SOL     OW 2287   0.464   3.605   2.185
  762SOL    HW1 2288   0.497   3.644   2.271
  762SOL    HW2 2289   0.540   3.598   2.120
  763SOL     OW 2290   1.400   1.969   2.288
  763SOL    HW1 2291   1.376   1.932   2.198
  763SOL    HW2 2292   1.499   1.985   2.292
  764SOL     OW 2293   0.249   3.647   3.103
  764SOL    HW1 2294   0.306   3.582   3.153
  764SOL    HW2 2295   0.233   3.614   3.010
  765SOL     OW 2296   0.940   3.560   2.766
  765SOL    HW1 2297   1.020   3.503   2.787
  765SOL    HW2 2298   0.891   3.520   2.689
  766SOL     OW 2299   0.382   2.562   2.342
  766SOL    HW1 2300   0.427   2.472   2.339
  766SOL    HW2 2301   0.288   2.551   2.375
  767SOL     OW 2302   1.547   2.084   3.591
  767SOL    HW1 2303   1.542   2.121   3.683
  767SOL    HW2 2304   1.475   2.015   3.579
  768SOL     OW 2305   0.614   1.984   1.979
  768SOL    HW1 2306   0.712   1.962   1.986
  768SOL    HW2 2307   0.583   1.967   1.886
  769SOL     OW 2308   0.781   2.126   3.611
  769SOL    HW1 2309   0.848   2.065   3.654
  769SOL    HW2 2310   0.708   2.145   3.676
  770SOL     OW 2311   0.888   3.376   3.057
  770SOL    HW1 2312   0.865   3.351   2.963
  770SOL    HW2 2313   0.949   3.307   3.096
  771SOL     OW 2314   1.351   2.452   3.295
  771SOL    HW1 2315   1.379   2.409   3.380
  771SOL    HW2 2316   1.376   2.548   3.296
  772SOL     OW 2317   0.803   3.264   2.786
  772SOL    HW1 2318   0.893   3.278   2.744
  772SOL    HW2 2319   0.732   3.266   2.715
  773SOL     OW 2320   0.922   2.365   2.761
  773SOL    HW1 2321   0.897   2.356   2.665
  773SOL    HW2 2322   0.970   2.283   2.792
  774SOL     OW 2323   0.539   1.926   2.374
  774SOL    HW1 2324   0.458   1.927   2.432
  774SOL    HW2 2325   0.542   2.009   2.319
  775SOL     OW 2326   1.434   3.050   1.903
  775SOL    HW1 2327   1.466   2.974   1.960
  775SOL    HW2 2328   1.342   3.077   1.933
  776SOL     OW 2329   0.297   1.897   2.033
  776SOL    HW1 2330   0.346   1.981   2.012
  776SOL    HW2 2331   0.359   1.832   2.078
  777SOL     OW 2332   0.935   2.098   2.342
  777SOL    HW1 2333   0.887   2.139   2.264
  777SOL    HW2 2334   1.034   2.096   2.323
  778SOL     OW 2335   1.076   2.545   3.326
  778SOL    HW1 2336   0.996   2.484   3.329
  778SOL    HW2 2337   1.157   2.492   3.302
  779SOL     OW 2338   1.227   3.432   2.655
  779SOL    HW1 2339   1.248   3.506   2.590
  779SOL    HW2 2340   1.295   3.432   2.728
  780SOL     OW 2341   0.459   3.014   2.603
  780SOL    HW1 2342   0.388   2.987   2.668
  780SOL    HW2 2343   0.433   2.986   2.510
  781SOL     OW 2344   1.271   3.659   2.453
  781SOL    HW1 2345   1.315   3.723   2.389
  781SOL    HW2 2346   1.221   3.711   2.523
  782SOL     OW 2347   1.032   2.411   1.878
  782SOL    HW1 2348   0.991   2.493   1.839
  782SOL    HW2 2349   1.096   2.437   1.951
  783SOL     OW 2350   0.078   2.418   3.248
  783SOL    HW1 2351   0.170   2.417   3.207
  783SOL    HW2 2352   0.072   2.492   3.315
  784SOL     OW 2353   0.561   2.084   3.009
  784SOL    HW1 2354   0.599   2.000   3.046
  784SOL    HW2 2355   0.473   2.103   3.053
  785SOL     OW 2356   0.866   2.316   2.504
  785SOL    HW1 2357   0.834   2.388   2.442
  785SOL    HW2 2358   0.890   2.235   2.451
  786SOL     OW 2359   1.017   1.901   2.615
  786SOL    HW1 2360   0.945   1.906   2.546
  786SOL    HW2 2361   0.993   1.832   2.684
  787SOL     OW 2362   1.429   3.035   2.729
  787SOL    HW1 2363   1.374   2.951   2.722
  787SOL    HW2 2364   1.455   3.064   2.637
  788SOL     OW 2365   1.466   2.452   2.854
  788SOL    HW1 2366   1.436   2.357   2.861
  788SOL    HW2 2367   1.539   2.468   2.920
  789SOL     OW 2368   1.857   2.695   2.239
  789SOL    HW1 2369   1.899   2.631   2.303
  789SOL    HW2 2370   1.819   2.644   2.161
  790SOL     OW 2371   0.488   3.247   2.036
  790SOL    HW1 2372   0.401   3.232   2.083
  790SOL    HW2 2373   0.471   3.273   1.941
  791SOL     OW 2374   1.664   3.142   2.519
  791SOL    HW1 2375   1.763   3.150   2.533
  791SOL    HW2 2376   1.619   3.226   2.550
  792SOL     OW 2377   1.390   2.437   1.940
  792SOL    HW1 2378   1.336   2.416   2.021
  792SOL    HW2 2379   1.481   2.396   1.949
  793SOL     OW 2380   0.527   2.118   2.190
  793SOL    HW1 2381   0.554   2.059   2.115
  793SOL    HW2 2382   0.527   2.213   2.159
  794SOL     OW 2383   1.754   3.085   3.450
  794SOL    HW1 2384   1.845   3.046   3.437
  794SOL    HW2 2385   1.762   3.181   3.474
  795SOL     OW 2386   1.064   3.209   3.202
  795SOL    HW1 2387   0.984   3.186   3.257
  795SOL    HW2 2388   1.147   3.183   3.251
  796SOL     OW 2389   1.592   3.491   3.487
  796SOL    HW1 2390   1.619   3.525   3.397
  796SOL    HW2 2391   1.671   3.453   3.533
  797SOL     OW 2392   1.111   3.057   2.962
  797SOL    HW1 2393   1.071   3.101   3.043
  797SOL    HW2 2394   1.070   3.094   2.879
  798SOL     OW 2395   1.638   2.961   2.941
  798SOL    HW1 2396   1.643   3.042   3.000
  798SOL    HW2 2397   1.552   2.963   2.890
  799SOL     OW 2398   0.915   1.951   3.264
  799SOL    HW1 2399   0.940   1.931   3.169
  799SOL    HW2 2400   0.987   2.007   3.306
  800SOL     OW 2401   0.980   2.978   3.581
  800SOL    HW1 2402   0.881   2.984   3.591
  800SOL    HW2 2403   1.003   2.898   3.525
  801SOL     OW 2404   0.705   2.912   2.230
  801SOL    HW1 2405   0.691   2.919   2.329
  801SOL    HW2 2406   0.789   2.861   2.212
  802SOL     OW 2407   0.410   2.675   3.113
  802SOL    HW1 2408   0.496   2.687   3.163
  802SOL    HW2 2409   0.368   2.588   3.140
  803SOL     OW 2410   1.274   2.248   3.124
  803SOL    HW1 2411   1.295   2.322   3.188
  803SOL    HW2 2412   1.185   2.265   3.081
  804SOL     OW 2413   0.064   3.426   3.193
  804SOL    HW1 2414   0.018   3.508   3.159
  804SOL    HW2 2415   0.162   3.445   3.202
  805SOL     OW 2416   0.367   2.962   2.363
  805SOL    HW1 2417   0.360   3.045   2.307
  805SOL    HW2 2418   0.371   2.882   2.303
  806SOL     OW 2419   0.566   2.399   2.727
  806SOL    HW1 2420   0.578   2.465   2.653
  806SOL    HW2 2421   0.612   2.433   2.810
  807SOL     OW 2422   1.252   3.210   2.250
  807SOL    HW1 2423   1.302   3.287   2.290
  807SOL    HW2 2424   1.157   3.212   2.282
  808SOL     OW 2425   1.272   3.307   3.004
  808SOL    HW1 2426   1.319   3.320   3.091
  808SOL    HW2 2427   1.206   3.233   3.013
  809SOL     OW 2428   1.582   2.501   2.334
  809SOL    HW1 2429   1.551   2.562   2.407
  809SOL    HW2 2430   1.632   2.553   2.265
  810SOL     OW 2431   0.354   3.372   3.191
  810SOL    HW1 2432   0.333   3.328   3.104
  810SOL    HW2 2433   0.451   3.398   3.194
  811SOL     OW 2434   0.402   2.613   3.460
  811SOL    HW1 2435   0.470   2.668   3.413
  811SOL    HW2 2436   0.442   2.525   3.487
  812SOL     OW 2437   1.587   2.641   3.532
  812SOL    HW1 2438   1.495   2.679   3.527
  812SOL    HW2 2439   1.647   2.688   3.467
  813SOL     OW 2440   1.013   1.967   3.632
  813SOL    HW1 2441   1.019   2.052   3.580
  813SOL    HW2 2442   1.045   1.891   3.575
  814SOL     OW 2443   0.504   1.912   3.602
  814SOL    HW1 2444   0.462   1.855   3.532
  814SOL    HW2 2445   0.438   1.981   3.634
  815SOL     OW 2446   0.573   2.732   2.891
  815SOL    HW1 2447   0.617   2.821   2.882
  815SOL    HW2 2448   0.510   2.732   2.968
  816SOL     OW 2449   1.360   2.724   2.907
  816SOL    HW1 2450   1.285   2.724   2.841
  816SOL    HW2 2451   1.397   2.632   2.916
  817SOL     OW 2452   1.209   2.387   2.137
  817SOL    HW1 2453   1.222   2.303   2.191
  817SOL    HW2 2454   1.180   2.461   2.197
  818SOL     OW 2455   0.307   2.075   3.093
  818SOL    HW1 2456   0.284   2.112   3.183
  818SOL    HW2 2457   0.277   1.980   3.087
  819SOL     OW 2458   0.037   3.172   3.144
  819SOL    HW1 2459   0.090   3.123   3.212
  819SOL    HW2 2460   0.059   3.270   3.149
  820SOL     OW 2461   0.732   2.496   2.926
  820SOL    HW1 2462   0.791   2.470   2.850
  820SOL    HW2 2463   0.704   2.592   2.915
  821SOL     OW 2464   1.728   2.797   3.716
  821SOL    HW1 2465   1.682   2.790   3.627
  821SOL    HW2 2466   1.666   2.841   3.782
  822SOL     OW 2467   0.307   1.925   2.480
  822SOL    HW1 2468   0.296   2.019   2.513
  822SOL    HW2 2469   0.302   1.862   2.557
  823SOL     OW 2470   1.622   2.229   2.236
  823SOL    HW1 2471   1.624   2.153   2.300
  823SOL    HW2 2472   1.574   2.306   2.276
  824SOL     OW 2473   1.023   2.628   2.828
  824SOL    HW1 2474   1.038   2.649   2.924
  824SOL    HW2 2475   0.993   2.533   2.819
  825SOL     OW 2476   0.980   3.435   3.562
  825SOL    HW1 2477   0.960   3.479   3.474
  825SOL    HW2 2478   1.019   3.344   3.546
  826SOL     OW 2479   1.859   3.380   3.467
  826SOL    HW1 2480   1.873   3.407   3.372
  826SOL    HW2 2481   1.942   3.402   3.520
  827SOL     OW 2482   0.350   2.760   3.666
  827SOL    HW1 2483   0.426   2.804   3.714
  827SOL    HW2 2484   0.385   2.713   3.584
  828SOL     OW 2485   1.540   2.136   1.987
  828SOL    HW1 2486   1.479   2.061   2.010
  828SOL    HW2 2487   1.562   2.188   2.070
  829SOL     OW 2488   1.303   2.700   1.904
  829SOL    HW1 2489   1.337   2.607   1.919
  829SOL    HW2 2490   1.321   2.727   1.809
  830SOL     OW 2491   1.068   3.195   2.711
  830SOL    HW1 2492   1.075   3.111   2.656
  830SOL    HW2 2493   1.130   3.264   2.675
  831SOL     OW 2494   0.319   2.672   2.811
  831SOL    HW1 2495   0.412   2.708   2.816
  831SOL    HW2 2496   0.313   2.587   2.863
  832SOL     OW 2497   0.339   2.371   2.868
  832SOL    HW1 2498   0.287   2.288   2.851
  832SOL    HW2 2499   0.416   2.376   2.804
  833SOL     OW 2500   1.138   2.242   3.540
  833SOL    HW1 2501   1.093   2.305   3.604
  833SOL    HW2 2502   1.231   2.273   3.523
  834SOL     OW 2503   1.160   2.069   3.339
  834SOL    HW1 2504   1.160   2.133   3.416
  834SOL    HW2 2505   1.188   2.117   3.256
  835SOL     OW 2506   0.008   3.188   2.062
  835SOL    HW1 2507  -0.085   3.209   2.031
  835SOL    HW2 2508   0.018   3.089   2.075
  836SOL     OW 2509   0.088   3.663   2.789
  836SOL    HW1 2510   0.046   3.577   2.762
  836SOL    HW2 2511   0.182   3.666   2.755
  837SOL     OW 2512   0.504   3.430   2.772
  837SOL    HW1 2513   0.570   3.504   2.781
  837SOL    HW2 2514   0.548   3.351   2.730
  838SOL     OW 2515   1.002   2.658   3.100
  838SOL    HW1 2516   1.043   2.626   3.186
  838SOL    HW2 2517   0.906   2.631   3.097
  839SOL     OW 2518   0.040   2.406   2.976
  839SOL    HW1 2519   0.125   2.373   2.935
  839SOL    HW2 2520   0.053   2.421   3.074
  840SOL     OW 2521   0.189   2.382   3.584
  840SOL    HW1 2522   0.248   2.342   3.514
  840SOL    HW2 2523   0.131   2.453   3.543
  841SOL     OW 2524   1.369   2.812   3.522
  841SOL    HW1 2525   1.408   2.901   3.542
  841SOL    HW2 2526   1.379   2.792   3.425
  842SOL     OW 2527   0.815   2.434   2.187
  842SOL    HW1 2528   0.822   2.345   2.141
  842SOL    HW2 2529   0.721   2.468   2.179
  843SOL     OW 2530   1.657   2.466   3.068
  843SOL    HW1 2531   1.619   2.397   3.130
  843SOL    HW2 2532   1.739   2.430   3.024
  844SOL     OW 2533   0.252   3.426   3.606
  844SOL    HW1 2534   0.222   3.483   3.682
  844SOL    HW2 2535   0.245   3.329   3.632
  845SOL     OW 2536   0.671   2.326   3.131
  845SOL    HW1 2537   0.637   2.237   3.101
  845SOL    HW2 2538   0.697   2.380   3.051
  846SOL     OW 2539   0.930   3.540   3.327
  846SOL    HW1 2540   0.906   3.522   3.232
  846SOL    HW2 2541   0.960   3.634   3.337
  847SOL     OW 2542   0.473   2.362   2.053
  847SOL    HW1 2543   0.534   2.442   2.057
  847SOL    HW2 2544   0.378   2.393   2.060
  848SOL     OW 2545   0.159   2.999   3.328
  848SOL    HW1 2546   0.181   2.938   3.404
  848SOL    HW2 2547   0.169   2.950   3.242
  849SOL     OW 2548   1.347   2.921   3.096
  849SOL    HW1 2549   1.371   2.858   3.022
  849SOL    HW2 2550   1.257   2.961   3.078
  850SOL     OW 2551   1.302   2.717   2.171
  850SOL    HW1 2552   1.216   2.686   2.213
  850SOL    HW2 2553   1.298   2.703   2.072
  851SOL     OW 2554   1.759   3.609   3.016
  851SOL    HW1 2555   1.820   3.639   2.943
  851SOL    HW2 2556   1.721   3.520   2.994
  852SOL     OW 2557   1.252   3.593   2.990
  852SOL    HW1 2558   1.336   3.598   2.936
  852SOL    HW2 2559   1.229   3.497   3.008
  853SOL     OW 2560   0.083   3.120   2.884
  853SOL    HW1 2561   0.078   3.119   2.984
  853SOL    HW2 2562   0.000   3.079   2.846
  854SOL     OW 2563   0.688   3.524   3.578
  854SOL    HW1 2564   0.632   3.605   3.587
  854SOL    HW2 2565   0.740   3.528   3.492
  855SOL     OW 2566   1.726   1.997   2.385
  855SOL    HW1 2567   1.799   1.980   2.318
  855SOL    HW2 2568   1.695   1.910   2.423
  856SOL     OW 2569   1.388   3.435   2.339
  856SOL    HW1 2570   1.455   3.447   2.265
  856SOL    HW2 2571   1.348   3.524   2.362
  857SOL     OW 2572   0.130   3.656   3.713
  857SOL    HW1 2573   0.089   3.582   3.766
  857SOL    HW2 2574   0.194   3.707   3.771
  858SOL     OW 2575   1.280   2.789   2.534
  858SOL    HW1 2576   1.340   2.708   2.536
  858SOL    HW2 2577   1.320   2.858   2.474
  859SOL     OW 2578   0.830   3.135   3.284
  859SOL    HW1 2579   0.825   3.168   3.379
  859SOL    HW2 2580   0.744   3.154   3.238
  860SOL     OW 2581   0.672   3.478   2.016
  860SOL    HW1 2582   0.681   3.488   1.917
  860SOL    HW2 2583   0.632   3.389   2.037
  861SOL     OW 2584   1.650   3.582   3.256
  861SOL    HW1 2585   1.703   3.592   3.172
  861SOL    HW2 2586   1.623   3.672   3.290
  862SOL     OW 2587   1.841   2.037   2.825
  862SOL    HW1 2588   1.880   1.952   2.789
  862SOL    HW2 2589   1.743   2.039   2.806
  863SOL     OW 2590   0.263   2.188   2.582
  863SOL    HW1 2591   0.184   2.239   2.548
  863SOL    HW2 2592   0.254   2.173   2.680
  864SOL     OW 2593   1.194   3.474   1.893
  864SOL    HW1 2594   1.200   3.381   1.930
  864SOL    HW2 2595   1.135   3.474   1.813
  865SOL     OW 2596   0.822   2.864   3.234
  865SOL    HW1 2597   0.862   2.863   3.142
  865SOL    HW2 2598   0.832   2.956   3.274
  866SOL     OW 2599   0.916   2.772   2.153
  866SOL    HW1 2600   0.979   2.810   2.085
  866SOL    HW2 2601   0.956   2.689   2.192
  867SOL     OW 2602   1.504   3.469   1.906
  867SOL    HW1 2603   1.412   3.506   1.913
  867SOL    HW2 2604   1.542   3.489   1.816
  868SOL     OW 2605   0.372   3.150   3.352
  868SOL    HW1 2606   0.359   3.243   3.318
  868SOL    HW2 2607   0.288   3.098   3.339
  869SOL     OW 2608   1.614   3.154   3.151
  869SOL    HW1 2609   1.674   3.157   3.231
  869SOL    HW2 2610   1.539   3.218   3.164
  870SOL     OW 2611   1.039   2.960   2.558
  870SOL    HW1 2612   0.969   2.913   2.612
  870SOL    HW2 2613   1.098   2.892   2.515
  871SOL     OW 2614   1.014   2.098   2.833
  871SOL    HW1 2615   1.006   2.062   2.740
  871SOL    HW2 2616   1.012   2.022   2.898
  872SOL     OW 2617   0.590   3.349   2.353
  872SOL    HW1 2618   0.632   3.291   2.283
  872SOL    HW2 2619   0.546   3.428   2.309
  873SOL     OW 2620   1.709   2.247   3.243
  873SOL    HW1 2621   1.782   2.316   3.247
  873SOL    HW2 2622   1.737   2.172   3.184
  874SOL     OW 2623   0.255   3.210   2.152
  874SOL    HW1 2624   0.159   3.211   2.125
  874SOL    HW2 2625   0.267   3.263   2.236
  875SOL     OW 2626   0.105   2.875   3.588
  875SOL    HW1 2627   0.028   2.842   3.642
  875SOL    HW2 2628   0.190   2.845   3.630
  876SOL     OW 2629   0.672   2.065   3.351
  876SOL    HW1 2630   0.762   2.049   3.311
  876SOL    HW2 2631   0.680   2.070   3.450
  877SOL     OW 2632   0.075   2.207   1.895
  877SOL    HW1 2633  -0.017   2.179   1.866
  877SOL    HW2 2634   0.106   2.284   1.839
  878SOL     OW 2635   1.440   2.718   3.260
  878SOL    HW1 2636   1.383   2.770   3.197
  878SOL    HW2 2637   1.536   2.730   3.236
  879SOL     OW 2638   0.072   2.028   2.180
  879SOL    HW1 2639   0.055   2.111   2.126
  879SOL    HW2 2640   0.162   1.991   2.158
  880SOL     OW 2641   1.183   3.197   1.981
  880SOL    HW1 2642   1.084   3.186   1.983
  880SOL    HW2 2643   1.217   3.212   2.074
  881SOL     OW 2644   0.613   2.704   3.293
  881SOL    HW1 2645   0.669   2.785   3.276
  881SOL    HW2 2646   0.672   2.624   3.296
  882SOL     OW 2647   1.493   3.629   2.821
  882SOL    HW1 2648   1.526   3.693   2.752
  882SOL    HW2 2649   1.559   3.623   2.896
  883SOL     OW 2650   0.716   2.427   3.570
  883SOL    HW1 2651   0.735   2.492   3.644
  883SOL    HW2 2652   0.776   2.347   3.579
  884SOL     OW 2653   1.450   3.082   3.495
  884SOL    HW1 2654   1.441   3.072   3.594
  884SOL    HW2 2655   1.546   3.075   3.469
  885SOL     OW 2656   0.390   3.603   3.422
  885SOL    HW1 2657   0.299   3.644   3.420
  885SOL    HW2 2658   0.383   3.509   3.454
  886SOL     OW 2659   1.674   2.745   3.116
  886SOL    HW1 2660   1.647   2.656   3.079
  886SOL    HW2 2661   1.675   2.813   3.043
  887SOL     OW 2662   1.225   2.187   2.311
  887SOL    HW1 2663   1.290   2.113   2.300
  887SOL    HW2 2664   1.245   2.237   2.395
  888SOL     OW 2665   0.594   2.607   2.514
  888SOL    HW1 2666   0.644   2.692   2.495
  888SOL    HW2 2667   0.506   2.609   2.466
  889SOL     OW 2668   1.777   2.204   3.504
  889SOL    HW1 2669   1.760   2.235   3.410
  889SOL    HW2 2670   1.693   2.167   3.542
  890SOL     OW 2671   1.730   2.796   3.379
  890SOL    HW1 2672   1.768   2.887   3.394
  890SOL    HW2 2673   1.722   2.779   3.280
  891SOL     OW 2674   0.859   3.236   1.878
  891SOL    HW1 2675   0.813   3.251   1.966
  891SOL    HW2 2676   0.903   3.321   1.848
  892SOL     OW 2677   0.661   3.652   2.815
  892SOL    HW1 2678   0.615   3.740   2.802
  892SOL    HW2 2679   0.760   3.664   2.808
  893SOL     OW 2680   0.859   2.818   2.723
  893SOL    HW1 2681   0.913   2.749   2.771
  893SOL    HW2 2682   0.827   2.887   2.789
  894SOL     OW 2683   1.083   2.846   1.949
  894SOL    HW1 2684   1.060   2.899   1.867
  894SOL    HW2 2685   1.164   2.790   1.930
  895SOL     OW 2686   1.861   3.431   2.713
  895SOL    HW1 2687   1.790   3.419   2.643
  895SOL    HW2 2688   1.862   3.352   2.773
  896SOL     OW 2689   0.221   3.176   3.706
  896SOL    HW1 2690   0.156   3.103   3.685
  896SOL    HW2 2691   0.225   3.190   3.804
  897SOL     OW 2692   0.079   3.102   2.515
  897SOL    HW1 2693   0.078   3.055   2.603
  897SOL    HW2 2694   0.161   3.074   2.464
  898SOL     OW 2695   0.672   3.253   3.486
  898SOL    HW1 2696   0.594   3.203   3.524
  898SOL    HW2 2697   0.669   3.348   3.517
  899SOL     OW 2698   1.824   2.054   3.089
  899SOL    HW1 2699   1.820   1.964   3.133
  899SOL    HW2 2700   1.827   2.043   2.990
  900SOL     OW 2701   0.428   2.286   2.382
  900SOL    HW1 2702   0.458   2.214   2.320
  900SOL    HW2 2703   0.389   2.246   2.465
  901SOL     OW 2704   1.705   3.349   2.966
  901SOL    HW1 2705   1.612   3.324   2.939
  901SOL    HW2 2706   1.731   3.299   3.048
  902SOL     OW 2707   0.317   2.409   3.142
  902SOL    HW1 2708   0.355   2.350   3.214
  902SOL    HW2 2709   0.357   2.383   3.054
  903SOL     OW 2710   0.812   3.448   2.549
  903SOL    HW1 2711   0.844   3.458   2.455
  903SOL    HW2 2712   0.733   3.386   2.551
  904SOL     OW 2713   1.424   2.076   2.974
  904SOL    HW1 2714   1.476   2.011   3.029
  904SOL    HW2 2715   1.375   2.139   3.035
  905SOL     OW 2716   1.001   1.896   3.016
  905SOL    HW1 2717   0.938   1.824   2.985
  905SOL    HW2 2718   1.094   1.860   3.016
  906SOL     OW 2719   0.770   3.192   2.163
  906SOL    HW1 2720   0.724   3.105   2.180
  906SOL    HW2 2721   0.861   3.189   2.204
  907SOL     OW 2722   0.618   3.429   3.146
  907SOL    HW1 2723   0.613   3.511   3.203
  907SOL    HW2 2724   0.707   3.426   3.101
  908SOL     OW 2725   1.352   1.914   2.030
  908SOL    HW1 2726   1.387   1.873   1.946
  908SOL    HW2 2727   1.262   1.876   2.050
  909SOL     OW 2728   1.300   2.315   2.553
  909SOL    HW1 2729   1.241   2.395   2.557
  909SOL    HW2 2730   1.315   2.280   2.646
  910SOL     OW 2731   1.593   2.083   2.744
  910SOL    HW1 2732   1.509   2.082   2.798
  910SOL    HW2 2733   1.595   2.166   2.688
  911SOL     OW 2734   0.039   2.939   2.162
  911SOL    HW1 2735   0.138   2.928   2.153
  911SOL    HW2 2736  -0.001   2.853   2.194
  912SOL     OW 2737   0.875   3.508   2.199
  912SOL    HW1 2738   0.798   3.473   2.145
  912SOL    HW2 2739   0.843   3.579   2.261
  913SOL     OW 2740   0.230   2.490   3.837
  913SOL    HW1 2741   0.137   2.488   3.874
  913SOL    HW2 2742   0.231   2.451   3.745
  914SOL     OW 2743   1.755   2.469   3.955
  914SOL    HW1 2744   1.743   2.456   3.856
  914SOL    HW2 2745   1.725   2.388   4.004
  915SOL     OW 2746   0.231   3.575   4.207
  915SOL    HW1 2747   0.265   3.652   4.261
  915SOL    HW2 2748   0.275   3.575   4.117
  916SOL     OW 2749   0.230   3.296   4.262
  916SOL    HW1 2750   0.204   3.392   4.262
  916SOL    HW2 2751   0.159   3.242   4.307
  917SOL     OW 2752   0.606   2.826   3.847
  917SOL    HW1 2753   0.613   2.910   3.793
  917SOL    HW2 2754   0.652   2.839   3.935
  918SOL     OW 2755   1.842   3.629   4.083
  918SOL    HW1 2756   1.896   3.600   4.163
  918SOL    HW2 2757   1.872   3.719   4.054
  919SOL     OW 2758   0.027   3.458   3.841
  919SOL    HW1 2759   0.008   3.362   3.862
  919SOL    HW2 2760  -0.006   3.516   3.916
  920SOL     OW 2761   1.689   2.784   4.336
  920SOL    HW1 2762   1.784   2.755   4.344
  920SOL    HW2 2763   1.681   2.849   4.261
  921SOL     OW 2764   1.641   2.970   4.156
  921SOL    HW1 2765   1.727   2.972   4.104
  921SOL    HW2 2766   1.655   3.017   4.244
  922SOL     OW 2767   0.809   1.866   4.226
  922SOL    HW1 2768   0.849   1.957   4.217
  922SOL    HW2 2769   0.709   1.874   4.232
  923SOL     OW 2770   1.525   2.861   3.914
  923SOL    HW1 2771   1.462   2.785   3.927
  923SOL    HW2 2772   1.573   2.879   4.000
  924SOL     OW 2773   0.598   2.591   3.994
  924SOL    HW1 2774   0.622   2.660   3.926
  924SOL    HW2 2775   0.520   2.624   4.048
  925SOL     OW 2776   1.576   3.524   4.031
  925SOL    HW1 2777   1.665   3.570   4.034
  925SOL    HW2 2778   1.555   3.500   3.936
  926SOL     OW 2779   0.865   2.210   3.919
  926SOL    HW1 2780   0.924   2.273   3.870
  926SOL    HW2 2781   0.884   2.116   3.890
  927SOL     OW 2782   0.321   2.805   3.966
  927SOL    HW1 2783   0.403   2.844   3.924
  927SOL    HW2 2784   0.294   2.723   3.917
  928SOL     OW 2785   1.111   3.638   3.961
  928SOL    HW1 2786   1.051   3.576   4.011
  928SOL    HW2 2787   1.142   3.594   3.876
  929SOL     OW 2788   1.632   3.239   3.805
  929SOL    HW1 2789   1.600   3.333   3.795
  929SOL    HW2 2790   1.556   3.176   3.793
  930SOL     OW 2791   0.464   3.605   4.047
  930SOL    HW1 2792   0.497   3.644   4.133
  930SOL    HW2 2793   0.540   3.598   3.982
  931SOL     OW 2794   1.400   1.969   4.150
  931SOL    HW1 2795   1.376   1.932   4.060
  931SOL    HW2 2796   1.499   1.985   4.154
  932SOL     OW 2797   0.382   2.562   4.204
  932SOL    HW1 2798   0.427   2.472   4.201
  932SOL    HW2 2799   0.288   2.551   4.237
  933SOL     OW 2800   0.614   1.984   3.841
  933SOL    HW1 2801   0.712   1.962   3.848
  933SOL    HW2 2802   0.583   1.967   3.748
  934SOL     OW 2803   1.434   3.050   3.765
  934SOL    HW1 2804   1.466   2.974   3.822
  934SOL    HW2 2805   1.342   3.077   3.795
  935SOL     OW 2806   0.297   1.897   3.895
  935SOL    HW1 2807   0.346   1.981   3.874
  935SOL    HW2 2808   0.359   1.832   3.940
  936SOL     OW 2809   0.935   2.098   4.204
  936SOL    HW1 2810   0.887   2.139   4.126
  936SOL    HW2 2811   1.034   2.096   4.185
  937SOL     OW 2812   0.459   3.014   4.465
  937SOL    HW1 2813   0.388   2.987   4.530
  937SOL    HW2 2814   0.433   2.986   4.372
  938SOL     OW 2815   1.032   2.411   3.740
  938SOL    HW1 2816   0.991   2.493   3.701
  938SOL    HW2 2817   1.096   2.437   3.813
  939SOL     OW 2818   1.857   2.695   4.101
  939SOL    HW1 2819   1.899   2.631   4.165
  939SOL    HW2 2820   1.819   2.644   4.023
  940SOL     OW 2821   0.488   3.247   3.898
  940SOL    HW1 2822   0.401   3.232   3.945
  940SOL    HW2 2823   0.471   3.273   3.803
  941SOL     OW 2824   1.390   2.437   3.802
  941SOL    HW1 2825   1.336   2.416   3.883
  941SOL    HW2 2826   1.481   2.396   3.811
  942SOL     OW 2827   0.527   2.118   4.052
  942SOL    HW1 2828   0.554   2.059   3.977
  942SOL    HW2 2829   0.527   2.213   4.021
  943SOL     OW 2830   0.705   2.912   4.092
  943SOL    HW1 2831   0.691   2.919   4.191
  943SOL    HW2 2832   0.789   2.861   4.074
  944SOL     OW 2833   0.367   2.962   4.225
  944SOL    HW1 2834   0.360   3.045   4.169
  944SOL    HW2 2835   0.371   2.882   4.165
  945SOL     OW 2836   1.252   3.210   4.112
  945SOL    HW1 2837   1.302   3.287   4.152
  945SOL    HW2 2838   1.157   3.212   4.144
  946SOL     OW 2839   1.582   2.501   4.196
  946SOL    HW1 2840   1.551   2.562   4.269
  946SOL    HW2 2841   1.632   2.553   4.127
  947SOL     OW 2842   1.209   2.387   3.999
  947SOL    HW1 2843   1.222   2.303   4.053
  947SOL    HW2 2844   1.180   2.461   4.059
  948SOL     OW 2845   1.622   2.229   4.098
  948SOL    HW1 2846   1.624   2.153   4.162
  948SOL    HW2 2847   1.574   2.306   4.138
  949SOL     OW 2848   1.540   2.136   3.849
  949SOL    HW1 2849   1.479   2.061   3.872
  949SOL    HW2 2850   1.562   2.188   3.932
  950SOL     OW 2851   1.303   2.700   3.766
  950SOL    HW1 2852   1.337   2.607   3.781
  950SOL    HW2 2853   1.321   2.727   3.671
  951SOL     OW 2854   0.008   3.188   3.924
  951SOL    HW1 2855  -0.085   3.209   3.893
  951SOL    HW2 2856   0.018   3.089   3.937
  952SOL     OW 2857   0.815   2.434   4.049
  952SOL    HW1 2858   0.822   2.345   4.003
  952SOL    HW2 2859   0.721   2.468   4.041
  953SOL     OW 2860   0.473   2.362   3.915
  953SOL    HW1 2861   0.534   2.442   3.919
  953SOL    HW2 2862   0.378   2.393   3.922
  954SOL     OW 2863   1.302   2.717   4.033
  954SOL    HW1 2864   1.216   2.686   4.075
  954SOL    HW2 2865   1.298   2.703   3.934
  955SOL     OW 2866   1.726   1.997   4.247
  955SOL    HW1 2867   1.799   1.980   4.180
  955SOL    HW2 2868   1.695   1.910   4.285
  956SOL     OW 2869   1.388   3.435   4.201
  956SOL    HW1 2870   1.455   3.447   4.127
  956SOL    HW2 2871   1.348   3.524   4.224
  957SOL     OW 2872   0.672   3.478   3.878
  957SOL    HW1 2873   0.681   3.488   3.779
  957SOL    HW2 2874   0.632   3.389   3.899
  958SOL     OW 2875   1.194   3.474   3.755
  958SOL    HW1 2876   1.200   3.381   3.792
  958SOL    HW2 2877   1.135   3.474   3.675
  959SOL     OW 2878   0.916   2.772   4.015
  959SOL    HW1 2879   0.979   2.810   3.947
  959SOL    HW2 2880   0.956   2.689   4.054
  960SOL     OW 2881   1.504   3.469   3.768
  960SOL    HW1 2882   1.412   3.506   3.775
  960SOL    HW2 2883   1.542   3.489   3.678
  961SOL     OW 2884   0.590   3.349   4.215
  961SOL    HW1 2885   0.632   3.291   4.145
  961SOL    HW2 2886   0.546   3.428   4.171
  962SOL     OW 2887   0.255   3.210   4.014
  962SOL    HW1 2888   0.159   3.211   3.987
  962SOL    HW2 2889   0.267   3.263   4.098
  963SOL     OW 2890   0.075   2.207   3.757
  963SOL    HW1 2891  -0.017   2.179   3.728
  963SOL    HW2 2892   0.106   2.284   3.701
  964SOL     OW 2893   0.072   2.028   4.042
  964SOL    HW1 2894   0.055   2.111   3.988
  964SOL    HW2 2895   0.162   1.991   4.020
  965SOL     OW 2896   1.183   3.197   3.843
  965SOL    HW1 2897   1.084   3.186   3.845
  965SOL    HW2 2898   1.217   3.212   3.936
  966SOL     OW 2899   1.225   2.187   4.173
  966SOL    HW1 2900   1.290   2.113   4.162
  966SOL    HW2 2901   1.245   2.237   4.257
  967SOL     OW 2902   0.859   3.236   3.740
  967SOL    HW1 2903   0.813   3.251   3.828
  967SOL    HW2 2904   0.903   3.321   3.710
  968SOL     OW 2905   1.083   2.846   3.811
  968SOL    HW1 2906   1.060   2.899   3.729
  968SOL    HW2 2907   1.164   2.790   3.792
  969SOL     OW 2908   0.428   2.286   4.244
  969SOL    HW1 2909   0.458   2.214   4.182
  969SOL    HW2 2910   0.389   2.246   4.327
  970SOL     OW 2911   0.770   3.192   4.025
  970SOL    HW1 2912   0.724   3.105   4.042
  970SOL    HW2 2913   0.861   3.189   4.066
  971SOL     OW 2914   1.352   1.914   3.892
  971SOL    HW1 2915   1.387   1.873   3.808
  971SOL    HW2 2916   1.262   1.876   3.912
  972SOL     OW 2917   0.039   2.939   4.024
  972SOL    HW1 2918   0.138   2.928   4.015
  972SOL    HW2 2919  -0.001   2.853   4.056
  973SOL     OW 2920   0.875   3.508   4.061
  973SOL    HW1 2921   0.798   3.473   4.007
  973SOL    HW2 2922   0.843   3.579   4.123
  974SOL     OW 2923   0.225   3.999   0.996
  974SOL    HW1 2924   0.260   3.982   1.088
  974SOL    HW2 2925   0.137   3.954   0.984
  975SOL     OW 2926   0.019   4.092   0.647
  975SOL    HW1 2927  -0.063   4.135   0.686
  975SOL    HW2 2928  -0.009   4.019   0.584
  976SOL     OW 2929   1.755   4.331   0.231
  976SOL    HW1 2930   1.743   4.318   0.132
  976SOL    HW2 2931   1.725   4.250   0.280
  977SOL     OW 2932   0.438   4.116   1.499
  977SOL    HW1 2933   0.520   4.060   1.508
  977SOL    HW2 2934   0.357   4.058   1.503
  978SOL     OW 2935   1.603   4.171   0.737
  978SOL    HW1 2936   1.529   4.217   0.687
  978SOL    HW2 2937   1.654   4.239   0.790
  979SOL     OW 2938   1.594   3.838   1.480
  979SOL    HW1 2939   1.576   3.905   1.408
  979SOL    HW2 2940   1.591   3.884   1.569
  980SOL     OW 2941   0.122   4.367   0.563
  980SOL    HW1 2942   0.077   4.279   0.580
  980SOL    HW2 2943   0.121   4.421   0.647
  981SOL     OW 2944   0.809   3.728   0.502
  981SOL    HW1 2945   0.849   3.819   0.493
  981SOL    HW2 2946   0.709   3.736   0.508
  982SOL     OW 2947   0.317   3.975   1.801
  982SOL    HW1 2948   0.388   4.046   1.807
  982SOL    HW2 2949   0.229   4.014   1.829
  983SOL     OW 2950   1.281   4.069   0.944
  983SOL    HW1 2951   1.195   4.019   0.931
  983SOL    HW2 2952   1.343   4.015   1.000
  984SOL     OW 2953   1.394   4.193   1.674
  984SOL    HW1 2954   1.374   4.236   1.762
  984SOL    HW2 2955   1.472   4.131   1.683
  985SOL     OW 2956   0.991   4.134   1.242
  985SOL    HW1 2957   0.914   4.168   1.296
  985SOL    HW2 2958   0.957   4.083   1.163
  986SOL     OW 2959   0.865   4.072   0.195
  986SOL    HW1 2960   0.924   4.135   0.146
  986SOL    HW2 2961   0.884   3.978   0.166
  987SOL     OW 2962   1.719   4.309   1.831
  987SOL    HW1 2963   1.693   4.398   1.795
  987SOL    HW2 2964   1.717   4.241   1.758
  988SOL     OW 2965   0.550   3.920   0.885
  988SOL    HW1 2966   0.545   3.915   0.985
  988SOL    HW2 2967   0.552   4.016   0.856
  989SOL     OW 2968   0.202   4.009   1.498
  989SOL    HW1 2969   0.122   4.069   1.485
  989SOL    HW2 2970   0.192   3.960   1.584
  990SOL     OW 2971   1.400   3.831   0.426
  990SOL    HW1 2972   1.376   3.794   0.336
  990SOL    HW2 2973   1.499   3.847   0.430
  991SOL     OW 2974   1.547   3.946   1.729
  991SOL    HW1 2975   1.542   3.983   1.821
  991SOL    HW2 2976   1.475   3.877   1.717
  992SOL     OW 2977   0.614   3.846   0.117
  992SOL    HW1 2978   0.712   3.824   0.124
  992SOL    HW2 2979   0.583   3.829   0.024
  993SOL     OW 2980   0.781   3.988   1.749
  993SOL    HW1 2981   0.848   3.927   1.792
  993SOL    HW2 2982   0.708   4.007   1.814
  994SOL     OW 2983   1.351   4.314   1.433
  994SOL    HW1 2984   1.379   4.271   1.518
  994SOL    HW2 2985   1.376   4.410   1.434
  995SOL     OW 2986   0.539   3.788   0.512
  995SOL    HW1 2987   0.458   3.789   0.570
  995SOL    HW2 2988   0.542   3.871   0.457
  996SOL     OW 2989   0.297   3.759   0.171
  996SOL    HW1 2990   0.346   3.843   0.150
  996SOL    HW2 2991   0.359   3.694   0.216
  997SOL     OW 2992   0.935   3.960   0.480
  997SOL    HW1 2993   0.887   4.001   0.402
  997SOL    HW2 2994   1.034   3.958   0.461
  998SOL     OW 2995   0.078   4.280   1.386
  998SOL    HW1 2996   0.170   4.279   1.345
  998SOL    HW2 2997   0.072   4.354   1.453
  999SOL     OW 2998   0.561   3.946   1.147
  999SOL    HW1 2999   0.599   3.862   1.184
  999SOL    HW2 3000   0.473   3.965   1.191
 1000SOL     OW 3001   1.017   3.763   0.753
 1000SOL    HW1 3002   0.945   3.768   0.684
 1000SOL    HW2 3003   0.993   3.694   0.822
 1001SOL     OW 3004   1.466   4.314   0.992
 1001SOL    HW1 3005   1.436   4.219   0.999
 1001SOL    HW2 3006   1.539   4.330   1.058
 1002SOL     OW 3007   0.527   3.980   0.328
 1002SOL    HW1 3008   0.554   3.921   0.253
 1002SOL    HW2 3009   0.527   4.075   0.297
 1003SOL     OW 3010   0.915   3.813   1.402
 1003SOL    HW1 3011   0.940   3.793   1.307
 1003SOL    HW2 3012   0.987   3.869   1.444
 1004SOL     OW 3013   1.274   4.110   1.262
 1004SOL    HW1 3014   1.295   4.184   1.326
 1004SOL    HW2 3015   1.185   4.127   1.219
 1005SOL     OW 3016   0.566   4.261   0.865
 1005SOL    HW1 3017   0.578   4.327   0.791
 1005SOL    HW2 3018   0.612   4.295   0.948
 1006SOL     OW 3019   1.013   3.829   1.770
 1006SOL    HW1 3020   1.019   3.914   1.718
 1006SOL    HW2 3021   1.045   3.753   1.713
 1007SOL     OW 3022   0.504   3.774   1.740
 1007SOL    HW1 3023   0.462   3.717   1.670
 1007SOL    HW2 3024   0.438   3.843   1.772
 1008SOL     OW 3025   0.307   3.937   1.231
 1008SOL    HW1 3026   0.284   3.974   1.321
 1008SOL    HW2 3027   0.277   3.842   1.225
 1009SOL     OW 3028   0.732   4.358   1.064
 1009SOL    HW1 3029   0.791   4.332   0.988
 1009SOL    HW2 3030   0.704   4.454   1.053
 1010SOL     OW 3031   0.307   3.787   0.618
 1010SOL    HW1 3032   0.296   3.881   0.651
 1010SOL    HW2 3033   0.302   3.724   0.695
 1011SOL     OW 3034   1.622   4.091   0.374
 1011SOL    HW1 3035   1.624   4.015   0.438
 1011SOL    HW2 3036   1.574   4.168   0.414
 1012SOL     OW 3037   1.540   3.998   0.125
 1012SOL    HW1 3038   1.479   3.923   0.148
 1012SOL    HW2 3039   1.562   4.050   0.208
 1013SOL     OW 3040   0.339   4.233   1.006
 1013SOL    HW1 3041   0.287   4.150   0.989
 1013SOL    HW2 3042   0.416   4.238   0.942
 1014SOL     OW 3043   1.138   4.104   1.678
 1014SOL    HW1 3044   1.093   4.167   1.742
 1014SOL    HW2 3045   1.231   4.135   1.661
 1015SOL     OW 3046   1.160   3.931   1.477
 1015SOL    HW1 3047   1.160   3.995   1.554
 1015SOL    HW2 3048   1.188   3.979   1.394
 1016SOL     OW 3049   1.002   4.520   1.238
 1016SOL    HW1 3050   1.043   4.488   1.324
 1016SOL    HW2 3051   0.906   4.493   1.235
 1017SOL     OW 3052   0.040   4.268   1.114
 1017SOL    HW1 3053   0.125   4.235   1.073
 1017SOL    HW2 3054   0.053   4.283   1.212
 1018SOL     OW 3055   0.189   4.244   1.722
 1018SOL    HW1 3056   0.248   4.204   1.652
 1018SOL    HW2 3057   0.131   4.315   1.681
 1019SOL     OW 3058   0.815   4.296   0.325
 1019SOL    HW1 3059   0.822   4.207   0.279
 1019SOL    HW2 3060   0.721   4.330   0.317
 1020SOL     OW 3061   1.657   4.328   1.206
 1020SOL    HW1 3062   1.619   4.259   1.268
 1020SOL    HW2 3063   1.739   4.292   1.162
 1021SOL     OW 3064   0.671   4.188   1.269
 1021SOL    HW1 3065   0.637   4.099   1.239
 1021SOL    HW2 3066   0.697   4.242   1.189
 1022SOL     OW 3067   0.903   3.810   0.133
 1022SOL    HW1 3068   0.954   3.811   0.047
 1022SOL    HW2 3069   0.959   3.768   0.204
 1023SOL     OW 3070   1.726   3.859   0.523
 1023SOL    HW1 3071   1.799   3.842   0.456
 1023SOL    HW2 3072   1.695   3.772   0.561
 1024SOL     OW 3073   1.841   3.899   0.963
 1024SOL    HW1 3074   1.880   3.814   0.927
 1024SOL    HW2 3075   1.743   3.901   0.944
 1025SOL     OW 3076   0.263   4.050   0.720
 1025SOL    HW1 3077   0.184   4.101   0.686
 1025SOL    HW2 3078   0.254   4.035   0.818
 1026SOL     OW 3079   1.014   3.960   0.971
 1026SOL    HW1 3080   1.006   3.924   0.878
 1026SOL    HW2 3081   1.012   3.884   1.036
 1027SOL     OW 3082   1.709   4.109   1.381
 1027SOL    HW1 3083   1.782   4.178   1.385
 1027SOL    HW2 3084   1.737   4.034   1.322
 1028SOL     OW 3085   0.672   3.927   1.489
 1028SOL    HW1 3086   0.762   3.911   1.449
 1028SOL    HW2 3087   0.680   3.932   1.588
 1029SOL     OW 3088   0.075   4.069   0.033
 1029SOL    HW1 3089  -0.017   4.041   0.004
 1029SOL    HW2 3090   0.106   4.146  -0.023
 1030SOL     OW 3091   0.072   3.890   0.318
 1030SOL    HW1 3092   0.055   3.973   0.264
 1030SOL    HW2 3093   0.162   3.853   0.296
 1031SOL     OW 3094   0.716   4.289   1.708
 1031SOL    HW1 3095   0.735   4.354   1.782
 1031SOL    HW2 3096   0.776   4.209   1.717
 1032SOL     OW 3097   1.225   4.049   0.449
 1032SOL    HW1 3098   1.290   3.975   0.438
 1032SOL    HW2 3099   1.245   4.099   0.533
 1033SOL     OW 3100   1.777   4.066   1.642
 1033SOL    HW1 3101   1.760   4.097   1.548
 1033SOL    HW2 3102   1.693   4.029   1.680
 1034SOL     OW 3103   1.824   3.916   1.227
 1034SOL    HW1 3104   1.820   3.826   1.271
 1034SOL    HW2 3105   1.827   3.905   1.128
 1035SOL     OW 3106   0.428   4.148   0.520
 1035SOL    HW1 3107   0.458   4.076   0.458
 1035SOL    HW2 3108   0.389   4.108   0.603
 1036SOL     OW 3109   0.317   4.271   1.280
 1036SOL    HW1 3110   0.355   4.212   1.352
 1036SOL    HW2 3111   0.357   4.245   1.192
 1037SOL     OW 3112   1.424   3.938   1.112
 1037SOL    HW1 3113   1.476   3.873   1.167
 1037SOL    HW2 3114   1.375   4.001   1.173
 1038SOL     OW 3115   1.001   3.758   1.154
 1038SOL    HW1 3116   0.938   3.686   1.123
 1038SOL    HW2 3117   1.094   3.722   1.154
 1039SOL     OW 3118   1.352   3.776   0.168
 1039SOL    HW1 3119   1.387   3.735   0.084
 1039SOL    HW2 3120   1.262   3.738   0.188
 1040SOL     OW 3121   1.300   4.177   0.691
 1040SOL    HW1 3122   1.241   4.257   0.695
 1040SOL    HW2 3123   1.315   4.142   0.784
 1041SOL     OW 3124   1.593   3.945   0.882
 1041SOL    HW1 3125   1.509   3.944   0.936
 1041SOL    HW2 3126   1.595   4.028   0.826
 1042SOL     OW 3127   0.225   3.999   2.858
 1042SOL    HW1 3128   0.260   3.982   2.950
 1042SOL    HW2 3129   0.137   3.954   2.846
 1043SOL     OW 3130   0.019   4.092   2.509
 1043SOL    HW1 3131  -0.063   4.135   2.548
 1043SOL    HW2 3132  -0.009   4.019   2.446
 1044SOL     OW 3133   1.755   4.331   2.093
 1044SOL    HW1 3134   1.743   4.318   1.994
 1044SOL    HW2 3135   1.725   4.250   2.142
 1045SOL     OW 3136   0.438   4.116   3.361
 1045SOL    HW1 3137   0.520   4.060   3.370
 1045SOL    HW2 3138   0.357   4.058   3.365
 1046SOL     OW 3139   1.603   4.171   2.599
 1046SOL    HW1 3140   1.529   4.217   2.549
 1046SOL    HW2 3141   1.654   4.239   2.652
 1047SOL     OW 3142   1.594   3.838   3.342
 1047SOL    HW1 3143   1.576   3.905   3.270
 1047SOL    HW2 3144   1.591   3.884   3.431
 1048SOL     OW 3145   0.122   4.367   2.425
 1048SOL    HW1 3146   0.077   4.279   2.442
 1048SOL    HW2 3147   0.121   4.421   2.509
 1049SOL     OW 3148   0.809   3.728   2.364
 1049SOL    HW1 3149   0.849   3.819   2.355
 1049SOL    HW2 3150   0.709   3.736   2.370
 1050SOL     OW 3151   0.317   3.975   3.663
 1050SOL    HW1 3152   0.388   4.046   3.669
 1050SOL    HW2 3153   0.229   4.014   3.691
 1051SOL     OW 3154   1.281   4.069   2.806
 1051SOL    HW1 3155   1.195   4.019   2.793
 1051SOL    HW2 3156   1.343   4.015   2.862
 1052SOL     OW 3157   1.394   4.193   3.536
 1052SOL    HW1 3158   1.374   4.236   3.624
 1052SOL    HW2 3159   1.472   4.131   3.545
 1053SOL     OW 3160   0.991   4.134   3.104
 1053SOL    HW1 3161   0.914   4.168   3.158
 1053SOL    HW2 3162   0.957   4.083   3.025
 1054SOL     OW 3163   0.865   4.072   2.057
 1054SOL    HW1 3164   0.924   4.135   2.008
 1054SOL    HW2 3165   0.884   3.978   2.028
 1055SOL     OW 3166   1.719   4.309   3.693
 1055SOL    HW1 3167   1.693   4.398   3.657
 1055SOL    HW2 3168   1.717   4.241   3.620
 1056SOL     OW 3169   0.550   3.920   2.747
 1056SOL    HW1 3170   0.545   3.915   2.847
 1056SOL    HW2 3171   0.552   4.016   2.718
 1057SOL     OW 3172   0.202   4.009   3.360
 1057SOL    HW1 3173   0.122   4.069   3.347
 1057SOL    HW2 3174   0.192   3.960   3.446
 1058SOL     OW 3175   1.400   3.831   2.288
 1058SOL    HW1 3176   1.376   3.794   2.198
 1058SOL    HW2 3177   1.499   3.847   2.292
 1059SOL     OW 3178   1.547   3.946   3.591
 1059SOL    HW1 3179   1.542   3.983   3.683
 1059SOL    HW2 3180   1.475   3.877   3.579
 1060SOL     OW 3181   0.614   3.846   1.979
 1060SOL    HW1 3182   0.712   3.824   1.986
 1060SOL    HW2 3183   0.583   3.829   1.886
 1061SOL     OW 3184   0.781   3.988   3.611
 1061SOL    HW1 3185   0.848   3.927   3.654
 1061SOL    HW2 3186   0.708   4.007   3.676
 1062SOL     OW 3187   1.351   4.314   3.295
 1062SOL    HW1 3188   1.379   4.271   3.380
 1062SOL    HW2 3189   1.376   4.410   3.296
 1063SOL     OW 3190   0.539   3.788   2.374
 1063SOL    HW1 3191   0.458   3.789   2.432
 1063SOL    HW2 3192   0.542   3.871   2.319
 1064SOL     OW 3193   0.297   3.759   2.033
 1064SOL    HW1 3194   0.346   3.843   2.012
 1064SOL    HW2 3195   0.359   3.694   2.078
 1065SOL     OW 3196   0.935   3.960   2.342
 1065SOL    HW1 3197   0.887   4.001   2.264
 1065SOL    HW2 3198   1.034   3.958   2.323
 1066SOL     OW 3199   0.078   4.280   3.248
 1066SOL    HW1 3200   0.170   4.279   3.207
 1066SOL    HW2 3201   0.072   4.354   3.315
 1067SOL     OW 3202   0.561   3.946   3.009
 1067SOL    HW1 3203   0.599   3.862   3.046
 1067SOL    HW2 3204   0.473   3.965   3.053
 1068SOL     OW 3205   1.017   3.763   2.615
 1068SOL    HW1 3206   0.945   3.768   2.546
 1068SOL    HW2 3207   0.993   3.694   2.684
 1069SOL     OW 3208   1.466   4.314   2.854
 1069SOL    HW1 3209   1.436   4.219   2.861
 1069SOL    HW2 3210   1.539   4.330   2.920
 1070SOL     OW 3211   0.527   3.980   2.190
 1070SOL    HW1 3212   0.554   3.921   2.115
 1070SOL    HW2 3213   0.527   4.075   2.159
 1071SOL     OW 3214   0.915   3.813   3.264
 1071SOL    HW1 3215   0.940   3.793   3.169
 1071SOL    HW2 3216   0.987   3.869   3.306
 1072SOL     OW 3217   1.274   4.110   3.124
 1072SOL    HW1 3218   1.295   4.184   3.188
 1072SOL    HW2 3219   1.185   4.127   3.081
 1073SOL     OW 3220   0.566   4.261   2.727
 1073SOL    HW1 3221   0.578   4.327   2.653
 1073SOL    HW2 3222   0.612   4.295   2.810
 1074SOL     OW 3223   1.013   3.829   3.632
 1074SOL    HW1 3224   1.019   3.914   3.580
 1074SOL    HW2 3225   1.045   3.753   3.575
 1075SOL     OW 3226   0.504   3.774   3.602
 1075SOL    HW1 3227   0.462   3.717   3.532
 1075SOL    HW2 3228   0.438   3.843   3.634
 1076SOL     OW 3229   0.307   3.937   3.093
 1076SOL    HW1 3230   0.284   3.974   3.183
 1076SOL    HW2 3231   0.277   3.842   3.087
 1077SOL     OW 3232   0.732   4.358   2.926
 1077SOL    HW1 3233   0.791   4.332   2.850
 1077SOL    HW2 3234   0.704   4.454   2.915
 1078SOL     OW 3235   0.307   3.787   2.480
 1078SOL    HW1 3236   0.296   3.881   2.513
 1078SOL    HW2 3237   0.302   3.724   2.557
 1079SOL     OW 3238   1.622   4.091   2.236
 1079SOL    HW1 3239   1.624   4.015   2.300
 1079SOL    HW2 3240   1.574   4.168   2.276
 1080SOL     OW 3241   1.540   3.998   1.987
 1080SOL    HW1 3242   1.479   3.923   2.010
 1080SOL    HW2 3243   1.562   4.050   2.070
 1081SOL     OW 3244   1.303   4.562   1.904
 1081SOL    HW1 3245   1.337   4.469   1.919
 1081SOL    HW2 3246   1.321   4.589   1.809
 1082SOL     OW 3247   0.339   4.233   2.868
 1082SOL    HW1 3248   0.287   4.150   2.851
 1082SOL    HW2 3249   0.416   4.238   2.804
 1083SOL     OW 3250   1.138   4.104   3.540
 1083SOL    HW1 3251   1.093   4.167   3.604
 1083SOL    HW2 3252   1.231   4.135   3.523
 1084SOL     OW 3253   1.160   3.931   3.339
 1084SOL    HW1 3254   1.160   3.995   3.416
 1084SOL    HW2 3255   1.188   3.979   3.256
 1085SOL     OW 3256   1.002   4.520   3.100
 1085SOL    HW1 3257   1.043   4.488   3.186
 1085SOL    HW2 3258   0.906   4.493   3.097
 1086SOL     OW 3259   0.040   4.268   2.976
 1086SOL    HW1 3260   0.125   4.235   2.935
 1086SOL    HW2 3261   0.053   4.283   3.074
 1087SOL     OW 3262   0.189   4.244   3.584
 1087SOL    HW1 3263   0.248   4.204   3.514
 1087SOL    HW2 3264   0.131   4.315   3.543
 1088SOL     OW 3265   0.815   4.296   2.187
 1088SOL    HW1 3266   0.822   4.207   2.141
 1088SOL    HW2 3267   0.721   4.330   2.179
 1089SOL     OW 3268   1.657   4.328   3.068
 1089SOL    HW1 3269   1.619   4.259   3.130
 1089SOL    HW2 3270   1.739   4.292   3.024
 1090SOL     OW 3271   0.671   4.188   3.131
 1090SOL    HW1 3272   0.637   4.099   3.101
 1090SOL    HW2 3273   0.697   4.242   3.051
 1091SOL     OW 3274   1.726   3.859   2.385
 1091SOL    HW1 3275   1.799   3.842   2.318
 1091SOL    HW2 3276   1.695   3.772   2.423
 1092SOL     OW 3277   1.841   3.899   2.825
 1092SOL    HW1 3278   1.880   3.814   2.789
 1092SOL    HW2 3279   1.743   3.901   2.806
 1093SOL     OW 3280   0.263   4.050   2.582
 1093SOL    HW1 3281   0.184   4.101   2.548
 1093SOL    HW2 3282   0.254   4.035   2.680
 1094SOL     OW 3283   1.014   3.960   2.833
 1094SOL    HW1 3284   1.006   3.924   2.740
 1094SOL    HW2 3285   1.012   3.884   2.898
 1095SOL     OW 3286   1.709   4.109   3.243
 1095SOL    HW1 3287   1.782   4.178   3.247
 1095SOL    HW2 3288   1.737   4.034   3.184
 1096SOL     OW 3289   0.672   3.927   3.351
 1096SOL    HW1 3290   0.762   3.911   3.311
 1096SOL    HW2 3291   0.680   3.932   3.450
 1097SOL     OW 3292   0.075   4.069   1.895
 1097SOL    HW1 3293  -0.017   4.041   1.866
 1097SOL    HW2 3294   0.106   4.146   1.839
 1098SOL     OW 3295   0.072   3.890   2.180
 1098SOL    HW1 3296   0.055   3.973   2.126
 1098SOL    HW2 3297   0.162   3.853   2.158
 1099SOL     OW 3298   0.716   4.289   3.570
 1099SOL    HW1 3299   0.735   4.354   3.644
 1099SOL    HW2 3300   0.776   4.209   3.579
 1100SOL     OW 3301   1.225   4.049   2.311
 1100SOL    HW1 3302   1.290   3.975   2.300
 1100SOL    HW2 3303   1.245   4.099   2.395
 1101SOL     OW 3304   1.777   4.066   3.504
 1101SOL    HW1 3305   1.760   4.097   3.410
 1101SOL    HW2 3306   1.693   4.029   3.542
 1102SOL     OW 3307   1.824   3.916   3.089
 1102SOL    HW1 3308   1.820   3.826   3.133
 1102SOL    HW2 3309   1.827   3.905   2.990
 1103SOL     OW 3310   0.428   4.148   2.382
 1103SOL    HW1 3311   0.458   4.076   2.320
 1103SOL    HW2 3312   0.389   4.108   2.465
 1104SOL     OW 3313   0.317   4.271   3.142
 1104SOL    HW1 3314   0.355   4.212   3.214
 1104SOL    HW2 3315   0.357   4.245   3.054
 1105SOL     OW 3316   1.424   3.938   2.974
 1105SOL    HW1 3317   1.476   3.873   3.029
 1105SOL    HW2 3318   1.375   4.001   3.035
 1106SOL     OW 3319   1.001   3.758   3.016
 1106SOL    HW1 3320   0.938   3.686   2.985
 1106SOL    HW2 3321   1.094   3.722   3.016
 1107SOL     OW 3322   1.352   3.776   2.030
 1107SOL    HW1 3323   1.387   3.735   1.946
 1107SOL    HW2 3324   1.262   3.738   2.050
 1108SOL     OW 3325   1.300   4.177   2.553
 1108SOL    HW1 3326   1.241   4.257   2.557
 1108SOL    HW2 3327   1.315   4.142   2.646
 1109SOL     OW 3328   1.593   3.945   2.744
 1109SOL    HW1 3329   1.509   3.944   2.798
 1109SOL    HW2 3330   1.595   4.028   2.688
 1110SOL     OW 3331   1.135   4.427   4.441
 1110SOL    HW1 3332   1.192   4.505   4.416
 1110SOL    HW2 3333   1.075   4.453   4.517
 1111SOL     OW 3334   1.755   4.331   3.955
 1111SOL    HW1 3335   1.743   4.318   3.856
 1111SOL    HW2 3336   1.725   4.250   4.004
 1112SOL     OW 3337   0.122   4.367   4.287
 1112SOL    HW1 3338   0.077   4.279   4.304
 1112SOL    HW2 3339   0.121   4.421   4.371
 1113SOL     OW 3340   0.809   3.728   4.226
 1113SOL    HW1 3341   0.849   3.819   4.217
 1113SOL    HW2 3342   0.709   3.736   4.232
 1114SOL     OW 3343   0.865   4.072   3.919
 1114SOL    HW1 3344   0.924   4.135   3.870
 1114SOL    HW2 3345   0.884   3.978   3.890
 1115SOL     OW 3346   1.400   3.831   4.150
 1115SOL    HW1 3347   1.376   3.794   4.060
 1115SOL    HW2 3348   1.499   3.847   4.154
 1116SOL     OW 3349   0.382   4.424   4.204
 1116SOL    HW1 3350   0.427   4.334   4.201
 1116SOL    HW2 3351   0.288   4.413   4.237
 1117SOL     OW 3352   0.614   3.846   3.841
 1117SOL    HW1 3353   0.712   3.824   3.848
 1117SOL    HW2 3354   0.583   3.829   3.748
 1118SOL     OW 3355   0.297   3.759   3.895
 1118SOL    HW1 3356   0.346   3.843   3.874
 1118SOL    HW2 3357   0.359   3.694   3.940
 1119SOL     OW 3358   0.935   3.960   4.204
 1119SOL    HW1 3359   0.887   4.001   4.126
 1119SOL    HW2 3360   1.034   3.958   4.185
 1120SOL     OW 3361   0.527   3.980   4.052
 1120SOL    HW1 3362   0.554   3.921   3.977
 1120SOL    HW2 3363   0.527   4.075   4.021
 1121SOL     OW 3364   1.622   4.091   4.098
 1121SOL    HW1 3365   1.624   4.015   4.162
 1121SOL    HW2 3366   1.574   4.168   4.138
 1122SOL     OW 3367   1.540   3.998   3.849
 1122SOL    HW1 3368   1.479   3.923   3.872
 1122SOL    HW2 3369   1.562   4.050   3.932
 1123SOL     OW 3370   1.303   4.562   3.766
 1123SOL    HW1 3371   1.337   4.469   3.781
 1123SOL    HW2 3372   1.321   4.589   3.671
 1124SOL     OW 3373   0.815   4.296   4.049
 1124SOL    HW1 3374   0.822   4.207   4.003
 1124SOL    HW2 3375   0.721   4.330   4.041
 1125SOL     OW 3376   1.726   3.859   4.247
 1125SOL    HW1 3377   1.799   3.842   4.180
 1125SOL    HW2 3378   1.695   3.772   4.285
 1126SOL     OW 3379   0.075   4.069   3.757
 1126SOL    HW1 3380  -0.017   4.041   3.728
 1126SOL    HW2 3381   0.106   4.146   3.701
 1127SOL     OW 3382   0.072   3.890   4.042
 1127SOL    HW1 3383   0.055   3.973   3.988
 1127SOL    HW2 3384   0.162   3.853   4.020
 1128SOL     OW 3385   1.225   4.049   4.173
 1128SOL    HW1 3386   1.290   3.975   4.162
 1128SOL    HW2 3387   1.245   4.099   4.257
 1129SOL     OW 3388   0.428   4.148   4.244
 1129SOL    HW1 3389   0.458   4.076   4.182
 1129SOL    HW2 3390   0.389   4.108   4.327
 1130SOL     OW 3391   1.352   3.776   3.892
 1130SOL    HW1 3392   1.387   3.735   3.808
 1130SOL    HW2 3393   1.262   3.738   3.912
 1131SOL     OW 3394   2.092   0.628   0.113
 1131SOL    HW1 3395   1.999   0.626   0.150
 1131SOL    HW2 3396   2.093   0.589   0.021
 1132SOL     OW 3397   2.087   0.275   0.996
 1132SOL    HW1 3398   2.122   0.258   1.088
 1132SOL    HW2 3399   1.999   0.230   0.984
 1133SOL     OW 3400   1.881   0.368   0.647
 1133SOL    HW1 3401   1.799   0.411   0.686
 1133SOL    HW2 3402   1.853   0.295   0.584
 1134SOL     OW 3403   2.431   1.275   1.165
 1134SOL    HW1 3404   2.338   1.268   1.128
 1134SOL    HW2 3405   2.442   1.364   1.209
 1135SOL     OW 3406   3.417   1.511   0.703
 1135SOL    HW1 3407   3.360   1.495   0.784
 1135SOL    HW2 3408   3.358   1.521   0.623
 1136SOL     OW 3409   2.997   0.703   0.717
 1136SOL    HW1 3410   3.054   0.781   0.692
 1136SOL    HW2 3411   2.937   0.729   0.793
 1137SOL     OW 3412   3.617   0.607   0.231
 1137SOL    HW1 3413   3.605   0.594   0.132
 1137SOL    HW2 3414   3.587   0.526   0.280
 1138SOL     OW 3415   2.630   1.144   1.023
 1138SOL    HW1 3416   2.552   1.161   1.083
 1138SOL    HW2 3417   2.664   1.231   0.987
 1139SOL     OW 3418   2.712   0.798   1.823
 1139SOL    HW1 3419   2.708   0.874   1.888
 1139SOL    HW2 3420   2.734   0.834   1.732
 1140SOL     OW 3421   2.547   1.012   0.665
 1140SOL    HW1 3422   2.616   0.996   0.735
 1140SOL    HW2 3423   2.474   1.069   0.703
 1141SOL     OW 3424   2.548   1.161   1.803
 1141SOL    HW1 3425   2.608   1.240   1.817
 1141SOL    HW2 3426   2.462   1.192   1.762
 1142SOL     OW 3427   2.197   1.435   1.061
 1142SOL    HW1 3428   2.119   1.404   1.008
 1142SOL    HW2 3429   2.255   1.493   1.004
 1143SOL     OW 3430   3.322   1.505   1.339
 1143SOL    HW1 3431   3.346   1.599   1.365
 1143SOL    HW2 3432   3.306   1.451   1.421
 1144SOL     OW 3433   2.300   0.392   1.499
 1144SOL    HW1 3434   2.382   0.336   1.508
 1144SOL    HW2 3435   2.219   0.334   1.503
 1145SOL     OW 3436   3.465   0.447   0.737
 1145SOL    HW1 3437   3.391   0.493   0.687
 1145SOL    HW2 3438   3.516   0.515   0.790
 1146SOL     OW 3439   2.093   1.713   0.483
 1146SOL    HW1 3440   2.127   1.790   0.537
 1146SOL    HW2 3441   2.137   1.713   0.393
 1147SOL     OW 3442   2.989   1.341   1.690
 1147SOL    HW1 3443   3.036   1.341   1.778
 1147SOL    HW2 3444   2.941   1.254   1.679
 1148SOL     OW 3445   2.092   1.434   0.538
 1148SOL    HW1 3446   2.066   1.530   0.538
 1148SOL    HW2 3447   2.021   1.380   0.583
 1149SOL     OW 3448   2.102   1.091   0.886
 1149SOL    HW1 3449   2.116   1.007   0.938
 1149SOL    HW2 3450   2.047   1.155   0.941
 1150SOL     OW 3451   2.482   1.786   1.439
 1150SOL    HW1 3452   2.390   1.769   1.474
 1150SOL    HW2 3453   2.510   1.878   1.465
 1151SOL     OW 3454   2.468   0.964   0.123
 1151SOL    HW1 3455   2.475   1.048   0.069
 1151SOL    HW2 3456   2.514   0.977   0.211
 1152SOL     OW 3457   3.456   0.114   1.480
 1152SOL    HW1 3458   3.438   0.181   1.408
 1152SOL    HW2 3459   3.453   0.160   1.569
 1153SOL     OW 3460   1.984   0.643   0.563
 1153SOL    HW1 3461   1.939   0.555   0.580
 1153SOL    HW2 3462   1.983   0.697   0.647
 1154SOL     OW 3463   3.704   1.767   0.359
 1154SOL    HW1 3464   3.758   1.738   0.439
 1154SOL    HW2 3465   3.734   1.857   0.330
 1155SOL     OW 3466   1.889   1.596   0.117
 1155SOL    HW1 3467   1.870   1.500   0.138
 1155SOL    HW2 3468   1.856   1.654   0.192
 1156SOL     OW 3469   3.551   0.922   0.612
 1156SOL    HW1 3470   3.646   0.893   0.620
 1156SOL    HW2 3471   3.543   0.987   0.537
 1157SOL     OW 3472   3.503   1.108   0.432
 1157SOL    HW1 3473   3.589   1.110   0.380
 1157SOL    HW2 3474   3.517   1.155   0.520
 1158SOL     OW 3475   1.975   0.737   1.597
 1158SOL    HW1 3476   2.063   0.724   1.642
 1158SOL    HW2 3477   1.962   0.834   1.575
 1159SOL     OW 3478   2.475   1.365   0.726
 1159SOL    HW1 3479   2.426   1.278   0.735
 1159SOL    HW2 3480   2.452   1.408   0.639
 1160SOL     OW 3481   3.155   1.228   1.423
 1160SOL    HW1 3482   3.192   1.155   1.365
 1160SOL    HW2 3483   3.207   1.233   1.508
 1161SOL     OW 3484   2.671   0.004   0.502
 1161SOL    HW1 3485   2.711   0.095   0.493
 1161SOL    HW2 3486   2.571   0.012   0.508
 1162SOL     OW 3487   2.059   0.976   1.264
 1162SOL    HW1 3488   2.148   0.931   1.250
 1162SOL    HW2 3489   1.986   0.911   1.245
 1163SOL     OW 3490   3.387   0.999   0.190
 1163SOL    HW1 3491   3.324   0.923   0.203
 1163SOL    HW2 3492   3.435   1.017   0.276
 1164SOL     OW 3493   3.049   1.792   1.616
 1164SOL    HW1 3494   3.073   1.852   1.540
 1164SOL    HW2 3495   3.056   1.697   1.586
 1165SOL     OW 3496   2.179   0.251   1.801
 1165SOL    HW1 3497   2.250   0.322   1.807
 1165SOL    HW2 3498   2.091   0.290   1.829
 1166SOL     OW 3499   3.328   1.417   0.953
 1166SOL    HW1 3500   3.269   1.423   1.033
 1166SOL    HW2 3501   3.313   1.329   0.907
 1167SOL     OW 3502   3.529   1.714   0.572
 1167SOL    HW1 3503   3.488   1.691   0.484
 1167SOL    HW2 3504   3.511   1.640   0.637
 1168SOL     OW 3505   2.460   0.729   0.270
 1168SOL    HW1 3506   2.484   0.798   0.202
 1168SOL    HW2 3507   2.382   0.762   0.324
 1169SOL     OW 3508   3.143   0.345   0.944
 1169SOL    HW1 3509   3.057   0.295   0.931
 1169SOL    HW2 3510   3.205   0.291   1.000
 1170SOL     OW 3511   3.438   1.662   0.307
 1170SOL    HW1 3512   3.527   1.708   0.310
 1170SOL    HW2 3513   3.417   1.638   0.212
 1171SOL     OW 3514   2.669   0.605   1.465
 1171SOL    HW1 3515   2.622   0.602   1.554
 1171SOL    HW2 3516   2.618   0.550   1.399
 1172SOL     OW 3517   3.256   0.469   1.674
 1172SOL    HW1 3518   3.236   0.512   1.762
 1172SOL    HW2 3519   3.334   0.407   1.683
 1173SOL     OW 3520   2.835   0.890   1.572
 1173SOL    HW1 3521   2.881   0.806   1.543
 1173SOL    HW2 3522   2.779   0.924   1.497
 1174SOL     OW 3523   2.853   0.410   1.242
 1174SOL    HW1 3524   2.776   0.444   1.296
 1174SOL    HW2 3525   2.819   0.359   1.163
 1175SOL     OW 3526   2.903   0.701   0.429
 1175SOL    HW1 3527   2.929   0.697   0.525
 1175SOL    HW2 3528   2.818   0.650   0.415
 1176SOL     OW 3529   1.938   0.811   0.789
 1176SOL    HW1 3530   2.037   0.799   0.798
 1176SOL    HW2 3531   1.914   0.906   0.810
 1177SOL     OW 3532   1.992   1.821   1.571
 1177SOL    HW1 3533   1.982   1.806   1.670
 1177SOL    HW2 3534   1.906   1.857   1.535
 1178SOL     OW 3535   2.727   0.348   0.195
 1178SOL    HW1 3536   2.786   0.411   0.146
 1178SOL    HW2 3537   2.746   0.254   0.166
 1179SOL     OW 3538   3.581   0.585   1.831
 1179SOL    HW1 3539   3.555   0.674   1.795
 1179SOL    HW2 3540   3.579   0.517   1.758
 1180SOL     OW 3541   3.224   1.144   0.545
 1180SOL    HW1 3542   3.307   1.115   0.497
 1180SOL    HW2 3543   3.175   1.211   0.489
 1181SOL     OW 3544   2.412   0.196   0.885
 1181SOL    HW1 3545   2.407   0.191   0.985
 1181SOL    HW2 3546   2.414   0.292   0.856
 1182SOL     OW 3547   2.870   1.456   0.477
 1182SOL    HW1 3548   2.824   1.528   0.425
 1182SOL    HW2 3549   2.866   1.476   0.575
 1183SOL     OW 3550   2.213   1.801   0.853
 1183SOL    HW1 3551   2.263   1.715   0.859
 1183SOL    HW2 3552   2.278   1.878   0.850
 1184SOL     OW 3553   3.657   1.066   0.873
 1184SOL    HW1 3554   3.595   1.051   0.797
 1184SOL    HW2 3555   3.605   1.077   0.958
 1185SOL     OW 3556   3.089   1.550   1.506
 1185SOL    HW1 3557   3.095   1.473   1.570
 1185SOL    HW2 3558   3.037   1.524   1.426
 1186SOL     OW 3559   2.183   0.943   0.242
 1186SOL    HW1 3560   2.265   0.982   0.200
 1186SOL    HW2 3561   2.156   0.861   0.193
 1187SOL     OW 3562   3.320   0.735   0.728
 1187SOL    HW1 3563   3.315   0.670   0.803
 1187SOL    HW2 3564   3.400   0.794   0.741
 1188SOL     OW 3565   2.323   1.266   1.727
 1188SOL    HW1 3566   2.273   1.267   1.641
 1188SOL    HW2 3567   2.260   1.248   1.803
 1189SOL     OW 3568   2.973   1.776   0.237
 1189SOL    HW1 3569   2.913   1.714   0.287
 1189SOL    HW2 3570   3.004   1.732   0.152
 1190SOL     OW 3571   2.064   0.285   1.498
 1190SOL    HW1 3572   1.984   0.345   1.485
 1190SOL    HW2 3573   2.054   0.236   1.584
 1191SOL     OW 3574   3.494   1.377   0.081
 1191SOL    HW1 3575   3.462   1.471   0.071
 1191SOL    HW2 3576   3.418   1.314   0.069
 1192SOL     OW 3577   2.326   1.743   0.323
 1192SOL    HW1 3578   2.359   1.782   0.409
 1192SOL    HW2 3579   2.402   1.736   0.258
 1193SOL     OW 3580   3.262   0.107   0.426
 1193SOL    HW1 3581   3.238   0.070   0.336
 1193SOL    HW2 3582   3.361   0.123   0.430
 1194SOL     OW 3583   2.111   1.785   1.241
 1194SOL    HW1 3584   2.168   1.720   1.291
 1194SOL    HW2 3585   2.095   1.752   1.148
 1195SOL     OW 3586   2.802   1.698   0.904
 1195SOL    HW1 3587   2.882   1.641   0.925
 1195SOL    HW2 3588   2.753   1.658   0.827
 1196SOL     OW 3589   2.244   0.700   0.480
 1196SOL    HW1 3590   2.289   0.610   0.477
 1196SOL    HW2 3591   2.150   0.689   0.513
 1197SOL     OW 3592   3.409   0.222   1.729
 1197SOL    HW1 3593   3.404   0.259   1.821
 1197SOL    HW2 3594   3.337   0.153   1.717
 1198SOL     OW 3595   2.476   0.122   0.117
 1198SOL    HW1 3596   2.574   0.100   0.124
 1198SOL    HW2 3597   2.445   0.105   0.024
 1199SOL     OW 3598   2.643   0.264   1.749
 1199SOL    HW1 3599   2.710   0.203   1.792
 1199SOL    HW2 3600   2.570   0.283   1.814
 1200SOL     OW 3601   2.750   1.514   1.195
 1200SOL    HW1 3602   2.727   1.489   1.101
 1200SOL    HW2 3603   2.811   1.445   1.234
 1201SOL     OW 3604   3.213   0.590   1.433
 1201SOL    HW1 3605   3.241   0.547   1.518
 1201SOL    HW2 3606   3.238   0.686   1.434
 1202SOL     OW 3607   2.665   1.402   0.924
 1202SOL    HW1 3608   2.755   1.416   0.882
 1202SOL    HW2 3609   2.594   1.404   0.853
 1203SOL     OW 3610   2.784   0.503   0.899
 1203SOL    HW1 3611   2.759   0.494   0.803
 1203SOL    HW2 3612   2.832   0.421   0.930
 1204SOL     OW 3613   2.401   0.064   0.512
 1204SOL    HW1 3614   2.320   0.065   0.570
 1204SOL    HW2 3615   2.404   0.147   0.457
 1205SOL     OW 3616   3.296   1.188   0.041
 1205SOL    HW1 3617   3.328   1.112   0.098
 1205SOL    HW2 3618   3.204   1.215   0.071
 1206SOL     OW 3619   2.159   0.035   0.171
 1206SOL    HW1 3620   2.208   0.119   0.150
 1206SOL    HW2 3621   2.221  -0.030   0.216
 1207SOL     OW 3622   2.797   0.236   0.480
 1207SOL    HW1 3623   2.749   0.277   0.402
 1207SOL    HW2 3624   2.896   0.234   0.461
 1208SOL     OW 3625   2.938   0.683   1.464
 1208SOL    HW1 3626   2.858   0.622   1.467
 1208SOL    HW2 3627   3.019   0.630   1.440
 1209SOL     OW 3628   3.089   1.570   0.793
 1209SOL    HW1 3629   3.110   1.644   0.728
 1209SOL    HW2 3630   3.157   1.570   0.866
 1210SOL     OW 3631   2.321   1.152   0.741
 1210SOL    HW1 3632   2.250   1.125   0.806
 1210SOL    HW2 3633   2.295   1.124   0.648
 1211SOL     OW 3634   3.133   1.797   0.591
 1211SOL    HW1 3635   3.177   1.861   0.527
 1211SOL    HW2 3636   3.083   1.849   0.661
 1212SOL     OW 3637   2.894   0.549   0.016
 1212SOL    HW1 3638   2.853   0.631  -0.023
 1212SOL    HW2 3639   2.958   0.575   0.089
 1213SOL     OW 3640   1.940   0.556   1.386
 1213SOL    HW1 3641   2.032   0.555   1.345
 1213SOL    HW2 3642   1.934   0.630   1.453
 1214SOL     OW 3643   2.423   0.222   1.147
 1214SOL    HW1 3644   2.461   0.138   1.184
 1214SOL    HW2 3645   2.335   0.241   1.191
 1215SOL     OW 3646   2.728   0.454   0.642
 1215SOL    HW1 3647   2.696   0.526   0.580
 1215SOL    HW2 3648   2.752   0.373   0.589
 1216SOL     OW 3649   2.879   0.039   0.753
 1216SOL    HW1 3650   2.807   0.044   0.684
 1216SOL    HW2 3651   2.855  -0.030   0.822
 1217SOL     OW 3652   3.291   1.173   0.867
 1217SOL    HW1 3653   3.236   1.089   0.860
 1217SOL    HW2 3654   3.317   1.202   0.775
 1218SOL     OW 3655   3.328   0.590   0.992
 1218SOL    HW1 3656   3.298   0.495   0.999
 1218SOL    HW2 3657   3.401   0.606   1.058
 1219SOL     OW 3658   3.719   0.833   0.377
 1219SOL    HW1 3659   3.761   0.769   0.441
 1219SOL    HW2 3660   3.681   0.782   0.299
 1220SOL     OW 3661   2.350   1.385   0.174
 1220SOL    HW1 3662   2.263   1.370   0.221
 1220SOL    HW2 3663   2.333   1.411   0.079
 1221SOL     OW 3664   3.526   1.280   0.657
 1221SOL    HW1 3665   3.625   1.288   0.671
 1221SOL    HW2 3666   3.481   1.364   0.688
 1222SOL     OW 3667   3.252   0.575   0.078
 1222SOL    HW1 3668   3.198   0.554   0.159
 1222SOL    HW2 3669   3.343   0.534   0.087
 1223SOL     OW 3670   2.389   0.256   0.328
 1223SOL    HW1 3671   2.416   0.197   0.253
 1223SOL    HW2 3672   2.389   0.351   0.297
 1224SOL     OW 3673   3.616   1.223   1.588
 1224SOL    HW1 3674   3.707   1.184   1.575
 1224SOL    HW2 3675   3.624   1.319   1.612
 1225SOL     OW 3676   2.926   1.347   1.340
 1225SOL    HW1 3677   2.846   1.324   1.395
 1225SOL    HW2 3678   3.009   1.321   1.389
 1226SOL     OW 3679   3.454   1.629   1.625
 1226SOL    HW1 3680   3.481   1.663   1.535
 1226SOL    HW2 3681   3.533   1.591   1.671
 1227SOL     OW 3682   2.973   1.195   1.100
 1227SOL    HW1 3683   2.933   1.239   1.181
 1227SOL    HW2 3684   2.932   1.232   1.017
 1228SOL     OW 3685   3.500   1.099   1.079
 1228SOL    HW1 3686   3.505   1.180   1.138
 1228SOL    HW2 3687   3.414   1.101   1.028
 1229SOL     OW 3688   2.777   0.089   1.402
 1229SOL    HW1 3689   2.802   0.069   1.307
 1229SOL    HW2 3690   2.849   0.145   1.444
 1230SOL     OW 3691   2.842   1.116   1.719
 1230SOL    HW1 3692   2.743   1.122   1.729
 1230SOL    HW2 3693   2.865   1.036   1.663
 1231SOL     OW 3694   2.567   1.050   0.368
 1231SOL    HW1 3695   2.553   1.057   0.467
 1231SOL    HW2 3696   2.651   0.999   0.350
 1232SOL     OW 3697   2.272   0.813   1.251
 1232SOL    HW1 3698   2.358   0.825   1.301
 1232SOL    HW2 3699   2.230   0.726   1.278
 1233SOL     OW 3700   3.136   0.386   1.262
 1233SOL    HW1 3701   3.157   0.460   1.326
 1233SOL    HW2 3702   3.047   0.403   1.219
 1234SOL     OW 3703   1.926   1.564   1.331
 1234SOL    HW1 3704   1.880   1.646   1.297
 1234SOL    HW2 3705   2.024   1.583   1.340
 1235SOL     OW 3706   2.229   1.100   0.501
 1235SOL    HW1 3707   2.222   1.183   0.445
 1235SOL    HW2 3708   2.233   1.020   0.441
 1236SOL     OW 3709   2.428   0.537   0.865
 1236SOL    HW1 3710   2.440   0.603   0.791
 1236SOL    HW2 3711   2.474   0.571   0.948
 1237SOL     OW 3712   3.114   1.348   0.388
 1237SOL    HW1 3713   3.164   1.425   0.428
 1237SOL    HW2 3714   3.019   1.350   0.420
 1238SOL     OW 3715   3.134   1.445   1.142
 1238SOL    HW1 3716   3.181   1.458   1.229
 1238SOL    HW2 3717   3.068   1.371   1.151
 1239SOL     OW 3718   3.444   0.639   0.472
 1239SOL    HW1 3719   3.413   0.700   0.545
 1239SOL    HW2 3720   3.494   0.691   0.403
 1240SOL     OW 3721   2.216   1.510   1.329
 1240SOL    HW1 3722   2.195   1.466   1.242
 1240SOL    HW2 3723   2.313   1.536   1.332
 1241SOL     OW 3724   2.264   0.751   1.598
 1241SOL    HW1 3725   2.332   0.806   1.551
 1241SOL    HW2 3726   2.304   0.663   1.625
 1242SOL     OW 3727   3.449   0.779   1.670
 1242SOL    HW1 3728   3.357   0.817   1.665
 1242SOL    HW2 3729   3.509   0.826   1.605
 1243SOL     OW 3730   2.875   0.105   1.770
 1243SOL    HW1 3731   2.881   0.190   1.718
 1243SOL    HW2 3732   2.907   0.029   1.713
 1244SOL     OW 3733   2.366   0.050   1.740
 1244SOL    HW1 3734   2.324  -0.007   1.670
 1244SOL    HW2 3735   2.300   0.119   1.772
 1245SOL     OW 3736   2.435   0.870   1.029
 1245SOL    HW1 3737   2.479   0.959   1.020
 1245SOL    HW2 3738   2.372   0.870   1.106
 1246SOL     OW 3739   3.222   0.862   1.045
 1246SOL    HW1 3740   3.147   0.862   0.979
 1246SOL    HW2 3741   3.259   0.770   1.054
 1247SOL     OW 3742   3.071   0.525   0.275
 1247SOL    HW1 3743   3.084   0.441   0.329
 1247SOL    HW2 3744   3.042   0.599   0.335
 1248SOL     OW 3745   2.169   0.213   1.231
 1248SOL    HW1 3746   2.146   0.250   1.321
 1248SOL    HW2 3747   2.139   0.118   1.225
 1249SOL     OW 3748   1.899   1.310   1.282
 1249SOL    HW1 3749   1.952   1.261   1.350
 1249SOL    HW2 3750   1.921   1.408   1.287
 1250SOL     OW 3751   2.594   0.634   1.064
 1250SOL    HW1 3752   2.653   0.608   0.988
 1250SOL    HW2 3753   2.566   0.730   1.053
 1251SOL     OW 3754   3.590   0.935   1.854
 1251SOL    HW1 3755   3.544   0.928   1.765
 1251SOL    HW2 3756   3.528   0.979   1.920
 1252SOL     OW 3757   2.169   0.063   0.618
 1252SOL    HW1 3758   2.158   0.157   0.651
 1252SOL    HW2 3759   2.164   0.000   0.695
 1253SOL     OW 3760   3.484   0.367   0.374
 1253SOL    HW1 3761   3.486   0.291   0.438
 1253SOL    HW2 3762   3.436   0.444   0.414
 1254SOL     OW 3763   2.885   0.766   0.966
 1254SOL    HW1 3764   2.900   0.787   1.062
 1254SOL    HW2 3765   2.855   0.671   0.957
 1255SOL     OW 3766   2.842   1.573   1.700
 1255SOL    HW1 3767   2.822   1.617   1.612
 1255SOL    HW2 3768   2.881   1.482   1.684
 1256SOL     OW 3769   3.721   1.518   1.605
 1256SOL    HW1 3770   3.735   1.545   1.510
 1256SOL    HW2 3771   3.804   1.540   1.658
 1257SOL     OW 3772   2.212   0.898   1.804
 1257SOL    HW1 3773   2.288   0.942   1.852
 1257SOL    HW2 3774   2.247   0.851   1.722
 1258SOL     OW 3775   3.402   0.274   0.125
 1258SOL    HW1 3776   3.341   0.199   0.148
 1258SOL    HW2 3777   3.424   0.326   0.208
 1259SOL     OW 3778   3.165   0.838   0.042
 1259SOL    HW1 3779   3.199   0.745   0.057
 1259SOL    HW2 3780   3.183   0.865  -0.053
 1260SOL     OW 3781   2.930   1.333   0.849
 1260SOL    HW1 3782   2.937   1.249   0.794
 1260SOL    HW2 3783   2.992   1.402   0.813
 1261SOL     OW 3784   2.181   0.810   0.949
 1261SOL    HW1 3785   2.274   0.846   0.954
 1261SOL    HW2 3786   2.175   0.725   1.001
 1262SOL     OW 3787   2.201   0.509   1.006
 1262SOL    HW1 3788   2.149   0.426   0.989
 1262SOL    HW2 3789   2.278   0.514   0.942
 1263SOL     OW 3790   3.000   0.380   1.678
 1263SOL    HW1 3791   2.955   0.443   1.742
 1263SOL    HW2 3792   3.093   0.411   1.661
 1264SOL     OW 3793   3.022   0.207   1.477
 1264SOL    HW1 3794   3.022   0.271   1.554
 1264SOL    HW2 3795   3.050   0.255   1.394
 1265SOL     OW 3796   1.870   1.326   0.200
 1265SOL    HW1 3797   1.777   1.347   0.169
 1265SOL    HW2 3798   1.880   1.227   0.213
 1266SOL     OW 3799   1.950   1.801   0.927
 1266SOL    HW1 3800   1.908   1.715   0.900
 1266SOL    HW2 3801   2.044   1.804   0.893
 1267SOL     OW 3802   2.366   1.568   0.910
 1267SOL    HW1 3803   2.432   1.642   0.919
 1267SOL    HW2 3804   2.410   1.489   0.868
 1268SOL     OW 3805   2.864   0.796   1.238
 1268SOL    HW1 3806   2.905   0.764   1.324
 1268SOL    HW2 3807   2.768   0.769   1.235
 1269SOL     OW 3808   1.902   0.544   1.114
 1269SOL    HW1 3809   1.987   0.511   1.073
 1269SOL    HW2 3810   1.915   0.559   1.212
 1270SOL     OW 3811   2.051   0.520   1.722
 1270SOL    HW1 3812   2.110   0.480   1.652
 1270SOL    HW2 3813   1.993   0.591   1.681
 1271SOL     OW 3814   3.231   0.950   1.660
 1271SOL    HW1 3815   3.270   1.039   1.680
 1271SOL    HW2 3816   3.241   0.930   1.563
 1272SOL     OW 3817   2.677   0.572   0.325
 1272SOL    HW1 3818   2.684   0.483   0.279
 1272SOL    HW2 3819   2.583   0.606   0.317
 1273SOL     OW 3820   3.519   0.604   1.206
 1273SOL    HW1 3821   3.481   0.535   1.268
 1273SOL    HW2 3822   3.601   0.568   1.162
 1274SOL     OW 3823   2.114   1.564   1.744
 1274SOL    HW1 3824   2.084   1.621   1.820
 1274SOL    HW2 3825   2.107   1.467   1.770
 1275SOL     OW 3826   2.533   0.464   1.269
 1275SOL    HW1 3827   2.499   0.375   1.239
 1275SOL    HW2 3828   2.559   0.518   1.189
 1276SOL     OW 3829   2.792   1.678   1.465
 1276SOL    HW1 3830   2.768   1.660   1.370
 1276SOL    HW2 3831   2.822   1.772   1.475
 1277SOL     OW 3832   2.335   0.500   0.191
 1277SOL    HW1 3833   2.396   0.580   0.195
 1277SOL    HW2 3834   2.240   0.531   0.198
 1278SOL     OW 3835   2.021   1.137   1.466
 1278SOL    HW1 3836   2.043   1.076   1.542
 1278SOL    HW2 3837   2.031   1.088   1.380
 1279SOL     OW 3838   3.209   1.059   1.234
 1279SOL    HW1 3839   3.233   0.996   1.160
 1279SOL    HW2 3840   3.119   1.099   1.216
 1280SOL     OW 3841   3.164   0.855   0.309
 1280SOL    HW1 3842   3.078   0.824   0.351
 1280SOL    HW2 3843   3.160   0.841   0.210
 1281SOL     OW 3844   3.621   1.747   1.154
 1281SOL    HW1 3845   3.682   1.777   1.081
 1281SOL    HW2 3846   3.583   1.658   1.132
 1282SOL     OW 3847   3.114   1.731   1.128
 1282SOL    HW1 3848   3.198   1.736   1.074
 1282SOL    HW2 3849   3.091   1.635   1.146
 1283SOL     OW 3850   1.945   1.258   1.022
 1283SOL    HW1 3851   1.940   1.257   1.122
 1283SOL    HW2 3852   1.862   1.217   0.984
 1284SOL     OW 3853   2.550   1.662   1.716
 1284SOL    HW1 3854   2.494   1.743   1.725
 1284SOL    HW2 3855   2.602   1.666   1.630
 1285SOL     OW 3856   2.765   0.086   0.133
 1285SOL    HW1 3857   2.816   0.087   0.047
 1285SOL    HW2 3858   2.821   0.044   0.204
 1286SOL     OW 3859   3.588   0.135   0.523
 1286SOL    HW1 3860   3.661   0.118   0.456
 1286SOL    HW2 3861   3.557   0.048   0.561
 1287SOL     OW 3862   3.250   1.573   0.477
 1287SOL    HW1 3863   3.317   1.585   0.403
 1287SOL    HW2 3864   3.210   1.662   0.500
 1288SOL     OW 3865   1.992   1.794   1.851
 1288SOL    HW1 3866   1.951   1.720   1.904
 1288SOL    HW2 3867   2.056   1.845   1.909
 1289SOL     OW 3868   3.142   0.927   0.672
 1289SOL    HW1 3869   3.202   0.846   0.674
 1289SOL    HW2 3870   3.182   0.996   0.612
 1290SOL     OW 3871   2.692   1.273   1.422
 1290SOL    HW1 3872   2.687   1.306   1.517
 1290SOL    HW2 3873   2.606   1.292   1.376
 1291SOL     OW 3874   2.534   1.616   0.154
 1291SOL    HW1 3875   2.543   1.626   0.055
 1291SOL    HW2 3876   2.494   1.527   0.175
 1292SOL     OW 3877   3.512   1.720   1.394
 1292SOL    HW1 3878   3.565   1.730   1.310
 1292SOL    HW2 3879   3.485   1.810   1.428
 1293SOL     OW 3880   3.703   0.175   0.963
 1293SOL    HW1 3881   3.742   0.090   0.927
 1293SOL    HW2 3882   3.605   0.177   0.944
 1294SOL     OW 3883   2.125   0.326   0.720
 1294SOL    HW1 3884   2.046   0.377   0.686
 1294SOL    HW2 3885   2.116   0.311   0.818
 1295SOL     OW 3886   3.056   1.612   0.031
 1295SOL    HW1 3887   3.062   1.519   0.068
 1295SOL    HW2 3888   2.997   1.612  -0.049
 1296SOL     OW 3889   2.684   1.002   1.372
 1296SOL    HW1 3890   2.724   1.001   1.280
 1296SOL    HW2 3891   2.694   1.094   1.412
 1297SOL     OW 3892   2.778   0.910   0.291
 1297SOL    HW1 3893   2.841   0.948   0.223
 1297SOL    HW2 3894   2.818   0.827   0.330
 1298SOL     OW 3895   3.366   1.607   0.044
 1298SOL    HW1 3896   3.274   1.644   0.051
 1298SOL    HW2 3897   3.404   1.627  -0.046
 1299SOL     OW 3898   2.234   1.288   1.490
 1299SOL    HW1 3899   2.221   1.381   1.456
 1299SOL    HW2 3900   2.150   1.236   1.477
 1300SOL     OW 3901   3.476   1.292   1.289
 1300SOL    HW1 3902   3.536   1.295   1.369
 1300SOL    HW2 3903   3.401   1.356   1.302
 1301SOL     OW 3904   2.901   1.098   0.696
 1301SOL    HW1 3905   2.831   1.051   0.750
 1301SOL    HW2 3906   2.960   1.030   0.653
 1302SOL     OW 3907   2.876   0.236   0.971
 1302SOL    HW1 3908   2.868   0.200   0.878
 1302SOL    HW2 3909   2.874   0.160   1.036
 1303SOL     OW 3910   2.452   1.487   0.491
 1303SOL    HW1 3911   2.494   1.429   0.421
 1303SOL    HW2 3912   2.408   1.566   0.447
 1304SOL     OW 3913   3.571   0.385   1.381
 1304SOL    HW1 3914   3.644   0.454   1.385
 1304SOL    HW2 3915   3.599   0.310   1.322
 1305SOL     OW 3916   2.117   1.348   0.290
 1305SOL    HW1 3917   2.021   1.349   0.263
 1305SOL    HW2 3918   2.129   1.401   0.374
 1306SOL     OW 3919   1.967   1.013   1.726
 1306SOL    HW1 3920   1.890   0.980   1.780
 1306SOL    HW2 3921   2.052   0.983   1.768
 1307SOL     OW 3922   2.534   0.203   1.489
 1307SOL    HW1 3923   2.624   0.187   1.449
 1307SOL    HW2 3924   2.542   0.208   1.588
 1308SOL     OW 3925   1.937   0.345   0.033
 1308SOL    HW1 3926   1.845   0.317   0.004
 1308SOL    HW2 3927   1.968   0.422  -0.023
 1309SOL     OW 3928   3.302   0.856   1.398
 1309SOL    HW1 3929   3.245   0.908   1.335
 1309SOL    HW2 3930   3.398   0.868   1.374
 1310SOL     OW 3931   1.934   0.166   0.318
 1310SOL    HW1 3932   1.917   0.249   0.264
 1310SOL    HW2 3933   2.024   0.129   0.296
 1311SOL     OW 3934   3.045   1.335   0.119
 1311SOL    HW1 3935   2.946   1.324   0.121
 1311SOL    HW2 3936   3.079   1.350   0.212
 1312SOL     OW 3937   2.475   0.842   1.431
 1312SOL    HW1 3938   2.531   0.923   1.414
 1312SOL    HW2 3939   2.534   0.762   1.434
 1313SOL     OW 3940   3.355   1.767   0.959
 1313SOL    HW1 3941   3.388   1.831   0.890
 1313SOL    HW2 3942   3.421   1.761   1.034
 1314SOL     OW 3943   2.578   0.565   1.708
 1314SOL    HW1 3944   2.597   0.630   1.782
 1314SOL    HW2 3945   2.638   0.485   1.717
 1315SOL     OW 3946   3.312   1.220   1.633
 1315SOL    HW1 3947   3.303   1.210   1.732
 1315SOL    HW2 3948   3.408   1.213   1.607
 1316SOL     OW 3949   2.252   1.741   1.560
 1316SOL    HW1 3950   2.161   1.782   1.558
 1316SOL    HW2 3951   2.245   1.647   1.592
 1317SOL     OW 3952   3.536   0.883   1.254
 1317SOL    HW1 3953   3.509   0.794   1.217
 1317SOL    HW2 3954   3.537   0.951   1.181
 1318SOL     OW 3955   3.087   0.325   0.449
 1318SOL    HW1 3956   3.152   0.251   0.438
 1318SOL    HW2 3957   3.107   0.375   0.533
 1319SOL     OW 3958   2.456   0.745   0.652
 1319SOL    HW1 3959   2.506   0.830   0.633
 1319SOL    HW2 3960   2.368   0.747   0.604
 1320SOL     OW 3961   3.639   0.342   1.642
 1320SOL    HW1 3962   3.622   0.373   1.548
 1320SOL    HW2 3963   3.555   0.305   1.680
 1321SOL     OW 3964   3.592   0.934   1.517
 1321SOL    HW1 3965   3.630   1.025   1.532
 1321SOL    HW2 3966   3.584   0.917   1.418
 1322SOL     OW 3967   2.721   1.374   0.016
 1322SOL    HW1 3968   2.675   1.389   0.104
 1322SOL    HW2 3969   2.765   1.459  -0.014
 1323SOL     OW 3970   2.523   1.790   0.953
 1323SOL    HW1 3971   2.477   1.878   0.940
 1323SOL    HW2 3972   2.622   1.802   0.946
 1324SOL     OW 3973   2.721   0.956   0.861
 1324SOL    HW1 3974   2.775   0.887   0.909
 1324SOL    HW2 3975   2.689   1.025   0.927
 1325SOL     OW 3976   2.945   0.984   0.087
 1325SOL    HW1 3977   2.922   1.037   0.005
 1325SOL    HW2 3978   3.026   0.928   0.068
 1326SOL     OW 3979   3.723   1.569   0.851
 1326SOL    HW1 3980   3.652   1.557   0.781
 1326SOL    HW2 3981   3.724   1.490   0.911
 1327SOL     OW 3982   2.083   1.314   1.844
 1327SOL    HW1 3983   2.018   1.241   1.823
 1327SOL    HW2 3984   2.087   1.328   1.942
 1328SOL     OW 3985   1.941   1.240   0.653
 1328SOL    HW1 3986   1.940   1.193   0.741
 1328SOL    HW2 3987   2.023   1.212   0.602
 1329SOL     OW 3988   2.534   1.391   1.624
 1329SOL    HW1 3989   2.456   1.341   1.662
 1329SOL    HW2 3990   2.531   1.486   1.655
 1330SOL     OW 3991   3.686   0.192   1.227
 1330SOL    HW1 3992   3.682   0.102   1.271
 1330SOL    HW2 3993   3.689   0.181   1.128
 1331SOL     OW 3994   2.290   0.424   0.520
 1331SOL    HW1 3995   2.320   0.352   0.458
 1331SOL    HW2 3996   2.251   0.384   0.603
 1332SOL     OW 3997   3.567   1.487   1.104
 1332SOL    HW1 3998   3.474   1.462   1.077
 1332SOL    HW2 3999   3.593   1.437   1.186
 1333SOL     OW 4000   2.179   0.547   1.280
 1333SOL    HW1 4001   2.217   0.488   1.352
 1333SOL    HW2 4002   2.219   0.521   1.192
 1334SOL     OW 4003   2.674   1.586   0.687
 1334SOL    HW1 4004   2.706   1.596   0.593
 1334SOL    HW2 4005   2.595   1.524   0.689
 1335SOL     OW 4006   3.286   0.214   1.112
 1335SOL    HW1 4007   3.338   0.149   1.167
 1335SOL    HW2 4008   3.237   0.277   1.173
 1336SOL     OW 4009   2.863   0.034   1.154
 1336SOL    HW1 4010   2.800  -0.038   1.123
 1336SOL    HW2 4011   2.956  -0.002   1.154
 1337SOL     OW 4012   2.632   1.330   0.301
 1337SOL    HW1 4013   2.586   1.243   0.318
 1337SOL    HW2 4014   2.723   1.327   0.342
 1338SOL     OW 4015   2.480   1.567   1.284
 1338SOL    HW1 4016   2.475   1.649   1.341
 1338SOL    HW2 4017   2.569   1.564   1.239
 1339SOL     OW 4018   3.214   0.052   0.168
 1339SOL    HW1 4019   3.249   0.011   0.084
 1339SOL    HW2 4020   3.124   0.014   0.188
 1340SOL     OW 4021   3.162   0.453   0.691
 1340SOL    HW1 4022   3.103   0.533   0.695
 1340SOL    HW2 4023   3.177   0.418   0.784
 1341SOL     OW 4024   3.455   0.221   0.882
 1341SOL    HW1 4025   3.371   0.220   0.936
 1341SOL    HW2 4026   3.457   0.304   0.826
 1342SOL     OW 4027   1.901   1.077   0.300
 1342SOL    HW1 4028   2.000   1.066   0.291
 1342SOL    HW2 4029   1.861   0.991   0.332
 1343SOL     OW 4030   2.737   1.646   0.337
 1343SOL    HW1 4031   2.660   1.611   0.283
 1343SOL    HW2 4032   2.705   1.717   0.399
 1344SOL     OW 4033   2.092   0.628   1.975
 1344SOL    HW1 4034   1.999   0.626   2.012
 1344SOL    HW2 4035   2.093   0.589   1.883
 1345SOL     OW 4036   2.087   0.275   2.858
 1345SOL    HW1 4037   2.122   0.258   2.950
 1345SOL    HW2 4038   1.999   0.230   2.846
 1346SOL     OW 4039   1.881   0.368   2.509
 1346SOL    HW1 4040   1.799   0.411   2.548
 1346SOL    HW2 4041   1.853   0.295   2.446
 1347SOL     OW 4042   2.431   1.275   3.027
 1347SOL    HW1 4043   2.338   1.268   2.990
 1347SOL    HW2 4044   2.442   1.364   3.071
 1348SOL     OW 4045   3.417   1.511   2.565
 1348SOL    HW1 4046   3.360   1.495   2.646
 1348SOL    HW2 4047   3.358   1.521   2.485
 1349SOL     OW 4048   2.997   0.703   2.579
 1349SOL    HW1 4049   3.054   0.781   2.554
 1349SOL    HW2 4050   2.937   0.729   2.655
 1350SOL     OW 4051   3.617   0.607   2.093
 1350SOL    HW1 4052   3.605   0.594   1.994
 1350SOL    HW2 4053   3.587   0.526   2.142
 1351SOL     OW 4054   2.630   1.144   2.885
 1351SOL    HW1 4055   2.552   1.161   2.945
 1351SOL    HW2 4056   2.664   1.231   2.849
 1352SOL     OW 4057   2.712   0.798   3.685
 1352SOL    HW1 4058   2.708   0.874   3.750
 1352SOL    HW2 4059   2.734   0.834   3.594
 1353SOL     OW 4060   2.547   1.012   2.527
 1353SOL    HW1 4061   2.616   0.996   2.597
 1353SOL    HW2 4062   2.474   1.069   2.565
 1354SOL     OW 4063   2.548   1.161   3.665
 1354SOL    HW1 4064   2.608   1.240   3.679
 1354SOL    HW2 4065   2.462   1.192   3.624
 1355SOL     OW 4066   2.197   1.435   2.923
 1355SOL    HW1 4067   2.119   1.404   2.870
 1355SOL    HW2 4068   2.255   1.493   2.866
 1356SOL     OW 4069   3.322   1.505   3.201
 1356SOL    HW1 4070   3.346   1.599   3.227
 1356SOL    HW2 4071   3.306   1.451   3.283
 1357SOL     OW 4072   2.300   0.392   3.361
 1357SOL    HW1 4073   2.382   0.336   3.370
 1357SOL    HW2 4074   2.219   0.334   3.365
 1358SOL     OW 4075   3.465   0.447   2.599
 1358SOL    HW1 4076   3.391   0.493   2.549
 1358SOL    HW2 4077   3.516   0.515   2.652
 1359SOL     OW 4078   2.093   1.713   2.345
 1359SOL    HW1 4079   2.127   1.790   2.399
 1359SOL    HW2 4080   2.137   1.713   2.255
 1360SOL     OW 4081   2.989   1.341   3.552
 1360SOL    HW1 4082   3.036   1.341   3.640
 1360SOL    HW2 4083   2.941   1.254   3.541
 1361SOL     OW 4084   2.092   1.434   2.400
 1361SOL    HW1 4085   2.066   1.530   2.400
 1361SOL    HW2 4086   2.021   1.380   2.445
 1362SOL     OW 4087   2.102   1.091   2.748
 1362SOL    HW1 4088   2.116   1.007   2.800
 1362SOL    HW2 4089   2.047   1.155   2.803
 1363SOL     OW 4090   2.482   1.786   3.301
 1363SOL    HW1 4091   2.390   1.769   3.336
 1363SOL    HW2 4092   2.510   1.878   3.327
 1364SOL     OW 4093   2.468   0.964   1.985
 1364SOL    HW1 4094   2.475   1.048   1.931
 1364SOL    HW2 4095   2.514   0.977   2.073
 1365SOL     OW 4096   3.456   0.114   3.342
 1365SOL    HW1 4097   3.438   0.181   3.270
 1365SOL    HW2 4098   3.453   0.160   3.431
 1366SOL     OW 4099   1.984   0.643   2.425
 1366SOL    HW1 4100   1.939   0.555   2.442
 1366SOL    HW2 4101   1.983   0.697   2.509
 1367SOL     OW 4102   3.704   1.767   2.221
 1367SOL    HW1 4103   3.758   1.738   2.301
 1367SOL    HW2 4104   3.734   1.857   2.192
 1368SOL     OW 4105   1.889   1.596   1.979
 1368SOL    HW1 4106   1.870   1.500   2.000
 1368SOL    HW2 4107   1.856   1.654   2.054
 1369SOL     OW 4108   3.551   0.922   2.474
 1369SOL    HW1 4109   3.646   0.893   2.482
 1369SOL    HW2 4110   3.543   0.987   2.399
 1370SOL     OW 4111   3.503   1.108   2.294
 1370SOL    HW1 4112   3.589   1.110   2.242
 1370SOL    HW2 4113   3.517   1.155   2.382
 1371SOL     OW 4114   1.975   0.737   3.459
 1371SOL    HW1 4115   2.063   0.724   3.504
 1371SOL    HW2 4116   1.962   0.834   3.437
 1372SOL     OW 4117   2.475   1.365   2.588
 1372SOL    HW1 4118   2.426   1.278   2.597
 1372SOL    HW2 4119   2.452   1.408   2.501
 1373SOL     OW 4120   3.155   1.228   3.285
 1373SOL    HW1 4121   3.192   1.155   3.227
 1373SOL    HW2 4122   3.207   1.233   3.370
 1374SOL     OW 4123   2.671   0.004   2.364
 1374SOL    HW1 4124   2.711   0.095   2.355
 1374SOL    HW2 4125   2.571   0.012   2.370
 1375SOL     OW 4126   2.059   0.976   3.126
 1375SOL    HW1 4127   2.148   0.931   3.112
 1375SOL    HW2 4128   1.986   0.911   3.107
 1376SOL     OW 4129   3.387   0.999   2.052
 1376SOL    HW1 4130   3.324   0.923   2.065
 1376SOL    HW2 4131   3.435   1.017   2.138
 1377SOL     OW 4132   3.049   1.792   3.478
 1377SOL    HW1 4133   3.073   1.852   3.402
 1377SOL    HW2 4134   3.056   1.697   3.448
 1378SOL     OW 4135   2.179   0.251   3.663
 1378SOL    HW1 4136   2.250   0.322   3.669
 1378SOL    HW2 4137   2.091   0.290   3.691
 1379SOL     OW 4138   3.328   1.417   2.815
 1379SOL    HW1 4139   3.269   1.423   2.895
 1379SOL    HW2 4140   3.313   1.329   2.769
 1380SOL     OW 4141   3.529   1.714   2.434
 1380SOL    HW1 4142   3.488   1.691   2.346
 1380SOL    HW2 4143   3.511   1.640   2.499
 1381SOL     OW 4144   2.460   0.729   2.132
 1381SOL    HW1 4145   2.484   0.798   2.064
 1381SOL    HW2 4146   2.382   0.762   2.186
 1382SOL     OW 4147   3.143   0.345   2.806
 1382SOL    HW1 4148   3.057   0.295   2.793
 1382SOL    HW2 4149   3.205   0.291   2.862
 1383SOL     OW 4150   3.438   1.662   2.169
 1383SOL    HW1 4151   3.527   1.708   2.172
 1383SOL    HW2 4152   3.417   1.638   2.074
 1384SOL     OW 4153   2.669   0.605   3.327
 1384SOL    HW1 4154   2.622   0.602   3.416
 1384SOL    HW2 4155   2.618   0.550   3.261
 1385SOL     OW 4156   3.256   0.469   3.536
 1385SOL    HW1 4157   3.236   0.512   3.624
 1385SOL    HW2 4158   3.334   0.407   3.545
 1386SOL     OW 4159   2.835   0.890   3.434
 1386SOL    HW1 4160   2.881   0.806   3.405
 1386SOL    HW2 4161   2.779   0.924   3.359
 1387SOL     OW 4162   2.853   0.410   3.104
 1387SOL    HW1 4163   2.776   0.444   3.158
 1387SOL    HW2 4164   2.819   0.359   3.025
 1388SOL     OW 4165   2.903   0.701   2.291
 1388SOL    HW1 4166   2.929   0.697   2.387
 1388SOL    HW2 4167   2.818   0.650   2.277
 1389SOL     OW 4168   1.938   0.811   2.651
 1389SOL    HW1 4169   2.037   0.799   2.660
 1389SOL    HW2 4170   1.914   0.906   2.672
 1390SOL     OW 4171   1.992   1.821   3.433
 1390SOL    HW1 4172   1.982   1.806   3.532
 1390SOL    HW2 4173   1.906   1.857   3.397
 1391SOL     OW 4174   2.727   0.348   2.057
 1391SOL    HW1 4175   2.786   0.411   2.008
 1391SOL    HW2 4176   2.746   0.254   2.028
 1392SOL     OW 4177   3.581   0.585   3.693
 1392SOL    HW1 4178   3.555   0.674   3.657
 1392SOL    HW2 4179   3.579   0.517   3.620
 1393SOL     OW 4180   3.224   1.144   2.407
 1393SOL    HW1 4181   3.307   1.115   2.359
 1393SOL    HW2 4182   3.175   1.211   2.351
 1394SOL     OW 4183   2.412   0.196   2.747
 1394SOL    HW1 4184   2.407   0.191   2.847
 1394SOL    HW2 4185   2.414   0.292   2.718
 1395SOL     OW 4186   2.870   1.456   2.339
 1395SOL    HW1 4187   2.824   1.528   2.287
 1395SOL    HW2 4188   2.866   1.476   2.437
 1396SOL     OW 4189   2.213   1.801   2.715
 1396SOL    HW1 4190   2.263   1.715   2.721
 1396SOL    HW2 4191   2.278   1.878   2.712
 1397SOL     OW 4192   3.657   1.066   2.735
 1397SOL    HW1 4193   3.595   1.051   2.659
 1397SOL    HW2 4194   3.605   1.077   2.820
 1398SOL     OW 4195   3.089   1.550   3.368
 1398SOL    HW1 4196   3.095   1.473   3.432
 1398SOL    HW2 4197   3.037   1.524   3.288
 1399SOL     OW 4198   2.183   0.943   2.104
 1399SOL    HW1 4199   2.265   0.982   2.062
 1399SOL    HW2 4200   2.156   0.861   2.055
 1400SOL     OW 4201   3.320   0.735   2.590
 1400SOL    HW1 4202   3.315   0.670   2.665
 1400SOL    HW2 4203   3.400   0.794   2.603
 1401SOL     OW 4204   2.323   1.266   3.589
 1401SOL    HW1 4205   2.273   1.267   3.503
 1401SOL    HW2 4206   2.260   1.248   3.665
 1402SOL     OW 4207   2.973   1.776   2.099
 1402SOL    HW1 4208   2.913   1.714   2.149
 1402SOL    HW2 4209   3.004   1.732   2.014
 1403SOL     OW 4210   2.064   0.285   3.360
 1403SOL    HW1 4211   1.984   0.345   3.347
 1403SOL    HW2 4212   2.054   0.236   3.446
 1404SOL     OW 4213   3.494   1.377   1.943
 1404SOL    HW1 4214   3.462   1.471   1.933
 1404SOL    HW2 4215   3.418   1.314   1.931
 1405SOL     OW 4216   2.326   1.743   2.185
 1405SOL    HW1 4217   2.359   1.782   2.271
 1405SOL    HW2 4218   2.402   1.736   2.120
 1406SOL     OW 4219   3.262   0.107   2.288
 1406SOL    HW1 4220   3.238   0.070   2.198
 1406SOL    HW2 4221   3.361   0.123   2.292
 1407SOL     OW 4222   2.111   1.785   3.103
 1407SOL    HW1 4223   2.168   1.720   3.153
 1407SOL    HW2 4224   2.095   1.752   3.010
 1408SOL     OW 4225   2.802   1.698   2.766
 1408SOL    HW1 4226   2.882   1.641   2.787
 1408SOL    HW2 4227   2.753   1.658   2.689
 1409SOL     OW 4228   2.244   0.700   2.342
 1409SOL    HW1 4229   2.289   0.610   2.339
 1409SOL    HW2 4230   2.150   0.689   2.375
 1410SOL     OW 4231   3.409   0.222   3.591
 1410SOL    HW1 4232   3.404   0.259   3.683
 1410SOL    HW2 4233   3.337   0.153   3.579
 1411SOL     OW 4234   2.476   0.122   1.979
 1411SOL    HW1 4235   2.574   0.100   1.986
 1411SOL    HW2 4236   2.445   0.105   1.886
 1412SOL     OW 4237   2.643   0.264   3.611
 1412SOL    HW1 4238   2.710   0.203   3.654
 1412SOL    HW2 4239   2.570   0.283   3.676
 1413SOL     OW 4240   2.750   1.514   3.057
 1413SOL    HW1 4241   2.727   1.489   2.963
 1413SOL    HW2 4242   2.811   1.445   3.096
 1414SOL     OW 4243   3.213   0.590   3.295
 1414SOL    HW1 4244   3.241   0.547   3.380
 1414SOL    HW2 4245   3.238   0.686   3.296
 1415SOL     OW 4246   2.665   1.402   2.786
 1415SOL    HW1 4247   2.755   1.416   2.744
 1415SOL    HW2 4248   2.594   1.404   2.715
 1416SOL     OW 4249   2.784   0.503   2.761
 1416SOL    HW1 4250   2.759   0.494   2.665
 1416SOL    HW2 4251   2.832   0.421   2.792
 1417SOL     OW 4252   2.401   0.064   2.374
 1417SOL    HW1 4253   2.320   0.065   2.432
 1417SOL    HW2 4254   2.404   0.147   2.319
 1418SOL     OW 4255   3.296   1.188   1.903
 1418SOL    HW1 4256   3.328   1.112   1.960
 1418SOL    HW2 4257   3.204   1.215   1.933
 1419SOL     OW 4258   2.159   0.035   2.033
 1419SOL    HW1 4259   2.208   0.119   2.012
 1419SOL    HW2 4260   2.221  -0.030   2.078
 1420SOL     OW 4261   2.797   0.236   2.342
 1420SOL    HW1 4262   2.749   0.277   2.264
 1420SOL    HW2 4263   2.896   0.234   2.323
 1421SOL     OW 4264   2.938   0.683   3.326
 1421SOL    HW1 4265   2.858   0.622   3.329
 1421SOL    HW2 4266   3.019   0.630   3.302
 1422SOL     OW 4267   3.089   1.570   2.655
 1422SOL    HW1 4268   3.110   1.644   2.590
 1422SOL    HW2 4269   3.157   1.570   2.728
 1423SOL     OW 4270   2.321   1.152   2.603
 1423SOL    HW1 4271   2.250   1.125   2.668
 1423SOL    HW2 4272   2.295   1.124   2.510
 1424SOL     OW 4273   3.133   1.797   2.453
 1424SOL    HW1 4274   3.177   1.861   2.389
 1424SOL    HW2 4275   3.083   1.849   2.523
 1425SOL     OW 4276   2.894   0.549   1.878
 1425SOL    HW1 4277   2.853   0.631   1.839
 1425SOL    HW2 4278   2.958   0.575   1.951
 1426SOL     OW 4279   1.940   0.556   3.248
 1426SOL    HW1 4280   2.032   0.555   3.207
 1426SOL    HW2 4281   1.934   0.630   3.315
 1427SOL     OW 4282   2.423   0.222   3.009
 1427SOL    HW1 4283   2.461   0.138   3.046
 1427SOL    HW2 4284   2.335   0.241   3.053
 1428SOL     OW 4285   2.728   0.454   2.504
 1428SOL    HW1 4286   2.696   0.526   2.442
 1428SOL    HW2 4287   2.752   0.373   2.451
 1429SOL     OW 4288   2.879   0.039   2.615
 1429SOL    HW1 4289   2.807   0.044   2.546
 1429SOL    HW2 4290   2.855  -0.030   2.684
 1430SOL     OW 4291   3.291   1.173   2.729
 1430SOL    HW1 4292   3.236   1.089   2.722
 1430SOL    HW2 4293   3.317   1.202   2.637
 1431SOL     OW 4294   3.328   0.590   2.854
 1431SOL    HW1 4295   3.298   0.495   2.861
 1431SOL    HW2 4296   3.401   0.606   2.920
 1432SOL     OW 4297   3.719   0.833   2.239
 1432SOL    HW1 4298   3.761   0.769   2.303
 1432SOL    HW2 4299   3.681   0.782   2.161
 1433SOL     OW 4300   2.350   1.385   2.036
 1433SOL    HW1 4301   2.263   1.370   2.083
 1433SOL    HW2 4302   2.333   1.411   1.941
 1434SOL     OW 4303   3.526   1.280   2.519
 1434SOL    HW1 4304   3.625   1.288   2.533
 1434SOL    HW2 4305   3.481   1.364   2.550
 1435SOL     OW 4306   3.252   0.575   1.940
 1435SOL    HW1 4307   3.198   0.554   2.021
 1435SOL    HW2 4308   3.343   0.534   1.949
 1436SOL     OW 4309   2.389   0.256   2.190
 1436SOL    HW1 4310   2.416   0.197   2.115
 1436SOL    HW2 4311   2.389   0.351   2.159
 1437SOL     OW 4312   3.616   1.223   3.450
 1437SOL    HW1 4313   3.707   1.184   3.437
 1437SOL    HW2 4314   3.624   1.319   3.474
 1438SOL     OW 4315   2.926   1.347   3.202
 1438SOL    HW1 4316   2.846   1.324   3.257
 1438SOL    HW2 4317   3.009   1.321   3.251
 1439SOL     OW 4318   3.454   1.629   3.487
 1439SOL    HW1 4319   3.481   1.663   3.397
 1439SOL    HW2 4320   3.533   1.591   3.533
 1440SOL     OW 4321   2.973   1.195   2.962
 1440SOL    HW1 4322   2.933   1.239   3.043
 1440SOL    HW2 4323   2.932   1.232   2.879
 1441SOL     OW 4324   3.500   1.099   2.941
 1441SOL    HW1 4325   3.505   1.180   3.000
 1441SOL    HW2 4326   3.414   1.101   2.890
 1442SOL     OW 4327   2.777   0.089   3.264
 1442SOL    HW1 4328   2.802   0.069   3.169
 1442SOL    HW2 4329   2.849   0.145   3.306
 1443SOL     OW 4330   2.842   1.116   3.581
 1443SOL    HW1 4331   2.743   1.122   3.591
 1443SOL    HW2 4332   2.865   1.036   3.525
 1444SOL     OW 4333   2.567   1.050   2.230
 1444SOL    HW1 4334   2.553   1.057   2.329
 1444SOL    HW2 4335   2.651   0.999   2.212
 1445SOL     OW 4336   2.272   0.813   3.113
 1445SOL    HW1 4337   2.358   0.825   3.163
 1445SOL    HW2 4338   2.230   0.726   3.140
 1446SOL     OW 4339   3.136   0.386   3.124
 1446SOL    HW1 4340   3.157   0.460   3.188
 1446SOL    HW2 4341   3.047   0.403   3.081
 1447SOL     OW 4342   1.926   1.564   3.193
 1447SOL    HW1 4343   1.880   1.646   3.159
 1447SOL    HW2 4344   2.024   1.583   3.202
 1448SOL     OW 4345   2.229   1.100   2.363
 1448SOL    HW1 4346   2.222   1.183   2.307
 1448SOL    HW2 4347   2.233   1.020   2.303
 1449SOL     OW 4348   2.428   0.537   2.727
 1449SOL    HW1 4349   2.440   0.603   2.653
 1449SOL    HW2 4350   2.474   0.571   2.810
 1450SOL     OW 4351   3.114   1.348   2.250
 1450SOL    HW1 4352   3.164   1.425   2.290
 1450SOL    HW2 4353   3.019   1.350   2.282
 1451SOL     OW 4354   3.134   1.445   3.004
 1451SOL    HW1 4355   3.181   1.458   3.091
 1451SOL    HW2 4356   3.068   1.371   3.013
 1452SOL     OW 4357   3.444   0.639   2.334
 1452SOL    HW1 4358   3.413   0.700   2.407
 1452SOL    HW2 4359   3.494   0.691   2.265
 1453SOL     OW 4360   2.216   1.510   3.191
 1453SOL    HW1 4361   2.195   1.466   3.104
 1453SOL    HW2 4362   2.313   1.536   3.194
 1454SOL     OW 4363   2.264   0.751   3.460
 1454SOL    HW1 4364   2.332   0.806   3.413
 1454SOL    HW2 4365   2.304   0.663   3.487
 1455SOL     OW 4366   3.449   0.779   3.532
 1455SOL    HW1 4367   3.357   0.817   3.527
 1455SOL    HW2 4368   3.509   0.826   3.467
 1456SOL     OW 4369   2.875   0.105   3.632
 1456SOL    HW1 4370   2.881   0.190   3.580
 1456SOL    HW2 4371   2.907   0.029   3.575
 1457SOL     OW 4372   2.366   0.050   3.602
 1457SOL    HW1 4373   2.324  -0.007   3.532
 1457SOL    HW2 4374   2.300   0.119   3.634
 1458SOL     OW 4375   2.435   0.870   2.891
 1458SOL    HW1 4376   2.479   0.959   2.882
 1458SOL    HW2 4377   2.372   0.870   2.968
 1459SOL     OW 4378   3.222   0.862   2.907
 1459SOL    HW1 4379   3.147   0.862   2.841
 1459SOL    HW2 4380   3.259   0.770   2.916
 1460SOL     OW 4381   3.071   0.525   2.137
 1460SOL    HW1 4382   3.084   0.441   2.191
 1460SOL    HW2 4383   3.042   0.599   2.197
 1461SOL     OW 4384   2.169   0.213   3.093
 1461SOL    HW1 4385   2.146   0.250   3.183
 1461SOL    HW2 4386   2.139   0.118   3.087
 1462SOL     OW 4387   1.899   1.310   3.144
 1462SOL    HW1 4388   1.952   1.261   3.212
 1462SOL    HW2 4389   1.921   1.408   3.149
 1463SOL     OW 4390   2.594   0.634   2.926
 1463SOL    HW1 4391   2.653   0.608   2.850
 1463SOL    HW2 4392   2.566   0.730   2.915
 1464SOL     OW 4393   3.590   0.935   3.716
 1464SOL    HW1 4394   3.544   0.928   3.627
 1464SOL    HW2 4395   3.528   0.979   3.782
 1465SOL     OW 4396   2.169   0.063   2.480
 1465SOL    HW1 4397   2.158   0.157   2.513
 1465SOL    HW2 4398   2.164   0.000   2.557
 1466SOL     OW 4399   3.484   0.367   2.236
 1466SOL    HW1 4400   3.486   0.291   2.300
 1466SOL    HW2 4401   3.436   0.444   2.276
 1467SOL     OW 4402   2.885   0.766   2.828
 1467SOL    HW1 4403   2.900   0.787   2.924
 1467SOL    HW2 4404   2.855   0.671   2.819
 1468SOL     OW 4405   2.842   1.573   3.562
 1468SOL    HW1 4406   2.822   1.617   3.474
 1468SOL    HW2 4407   2.881   1.482   3.546
 1469SOL     OW 4408   3.721   1.518   3.467
 1469SOL    HW1 4409   3.735   1.545   3.372
 1469SOL    HW2 4410   3.804   1.540   3.520
 1470SOL     OW 4411   2.212   0.898   3.666
 1470SOL    HW1 4412   2.288   0.942   3.714
 1470SOL    HW2 4413   2.247   0.851   3.584
 1471SOL     OW 4414   3.402   0.274   1.987
 1471SOL    HW1 4415   3.341   0.199   2.010
 1471SOL    HW2 4416   3.424   0.326   2.070
 1472SOL     OW 4417   3.165   0.838   1.904
 1472SOL    HW1 4418   3.199   0.745   1.919
 1472SOL    HW2 4419   3.183   0.865   1.809
 1473SOL     OW 4420   2.930   1.333   2.711
 1473SOL    HW1 4421   2.937   1.249   2.656
 1473SOL    HW2 4422   2.992   1.402   2.675
 1474SOL     OW 4423   2.181   0.810   2.811
 1474SOL    HW1 4424   2.274   0.846   2.816
 1474SOL    HW2 4425   2.175   0.725   2.863
 1475SOL     OW 4426   2.201   0.509   2.868
 1475SOL    HW1 4427   2.149   0.426   2.851
 1475SOL    HW2 4428   2.278   0.514   2.804
 1476SOL     OW 4429   3.000   0.380   3.540
 1476SOL    HW1 4430   2.955   0.443   3.604
 1476SOL    HW2 4431   3.093   0.411   3.523
 1477SOL     OW 4432   3.022   0.207   3.339
 1477SOL    HW1 4433   3.022   0.271   3.416
 1477SOL    HW2 4434   3.050   0.255   3.256
 1478SOL     OW 4435   1.870   1.326   2.062
 1478SOL    HW1 4436   1.777   1.347   2.031
 1478SOL    HW2 4437   1.880   1.227   2.075
 1479SOL     OW 4438   1.950   1.801   2.789
 1479SOL    HW1 4439   1.908   1.715   2.762
 1479SOL    HW2 4440   2.044   1.804   2.755
 1480SOL     OW 4441   2.366   1.568   2.772
 1480SOL    HW1 4442   2.432   1.642   2.781
 1480SOL    HW2 4443   2.410   1.489   2.730
 1481SOL     OW 4444   2.864   0.796   3.100
 1481SOL    HW1 4445   2.905   0.764   3.186
 1481SOL    HW2 4446   2.768   0.769   3.097
 1482SOL     OW 4447   1.902   0.544   2.976
 1482SOL    HW1 4448   1.987   0.511   2.935
 1482SOL    HW2 4449   1.915   0.559   3.074
 1483SOL     OW 4450   2.051   0.520   3.584
 1483SOL    HW1 4451   2.110   0.480   3.514
 1483SOL    HW2 4452   1.993   0.591   3.543
 1484SOL     OW 4453   3.231   0.950   3.522
 1484SOL    HW1 4454   3.270   1.039   3.542
 1484SOL    HW2 4455   3.241   0.930   3.425
 1485SOL     OW 4456   2.677   0.572   2.187
 1485SOL    HW1 4457   2.684   0.483   2.141
 1485SOL    HW2 4458   2.583   0.606   2.179
 1486SOL     OW 4459   3.519   0.604   3.068
 1486SOL    HW1 4460   3.481   0.535   3.130
 1486SOL    HW2 4461   3.601   0.568   3.024
 1487SOL     OW 4462   2.114   1.564   3.606
 1487SOL    HW1 4463   2.084   1.621   3.682
 1487SOL    HW2 4464   2.107   1.467   3.632
 1488SOL     OW 4465   2.533   0.464   3.131
 1488SOL    HW1 4466   2.499   0.375   3.101
 1488SOL    HW2 4467   2.559   0.518   3.051
 1489SOL     OW 4468   2.792   1.678   3.327
 1489SOL    HW1 4469   2.768   1.660   3.232
 1489SOL    HW2 4470   2.822   1.772   3.337
 1490SOL     OW 4471   2.335   0.500   2.053
 1490SOL    HW1 4472   2.396   0.580   2.057
 1490SOL    HW2 4473   2.240   0.531   2.060
 1491SOL     OW 4474   2.021   1.137   3.328
 1491SOL    HW1 4475   2.043   1.076   3.404
 1491SOL    HW2 4476   2.031   1.088   3.242
 1492SOL     OW 4477   3.209   1.059   3.096
 1492SOL    HW1 4478   3.233   0.996   3.022
 1492SOL    HW2 4479   3.119   1.099   3.078
 1493SOL     OW 4480   3.164   0.855   2.171
 1493SOL    HW1 4481   3.078   0.824   2.213
 1493SOL    HW2 4482   3.160   0.841   2.072
 1494SOL     OW 4483   3.621   1.747   3.016
 1494SOL    HW1 4484   3.682   1.777   2.943
 1494SOL    HW2 4485   3.583   1.658   2.994
 1495SOL     OW 4486   3.114   1.731   2.990
 1495SOL    HW1 4487   3.198   1.736   2.936
 1495SOL    HW2 4488   3.091   1.635   3.008
 1496SOL     OW 4489   1.945   1.258   2.884
 1496SOL    HW1 4490   1.940   1.257   2.984
 1496SOL    HW2 4491   1.862   1.217   2.846
 1497SOL     OW 4492   2.550   1.662   3.578
 1497SOL    HW1 4493   2.494   1.743   3.587
 1497SOL    HW2 4494   2.602   1.666   3.492
 1498SOL     OW 4495   3.588   0.135   2.385
 1498SOL    HW1 4496   3.661   0.118   2.318
 1498SOL    HW2 4497   3.557   0.048   2.423
 1499SOL     OW 4498   3.250   1.573   2.339
 1499SOL    HW1 4499   3.317   1.585   2.265
 1499SOL    HW2 4500   3.210   1.662   2.362
 1500SOL     OW 4501   1.992   1.794   3.713
 1500SOL    HW1 4502   1.951   1.720   3.766
 1500SOL    HW2 4503   2.056   1.845   3.771
 1501SOL     OW 4504   3.142   0.927   2.534
 1501SOL    HW1 4505   3.202   0.846   2.536
 1501SOL    HW2 4506   3.182   0.996   2.474
 1502SOL     OW 4507   2.692   1.273   3.284
 1502SOL    HW1 4508   2.687   1.306   3.379
 1502SOL    HW2 4509   2.606   1.292   3.238
 1503SOL     OW 4510   2.534   1.616   2.016
 1503SOL    HW1 4511   2.543   1.626   1.917
 1503SOL    HW2 4512   2.494   1.527   2.037
 1504SOL     OW 4513   3.512   1.720   3.256
 1504SOL    HW1 4514   3.565   1.730   3.172
 1504SOL    HW2 4515   3.485   1.810   3.290
 1505SOL     OW 4516   3.703   0.175   2.825
 1505SOL    HW1 4517   3.742   0.090   2.789
 1505SOL    HW2 4518   3.605   0.177   2.806
 1506SOL     OW 4519   2.125   0.326   2.582
 1506SOL    HW1 4520   2.046   0.377   2.548
 1506SOL    HW2 4521   2.116   0.311   2.680
 1507SOL     OW 4522   3.056   1.612   1.893
 1507SOL    HW1 4523   3.062   1.519   1.930
 1507SOL    HW2 4524   2.997   1.612   1.813
 1508SOL     OW 4525   2.684   1.002   3.234
 1508SOL    HW1 4526   2.724   1.001   3.142
 1508SOL    HW2 4527   2.694   1.094   3.274
 1509SOL     OW 4528   2.778   0.910   2.153
 1509SOL    HW1 4529   2.841   0.948   2.085
 1509SOL    HW2 4530   2.818   0.827   2.192
 1510SOL     OW 4531   3.366   1.607   1.906
 1510SOL    HW1 4532   3.274   1.644   1.913
 1510SOL    HW2 4533   3.404   1.627   1.816
 1511SOL     OW 4534   2.234   1.288   3.352
 1511SOL    HW1 4535   2.221   1.381   3.318
 1511SOL    HW2 4536   2.150   1.236   3.339
 1512SOL     OW 4537   3.476   1.292   3.151
 1512SOL    HW1 4538   3.536   1.295   3.231
 1512SOL    HW2 4539   3.401   1.356   3.164
 1513SOL     OW 4540   2.901   1.098   2.558
 1513SOL    HW1 4541   2.831   1.051   2.612
 1513SOL    HW2 4542   2.960   1.030   2.515
 1514SOL     OW 4543   2.876   0.236   2.833
 1514SOL    HW1 4544   2.868   0.200   2.740
 1514SOL    HW2 4545   2.874   0.160   2.898
 1515SOL     OW 4546   2.452   1.487   2.353
 1515SOL    HW1 4547   2.494   1.429   2.283
 1515SOL    HW2 4548   2.408   1.566   2.309
 1516SOL     OW 4549   3.571   0.385   3.243
 1516SOL    HW1 4550   3.644   0.454   3.247
 1516SOL    HW2 4551   3.599   0.310   3.184
 1517SOL     OW 4552   2.117   1.348   2.152
 1517SOL    HW1 4553   2.021   1.349   2.125
 1517SOL    HW2 4554   2.129   1.401   2.236
 1518SOL     OW 4555   1.967   1.013   3.588
 1518SOL    HW1 4556   1.890   0.980   3.642
 1518SOL    HW2 4557   2.052   0.983   3.630
 1519SOL     OW 4558   2.534   0.203   3.351
 1519SOL    HW1 4559   2.624   0.187   3.311
 1519SOL    HW2 4560   2.542   0.208   3.450
 1520SOL     OW 4561   1.937   0.345   1.895
 1520SOL    HW1 4562   1.845   0.317   1.866
 1520SOL    HW2 4563   1.968   0.422   1.839
 1521SOL     OW 4564   3.302   0.856   3.260
 1521SOL    HW1 4565   3.245   0.908   3.197
 1521SOL    HW2 4566   3.398   0.868   3.236
 1522SOL     OW 4567   1.934   0.166   2.180
 1522SOL    HW1 4568   1.917   0.249   2.126
 1522SOL    HW2 4569   2.024   0.129   2.158
 1523SOL     OW 4570   3.045   1.335   1.981
 1523SOL    HW1 4571   2.946   1.324   1.983
 1523SOL    HW2 4572   3.079   1.350   2.074
 1524SOL     OW 4573   2.475   0.842   3.293
 1524SOL    HW1 4574   2.531   0.923   3.276
 1524SOL    HW2 4575   2.534   0.762   3.296
 1525SOL     OW 4576   3.355   1.767   2.821
 1525SOL    HW1 4577   3.388   1.831   2.752
 1525SOL    HW2 4578   3.421   1.761   2.896
 1526SOL     OW 4579   2.578   0.565   3.570
 1526SOL    HW1 4580   2.597   0.630   3.644
 1526SOL    HW2 4581   2.638   0.485   3.579
 1527SOL     OW 4582   3.312   1.220   3.495
 1527SOL    HW1 4583   3.303   1.210   3.594
 1527SOL    HW2 4584   3.408   1.213   3.469
 1528SOL     OW 4585   2.252   1.741   3.422
 1528SOL    HW1 4586   2.161   1.782   3.420
 1528SOL    HW2 4587   2.245   1.647   3.454
 1529SOL     OW 4588   3.536   0.883   3.116
 1529SOL    HW1 4589   3.509   0.794   3.079
 1529SOL    HW2 4590   3.537   0.951   3.043
 1530SOL     OW 4591   3.087   0.325   2.311
 1530SOL    HW1 4592   3.152   0.251   2.300
 1530SOL    HW2 4593   3.107   0.375   2.395
 1531SOL     OW 4594   2.456   0.745   2.514
 1531SOL    HW1 4595   2.506   0.830   2.495
 1531SOL    HW2 4596   2.368   0.747   2.466
 1532SOL     OW 4597   3.639   0.342   3.504
 1532SOL    HW1 4598   3.622   0.373   3.410
 1532SOL    HW2 4599   3.555   0.305   3.542
 1533SOL     OW 4600   3.592   0.934   3.379
 1533SOL    HW1 4601   3.630   1.025   3.394
 1533SOL    HW2 4602   3.584   0.917   3.280
 1534SOL     OW 4603   2.721   1.374   1.878
 1534SOL    HW1 4604   2.675   1.389   1.966
 1534SOL    HW2 4605   2.765   1.459   1.848
 1535SOL     OW 4606   2.523   1.790   2.815
 1535SOL    HW1 4607   2.477   1.878   2.802
 1535SOL    HW2 4608   2.622   1.802   2.808
 1536SOL     OW 4609   2.721   0.956   2.723
 1536SOL    HW1 4610   2.775   0.887   2.771
 1536SOL    HW2 4611   2.689   1.025   2.789
 1537SOL     OW 4612   2.945   0.984   1.949
 1537SOL    HW1 4613   2.922   1.037   1.867
 1537SOL    HW2 4614   3.026   0.928   1.930
 1538SOL     OW 4615   3.723   1.569   2.713
 1538SOL    HW1 4616   3.652   1.557   2.643
 1538SOL    HW2 4617   3.724   1.490   2.773
 1539SOL     OW 4618   2.083   1.314   3.706
 1539SOL    HW1 4619   2.018   1.241   3.685
 1539SOL    HW2 4620   2.087   1.328   3.804
 1540SOL     OW 4621   1.941   1.240   2.515
 1540SOL    HW1 4622   1.940   1.193   2.603
 1540SOL    HW2 4623   2.023   1.212   2.464
 1541SOL     OW 4624   2.534   1.391   3.486
 1541SOL    HW1 4625   2.456   1.341   3.524
 1541SOL    HW2 4626   2.531   1.486   3.517
 1542SOL     OW 4627   3.686   0.192   3.089
 1542SOL    HW1 4628   3.682   0.102   3.133
 1542SOL    HW2 4629   3.689   0.181   2.990
 1543SOL     OW 4630   2.290   0.424   2.382
 1543SOL    HW1 4631   2.320   0.352   2.320
 1543SOL    HW2 4632   2.251   0.384   2.465
 1544SOL     OW 4633   3.567   1.487   2.966
 1544SOL    HW1 4634   3.474   1.462   2.939
 1544SOL    HW2 4635   3.593   1.437   3.048
 1545SOL     OW 4636   2.179   0.547   3.142
 1545SOL    HW1 4637   2.217   0.488   3.214
 1545SOL    HW2 4638   2.219   0.521   3.054
 1546SOL     OW 4639   2.674   1.586   2.549
 1546SOL    HW1 4640   2.706   1.596   2.455
 1546SOL    HW2 4641   2.595   1.524   2.551
 1547SOL     OW 4642   3.286   0.214   2.974
 1547SOL    HW1 4643   3.338   0.149   3.029
 1547SOL    HW2 4644   3.237   0.277   3.035
 1548SOL     OW 4645   2.863   0.034   3.016
 1548SOL    HW1 4646   2.800  -0.038   2.985
 1548SOL    HW2 4647   2.956  -0.002   3.016
 1549SOL     OW 4648   2.632   1.330   2.163
 1549SOL    HW1 4649   2.586   1.243   2.180
 1549SOL    HW2 4650   2.723   1.327   2.204
 1550SOL     OW 4651   2.480   1.567   3.146
 1550SOL    HW1 4652   2.475   1.649   3.203
 1550SOL    HW2 4653   2.569   1.564   3.101
 1551SOL     OW 4654   3.214   0.052   2.030
 1551SOL    HW1 4655   3.249   0.011   1.946
 1551SOL    HW2 4656   3.124   0.014   2.050
 1552SOL     OW 4657   3.162   0.453   2.553
 1552SOL    HW1 4658   3.103   0.533   2.557
 1552SOL    HW2 4659   3.177   0.418   2.646
 1553SOL     OW 4660   3.455   0.221   2.744
 1553SOL    HW1 4661   3.371   0.220   2.798
 1553SOL    HW2 4662   3.457   0.304   2.688
 1554SOL     OW 4663   1.901   1.077   2.162
 1554SOL    HW1 4664   2.000   1.066   2.153
 1554SOL    HW2 4665   1.861   0.991   2.194
 1555SOL     OW 4666   2.737   1.646   2.199
 1555SOL    HW1 4667   2.660   1.611   2.145
 1555SOL    HW2 4668   2.705   1.717   2.261
 1556SOL     OW 4669   2.092   0.628   3.837
 1556SOL    HW1 4670   1.999   0.626   3.874
 1556SOL    HW2 4671   2.093   0.589   3.745
 1557SOL     OW 4672   3.617   0.607   3.955
 1557SOL    HW1 4673   3.605   0.594   3.856
 1557SOL    HW2 4674   3.587   0.526   4.004
 1558SOL     OW 4675   2.093   1.713   4.207
 1558SOL    HW1 4676   2.127   1.790   4.261
 1558SOL    HW2 4677   2.137   1.713   4.117
 1559SOL     OW 4678   2.092   1.434   4.262
 1559SOL    HW1 4679   2.066   1.530   4.262
 1559SOL    HW2 4680   2.021   1.380   4.307
 1560SOL     OW 4681   2.468   0.964   3.847
 1560SOL    HW1 4682   2.475   1.048   3.793
 1560SOL    HW2 4683   2.514   0.977   3.935
 1561SOL     OW 4684   3.704   1.767   4.083
 1561SOL    HW1 4685   3.758   1.738   4.163
 1561SOL    HW2 4686   3.734   1.857   4.054
 1562SOL     OW 4687   1.889   1.596   3.841
 1562SOL    HW1 4688   1.870   1.500   3.862
 1562SOL    HW2 4689   1.856   1.654   3.916
 1563SOL     OW 4690   3.551   0.922   4.336
 1563SOL    HW1 4691   3.646   0.893   4.344
 1563SOL    HW2 4692   3.543   0.987   4.261
 1564SOL     OW 4693   3.503   1.108   4.156
 1564SOL    HW1 4694   3.589   1.110   4.104
 1564SOL    HW2 4695   3.517   1.155   4.244
 1565SOL     OW 4696   2.671   0.004   4.226
 1565SOL    HW1 4697   2.711   0.095   4.217
 1565SOL    HW2 4698   2.571   0.012   4.232
 1566SOL     OW 4699   3.387   0.999   3.914
 1566SOL    HW1 4700   3.324   0.923   3.927
 1566SOL    HW2 4701   3.435   1.017   4.000
 1567SOL     OW 4702   2.460   0.729   3.994
 1567SOL    HW1 4703   2.484   0.798   3.926
 1567SOL    HW2 4704   2.382   0.762   4.048
 1568SOL     OW 4705   3.438   1.662   4.031
 1568SOL    HW1 4706   3.527   1.708   4.034
 1568SOL    HW2 4707   3.417   1.638   3.936
 1569SOL     OW 4708   2.727   0.348   3.919
 1569SOL    HW1 4709   2.786   0.411   3.870
 1569SOL    HW2 4710   2.746   0.254   3.890
 1570SOL     OW 4711   2.183   0.943   3.966
 1570SOL    HW1 4712   2.265   0.982   3.924
 1570SOL    HW2 4713   2.156   0.861   3.917
 1571SOL     OW 4714   2.973   1.776   3.961
 1571SOL    HW1 4715   2.913   1.714   4.011
 1571SOL    HW2 4716   3.004   1.732   3.876
 1572SOL     OW 4717   3.494   1.377   3.805
 1572SOL    HW1 4718   3.462   1.471   3.795
 1572SOL    HW2 4719   3.418   1.314   3.793
 1573SOL     OW 4720   2.326   1.743   4.047
 1573SOL    HW1 4721   2.359   1.782   4.133
 1573SOL    HW2 4722   2.402   1.736   3.982
 1574SOL     OW 4723   3.262   0.107   4.150
 1574SOL    HW1 4724   3.238   0.070   4.060
 1574SOL    HW2 4725   3.361   0.123   4.154
 1575SOL     OW 4726   2.244   0.700   4.204
 1575SOL    HW1 4727   2.289   0.610   4.201
 1575SOL    HW2 4728   2.150   0.689   4.237
 1576SOL     OW 4729   2.476   0.122   3.841
 1576SOL    HW1 4730   2.574   0.100   3.848
 1576SOL    HW2 4731   2.445   0.105   3.748
 1577SOL     OW 4732   3.296   1.188   3.765
 1577SOL    HW1 4733   3.328   1.112   3.822
 1577SOL    HW2 4734   3.204   1.215   3.795
 1578SOL     OW 4735   2.159   0.035   3.895
 1578SOL    HW1 4736   2.208   0.119   3.874
 1578SOL    HW2 4737   2.221  -0.030   3.940
 1579SOL     OW 4738   2.797   0.236   4.204
 1579SOL    HW1 4739   2.749   0.277   4.126
 1579SOL    HW2 4740   2.896   0.234   4.185
 1580SOL     OW 4741   2.321   1.152   4.465
 1580SOL    HW1 4742   2.250   1.125   4.530
 1580SOL    HW2 4743   2.295   1.124   4.372
 1581SOL     OW 4744   2.894   0.549   3.740
 1581SOL    HW1 4745   2.853   0.631   3.701
 1581SOL    HW2 4746   2.958   0.575   3.813
 1582SOL     OW 4747   3.719   0.833   4.101
 1582SOL    HW1 4748   3.761   0.769   4.165
 1582SOL    HW2 4749   3.681   0.782   4.023
 1583SOL     OW 4750   2.350   1.385   3.898
 1583SOL    HW1 4751   2.263   1.370   3.945
 1583SOL    HW2 4752   2.333   1.411   3.803
 1584SOL     OW 4753   3.252   0.575   3.802
 1584SOL    HW1 4754   3.198   0.554   3.883
 1584SOL    HW2 4755   3.343   0.534   3.811
 1585SOL     OW 4756   2.389   0.256   4.052
 1585SOL    HW1 4757   2.416   0.197   3.977
 1585SOL    HW2 4758   2.389   0.351   4.021
 1586SOL     OW 4759   2.567   1.050   4.092
 1586SOL    HW1 4760   2.553   1.057   4.191
 1586SOL    HW2 4761   2.651   0.999   4.074
 1587SOL     OW 4762   2.229   1.100   4.225
 1587SOL    HW1 4763   2.222   1.183   4.169
 1587SOL    HW2 4764   2.233   1.020   4.165
 1588SOL     OW 4765   3.114   1.348   4.112
 1588SOL    HW1 4766   3.164   1.425   4.152
 1588SOL    HW2 4767   3.019   1.350   4.144
 1589SOL     OW 4768   3.444   0.639   4.196
 1589SOL    HW1 4769   3.413   0.700   4.269
 1589SOL    HW2 4770   3.494   0.691   4.127
 1590SOL     OW 4771   3.071   0.525   3.999
 1590SOL    HW1 4772   3.084   0.441   4.053
 1590SOL    HW2 4773   3.042   0.599   4.059
 1591SOL     OW 4774   3.484   0.367   4.098
 1591SOL    HW1 4775   3.486   0.291   4.162
 1591SOL    HW2 4776   3.436   0.444   4.138
 1592SOL     OW 4777   3.402   0.274   3.849
 1592SOL    HW1 4778   3.341   0.199   3.872
 1592SOL    HW2 4779   3.424   0.326   3.932
 1593SOL     OW 4780   3.165   0.838   3.766
 1593SOL    HW1 4781   3.199   0.745   3.781
 1593SOL    HW2 4782   3.183   0.865   3.671
 1594SOL     OW 4783   1.870   1.326   3.924
 1594SOL    HW1 4784   1.777   1.347   3.893
 1594SOL    HW2 4785   1.880   1.227   3.937
 1595SOL     OW 4786   2.677   0.572   4.049
 1595SOL    HW1 4787   2.684   0.483   4.003
 1595SOL    HW2 4788   2.583   0.606   4.041
 1596SOL     OW 4789   2.335   0.500   3.915
 1596SOL    HW1 4790   2.396   0.580   3.919
 1596SOL    HW2 4791   2.240   0.531   3.922
 1597SOL     OW 4792   3.164   0.855   4.033
 1597SOL    HW1 4793   3.078   0.824   4.075
 1597SOL    HW2 4794   3.160   0.841   3.934
 1598SOL     OW 4795   3.588   0.135   4.247
 1598SOL    HW1 4796   3.661   0.118   4.180
 1598SOL    HW2 4797   3.557   0.048   4.285
 1599SOL     OW 4798   3.250   1.573   4.201
 1599SOL    HW1 4799   3.317   1.585   4.127
 1599SOL    HW2 4800   3.210   1.662   4.224
 1600SOL     OW 4801   2.534   1.616   3.878
 1600SOL    HW1 4802   2.543   1.626   3.779
 1600SOL    HW2 4803   2.494   1.527   3.899
 1601SOL     OW 4804   3.056   1.612   3.755
 1601SOL    HW1 4805   3.062   1.519   3.792
 1601SOL    HW2 4806   2.997   1.612   3.675
 1602SOL     OW 4807   2.778   0.910   4.015
 1602SOL    HW1 4808   2.841   0.948   3.947
 1602SOL    HW2 4809   2.818   0.827   4.054
 1603SOL     OW 4810   3.366   1.607   3.768
 1603SOL    HW1 4811   3.274   1.644   3.775
 1603SOL    HW2 4812   3.404   1.627   3.678
 1604SOL     OW 4813   2.452   1.487   4.215
 1604SOL    HW1 4814   2.494   1.429   4.145
 1604SOL    HW2 4815   2.408   1.566   4.171
 1605SOL     OW 4816   2.117   1.348   4.014
 1605SOL    HW1 4817   2.021   1.349   3.987
 1605SOL    HW2 4818   2.129   1.401   4.098
 1606SOL     OW 4819   1.937   0.345   3.757
 1606SOL    HW1 4820   1.845   0.317   3.728
 1606SOL    HW2 4821   1.968   0.422   3.701
 1607SOL     OW 4822   1.934   0.166   4.042
 1607SOL    HW1 4823   1.917   0.249   3.988
 1607SOL    HW2 4824   2.024   0.129   4.020
 1608SOL     OW 4825   3.045   1.335   3.843
 1608SOL    HW1 4826   2.946   1.324   3.845
 1608SOL    HW2 4827   3.079   1.350   3.936
 1609SOL     OW 4828   3.087   0.325   4.173
 1609SOL    HW1 4829   3.152   0.251   4.162
 1609SOL    HW2 4830   3.107   0.375   4.257
 1610SOL     OW 4831   2.721   1.374   3.740
 1610SOL    HW1 4832   2.675   1.389   3.828
 1610SOL    HW2 4833   2.765   1.459   3.710
 1611SOL     OW 4834   2.945   0.984   3.811
 1611SOL    HW1 4835   2.922   1.037   3.729
 1611SOL    HW2 4836   3.026   0.928   3.792
 1612SOL     OW 4837   2.290   0.424   4.244
 1612SOL    HW1 4838   2.320   0.352   4.182
 1612SOL    HW2 4839   2.251   0.384   4.327
 1613SOL     OW 4840   2.632   1.330   4.025
 1613SOL    HW1 4841   2.586   1.243   4.042
 1613SOL    HW2 4842   2.723   1.327   4.066
 1614SOL     OW 4843   3.214   0.052   3.892
 1614SOL    HW1 4844   3.249   0.011   3.808
 1614SOL    HW2 4845   3.124   0.014   3.912
 1615SOL     OW 4846   1.901   1.077   4.024
 1615SOL    HW1 4847   2.000   1.066   4.015
 1615SOL    HW2 4848   1.861   0.991   4.056
 1616SOL     OW 4849   2.737   1.646   4.061
 1616SOL    HW1 4850   2.660   1.611   4.007
 1616SOL    HW2 4851   2.705   1.717   4.123
 1617SOL     OW 4852   2.092   2.490   0.113
 1617SOL    HW1 4853   1.999   2.488   0.150
 1617SOL    HW2 4854   2.093   2.451   0.021
 1618SOL     OW 4855   2.087   2.137   0.996
 1618SOL    HW1 4856   2.122   2.120   1.088
 1618SOL    HW2 4857   1.999   2.092   0.984
 1619SOL     OW 4858   1.881   2.230   0.647
 1619SOL    HW1 4859   1.799   2.273   0.686
 1619SOL    HW2 4860   1.853   2.157   0.584
 1620SOL     OW 4861   2.431   3.137   1.165
 1620SOL    HW1 4862   2.338   3.130   1.128
 1620SOL    HW2 4863   2.442   3.226   1.209
 1621SOL     OW 4864   3.417   3.373   0.703
 1621SOL    HW1 4865   3.360   3.357   0.784
 1621SOL    HW2 4866   3.358   3.383   0.623
 1622SOL     OW 4867   2.997   2.565   0.717
 1622SOL    HW1 4868   3.054   2.643   0.692
 1622SOL    HW2 4869   2.937   2.591   0.793
 1623SOL     OW 4870   3.617   2.469   0.231
 1623SOL    HW1 4871   3.605   2.456   0.132
 1623SOL    HW2 4872   3.587   2.388   0.280
 1624SOL     OW 4873   2.630   3.006   1.023
 1624SOL    HW1 4874   2.552   3.023   1.083
 1624SOL    HW2 4875   2.664   3.093   0.987
 1625SOL     OW 4876   2.712   2.660   1.823
 1625SOL    HW1 4877   2.708   2.736   1.888
 1625SOL    HW2 4878   2.734   2.696   1.732
 1626SOL     OW 4879   2.547   2.874   0.665
 1626SOL    HW1 4880   2.616   2.858   0.735
 1626SOL    HW2 4881   2.474   2.931   0.703
 1627SOL     OW 4882   2.548   3.023   1.803
 1627SOL    HW1 4883   2.608   3.102   1.817
 1627SOL    HW2 4884   2.462   3.054   1.762
 1628SOL     OW 4885   2.197   3.297   1.061
 1628SOL    HW1 4886   2.119   3.266   1.008
 1628SOL    HW2 4887   2.255   3.355   1.004
 1629SOL     OW 4888   3.322   3.367   1.339
 1629SOL    HW1 4889   3.346   3.461   1.365
 1629SOL    HW2 4890   3.306   3.313   1.421
 1630SOL     OW 4891   2.300   2.254   1.499
 1630SOL    HW1 4892   2.382   2.198   1.508
 1630SOL    HW2 4893   2.219   2.196   1.503
 1631SOL     OW 4894   3.465   2.309   0.737
 1631SOL    HW1 4895   3.391   2.355   0.687
 1631SOL    HW2 4896   3.516   2.377   0.790
 1632SOL     OW 4897   2.093   3.575   0.483
 1632SOL    HW1 4898   2.127   3.652   0.537
 1632SOL    HW2 4899   2.137   3.575   0.393
 1633SOL     OW 4900   2.989   3.203   1.690
 1633SOL    HW1 4901   3.036   3.203   1.778
 1633SOL    HW2 4902   2.941   3.116   1.679
 1634SOL     OW 4903   2.092   3.296   0.538
 1634SOL    HW1 4904   2.066   3.392   0.538
 1634SOL    HW2 4905   2.021   3.242   0.583
 1635SOL     OW 4906   2.102   2.953   0.886
 1635SOL    HW1 4907   2.116   2.869   0.938
 1635SOL    HW2 4908   2.047   3.017   0.941
 1636SOL     OW 4909   2.482   3.648   1.439
 1636SOL    HW1 4910   2.390   3.631   1.474
 1636SOL    HW2 4911   2.510   3.740   1.465
 1637SOL     OW 4912   2.468   2.826   0.123
 1637SOL    HW1 4913   2.475   2.910   0.069
 1637SOL    HW2 4914   2.514   2.839   0.211
 1638SOL     OW 4915   3.456   1.976   1.480
 1638SOL    HW1 4916   3.438   2.043   1.408
 1638SOL    HW2 4917   3.453   2.022   1.569
 1639SOL     OW 4918   1.984   2.505   0.563
 1639SOL    HW1 4919   1.939   2.417   0.580
 1639SOL    HW2 4920   1.983   2.559   0.647
 1640SOL     OW 4921   3.704   3.629   0.359
 1640SOL    HW1 4922   3.758   3.600   0.439
 1640SOL    HW2 4923   3.734   3.719   0.330
 1641SOL     OW 4924   1.889   3.458   0.117
 1641SOL    HW1 4925   1.870   3.362   0.138
 1641SOL    HW2 4926   1.856   3.516   0.192
 1642SOL     OW 4927   3.551   2.784   0.612
 1642SOL    HW1 4928   3.646   2.755   0.620
 1642SOL    HW2 4929   3.543   2.849   0.537
 1643SOL     OW 4930   3.503   2.970   0.432
 1643SOL    HW1 4931   3.589   2.972   0.380
 1643SOL    HW2 4932   3.517   3.017   0.520
 1644SOL     OW 4933   1.975   2.599   1.597
 1644SOL    HW1 4934   2.063   2.586   1.642
 1644SOL    HW2 4935   1.962   2.696   1.575
 1645SOL     OW 4936   2.475   3.227   0.726
 1645SOL    HW1 4937   2.426   3.140   0.735
 1645SOL    HW2 4938   2.452   3.270   0.639
 1646SOL     OW 4939   3.155   3.090   1.423
 1646SOL    HW1 4940   3.192   3.017   1.365
 1646SOL    HW2 4941   3.207   3.095   1.508
 1647SOL     OW 4942   2.671   1.866   0.502
 1647SOL    HW1 4943   2.711   1.957   0.493
 1647SOL    HW2 4944   2.571   1.874   0.508
 1648SOL     OW 4945   2.059   2.838   1.264
 1648SOL    HW1 4946   2.148   2.793   1.250
 1648SOL    HW2 4947   1.986   2.773   1.245
 1649SOL     OW 4948   3.387   2.861   0.190
 1649SOL    HW1 4949   3.324   2.785   0.203
 1649SOL    HW2 4950   3.435   2.879   0.276
 1650SOL     OW 4951   3.049   3.654   1.616
 1650SOL    HW1 4952   3.073   3.714   1.540
 1650SOL    HW2 4953   3.056   3.559   1.586
 1651SOL     OW 4954   2.179   2.113   1.801
 1651SOL    HW1 4955   2.250   2.184   1.807
 1651SOL    HW2 4956   2.091   2.152   1.829
 1652SOL     OW 4957   3.328   3.279   0.953
 1652SOL    HW1 4958   3.269   3.285   1.033
 1652SOL    HW2 4959   3.313   3.191   0.907
 1653SOL     OW 4960   3.529   3.576   0.572
 1653SOL    HW1 4961   3.488   3.553   0.484
 1653SOL    HW2 4962   3.511   3.502   0.637
 1654SOL     OW 4963   2.460   2.591   0.270
 1654SOL    HW1 4964   2.484   2.660   0.202
 1654SOL    HW2 4965   2.382   2.624   0.324
 1655SOL     OW 4966   3.143   2.207   0.944
 1655SOL    HW1 4967   3.057   2.157   0.931
 1655SOL    HW2 4968   3.205   2.153   1.000
 1656SOL     OW 4969   3.438   3.524   0.307
 1656SOL    HW1 4970   3.527   3.570   0.310
 1656SOL    HW2 4971   3.417   3.500   0.212
 1657SOL     OW 4972   2.669   2.467   1.465
 1657SOL    HW1 4973   2.622   2.464   1.554
 1657SOL    HW2 4974   2.618   2.412   1.399
 1658SOL     OW 4975   3.256   2.331   1.674
 1658SOL    HW1 4976   3.236   2.374   1.762
 1658SOL    HW2 4977   3.334   2.269   1.683
 1659SOL     OW 4978   2.835   2.752   1.572
 1659SOL    HW1 4979   2.881   2.668   1.543
 1659SOL    HW2 4980   2.779   2.786   1.497
 1660SOL     OW 4981   2.853   2.272   1.242
 1660SOL    HW1 4982   2.776   2.306   1.296
 1660SOL    HW2 4983   2.819   2.221   1.163
 1661SOL     OW 4984   2.903   2.563   0.429
 1661SOL    HW1 4985   2.929   2.559   0.525
 1661SOL    HW2 4986   2.818   2.512   0.415
 1662SOL     OW 4987   1.938   2.673   0.789
 1662SOL    HW1 4988   2.037   2.661   0.798
 1662SOL    HW2 4989   1.914   2.768   0.810
 1663SOL     OW 4990   1.992   3.683   1.571
 1663SOL    HW1 4991   1.982   3.668   1.670
 1663SOL    HW2 4992   1.906   3.719   1.535
 1664SOL     OW 4993   2.727   2.210   0.195
 1664SOL    HW1 4994   2.786   2.273   0.146
 1664SOL    HW2 4995   2.746   2.116   0.166
 1665SOL     OW 4996   3.581   2.447   1.831
 1665SOL    HW1 4997   3.555   2.536   1.795
 1665SOL    HW2 4998   3.579   2.379   1.758
 1666SOL     OW 4999   3.224   3.006   0.545
 1666SOL    HW1 5000   3.307   2.977   0.497
 1666SOL    HW2 5001   3.175   3.073   0.489
 1667SOL     OW 5002   2.412   2.058   0.885
 1667SOL    HW1 5003   2.407   2.053   0.985
 1667SOL    HW2 5004   2.414   2.154   0.856
 1668SOL     OW 5005   2.870   3.318   0.477
 1668SOL    HW1 5006   2.824   3.390   0.425
 1668SOL    HW2 5007   2.866   3.338   0.575
 1669SOL     OW 5008   2.213   3.663   0.853
 1669SOL    HW1 5009   2.263   3.577   0.859
 1669SOL    HW2 5010   2.278   3.740   0.850
 1670SOL     OW 5011   3.657   2.928   0.873
 1670SOL    HW1 5012   3.595   2.913   0.797
 1670SOL    HW2 5013   3.605   2.939   0.958
 1671SOL     OW 5014   3.089   3.412   1.506
 1671SOL    HW1 5015   3.095   3.335   1.570
 1671SOL    HW2 5016   3.037   3.386   1.426
 1672SOL     OW 5017   2.183   2.805   0.242
 1672SOL    HW1 5018   2.265   2.844   0.200
 1672SOL    HW2 5019   2.156   2.723   0.193
 1673SOL     OW 5020   3.320   2.597   0.728
 1673SOL    HW1 5021   3.315   2.532   0.803
 1673SOL    HW2 5022   3.400   2.656   0.741
 1674SOL     OW 5023   2.323   3.128   1.727
 1674SOL    HW1 5024   2.273   3.129   1.641
 1674SOL    HW2 5025   2.260   3.110   1.803
 1675SOL     OW 5026   2.973   3.638   0.237
 1675SOL    HW1 5027   2.913   3.576   0.287
 1675SOL    HW2 5028   3.004   3.594   0.152
 1676SOL     OW 5029   2.064   2.147   1.498
 1676SOL    HW1 5030   1.984   2.207   1.485
 1676SOL    HW2 5031   2.054   2.098   1.584
 1677SOL     OW 5032   3.494   3.239   0.081
 1677SOL    HW1 5033   3.462   3.333   0.071
 1677SOL    HW2 5034   3.418   3.176   0.069
 1678SOL     OW 5035   2.326   3.605   0.323
 1678SOL    HW1 5036   2.359   3.644   0.409
 1678SOL    HW2 5037   2.402   3.598   0.258
 1679SOL     OW 5038   3.262   1.969   0.426
 1679SOL    HW1 5039   3.238   1.932   0.336
 1679SOL    HW2 5040   3.361   1.985   0.430
 1680SOL     OW 5041   2.111   3.647   1.241
 1680SOL    HW1 5042   2.168   3.582   1.291
 1680SOL    HW2 5043   2.095   3.614   1.148
 1681SOL     OW 5044   2.802   3.560   0.904
 1681SOL    HW1 5045   2.882   3.503   0.925
 1681SOL    HW2 5046   2.753   3.520   0.827
 1682SOL     OW 5047   2.244   2.562   0.480
 1682SOL    HW1 5048   2.289   2.472   0.477
 1682SOL    HW2 5049   2.150   2.551   0.513
 1683SOL     OW 5050   3.409   2.084   1.729
 1683SOL    HW1 5051   3.404   2.121   1.821
 1683SOL    HW2 5052   3.337   2.015   1.717
 1684SOL     OW 5053   2.476   1.984   0.117
 1684SOL    HW1 5054   2.574   1.962   0.124
 1684SOL    HW2 5055   2.445   1.967   0.024
 1685SOL     OW 5056   2.643   2.126   1.749
 1685SOL    HW1 5057   2.710   2.065   1.792
 1685SOL    HW2 5058   2.570   2.145   1.814
 1686SOL     OW 5059   2.750   3.376   1.195
 1686SOL    HW1 5060   2.727   3.351   1.101
 1686SOL    HW2 5061   2.811   3.307   1.234
 1687SOL     OW 5062   3.213   2.452   1.433
 1687SOL    HW1 5063   3.241   2.409   1.518
 1687SOL    HW2 5064   3.238   2.548   1.434
 1688SOL     OW 5065   2.665   3.264   0.924
 1688SOL    HW1 5066   2.755   3.278   0.882
 1688SOL    HW2 5067   2.594   3.266   0.853
 1689SOL     OW 5068   2.784   2.365   0.899
 1689SOL    HW1 5069   2.759   2.356   0.803
 1689SOL    HW2 5070   2.832   2.283   0.930
 1690SOL     OW 5071   2.401   1.926   0.512
 1690SOL    HW1 5072   2.320   1.927   0.570
 1690SOL    HW2 5073   2.404   2.009   0.457
 1691SOL     OW 5074   3.296   3.050   0.041
 1691SOL    HW1 5075   3.328   2.974   0.098
 1691SOL    HW2 5076   3.204   3.077   0.071
 1692SOL     OW 5077   2.159   1.897   0.171
 1692SOL    HW1 5078   2.208   1.981   0.150
 1692SOL    HW2 5079   2.221   1.832   0.216
 1693SOL     OW 5080   2.797   2.098   0.480
 1693SOL    HW1 5081   2.749   2.139   0.402
 1693SOL    HW2 5082   2.896   2.096   0.461
 1694SOL     OW 5083   2.938   2.545   1.464
 1694SOL    HW1 5084   2.858   2.484   1.467
 1694SOL    HW2 5085   3.019   2.492   1.440
 1695SOL     OW 5086   3.089   3.432   0.793
 1695SOL    HW1 5087   3.110   3.506   0.728
 1695SOL    HW2 5088   3.157   3.432   0.866
 1696SOL     OW 5089   2.321   3.014   0.741
 1696SOL    HW1 5090   2.250   2.987   0.806
 1696SOL    HW2 5091   2.295   2.986   0.648
 1697SOL     OW 5092   3.133   3.659   0.591
 1697SOL    HW1 5093   3.177   3.723   0.527
 1697SOL    HW2 5094   3.083   3.711   0.661
 1698SOL     OW 5095   2.894   2.411   0.016
 1698SOL    HW1 5096   2.853   2.493  -0.023
 1698SOL    HW2 5097   2.958   2.437   0.089
 1699SOL     OW 5098   1.940   2.418   1.386
 1699SOL    HW1 5099   2.032   2.417   1.345
 1699SOL    HW2 5100   1.934   2.492   1.453
 1700SOL     OW 5101   2.423   2.084   1.147
 1700SOL    HW1 5102   2.461   2.000   1.184
 1700SOL    HW2 5103   2.335   2.103   1.191
 1701SOL     OW 5104   2.728   2.316   0.642
 1701SOL    HW1 5105   2.696   2.388   0.580
 1701SOL    HW2 5106   2.752   2.235   0.589
 1702SOL     OW 5107   2.879   1.901   0.753
 1702SOL    HW1 5108   2.807   1.906   0.684
 1702SOL    HW2 5109   2.855   1.832   0.822
 1703SOL     OW 5110   3.291   3.035   0.867
 1703SOL    HW1 5111   3.236   2.951   0.860
 1703SOL    HW2 5112   3.317   3.064   0.775
 1704SOL     OW 5113   3.328   2.452   0.992
 1704SOL    HW1 5114   3.298   2.357   0.999
 1704SOL    HW2 5115   3.401   2.468   1.058
 1705SOL     OW 5116   3.719   2.695   0.377
 1705SOL    HW1 5117   3.761   2.631   0.441
 1705SOL    HW2 5118   3.681   2.644   0.299
 1706SOL     OW 5119   2.350   3.247   0.174
 1706SOL    HW1 5120   2.263   3.232   0.221
 1706SOL    HW2 5121   2.333   3.273   0.079
 1707SOL     OW 5122   3.526   3.142   0.657
 1707SOL    HW1 5123   3.625   3.150   0.671
 1707SOL    HW2 5124   3.481   3.226   0.688
 1708SOL     OW 5125   3.252   2.437   0.078
 1708SOL    HW1 5126   3.198   2.416   0.159
 1708SOL    HW2 5127   3.343   2.396   0.087
 1709SOL     OW 5128   2.389   2.118   0.328
 1709SOL    HW1 5129   2.416   2.059   0.253
 1709SOL    HW2 5130   2.389   2.213   0.297
 1710SOL     OW 5131   3.616   3.085   1.588
 1710SOL    HW1 5132   3.707   3.046   1.575
 1710SOL    HW2 5133   3.624   3.181   1.612
 1711SOL     OW 5134   2.926   3.209   1.340
 1711SOL    HW1 5135   2.846   3.186   1.395
 1711SOL    HW2 5136   3.009   3.183   1.389
 1712SOL     OW 5137   3.454   3.491   1.625
 1712SOL    HW1 5138   3.481   3.525   1.535
 1712SOL    HW2 5139   3.533   3.453   1.671
 1713SOL     OW 5140   2.973   3.057   1.100
 1713SOL    HW1 5141   2.933   3.101   1.181
 1713SOL    HW2 5142   2.932   3.094   1.017
 1714SOL     OW 5143   3.500   2.961   1.079
 1714SOL    HW1 5144   3.505   3.042   1.138
 1714SOL    HW2 5145   3.414   2.963   1.028
 1715SOL     OW 5146   2.777   1.951   1.402
 1715SOL    HW1 5147   2.802   1.931   1.307
 1715SOL    HW2 5148   2.849   2.007   1.444
 1716SOL     OW 5149   2.842   2.978   1.719
 1716SOL    HW1 5150   2.743   2.984   1.729
 1716SOL    HW2 5151   2.865   2.898   1.663
 1717SOL     OW 5152   2.567   2.912   0.368
 1717SOL    HW1 5153   2.553   2.919   0.467
 1717SOL    HW2 5154   2.651   2.861   0.350
 1718SOL     OW 5155   2.272   2.675   1.251
 1718SOL    HW1 5156   2.358   2.687   1.301
 1718SOL    HW2 5157   2.230   2.588   1.278
 1719SOL     OW 5158   3.136   2.248   1.262
 1719SOL    HW1 5159   3.157   2.322   1.326
 1719SOL    HW2 5160   3.047   2.265   1.219
 1720SOL     OW 5161   1.926   3.426   1.331
 1720SOL    HW1 5162   1.880   3.508   1.297
 1720SOL    HW2 5163   2.024   3.445   1.340
 1721SOL     OW 5164   2.229   2.962   0.501
 1721SOL    HW1 5165   2.222   3.045   0.445
 1721SOL    HW2 5166   2.233   2.882   0.441
 1722SOL     OW 5167   2.428   2.399   0.865
 1722SOL    HW1 5168   2.440   2.465   0.791
 1722SOL    HW2 5169   2.474   2.433   0.948
 1723SOL     OW 5170   3.114   3.210   0.388
 1723SOL    HW1 5171   3.164   3.287   0.428
 1723SOL    HW2 5172   3.019   3.212   0.420
 1724SOL     OW 5173   3.134   3.307   1.142
 1724SOL    HW1 5174   3.181   3.320   1.229
 1724SOL    HW2 5175   3.068   3.233   1.151
 1725SOL     OW 5176   3.444   2.501   0.472
 1725SOL    HW1 5177   3.413   2.562   0.545
 1725SOL    HW2 5178   3.494   2.553   0.403
 1726SOL     OW 5179   2.216   3.372   1.329
 1726SOL    HW1 5180   2.195   3.328   1.242
 1726SOL    HW2 5181   2.313   3.398   1.332
 1727SOL     OW 5182   2.264   2.613   1.598
 1727SOL    HW1 5183   2.332   2.668   1.551
 1727SOL    HW2 5184   2.304   2.525   1.625
 1728SOL     OW 5185   3.449   2.641   1.670
 1728SOL    HW1 5186   3.357   2.679   1.665
 1728SOL    HW2 5187   3.509   2.688   1.605
 1729SOL     OW 5188   2.875   1.967   1.770
 1729SOL    HW1 5189   2.881   2.052   1.718
 1729SOL    HW2 5190   2.907   1.891   1.713
 1730SOL     OW 5191   2.366   1.912   1.740
 1730SOL    HW1 5192   2.324   1.855   1.670
 1730SOL    HW2 5193   2.300   1.981   1.772
 1731SOL     OW 5194   2.435   2.732   1.029
 1731SOL    HW1 5195   2.479   2.821   1.020
 1731SOL    HW2 5196   2.372   2.732   1.106
 1732SOL     OW 5197   3.222   2.724   1.045
 1732SOL    HW1 5198   3.147   2.724   0.979
 1732SOL    HW2 5199   3.259   2.632   1.054
 1733SOL     OW 5200   3.071   2.387   0.275
 1733SOL    HW1 5201   3.084   2.303   0.329
 1733SOL    HW2 5202   3.042   2.461   0.335
 1734SOL     OW 5203   2.169   2.075   1.231
 1734SOL    HW1 5204   2.146   2.112   1.321
 1734SOL    HW2 5205   2.139   1.980   1.225
 1735SOL     OW 5206   1.899   3.172   1.282
 1735SOL    HW1 5207   1.952   3.123   1.350
 1735SOL    HW2 5208   1.921   3.270   1.287
 1736SOL     OW 5209   2.594   2.496   1.064
 1736SOL    HW1 5210   2.653   2.470   0.988
 1736SOL    HW2 5211   2.566   2.592   1.053
 1737SOL     OW 5212   3.590   2.797   1.854
 1737SOL    HW1 5213   3.544   2.790   1.765
 1737SOL    HW2 5214   3.528   2.841   1.920
 1738SOL     OW 5215   2.169   1.925   0.618
 1738SOL    HW1 5216   2.158   2.019   0.651
 1738SOL    HW2 5217   2.164   1.862   0.695
 1739SOL     OW 5218   3.484   2.229   0.374
 1739SOL    HW1 5219   3.486   2.153   0.438
 1739SOL    HW2 5220   3.436   2.306   0.414
 1740SOL     OW 5221   2.885   2.628   0.966
 1740SOL    HW1 5222   2.900   2.649   1.062
 1740SOL    HW2 5223   2.855   2.533   0.957
 1741SOL     OW 5224   2.842   3.435   1.700
 1741SOL    HW1 5225   2.822   3.479   1.612
 1741SOL    HW2 5226   2.881   3.344   1.684
 1742SOL     OW 5227   3.721   3.380   1.605
 1742SOL    HW1 5228   3.735   3.407   1.510
 1742SOL    HW2 5229   3.804   3.402   1.658
 1743SOL     OW 5230   2.212   2.760   1.804
 1743SOL    HW1 5231   2.288   2.804   1.852
 1743SOL    HW2 5232   2.247   2.713   1.722
 1744SOL     OW 5233   3.402   2.136   0.125
 1744SOL    HW1 5234   3.341   2.061   0.148
 1744SOL    HW2 5235   3.424   2.188   0.208
 1745SOL     OW 5236   3.165   2.700   0.042
 1745SOL    HW1 5237   3.199   2.607   0.057
 1745SOL    HW2 5238   3.183   2.727  -0.053
 1746SOL     OW 5239   2.930   3.195   0.849
 1746SOL    HW1 5240   2.937   3.111   0.794
 1746SOL    HW2 5241   2.992   3.264   0.813
 1747SOL     OW 5242   2.181   2.672   0.949
 1747SOL    HW1 5243   2.274   2.708   0.954
 1747SOL    HW2 5244   2.175   2.587   1.001
 1748SOL     OW 5245   2.201   2.371   1.006
 1748SOL    HW1 5246   2.149   2.288   0.989
 1748SOL    HW2 5247   2.278   2.376   0.942
 1749SOL     OW 5248   3.000   2.242   1.678
 1749SOL    HW1 5249   2.955   2.305   1.742
 1749SOL    HW2 5250   3.093   2.273   1.661
 1750SOL     OW 5251   3.022   2.069   1.477
 1750SOL    HW1 5252   3.022   2.133   1.554
 1750SOL    HW2 5253   3.050   2.117   1.394
 1751SOL     OW 5254   1.870   3.188   0.200
 1751SOL    HW1 5255   1.777   3.209   0.169
 1751SOL    HW2 5256   1.880   3.089   0.213
 1752SOL     OW 5257   1.950   3.663   0.927
 1752SOL    HW1 5258   1.908   3.577   0.900
 1752SOL    HW2 5259   2.044   3.666   0.893
 1753SOL     OW 5260   2.366   3.430   0.910
 1753SOL    HW1 5261   2.432   3.504   0.919
 1753SOL    HW2 5262   2.410   3.351   0.868
 1754SOL     OW 5263   2.864   2.658   1.238
 1754SOL    HW1 5264   2.905   2.626   1.324
 1754SOL    HW2 5265   2.768   2.631   1.235
 1755SOL     OW 5266   1.902   2.406   1.114
 1755SOL    HW1 5267   1.987   2.373   1.073
 1755SOL    HW2 5268   1.915   2.421   1.212
 1756SOL     OW 5269   2.051   2.382   1.722
 1756SOL    HW1 5270   2.110   2.342   1.652
 1756SOL    HW2 5271   1.993   2.453   1.681
 1757SOL     OW 5272   3.231   2.812   1.660
 1757SOL    HW1 5273   3.270   2.901   1.680
 1757SOL    HW2 5274   3.241   2.792   1.563
 1758SOL     OW 5275   2.677   2.434   0.325
 1758SOL    HW1 5276   2.684   2.345   0.279
 1758SOL    HW2 5277   2.583   2.468   0.317
 1759SOL     OW 5278   3.519   2.466   1.206
 1759SOL    HW1 5279   3.481   2.397   1.268
 1759SOL    HW2 5280   3.601   2.430   1.162
 1760SOL     OW 5281   2.114   3.426   1.744
 1760SOL    HW1 5282   2.084   3.483   1.820
 1760SOL    HW2 5283   2.107   3.329   1.770
 1761SOL     OW 5284   2.533   2.326   1.269
 1761SOL    HW1 5285   2.499   2.237   1.239
 1761SOL    HW2 5286   2.559   2.380   1.189
 1762SOL     OW 5287   2.792   3.540   1.465
 1762SOL    HW1 5288   2.768   3.522   1.370
 1762SOL    HW2 5289   2.822   3.634   1.475
 1763SOL     OW 5290   2.335   2.362   0.191
 1763SOL    HW1 5291   2.396   2.442   0.195
 1763SOL    HW2 5292   2.240   2.393   0.198
 1764SOL     OW 5293   2.021   2.999   1.466
 1764SOL    HW1 5294   2.043   2.938   1.542
 1764SOL    HW2 5295   2.031   2.950   1.380
 1765SOL     OW 5296   3.209   2.921   1.234
 1765SOL    HW1 5297   3.233   2.858   1.160
 1765SOL    HW2 5298   3.119   2.961   1.216
 1766SOL     OW 5299   3.164   2.717   0.309
 1766SOL    HW1 5300   3.078   2.686   0.351
 1766SOL    HW2 5301   3.160   2.703   0.210
 1767SOL     OW 5302   3.621   3.609   1.154
 1767SOL    HW1 5303   3.682   3.639   1.081
 1767SOL    HW2 5304   3.583   3.520   1.132
 1768SOL     OW 5305   3.114   3.593   1.128
 1768SOL    HW1 5306   3.198   3.598   1.074
 1768SOL    HW2 5307   3.091   3.497   1.146
 1769SOL     OW 5308   1.945   3.120   1.022
 1769SOL    HW1 5309   1.940   3.119   1.122
 1769SOL    HW2 5310   1.862   3.079   0.984
 1770SOL     OW 5311   2.550   3.524   1.716
 1770SOL    HW1 5312   2.494   3.605   1.725
 1770SOL    HW2 5313   2.602   3.528   1.630
 1771SOL     OW 5314   2.765   1.948   0.133
 1771SOL    HW1 5315   2.816   1.949   0.047
 1771SOL    HW2 5316   2.821   1.906   0.204
 1772SOL     OW 5317   3.588   1.997   0.523
 1772SOL    HW1 5318   3.661   1.980   0.456
 1772SOL    HW2 5319   3.557   1.910   0.561
 1773SOL     OW 5320   3.250   3.435   0.477
 1773SOL    HW1 5321   3.317   3.447   0.403
 1773SOL    HW2 5322   3.210   3.524   0.500
 1774SOL     OW 5323   1.992   3.656   1.851
 1774SOL    HW1 5324   1.951   3.582   1.904
 1774SOL    HW2 5325   2.056   3.707   1.909
 1775SOL     OW 5326   3.142   2.789   0.672
 1775SOL    HW1 5327   3.202   2.708   0.674
 1775SOL    HW2 5328   3.182   2.858   0.612
 1776SOL     OW 5329   2.692   3.135   1.422
 1776SOL    HW1 5330   2.687   3.168   1.517
 1776SOL    HW2 5331   2.606   3.154   1.376
 1777SOL     OW 5332   2.534   3.478   0.154
 1777SOL    HW1 5333   2.543   3.488   0.055
 1777SOL    HW2 5334   2.494   3.389   0.175
 1778SOL     OW 5335   3.512   3.582   1.394
 1778SOL    HW1 5336   3.565   3.592   1.310
 1778SOL    HW2 5337   3.485   3.672   1.428
 1779SOL     OW 5338   3.703   2.037   0.963
 1779SOL    HW1 5339   3.742   1.952   0.927
 1779SOL    HW2 5340   3.605   2.039   0.944
 1780SOL     OW 5341   2.125   2.188   0.720
 1780SOL    HW1 5342   2.046   2.239   0.686
 1780SOL    HW2 5343   2.116   2.173   0.818
 1781SOL     OW 5344   3.056   3.474   0.031
 1781SOL    HW1 5345   3.062   3.381   0.068
 1781SOL    HW2 5346   2.997   3.474  -0.049
 1782SOL     OW 5347   2.684   2.864   1.372
 1782SOL    HW1 5348   2.724   2.863   1.280
 1782SOL    HW2 5349   2.694   2.956   1.412
 1783SOL     OW 5350   2.778   2.772   0.291
 1783SOL    HW1 5351   2.841   2.810   0.223
 1783SOL    HW2 5352   2.818   2.689   0.330
 1784SOL     OW 5353   3.366   3.469   0.044
 1784SOL    HW1 5354   3.274   3.506   0.051
 1784SOL    HW2 5355   3.404   3.489  -0.046
 1785SOL     OW 5356   2.234   3.150   1.490
 1785SOL    HW1 5357   2.221   3.243   1.456
 1785SOL    HW2 5358   2.150   3.098   1.477
 1786SOL     OW 5359   3.476   3.154   1.289
 1786SOL    HW1 5360   3.536   3.157   1.369
 1786SOL    HW2 5361   3.401   3.218   1.302
 1787SOL     OW 5362   2.901   2.960   0.696
 1787SOL    HW1 5363   2.831   2.913   0.750
 1787SOL    HW2 5364   2.960   2.892   0.653
 1788SOL     OW 5365   2.876   2.098   0.971
 1788SOL    HW1 5366   2.868   2.062   0.878
 1788SOL    HW2 5367   2.874   2.022   1.036
 1789SOL     OW 5368   2.452   3.349   0.491
 1789SOL    HW1 5369   2.494   3.291   0.421
 1789SOL    HW2 5370   2.408   3.428   0.447
 1790SOL     OW 5371   3.571   2.247   1.381
 1790SOL    HW1 5372   3.644   2.316   1.385
 1790SOL    HW2 5373   3.599   2.172   1.322
 1791SOL     OW 5374   2.117   3.210   0.290
 1791SOL    HW1 5375   2.021   3.211   0.263
 1791SOL    HW2 5376   2.129   3.263   0.374
 1792SOL     OW 5377   1.967   2.875   1.726
 1792SOL    HW1 5378   1.890   2.842   1.780
 1792SOL    HW2 5379   2.052   2.845   1.768
 1793SOL     OW 5380   2.534   2.065   1.489
 1793SOL    HW1 5381   2.624   2.049   1.449
 1793SOL    HW2 5382   2.542   2.070   1.588
 1794SOL     OW 5383   1.937   2.207   0.033
 1794SOL    HW1 5384   1.845   2.179   0.004
 1794SOL    HW2 5385   1.968   2.284  -0.023
 1795SOL     OW 5386   3.302   2.718   1.398
 1795SOL    HW1 5387   3.245   2.770   1.335
 1795SOL    HW2 5388   3.398   2.730   1.374
 1796SOL     OW 5389   1.934   2.028   0.318
 1796SOL    HW1 5390   1.917   2.111   0.264
 1796SOL    HW2 5391   2.024   1.991   0.296
 1797SOL     OW 5392   3.045   3.197   0.119
 1797SOL    HW1 5393   2.946   3.186   0.121
 1797SOL    HW2 5394   3.079   3.212   0.212
 1798SOL     OW 5395   2.475   2.704   1.431
 1798SOL    HW1 5396   2.531   2.785   1.414
 1798SOL    HW2 5397   2.534   2.624   1.434
 1799SOL     OW 5398   3.355   3.629   0.959
 1799SOL    HW1 5399   3.388   3.693   0.890
 1799SOL    HW2 5400   3.421   3.623   1.034
 1800SOL     OW 5401   2.578   2.427   1.708
 1800SOL    HW1 5402   2.597   2.492   1.782
 1800SOL    HW2 5403   2.638   2.347   1.717
 1801SOL     OW 5404   3.312   3.082   1.633
 1801SOL    HW1 5405   3.303   3.072   1.732
 1801SOL    HW2 5406   3.408   3.075   1.607
 1802SOL     OW 5407   2.252   3.603   1.560
 1802SOL    HW1 5408   2.161   3.644   1.558
 1802SOL    HW2 5409   2.245   3.509   1.592
 1803SOL     OW 5410   3.536   2.745   1.254
 1803SOL    HW1 5411   3.509   2.656   1.217
 1803SOL    HW2 5412   3.537   2.813   1.181
 1804SOL     OW 5413   3.087   2.187   0.449
 1804SOL    HW1 5414   3.152   2.113   0.438
 1804SOL    HW2 5415   3.107   2.237   0.533
 1805SOL     OW 5416   2.456   2.607   0.652
 1805SOL    HW1 5417   2.506   2.692   0.633
 1805SOL    HW2 5418   2.368   2.609   0.604
 1806SOL     OW 5419   3.639   2.204   1.642
 1806SOL    HW1 5420   3.622   2.235   1.548
 1806SOL    HW2 5421   3.555   2.167   1.680
 1807SOL     OW 5422   3.592   2.796   1.517
 1807SOL    HW1 5423   3.630   2.887   1.532
 1807SOL    HW2 5424   3.584   2.779   1.418
 1808SOL     OW 5425   2.721   3.236   0.016
 1808SOL    HW1 5426   2.675   3.251   0.104
 1808SOL    HW2 5427   2.765   3.321  -0.014
 1809SOL     OW 5428   2.523   3.652   0.953
 1809SOL    HW1 5429   2.477   3.740   0.940
 1809SOL    HW2 5430   2.622   3.664   0.946
 1810SOL     OW 5431   2.721   2.818   0.861
 1810SOL    HW1 5432   2.775   2.749   0.909
 1810SOL    HW2 5433   2.689   2.887   0.927
 1811SOL     OW 5434   2.945   2.846   0.087
 1811SOL    HW1 5435   2.922   2.899   0.005
 1811SOL    HW2 5436   3.026   2.790   0.068
 1812SOL     OW 5437   3.723   3.431   0.851
 1812SOL    HW1 5438   3.652   3.419   0.781
 1812SOL    HW2 5439   3.724   3.352   0.911
 1813SOL     OW 5440   2.083   3.176   1.844
 1813SOL    HW1 5441   2.018   3.103   1.823
 1813SOL    HW2 5442   2.087   3.190   1.942
 1814SOL     OW 5443   1.941   3.102   0.653
 1814SOL    HW1 5444   1.940   3.055   0.741
 1814SOL    HW2 5445   2.023   3.074   0.602
 1815SOL     OW 5446   2.534   3.253   1.624
 1815SOL    HW1 5447   2.456   3.203   1.662
 1815SOL    HW2 5448   2.531   3.348   1.655
 1816SOL     OW 5449   3.686   2.054   1.227
 1816SOL    HW1 5450   3.682   1.964   1.271
 1816SOL    HW2 5451   3.689   2.043   1.128
 1817SOL     OW 5452   2.290   2.286   0.520
 1817SOL    HW1 5453   2.320   2.214   0.458
 1817SOL    HW2 5454   2.251   2.246   0.603
 1818SOL     OW 5455   3.567   3.349   1.104
 1818SOL    HW1 5456   3.474   3.324   1.077
 1818SOL    HW2 5457   3.593   3.299   1.186
 1819SOL     OW 5458   2.179   2.409   1.280
 1819SOL    HW1 5459   2.217   2.350   1.352
 1819SOL    HW2 5460   2.219   2.383   1.192
 1820SOL     OW 5461   2.674   3.448   0.687
 1820SOL    HW1 5462   2.706   3.458   0.593
 1820SOL    HW2 5463   2.595   3.386   0.689
 1821SOL     OW 5464   3.286   2.076   1.112
 1821SOL    HW1 5465   3.338   2.011   1.167
 1821SOL    HW2 5466   3.237   2.139   1.173
 1822SOL     OW 5467   2.863   1.896   1.154
 1822SOL    HW1 5468   2.800   1.824   1.123
 1822SOL    HW2 5469   2.956   1.860   1.154
 1823SOL     OW 5470   2.632   3.192   0.301
 1823SOL    HW1 5471   2.586   3.105   0.318
 1823SOL    HW2 5472   2.723   3.189   0.342
 1824SOL     OW 5473   2.480   3.429   1.284
 1824SOL    HW1 5474   2.475   3.511   1.341
 1824SOL    HW2 5475   2.569   3.426   1.239
 1825SOL     OW 5476   3.214   1.914   0.168
 1825SOL    HW1 5477   3.249   1.873   0.084
 1825SOL    HW2 5478   3.124   1.876   0.188
 1826SOL     OW 5479   3.162   2.315   0.691
 1826SOL    HW1 5480   3.103   2.395   0.695
 1826SOL    HW2 5481   3.177   2.280   0.784
 1827SOL     OW 5482   3.455   2.083   0.882
 1827SOL    HW1 5483   3.371   2.082   0.936
 1827SOL    HW2 5484   3.457   2.166   0.826
 1828SOL     OW 5485   1.901   2.939   0.300
 1828SOL    HW1 5486   2.000   2.928   0.291
 1828SOL    HW2 5487   1.861   2.853   0.332
 1829SOL     OW 5488   2.737   3.508   0.337
 1829SOL    HW1 5489   2.660   3.473   0.283
 1829SOL    HW2 5490   2.705   3.579   0.399
 1830SOL     OW 5491   2.092   2.490   1.975
 1830SOL    HW1 5492   1.999   2.488   2.012
 1830SOL    HW2 5493   2.093   2.451   1.883
 1831SOL     OW 5494   2.087   2.137   2.858
 1831SOL    HW1 5495   2.122   2.120   2.950
 1831SOL    HW2 5496   1.999   2.092   2.846
 1832SOL     OW 5497   1.881   2.230   2.509
 1832SOL    HW1 5498   1.799   2.273   2.548
 1832SOL    HW2 5499   1.853   2.157   2.446
 1833SOL     OW 5500   2.431   3.137   3.027
 1833SOL    HW1 5501   2.338   3.130   2.990
 1833SOL    HW2 5502   2.442   3.226   3.071
 1834SOL     OW 5503   3.417   3.373   2.565
 1834SOL    HW1 5504   3.360   3.357   2.646
 1834SOL    HW2 5505   3.358   3.383   2.485
 1835SOL     OW 5506   2.997   2.565   2.579
 1835SOL    HW1 5507   3.054   2.643   2.554
 1835SOL    HW2 5508   2.937   2.591   2.655
 1836SOL     OW 5509   3.617   2.469   2.093
 1836SOL    HW1 5510   3.605   2.456   1.994
 1836SOL    HW2 5511   3.587   2.388   2.142
 1837SOL     OW 5512   2.630   3.006   2.885
 1837SOL    HW1 5513   2.552   3.023   2.945
 1837SOL    HW2 5514   2.664   3.093   2.849
 1838SOL     OW 5515   2.712   2.660   3.685
 1838SOL    HW1 5516   2.708   2.736   3.750
 1838SOL    HW2 5517   2.734   2.696   3.594
 1839SOL     OW 5518   2.547   2.874   2.527
 1839SOL    HW1 5519   2.616   2.858   2.597
 1839SOL    HW2 5520   2.474   2.931   2.565
 1840SOL     OW 5521   2.548   3.023   3.665
 1840SOL    HW1 5522   2.608   3.102   3.679
 1840SOL    HW2 5523   2.462   3.054   3.624
 1841SOL     OW 5524   2.197   3.297   2.923
 1841SOL    HW1 5525   2.119   3.266   2.870
 1841SOL    HW2 5526   2.255   3.355   2.866
 1842SOL     OW 5527   3.322   3.367   3.201
 1842SOL    HW1 5528   3.346   3.461   3.227
 1842SOL    HW2 5529   3.306   3.313   3.283
 1843SOL     OW 5530   2.300   2.254   3.361
 1843SOL    HW1 5531   2.382   2.198   3.370
 1843SOL    HW2 5532   2.219   2.196   3.365
 1844SOL     OW 5533   3.465   2.309   2.599
 1844SOL    HW1 5534   3.391   2.355   2.549
 1844SOL    HW2 5535   3.516   2.377   2.652
 1845SOL     OW 5536   2.093   3.575   2.345
 1845SOL    HW1 5537   2.127   3.652   2.399
 1845SOL    HW2 5538   2.137   3.575   2.255
 1846SOL     OW 5539   2.989   3.203   3.552
 1846SOL    HW1 5540   3.036   3.203   3.640
 1846SOL    HW2 5541   2.941   3.116   3.541
 1847SOL     OW 5542   2.092   3.296   2.400
 1847SOL    HW1 5543   2.066   3.392   2.400
 1847SOL    HW2 5544   2.021   3.242   2.445
 1848SOL     OW 5545   2.102   2.953   2.748
 1848SOL    HW1 5546   2.116   2.869   2.800
 1848SOL    HW2 5547   2.047   3.017   2.803
 1849SOL     OW 5548   2.482   3.648   3.301
 1849SOL    HW1 5549   2.390   3.631   3.336
 1849SOL    HW2 5550   2.510   3.740   3.327
 1850SOL     OW 5551   2.468   2.826   1.985
 1850SOL    HW1 5552   2.475   2.910   1.931
 1850SOL    HW2 5553   2.514   2.839   2.073
 1851SOL     OW 5554   3.456   1.976   3.342
 1851SOL    HW1 5555   3.438   2.043   3.270
 1851SOL    HW2 5556   3.453   2.022   3.431
 1852SOL     OW 5557   1.984   2.505   2.425
 1852SOL    HW1 5558   1.939   2.417   2.442
 1852SOL    HW2 5559   1.983   2.559   2.509
 1853SOL     OW 5560   3.704   3.629   2.221
 1853SOL    HW1 5561   3.758   3.600   2.301
 1853SOL    HW2 5562   3.734   3.719   2.192
 1854SOL     OW 5563   1.889   3.458   1.979
 1854SOL    HW1 5564   1.870   3.362   2.000
 1854SOL    HW2 5565   1.856   3.516   2.054
 1855SOL     OW 5566   3.551   2.784   2.474
 1855SOL    HW1 5567   3.646   2.755   2.482
 1855SOL    HW2 5568   3.543   2.849   2.399
 1856SOL     OW 5569   3.503   2.970   2.294
 1856SOL    HW1 5570   3.589   2.972   2.242
 1856SOL    HW2 5571   3.517   3.017   2.382
 1857SOL     OW 5572   1.975   2.599   3.459
 1857SOL    HW1 5573   2.063   2.586   3.504
 1857SOL    HW2 5574   1.962   2.696   3.437
 1858SOL     OW 5575   2.475   3.227   2.588
 1858SOL    HW1 5576   2.426   3.140   2.597
 1858SOL    HW2 5577   2.452   3.270   2.501
 1859SOL     OW 5578   3.155   3.090   3.285
 1859SOL    HW1 5579   3.192   3.017   3.227
 1859SOL    HW2 5580   3.207   3.095   3.370
 1860SOL     OW 5581   2.671   1.866   2.364
 1860SOL    HW1 5582   2.711   1.957   2.355
 1860SOL    HW2 5583   2.571   1.874   2.370
 1861SOL     OW 5584   2.059   2.838   3.126
 1861SOL    HW1 5585   2.148   2.793   3.112
 1861SOL    HW2 5586   1.986   2.773   3.107
 1862SOL     OW 5587   3.387   2.861   2.052
 1862SOL    HW1 5588   3.324   2.785   2.065
 1862SOL    HW2 5589   3.435   2.879   2.138
 1863SOL     OW 5590   3.049   3.654   3.478
 1863SOL    HW1 5591   3.073   3.714   3.402
 1863SOL    HW2 5592   3.056   3.559   3.448
 1864SOL     OW 5593   2.179   2.113   3.663
 1864SOL    HW1 5594   2.250   2.184   3.669
 1864SOL    HW2 5595   2.091   2.152   3.691
 1865SOL     OW 5596   3.328   3.279   2.815
 1865SOL    HW1 5597   3.269   3.285   2.895
 1865SOL    HW2 5598   3.313   3.191   2.769
 1866SOL     OW 5599   3.529   3.576   2.434
 1866SOL    HW1 5600   3.488   3.553   2.346
 1866SOL    HW2 5601   3.511   3.502   2.499
 1867SOL     OW 5602   2.460   2.591   2.132
 1867SOL    HW1 5603   2.484   2.660   2.064
 1867SOL    HW2 5604   2.382   2.624   2.186
 1868SOL     OW 5605   3.143   2.207   2.806
 1868SOL    HW1 5606   3.057   2.157   2.793
 1868SOL    HW2 5607   3.205   2.153   2.862
 1869SOL     OW 5608   3.438   3.524   2.169
 1869SOL    HW1 5609   3.527   3.570   2.172
 1869SOL    HW2 5610   3.417   3.500   2.074
 1870SOL     OW 5611   2.669   2.467   3.327
 1870SOL    HW1 5612   2.622   2.464   3.416
 1870SOL    HW2 5613   2.618   2.412   3.261
 1871SOL     OW 5614   3.256   2.331   3.536
 1871SOL    HW1 5615   3.236   2.374   3.624
 1871SOL    HW2 5616   3.334   2.269   3.545
 1872SOL     OW 5617   2.835   2.752   3.434
 1872SOL    HW1 5618   2.881   2.668   3.405
 1872SOL    HW2 5619   2.779   2.786   3.359
 1873SOL     OW 5620   2.853   2.272   3.104
 1873SOL    HW1 5621   2.776   2.306   3.158
 1873SOL    HW2 5622   2.819   2.221   3.025
 1874SOL     OW 5623   2.903   2.563   2.291
 1874SOL    HW1 5624   2.929   2.559   2.387
 1874SOL    HW2 5625   2.818   2.512   2.277
 1875SOL     OW 5626   1.938   2.673   2.651
 1875SOL    HW1 5627   2.037   2.661   2.660
 1875SOL    HW2 5628   1.914   2.768   2.672
 1876SOL     OW 5629   1.992   3.683   3.433
 1876SOL    HW1 5630   1.982   3.668   3.532
 1876SOL    HW2 5631   1.906   3.719   3.397
 1877SOL     OW 5632   2.727   2.210   2.057
 1877SOL    HW1 5633   2.786   2.273   2.008
 1877SOL    HW2 5634   2.746   2.116   2.028
 1878SOL     OW 5635   3.581   2.447   3.693
 1878SOL    HW1 5636   3.555   2.536   3.657
 1878SOL    HW2 5637   3.579   2.379   3.620
 1879SOL     OW 5638   3.224   3.006   2.407
 1879SOL    HW1 5639   3.307   2.977   2.359
 1879SOL    HW2 5640   3.175   3.073   2.351
 1880SOL     OW 5641   2.412   2.058   2.747
 1880SOL    HW1 5642   2.407   2.053   2.847
 1880SOL    HW2 5643   2.414   2.154   2.718
 1881SOL     OW 5644   2.870   3.318   2.339
 1881SOL    HW1 5645   2.824   3.390   2.287
 1881SOL    HW2 5646   2.866   3.338   2.437
 1882SOL     OW 5647   2.213   3.663   2.715
 1882SOL    HW1 5648   2.263   3.577   2.721
 1882SOL    HW2 5649   2.278   3.740   2.712
 1883SOL     OW 5650   3.657   2.928   2.735
 1883SOL    HW1 5651   3.595   2.913   2.659
 1883SOL    HW2 5652   3.605   2.939   2.820
 1884SOL     OW 5653   3.089   3.412   3.368
 1884SOL    HW1 5654   3.095   3.335   3.432
 1884SOL    HW2 5655   3.037   3.386   3.288
 1885SOL     OW 5656   2.183   2.805   2.104
 1885SOL    HW1 5657   2.265   2.844   2.062
 1885SOL    HW2 5658   2.156   2.723   2.055
 1886SOL     OW 5659   3.320   2.597   2.590
 1886SOL    HW1 5660   3.315   2.532   2.665
 1886SOL    HW2 5661   3.400   2.656   2.603
 1887SOL     OW 5662   2.323   3.128   3.589
 1887SOL    HW1 5663   2.273   3.129   3.503
 1887SOL    HW2 5664   2.260   3.110   3.665
 1888SOL     OW 5665   2.973   3.638   2.099
 1888SOL    HW1 5666   2.913   3.576   2.149
 1888SOL    HW2 5667   3.004   3.594   2.014
 1889SOL     OW 5668   2.064   2.147   3.360
 1889SOL    HW1 5669   1.984   2.207   3.347
 1889SOL    HW2 5670   2.054   2.098   3.446
 1890SOL     OW 5671   3.494   3.239   1.943
 1890SOL    HW1 5672   3.462   3.333   1.933
 1890SOL    HW2 5673   3.418   3.176   1.931
 1891SOL     OW 5674   2.326   3.605   2.185
 1891SOL    HW1 5675   2.359   3.644   2.271
 1891SOL    HW2 5676   2.402   3.598   2.120
 1892SOL     OW 5677   3.262   1.969   2.288
 1892SOL    HW1 5678   3.238   1.932   2.198
 1892SOL    HW2 5679   3.361   1.985   2.292
 1893SOL     OW 5680   2.111   3.647   3.103
 1893SOL    HW1 5681   2.168   3.582   3.153
 1893SOL    HW2 5682   2.095   3.614   3.010
 1894SOL     OW 5683   2.802   3.560   2.766
 1894SOL    HW1 5684   2.882   3.503   2.787
 1894SOL    HW2 5685   2.753   3.520   2.689
 1895SOL     OW 5686   2.244   2.562   2.342
 1895SOL    HW1 5687   2.289   2.472   2.339
 1895SOL    HW2 5688   2.150   2.551   2.375
 1896SOL     OW 5689   3.409   2.084   3.591
 1896SOL    HW1 5690   3.404   2.121   3.683
 1896SOL    HW2 5691   3.337   2.015   3.579
 1897SOL     OW 5692   2.476   1.984   1.979
 1897SOL    HW1 5693   2.574   1.962   1.986
 1897SOL    HW2 5694   2.445   1.967   1.886
 1898SOL     OW 5695   2.643   2.126   3.611
 1898SOL    HW1 5696   2.710   2.065   3.654
 1898SOL    HW2 5697   2.570   2.145   3.676
 1899SOL     OW 5698   2.750   3.376   3.057
 1899SOL    HW1 5699   2.727   3.351   2.963
 1899SOL    HW2 5700   2.811   3.307   3.096
 1900SOL     OW 5701   3.213   2.452   3.295
 1900SOL    HW1 5702   3.241   2.409   3.380
 1900SOL    HW2 5703   3.238   2.548   3.296
 1901SOL     OW 5704   2.665   3.264   2.786
 1901SOL    HW1 5705   2.755   3.278   2.744
 1901SOL    HW2 5706   2.594   3.266   2.715
 1902SOL     OW 5707   2.784   2.365   2.761
 1902SOL    HW1 5708   2.759   2.356   2.665
 1902SOL    HW2 5709   2.832   2.283   2.792
 1903SOL     OW 5710   2.401   1.926   2.374
 1903SOL    HW1 5711   2.320   1.927   2.432
 1903SOL    HW2 5712   2.404   2.009   2.319
 1904SOL     OW 5713   3.296   3.050   1.903
 1904SOL    HW1 5714   3.328   2.974   1.960
 1904SOL    HW2 5715   3.204   3.077   1.933
 1905SOL     OW 5716   2.159   1.897   2.033
 1905SOL    HW1 5717   2.208   1.981   2.012
 1905SOL    HW2 5718   2.221   1.832   2.078
 1906SOL     OW 5719   2.797   2.098   2.342
 1906SOL    HW1 5720   2.749   2.139   2.264
 1906SOL    HW2 5721   2.896   2.096   2.323
 1907SOL     OW 5722   2.938   2.545   3.326
 1907SOL    HW1 5723   2.858   2.484   3.329
 1907SOL    HW2 5724   3.019   2.492   3.302
 1908SOL     OW 5725   3.089   3.432   2.655
 1908SOL    HW1 5726   3.110   3.506   2.590
 1908SOL    HW2 5727   3.157   3.432   2.728
 1909SOL     OW 5728   2.321   3.014   2.603
 1909SOL    HW1 5729   2.250   2.987   2.668
 1909SOL    HW2 5730   2.295   2.986   2.510
 1910SOL     OW 5731   3.133   3.659   2.453
 1910SOL    HW1 5732   3.177   3.723   2.389
 1910SOL    HW2 5733   3.083   3.711   2.523
 1911SOL     OW 5734   2.894   2.411   1.878
 1911SOL    HW1 5735   2.853   2.493   1.839
 1911SOL    HW2 5736   2.958   2.437   1.951
 1912SOL     OW 5737   1.940   2.418   3.248
 1912SOL    HW1 5738   2.032   2.417   3.207
 1912SOL    HW2 5739   1.934   2.492   3.315
 1913SOL     OW 5740   2.423   2.084   3.009
 1913SOL    HW1 5741   2.461   2.000   3.046
 1913SOL    HW2 5742   2.335   2.103   3.053
 1914SOL     OW 5743   2.728   2.316   2.504
 1914SOL    HW1 5744   2.696   2.388   2.442
 1914SOL    HW2 5745   2.752   2.235   2.451
 1915SOL     OW 5746   2.879   1.901   2.615
 1915SOL    HW1 5747   2.807   1.906   2.546
 1915SOL    HW2 5748   2.855   1.832   2.684
 1916SOL     OW 5749   3.291   3.035   2.729
 1916SOL    HW1 5750   3.236   2.951   2.722
 1916SOL    HW2 5751   3.317   3.064   2.637
 1917SOL     OW 5752   3.328   2.452   2.854
 1917SOL    HW1 5753   3.298   2.357   2.861
 1917SOL    HW2 5754   3.401   2.468   2.920
 1918SOL     OW 5755   3.719   2.695   2.239
 1918SOL    HW1 5756   3.761   2.631   2.303
 1918SOL    HW2 5757   3.681   2.644   2.161
 1919SOL     OW 5758   2.350   3.247   2.036
 1919SOL    HW1 5759   2.263   3.232   2.083
 1919SOL    HW2 5760   2.333   3.273   1.941
 1920SOL     OW 5761   3.526   3.142   2.519
 1920SOL    HW1 5762   3.625   3.150   2.533
 1920SOL    HW2 5763   3.481   3.226   2.550
 1921SOL     OW 5764   3.252   2.437   1.940
 1921SOL    HW1 5765   3.198   2.416   2.021
 1921SOL    HW2 5766   3.343   2.396   1.949
 1922SOL     OW 5767   3.616   3.085   3.450
 1922SOL    HW1 5768   3.707   3.046   3.437
 1922SOL    HW2 5769   3.624   3.181   3.474
 1923SOL     OW 5770   2.926   3.209   3.202
 1923SOL    HW1 5771   2.846   3.186   3.257
 1923SOL    HW2 5772   3.009   3.183   3.251
 1924SOL     OW 5773   3.454   3.491   3.487
 1924SOL    HW1 5774   3.481   3.525   3.397
 1924SOL    HW2 5775   3.533   3.453   3.533
 1925SOL     OW 5776   2.973   3.057   2.962
 1925SOL    HW1 5777   2.933   3.101   3.043
 1925SOL    HW2 5778   2.932   3.094   2.879
 1926SOL     OW 5779   3.500   2.961   2.941
 1926SOL    HW1 5780   3.505   3.042   3.000
 1926SOL    HW2 5781   3.414   2.963   2.890
 1927SOL     OW 5782   2.777   1.951   3.264
 1927SOL    HW1 5783   2.802   1.931   3.169
 1927SOL    HW2 5784   2.849   2.007   3.306
 1928SOL     OW 5785   2.842   2.978   3.581
 1928SOL    HW1 5786   2.743   2.984   3.591
 1928SOL    HW2 5787   2.865   2.898   3.525
 1929SOL     OW 5788   2.567   2.912   2.230
 1929SOL    HW1 5789   2.553   2.919   2.329
 1929SOL    HW2 5790   2.651   2.861   2.212
 1930SOL     OW 5791   2.272   2.675   3.113
 1930SOL    HW1 5792   2.358   2.687   3.163
 1930SOL    HW2 5793   2.230   2.588   3.140
 1931SOL     OW 5794   3.136   2.248   3.124
 1931SOL    HW1 5795   3.157   2.322   3.188
 1931SOL    HW2 5796   3.047   2.265   3.081
 1932SOL     OW 5797   1.926   3.426   3.193
 1932SOL    HW1 5798   1.880   3.508   3.159
 1932SOL    HW2 5799   2.024   3.445   3.202
 1933SOL     OW 5800   2.229   2.962   2.363
 1933SOL    HW1 5801   2.222   3.045   2.307
 1933SOL    HW2 5802   2.233   2.882   2.303
 1934SOL     OW 5803   2.428   2.399   2.727
 1934SOL    HW1 5804   2.440   2.465   2.653
 1934SOL    HW2 5805   2.474   2.433   2.810
 1935SOL     OW 5806   3.114   3.210   2.250
 1935SOL    HW1 5807   3.164   3.287   2.290
 1935SOL    HW2 5808   3.019   3.212   2.282
 1936SOL     OW 5809   3.134   3.307   3.004
 1936SOL    HW1 5810   3.181   3.320   3.091
 1936SOL    HW2 5811   3.068   3.233   3.013
 1937SOL     OW 5812   3.444   2.501   2.334
 1937SOL    HW1 5813   3.413   2.562   2.407
 1937SOL    HW2 5814   3.494   2.553   2.265
 1938SOL     OW 5815   2.216   3.372   3.191
 1938SOL    HW1 5816   2.195   3.328   3.104
 1938SOL    HW2 5817   2.313   3.398   3.194
 1939SOL     OW 5818   2.264   2.613   3.460
 1939SOL    HW1 5819   2.332   2.668   3.413
 1939SOL    HW2 5820   2.304   2.525   3.487
 1940SOL     OW 5821   3.449   2.641   3.532
 1940SOL    HW1 5822   3.357   2.679   3.527
 1940SOL    HW2 5823   3.509   2.688   3.467
 1941SOL     OW 5824   2.875   1.967   3.632
 1941SOL    HW1 5825   2.881   2.052   3.580
 1941SOL    HW2 5826   2.907   1.891   3.575
 1942SOL     OW 5827   2.366   1.912   3.602
 1942SOL    HW1 5828   2.324   1.855   3.532
 1942SOL    HW2 5829   2.300   1.981   3.634
 1943SOL     OW 5830   2.435   2.732   2.891
 1943SOL    HW1 5831   2.479   2.821   2.882
 1943SOL    HW2 5832   2.372   2.732   2.968
 1944SOL     OW 5833   3.222   2.724   2.907
 1944SOL    HW1 5834   3.147   2.724   2.841
 1944SOL    HW2 5835   3.259   2.632   2.916
 1945SOL     OW 5836   3.071   2.387   2.137
 1945SOL    HW1 5837   3.084   2.303   2.191
 1945SOL    HW2 5838   3.042   2.461   2.197
 1946SOL     OW 5839   2.169   2.075   3.093
 1946SOL    HW1 5840   2.146   2.112   3.183
 1946SOL    HW2 5841   2.139   1.980   3.087
 1947SOL     OW 5842   1.899   3.172   3.144
 1947SOL    HW1 5843   1.952   3.123   3.212
 1947SOL    HW2 5844   1.921   3.270   3.149
 1948SOL     OW 5845   2.594   2.496   2.926
 1948SOL    HW1 5846   2.653   2.470   2.850
 1948SOL    HW2 5847   2.566   2.592   2.915
 1949SOL     OW 5848   3.590   2.797   3.716
 1949SOL    HW1 5849   3.544   2.790   3.627
 1949SOL    HW2 5850   3.528   2.841   3.782
 1950SOL     OW 5851   2.169   1.925   2.480
 1950SOL    HW1 5852   2.158   2.019   2.513
 1950SOL    HW2 5853   2.164   1.862   2.557
 1951SOL     OW 5854   3.484   2.229   2.236
 1951SOL    HW1 5855   3.486   2.153   2.300
 1951SOL    HW2 5856   3.436   2.306   2.276
 1952SOL     OW 5857   2.885   2.628   2.828
 1952SOL    HW1 5858   2.900   2.649   2.924
 1952SOL    HW2 5859   2.855   2.533   2.819
 1953SOL     OW 5860   2.842   3.435   3.562
 1953SOL    HW1 5861   2.822   3.479   3.474
 1953SOL    HW2 5862   2.881   3.344   3.546
 1954SOL     OW 5863   3.721   3.380   3.467
 1954SOL    HW1 5864   3.735   3.407   3.372
 1954SOL    HW2 5865   3.804   3.402   3.520
 1955SOL     OW 5866   2.212   2.760   3.666
 1955SOL    HW1 5867   2.288   2.804   3.714
 1955SOL    HW2 5868   2.247   2.713   3.584
 1956SOL     OW 5869   3.402   2.136   1.987
 1956SOL    HW1 5870   3.341   2.061   2.010
 1956SOL    HW2 5871   3.424   2.188   2.070
 1957SOL     OW 5872   3.165   2.700   1.904
 1957SOL    HW1 5873   3.199   2.607   1.919
 1957SOL    HW2 5874   3.183   2.727   1.809
 1958SOL     OW 5875   2.930   3.195   2.711
 1958SOL    HW1 5876   2.937   3.111   2.656
 1958SOL    HW2 5877   2.992   3.264   2.675
 1959SOL     OW 5878   2.181   2.672   2.811
 1959SOL    HW1 5879   2.274   2.708   2.816
 1959SOL    HW2 5880   2.175   2.587   2.863
 1960SOL     OW 5881   2.201   2.371   2.868
 1960SOL    HW1 5882   2.149   2.288   2.851
 1960SOL    HW2 5883   2.278   2.376   2.804
 1961SOL     OW 5884   3.000   2.242   3.540
 1961SOL    HW1 5885   2.955   2.305   3.604
 1961SOL    HW2 5886   3.093   2.273   3.523
 1962SOL     OW 5887   3.022   2.069   3.339
 1962SOL    HW1 5888   3.022   2.133   3.416
 1962SOL    HW2 5889   3.050   2.117   3.256
 1963SOL     OW 5890   1.870   3.188   2.062
 1963SOL    HW1 5891   1.777   3.209   2.031
 1963SOL    HW2 5892   1.880   3.089   2.075
 1964SOL     OW 5893   1.950   3.663   2.789
 1964SOL    HW1 5894   1.908   3.577   2.762
 1964SOL    HW2 5895   2.044   3.666   2.755
 1965SOL     OW 5896   2.366   3.430   2.772
 1965SOL    HW1 5897   2.432   3.504   2.781
 1965SOL    HW2 5898   2.410   3.351   2.730
 1966SOL     OW 5899   2.864   2.658   3.100
 1966SOL    HW1 5900   2.905   2.626   3.186
 1966SOL    HW2 5901   2.768   2.631   3.097
 1967SOL     OW 5902   1.902   2.406   2.976
 1967SOL    HW1 5903   1.987   2.373   2.935
 1967SOL    HW2 5904   1.915   2.421   3.074
 1968SOL     OW 5905   2.051   2.382   3.584
 1968SOL    HW1 5906   2.110   2.342   3.514
 1968SOL    HW2 5907   1.993   2.453   3.543
 1969SOL     OW 5908   3.231   2.812   3.522
 1969SOL    HW1 5909   3.270   2.901   3.542
 1969SOL    HW2 5910   3.241   2.792   3.425
 1970SOL     OW 5911   2.677   2.434   2.187
 1970SOL    HW1 5912   2.684   2.345   2.141
 1970SOL    HW2 5913   2.583   2.468   2.179
 1971SOL     OW 5914   3.519   2.466   3.068
 1971SOL    HW1 5915   3.481   2.397   3.130
 1971SOL    HW2 5916   3.601   2.430   3.024
 1972SOL     OW 5917   2.114   3.426   3.606
 1972SOL    HW1 5918   2.084   3.483   3.682
 1972SOL    HW2 5919   2.107   3.329   3.632
 1973SOL     OW 5920   2.533   2.326   3.131
 1973SOL    HW1 5921   2.499   2.237   3.101
 1973SOL    HW2 5922   2.559   2.380   3.051
 1974SOL     OW 5923   2.792   3.540   3.327
 1974SOL    HW1 5924   2.768   3.522   3.232
 1974SOL    HW2 5925   2.822   3.634   3.337
 1975SOL     OW 5926   2.335   2.362   2.053
 1975SOL    HW1 5927   2.396   2.442   2.057
 1975SOL    HW2 5928   2.240   2.393   2.060
 1976SOL     OW 5929   2.021   2.999   3.328
 1976SOL    HW1 5930   2.043   2.938   3.404
 1976SOL    HW2 5931   2.031   2.950   3.242
 1977SOL     OW 5932   3.209   2.921   3.096
 1977SOL    HW1 5933   3.233   2.858   3.022
 1977SOL    HW2 5934   3.119   2.961   3.078
 1978SOL     OW 5935   3.164   2.717   2.171
 1978SOL    HW1 5936   3.078   2.686   2.213
 1978SOL    HW2 5937   3.160   2.703   2.072
 1979SOL     OW 5938   3.621   3.609   3.016
 1979SOL    HW1 5939   3.682   3.639   2.943
 1979SOL    HW2 5940   3.583   3.520   2.994
 1980SOL     OW 5941   3.114   3.593   2.990
 1980SOL    HW1 5942   3.198   3.598   2.936
 1980SOL    HW2 5943   3.091   3.497   3.008
 1981SOL     OW 5944   1.945   3.120   2.884
 1981SOL    HW1 5945   1.940   3.119   2.984
 1981SOL    HW2 5946   1.862   3.079   2.846
 1982SOL     OW 5947   2.550   3.524   3.578
 1982SOL    HW1 5948   2.494   3.605   3.587
 1982SOL    HW2 5949   2.602   3.528   3.492
 1983SOL     OW 5950   3.588   1.997   2.385
 1983SOL    HW1 5951   3.661   1.980   2.318
 1983SOL    HW2 5952   3.557   1.910   2.423
 1984SOL     OW 5953   3.250   3.435   2.339
 1984SOL    HW1 5954   3.317   3.447   2.265
 1984SOL    HW2 5955   3.210   3.524   2.362
 1985SOL     OW 5956   1.992   3.656   3.713
 1985SOL    HW1 5957   1.951   3.582   3.766
 1985SOL    HW2 5958   2.056   3.707   3.771
 1986SOL     OW 5959   3.142   2.789   2.534
 1986SOL    HW1 5960   3.202   2.708   2.536
 1986SOL    HW2 5961   3.182   2.858   2.474
 1987SOL     OW 5962   2.692   3.135   3.284
 1987SOL    HW1 5963   2.687   3.168   3.379
 1987SOL    HW2 5964   2.606   3.154   3.238
 1988SOL     OW 5965   2.534   3.478   2.016
 1988SOL    HW1 5966   2.543   3.488   1.917
 1988SOL    HW2 5967   2.494   3.389   2.037
 1989SOL     OW 5968   3.512   3.582   3.256
 1989SOL    HW1 5969   3.565   3.592   3.172
 1989SOL    HW2 5970   3.485   3.672   3.290
 1990SOL     OW 5971   3.703   2.037   2.825
 1990SOL    HW1 5972   3.742   1.952   2.789
 1990SOL    HW2 5973   3.605   2.039   2.806
 1991SOL     OW 5974   2.125   2.188   2.582
 1991SOL    HW1 5975   2.046   2.239   2.548
 1991SOL    HW2 5976   2.116   2.173   2.680
 1992SOL     OW 5977   3.056   3.474   1.893
 1992SOL    HW1 5978   3.062   3.381   1.930
 1992SOL    HW2 5979   2.997   3.474   1.813
 1993SOL     OW 5980   2.684   2.864   3.234
 1993SOL    HW1 5981   2.724   2.863   3.142
 1993SOL    HW2 5982   2.694   2.956   3.274
 1994SOL     OW 5983   2.778   2.772   2.153
 1994SOL    HW1 5984   2.841   2.810   2.085
 1994SOL    HW2 5985   2.818   2.689   2.192
 1995SOL     OW 5986   3.366   3.469   1.906
 1995SOL    HW1 5987   3.274   3.506   1.913
 1995SOL    HW2 5988   3.404   3.489   1.816
 1996SOL     OW 5989   2.234   3.150   3.352
 1996SOL    HW1 5990   2.221   3.243   3.318
 1996SOL    HW2 5991   2.150   3.098   3.339
 1997SOL     OW 5992   3.476   3.154   3.151
 1997SOL    HW1 5993   3.536   3.157   3.231
 1997SOL    HW2 5994   3.401   3.218   3.164
 1998SOL     OW 5995   2.901   2.960   2.558
 1998SOL    HW1 5996   2.831   2.913   2.612
 1998SOL    HW2 5997   2.960   2.892   2.515
 1999SOL     OW 5998   2.876   2.098   2.833
 1999SOL    HW1 5999   2.868   2.062   2.740
 1999SOL    HW2 6000   2.874   2.022   2.898
 2000SOL     OW 6001   2.452   3.349   2.353
 2000SOL    HW1 6002   2.494   3.291   2.283
 2000SOL    HW2 6003   2.408   3.428   2.309
 2001SOL     OW 6004   3.571   2.247   3.243
 2001SOL    HW1 6005   3.644   2.316   3.247
 2001SOL    HW2 6006   3.599   2.172   3.184
 2002SOL     OW 6007   2.117   3.210   2.152
 2002SOL    HW1 6008   2.021   3.211   2.125
 2002SOL    HW2 6009   2.129   3.263   2.236
 2003SOL     OW 6010   1.967   2.875   3.588
 2003SOL    HW1 6011   1.890   2.842   3.642
 2003SOL    HW2 6012   2.052   2.845   3.630
 2004SOL     OW 6013   2.534   2.065   3.351
 2004SOL    HW1 6014   2.624   2.049   3.311
 2004SOL    HW2 6015   2.542   2.070   3.450
 2005SOL     OW 6016   1.937   2.207   1.895
 2005SOL    HW1 6017   1.845   2.179   1.866
 2005SOL    HW2 6018   1.968   2.284   1.839
 2006SOL     OW 6019   3.302   2.718   3.260
 2006SOL    HW1 6020   3.245   2.770   3.197
 2006SOL    HW2 6021   3.398   2.730   3.236
 2007SOL     OW 6022   3.045   3.197   1.981
 2007SOL    HW1 6023   2.946   3.186   1.983
 2007SOL    HW2 6024   3.079   3.212   2.074
 2008SOL     OW 6025   2.475   2.704   3.293
 2008SOL    HW1 6026   2.531   2.785   3.276
 2008SOL    HW2 6027   2.534   2.624   3.296
 2009SOL     OW 6028   3.355   3.629   2.821
 2009SOL    HW1 6029   3.388   3.693   2.752
 2009SOL    HW2 6030   3.421   3.623   2.896
 2010SOL     OW 6031   2.578   2.427   3.570
 2010SOL    HW1 6032   2.597   2.492   3.644
 2010SOL    HW2 6033   2.638   2.347   3.579
 2011SOL     OW 6034   3.312   3.082   3.495
 2011SOL    HW1 6035   3.303   3.072   3.594
 2011SOL    HW2 6036   3.408   3.075   3.469
 2012SOL     OW 6037   2.252   3.603   3.422
 2012SOL    HW1 6038   2.161   3.644   3.420
 2012SOL    HW2 6039   2.245   3.509   3.454
 2013SOL     OW 6040   3.536   2.745   3.116
 2013SOL    HW1 6041   3.509   2.656   3.079
 2013SOL    HW2 6042   3.537   2.813   3.043
 2014SOL     OW 6043   3.087   2.187   2.311
 2014SOL    HW1 6044   3.152   2.113   2.300
 2014SOL    HW2 6045   3.107   2.237   2.395
 2015SOL     OW 6046   2.456   2.607   2.514
 2015SOL    HW1 6047   2.506   2.692   2.495
 2015SOL    HW2 6048   2.368   2.609   2.466
 2016SOL     OW 6049   3.639   2.204   3.504
 2016SOL    HW1 6050   3.622   2.235   3.410
 2016SOL    HW2 6051   3.555   2.167   3.542
 2017SOL     OW 6052   3.592   2.796   3.379
 2017SOL    HW1 6053   3.630   2.887   3.394
 2017SOL    HW2 6054   3.584   2.779   3.280
 2018SOL     OW 6055   2.721   3.236   1.878
 2018SOL    HW1 6056   2.675   3.251   1.966
 2018SOL    HW2 6057   2.765   3.321   1.848
 2019SOL     OW 6058   2.523   3.652   2.815
 2019SOL    HW1 6059   2.477   3.740   2.802
 2019SOL    HW2 6060   2.622   3.664   2.808
 2020SOL     OW 6061   2.721   2.818   2.723
 2020SOL    HW1 6062   2.775   2.749   2.771
 2020SOL    HW2 6063   2.689   2.887   2.789
 2021SOL     OW 6064   2.945   2.846   1.949
 2021SOL    HW1 6065   2.922   2.899   1.867
 2021SOL    HW2 6066   3.026   2.790   1.930
 2022SOL     OW 6067   3.723   3.431   2.713
 2022SOL    HW1 6068   3.652   3.419   2.643
 2022SOL    HW2 6069   3.724   3.352   2.773
 2023SOL     OW 6070   2.083   3.176   3.706
 2023SOL    HW1 6071   2.018   3.103   3.685
 2023SOL    HW2 6072   2.087   3.190   3.804
 2024SOL     OW 6073   1.941   3.102   2.515
 2024SOL    HW1 6074   1.940   3.055   2.603
 2024SOL    HW2 6075   2.023   3.074   2.464
 2025SOL     OW 6076   2.534   3.253   3.486
 2025SOL    HW1 6077   2.456   3.203   3.524
 2025SOL    HW2 6078   2.531   3.348   3.517
 2026SOL     OW 6079   3.686   2.054   3.089
 2026SOL    HW1 6080   3.682   1.964   3.133
 2026SOL    HW2 6081   3.689   2.043   2.990
 2027SOL     OW 6082   2.290   2.286   2.382
 2027SOL    HW1 6083   2.320   2.214   2.320
 2027SOL    HW2 6084   2.251   2.246   2.465
 2028SOL     OW 6085   3.567   3.349   2.966
 2028SOL    HW1 6086   3.474   3.324   2.939
 2028SOL    HW2 6087   3.593   3.299   3.048
 2029SOL     OW 6088   2.179   2.409   3.142
 2029SOL    HW1 6089   2.217   2.350   3.214
 2029SOL    HW2 6090   2.219   2.383   3.054
 2030SOL     OW 6091   2.674   3.448   2.549
 2030SOL    HW1 6092   2.706   3.458   2.455
 2030SOL    HW2 6093   2.595   3.386   2.551
 2031SOL     OW 6094   3.286   2.076   2.974
 2031SOL    HW1 6095   3.338   2.011   3.029
 2031SOL    HW2 6096   3.237   2.139   3.035
 2032SOL     OW 6097   2.863   1.896   3.016
 2032SOL    HW1 6098   2.800   1.824   2.985
 2032SOL    HW2 6099   2.956   1.860   3.016
 2033SOL     OW 6100   2.632   3.192   2.163
 2033SOL    HW1 6101   2.586   3.105   2.180
 2033SOL    HW2 6102   2.723   3.189   2.204
 2034SOL     OW 6103   2.480   3.429   3.146
 2034SOL    HW1 6104   2.475   3.511   3.203
 2034SOL    HW2 6105   2.569   3.426   3.101
 2035SOL     OW 6106   3.214   1.914   2.030
 2035SOL    HW1 6107   3.249   1.873   1.946
 2035SOL    HW2 6108   3.124   1.876   2.050
 2036SOL     OW 6109   3.162   2.315   2.553
 2036SOL    HW1 6110   3.103   2.395   2.557
 2036SOL    HW2 6111   3.177   2.280   2.646
 2037SOL     OW 6112   3.455   2.083   2.744
 2037SOL    HW1 6113   3.371   2.082   2.798
 2037SOL    HW2 6114   3.457   2.166   2.688
 2038SOL     OW 6115   1.901   2.939   2.162
 2038SOL    HW1 6116   2.000   2.928   2.153
 2038SOL    HW2 6117   1.861   2.853   2.194
 2039SOL     OW 6118   2.737   3.508   2.199
 2039SOL    HW1 6119   2.660   3.473   2.145
 2039SOL    HW2 6120   2.705   3.579   2.261
 2040SOL     OW 6121   2.092   2.490   3.837
 2040SOL    HW1 6122   1.999   2.488   3.874
 2040SOL    HW2 6123   2.093   2.451   3.745
 2041SOL     OW 6124   3.617   2.469   3.955
 2041SOL    HW1 6125   3.605   2.456   3.856
 2041SOL    HW2 6126   3.587   2.388   4.004
 2042SOL     OW 6127   2.093   3.575   4.207
 2042SOL    HW1 6128   2.127   3.652   4.261
 2042SOL    HW2 6129   2.137   3.575   4.117
 2043SOL     OW 6130   2.092   3.296   4.262
 2043SOL    HW1 6131   2.066   3.392   4.262
 2043SOL    HW2 6132   2.021   3.242   4.307
 2044SOL     OW 6133   2.468   2.826   3.847
 2044SOL    HW1 6134   2.475   2.910   3.793
 2044SOL    HW2 6135   2.514   2.839   3.935
 2045SOL     OW 6136   3.704   3.629   4.083
 2045SOL    HW1 6137   3.758   3.600   4.163
 2045SOL    HW2 6138   3.734   3.719   4.054
 2046SOL     OW 6139   1.889   3.458   3.841
 2046SOL    HW1 6140   1.870   3.362   3.862
 2046SOL    HW2 6141   1.856   3.516   3.916
 2047SOL     OW 6142   3.551   2.784   4.336
 2047SOL    HW1 6143   3.646   2.755   4.344
 2047SOL    HW2 6144   3.543   2.849   4.261
 2048SOL     OW 6145   3.503   2.970   4.156
 2048SOL    HW1 6146   3.589   2.972   4.104
 2048SOL    HW2 6147   3.517   3.017   4.244
 2049SOL     OW 6148   2.671   1.866   4.226
 2049SOL    HW1 6149   2.711   1.957   4.217
 2049SOL    HW2 6150   2.571   1.874   4.232
 2050SOL     OW 6151   3.387   2.861   3.914
 2050SOL    HW1 6152   3.324   2.785   3.927
 2050SOL    HW2 6153   3.435   2.879   4.000
 2051SOL     OW 6154   2.460   2.591   3.994
 2051SOL    HW1 6155   2.484   2.660   3.926
 2051SOL    HW2 6156   2.382   2.624   4.048
 2052SOL     OW 6157   3.438   3.524   4.031
 2052SOL    HW1 6158   3.527   3.570   4.034
 2052SOL    HW2 6159   3.417   3.500   3.936
 2053SOL     OW 6160   2.727   2.210   3.919
 2053SOL    HW1 6161   2.786   2.273   3.870
 2053SOL    HW2 6162   2.746   2.116   3.890
 2054SOL     OW 6163   2.183   2.805   3.966
 2054SOL    HW1 6164   2.265   2.844   3.924
 2054SOL    HW2 6165   2.156   2.723   3.917
 2055SOL     OW 6166   2.973   3.638   3.961
 2055SOL    HW1 6167   2.913   3.576   4.011
 2055SOL    HW2 6168   3.004   3.594   3.876
 2056SOL     OW 6169   3.494   3.239   3.805
 2056SOL    HW1 6170   3.462   3.333   3.795
 2056SOL    HW2 6171   3.418   3.176   3.793
 2057SOL     OW 6172   2.326   3.605   4.047
 2057SOL    HW1 6173   2.359   3.644   4.133
 2057SOL    HW2 6174   2.402   3.598   3.982
 2058SOL     OW 6175   3.262   1.969   4.150
 2058SOL    HW1 6176   3.238   1.932   4.060
 2058SOL    HW2 6177   3.361   1.985   4.154
 2059SOL     OW 6178   2.244   2.562   4.204
 2059SOL    HW1 6179   2.289   2.472   4.201
 2059SOL    HW2 6180   2.150   2.551   4.237
 2060SOL     OW 6181   2.476   1.984   3.841
 2060SOL    HW1 6182   2.574   1.962   3.848
 2060SOL    HW2 6183   2.445   1.967   3.748
 2061SOL     OW 6184   3.296   3.050   3.765
 2061SOL    HW1 6185   3.328   2.974   3.822
 2061SOL    HW2 6186   3.204   3.077   3.795
 2062SOL     OW 6187   2.159   1.897   3.895
 2062SOL    HW1 6188   2.208   1.981   3.874
 2062SOL    HW2 6189   2.221   1.832   3.940
 2063SOL     OW 6190   2.797   2.098   4.204
 2063SOL    HW1 6191   2.749   2.139   4.126
 2063SOL    HW2 6192   2.896   2.096   4.185
 2064SOL     OW 6193   2.321   3.014   4.465
 2064SOL    HW1 6194   2.250   2.987   4.530
 2064SOL    HW2 6195   2.295   2.986   4.372
 2065SOL     OW 6196   2.894   2.411   3.740
 2065SOL    HW1 6197   2.853   2.493   3.701
 2065SOL    HW2 6198   2.958   2.437   3.813
 2066SOL     OW 6199   3.719   2.695   4.101
 2066SOL    HW1 6200   3.761   2.631   4.165
 2066SOL    HW2 6201   3.681   2.644   4.023
 2067SOL     OW 6202   2.350   3.247   3.898
 2067SOL    HW1 6203   2.263   3.232   3.945
 2067SOL    HW2 6204   2.333   3.273   3.803
 2068SOL     OW 6205   3.252   2.437   3.802
 2068SOL    HW1 6206   3.198   2.416   3.883
 2068SOL    HW2 6207   3.343   2.396   3.811
 2069SOL     OW 6208   2.389   2.118   4.052
 2069SOL    HW1 6209   2.416   2.059   3.977
 2069SOL    HW2 6210   2.389   2.213   4.021
 2070SOL     OW 6211   2.567   2.912   4.092
 2070SOL    HW1 6212   2.553   2.919   4.191
 2070SOL    HW2 6213   2.651   2.861   4.074
 2071SOL     OW 6214   2.229   2.962   4.225
 2071SOL    HW1 6215   2.222   3.045   4.169
 2071SOL    HW2 6216   2.233   2.882   4.165
 2072SOL     OW 6217   3.114   3.210   4.112
 2072SOL    HW1 6218   3.164   3.287   4.152
 2072SOL    HW2 6219   3.019   3.212   4.144
 2073SOL     OW 6220   3.444   2.501   4.196
 2073SOL    HW1 6221   3.413   2.562   4.269
 2073SOL    HW2 6222   3.494   2.553   4.127
 2074SOL     OW 6223   3.071   2.387   3.999
 2074SOL    HW1 6224   3.084   2.303   4.053
 2074SOL    HW2 6225   3.042   2.461   4.059
 2075SOL     OW 6226   3.484   2.229   4.098
 2075SOL    HW1 6227   3.486   2.153   4.162
 2075SOL    HW2 6228   3.436   2.306   4.138
 2076SOL     OW 6229   3.402   2.136   3.849
 2076SOL    HW1 6230   3.341   2.061   3.872
 2076SOL    HW2 6231   3.424   2.188   3.932
 2077SOL     OW 6232   3.165   2.700   3.766
 2077SOL    HW1 6233   3.199   2.607   3.781
 2077SOL    HW2 6234   3.183   2.727   3.671
 2078SOL     OW 6235   1.870   3.188   3.924
 2078SOL    HW1 6236   1.777   3.209   3.893
 2078SOL    HW2 6237   1.880   3.089   3.937
 2079SOL     OW 6238   2.677   2.434   4.049
 2079SOL    HW1 6239   2.684   2.345   4.003
 2079SOL    HW2 6240   2.583   2.468   4.041
 2080SOL     OW 6241   2.335   2.362   3.915
 2080SOL    HW1 6242   2.396   2.442   3.919
 2080SOL    HW2 6243   2.240   2.393   3.922
 2081SOL     OW 6244   3.164   2.717   4.033
 2081SOL    HW1 6245   3.078   2.686   4.075
 2081SOL    HW2 6246   3.160   2.703   3.934
 2082SOL     OW 6247   3.588   1.997   4.247
 2082SOL    HW1 6248   3.661   1.980   4.180
 2082SOL    HW2 6249   3.557   1.910   4.285
 2083SOL     OW 6250   3.250   3.435   4.201
 2083SOL    HW1 6251   3.317   3.447   4.127
 2083SOL    HW2 6252   3.210   3.524   4.224
 2084SOL     OW 6253   2.534   3.478   3.878
 2084SOL    HW1 6254   2.543   3.488   3.779
 2084SOL    HW2 6255   2.494   3.389   3.899
 2085SOL     OW 6256   3.056   3.474   3.755
 2085SOL    HW1 6257   3.062   3.381   3.792
 2085SOL    HW2 6258   2.997   3.474   3.675
 2086SOL     OW 6259   2.778   2.772   4.015
 2086SOL    HW1 6260   2.841   2.810   3.947
 2086SOL    HW2 6261   2.818   2.689   4.054
 2087SOL     OW 6262   3.366   3.469   3.768
 2087SOL    HW1 6263   3.274   3.506   3.775
 2087SOL    HW2 6264   3.404   3.489   3.678
 2088SOL     OW 6265   2.452   3.349   4.215
 2088SOL    HW1 6266   2.494   3.291   4.145
 2088SOL    HW2 6267   2.408   3.428   4.171
 2089SOL     OW 6268   2.117   3.210   4.014
 2089SOL    HW1 6269   2.021   3.211   3.987
 2089SOL    HW2 6270   2.129   3.263   4.098
 2090SOL     OW 6271   1.937   2.207   3.757
 2090SOL    HW1 6272   1.845   2.179   3.728
 2090SOL    HW2 6273   1.968   2.284   3.701
 2091SOL     OW 6274   1.934   2.028   4.042
 2091SOL    HW1 6275   1.917   2.111   3.988
 2091SOL    HW2 6276   2.024   1.991   4.020
 2092SOL     OW 6277   3.045   3.197   3.843
 2092SOL    HW1 6278   2.946   3.186   3.845
 2092SOL    HW2 6279   3.079   3.212   3.936
 2093SOL     OW 6280   3.087   2.187   4.173
 2093SOL    HW1 6281   3.152   2.113   4.162
 2093SOL    HW2 6282   3.107   2.237   4.257
 2094SOL     OW 6283   2.721   3.236   3.740
 2094SOL    HW1 6284   2.675   3.251   3.828
 2094SOL    HW2 6285   2.765   3.321   3.710
 2095SOL     OW 6286   2.945   2.846   3.811
 2095SOL    HW1 6287   2.922   2.899   3.729
 2095SOL    HW2 6288   3.026   2.790   3.792
 2096SOL     OW 6289   2.290   2.286   4.244
 2096SOL    HW1 6290   2.320   2.214   4.182
 2096SOL    HW2 6291   2.251   2.246   4.327
 2097SOL     OW 6292   2.632   3.192   4.025
 2097SOL    HW1 6293   2.586   3.105   4.042
 2097SOL    HW2 6294   2.723   3.189   4.066
 2098SOL     OW 6295   3.214   1.914   3.892
 2098SOL    HW1 6296   3.249   1.873   3.808
 2098SOL    HW2 6297   3.124   1.876   3.912
 2099SOL     OW 6298   1.901   2.939   4.024
 2099SOL    HW1 6299   2.000   2.928   4.015
 2099SOL    HW2 6300   1.861   2.853   4.056
 2100SOL     OW 6301   2.737   3.508   4.061
 2100SOL    HW1 6302   2.660   3.473   4.007
 2100SOL    HW2 6303   2.705   3.579   4.123
 2101SOL     OW 6304   2.087   3.999   0.996
 2101SOL    HW1 6305   2.122   3.982   1.088
 2101SOL    HW2 6306   1.999   3.954   0.984
 2102SOL     OW 6307   1.881   4.092   0.647
 2102SOL    HW1 6308   1.799   4.135   0.686
 2102SOL    HW2 6309   1.853   4.019   0.584
 2103SOL     OW 6310   3.617   4.331   0.231
 2103SOL    HW1 6311   3.605   4.318   0.132
 2103SOL    HW2 6312   3.587   4.250   0.280
 2104SOL     OW 6313   2.300   4.116   1.499
 2104SOL    HW1 6314   2.382   4.060   1.508
 2104SOL    HW2 6315   2.219   4.058   1.503
 2105SOL     OW 6316   3.465   4.171   0.737
 2105SOL    HW1 6317   3.391   4.217   0.687
 2105SOL    HW2 6318   3.516   4.239   0.790
 2106SOL     OW 6319   3.456   3.838   1.480
 2106SOL    HW1 6320   3.438   3.905   1.408
 2106SOL    HW2 6321   3.453   3.884   1.569
 2107SOL     OW 6322   1.984   4.367   0.563
 2107SOL    HW1 6323   1.939   4.279   0.580
 2107SOL    HW2 6324   1.983   4.421   0.647
 2108SOL     OW 6325   2.671   3.728   0.502
 2108SOL    HW1 6326   2.711   3.819   0.493
 2108SOL    HW2 6327   2.571   3.736   0.508
 2109SOL     OW 6328   2.179   3.975   1.801
 2109SOL    HW1 6329   2.250   4.046   1.807
 2109SOL    HW2 6330   2.091   4.014   1.829
 2110SOL     OW 6331   3.143   4.069   0.944
 2110SOL    HW1 6332   3.057   4.019   0.931
 2110SOL    HW2 6333   3.205   4.015   1.000
 2111SOL     OW 6334   3.256   4.193   1.674
 2111SOL    HW1 6335   3.236   4.236   1.762
 2111SOL    HW2 6336   3.334   4.131   1.683
 2112SOL     OW 6337   2.853   4.134   1.242
 2112SOL    HW1 6338   2.776   4.168   1.296
 2112SOL    HW2 6339   2.819   4.083   1.163
 2113SOL     OW 6340   2.727   4.072   0.195
 2113SOL    HW1 6341   2.786   4.135   0.146
 2113SOL    HW2 6342   2.746   3.978   0.166
 2114SOL     OW 6343   3.581   4.309   1.831
 2114SOL    HW1 6344   3.555   4.398   1.795
 2114SOL    HW2 6345   3.579   4.241   1.758
 2115SOL     OW 6346   2.412   3.920   0.885
 2115SOL    HW1 6347   2.407   3.915   0.985
 2115SOL    HW2 6348   2.414   4.016   0.856
 2116SOL     OW 6349   2.064   4.009   1.498
 2116SOL    HW1 6350   1.984   4.069   1.485
 2116SOL    HW2 6351   2.054   3.960   1.584
 2117SOL     OW 6352   3.262   3.831   0.426
 2117SOL    HW1 6353   3.238   3.794   0.336
 2117SOL    HW2 6354   3.361   3.847   0.430
 2118SOL     OW 6355   3.409   3.946   1.729
 2118SOL    HW1 6356   3.404   3.983   1.821
 2118SOL    HW2 6357   3.337   3.877   1.717
 2119SOL     OW 6358   2.476   3.846   0.117
 2119SOL    HW1 6359   2.574   3.824   0.124
 2119SOL    HW2 6360   2.445   3.829   0.024
 2120SOL     OW 6361   2.643   3.988   1.749
 2120SOL    HW1 6362   2.710   3.927   1.792
 2120SOL    HW2 6363   2.570   4.007   1.814
 2121SOL     OW 6364   3.213   4.314   1.433
 2121SOL    HW1 6365   3.241   4.271   1.518
 2121SOL    HW2 6366   3.238   4.410   1.434
 2122SOL     OW 6367   2.401   3.788   0.512
 2122SOL    HW1 6368   2.320   3.789   0.570
 2122SOL    HW2 6369   2.404   3.871   0.457
 2123SOL     OW 6370   2.159   3.759   0.171
 2123SOL    HW1 6371   2.208   3.843   0.150
 2123SOL    HW2 6372   2.221   3.694   0.216
 2124SOL     OW 6373   2.797   3.960   0.480
 2124SOL    HW1 6374   2.749   4.001   0.402
 2124SOL    HW2 6375   2.896   3.958   0.461
 2125SOL     OW 6376   1.940   4.280   1.386
 2125SOL    HW1 6377   2.032   4.279   1.345
 2125SOL    HW2 6378   1.934   4.354   1.453
 2126SOL     OW 6379   2.423   3.946   1.147
 2126SOL    HW1 6380   2.461   3.862   1.184
 2126SOL    HW2 6381   2.335   3.965   1.191
 2127SOL     OW 6382   2.879   3.763   0.753
 2127SOL    HW1 6383   2.807   3.768   0.684
 2127SOL    HW2 6384   2.855   3.694   0.822
 2128SOL     OW 6385   3.328   4.314   0.992
 2128SOL    HW1 6386   3.298   4.219   0.999
 2128SOL    HW2 6387   3.401   4.330   1.058
 2129SOL     OW 6388   2.389   3.980   0.328
 2129SOL    HW1 6389   2.416   3.921   0.253
 2129SOL    HW2 6390   2.389   4.075   0.297
 2130SOL     OW 6391   2.777   3.813   1.402
 2130SOL    HW1 6392   2.802   3.793   1.307
 2130SOL    HW2 6393   2.849   3.869   1.444
 2131SOL     OW 6394   3.136   4.110   1.262
 2131SOL    HW1 6395   3.157   4.184   1.326
 2131SOL    HW2 6396   3.047   4.127   1.219
 2132SOL     OW 6397   2.428   4.261   0.865
 2132SOL    HW1 6398   2.440   4.327   0.791
 2132SOL    HW2 6399   2.474   4.295   0.948
 2133SOL     OW 6400   2.875   3.829   1.770
 2133SOL    HW1 6401   2.881   3.914   1.718
 2133SOL    HW2 6402   2.907   3.753   1.713
 2134SOL     OW 6403   2.366   3.774   1.740
 2134SOL    HW1 6404   2.324   3.717   1.670
 2134SOL    HW2 6405   2.300   3.843   1.772
 2135SOL     OW 6406   2.169   3.937   1.231
 2135SOL    HW1 6407   2.146   3.974   1.321
 2135SOL    HW2 6408   2.139   3.842   1.225
 2136SOL     OW 6409   2.594   4.358   1.064
 2136SOL    HW1 6410   2.653   4.332   0.988
 2136SOL    HW2 6411   2.566   4.454   1.053
 2137SOL     OW 6412   2.169   3.787   0.618
 2137SOL    HW1 6413   2.158   3.881   0.651
 2137SOL    HW2 6414   2.164   3.724   0.695
 2138SOL     OW 6415   3.484   4.091   0.374
 2138SOL    HW1 6416   3.486   4.015   0.438
 2138SOL    HW2 6417   3.436   4.168   0.414
 2139SOL     OW 6418   3.402   3.998   0.125
 2139SOL    HW1 6419   3.341   3.923   0.148
 2139SOL    HW2 6420   3.424   4.050   0.208
 2140SOL     OW 6421   2.201   4.233   1.006
 2140SOL    HW1 6422   2.149   4.150   0.989
 2140SOL    HW2 6423   2.278   4.238   0.942
 2141SOL     OW 6424   3.000   4.104   1.678
 2141SOL    HW1 6425   2.955   4.167   1.742
 2141SOL    HW2 6426   3.093   4.135   1.661
 2142SOL     OW 6427   3.022   3.931   1.477
 2142SOL    HW1 6428   3.022   3.995   1.554
 2142SOL    HW2 6429   3.050   3.979   1.394
 2143SOL     OW 6430   2.864   4.520   1.238
 2143SOL    HW1 6431   2.905   4.488   1.324
 2143SOL    HW2 6432   2.768   4.493   1.235
 2144SOL     OW 6433   1.902   4.268   1.114
 2144SOL    HW1 6434   1.987   4.235   1.073
 2144SOL    HW2 6435   1.915   4.283   1.212
 2145SOL     OW 6436   2.051   4.244   1.722
 2145SOL    HW1 6437   2.110   4.204   1.652
 2145SOL    HW2 6438   1.993   4.315   1.681
 2146SOL     OW 6439   2.677   4.296   0.325
 2146SOL    HW1 6440   2.684   4.207   0.279
 2146SOL    HW2 6441   2.583   4.330   0.317
 2147SOL     OW 6442   3.519   4.328   1.206
 2147SOL    HW1 6443   3.481   4.259   1.268
 2147SOL    HW2 6444   3.601   4.292   1.162
 2148SOL     OW 6445   2.533   4.188   1.269
 2148SOL    HW1 6446   2.499   4.099   1.239
 2148SOL    HW2 6447   2.559   4.242   1.189
 2149SOL     OW 6448   2.765   3.810   0.133
 2149SOL    HW1 6449   2.816   3.811   0.047
 2149SOL    HW2 6450   2.821   3.768   0.204
 2150SOL     OW 6451   3.588   3.859   0.523
 2150SOL    HW1 6452   3.661   3.842   0.456
 2150SOL    HW2 6453   3.557   3.772   0.561
 2151SOL     OW 6454   3.703   3.899   0.963
 2151SOL    HW1 6455   3.742   3.814   0.927
 2151SOL    HW2 6456   3.605   3.901   0.944
 2152SOL     OW 6457   2.125   4.050   0.720
 2152SOL    HW1 6458   2.046   4.101   0.686
 2152SOL    HW2 6459   2.116   4.035   0.818
 2153SOL     OW 6460   2.876   3.960   0.971
 2153SOL    HW1 6461   2.868   3.924   0.878
 2153SOL    HW2 6462   2.874   3.884   1.036
 2154SOL     OW 6463   3.571   4.109   1.381
 2154SOL    HW1 6464   3.644   4.178   1.385
 2154SOL    HW2 6465   3.599   4.034   1.322
 2155SOL     OW 6466   2.534   3.927   1.489
 2155SOL    HW1 6467   2.624   3.911   1.449
 2155SOL    HW2 6468   2.542   3.932   1.588
 2156SOL     OW 6469   1.937   4.069   0.033
 2156SOL    HW1 6470   1.845   4.041   0.004
 2156SOL    HW2 6471   1.968   4.146  -0.023
 2157SOL     OW 6472   1.934   3.890   0.318
 2157SOL    HW1 6473   1.917   3.973   0.264
 2157SOL    HW2 6474   2.024   3.853   0.296
 2158SOL     OW 6475   2.578   4.289   1.708
 2158SOL    HW1 6476   2.597   4.354   1.782
 2158SOL    HW2 6477   2.638   4.209   1.717
 2159SOL     OW 6478   3.087   4.049   0.449
 2159SOL    HW1 6479   3.152   3.975   0.438
 2159SOL    HW2 6480   3.107   4.099   0.533
 2160SOL     OW 6481   3.639   4.066   1.642
 2160SOL    HW1 6482   3.622   4.097   1.548
 2160SOL    HW2 6483   3.555   4.029   1.680
 2161SOL     OW 6484   3.686   3.916   1.227
 2161SOL    HW1 6485   3.682   3.826   1.271
 2161SOL    HW2 6486   3.689   3.905   1.128
 2162SOL     OW 6487   2.290   4.148   0.520
 2162SOL    HW1 6488   2.320   4.076   0.458
 2162SOL    HW2 6489   2.251   4.108   0.603
 2163SOL     OW 6490   2.179   4.271   1.280
 2163SOL    HW1 6491   2.217   4.212   1.352
 2163SOL    HW2 6492   2.219   4.245   1.192
 2164SOL     OW 6493   3.286   3.938   1.112
 2164SOL    HW1 6494   3.338   3.873   1.167
 2164SOL    HW2 6495   3.237   4.001   1.173
 2165SOL     OW 6496   2.863   3.758   1.154
 2165SOL    HW1 6497   2.800   3.686   1.123
 2165SOL    HW2 6498   2.956   3.722   1.154
 2166SOL     OW 6499   3.214   3.776   0.168
 2166SOL    HW1 6500   3.249   3.735   0.084
 2166SOL    HW2 6501   3.124   3.738   0.188
 2167SOL     OW 6502   3.162   4.177   0.691
 2167SOL    HW1 6503   3.103   4.257   0.695
 2167SOL    HW2 6504   3.177   4.142   0.784
 2168SOL     OW 6505   3.455   3.945   0.882
 2168SOL    HW1 6506   3.371   3.944   0.936
 2168SOL    HW2 6507   3.457   4.028   0.826
 2169SOL     OW 6508   2.087   3.999   2.858
 2169SOL    HW1 6509   2.122   3.982   2.950
 2169SOL    HW2 6510   1.999   3.954   2.846
 2170SOL     OW 6511   1.881   4.092   2.509
 2170SOL    HW1 6512   1.799   4.135   2.548
 2170SOL    HW2 6513   1.853   4.019   2.446
 2171SOL     OW 6514   3.617   4.331   2.093
 2171SOL    HW1 6515   3.605   4.318   1.994
 2171SOL    HW2 6516   3.587   4.250   2.142
 2172SOL     OW 6517   2.300   4.116   3.361
 2172SOL    HW1 6518   2.382   4.060   3.370
 2172SOL    HW2 6519   2.219   4.058   3.365
 2173SOL     OW 6520   3.465   4.171   2.599
 2173SOL    HW1 6521   3.391   4.217   2.549
 2173SOL    HW2 6522   3.516   4.239   2.652
 2174SOL     OW 6523   3.456   3.838   3.342
 2174SOL    HW1 6524   3.438   3.905   3.270
 2174SOL    HW2 6525   3.453   3.884   3.431
 2175SOL     OW 6526   1.984   4.367   2.425
 2175SOL    HW1 6527   1.939   4.279   2.442
 2175SOL    HW2 6528   1.983   4.421   2.509
 2176SOL     OW 6529   2.671   3.728   2.364
 2176SOL    HW1 6530   2.711   3.819   2.355
 2176SOL    HW2 6531   2.571   3.736   2.370
 2177SOL     OW 6532   2.179   3.975   3.663
 2177SOL    HW1 6533   2.250   4.046   3.669
 2177SOL    HW2 6534   2.091   4.014   3.691
 2178SOL     OW 6535   3.143   4.069   2.806
 2178SOL    HW1 6536   3.057   4.019   2.793
 2178SOL    HW2 6537   3.205   4.015   2.862
 2179SOL     OW 6538   3.256   4.193   3.536
 2179SOL    HW1 6539   3.236   4.236   3.624
 2179SOL    HW2 6540   3.334   4.131   3.545
 2180SOL     OW 6541   2.853   4.134   3.104
 2180SOL    HW1 6542   2.776   4.168   3.158
 2180SOL    HW2 6543   2.819   4.083   3.025
 2181SOL     OW 6544   2.727   4.072   2.057
 2181SOL    HW1 6545   2.786   4.135   2.008
 2181SOL    HW2 6546   2.746   3.978   2.028
 2182SOL     OW 6547   3.581   4.309   3.693
 2182SOL    HW1 6548   3.555   4.398   3.657
 2182SOL    HW2 6549   3.579   4.241   3.620
 2183SOL     OW 6550   2.412   3.920   2.747
 2183SOL    HW1 6551   2.407   3.915   2.847
 2183SOL    HW2 6552   2.414   4.016   2.718
 2184SOL     OW 6553   2.064   4.009   3.360
 2184SOL    HW1 6554   1.984   4.069   3.347
 2184SOL    HW2 6555   2.054   3.960   3.446
 2185SOL     OW 6556   3.262   3.831   2.288
 2185SOL    HW1 6557   3.238   3.794   2.198
 2185SOL    HW2 6558   3.361   3.847   2.292
 2186SOL     OW 6559   3.409   3.946   3.591
 2186SOL    HW1 6560   3.404   3.983   3.683
 2186SOL    HW2 6561   3.337   3.877   3.579
 2187SOL     OW 6562   2.476   3.846   1.979
 2187SOL    HW1 6563   2.574   3.824   1.986
 2187SOL    HW2 6564   2.445   3.829   1.886
 2188SOL     OW 6565   2.643   3.988   3.611
 2188SOL    HW1 6566   2.710   3.927   3.654
 2188SOL    HW2 6567   2.570   4.007   3.676
 2189SOL     OW 6568   3.213   4.314   3.295
 2189SOL    HW1 6569   3.241   4.271   3.380
 2189SOL    HW2 6570   3.238   4.410   3.296
 2190SOL     OW 6571   2.401   3.788   2.374
 2190SOL    HW1 6572   2.320   3.789   2.432
 2190SOL    HW2 6573   2.404   3.871   2.319
 2191SOL     OW 6574   2.159   3.759   2.033
 2191SOL    HW1 6575   2.208   3.843   2.012
 2191SOL    HW2 6576   2.221   3.694   2.078
 2192SOL     OW 6577   2.797   3.960   2.342
 2192SOL    HW1 6578   2.749   4.001   2.264
 2192SOL    HW2 6579   2.896   3.958   2.323
 2193SOL     OW 6580   1.940   4.280   3.248
 2193SOL    HW1 6581   2.032   4.279   3.207
 2193SOL    HW2 6582   1.934   4.354   3.315
 2194SOL     OW 6583   2.423   3.946   3.009
 2194SOL    HW1 6584   2.461   3.862   3.046
 2194SOL    HW2 6585   2.335   3.965   3.053
 2195SOL     OW 6586   2.879   3.763   2.615
 2195SOL    HW1 6587   2.807   3.768   2.546
 2195SOL    HW2 6588   2.855   3.694   2.684
 2196SOL     OW 6589   3.328   4.314   2.854
 2196SOL    HW1 6590   3.298   4.219   2.861
 2196SOL    HW2 6591   3.401   4.330   2.920
 2197SOL     OW 6592   2.389   3.980   2.190
 2197SOL    HW1 6593   2.416   3.921   2.115
 2197SOL    HW2 6594   2.389   4.075   2.159
 2198SOL     OW 6595   2.777   3.813   3.264
 2198SOL    HW1 6596   2.802   3.793   3.169
 2198SOL    HW2 6597   2.849   3.869   3.306
 2199SOL     OW 6598   3.136   4.110   3.124
 2199SOL    HW1 6599   3.157   4.184   3.188
 2199SOL    HW2 6600   3.047   4.127   3.081
 2200SOL     OW 6601   2.428   4.261   2.727
 2200SOL    HW1 6602   2.440   4.327   2.653
 2200SOL    HW2 6603   2.474   4.295   2.810
 2201SOL     OW 6604   2.875   3.829   3.632
 2201SOL    HW1 6605   2.881   3.914   3.580
 2201SOL    HW2 6606   2.907   3.753   3.575
 2202SOL     OW 6607   2.366   3.774   3.602
 2202SOL    HW1 6608   2.324   3.717   3.532
 2202SOL    HW2 6609   2.300   3.843   3.634
 2203SOL     OW 6610   2.169   3.937   3.093
 2203SOL    HW1 6611   2.146   3.974   3.183
 2203SOL    HW2 6612   2.139   3.842   3.087
 2204SOL     OW 6613   2.594   4.358   2.926
 2204SOL    HW1 6614   2.653   4.332   2.850
 2204SOL    HW2 6615   2.566   4.454   2.915
 2205SOL     OW 6616   2.169   3.787   2.480
 2205SOL    HW1 6617   2.158   3.881   2.513
 2205SOL    HW2 6618   2.164   3.724   2.557
 2206SOL     OW 6619   3.484   4.091   2.236
 2206SOL    HW1 6620   3.486   4.015   2.300
 2206SOL    HW2 6621   3.436   4.168   2.276
 2207SOL     OW 6622   3.402   3.998   1.987
 2207SOL    HW1 6623   3.341   3.923   2.010
 2207SOL    HW2 6624   3.424   4.050   2.070
 2208SOL     OW 6625   3.165   4.562   1.904
 2208SOL    HW1 6626   3.199   4.469   1.919
 2208SOL    HW2 6627   3.183   4.589   1.809
 2209SOL     OW 6628   2.201   4.233   2.868
 2209SOL    HW1 6629   2.149   4.150   2.851
 2209SOL    HW2 6630   2.278   4.238   2.804
 2210SOL     OW 6631   3.000   4.104   3.540
 2210SOL    HW1 6632   2.955   4.167   3.604
 2210SOL    HW2 6633   3.093   4.135   3.523
 2211SOL     OW 6634   3.022   3.931   3.339
 2211SOL    HW1 6635   3.022   3.995   3.416
 2211SOL    HW2 6636   3.050   3.979   3.256
 2212SOL     OW 6637   2.864   4.520   3.100
 2212SOL    HW1 6638   2.905   4.488   3.186
 2212SOL    HW2 6639   2.768   4.493   3.097
 2213SOL     OW 6640   1.902   4.268   2.976
 2213SOL    HW1 6641   1.987   4.235   2.935
 2213SOL    HW2 6642   1.915   4.283   3.074
 2214SOL     OW 6643   2.051   4.244   3.584
 2214SOL    HW1 6644   2.110   4.204   3.514
 2214SOL    HW2 6645   1.993   4.315   3.543
 2215SOL     OW 6646   2.677   4.296   2.187
 2215SOL    HW1 6647   2.684   4.207   2.141
 2215SOL    HW2 6648   2.583   4.330   2.179
 2216SOL     OW 6649   3.519   4.328   3.068
 2216SOL    HW1 6650   3.481   4.259   3.130
 2216SOL    HW2 6651   3.601   4.292   3.024
 2217SOL     OW 6652   2.533   4.188   3.131
 2217SOL    HW1 6653   2.499   4.099   3.101
 2217SOL    HW2 6654   2.559   4.242   3.051
 2218SOL     OW 6655   3.588   3.859   2.385
 2218SOL    HW1 6656   3.661   3.842   2.318
 2218SOL    HW2 6657   3.557   3.772   2.423
 2219SOL     OW 6658   3.703   3.899   2.825
 2219SOL    HW1 6659   3.742   3.814   2.789
 2219SOL    HW2 6660   3.605   3.901   2.806
 2220SOL     OW 6661   2.125   4.050   2.582
 2220SOL    HW1 6662   2.046   4.101   2.548
 2220SOL    HW2 6663   2.116   4.035   2.680
 2221SOL     OW 6664   2.876   3.960   2.833
 2221SOL    HW1 6665   2.868   3.924   2.740
 2221SOL    HW2 6666   2.874   3.884   2.898
 2222SOL     OW 6667   3.571   4.109   3.243
 2222SOL    HW1 6668   3.644   4.178   3.247
 2222SOL    HW2 6669   3.599   4.034   3.184
 2223SOL     OW 6670   2.534   3.927   3.351
 2223SOL    HW1 6671   2.624   3.911   3.311
 2223SOL    HW2 6672   2.542   3.932   3.450
 2224SOL     OW 6673   1.937   4.069   1.895
 2224SOL    HW1 6674   1.845   4.041   1.866
 2224SOL    HW2 6675   1.968   4.146   1.839
 2225SOL     OW 6676   1.934   3.890   2.180
 2225SOL    HW1 6677   1.917   3.973   2.126
 2225SOL    HW2 6678   2.024   3.853   2.158
 2226SOL     OW 6679   2.578   4.289   3.570
 2226SOL    HW1 6680   2.597   4.354   3.644
 2226SOL    HW2 6681   2.638   4.209   3.579
 2227SOL     OW 6682   3.087   4.049   2.311
 2227SOL    HW1 6683   3.152   3.975   2.300
 2227SOL    HW2 6684   3.107   4.099   2.395
 2228SOL     OW 6685   3.639   4.066   3.504
 2228SOL    HW1 6686   3.622   4.097   3.410
 2228SOL    HW2 6687   3.555   4.029   3.542
 2229SOL     OW 6688   3.686   3.916   3.089
 2229SOL    HW1 6689   3.682   3.826   3.133
 2229SOL    HW2 6690   3.689   3.905   2.990
 2230SOL     OW 6691   2.290   4.148   2.382
 2230SOL    HW1 6692   2.320   4.076   2.320
 2230SOL    HW2 6693   2.251   4.108   2.465
 2231SOL     OW 6694   2.179   4.271   3.142
 2231SOL    HW1 6695   2.217   4.212   3.214
 2231SOL    HW2 6696   2.219   4.245   3.054
 2232SOL     OW 6697   3.286   3.938   2.974
 2232SOL    HW1 6698   3.338   3.873   3.029
 2232SOL    HW2 6699   3.237   4.001   3.035
 2233SOL     OW 6700   2.863   3.758   3.016
 2233SOL    HW1 6701   2.800   3.686   2.985
 2233SOL    HW2 6702   2.956   3.722   3.016
 2234SOL     OW 6703   3.214   3.776   2.030
 2234SOL    HW1 6704   3.249   3.735   1.946
 2234SOL    HW2 6705   3.124   3.738   2.050
 2235SOL     OW 6706   3.162   4.177   2.553
 2235SOL    HW1 6707   3.103   4.257   2.557
 2235SOL    HW2 6708   3.177   4.142   2.646
 2236SOL     OW 6709   3.455   3.945   2.744
 2236SOL    HW1 6710   3.371   3.944   2.798
 2236SOL    HW2 6711   3.457   4.028   2.688
 2237SOL     OW 6712   2.997   4.427   4.441
 2237SOL    HW1 6713   3.054   4.505   4.416
 2237SOL    HW2 6714   2.937   4.453   4.517
 2238SOL     OW 6715   3.617   4.331   3.955
 2238SOL    HW1 6716   3.605   4.318   3.856
 2238SOL    HW2 6717   3.587   4.250   4.004
 2239SOL     OW 6718   1.984   4.367   4.287
 2239SOL    HW1 6719   1.939   4.279   4.304
 2239SOL    HW2 6720   1.983   4.421   4.371
 2240SOL     OW 6721   2.671   3.728   4.226
 2240SOL    HW1 6722   2.711   3.819   4.217
 2240SOL    HW2 6723   2.571   3.736   4.232
 2241SOL     OW 6724   2.727   4.072   3.919
 2241SOL    HW1 6725   2.786   4.135   3.870
 2241SOL    HW2 6726   2.746   3.978   3.890
 2242SOL     OW 6727   3.262   3.831   4.150
 2242SOL    HW1 6728   3.238   3.794   4.060
 2242SOL    HW2 6729   3.361   3.847   4.154
 2243SOL     OW 6730   2.244   4.424   4.204
 2243SOL    HW1 6731   2.289   4.334   4.201
 2243SOL    HW2 6732   2.150   4.413   4.237
 2244SOL     OW 6733   2.476   3.846   3.841
 2244SOL    HW1 6734   2.574   3.824   3.848
 2244SOL    HW2 6735   2.445   3.829   3.748
 2245SOL     OW 6736   2.159   3.759   3.895
 2245SOL    HW1 6737   2.208   3.843   3.874
 2245SOL    HW2 6738   2.221   3.694   3.940
 2246SOL     OW 6739   2.797   3.960   4.204
 2246SOL    HW1 6740   2.749   4.001   4.126
 2246SOL    HW2 6741   2.896   3.958   4.185
 2247SOL     OW 6742   2.389   3.980   4.052
 2247SOL    HW1 6743   2.416   3.921   3.977
 2247SOL    HW2 6744   2.389   4.075   4.021
 2248SOL     OW 6745   3.484   4.091   4.098
 2248SOL    HW1 6746   3.486   4.015   4.162
 2248SOL    HW2 6747   3.436   4.168   4.138
 2249SOL     OW 6748   3.402   3.998   3.849
 2249SOL    HW1 6749   3.341   3.923   3.872
 2249SOL    HW2 6750   3.424   4.050   3.932
 2250SOL     OW 6751   3.165   4.562   3.766
 2250SOL    HW1 6752   3.199   4.469   3.781
 2250SOL    HW2 6753   3.183   4.589   3.671
 2251SOL     OW 6754   2.677   4.296   4.049
 2251SOL    HW1 6755   2.684   4.207   4.003
 2251SOL    HW2 6756   2.583   4.330   4.041
 2252SOL     OW 6757   3.588   3.859   4.247
 2252SOL    HW1 6758   3.661   3.842   4.180
 2252SOL    HW2 6759   3.557   3.772   4.285
 2253SOL     OW 6760   1.937   4.069   3.757
 2253SOL    HW1 6761   1.845   4.041   3.728
 2253SOL    HW2 6762   1.968   4.146   3.701
 2254SOL     OW 6763   1.934   3.890   4.042
 2254SOL    HW1 6764   1.917   3.973   3.988
 2254SOL    HW2 6765   2.024   3.853   4.020
 2255SOL     OW 6766   3.087   4.049   4.173
 2255SOL    HW1 6767   3.152   3.975   4.162
 2255SOL    HW2 6768   3.107   4.099   4.257
 2256SOL     OW 6769   2.290   4.148   4.244
 2256SOL    HW1 6770   2.320   4.076   4.182
 2256SOL    HW2 6771   2.251   4.108   4.327
 2257SOL     OW 6772   3.214   3.776   3.892
 2257SOL    HW1 6773   3.249   3.735   3.808
 2257SOL    HW2 6774   3.124   3.738   3.912
 2258SOL     OW 6775   3.954   0.628   0.113
 2258SOL    HW1 6776   3.861   0.626   0.150
 2258SOL    HW2 6777   3.955   0.589   0.021
 2259SOL     OW 6778   3.949   0.275   0.996
 2259SOL    HW1 6779   3.984   0.258   1.088
 2259SOL    HW2 6780   3.861   0.230   0.984
 2260SOL     OW 6781   3.743   0.368   0.647
 2260SOL    HW1 6782   3.661   0.411   0.686
 2260SOL    HW2 6783   3.715   0.295   0.584
 2261SOL     OW 6784   4.409   1.012   0.665
 2261SOL    HW1 6785   4.478   0.996   0.735
 2261SOL    HW2 6786   4.336   1.069   0.703
 2262SOL     OW 6787   4.059   1.435   1.061
 2262SOL    HW1 6788   3.981   1.404   1.008
 2262SOL    HW2 6789   4.117   1.493   1.004
 2263SOL     OW 6790   4.162   0.392   1.499
 2263SOL    HW1 6791   4.244   0.336   1.508
 2263SOL    HW2 6792   4.081   0.334   1.503
 2264SOL     OW 6793   3.955   1.713   0.483
 2264SOL    HW1 6794   3.989   1.790   0.537
 2264SOL    HW2 6795   3.999   1.713   0.393
 2265SOL     OW 6796   3.954   1.434   0.538
 2265SOL    HW1 6797   3.928   1.530   0.538
 2265SOL    HW2 6798   3.883   1.380   0.583
 2266SOL     OW 6799   3.964   1.091   0.886
 2266SOL    HW1 6800   3.978   1.007   0.938
 2266SOL    HW2 6801   3.909   1.155   0.941
 2267SOL     OW 6802   3.846   0.643   0.563
 2267SOL    HW1 6803   3.801   0.555   0.580
 2267SOL    HW2 6804   3.845   0.697   0.647
 2268SOL     OW 6805   3.751   1.596   0.117
 2268SOL    HW1 6806   3.732   1.500   0.138
 2268SOL    HW2 6807   3.718   1.654   0.192
 2269SOL     OW 6808   3.837   0.737   1.597
 2269SOL    HW1 6809   3.925   0.724   1.642
 2269SOL    HW2 6810   3.824   0.834   1.575
 2270SOL     OW 6811   3.921   0.976   1.264
 2270SOL    HW1 6812   4.010   0.931   1.250
 2270SOL    HW2 6813   3.848   0.911   1.245
 2271SOL     OW 6814   4.041   0.251   1.801
 2271SOL    HW1 6815   4.112   0.322   1.807
 2271SOL    HW2 6816   3.953   0.290   1.829
 2272SOL     OW 6817   4.322   0.729   0.270
 2272SOL    HW1 6818   4.346   0.798   0.202
 2272SOL    HW2 6819   4.244   0.762   0.324
 2273SOL     OW 6820   3.800   0.811   0.789
 2273SOL    HW1 6821   3.899   0.799   0.798
 2273SOL    HW2 6822   3.776   0.906   0.810
 2274SOL     OW 6823   3.854   1.821   1.571
 2274SOL    HW1 6824   3.844   1.806   1.670
 2274SOL    HW2 6825   3.768   1.857   1.535
 2275SOL     OW 6826   4.274   0.196   0.885
 2275SOL    HW1 6827   4.269   0.191   0.985
 2275SOL    HW2 6828   4.276   0.292   0.856
 2276SOL     OW 6829   4.075   1.801   0.853
 2276SOL    HW1 6830   4.125   1.715   0.859
 2276SOL    HW2 6831   4.140   1.878   0.850
 2277SOL     OW 6832   4.045   0.943   0.242
 2277SOL    HW1 6833   4.127   0.982   0.200
 2277SOL    HW2 6834   4.018   0.861   0.193
 2278SOL     OW 6835   4.185   1.266   1.727
 2278SOL    HW1 6836   4.135   1.267   1.641
 2278SOL    HW2 6837   4.122   1.248   1.803
 2279SOL     OW 6838   3.926   0.285   1.498
 2279SOL    HW1 6839   3.846   0.345   1.485
 2279SOL    HW2 6840   3.916   0.236   1.584
 2280SOL     OW 6841   3.973   1.785   1.241
 2280SOL    HW1 6842   4.030   1.720   1.291
 2280SOL    HW2 6843   3.957   1.752   1.148
 2281SOL     OW 6844   4.106   0.700   0.480
 2281SOL    HW1 6845   4.151   0.610   0.477
 2281SOL    HW2 6846   4.012   0.689   0.513
 2282SOL     OW 6847   4.263   0.064   0.512
 2282SOL    HW1 6848   4.182   0.065   0.570
 2282SOL    HW2 6849   4.266   0.147   0.457
 2283SOL     OW 6850   4.021   0.035   0.171
 2283SOL    HW1 6851   4.070   0.119   0.150
 2283SOL    HW2 6852   4.083  -0.030   0.216
 2284SOL     OW 6853   4.183   1.152   0.741
 2284SOL    HW1 6854   4.112   1.125   0.806
 2284SOL    HW2 6855   4.157   1.124   0.648
 2285SOL     OW 6856   3.802   0.556   1.386
 2285SOL    HW1 6857   3.894   0.555   1.345
 2285SOL    HW2 6858   3.796   0.630   1.453
 2286SOL     OW 6859   4.285   0.222   1.147
 2286SOL    HW1 6860   4.323   0.138   1.184
 2286SOL    HW2 6861   4.197   0.241   1.191
 2287SOL     OW 6862   4.134   0.813   1.251
 2287SOL    HW1 6863   4.220   0.825   1.301
 2287SOL    HW2 6864   4.092   0.726   1.278
 2288SOL     OW 6865   3.788   1.564   1.331
 2288SOL    HW1 6866   3.742   1.646   1.297
 2288SOL    HW2 6867   3.886   1.583   1.340
 2289SOL     OW 6868   4.091   1.100   0.501
 2289SOL    HW1 6869   4.084   1.183   0.445
 2289SOL    HW2 6870   4.095   1.020   0.441
 2290SOL     OW 6871   4.290   0.537   0.865
 2290SOL    HW1 6872   4.302   0.603   0.791
 2290SOL    HW2 6873   4.336   0.571   0.948
 2291SOL     OW 6874   4.078   1.510   1.329
 2291SOL    HW1 6875   4.057   1.466   1.242
 2291SOL    HW2 6876   4.175   1.536   1.332
 2292SOL     OW 6877   4.126   0.751   1.598
 2292SOL    HW1 6878   4.194   0.806   1.551
 2292SOL    HW2 6879   4.166   0.663   1.625
 2293SOL     OW 6880   4.228   0.050   1.740
 2293SOL    HW1 6881   4.186  -0.007   1.670
 2293SOL    HW2 6882   4.162   0.119   1.772
 2294SOL     OW 6883   4.297   0.870   1.029
 2294SOL    HW1 6884   4.341   0.959   1.020
 2294SOL    HW2 6885   4.234   0.870   1.106
 2295SOL     OW 6886   4.031   0.213   1.231
 2295SOL    HW1 6887   4.008   0.250   1.321
 2295SOL    HW2 6888   4.001   0.118   1.225
 2296SOL     OW 6889   3.761   1.310   1.282
 2296SOL    HW1 6890   3.814   1.261   1.350
 2296SOL    HW2 6891   3.783   1.408   1.287
 2297SOL     OW 6892   4.031   0.063   0.618
 2297SOL    HW1 6893   4.020   0.157   0.651
 2297SOL    HW2 6894   4.026   0.000   0.695
 2298SOL     OW 6895   4.074   0.898   1.804
 2298SOL    HW1 6896   4.150   0.942   1.852
 2298SOL    HW2 6897   4.109   0.851   1.722
 2299SOL     OW 6898   4.043   0.810   0.949
 2299SOL    HW1 6899   4.136   0.846   0.954
 2299SOL    HW2 6900   4.037   0.725   1.001
 2300SOL     OW 6901   4.063   0.509   1.006
 2300SOL    HW1 6902   4.011   0.426   0.989
 2300SOL    HW2 6903   4.140   0.514   0.942
 2301SOL     OW 6904   3.732   1.326   0.200
 2301SOL    HW1 6905   3.639   1.347   0.169
 2301SOL    HW2 6906   3.742   1.227   0.213
 2302SOL     OW 6907   3.812   1.801   0.927
 2302SOL    HW1 6908   3.770   1.715   0.900
 2302SOL    HW2 6909   3.906   1.804   0.893
 2303SOL     OW 6910   3.764   0.544   1.114
 2303SOL    HW1 6911   3.849   0.511   1.073
 2303SOL    HW2 6912   3.777   0.559   1.212
 2304SOL     OW 6913   3.913   0.520   1.722
 2304SOL    HW1 6914   3.972   0.480   1.652
 2304SOL    HW2 6915   3.855   0.591   1.681
 2305SOL     OW 6916   4.539   0.572   0.325
 2305SOL    HW1 6917   4.546   0.483   0.279
 2305SOL    HW2 6918   4.445   0.606   0.317
 2306SOL     OW 6919   3.976   1.564   1.744
 2306SOL    HW1 6920   3.946   1.621   1.820
 2306SOL    HW2 6921   3.969   1.467   1.770
 2307SOL     OW 6922   4.197   0.500   0.191
 2307SOL    HW1 6923   4.258   0.580   0.195
 2307SOL    HW2 6924   4.102   0.531   0.198
 2308SOL     OW 6925   3.883   1.137   1.466
 2308SOL    HW1 6926   3.905   1.076   1.542
 2308SOL    HW2 6927   3.893   1.088   1.380
 2309SOL     OW 6928   3.807   1.258   1.022
 2309SOL    HW1 6929   3.802   1.257   1.122
 2309SOL    HW2 6930   3.724   1.217   0.984
 2310SOL     OW 6931   3.854   1.794   1.851
 2310SOL    HW1 6932   3.813   1.720   1.904
 2310SOL    HW2 6933   3.918   1.845   1.909
 2311SOL     OW 6934   3.987   0.326   0.720
 2311SOL    HW1 6935   3.908   0.377   0.686
 2311SOL    HW2 6936   3.978   0.311   0.818
 2312SOL     OW 6937   4.096   1.288   1.490
 2312SOL    HW1 6938   4.083   1.381   1.456
 2312SOL    HW2 6939   4.012   1.236   1.477
 2313SOL     OW 6940   4.314   1.487   0.491
 2313SOL    HW1 6941   4.356   1.429   0.421
 2313SOL    HW2 6942   4.270   1.566   0.447
 2314SOL     OW 6943   3.979   1.348   0.290
 2314SOL    HW1 6944   3.883   1.349   0.263
 2314SOL    HW2 6945   3.991   1.401   0.374
 2315SOL     OW 6946   3.829   1.013   1.726
 2315SOL    HW1 6947   3.752   0.980   1.780
 2315SOL    HW2 6948   3.914   0.983   1.768
 2316SOL     OW 6949   3.799   0.345   0.033
 2316SOL    HW1 6950   3.707   0.317   0.004
 2316SOL    HW2 6951   3.830   0.422  -0.023
 2317SOL     OW 6952   3.796   0.166   0.318
 2317SOL    HW1 6953   3.779   0.249   0.264
 2317SOL    HW2 6954   3.886   0.129   0.296
 2318SOL     OW 6955   4.114   1.741   1.560
 2318SOL    HW1 6956   4.023   1.782   1.558
 2318SOL    HW2 6957   4.107   1.647   1.592
 2319SOL     OW 6958   3.945   1.314   1.844
 2319SOL    HW1 6959   3.880   1.241   1.823
 2319SOL    HW2 6960   3.949   1.328   1.942
 2320SOL     OW 6961   3.803   1.240   0.653
 2320SOL    HW1 6962   3.802   1.193   0.741
 2320SOL    HW2 6963   3.885   1.212   0.602
 2321SOL     OW 6964   4.396   1.391   1.624
 2321SOL    HW1 6965   4.318   1.341   1.662
 2321SOL    HW2 6966   4.393   1.486   1.655
 2322SOL     OW 6967   4.152   0.424   0.520
 2322SOL    HW1 6968   4.182   0.352   0.458
 2322SOL    HW2 6969   4.113   0.384   0.603
 2323SOL     OW 6970   4.041   0.547   1.280
 2323SOL    HW1 6971   4.079   0.488   1.352
 2323SOL    HW2 6972   4.081   0.521   1.192
 2324SOL     OW 6973   3.763   1.077   0.300
 2324SOL    HW1 6974   3.862   1.066   0.291
 2324SOL    HW2 6975   3.723   0.991   0.332
 2325SOL     OW 6976   3.954   0.628   1.975
 2325SOL    HW1 6977   3.861   0.626   2.012
 2325SOL    HW2 6978   3.955   0.589   1.883
 2326SOL     OW 6979   3.949   0.275   2.858
 2326SOL    HW1 6980   3.984   0.258   2.950
 2326SOL    HW2 6981   3.861   0.230   2.846
 2327SOL     OW 6982   3.743   0.368   2.509
 2327SOL    HW1 6983   3.661   0.411   2.548
 2327SOL    HW2 6984   3.715   0.295   2.446
 2328SOL     OW 6985   4.409   1.012   2.527
 2328SOL    HW1 6986   4.478   0.996   2.597
 2328SOL    HW2 6987   4.336   1.069   2.565
 2329SOL     OW 6988   4.059   1.435   2.923
 2329SOL    HW1 6989   3.981   1.404   2.870
 2329SOL    HW2 6990   4.117   1.493   2.866
 2330SOL     OW 6991   4.162   0.392   3.361
 2330SOL    HW1 6992   4.244   0.336   3.370
 2330SOL    HW2 6993   4.081   0.334   3.365
 2331SOL     OW 6994   3.955   1.713   2.345
 2331SOL    HW1 6995   3.989   1.790   2.399
 2331SOL    HW2 6996   3.999   1.713   2.255
 2332SOL     OW 6997   3.954   1.434   2.400
 2332SOL    HW1 6998   3.928   1.530   2.400
 2332SOL    HW2 6999   3.883   1.380   2.445
 2333SOL     OW 7000   3.964   1.091   2.748
 2333SOL    HW1 7001   3.978   1.007   2.800
 2333SOL    HW2 7002   3.909   1.155   2.803
 2334SOL     OW 7003   3.846   0.643   2.425
 2334SOL    HW1 7004   3.801   0.555   2.442
 2334SOL    HW2 7005   3.845   0.697   2.509
 2335SOL     OW 7006   3.751   1.596   1.979
 2335SOL    HW1 7007   3.732   1.500   2.000
 2335SOL    HW2 7008   3.718   1.654   2.054
 2336SOL     OW 7009   3.837   0.737   3.459
 2336SOL    HW1 7010   3.925   0.724   3.504
 2336SOL    HW2 7011   3.824   0.834   3.437
 2337SOL     OW 7012   3.921   0.976   3.126
 2337SOL    HW1 7013   4.010   0.931   3.112
 2337SOL    HW2 7014   3.848   0.911   3.107
 2338SOL     OW 7015   4.041   0.251   3.663
 2338SOL    HW1 7016   4.112   0.322   3.669
 2338SOL    HW2 7017   3.953   0.290   3.691
 2339SOL     OW 7018   4.322   0.729   2.132
 2339SOL    HW1 7019   4.346   0.798   2.064
 2339SOL    HW2 7020   4.244   0.762   2.186
 2340SOL     OW 7021   3.800   0.811   2.651
 2340SOL    HW1 7022   3.899   0.799   2.660
 2340SOL    HW2 7023   3.776   0.906   2.672
 2341SOL     OW 7024   3.854   1.821   3.433
 2341SOL    HW1 7025   3.844   1.806   3.532
 2341SOL    HW2 7026   3.768   1.857   3.397
 2342SOL     OW 7027   4.274   0.196   2.747
 2342SOL    HW1 7028   4.269   0.191   2.847
 2342SOL    HW2 7029   4.276   0.292   2.718
 2343SOL     OW 7030   4.075   1.801   2.715
 2343SOL    HW1 7031   4.125   1.715   2.721
 2343SOL    HW2 7032   4.140   1.878   2.712
 2344SOL     OW 7033   4.045   0.943   2.104
 2344SOL    HW1 7034   4.127   0.982   2.062
 2344SOL    HW2 7035   4.018   0.861   2.055
 2345SOL     OW 7036   4.185   1.266   3.589
 2345SOL    HW1 7037   4.135   1.267   3.503
 2345SOL    HW2 7038   4.122   1.248   3.665
 2346SOL     OW 7039   3.926   0.285   3.360
 2346SOL    HW1 7040   3.846   0.345   3.347
 2346SOL    HW2 7041   3.916   0.236   3.446
 2347SOL     OW 7042   3.973   1.785   3.103
 2347SOL    HW1 7043   4.030   1.720   3.153
 2347SOL    HW2 7044   3.957   1.752   3.010
 2348SOL     OW 7045   4.106   0.700   2.342
 2348SOL    HW1 7046   4.151   0.610   2.339
 2348SOL    HW2 7047   4.012   0.689   2.375
 2349SOL     OW 7048   4.338   0.122   1.979
 2349SOL    HW1 7049   4.436   0.100   1.986
 2349SOL    HW2 7050   4.307   0.105   1.886
 2350SOL     OW 7051   4.263   0.064   2.374
 2350SOL    HW1 7052   4.182   0.065   2.432
 2350SOL    HW2 7053   4.266   0.147   2.319
 2351SOL     OW 7054   4.021   0.035   2.033
 2351SOL    HW1 7055   4.070   0.119   2.012
 2351SOL    HW2 7056   4.083  -0.030   2.078
 2352SOL     OW 7057   4.183   1.152   2.603
 2352SOL    HW1 7058   4.112   1.125   2.668
 2352SOL    HW2 7059   4.157   1.124   2.510
 2353SOL     OW 7060   3.802   0.556   3.248
 2353SOL    HW1 7061   3.894   0.555   3.207
 2353SOL    HW2 7062   3.796   0.630   3.315
 2354SOL     OW 7063   4.285   0.222   3.009
 2354SOL    HW1 7064   4.323   0.138   3.046
 2354SOL    HW2 7065   4.197   0.241   3.053
 2355SOL     OW 7066   4.134   0.813   3.113
 2355SOL    HW1 7067   4.220   0.825   3.163
 2355SOL    HW2 7068   4.092   0.726   3.140
 2356SOL     OW 7069   3.788   1.564   3.193
 2356SOL    HW1 7070   3.742   1.646   3.159
 2356SOL    HW2 7071   3.886   1.583   3.202
 2357SOL     OW 7072   4.091   1.100   2.363
 2357SOL    HW1 7073   4.084   1.183   2.307
 2357SOL    HW2 7074   4.095   1.020   2.303
 2358SOL     OW 7075   4.290   0.537   2.727
 2358SOL    HW1 7076   4.302   0.603   2.653
 2358SOL    HW2 7077   4.336   0.571   2.810
 2359SOL     OW 7078   4.078   1.510   3.191
 2359SOL    HW1 7079   4.057   1.466   3.104
 2359SOL    HW2 7080   4.175   1.536   3.194
 2360SOL     OW 7081   4.126   0.751   3.460
 2360SOL    HW1 7082   4.194   0.806   3.413
 2360SOL    HW2 7083   4.166   0.663   3.487
 2361SOL     OW 7084   4.228   0.050   3.602
 2361SOL    HW1 7085   4.186  -0.007   3.532
 2361SOL    HW2 7086   4.162   0.119   3.634
 2362SOL     OW 7087   4.297   0.870   2.891
 2362SOL    HW1 7088   4.341   0.959   2.882
 2362SOL    HW2 7089   4.234   0.870   2.968
 2363SOL     OW 7090   4.031   0.213   3.093
 2363SOL    HW1 7091   4.008   0.250   3.183
 2363SOL    HW2 7092   4.001   0.118   3.087
 2364SOL     OW 7093   3.761   1.310   3.144
 2364SOL    HW1 7094   3.814   1.261   3.212
 2364SOL    HW2 7095   3.783   1.408   3.149
 2365SOL     OW 7096   4.031   0.063   2.480
 2365SOL    HW1 7097   4.020   0.157   2.513
 2365SOL    HW2 7098   4.026   0.000   2.557
 2366SOL     OW 7099   4.074   0.898   3.666
 2366SOL    HW1 7100   4.150   0.942   3.714
 2366SOL    HW2 7101   4.109   0.851   3.584
 2367SOL     OW 7102   4.043   0.810   2.811
 2367SOL    HW1 7103   4.136   0.846   2.816
 2367SOL    HW2 7104   4.037   0.725   2.863
 2368SOL     OW 7105   4.063   0.509   2.868
 2368SOL    HW1 7106   4.011   0.426   2.851
 2368SOL    HW2 7107   4.140   0.514   2.804
 2369SOL     OW 7108   3.732   1.326   2.062
 2369SOL    HW1 7109   3.639   1.347   2.031
 2369SOL    HW2 7110   3.742   1.227   2.075
 2370SOL     OW 7111   3.812   1.801   2.789
 2370SOL    HW1 7112   3.770   1.715   2.762
 2370SOL    HW2 7113   3.906   1.804   2.755
 2371SOL     OW 7114   3.764   0.544   2.976
 2371SOL    HW1 7115   3.849   0.511   2.935
 2371SOL    HW2 7116   3.777   0.559   3.074
 2372SOL     OW 7117   3.913   0.520   3.584
 2372SOL    HW1 7118   3.972   0.480   3.514
 2372SOL    HW2 7119   3.855   0.591   3.543
 2373SOL     OW 7120   4.539   0.572   2.187
 2373SOL    HW1 7121   4.546   0.483   2.141
 2373SOL    HW2 7122   4.445   0.606   2.179
 2374SOL     OW 7123   3.976   1.564   3.606
 2374SOL    HW1 7124   3.946   1.621   3.682
 2374SOL    HW2 7125   3.969   1.467   3.632
 2375SOL     OW 7126   4.197   0.500   2.053
 2375SOL    HW1 7127   4.258   0.580   2.057
 2375SOL    HW2 7128   4.102   0.531   2.060
 2376SOL     OW 7129   3.883   1.137   3.328
 2376SOL    HW1 7130   3.905   1.076   3.404
 2376SOL    HW2 7131   3.893   1.088   3.242
 2377SOL     OW 7132   3.807   1.258   2.884
 2377SOL    HW1 7133   3.802   1.257   2.984
 2377SOL    HW2 7134   3.724   1.217   2.846
 2378SOL     OW 7135   3.854   1.794   3.713
 2378SOL    HW1 7136   3.813   1.720   3.766
 2378SOL    HW2 7137   3.918   1.845   3.771
 2379SOL     OW 7138   3.987   0.326   2.582
 2379SOL    HW1 7139   3.908   0.377   2.548
 2379SOL    HW2 7140   3.978   0.311   2.680
 2380SOL     OW 7141   4.096   1.288   3.352
 2380SOL    HW1 7142   4.083   1.381   3.318
 2380SOL    HW2 7143   4.012   1.236   3.339
 2381SOL     OW 7144   4.314   1.487   2.353
 2381SOL    HW1 7145   4.356   1.429   2.283
 2381SOL    HW2 7146   4.270   1.566   2.309
 2382SOL     OW 7147   3.979   1.348   2.152
 2382SOL    HW1 7148   3.883   1.349   2.125
 2382SOL    HW2 7149   3.991   1.401   2.236
 2383SOL     OW 7150   3.829   1.013   3.588
 2383SOL    HW1 7151   3.752   0.980   3.642
 2383SOL    HW2 7152   3.914   0.983   3.630
 2384SOL     OW 7153   3.799   0.345   1.895
 2384SOL    HW1 7154   3.707   0.317   1.866
 2384SOL    HW2 7155   3.830   0.422   1.839
 2385SOL     OW 7156   3.796   0.166   2.180
 2385SOL    HW1 7157   3.779   0.249   2.126
 2385SOL    HW2 7158   3.886   0.129   2.158
 2386SOL     OW 7159   4.114   1.741   3.422
 2386SOL    HW1 7160   4.023   1.782   3.420
 2386SOL    HW2 7161   4.107   1.647   3.454
 2387SOL     OW 7162   3.945   1.314   3.706
 2387SOL    HW1 7163   3.880   1.241   3.685
 2387SOL    HW2 7164   3.949   1.328   3.804
 2388SOL     OW 7165   3.803   1.240   2.515
 2388SOL    HW1 7166   3.802   1.193   2.603
 2388SOL    HW2 7167   3.885   1.212   2.464
 2389SOL     OW 7168   4.396   1.391   3.486
 2389SOL    HW1 7169   4.318   1.341   3.524
 2389SOL    HW2 7170   4.393   1.486   3.517
 2390SOL     OW 7171   4.152   0.424   2.382
 2390SOL    HW1 7172   4.182   0.352   2.320
 2390SOL    HW2 7173   4.113   0.384   2.465
 2391SOL     OW 7174   4.041   0.547   3.142
 2391SOL    HW1 7175   4.079   0.488   3.214
 2391SOL    HW2 7176   4.081   0.521   3.054
 2392SOL     OW 7177   3.763   1.077   2.162
 2392SOL    HW1 7178   3.862   1.066   2.153
 2392SOL    HW2 7179   3.723   0.991   2.194
 2393SOL     OW 7180   3.954   0.628   3.837
 2393SOL    HW1 7181   3.861   0.626   3.874
 2393SOL    HW2 7182   3.955   0.589   3.745
 2394SOL     OW 7183   4.409   1.012   4.389
 2394SOL    HW1 7184   4.478   0.996   4.459
 2394SOL    HW2 7185   4.336   1.069   4.427
 2395SOL     OW 7186   3.955   1.713   4.207
 2395SOL    HW1 7187   3.989   1.790   4.261
 2395SOL    HW2 7188   3.999   1.713   4.117
 2396SOL     OW 7189   3.954   1.434   4.262
 2396SOL    HW1 7190   3.928   1.530   4.262
 2396SOL    HW2 7191   3.883   1.380   4.307
 2397SOL     OW 7192   3.751   1.596   3.841
 2397SOL    HW1 7193   3.732   1.500   3.862
 2397SOL    HW2 7194   3.718   1.654   3.916
 2398SOL     OW 7195   4.322   0.729   3.994
 2398SOL    HW1 7196   4.346   0.798   3.926
 2398SOL    HW2 7197   4.244   0.762   4.048
 2399SOL     OW 7198   4.045   0.943   3.966
 2399SOL    HW1 7199   4.127   0.982   3.924
 2399SOL    HW2 7200   4.018   0.861   3.917
 2400SOL     OW 7201   4.106   0.700   4.204
 2400SOL    HW1 7202   4.151   0.610   4.201
 2400SOL    HW2 7203   4.012   0.689   4.237
 2401SOL     OW 7204   4.338   0.122   3.841
 2401SOL    HW1 7205   4.436   0.100   3.848
 2401SOL    HW2 7206   4.307   0.105   3.748
 2402SOL     OW 7207   4.263   0.064   4.236
 2402SOL    HW1 7208   4.182   0.065   4.294
 2402SOL    HW2 7209   4.266   0.147   4.181
 2403SOL     OW 7210   4.021   0.035   3.895
 2403SOL    HW1 7211   4.070   0.119   3.874
 2403SOL    HW2 7212   4.083  -0.030   3.940
 2404SOL     OW 7213   4.183   1.152   4.465
 2404SOL    HW1 7214   4.112   1.125   4.530
 2404SOL    HW2 7215   4.157   1.124   4.372
 2405SOL     OW 7216   4.091   1.100   4.225
 2405SOL    HW1 7217   4.084   1.183   4.169
 2405SOL    HW2 7218   4.095   1.020   4.165
 2406SOL     OW 7219   3.732   1.326   3.924
 2406SOL    HW1 7220   3.639   1.347   3.893
 2406SOL    HW2 7221   3.742   1.227   3.937
 2407SOL     OW 7222   4.539   0.572   4.049
 2407SOL    HW1 7223   4.546   0.483   4.003
 2407SOL    HW2 7224   4.445   0.606   4.041
 2408SOL     OW 7225   4.197   0.500   3.915
 2408SOL    HW1 7226   4.258   0.580   3.919
 2408SOL    HW2 7227   4.102   0.531   3.922
 2409SOL     OW 7228   4.314   1.487   4.215
 2409SOL    HW1 7229   4.356   1.429   4.145
 2409SOL    HW2 7230   4.270   1.566   4.171
 2410SOL     OW 7231   3.979   1.348   4.014
 2410SOL    HW1 7232   3.883   1.349   3.987
 2410SOL    HW2 7233   3.991   1.401   4.098
 2411SOL     OW 7234   3.799   0.345   3.757
 2411SOL    HW1 7235   3.707   0.317   3.728
 2411SOL    HW2 7236   3.830   0.422   3.701
 2412SOL     OW 7237   3.796   0.166   4.042
 2412SOL    HW1 7238   3.779   0.249   3.988
 2412SOL    HW2 7239   3.886   0.129   4.020
 2413SOL     OW 7240   4.152   0.424   4.244
 2413SOL    HW1 7241   4.182   0.352   4.182
 2413SOL    HW2 7242   4.113   0.384   4.327
 2414SOL     OW 7243   3.763   1.077   4.024
 2414SOL    HW1 7244   3.862   1.066   4.015
 2414SOL    HW2 7245   3.723   0.991   4.056
 2415SOL     OW 7246   3.954   2.490   0.113
 2415SOL    HW1 7247   3.861   2.488   0.150
 2415SOL    HW2 7248   3.955   2.451   0.021
 2416SOL     OW 7249   3.949   2.137   0.996
 2416SOL    HW1 7250   3.984   2.120   1.088
 2416SOL    HW2 7251   3.861   2.092   0.984
 2417SOL     OW 7252   3.743   2.230   0.647
 2417SOL    HW1 7253   3.661   2.273   0.686
 2417SOL    HW2 7254   3.715   2.157   0.584
 2418SOL     OW 7255   4.409   2.874   0.665
 2418SOL    HW1 7256   4.478   2.858   0.735
 2418SOL    HW2 7257   4.336   2.931   0.703
 2419SOL     OW 7258   4.059   3.297   1.061
 2419SOL    HW1 7259   3.981   3.266   1.008
 2419SOL    HW2 7260   4.117   3.355   1.004
 2420SOL     OW 7261   4.162   2.254   1.499
 2420SOL    HW1 7262   4.244   2.198   1.508
 2420SOL    HW2 7263   4.081   2.196   1.503
 2421SOL     OW 7264   3.955   3.575   0.483
 2421SOL    HW1 7265   3.989   3.652   0.537
 2421SOL    HW2 7266   3.999   3.575   0.393
 2422SOL     OW 7267   3.954   3.296   0.538
 2422SOL    HW1 7268   3.928   3.392   0.538
 2422SOL    HW2 7269   3.883   3.242   0.583
 2423SOL     OW 7270   3.964   2.953   0.886
 2423SOL    HW1 7271   3.978   2.869   0.938
 2423SOL    HW2 7272   3.909   3.017   0.941
 2424SOL     OW 7273   3.846   2.505   0.563
 2424SOL    HW1 7274   3.801   2.417   0.580
 2424SOL    HW2 7275   3.845   2.559   0.647
 2425SOL     OW 7276   3.751   3.458   0.117
 2425SOL    HW1 7277   3.732   3.362   0.138
 2425SOL    HW2 7278   3.718   3.516   0.192
 2426SOL     OW 7279   3.837   2.599   1.597
 2426SOL    HW1 7280   3.925   2.586   1.642
 2426SOL    HW2 7281   3.824   2.696   1.575
 2427SOL     OW 7282   3.921   2.838   1.264
 2427SOL    HW1 7283   4.010   2.793   1.250
 2427SOL    HW2 7284   3.848   2.773   1.245
 2428SOL     OW 7285   4.041   2.113   1.801
 2428SOL    HW1 7286   4.112   2.184   1.807
 2428SOL    HW2 7287   3.953   2.152   1.829
 2429SOL     OW 7288   4.322   2.591   0.270
 2429SOL    HW1 7289   4.346   2.660   0.202
 2429SOL    HW2 7290   4.244   2.624   0.324
 2430SOL     OW 7291   3.800   2.673   0.789
 2430SOL    HW1 7292   3.899   2.661   0.798
 2430SOL    HW2 7293   3.776   2.768   0.810
 2431SOL     OW 7294   3.854   3.683   1.571
 2431SOL    HW1 7295   3.844   3.668   1.670
 2431SOL    HW2 7296   3.768   3.719   1.535
 2432SOL     OW 7297   4.274   2.058   0.885
 2432SOL    HW1 7298   4.269   2.053   0.985
 2432SOL    HW2 7299   4.276   2.154   0.856
 2433SOL     OW 7300   4.075   3.663   0.853
 2433SOL    HW1 7301   4.125   3.577   0.859
 2433SOL    HW2 7302   4.140   3.740   0.850
 2434SOL     OW 7303   4.045   2.805   0.242
 2434SOL    HW1 7304   4.127   2.844   0.200
 2434SOL    HW2 7305   4.018   2.723   0.193
 2435SOL     OW 7306   4.185   3.128   1.727
 2435SOL    HW1 7307   4.135   3.129   1.641
 2435SOL    HW2 7308   4.122   3.110   1.803
 2436SOL     OW 7309   3.926   2.147   1.498
 2436SOL    HW1 7310   3.846   2.207   1.485
 2436SOL    HW2 7311   3.916   2.098   1.584
 2437SOL     OW 7312   3.973   3.647   1.241
 2437SOL    HW1 7313   4.030   3.582   1.291
 2437SOL    HW2 7314   3.957   3.614   1.148
 2438SOL     OW 7315   4.106   2.562   0.480
 2438SOL    HW1 7316   4.151   2.472   0.477
 2438SOL    HW2 7317   4.012   2.551   0.513
 2439SOL     OW 7318   4.338   1.984   0.117
 2439SOL    HW1 7319   4.436   1.962   0.124
 2439SOL    HW2 7320   4.307   1.967   0.024
 2440SOL     OW 7321   4.263   1.926   0.512
 2440SOL    HW1 7322   4.182   1.927   0.570
 2440SOL    HW2 7323   4.266   2.009   0.457
 2441SOL     OW 7324   4.021   1.897   0.171
 2441SOL    HW1 7325   4.070   1.981   0.150
 2441SOL    HW2 7326   4.083   1.832   0.216
 2442SOL     OW 7327   4.183   3.014   0.741
 2442SOL    HW1 7328   4.112   2.987   0.806
 2442SOL    HW2 7329   4.157   2.986   0.648
 2443SOL     OW 7330   3.802   2.418   1.386
 2443SOL    HW1 7331   3.894   2.417   1.345
 2443SOL    HW2 7332   3.796   2.492   1.453
 2444SOL     OW 7333   4.285   2.084   1.147
 2444SOL    HW1 7334   4.323   2.000   1.184
 2444SOL    HW2 7335   4.197   2.103   1.191
 2445SOL     OW 7336   4.134   2.675   1.251
 2445SOL    HW1 7337   4.220   2.687   1.301
 2445SOL    HW2 7338   4.092   2.588   1.278
 2446SOL     OW 7339   3.788   3.426   1.331
 2446SOL    HW1 7340   3.742   3.508   1.297
 2446SOL    HW2 7341   3.886   3.445   1.340
 2447SOL     OW 7342   4.091   2.962   0.501
 2447SOL    HW1 7343   4.084   3.045   0.445
 2447SOL    HW2 7344   4.095   2.882   0.441
 2448SOL     OW 7345   4.290   2.399   0.865
 2448SOL    HW1 7346   4.302   2.465   0.791
 2448SOL    HW2 7347   4.336   2.433   0.948
 2449SOL     OW 7348   4.078   3.372   1.329
 2449SOL    HW1 7349   4.057   3.328   1.242
 2449SOL    HW2 7350   4.175   3.398   1.332
 2450SOL     OW 7351   4.126   2.613   1.598
 2450SOL    HW1 7352   4.194   2.668   1.551
 2450SOL    HW2 7353   4.166   2.525   1.625
 2451SOL     OW 7354   4.228   1.912   1.740
 2451SOL    HW1 7355   4.186   1.855   1.670
 2451SOL    HW2 7356   4.162   1.981   1.772
 2452SOL     OW 7357   4.297   2.732   1.029
 2452SOL    HW1 7358   4.341   2.821   1.020
 2452SOL    HW2 7359   4.234   2.732   1.106
 2453SOL     OW 7360   4.031   2.075   1.231
 2453SOL    HW1 7361   4.008   2.112   1.321
 2453SOL    HW2 7362   4.001   1.980   1.225
 2454SOL     OW 7363   3.761   3.172   1.282
 2454SOL    HW1 7364   3.814   3.123   1.350
 2454SOL    HW2 7365   3.783   3.270   1.287
 2455SOL     OW 7366   4.031   1.925   0.618
 2455SOL    HW1 7367   4.020   2.019   0.651
 2455SOL    HW2 7368   4.026   1.862   0.695
 2456SOL     OW 7369   4.074   2.760   1.804
 2456SOL    HW1 7370   4.150   2.804   1.852
 2456SOL    HW2 7371   4.109   2.713   1.722
 2457SOL     OW 7372   4.043   2.672   0.949
 2457SOL    HW1 7373   4.136   2.708   0.954
 2457SOL    HW2 7374   4.037   2.587   1.001
 2458SOL     OW 7375   4.063   2.371   1.006
 2458SOL    HW1 7376   4.011   2.288   0.989
 2458SOL    HW2 7377   4.140   2.376   0.942
 2459SOL     OW 7378   3.732   3.188   0.200
 2459SOL    HW1 7379   3.639   3.209   0.169
 2459SOL    HW2 7380   3.742   3.089   0.213
 2460SOL     OW 7381   3.812   3.663   0.927
 2460SOL    HW1 7382   3.770   3.577   0.900
 2460SOL    HW2 7383   3.906   3.666   0.893
 2461SOL     OW 7384   3.764   2.406   1.114
 2461SOL    HW1 7385   3.849   2.373   1.073
 2461SOL    HW2 7386   3.777   2.421   1.212
 2462SOL     OW 7387   3.913   2.382   1.722
 2462SOL    HW1 7388   3.972   2.342   1.652
 2462SOL    HW2 7389   3.855   2.453   1.681
 2463SOL     OW 7390   4.539   2.434   0.325
 2463SOL    HW1 7391   4.546   2.345   0.279
 2463SOL    HW2 7392   4.445   2.468   0.317
 2464SOL     OW 7393   3.976   3.426   1.744
 2464SOL    HW1 7394   3.946   3.483   1.820
 2464SOL    HW2 7395   3.969   3.329   1.770
 2465SOL     OW 7396   4.197   2.362   0.191
 2465SOL    HW1 7397   4.258   2.442   0.195
 2465SOL    HW2 7398   4.102   2.393   0.198
 2466SOL     OW 7399   3.883   2.999   1.466
 2466SOL    HW1 7400   3.905   2.938   1.542
 2466SOL    HW2 7401   3.893   2.950   1.380
 2467SOL     OW 7402   3.807   3.120   1.022
 2467SOL    HW1 7403   3.802   3.119   1.122
 2467SOL    HW2 7404   3.724   3.079   0.984
 2468SOL     OW 7405   3.854   3.656   1.851
 2468SOL    HW1 7406   3.813   3.582   1.904
 2468SOL    HW2 7407   3.918   3.707   1.909
 2469SOL     OW 7408   3.987   2.188   0.720
 2469SOL    HW1 7409   3.908   2.239   0.686
 2469SOL    HW2 7410   3.978   2.173   0.818
 2470SOL     OW 7411   4.096   3.150   1.490
 2470SOL    HW1 7412   4.083   3.243   1.456
 2470SOL    HW2 7413   4.012   3.098   1.477
 2471SOL     OW 7414   4.314   3.349   0.491
 2471SOL    HW1 7415   4.356   3.291   0.421
 2471SOL    HW2 7416   4.270   3.428   0.447
 2472SOL     OW 7417   3.979   3.210   0.290
 2472SOL    HW1 7418   3.883   3.211   0.263
 2472SOL    HW2 7419   3.991   3.263   0.374
 2473SOL     OW 7420   3.829   2.875   1.726
 2473SOL    HW1 7421   3.752   2.842   1.780
 2473SOL    HW2 7422   3.914   2.845   1.768
 2474SOL     OW 7423   3.799   2.207   0.033
 2474SOL    HW1 7424   3.707   2.179   0.004
 2474SOL    HW2 7425   3.830   2.284  -0.023
 2475SOL     OW 7426   3.796   2.028   0.318
 2475SOL    HW1 7427   3.779   2.111   0.264
 2475SOL    HW2 7428   3.886   1.991   0.296
 2476SOL     OW 7429   4.114   3.603   1.560
 2476SOL    HW1 7430   4.023   3.644   1.558
 2476SOL    HW2 7431   4.107   3.509   1.592
 2477SOL     OW 7432   3.945   3.176   1.844
 2477SOL    HW1 7433   3.880   3.103   1.823
 2477SOL    HW2 7434   3.949   3.190   1.942
 2478SOL     OW 7435   3.803   3.102   0.653
 2478SOL    HW1 7436   3.802   3.055   0.741
 2478SOL    HW2 7437   3.885   3.074   0.602
 2479SOL     OW 7438   4.396   3.253   1.624
 2479SOL    HW1 7439   4.318   3.203   1.662
 2479SOL    HW2 7440   4.393   3.348   1.655
 2480SOL     OW 7441   4.152   2.286   0.520
 2480SOL    HW1 7442   4.182   2.214   0.458
 2480SOL    HW2 7443   4.113   2.246   0.603
 2481SOL     OW 7444   4.041   2.409   1.280
 2481SOL    HW1 7445   4.079   2.350   1.352
 2481SOL    HW2 7446   4.081   2.383   1.192
 2482SOL     OW 7447   3.763   2.939   0.300
 2482SOL    HW1 7448   3.862   2.928   0.291
 2482SOL    HW2 7449   3.723   2.853   0.332
 2483SOL     OW 7450   3.954   2.490   1.975
 2483SOL    HW1 7451   3.861   2.488   2.012
 2483SOL    HW2 7452   3.955   2.451   1.883
 2484SOL     OW 7453   3.949   2.137   2.858
 2484SOL    HW1 7454   3.984   2.120   2.950
 2484SOL    HW2 7455   3.861   2.092   2.846
 2485SOL     OW 7456   3.743   2.230   2.509
 2485SOL    HW1 7457   3.661   2.273   2.548
 2485SOL    HW2 7458   3.715   2.157   2.446
 2486SOL     OW 7459   4.409   2.874   2.527
 2486SOL    HW1 7460   4.478   2.858   2.597
 2486SOL    HW2 7461   4.336   2.931   2.565
 2487SOL     OW 7462   4.059   3.297   2.923
 2487SOL    HW1 7463   3.981   3.266   2.870
 2487SOL    HW2 7464   4.117   3.355   2.866
 2488SOL     OW 7465   4.162   2.254   3.361
 2488SOL    HW1 7466   4.244   2.198   3.370
 2488SOL    HW2 7467   4.081   2.196   3.365
 2489SOL     OW 7468   3.955   3.575   2.345
 2489SOL    HW1 7469   3.989   3.652   2.399
 2489SOL    HW2 7470   3.999   3.575   2.255
 2490SOL     OW 7471   3.954   3.296   2.400
 2490SOL    HW1 7472   3.928   3.392   2.400
 2490SOL    HW2 7473   3.883   3.242   2.445
 2491SOL     OW 7474   3.964   2.953   2.748
 2491SOL    HW1 7475   3.978   2.869   2.800
 2491SOL    HW2 7476   3.909   3.017   2.803
 2492SOL     OW 7477   3.846   2.505   2.425
 2492SOL    HW1 7478   3.801   2.417   2.442
 2492SOL    HW2 7479   3.845   2.559   2.509
 2493SOL     OW 7480   3.751   3.458   1.979
 2493SOL    HW1 7481   3.732   3.362   2.000
 2493SOL    HW2 7482   3.718   3.516   2.054
 2494SOL     OW 7483   3.837   2.599   3.459
 2494SOL    HW1 7484   3.925   2.586   3.504
 2494SOL    HW2 7485   3.824   2.696   3.437
 2495SOL     OW 7486   3.921   2.838   3.126
 2495SOL    HW1 7487   4.010   2.793   3.112
 2495SOL    HW2 7488   3.848   2.773   3.107
 2496SOL     OW 7489   4.041   2.113   3.663
 2496SOL    HW1 7490   4.112   2.184   3.669
 2496SOL    HW2 7491   3.953   2.152   3.691
 2497SOL     OW 7492   4.322   2.591   2.132
 2497SOL    HW1 7493   4.346   2.660   2.064
 2497SOL    HW2 7494   4.244   2.624   2.186
 2498SOL     OW 7495   3.800   2.673   2.651
 2498SOL    HW1 7496   3.899   2.661   2.660
 2498SOL    HW2 7497   3.776   2.768   2.672
 2499SOL     OW 7498   3.854   3.683   3.433
 2499SOL    HW1 7499   3.844   3.668   3.532
 2499SOL    HW2 7500   3.768   3.719   3.397
 2500SOL     OW 7501   4.274   2.058   2.747
 2500SOL    HW1 7502   4.269   2.053   2.847
 2500SOL    HW2 7503   4.276   2.154   2.718
 2501SOL     OW 7504   4.075   3.663   2.715
 2501SOL    HW1 7505   4.125   3.577   2.721
 2501SOL    HW2 7506   4.140   3.740   2.712
 2502SOL     OW 7507   4.045   2.805   2.104
 2502SOL    HW1 7508   4.127   2.844   2.062
 2502SOL    HW2 7509   4.018   2.723   2.055
 2503SOL     OW 7510   4.185   3.128   3.589
 2503SOL    HW1 7511   4.135   3.129   3.503
 2503SOL    HW2 7512   4.122   3.110   3.665
 2504SOL     OW 7513   3.926   2.147   3.360
 2504SOL    HW1 7514   3.846   2.207   3.347
 2504SOL    HW2 7515   3.916   2.098   3.446
 2505SOL     OW 7516   3.973   3.647   3.103
 2505SOL    HW1 7517   4.030   3.582   3.153
 2505SOL    HW2 7518   3.957   3.614   3.010
 2506SOL     OW 7519   4.106   2.562   2.342
 2506SOL    HW1 7520   4.151   2.472   2.339
 2506SOL    HW2 7521   4.012   2.551   2.375
 2507SOL     OW 7522   4.338   1.984   1.979
 2507SOL    HW1 7523   4.436   1.962   1.986
 2507SOL    HW2 7524   4.307   1.967   1.886
 2508SOL     OW 7525   4.263   1.926   2.374
 2508SOL    HW1 7526   4.182   1.927   2.432
 2508SOL    HW2 7527   4.266   2.009   2.319
 2509SOL     OW 7528   4.021   1.897   2.033
 2509SOL    HW1 7529   4.070   1.981   2.012
 2509SOL    HW2 7530   4.083   1.832   2.078
 2510SOL     OW 7531   4.183   3.014   2.603
 2510SOL    HW1 7532   4.112   2.987   2.668
 2510SOL    HW2 7533   4.157   2.986   2.510
 2511SOL     OW 7534   3.802   2.418   3.248
 2511SOL    HW1 7535   3.894   2.417   3.207
 2511SOL    HW2 7536   3.796   2.492   3.315
 2512SOL     OW 7537   4.285   2.084   3.009
 2512SOL    HW1 7538   4.323   2.000   3.046
 2512SOL    HW2 7539   4.197   2.103   3.053
 2513SOL     OW 7540   4.134   2.675   3.113
 2513SOL    HW1 7541   4.220   2.687   3.163
 2513SOL    HW2 7542   4.092   2.588   3.140
 2514SOL     OW 7543   3.788   3.426   3.193
 2514SOL    HW1 7544   3.742   3.508   3.159
 2514SOL    HW2 7545   3.886   3.445   3.202
 2515SOL     OW 7546   4.091   2.962   2.363
 2515SOL    HW1 7547   4.084   3.045   2.307
 2515SOL    HW2 7548   4.095   2.882   2.303
 2516SOL     OW 7549   4.290   2.399   2.727
 2516SOL    HW1 7550   4.302   2.465   2.653
 2516SOL    HW2 7551   4.336   2.433   2.810
 2517SOL     OW 7552   4.078   3.372   3.191
 2517SOL    HW1 7553   4.057   3.328   3.104
 2517SOL    HW2 7554   4.175   3.398   3.194
 2518SOL     OW 7555   4.126   2.613   3.460
 2518SOL    HW1 7556   4.194   2.668   3.413
 2518SOL    HW2 7557   4.166   2.525   3.487
 2519SOL     OW 7558   4.228   1.912   3.602
 2519SOL    HW1 7559   4.186   1.855   3.532
 2519SOL    HW2 7560   4.162   1.981   3.634
 2520SOL     OW 7561   4.297   2.732   2.891
 2520SOL    HW1 7562   4.341   2.821   2.882
 2520SOL    HW2 7563   4.234   2.732   2.968
 2521SOL     OW 7564   4.031   2.075   3.093
 2521SOL    HW1 7565   4.008   2.112   3.183
 2521SOL    HW2 7566   4.001   1.980   3.087
 2522SOL     OW 7567   3.761   3.172   3.144
 2522SOL    HW1 7568   3.814   3.123   3.212
 2522SOL    HW2 7569   3.783   3.270   3.149
 2523SOL     OW 7570   4.031   1.925   2.480
 2523SOL    HW1 7571   4.020   2.019   2.513
 2523SOL    HW2 7572   4.026   1.862   2.557
 2524SOL     OW 7573   4.074   2.760   3.666
 2524SOL    HW1 7574   4.150   2.804   3.714
 2524SOL    HW2 7575   4.109   2.713   3.584
 2525SOL     OW 7576   4.043   2.672   2.811
 2525SOL    HW1 7577   4.136   2.708   2.816
 2525SOL    HW2 7578   4.037   2.587   2.863
 2526SOL     OW 7579   4.063   2.371   2.868
 2526SOL    HW1 7580   4.011   2.288   2.851
 2526SOL    HW2 7581   4.140   2.376   2.804
 2527SOL     OW 7582   3.732   3.188   2.062
 2527SOL    HW1 7583   3.639   3.209   2.031
 2527SOL    HW2 7584   3.742   3.089   2.075
 2528SOL     OW 7585   3.812   3.663   2.789
 2528SOL    HW1 7586   3.770   3.577   2.762
 2528SOL    HW2 7587   3.906   3.666   2.755
 2529SOL     OW 7588   3.764   2.406   2.976
 2529SOL    HW1 7589   3.849   2.373   2.935
 2529SOL    HW2 7590   3.777   2.421   3.074
 2530SOL     OW 7591   3.913   2.382   3.584
 2530SOL    HW1 7592   3.972   2.342   3.514
 2530SOL    HW2 7593   3.855   2.453   3.543
 2531SOL     OW 7594   4.539   2.434   2.187
 2531SOL    HW1 7595   4.546   2.345   2.141
 2531SOL    HW2 7596   4.445   2.468   2.179
 2532SOL     OW 7597   3.976   3.426   3.606
 2532SOL    HW1 7598   3.946   3.483   3.682
 2532SOL    HW2 7599   3.969   3.329   3.632
 2533SOL     OW 7600   4.197   2.362   2.053
 2533SOL    HW1 7601   4.258   2.442   2.057
 2533SOL    HW2 7602   4.102   2.393   2.060
 2534SOL     OW 7603   3.883   2.999   3.328
 2534SOL    HW1 7604   3.905   2.938   3.404
 2534SOL    HW2 7605   3.893   2.950   3.242
 2535SOL     OW 7606   3.807   3.120   2.884
 2535SOL    HW1 7607   3.802   3.119   2.984
 2535SOL    HW2 7608   3.724   3.079   2.846
 2536SOL     OW 7609   3.854   3.656   3.713
 2536SOL    HW1 7610   3.813   3.582   3.766
 2536SOL    HW2 7611   3.918   3.707   3.771
 2537SOL     OW 7612   3.987   2.188   2.582
 2537SOL    HW1 7613   3.908   2.239   2.548
 2537SOL    HW2 7614   3.978   2.173   2.680
 2538SOL     OW 7615   4.096   3.150   3.352
 2538SOL    HW1 7616   4.083   3.243   3.318
 2538SOL    HW2 7617   4.012   3.098   3.339
 2539SOL     OW 7618   4.314   3.349   2.353
 2539SOL    HW1 7619   4.356   3.291   2.283
 2539SOL    HW2 7620   4.270   3.428   2.309
 2540SOL     OW 7621   3.979   3.210   2.152
 2540SOL    HW1 7622   3.883   3.211   2.125
 2540SOL    HW2 7623   3.991   3.263   2.236
 2541SOL     OW 7624   3.829   2.875   3.588
 2541SOL    HW1 7625   3.752   2.842   3.642
 2541SOL    HW2 7626   3.914   2.845   3.630
 2542SOL     OW 7627   3.799   2.207   1.895
 2542SOL    HW1 7628   3.707   2.179   1.866
 2542SOL    HW2 7629   3.830   2.284   1.839
 2543SOL     OW 7630   3.796   2.028   2.180
 2543SOL    HW1 7631   3.779   2.111   2.126
 2543SOL    HW2 7632   3.886   1.991   2.158
 2544SOL     OW 7633   4.114   3.603   3.422
 2544SOL    HW1 7634   4.023   3.644   3.420
 2544SOL    HW2 7635   4.107   3.509   3.454
 2545SOL     OW 7636   3.945   3.176   3.706
 2545SOL    HW1 7637   3.880   3.103   3.685
 2545SOL    HW2 7638   3.949   3.190   3.804
 2546SOL     OW 7639   3.803   3.102   2.515
 2546SOL    HW1 7640   3.802   3.055   2.603
 2546SOL    HW2 7641   3.885   3.074   2.464
 2547SOL     OW 7642   4.396   3.253   3.486
 2547SOL    HW1 7643   4.318   3.203   3.524
 2547SOL    HW2 7644   4.393   3.348   3.517
 2548SOL     OW 7645   4.152   2.286   2.382
 2548SOL    HW1 7646   4.182   2.214   2.320
 2548SOL    HW2 7647   4.113   2.246   2.465
 2549SOL     OW 7648   4.041   2.409   3.142
 2549SOL    HW1 7649   4.079   2.350   3.214
 2549SOL    HW2 7650   4.081   2.383   3.054
 2550SOL     OW 7651   3.763   2.939   2.162
 2550SOL    HW1 7652   3.862   2.928   2.153
 2550SOL    HW2 7653   3.723   2.853   2.194
 2551SOL     OW 7654   3.954   2.490   3.837
 2551SOL    HW1 7655   3.861   2.488   3.874
 2551SOL    HW2 7656   3.955   2.451   3.745
 2552SOL     OW 7657   4.409   2.874   4.389
 2552SOL    HW1 7658   4.478   2.858   4.459
 2552SOL    HW2 7659   4.336   2.931   4.427
 2553SOL     OW 7660   3.955   3.575   4.207
 2553SOL    HW1 7661   3.989   3.652   4.261
 2553SOL    HW2 7662   3.999   3.575   4.117
 2554SOL     OW 7663   3.954   3.296   4.262
 2554SOL    HW1 7664   3.928   3.392   4.262
 2554SOL    HW2 7665   3.883   3.242   4.307
 2555SOL     OW 7666   3.751   3.458   3.841
 2555SOL    HW1 7667   3.732   3.362   3.862
 2555SOL    HW2 7668   3.718   3.516   3.916
 2556SOL     OW 7669   4.322   2.591   3.994
 2556SOL    HW1 7670   4.346   2.660   3.926
 2556SOL    HW2 7671   4.244   2.624   4.048
 2557SOL     OW 7672   4.045   2.805   3.966
 2557SOL    HW1 7673   4.127   2.844   3.924
 2557SOL    HW2 7674   4.018   2.723   3.917
 2558SOL     OW 7675   4.106   2.562   4.204
 2558SOL    HW1 7676   4.151   2.472   4.201
 2558SOL    HW2 7677   4.012   2.551   4.237
 2559SOL     OW 7678   4.338   1.984   3.841
 2559SOL    HW1 7679   4.436   1.962   3.848
 2559SOL    HW2 7680   4.307   1.967   3.748
 2560SOL     OW 7681   4.021   1.897   3.895
 2560SOL    HW1 7682   4.070   1.981   3.874
 2560SOL    HW2 7683   4.083   1.832   3.940
 2561SOL     OW 7684   4.183   3.014   4.465
 2561SOL    HW1 7685   4.112   2.987   4.530
 2561SOL    HW2 7686   4.157   2.986   4.372
 2562SOL     OW 7687   4.091   2.962   4.225
 2562SOL    HW1 7688   4.084   3.045   4.169
 2562SOL    HW2 7689   4.095   2.882   4.165
 2563SOL     OW 7690   3.732   3.188   3.924
 2563SOL    HW1 7691   3.639   3.209   3.893
 2563SOL    HW2 7692   3.742   3.089   3.937
 2564SOL     OW 7693   4.539   2.434   4.049
 2564SOL    HW1 7694   4.546   2.345   4.003
 2564SOL    HW2 7695   4.445   2.468   4.041
 2565SOL     OW 7696   4.197   2.362   3.915
 2565SOL    HW1 7697   4.258   2.442   3.919
 2565SOL    HW2 7698   4.102   2.393   3.922
 2566SOL     OW 7699   4.314   3.349   4.215
 2566SOL    HW1 7700   4.356   3.291   4.145
 2566SOL    HW2 7701   4.270   3.428   4.171
 2567SOL     OW 7702   3.979   3.210   4.014
 2567SOL    HW1 7703   3.883   3.211   3.987
 2567SOL    HW2 7704   3.991   3.263   4.098
 2568SOL     OW 7705   3.799   2.207   3.757
 2568SOL    HW1 7706   3.707   2.179   3.728
 2568SOL    HW2 7707   3.830   2.284   3.701
 2569SOL     OW 7708   3.796   2.028   4.042
 2569SOL    HW1 7709   3.779   2.111   3.988
 2569SOL    HW2 7710   3.886   1.991   4.020
 2570SOL     OW 7711   4.152   2.286   4.244
 2570SOL    HW1 7712   4.182   2.214   4.182
 2570SOL    HW2 7713   4.113   2.246   4.327
 2571SOL     OW 7714   3.763   2.939   4.024
 2571SOL    HW1 7715   3.862   2.928   4.015
 2571SOL    HW2 7716   3.723   2.853   4.056
 2572SOL     OW 7717   3.949   3.999   0.996
 2572SOL    HW1 7718   3.984   3.982   1.088
 2572SOL    HW2 7719   3.861   3.954   0.984
 2573SOL     OW 7720   3.743   4.092   0.647
 2573SOL    HW1 7721   3.661   4.135   0.686
 2573SOL    HW2 7722   3.715   4.019   0.584
 2574SOL     OW 7723   4.162   4.116   1.499
 2574SOL    HW1 7724   4.244   4.060   1.508
 2574SOL    HW2 7725   4.081   4.058   1.503
 2575SOL     OW 7726   3.846   4.367   0.563
 2575SOL    HW1 7727   3.801   4.279   0.580
 2575SOL    HW2 7728   3.845   4.421   0.647
 2576SOL     OW 7729   4.041   3.975   1.801
 2576SOL    HW1 7730   4.112   4.046   1.807
 2576SOL    HW2 7731   3.953   4.014   1.829
 2577SOL     OW 7732   4.274   3.920   0.885
 2577SOL    HW1 7733   4.269   3.915   0.985
 2577SOL    HW2 7734   4.276   4.016   0.856
 2578SOL     OW 7735   3.926   4.009   1.498
 2578SOL    HW1 7736   3.846   4.069   1.485
 2578SOL    HW2 7737   3.916   3.960   1.584
 2579SOL     OW 7738   4.338   3.846   0.117
 2579SOL    HW1 7739   4.436   3.824   0.124
 2579SOL    HW2 7740   4.307   3.829   0.024
 2580SOL     OW 7741   4.263   3.788   0.512
 2580SOL    HW1 7742   4.182   3.789   0.570
 2580SOL    HW2 7743   4.266   3.871   0.457
 2581SOL     OW 7744   4.021   3.759   0.171
 2581SOL    HW1 7745   4.070   3.843   0.150
 2581SOL    HW2 7746   4.083   3.694   0.216
 2582SOL     OW 7747   3.802   4.280   1.386
 2582SOL    HW1 7748   3.894   4.279   1.345
 2582SOL    HW2 7749   3.796   4.354   1.453
 2583SOL     OW 7750   4.285   3.946   1.147
 2583SOL    HW1 7751   4.323   3.862   1.184
 2583SOL    HW2 7752   4.197   3.965   1.191
 2584SOL     OW 7753   4.290   4.261   0.865
 2584SOL    HW1 7754   4.302   4.327   0.791
 2584SOL    HW2 7755   4.336   4.295   0.948
 2585SOL     OW 7756   4.228   3.774   1.740
 2585SOL    HW1 7757   4.186   3.717   1.670
 2585SOL    HW2 7758   4.162   3.843   1.772
 2586SOL     OW 7759   4.031   3.937   1.231
 2586SOL    HW1 7760   4.008   3.974   1.321
 2586SOL    HW2 7761   4.001   3.842   1.225
 2587SOL     OW 7762   4.031   3.787   0.618
 2587SOL    HW1 7763   4.020   3.881   0.651
 2587SOL    HW2 7764   4.026   3.724   0.695
 2588SOL     OW 7765   4.063   4.233   1.006
 2588SOL    HW1 7766   4.011   4.150   0.989
 2588SOL    HW2 7767   4.140   4.238   0.942
 2589SOL     OW 7768   3.764   4.268   1.114
 2589SOL    HW1 7769   3.849   4.235   1.073
 2589SOL    HW2 7770   3.777   4.283   1.212
 2590SOL     OW 7771   3.913   4.244   1.722
 2590SOL    HW1 7772   3.972   4.204   1.652
 2590SOL    HW2 7773   3.855   4.315   1.681
 2591SOL     OW 7774   3.987   4.050   0.720
 2591SOL    HW1 7775   3.908   4.101   0.686
 2591SOL    HW2 7776   3.978   4.035   0.818
 2592SOL     OW 7777   3.799   4.069   0.033
 2592SOL    HW1 7778   3.707   4.041   0.004
 2592SOL    HW2 7779   3.830   4.146  -0.023
 2593SOL     OW 7780   3.796   3.890   0.318
 2593SOL    HW1 7781   3.779   3.973   0.264
 2593SOL    HW2 7782   3.886   3.853   0.296
 2594SOL     OW 7783   4.152   4.148   0.520
 2594SOL    HW1 7784   4.182   4.076   0.458
 2594SOL    HW2 7785   4.113   4.108   0.603
 2595SOL     OW 7786   4.041   4.271   1.280
 2595SOL    HW1 7787   4.079   4.212   1.352
 2595SOL    HW2 7788   4.081   4.245   1.192
 2596SOL     OW 7789   3.949   3.999   2.858
 2596SOL    HW1 7790   3.984   3.982   2.950
 2596SOL    HW2 7791   3.861   3.954   2.846
 2597SOL     OW 7792   3.743   4.092   2.509
 2597SOL    HW1 7793   3.661   4.135   2.548
 2597SOL    HW2 7794   3.715   4.019   2.446
 2598SOL     OW 7795   4.162   4.116   3.361
 2598SOL    HW1 7796   4.244   4.060   3.370
 2598SOL    HW2 7797   4.081   4.058   3.365
 2599SOL     OW 7798   3.846   4.367   2.425
 2599SOL    HW1 7799   3.801   4.279   2.442
 2599SOL    HW2 7800   3.845   4.421   2.509
 2600SOL     OW 7801   4.041   3.975   3.663
 2600SOL    HW1 7802   4.112   4.046   3.669
 2600SOL    HW2 7803   3.953   4.014   3.691
 2601SOL     OW 7804   4.274   3.920   2.747
 2601SOL    HW1 7805   4.269   3.915   2.847
 2601SOL    HW2 7806   4.276   4.016   2.718
 2602SOL     OW 7807   3.926   4.009   3.360
 2602SOL    HW1 7808   3.846   4.069   3.347
 2602SOL    HW2 7809   3.916   3.960   3.446
 2603SOL     OW 7810   4.338   3.846   1.979
 2603SOL    HW1 7811   4.436   3.824   1.986
 2603SOL    HW2 7812   4.307   3.829   1.886
 2604SOL     OW 7813   4.263   3.788   2.374
 2604SOL    HW1 7814   4.182   3.789   2.432
 2604SOL    HW2 7815   4.266   3.871   2.319
 2605SOL     OW 7816   4.021   3.759   2.033
 2605SOL    HW1 7817   4.070   3.843   2.012
 2605SOL    HW2 7818   4.083   3.694   2.078
 2606SOL     OW 7819   3.802   4.280   3.248
 2606SOL    HW1 7820   3.894   4.279   3.207
 2606SOL    HW2 7821   3.796   4.354   3.315
 2607SOL     OW 7822   4.285   3.946   3.009
 2607SOL    HW1 7823   4.323   3.862   3.046
 2607SOL    HW2 7824   4.197   3.965   3.053
 2608SOL     OW 7825   4.290   4.261   2.727
 2608SOL    HW1 7826   4.302   4.327   2.653
 2608SOL    HW2 7827   4.336   4.295   2.810
 2609SOL     OW 7828   4.228   3.774   3.602
 2609SOL    HW1 7829   4.186   3.717   3.532
 2609SOL    HW2 7830   4.162   3.843   3.634
 2610SOL     OW 7831   4.031   3.937   3.093
 2610SOL    HW1 7832   4.008   3.974   3.183
 2610SOL    HW2 7833   4.001   3.842   3.087
 2611SOL     OW 7834   4.031   3.787   2.480
 2611SOL    HW1 7835   4.020   3.881   2.513
 2611SOL    HW2 7836   4.026   3.724   2.557
 2612SOL     OW 7837   4.063   4.233   2.868
 2612SOL    HW1 7838   4.011   4.150   2.851
 2612SOL    HW2 7839   4.140   4.238   2.804
 2613SOL     OW 7840   3.764   4.268   2.976
 2613SOL    HW1 7841   3.849   4.235   2.935
 2613SOL    HW2 7842   3.777   4.283   3.074
 2614SOL     OW 7843   3.913   4.244   3.584
 2614SOL    HW1 7844   3.972   4.204   3.514
 2614SOL    HW2 7845   3.855   4.315   3.543
 2615SOL     OW 7846   3.987   4.050   2.582
 2615SOL    HW1 7847   3.908   4.101   2.548
 2615SOL    HW2 7848   3.978   4.035   2.680
 2616SOL     OW 7849   3.799   4.069   1.895
 2616SOL    HW1 7850   3.707   4.041   1.866
 2616SOL    HW2 7851   3.830   4.146   1.839
 2617SOL     OW 7852   3.796   3.890   2.180
 2617SOL    HW1 7853   3.779   3.973   2.126
 2617SOL    HW2 7854   3.886   3.853   2.158
 2618SOL     OW 7855   4.152   4.148   2.382
 2618SOL    HW1 7856   4.182   4.076   2.320
 2618SOL    HW2 7857   4.113   4.108   2.465
 2619SOL     OW 7858   4.041   4.271   3.142
 2619SOL    HW1 7859   4.079   4.212   3.214
 2619SOL    HW2 7860   4.081   4.245   3.054
 2620SOL     OW 7861   3.846   4.367   4.287
 2620SOL    HW1 7862   3.801   4.279   4.304
 2620SOL    HW2 7863   3.845   4.421   4.371
 2621SOL     OW 7864   4.338   3.846   3.841
 2621SOL    HW1 7865   4.436   3.824   3.848
 2621SOL    HW2 7866   4.307   3.829   3.748
 2622SOL     OW 7867   4.021   3.759   3.895
 2622SOL    HW1 7868   4.070   3.843   3.874
 2622SOL    HW2 7869   4.083   3.694   3.940
 2623SOL     OW 7870   4.290   4.261   4.589
 2623SOL    HW1 7871   4.302   4.327   4.515
 2623SOL    HW2 7872   4.336   4.295   4.672
 2624SOL     OW 7873   3.799   4.069   3.757
 2624SOL    HW1 7874   3.707   4.041   3.728
 2624SOL    HW2 7875   3.830   4.146   3.701
 2625SOL     OW 7876   3.796   3.890   4.042
 2625SOL    HW1 7877   3.779   3.973   3.988
 2625SOL    HW2 7878   3.886   3.853   4.020
 2626SOL     OW 7879   4.152   4.148   4.244
 2626SOL    HW1 7880   4.182   4.076   4.182
 2626SOL    HW2 7881   4.113   4.108   4.327
   4.30768   4.30768   4.30768
