; mobley_3264884_GMX_OPLS.top created by acpype (v: 2023.10.27) on Wed May 20 23:51:47 2026

; Include forcefield parameters
#include "ffoplsaa.itp"

; Include mobley_3264884_GMX.itp topology
#include "mobley_3264884_GMX.itp"

; Ligand position restraints
#ifdef POSRES_LIG
#include "posre_mobley_3264884.itp"
#endif

[ system ]
 mobley_3264884

[ molecules ]
; Compound        nmols
 mobley_3264884   1     
