%VERSION  VERSION_STAMP = V0001.000  DATE = 05/20/26  23:51:48                  
%FLAG TITLE                                                                     
%FORMAT(20a4)                                                                   
2_naphthylamine                                                                 
%FLAG POINTERS                                                                  
%FORMAT(10I8)                                                                   
      20       4       9      12      17      16      36      23       0       0
     101       1      12      16      23       4       5       3       4       0
       0       0       0       0       0       0       0       0      20       0
       0
%FLAG ATOM_NAME                                                                 
%FORMAT(20a4)                                                                   
C1  C2  C3  C4  C5  C6  C7  C8  C9  C10 N1  H1  H2  H3  H4  H5  H6  H7  H8  H9  
%FLAG CHARGE                                                                    
%FORMAT(5E16.8)                                                                 
 -2.60578890E+00 -2.15023140E+00 -1.89511920E+00 -2.38712130E+00 -1.56711780E+00
 -3.06134640E+00 -3.64446000E+00 -1.29378330E+00  7.28892000E-02  2.54383308E+00
 -1.49094859E+01  2.36889900E+00  2.36889900E+00  2.35067670E+00  2.38712130E+00
  2.40534360E+00  2.40534360E+00  2.42356590E+00  7.08483024E+00  7.08483024E+00
%FLAG ATOMIC_NUMBER                                                             
%FORMAT(10I8)                                                                   
       6       6       6       6       6       6       6       6       6       6
       7       1       1       1       1       1       1       1       1       1
%FLAG MASS                                                                      
%FORMAT(5E16.8)                                                                 
  1.20100000E+01  1.20100000E+01  1.20100000E+01  1.20100000E+01  1.20100000E+01
  1.20100000E+01  1.20100000E+01  1.20100000E+01  1.20100000E+01  1.20100000E+01
  1.40100000E+01  1.00800000E+00  1.00800000E+00  1.00800000E+00  1.00800000E+00
  1.00800000E+00  1.00800000E+00  1.00800000E+00  1.00800000E+00  1.00800000E+00
%FLAG ATOM_TYPE_INDEX                                                           
%FORMAT(10I8)                                                                   
       1       1       1       1       1       1       1       1       1       1
       2       3       3       3       3       3       3       3       4       4
%FLAG NUMBER_EXCLUDED_ATOMS                                                     
%FORMAT(10I8)                                                                   
      10       9      10       9       9      10       9       8       7       6
       4       2       1       1       1       1       1       1       1       1
%FLAG NONBONDED_PARM_INDEX                                                      
%FORMAT(10I8)                                                                   
       1       2       4       7       2       3       5       8       4       5
       6       9       7       8       9      10
%FLAG RESIDUE_LABEL                                                             
%FORMAT(20a4)                                                                   
MOL 
%FLAG RESIDUE_POINTER                                                           
%FORMAT(10I8)                                                                   
       1
%FLAG BOND_FORCE_CONSTANT                                                       
%FORMAT(5E16.8)                                                                 
  3.54250000E+02  3.60690000E+02  3.42300000E+02  4.77540000E+02
%FLAG BOND_EQUIL_VALUE                                                          
%FORMAT(5E16.8)                                                                 
  1.39860000E+00  1.08600000E+00  1.37440000E+00  1.01140000E+00
%FLAG ANGLE_FORCE_CONSTANT                                                      
%FORMAT(5E16.8)                                                                 
  6.36700000E+01  4.49000000E+01  6.79100000E+01  5.77100000E+01  4.63600000E+01
%FLAG ANGLE_EQUIL_VALUE                                                         
%FORMAT(5E16.8)                                                                 
  2.09474507E+00  2.09230160E+00  2.11080210E+00  2.03732371E+00  2.01201642E+00
%FLAG DIHEDRAL_FORCE_CONSTANT                                                   
%FORMAT(5E16.8)                                                                 
  3.62500000E+00  1.05000000E+00  1.10000000E+00
%FLAG DIHEDRAL_PERIODICITY                                                      
%FORMAT(5E16.8)                                                                 
  2.00000000E+00  2.00000000E+00  2.00000000E+00
%FLAG DIHEDRAL_PHASE                                                            
%FORMAT(5E16.8)                                                                 
  3.14159400E+00  3.14159400E+00  3.14159400E+00
%FLAG SCEE_SCALE_FACTOR                                                         
%FORMAT(5E16.8)                                                                 
  1.20000000E+00  1.20000000E+00  0.00000000E+00
%FLAG SCNB_SCALE_FACTOR                                                         
%FORMAT(5E16.8)                                                                 
  2.00000000E+00  2.00000000E+00  0.00000000E+00
%FLAG SOLTY                                                                     
%FORMAT(5E16.8)                                                                 
  0.00000000E+00  0.00000000E+00  0.00000000E+00  0.00000000E+00
%FLAG LENNARD_JONES_ACOEF                                                       
%FORMAT(5E16.8)                                                                 
  6.96551276E+05  8.15855629E+05  9.54875571E+05  7.52549148E+04  8.91217989E+04
  6.90855956E+03  1.71458823E+03  2.10567903E+03  9.04434904E+01  1.34728399E-01
%FLAG LENNARD_JONES_BCOEF                                                       
%FORMAT(5E16.8)                                                                 
  5.24668528E+02  5.85909304E+02  6.54052181E+02  1.09570372E+02  1.23036209E+02
  2.10929191E+01  1.46824710E+01  1.67892226E+01  2.14252117E+00  7.34107347E-02
%FLAG BONDS_INC_HYDROGEN                                                        
%FORMAT(10I8)                                                                   
       0      33       2       3      36       2       6      39       2       9
      42       2      12      45       2      15      48       2      18      51
       2      30      54       4      30      57       4
%FLAG BONDS_WITHOUT_HYDROGEN                                                    
%FORMAT(10I8)                                                                   
       0       3       1       0       6       1       3       9       1       6
      21       1       9      24       1      12      15       1      12      21
       1      15      27       1      18      24       1      18      27       1
      21      24       1      27      30       3
%FLAG ANGLES_INC_HYDROGEN                                                       
%FORMAT(10I8)                                                                   
       0       3      36       2       0       6      39       2       3       0
      33       2       3       9      42       2       6       0      33       2
       9       3      36       2      12      15      48       2      15      12
      45       2      21       6      39       2      21      12      45       2
      24       9      42       2      24      18      51       2      27      15
      48       2      27      18      51       2      27      30      54       4
      27      30      57       4      54      30      57       5
%FLAG ANGLES_WITHOUT_HYDROGEN                                                   
%FORMAT(10I8)                                                                   
       0       3       9       1       0       6      21       1       3       0
       6       1       3       9      24       1       6      21      12       1
       6      21      24       1       9      24      18       1       9      24
      21       1      12      15      27       1      12      21      24       1
      15      12      21       1      15      27      18       1      15      27
      30       3      18      24      21       1      18      27      30       3
      24      18      27       1
%FLAG DIHEDRALS_INC_HYDROGEN                                                    
%FORMAT(10I8)                                                                   
       0       3       9      42       1       3       0       6      39       1
       6       0       3      36       1       6      21      12      45       1
      33       0       3       9       1       9      24      18      51       1
      12      21       6      39       1      15      27      18      51       1
      15      27      30      54       2      15      27      30      57       2
      18      24       9      42       1      18      27      15      48       1
      18      27      30      54       2      18      27      30      57       2
      33       0       6      21       1      21      12      15      48       1
      21      24       9      42       1      21      24      18      51       1
      24       9       3      36       1      24      21       6      39       1
      24      21      12      45       1      27      15      12      45       1
      30      27      15      48       1      30      27      18      51       1
      33       0       3      36       1      33       0       6      39       1
      36       3       9      42       1      45      12      15      48       1
      33       0      -6      -3       3       0       9      -3     -36       3
       0      21      -6     -39       3       3      24      -9     -42       3
      15      21     -12     -45       3      12      27     -15     -48       3
      24      27     -18     -51       3      27      54     -30     -57       3
%FLAG DIHEDRALS_WITHOUT_HYDROGEN                                                
%FORMAT(10I8)                                                                   
       0       3       9      24       1       0       6      21      12       1
       0       6     -21      24       1       3       0       6      21       1
       3       9      24      18       1       3       9     -24      21       1
       6       0       3       9       1       6      21      12      15       1
       6      21     -24       9       1       6      21      24      18       1
       9      24      18      27       1       9      24      21      12       1
      12      15      27      18       1      12      15      27      30       1
      12      21     -24      18       1      15      12      21      24       1
      15      27     -18      24       1      21      12      15      27       1
      21      24     -18      27       1      24      18      27      30       1
       6      12     -21     -24       3       9      18     -24     -21       3
      15      18     -27     -30       3
%FLAG EXCLUDED_ATOMS_LIST                                                       
%FORMAT(10I8)                                                                   
       2       3       4       5       8       9      12      13      14      15
       3       4       7       8       9      12      13      14      15       4
       5       6       7       8       9      12      13      14      16       5
       7       8       9      10      12      13      15      18       6       7
       8       9      10      11      14      16      17       7       8       9
      10      11      16      17      18      19      20       8       9      10
      11      15      17      18      19      20       9      10      12      14
      15      16      17      18      10      11      13      14      15      16
      18      11      16      17      18      19      20      17      18      19
      20      13      14      15       0       0      17       0       0      20
       0
%FLAG HBOND_ACOEF                                                               
%FORMAT(5E16.8)                                                                 

%FLAG HBOND_BCOEF                                                               
%FORMAT(5E16.8)                                                                 

%FLAG HBCUT                                                                     
%FORMAT(5E16.8)                                                                 

%FLAG AMBER_ATOM_TYPE                                                           
%FORMAT(20a4)                                                                   
ca  ca  ca  ca  ca  ca  ca  ca  ca  ca  nv  ha  ha  ha  ha  ha  ha  ha  hn  hn  
%FLAG TREE_CHAIN_CLASSIFICATION                                                 
%FORMAT(20a4)                                                                   
BLA BLA BLA BLA BLA BLA BLA BLA BLA BLA BLA BLA BLA BLA BLA BLA BLA BLA BLA BLA 
%FLAG JOIN_ARRAY                                                                
%FORMAT(10I8)                                                                   
       0       0       0       0       0       0       0       0       0       0
       0       0       0       0       0       0       0       0       0       0
%FLAG IROTAT                                                                    
%FORMAT(10I8)                                                                   
       0       0       0       0       0       0       0       0       0       0
       0       0       0       0       0       0       0       0       0       0
%FLAG RADIUS_SET                                                                
%FORMAT(1a80)                                                                   
modified Bondi radii (mbondi)                                                   
%FLAG RADII                                                                     
%FORMAT(5E16.8)                                                                 
  1.70000000E+00  1.70000000E+00  1.70000000E+00  1.70000000E+00  1.70000000E+00
  1.70000000E+00  1.70000000E+00  1.70000000E+00  1.70000000E+00  1.70000000E+00
  1.55000000E+00  1.30000000E+00  1.30000000E+00  1.30000000E+00  1.30000000E+00
  1.30000000E+00  1.30000000E+00  1.30000000E+00  1.30000000E+00  1.30000000E+00
%FLAG SCREEN                                                                    
%FORMAT(5E16.8)                                                                 
  7.20000000E-01  7.20000000E-01  7.20000000E-01  7.20000000E-01  7.20000000E-01
  7.20000000E-01  7.20000000E-01  7.20000000E-01  7.20000000E-01  7.20000000E-01
  7.90000000E-01  8.50000000E-01  8.50000000E-01  8.50000000E-01  8.50000000E-01
  8.50000000E-01  8.50000000E-01  8.50000000E-01  8.50000000E-01  8.50000000E-01
%FLAG IPOL                                                                      
%FORMAT(1I8)                                                                    
       0
