; mobley_3264884_GMX.itp created by acpype (v: 2023.10.27) on Wed May 20 23:51:47 2026

[ atomtypes ]
;name   bond_type     mass     charge   ptype   sigma         epsilon       Amb
 ca       ca          0.00000  0.00000   A     3.31521e-01   4.13379e-01 ; 1.86  0.0988
 nv       nv          0.00000  0.00000   A     3.36813e-01   4.68608e-01 ; 1.89  0.1120
 ha       ha          0.00000  0.00000   A     2.62548e-01   6.73624e-02 ; 1.47  0.0161
 hn       hn          0.00000  0.00000   A     1.10650e-01   4.18400e-02 ; 0.62  0.0100

[ moleculetype ]
;name            nrexcl
 mobley_3264884   3

[ atoms ]
;   nr  type  resi  res  atom  cgnr     charge      mass       ; qtot   bond_type
     1   ca     1   MOL    C1    1    -0.143000     12.01000 ; qtot -0.143
     2   ca     1   MOL    C2    2    -0.118000     12.01000 ; qtot -0.261
     3   ca     1   MOL    C3    3    -0.104000     12.01000 ; qtot -0.365
     4   ca     1   MOL    C4    4    -0.131000     12.01000 ; qtot -0.496
     5   ca     1   MOL    C5    5    -0.086000     12.01000 ; qtot -0.582
     6   ca     1   MOL    C6    6    -0.168000     12.01000 ; qtot -0.750
     7   ca     1   MOL    C7    7    -0.200000     12.01000 ; qtot -0.950
     8   ca     1   MOL    C8    8    -0.071000     12.01000 ; qtot -1.021
     9   ca     1   MOL    C9    9     0.004000     12.01000 ; qtot -1.017
    10   ca     1   MOL   C10   10     0.139600     12.01000 ; qtot -0.877
    11   nv     1   MOL    N1   11    -0.817200     14.01000 ; qtot -1.695
    12   ha     1   MOL    H1   12     0.130000      1.00800 ; qtot -1.565
    13   ha     1   MOL    H2   13     0.130000      1.00800 ; qtot -1.435
    14   ha     1   MOL    H3   14     0.129000      1.00800 ; qtot -1.306
    15   ha     1   MOL    H4   15     0.131000      1.00800 ; qtot -1.175
    16   ha     1   MOL    H5   16     0.132000      1.00800 ; qtot -1.043
    17   ha     1   MOL    H6   17     0.132000      1.00800 ; qtot -0.911
    18   ha     1   MOL    H7   18     0.133000      1.00800 ; qtot -0.778
    19   hn     1   MOL    H8   19     0.388800      1.00800 ; qtot -0.389
    20   hn     1   MOL    H9   20     0.388800      1.00800 ; qtot -0.000

[ bonds ]
;   ai     aj funct   r             k
     1      2   1    1.3986e-01    2.9644e+05 ;     C1 - C2    
     1      3   1    1.3986e-01    2.9644e+05 ;     C1 - C3    
     1     12   1    1.0860e-01    3.0183e+05 ;     C1 - H1    
     2      4   1    1.3986e-01    2.9644e+05 ;     C2 - C4    
     2     13   1    1.0860e-01    3.0183e+05 ;     C2 - H2    
     3      8   1    1.3986e-01    2.9644e+05 ;     C3 - C8    
     3     14   1    1.0860e-01    3.0183e+05 ;     C3 - H3    
     4      9   1    1.3986e-01    2.9644e+05 ;     C4 - C9    
     4     15   1    1.0860e-01    3.0183e+05 ;     C4 - H4    
     5      6   1    1.3986e-01    2.9644e+05 ;     C5 - C6    
     5      8   1    1.3986e-01    2.9644e+05 ;     C5 - C8    
     5     16   1    1.0860e-01    3.0183e+05 ;     C5 - H5    
     6     10   1    1.3986e-01    2.9644e+05 ;     C6 - C10   
     6     17   1    1.0860e-01    3.0183e+05 ;     C6 - H6    
     7      9   1    1.3986e-01    2.9644e+05 ;     C7 - C9    
     7     10   1    1.3986e-01    2.9644e+05 ;     C7 - C10   
     7     18   1    1.0860e-01    3.0183e+05 ;     C7 - H7    
     8      9   1    1.3986e-01    2.9644e+05 ;     C8 - C9    
    10     11   1    1.3744e-01    2.8644e+05 ;    C10 - N1    
    11     19   1    1.0114e-01    3.9961e+05 ;     N1 - H8    
    11     20   1    1.0114e-01    3.9961e+05 ;     N1 - H9    

[ pairs ]
;   ai     aj    funct
     1      5      1 ;     C1 - C5    
     1      9      1 ;     C1 - C9    
     1     15      1 ;     C1 - H4    
     2      7      1 ;     C2 - C7    
     2      8      1 ;     C2 - C8    
     2     14      1 ;     C2 - H3    
     3      4      1 ;     C3 - C4    
     3      6      1 ;     C3 - C6    
     3      7      1 ;     C3 - C7    
     3     13      1 ;     C3 - H2    
     3     16      1 ;     C3 - H5    
     4      5      1 ;     C4 - C5    
     4     10      1 ;     C4 - C10   
     4     18      1 ;     C4 - H7    
     5      7      1 ;     C5 - C7    
     5     11      1 ;     C5 - N1    
     5     14      1 ;     C5 - H3    
     6      9      1 ;     C6 - C9    
     6     18      1 ;     C6 - H7    
     6     19      1 ;     C6 - H8    
     6     20      1 ;     C6 - H9    
     7     15      1 ;     C7 - H4    
     7     17      1 ;     C7 - H6    
     7     19      1 ;     C7 - H8    
     7     20      1 ;     C7 - H9    
     8     10      1 ;     C8 - C10   
     8     15      1 ;     C8 - H4    
     8     17      1 ;     C8 - H6    
     8     18      1 ;     C8 - H7    
     9     11      1 ;     C9 - N1    
     9     13      1 ;     C9 - H2    
     9     14      1 ;     C9 - H3    
     9     16      1 ;     C9 - H5    
    10     16      1 ;    C10 - H5    
    11     17      1 ;     N1 - H6    
    11     18      1 ;     N1 - H7    
    12      4      1 ;     H1 - C4    
    12      8      1 ;     H1 - C8    
    12     13      1 ;     H1 - H2    
    12     14      1 ;     H1 - H3    
    13     15      1 ;     H2 - H4    
    16     17      1 ;     H5 - H6    

[ angles ]
;   ai     aj     ak    funct   theta         cth
     1      2      4      1    1.2002e+02    5.3279e+02 ;     C1 - C2     - C4    
     1      2     13      1    1.1988e+02    3.7572e+02 ;     C1 - C2     - H2    
     1      3      8      1    1.2002e+02    5.3279e+02 ;     C1 - C3     - C8    
     1      3     14      1    1.1988e+02    3.7572e+02 ;     C1 - C3     - H3    
     2      1      3      1    1.2002e+02    5.3279e+02 ;     C2 - C1     - C3    
     2      1     12      1    1.1988e+02    3.7572e+02 ;     C2 - C1     - H1    
     2      4      9      1    1.2002e+02    5.3279e+02 ;     C2 - C4     - C9    
     2      4     15      1    1.1988e+02    3.7572e+02 ;     C2 - C4     - H4    
     3      1     12      1    1.1988e+02    3.7572e+02 ;     C3 - C1     - H1    
     3      8      5      1    1.2002e+02    5.3279e+02 ;     C3 - C8     - C5    
     3      8      9      1    1.2002e+02    5.3279e+02 ;     C3 - C8     - C9    
     4      2     13      1    1.1988e+02    3.7572e+02 ;     C4 - C2     - H2    
     4      9      7      1    1.2002e+02    5.3279e+02 ;     C4 - C9     - C7    
     4      9      8      1    1.2002e+02    5.3279e+02 ;     C4 - C9     - C8    
     5      6     10      1    1.2002e+02    5.3279e+02 ;     C5 - C6     - C10   
     5      6     17      1    1.1988e+02    3.7572e+02 ;     C5 - C6     - H6    
     5      8      9      1    1.2002e+02    5.3279e+02 ;     C5 - C8     - C9    
     6      5      8      1    1.2002e+02    5.3279e+02 ;     C6 - C5     - C8    
     6      5     16      1    1.1988e+02    3.7572e+02 ;     C6 - C5     - H5    
     6     10      7      1    1.2002e+02    5.3279e+02 ;     C6 - C10    - C7    
     6     10     11      1    1.2094e+02    5.6827e+02 ;     C6 - C10    - N1    
     7      9      8      1    1.2002e+02    5.3279e+02 ;     C7 - C9     - C8    
     7     10     11      1    1.2094e+02    5.6827e+02 ;     C7 - C10    - N1    
     8      3     14      1    1.1988e+02    3.7572e+02 ;     C8 - C3     - H3    
     8      5     16      1    1.1988e+02    3.7572e+02 ;     C8 - C5     - H5    
     9      4     15      1    1.1988e+02    3.7572e+02 ;     C9 - C4     - H4    
     9      7     10      1    1.2002e+02    5.3279e+02 ;     C9 - C7     - C10   
     9      7     18      1    1.1988e+02    3.7572e+02 ;     C9 - C7     - H7    
    10      6     17      1    1.1988e+02    3.7572e+02 ;    C10 - C6     - H6    
    10      7     18      1    1.1988e+02    3.7572e+02 ;    C10 - C7     - H7    
    10     11     19      1    1.1673e+02    4.8292e+02 ;    C10 - N1     - H8    
    10     11     20      1    1.1673e+02    4.8292e+02 ;    C10 - N1     - H9    
    19     11     20      1    1.1528e+02    3.8794e+02 ;     H8 - N1     - H9    

[ dihedrals ] ; propers
; for gromacs 4.5 or higher, using funct 9
;    i      j      k      l   func   phase     kd      pn
     1      2      4      9      9   180.00  15.16700   2 ;     C1-    C2-    C4-    C9
     1      2      4     15      9   180.00  15.16700   2 ;     C1-    C2-    C4-    H4
     1      3      8      5      9   180.00  15.16700   2 ;     C1-    C3-    C8-    C5
     1      3      8      9      9   180.00  15.16700   2 ;     C1-    C3-    C8-    C9
     2      1      3      8      9   180.00  15.16700   2 ;     C2-    C1-    C3-    C8
     2      1      3     14      9   180.00  15.16700   2 ;     C2-    C1-    C3-    H3
     2      4      9      7      9   180.00  15.16700   2 ;     C2-    C4-    C9-    C7
     2      4      9      8      9   180.00  15.16700   2 ;     C2-    C4-    C9-    C8
     3      1      2      4      9   180.00  15.16700   2 ;     C3-    C1-    C2-    C4
     3      1      2     13      9   180.00  15.16700   2 ;     C3-    C1-    C2-    H2
     3      8      5      6      9   180.00  15.16700   2 ;     C3-    C8-    C5-    C6
     3      8      5     16      9   180.00  15.16700   2 ;     C3-    C8-    C5-    H5
     3      8      9      4      9   180.00  15.16700   2 ;     C3-    C8-    C9-    C4
     3      8      9      7      9   180.00  15.16700   2 ;     C3-    C8-    C9-    C7
     4      9      7     10      9   180.00  15.16700   2 ;     C4-    C9-    C7-   C10
     4      9      7     18      9   180.00  15.16700   2 ;     C4-    C9-    C7-    H7
     4      9      8      5      9   180.00  15.16700   2 ;     C4-    C9-    C8-    C5
     5      6     10      7      9   180.00  15.16700   2 ;     C5-    C6-   C10-    C7
     5      6     10     11      9   180.00  15.16700   2 ;     C5-    C6-   C10-    N1
     5      8      3     14      9   180.00  15.16700   2 ;     C5-    C8-    C3-    H3
     5      8      9      7      9   180.00  15.16700   2 ;     C5-    C8-    C9-    C7
     6      5      8      9      9   180.00  15.16700   2 ;     C6-    C5-    C8-    C9
     6     10      7      9      9   180.00  15.16700   2 ;     C6-   C10-    C7-    C9
     6     10      7     18      9   180.00  15.16700   2 ;     C6-   C10-    C7-    H7
     6     10     11     19      9   180.00   4.39320   2 ;     C6-   C10-    N1-    H8
     6     10     11     20      9   180.00   4.39320   2 ;     C6-   C10-    N1-    H9
     7      9      4     15      9   180.00  15.16700   2 ;     C7-    C9-    C4-    H4
     7     10      6     17      9   180.00  15.16700   2 ;     C7-   C10-    C6-    H6
     7     10     11     19      9   180.00   4.39320   2 ;     C7-   C10-    N1-    H8
     7     10     11     20      9   180.00   4.39320   2 ;     C7-   C10-    N1-    H9
     8      5      6     10      9   180.00  15.16700   2 ;     C8-    C5-    C6-   C10
     8      5      6     17      9   180.00  15.16700   2 ;     C8-    C5-    C6-    H6
     8      9      4     15      9   180.00  15.16700   2 ;     C8-    C9-    C4-    H4
     8      9      7     10      9   180.00  15.16700   2 ;     C8-    C9-    C7-   C10
     8      9      7     18      9   180.00  15.16700   2 ;     C8-    C9-    C7-    H7
     9      4      2     13      9   180.00  15.16700   2 ;     C9-    C4-    C2-    H2
     9      7     10     11      9   180.00  15.16700   2 ;     C9-    C7-   C10-    N1
     9      8      3     14      9   180.00  15.16700   2 ;     C9-    C8-    C3-    H3
     9      8      5     16      9   180.00  15.16700   2 ;     C9-    C8-    C5-    H5
    10      6      5     16      9   180.00  15.16700   2 ;    C10-    C6-    C5-    H5
    11     10      6     17      9   180.00  15.16700   2 ;     N1-   C10-    C6-    H6
    11     10      7     18      9   180.00  15.16700   2 ;     N1-   C10-    C7-    H7
    12      1      2      4      9   180.00  15.16700   2 ;     H1-    C1-    C2-    C4
    12      1      2     13      9   180.00  15.16700   2 ;     H1-    C1-    C2-    H2
    12      1      3      8      9   180.00  15.16700   2 ;     H1-    C1-    C3-    C8
    12      1      3     14      9   180.00  15.16700   2 ;     H1-    C1-    C3-    H3
    13      2      4     15      9   180.00  15.16700   2 ;     H2-    C2-    C4-    H4
    16      5      6     17      9   180.00  15.16700   2 ;     H5-    C5-    C6-    H6

[ dihedrals ] ; impropers
; treated as propers in GROMACS to use correct AMBER analytical function
;    i      j      k      l   func   phase     kd      pn
     1      4      2     13      4   180.00   4.60240   2 ;     C1-    C4-    C2-    H2
     1      8      3     14      4   180.00   4.60240   2 ;     C1-    C8-    C3-    H3
     2      9      4     15      4   180.00   4.60240   2 ;     C2-    C9-    C4-    H4
     3      5      8      9      4   180.00   4.60240   2 ;     C3-    C5-    C8-    C9
     4      7      9      8      4   180.00   4.60240   2 ;     C4-    C7-    C9-    C8
     5     10      6     17      4   180.00   4.60240   2 ;     C5-   C10-    C6-    H6
     6      7     10     11      4   180.00   4.60240   2 ;     C6-    C7-   C10-    N1
     6      8      5     16      4   180.00   4.60240   2 ;     C6-    C8-    C5-    H5
     9     10      7     18      4   180.00   4.60240   2 ;     C9-   C10-    C7-    H7
    10     19     11     20      4   180.00   4.60240   2 ;    C10-    H8-    N1-    H9
    12      1      3      2      4   180.00   4.60240   2 ;     H1-    C1-    C3-    C2
