mobley_628086_GMX.gro created by acpype (v: 2023.10.27) on Thu May 21 00:04:06 2026
   12
    1MOL     C1    1   2.172   2.259   2.343
    1MOL     C2    2   2.226   2.182   2.223
    1MOL     C3    3   2.246   2.272   2.103
    1MOL     O1    4   2.351   2.124   2.257
    1MOL     F1    5   2.130   2.326   2.062
    1MOL     F2    6   2.330   2.374   2.133
    1MOL     F3    7   2.299   2.204   1.999
    1MOL     H1    8   2.236   2.345   2.367
    1MOL     H2    9   2.164   2.195   2.431
    1MOL     H3   10   2.073   2.300   2.320
    1MOL     H4   11   2.157   2.101   2.197
    1MOL     H5   12   2.334   2.031   2.277
   4.45269   4.45269   4.45269
