mobley_628086_GMX.gro created by acpype (v: 2023.10.27) on Thu May 21 00:04:06 2026
 8691
    1MOL     C1    1   2.172   2.259   2.343
    1MOL     C2    2   2.226   2.182   2.223
    1MOL     C3    3   2.246   2.272   2.103
    1MOL     O1    4   2.351   2.124   2.257
    1MOL     F1    5   2.130   2.326   2.062
    1MOL     F2    6   2.330   2.374   2.133
    1MOL     F3    7   2.299   2.204   1.999
    1MOL     H1    8   2.236   2.345   2.367
    1MOL     H2    9   2.164   2.195   2.431
    1MOL     H3   10   2.073   2.300   2.320
    1MOL     H4   11   2.157   2.101   2.197
    1MOL     H5   12   2.334   2.031   2.277
    2SOL     OW   13   0.230   0.628   0.113
    2SOL    HW1   14   0.137   0.626   0.150
    2SOL    HW2   15   0.231   0.589   0.021
    3SOL     OW   16   0.225   0.275   0.996
    3SOL    HW1   17   0.260   0.258   1.088
    3SOL    HW2   18   0.137   0.230   0.984
    4SOL     OW   19   0.019   0.368   0.647
    4SOL    HW1   20  -0.063   0.411   0.686
    4SOL    HW2   21  -0.009   0.295   0.584
    5SOL     OW   22   0.569   1.275   1.165
    5SOL    HW1   23   0.476   1.268   1.128
    5SOL    HW2   24   0.580   1.364   1.209
    6SOL     OW   25   1.555   1.511   0.703
    6SOL    HW1   26   1.498   1.495   0.784
    6SOL    HW2   27   1.496   1.521   0.623
    7SOL     OW   28   1.135   0.703   0.717
    7SOL    HW1   29   1.192   0.781   0.692
    7SOL    HW2   30   1.075   0.729   0.793
    8SOL     OW   31   1.755   0.607   0.231
    8SOL    HW1   32   1.743   0.594   0.132
    8SOL    HW2   33   1.725   0.526   0.280
    9SOL     OW   34   0.768   1.144   1.023
    9SOL    HW1   35   0.690   1.161   1.083
    9SOL    HW2   36   0.802   1.231   0.987
   10SOL     OW   37   0.850   0.798   1.823
   10SOL    HW1   38   0.846   0.874   1.888
   10SOL    HW2   39   0.872   0.834   1.732
   11SOL     OW   40   0.685   1.012   0.665
   11SOL    HW1   41   0.754   0.996   0.735
   11SOL    HW2   42   0.612   1.069   0.703
   12SOL     OW   43   0.686   1.161   1.803
   12SOL    HW1   44   0.746   1.240   1.817
   12SOL    HW2   45   0.600   1.192   1.762
   13SOL     OW   46   0.335   1.435   1.061
   13SOL    HW1   47   0.257   1.404   1.008
   13SOL    HW2   48   0.393   1.493   1.004
   14SOL     OW   49   1.460   1.505   1.339
   14SOL    HW1   50   1.484   1.599   1.365
   14SOL    HW2   51   1.444   1.451   1.421
   15SOL     OW   52   0.438   0.392   1.499
   15SOL    HW1   53   0.520   0.336   1.508
   15SOL    HW2   54   0.357   0.334   1.503
   16SOL     OW   55   1.603   0.447   0.737
   16SOL    HW1   56   1.529   0.493   0.687
   16SOL    HW2   57   1.654   0.515   0.790
   17SOL     OW   58   0.231   1.713   0.483
   17SOL    HW1   59   0.265   1.790   0.537
   17SOL    HW2   60   0.275   1.713   0.393
   18SOL     OW   61   1.127   1.341   1.690
   18SOL    HW1   62   1.174   1.341   1.778
   18SOL    HW2   63   1.079   1.254   1.679
   19SOL     OW   64   0.230   1.434   0.538
   19SOL    HW1   65   0.204   1.530   0.538
   19SOL    HW2   66   0.159   1.380   0.583
   20SOL     OW   67   0.240   1.091   0.886
   20SOL    HW1   68   0.254   1.007   0.938
   20SOL    HW2   69   0.185   1.155   0.941
   21SOL     OW   70   0.620   1.786   1.439
   21SOL    HW1   71   0.528   1.769   1.474
   21SOL    HW2   72   0.648   1.878   1.465
   22SOL     OW   73   0.606   0.964   0.123
   22SOL    HW1   74   0.613   1.048   0.069
   22SOL    HW2   75   0.652   0.977   0.211
   23SOL     OW   76   1.594   0.114   1.480
   23SOL    HW1   77   1.576   0.181   1.408
   23SOL    HW2   78   1.591   0.160   1.569
   24SOL     OW   79   0.122   0.643   0.563
   24SOL    HW1   80   0.077   0.555   0.580
   24SOL    HW2   81   0.121   0.697   0.647
   25SOL     OW   82   1.842   1.767   0.359
   25SOL    HW1   83   1.896   1.738   0.439
   25SOL    HW2   84   1.872   1.857   0.330
   26SOL     OW   85   0.027   1.596   0.117
   26SOL    HW1   86   0.008   1.500   0.138
   26SOL    HW2   87  -0.006   1.654   0.192
   27SOL     OW   88   1.689   0.922   0.612
   27SOL    HW1   89   1.784   0.893   0.620
   27SOL    HW2   90   1.681   0.987   0.537
   28SOL     OW   91   1.641   1.108   0.432
   28SOL    HW1   92   1.727   1.110   0.380
   28SOL    HW2   93   1.655   1.155   0.520
   29SOL     OW   94   0.113   0.737   1.597
   29SOL    HW1   95   0.201   0.724   1.642
   29SOL    HW2   96   0.100   0.834   1.575
   30SOL     OW   97   0.613   1.365   0.726
   30SOL    HW1   98   0.564   1.278   0.735
   30SOL    HW2   99   0.590   1.408   0.639
   31SOL     OW  100   1.293   1.228   1.423
   31SOL    HW1  101   1.330   1.155   1.365
   31SOL    HW2  102   1.345   1.233   1.508
   32SOL     OW  103   0.809   0.004   0.502
   32SOL    HW1  104   0.849   0.095   0.493
   32SOL    HW2  105   0.709   0.012   0.508
   33SOL     OW  106   0.197   0.976   1.264
   33SOL    HW1  107   0.286   0.931   1.250
   33SOL    HW2  108   0.124   0.911   1.245
   34SOL     OW  109   1.525   0.999   0.190
   34SOL    HW1  110   1.462   0.923   0.203
   34SOL    HW2  111   1.573   1.017   0.276
   35SOL     OW  112   1.187   1.792   1.616
   35SOL    HW1  113   1.211   1.852   1.540
   35SOL    HW2  114   1.194   1.697   1.586
   36SOL     OW  115   0.317   0.251   1.801
   36SOL    HW1  116   0.388   0.322   1.807
   36SOL    HW2  117   0.229   0.290   1.829
   37SOL     OW  118   1.466   1.417   0.953
   37SOL    HW1  119   1.407   1.423   1.033
   37SOL    HW2  120   1.451   1.329   0.907
   38SOL     OW  121   1.667   1.714   0.572
   38SOL    HW1  122   1.626   1.691   0.484
   38SOL    HW2  123   1.649   1.640   0.637
   39SOL     OW  124   0.598   0.729   0.270
   39SOL    HW1  125   0.622   0.798   0.202
   39SOL    HW2  126   0.520   0.762   0.324
   40SOL     OW  127   1.281   0.345   0.944
   40SOL    HW1  128   1.195   0.295   0.931
   40SOL    HW2  129   1.343   0.291   1.000
   41SOL     OW  130   1.576   1.662   0.307
   41SOL    HW1  131   1.665   1.708   0.310
   41SOL    HW2  132   1.555   1.638   0.212
   42SOL     OW  133   0.807   0.605   1.465
   42SOL    HW1  134   0.760   0.602   1.554
   42SOL    HW2  135   0.756   0.550   1.399
   43SOL     OW  136   1.394   0.469   1.674
   43SOL    HW1  137   1.374   0.512   1.762
   43SOL    HW2  138   1.472   0.407   1.683
   44SOL     OW  139   0.973   0.890   1.572
   44SOL    HW1  140   1.019   0.806   1.543
   44SOL    HW2  141   0.917   0.924   1.497
   45SOL     OW  142   0.991   0.410   1.242
   45SOL    HW1  143   0.914   0.444   1.296
   45SOL    HW2  144   0.957   0.359   1.163
   46SOL     OW  145   1.041   0.701   0.429
   46SOL    HW1  146   1.067   0.697   0.525
   46SOL    HW2  147   0.956   0.650   0.415
   47SOL     OW  148   0.076   0.811   0.789
   47SOL    HW1  149   0.175   0.799   0.798
   47SOL    HW2  150   0.052   0.906   0.810
   48SOL     OW  151   0.130   1.821   1.571
   48SOL    HW1  152   0.120   1.806   1.670
   48SOL    HW2  153   0.044   1.857   1.535
   49SOL     OW  154   0.865   0.348   0.195
   49SOL    HW1  155   0.924   0.411   0.146
   49SOL    HW2  156   0.884   0.254   0.166
   50SOL     OW  157   1.719   0.585   1.831
   50SOL    HW1  158   1.693   0.674   1.795
   50SOL    HW2  159   1.717   0.517   1.758
   51SOL     OW  160   1.362   1.144   0.545
   51SOL    HW1  161   1.445   1.115   0.497
   51SOL    HW2  162   1.313   1.211   0.489
   52SOL     OW  163   0.550   0.196   0.885
   52SOL    HW1  164   0.545   0.191   0.985
   52SOL    HW2  165   0.552   0.292   0.856
   53SOL     OW  166   1.008   1.456   0.477
   53SOL    HW1  167   0.962   1.528   0.425
   53SOL    HW2  168   1.004   1.476   0.575
   54SOL     OW  169   0.351   1.801   0.853
   54SOL    HW1  170   0.401   1.715   0.859
   54SOL    HW2  171   0.416   1.878   0.850
   55SOL     OW  172   1.795   1.066   0.873
   55SOL    HW1  173   1.733   1.051   0.797
   55SOL    HW2  174   1.743   1.077   0.958
   56SOL     OW  175   1.227   1.550   1.506
   56SOL    HW1  176   1.233   1.473   1.570
   56SOL    HW2  177   1.175   1.524   1.426
   57SOL     OW  178   0.321   0.943   0.242
   57SOL    HW1  179   0.403   0.982   0.200
   57SOL    HW2  180   0.294   0.861   0.193
   58SOL     OW  181   1.458   0.735   0.728
   58SOL    HW1  182   1.453   0.670   0.803
   58SOL    HW2  183   1.538   0.794   0.741
   59SOL     OW  184   0.461   1.266   1.727
   59SOL    HW1  185   0.411   1.267   1.641
   59SOL    HW2  186   0.398   1.248   1.803
   60SOL     OW  187   1.111   1.776   0.237
   60SOL    HW1  188   1.051   1.714   0.287
   60SOL    HW2  189   1.142   1.732   0.152
   61SOL     OW  190   0.202   0.285   1.498
   61SOL    HW1  191   0.122   0.345   1.485
   61SOL    HW2  192   0.192   0.236   1.584
   62SOL     OW  193   1.632   1.377   0.081
   62SOL    HW1  194   1.600   1.471   0.071
   62SOL    HW2  195   1.556   1.314   0.069
   63SOL     OW  196   0.464   1.743   0.323
   63SOL    HW1  197   0.497   1.782   0.409
   63SOL    HW2  198   0.540   1.736   0.258
   64SOL     OW  199   1.400   0.107   0.426
   64SOL    HW1  200   1.376   0.070   0.336
   64SOL    HW2  201   1.499   0.123   0.430
   65SOL     OW  202   0.249   1.785   1.241
   65SOL    HW1  203   0.306   1.720   1.291
   65SOL    HW2  204   0.233   1.752   1.148
   66SOL     OW  205   0.940   1.698   0.904
   66SOL    HW1  206   1.020   1.641   0.925
   66SOL    HW2  207   0.891   1.658   0.827
   67SOL     OW  208   0.382   0.700   0.480
   67SOL    HW1  209   0.427   0.610   0.477
   67SOL    HW2  210   0.288   0.689   0.513
   68SOL     OW  211   1.547   0.222   1.729
   68SOL    HW1  212   1.542   0.259   1.821
   68SOL    HW2  213   1.475   0.153   1.717
   69SOL     OW  214   0.614   0.122   0.117
   69SOL    HW1  215   0.712   0.100   0.124
   69SOL    HW2  216   0.583   0.105   0.024
   70SOL     OW  217   0.781   0.264   1.749
   70SOL    HW1  218   0.848   0.203   1.792
   70SOL    HW2  219   0.708   0.283   1.814
   71SOL     OW  220   0.888   1.514   1.195
   71SOL    HW1  221   0.865   1.489   1.101
   71SOL    HW2  222   0.949   1.445   1.234
   72SOL     OW  223   1.351   0.590   1.433
   72SOL    HW1  224   1.379   0.547   1.518
   72SOL    HW2  225   1.376   0.686   1.434
   73SOL     OW  226   0.803   1.402   0.924
   73SOL    HW1  227   0.893   1.416   0.882
   73SOL    HW2  228   0.732   1.404   0.853
   74SOL     OW  229   0.922   0.503   0.899
   74SOL    HW1  230   0.897   0.494   0.803
   74SOL    HW2  231   0.970   0.421   0.930
   75SOL     OW  232   0.539   0.064   0.512
   75SOL    HW1  233   0.458   0.065   0.570
   75SOL    HW2  234   0.542   0.147   0.457
   76SOL     OW  235   1.434   1.188   0.041
   76SOL    HW1  236   1.466   1.112   0.098
   76SOL    HW2  237   1.342   1.215   0.071
   77SOL     OW  238   0.297   0.035   0.171
   77SOL    HW1  239   0.346   0.119   0.150
   77SOL    HW2  240   0.359  -0.030   0.216
   78SOL     OW  241   0.935   0.236   0.480
   78SOL    HW1  242   0.887   0.277   0.402
   78SOL    HW2  243   1.034   0.234   0.461
   79SOL     OW  244   1.076   0.683   1.464
   79SOL    HW1  245   0.996   0.622   1.467
   79SOL    HW2  246   1.157   0.630   1.440
   80SOL     OW  247   1.227   1.570   0.793
   80SOL    HW1  248   1.248   1.644   0.728
   80SOL    HW2  249   1.295   1.570   0.866
   81SOL     OW  250   0.459   1.152   0.741
   81SOL    HW1  251   0.388   1.125   0.806
   81SOL    HW2  252   0.433   1.124   0.648
   82SOL     OW  253   1.271   1.797   0.591
   82SOL    HW1  254   1.315   1.861   0.527
   82SOL    HW2  255   1.221   1.849   0.661
   83SOL     OW  256   1.032   0.549   0.016
   83SOL    HW1  257   0.991   0.631  -0.023
   83SOL    HW2  258   1.096   0.575   0.089
   84SOL     OW  259   0.078   0.556   1.386
   84SOL    HW1  260   0.170   0.555   1.345
   84SOL    HW2  261   0.072   0.630   1.453
   85SOL     OW  262   0.561   0.222   1.147
   85SOL    HW1  263   0.599   0.138   1.184
   85SOL    HW2  264   0.473   0.241   1.191
   86SOL     OW  265   0.866   0.454   0.642
   86SOL    HW1  266   0.834   0.526   0.580
   86SOL    HW2  267   0.890   0.373   0.589
   87SOL     OW  268   1.017   0.039   0.753
   87SOL    HW1  269   0.945   0.044   0.684
   87SOL    HW2  270   0.993  -0.030   0.822
   88SOL     OW  271   1.429   1.173   0.867
   88SOL    HW1  272   1.374   1.089   0.860
   88SOL    HW2  273   1.455   1.202   0.775
   89SOL     OW  274   1.466   0.590   0.992
   89SOL    HW1  275   1.436   0.495   0.999
   89SOL    HW2  276   1.539   0.606   1.058
   90SOL     OW  277   1.857   0.833   0.377
   90SOL    HW1  278   1.899   0.769   0.441
   90SOL    HW2  279   1.819   0.782   0.299
   91SOL     OW  280   0.488   1.385   0.174
   91SOL    HW1  281   0.401   1.370   0.221
   91SOL    HW2  282   0.471   1.411   0.079
   92SOL     OW  283   1.664   1.280   0.657
   92SOL    HW1  284   1.763   1.288   0.671
   92SOL    HW2  285   1.619   1.364   0.688
   93SOL     OW  286   1.390   0.575   0.078
   93SOL    HW1  287   1.336   0.554   0.159
   93SOL    HW2  288   1.481   0.534   0.087
   94SOL     OW  289   0.527   0.256   0.328
   94SOL    HW1  290   0.554   0.197   0.253
   94SOL    HW2  291   0.527   0.351   0.297
   95SOL     OW  292   1.754   1.223   1.588
   95SOL    HW1  293   1.845   1.184   1.575
   95SOL    HW2  294   1.762   1.319   1.612
   96SOL     OW  295   1.064   1.347   1.340
   96SOL    HW1  296   0.984   1.324   1.395
   96SOL    HW2  297   1.147   1.321   1.389
   97SOL     OW  298   1.592   1.629   1.625
   97SOL    HW1  299   1.619   1.663   1.535
   97SOL    HW2  300   1.671   1.591   1.671
   98SOL     OW  301   1.111   1.195   1.100
   98SOL    HW1  302   1.071   1.239   1.181
   98SOL    HW2  303   1.070   1.232   1.017
   99SOL     OW  304   1.638   1.099   1.079
   99SOL    HW1  305   1.643   1.180   1.138
   99SOL    HW2  306   1.552   1.101   1.028
  100SOL     OW  307   0.915   0.089   1.402
  100SOL    HW1  308   0.940   0.069   1.307
  100SOL    HW2  309   0.987   0.145   1.444
  101SOL     OW  310   0.980   1.116   1.719
  101SOL    HW1  311   0.881   1.122   1.729
  101SOL    HW2  312   1.003   1.036   1.663
  102SOL     OW  313   0.705   1.050   0.368
  102SOL    HW1  314   0.691   1.057   0.467
  102SOL    HW2  315   0.789   0.999   0.350
  103SOL     OW  316   0.410   0.813   1.251
  103SOL    HW1  317   0.496   0.825   1.301
  103SOL    HW2  318   0.368   0.726   1.278
  104SOL     OW  319   1.274   0.386   1.262
  104SOL    HW1  320   1.295   0.460   1.326
  104SOL    HW2  321   1.185   0.403   1.219
  105SOL     OW  322   0.064   1.564   1.331
  105SOL    HW1  323   0.018   1.646   1.297
  105SOL    HW2  324   0.162   1.583   1.340
  106SOL     OW  325   0.367   1.100   0.501
  106SOL    HW1  326   0.360   1.183   0.445
  106SOL    HW2  327   0.371   1.020   0.441
  107SOL     OW  328   0.566   0.537   0.865
  107SOL    HW1  329   0.578   0.603   0.791
  107SOL    HW2  330   0.612   0.571   0.948
  108SOL     OW  331   1.252   1.348   0.388
  108SOL    HW1  332   1.302   1.425   0.428
  108SOL    HW2  333   1.157   1.350   0.420
  109SOL     OW  334   1.272   1.445   1.142
  109SOL    HW1  335   1.319   1.458   1.229
  109SOL    HW2  336   1.206   1.371   1.151
  110SOL     OW  337   1.582   0.639   0.472
  110SOL    HW1  338   1.551   0.700   0.545
  110SOL    HW2  339   1.632   0.691   0.403
  111SOL     OW  340   0.354   1.510   1.329
  111SOL    HW1  341   0.333   1.466   1.242
  111SOL    HW2  342   0.451   1.536   1.332
  112SOL     OW  343   0.402   0.751   1.598
  112SOL    HW1  344   0.470   0.806   1.551
  112SOL    HW2  345   0.442   0.663   1.625
  113SOL     OW  346   1.587   0.779   1.670
  113SOL    HW1  347   1.495   0.817   1.665
  113SOL    HW2  348   1.647   0.826   1.605
  114SOL     OW  349   1.013   0.105   1.770
  114SOL    HW1  350   1.019   0.190   1.718
  114SOL    HW2  351   1.045   0.029   1.713
  115SOL     OW  352   0.504   0.050   1.740
  115SOL    HW1  353   0.462  -0.007   1.670
  115SOL    HW2  354   0.438   0.119   1.772
  116SOL     OW  355   0.573   0.870   1.029
  116SOL    HW1  356   0.617   0.959   1.020
  116SOL    HW2  357   0.510   0.870   1.106
  117SOL     OW  358   1.360   0.862   1.045
  117SOL    HW1  359   1.285   0.862   0.979
  117SOL    HW2  360   1.397   0.770   1.054
  118SOL     OW  361   1.209   0.525   0.275
  118SOL    HW1  362   1.222   0.441   0.329
  118SOL    HW2  363   1.180   0.599   0.335
  119SOL     OW  364   0.307   0.213   1.231
  119SOL    HW1  365   0.284   0.250   1.321
  119SOL    HW2  366   0.277   0.118   1.225
  120SOL     OW  367   0.037   1.310   1.282
  120SOL    HW1  368   0.090   1.261   1.350
  120SOL    HW2  369   0.059   1.408   1.287
  121SOL     OW  370   0.732   0.634   1.064
  121SOL    HW1  371   0.791   0.608   0.988
  121SOL    HW2  372   0.704   0.730   1.053
  122SOL     OW  373   1.728   0.935   1.854
  122SOL    HW1  374   1.682   0.928   1.765
  122SOL    HW2  375   1.666   0.979   1.920
  123SOL     OW  376   0.307   0.063   0.618
  123SOL    HW1  377   0.296   0.157   0.651
  123SOL    HW2  378   0.302   0.000   0.695
  124SOL     OW  379   1.622   0.367   0.374
  124SOL    HW1  380   1.624   0.291   0.438
  124SOL    HW2  381   1.574   0.444   0.414
  125SOL     OW  382   1.023   0.766   0.966
  125SOL    HW1  383   1.038   0.787   1.062
  125SOL    HW2  384   0.993   0.671   0.957
  126SOL     OW  385   0.980   1.573   1.700
  126SOL    HW1  386   0.960   1.617   1.612
  126SOL    HW2  387   1.019   1.482   1.684
  127SOL     OW  388   1.859   1.518   1.605
  127SOL    HW1  389   1.873   1.545   1.510
  127SOL    HW2  390   1.942   1.540   1.658
  128SOL     OW  391   0.350   0.898   1.804
  128SOL    HW1  392   0.426   0.942   1.852
  128SOL    HW2  393   0.385   0.851   1.722
  129SOL     OW  394   1.540   0.274   0.125
  129SOL    HW1  395   1.479   0.199   0.148
  129SOL    HW2  396   1.562   0.326   0.208
  130SOL     OW  397   1.303   0.838   0.042
  130SOL    HW1  398   1.337   0.745   0.057
  130SOL    HW2  399   1.321   0.865  -0.053
  131SOL     OW  400   1.068   1.333   0.849
  131SOL    HW1  401   1.075   1.249   0.794
  131SOL    HW2  402   1.130   1.402   0.813
  132SOL     OW  403   0.319   0.810   0.949
  132SOL    HW1  404   0.412   0.846   0.954
  132SOL    HW2  405   0.313   0.725   1.001
  133SOL     OW  406   0.339   0.509   1.006
  133SOL    HW1  407   0.287   0.426   0.989
  133SOL    HW2  408   0.416   0.514   0.942
  134SOL     OW  409   1.138   0.380   1.678
  134SOL    HW1  410   1.093   0.443   1.742
  134SOL    HW2  411   1.231   0.411   1.661
  135SOL     OW  412   1.160   0.207   1.477
  135SOL    HW1  413   1.160   0.271   1.554
  135SOL    HW2  414   1.188   0.255   1.394
  136SOL     OW  415   0.008   1.326   0.200
  136SOL    HW1  416  -0.085   1.347   0.169
  136SOL    HW2  417   0.018   1.227   0.213
  137SOL     OW  418   0.088   1.801   0.927
  137SOL    HW1  419   0.046   1.715   0.900
  137SOL    HW2  420   0.182   1.804   0.893
  138SOL     OW  421   0.504   1.568   0.910
  138SOL    HW1  422   0.570   1.642   0.919
  138SOL    HW2  423   0.548   1.489   0.868
  139SOL     OW  424   1.002   0.796   1.238
  139SOL    HW1  425   1.043   0.764   1.324
  139SOL    HW2  426   0.906   0.769   1.235
  140SOL     OW  427   0.040   0.544   1.114
  140SOL    HW1  428   0.125   0.511   1.073
  140SOL    HW2  429   0.053   0.559   1.212
  141SOL     OW  430   0.189   0.520   1.722
  141SOL    HW1  431   0.248   0.480   1.652
  141SOL    HW2  432   0.131   0.591   1.681
  142SOL     OW  433   1.369   0.950   1.660
  142SOL    HW1  434   1.408   1.039   1.680
  142SOL    HW2  435   1.379   0.930   1.563
  143SOL     OW  436   0.815   0.572   0.325
  143SOL    HW1  437   0.822   0.483   0.279
  143SOL    HW2  438   0.721   0.606   0.317
  144SOL     OW  439   1.657   0.604   1.206
  144SOL    HW1  440   1.619   0.535   1.268
  144SOL    HW2  441   1.739   0.568   1.162
  145SOL     OW  442   0.252   1.564   1.744
  145SOL    HW1  443   0.222   1.621   1.820
  145SOL    HW2  444   0.245   1.467   1.770
  146SOL     OW  445   0.671   0.464   1.269
  146SOL    HW1  446   0.637   0.375   1.239
  146SOL    HW2  447   0.697   0.518   1.189
  147SOL     OW  448   0.930   1.678   1.465
  147SOL    HW1  449   0.906   1.660   1.370
  147SOL    HW2  450   0.960   1.772   1.475
  148SOL     OW  451   0.473   0.500   0.191
  148SOL    HW1  452   0.534   0.580   0.195
  148SOL    HW2  453   0.378   0.531   0.198
  149SOL     OW  454   0.159   1.137   1.466
  149SOL    HW1  455   0.181   1.076   1.542
  149SOL    HW2  456   0.169   1.088   1.380
  150SOL     OW  457   1.347   1.059   1.234
  150SOL    HW1  458   1.371   0.996   1.160
  150SOL    HW2  459   1.257   1.099   1.216
  151SOL     OW  460   1.302   0.855   0.309
  151SOL    HW1  461   1.216   0.824   0.351
  151SOL    HW2  462   1.298   0.841   0.210
  152SOL     OW  463   1.759   1.747   1.154
  152SOL    HW1  464   1.820   1.777   1.081
  152SOL    HW2  465   1.721   1.658   1.132
  153SOL     OW  466   1.252   1.731   1.128
  153SOL    HW1  467   1.336   1.736   1.074
  153SOL    HW2  468   1.229   1.635   1.146
  154SOL     OW  469   0.083   1.258   1.022
  154SOL    HW1  470   0.078   1.257   1.122
  154SOL    HW2  471   0.000   1.217   0.984
  155SOL     OW  472   0.688   1.662   1.716
  155SOL    HW1  473   0.632   1.743   1.725
  155SOL    HW2  474   0.740   1.666   1.630
  156SOL     OW  475   0.903   0.086   0.133
  156SOL    HW1  476   0.954   0.087   0.047
  156SOL    HW2  477   0.959   0.044   0.204
  157SOL     OW  478   1.726   0.135   0.523
  157SOL    HW1  479   1.799   0.118   0.456
  157SOL    HW2  480   1.695   0.048   0.561
  158SOL     OW  481   1.388   1.573   0.477
  158SOL    HW1  482   1.455   1.585   0.403
  158SOL    HW2  483   1.348   1.662   0.500
  159SOL     OW  484   0.130   1.794   1.851
  159SOL    HW1  485   0.089   1.720   1.904
  159SOL    HW2  486   0.194   1.845   1.909
  160SOL     OW  487   1.280   0.927   0.672
  160SOL    HW1  488   1.340   0.846   0.674
  160SOL    HW2  489   1.320   0.996   0.612
  161SOL     OW  490   0.830   1.273   1.422
  161SOL    HW1  491   0.825   1.306   1.517
  161SOL    HW2  492   0.744   1.292   1.376
  162SOL     OW  493   0.672   1.616   0.154
  162SOL    HW1  494   0.681   1.626   0.055
  162SOL    HW2  495   0.632   1.527   0.175
  163SOL     OW  496   1.650   1.720   1.394
  163SOL    HW1  497   1.703   1.730   1.310
  163SOL    HW2  498   1.623   1.810   1.428
  164SOL     OW  499   1.841   0.175   0.963
  164SOL    HW1  500   1.880   0.090   0.927
  164SOL    HW2  501   1.743   0.177   0.944
  165SOL     OW  502   0.263   0.326   0.720
  165SOL    HW1  503   0.184   0.377   0.686
  165SOL    HW2  504   0.254   0.311   0.818
  166SOL     OW  505   1.194   1.612   0.031
  166SOL    HW1  506   1.200   1.519   0.068
  166SOL    HW2  507   1.135   1.612  -0.049
  167SOL     OW  508   0.822   1.002   1.372
  167SOL    HW1  509   0.862   1.001   1.280
  167SOL    HW2  510   0.832   1.094   1.412
  168SOL     OW  511   0.916   0.910   0.291
  168SOL    HW1  512   0.979   0.948   0.223
  168SOL    HW2  513   0.956   0.827   0.330
  169SOL     OW  514   1.504   1.607   0.044
  169SOL    HW1  515   1.412   1.644   0.051
  169SOL    HW2  516   1.542   1.627  -0.046
  170SOL     OW  517   0.372   1.288   1.490
  170SOL    HW1  518   0.359   1.381   1.456
  170SOL    HW2  519   0.288   1.236   1.477
  171SOL     OW  520   1.614   1.292   1.289
  171SOL    HW1  521   1.674   1.295   1.369
  171SOL    HW2  522   1.539   1.356   1.302
  172SOL     OW  523   1.039   1.098   0.696
  172SOL    HW1  524   0.969   1.051   0.750
  172SOL    HW2  525   1.098   1.030   0.653
  173SOL     OW  526   1.014   0.236   0.971
  173SOL    HW1  527   1.006   0.200   0.878
  173SOL    HW2  528   1.012   0.160   1.036
  174SOL     OW  529   0.590   1.487   0.491
  174SOL    HW1  530   0.632   1.429   0.421
  174SOL    HW2  531   0.546   1.566   0.447
  175SOL     OW  532   1.709   0.385   1.381
  175SOL    HW1  533   1.782   0.454   1.385
  175SOL    HW2  534   1.737   0.310   1.322
  176SOL     OW  535   0.255   1.348   0.290
  176SOL    HW1  536   0.159   1.349   0.263
  176SOL    HW2  537   0.267   1.401   0.374
  177SOL     OW  538   0.105   1.013   1.726
  177SOL    HW1  539   0.028   0.980   1.780
  177SOL    HW2  540   0.190   0.983   1.768
  178SOL     OW  541   0.672   0.203   1.489
  178SOL    HW1  542   0.762   0.187   1.449
  178SOL    HW2  543   0.680   0.208   1.588
  179SOL     OW  544   0.075   0.345   0.033
  179SOL    HW1  545  -0.017   0.317   0.004
  179SOL    HW2  546   0.106   0.422  -0.023
  180SOL     OW  547   1.440   0.856   1.398
  180SOL    HW1  548   1.383   0.908   1.335
  180SOL    HW2  549   1.536   0.868   1.374
  181SOL     OW  550   0.072   0.166   0.318
  181SOL    HW1  551   0.055   0.249   0.264
  181SOL    HW2  552   0.162   0.129   0.296
  182SOL     OW  553   1.183   1.335   0.119
  182SOL    HW1  554   1.084   1.324   0.121
  182SOL    HW2  555   1.217   1.350   0.212
  183SOL     OW  556   0.613   0.842   1.431
  183SOL    HW1  557   0.669   0.923   1.414
  183SOL    HW2  558   0.672   0.762   1.434
  184SOL     OW  559   1.493   1.767   0.959
  184SOL    HW1  560   1.526   1.831   0.890
  184SOL    HW2  561   1.559   1.761   1.034
  185SOL     OW  562   0.716   0.565   1.708
  185SOL    HW1  563   0.735   0.630   1.782
  185SOL    HW2  564   0.776   0.485   1.717
  186SOL     OW  565   1.450   1.220   1.633
  186SOL    HW1  566   1.441   1.210   1.732
  186SOL    HW2  567   1.546   1.213   1.607
  187SOL     OW  568   0.390   1.741   1.560
  187SOL    HW1  569   0.299   1.782   1.558
  187SOL    HW2  570   0.383   1.647   1.592
  188SOL     OW  571   1.674   0.883   1.254
  188SOL    HW1  572   1.647   0.794   1.217
  188SOL    HW2  573   1.675   0.951   1.181
  189SOL     OW  574   1.225   0.325   0.449
  189SOL    HW1  575   1.290   0.251   0.438
  189SOL    HW2  576   1.245   0.375   0.533
  190SOL     OW  577   0.594   0.745   0.652
  190SOL    HW1  578   0.644   0.830   0.633
  190SOL    HW2  579   0.506   0.747   0.604
  191SOL     OW  580   1.777   0.342   1.642
  191SOL    HW1  581   1.760   0.373   1.548
  191SOL    HW2  582   1.693   0.305   1.680
  192SOL     OW  583   1.730   0.934   1.517
  192SOL    HW1  584   1.768   1.025   1.532
  192SOL    HW2  585   1.722   0.917   1.418
  193SOL     OW  586   0.859   1.374   0.016
  193SOL    HW1  587   0.813   1.389   0.104
  193SOL    HW2  588   0.903   1.459  -0.014
  194SOL     OW  589   0.661   1.790   0.953
  194SOL    HW1  590   0.615   1.878   0.940
  194SOL    HW2  591   0.760   1.802   0.946
  195SOL     OW  592   0.859   0.956   0.861
  195SOL    HW1  593   0.913   0.887   0.909
  195SOL    HW2  594   0.827   1.025   0.927
  196SOL     OW  595   1.083   0.984   0.087
  196SOL    HW1  596   1.060   1.037   0.005
  196SOL    HW2  597   1.164   0.928   0.068
  197SOL     OW  598   1.861   1.569   0.851
  197SOL    HW1  599   1.790   1.557   0.781
  197SOL    HW2  600   1.862   1.490   0.911
  198SOL     OW  601   0.221   1.314   1.844
  198SOL    HW1  602   0.156   1.241   1.823
  198SOL    HW2  603   0.225   1.328   1.942
  199SOL     OW  604   0.079   1.240   0.653
  199SOL    HW1  605   0.078   1.193   0.741
  199SOL    HW2  606   0.161   1.212   0.602
  200SOL     OW  607   0.672   1.391   1.624
  200SOL    HW1  608   0.594   1.341   1.662
  200SOL    HW2  609   0.669   1.486   1.655
  201SOL     OW  610   1.824   0.192   1.227
  201SOL    HW1  611   1.820   0.102   1.271
  201SOL    HW2  612   1.827   0.181   1.128
  202SOL     OW  613   0.428   0.424   0.520
  202SOL    HW1  614   0.458   0.352   0.458
  202SOL    HW2  615   0.389   0.384   0.603
  203SOL     OW  616   1.705   1.487   1.104
  203SOL    HW1  617   1.612   1.462   1.077
  203SOL    HW2  618   1.731   1.437   1.186
  204SOL     OW  619   0.317   0.547   1.280
  204SOL    HW1  620   0.355   0.488   1.352
  204SOL    HW2  621   0.357   0.521   1.192
  205SOL     OW  622   0.812   1.586   0.687
  205SOL    HW1  623   0.844   1.596   0.593
  205SOL    HW2  624   0.733   1.524   0.689
  206SOL     OW  625   1.424   0.214   1.112
  206SOL    HW1  626   1.476   0.149   1.167
  206SOL    HW2  627   1.375   0.277   1.173
  207SOL     OW  628   1.001   0.034   1.154
  207SOL    HW1  629   0.938  -0.038   1.123
  207SOL    HW2  630   1.094  -0.002   1.154
  208SOL     OW  631   0.770   1.330   0.301
  208SOL    HW1  632   0.724   1.243   0.318
  208SOL    HW2  633   0.861   1.327   0.342
  209SOL     OW  634   0.618   1.567   1.284
  209SOL    HW1  635   0.613   1.649   1.341
  209SOL    HW2  636   0.707   1.564   1.239
  210SOL     OW  637   1.352   0.052   0.168
  210SOL    HW1  638   1.387   0.011   0.084
  210SOL    HW2  639   1.262   0.014   0.188
  211SOL     OW  640   1.300   0.453   0.691
  211SOL    HW1  641   1.241   0.533   0.695
  211SOL    HW2  642   1.315   0.418   0.784
  212SOL     OW  643   1.593   0.221   0.882
  212SOL    HW1  644   1.509   0.220   0.936
  212SOL    HW2  645   1.595   0.304   0.826
  213SOL     OW  646   0.039   1.077   0.300
  213SOL    HW1  647   0.138   1.066   0.291
  213SOL    HW2  648  -0.001   0.991   0.332
  214SOL     OW  649   0.875   1.646   0.337
  214SOL    HW1  650   0.798   1.611   0.283
  214SOL    HW2  651   0.843   1.717   0.399
  215SOL     OW  652   0.230   0.628   1.975
  215SOL    HW1  653   0.137   0.626   2.012
  215SOL    HW2  654   0.231   0.589   1.883
  216SOL     OW  655   0.225   0.275   2.858
  216SOL    HW1  656   0.260   0.258   2.950
  216SOL    HW2  657   0.137   0.230   2.846
  217SOL     OW  658   0.019   0.368   2.509
  217SOL    HW1  659  -0.063   0.411   2.548
  217SOL    HW2  660  -0.009   0.295   2.446
  218SOL     OW  661   0.569   1.275   3.027
  218SOL    HW1  662   0.476   1.268   2.990
  218SOL    HW2  663   0.580   1.364   3.071
  219SOL     OW  664   1.555   1.511   2.565
  219SOL    HW1  665   1.498   1.495   2.646
  219SOL    HW2  666   1.496   1.521   2.485
  220SOL     OW  667   1.135   0.703   2.579
  220SOL    HW1  668   1.192   0.781   2.554
  220SOL    HW2  669   1.075   0.729   2.655
  221SOL     OW  670   1.755   0.607   2.093
  221SOL    HW1  671   1.743   0.594   1.994
  221SOL    HW2  672   1.725   0.526   2.142
  222SOL     OW  673   0.768   1.144   2.885
  222SOL    HW1  674   0.690   1.161   2.945
  222SOL    HW2  675   0.802   1.231   2.849
  223SOL     OW  676   0.850   0.798   3.685
  223SOL    HW1  677   0.846   0.874   3.750
  223SOL    HW2  678   0.872   0.834   3.594
  224SOL     OW  679   0.685   1.012   2.527
  224SOL    HW1  680   0.754   0.996   2.597
  224SOL    HW2  681   0.612   1.069   2.565
  225SOL     OW  682   0.686   1.161   3.665
  225SOL    HW1  683   0.746   1.240   3.679
  225SOL    HW2  684   0.600   1.192   3.624
  226SOL     OW  685   0.335   1.435   2.923
  226SOL    HW1  686   0.257   1.404   2.870
  226SOL    HW2  687   0.393   1.493   2.866
  227SOL     OW  688   1.460   1.505   3.201
  227SOL    HW1  689   1.484   1.599   3.227
  227SOL    HW2  690   1.444   1.451   3.283
  228SOL     OW  691   0.438   0.392   3.361
  228SOL    HW1  692   0.520   0.336   3.370
  228SOL    HW2  693   0.357   0.334   3.365
  229SOL     OW  694   1.603   0.447   2.599
  229SOL    HW1  695   1.529   0.493   2.549
  229SOL    HW2  696   1.654   0.515   2.652
  230SOL     OW  697   0.231   1.713   2.345
  230SOL    HW1  698   0.265   1.790   2.399
  230SOL    HW2  699   0.275   1.713   2.255
  231SOL     OW  700   1.127   1.341   3.552
  231SOL    HW1  701   1.174   1.341   3.640
  231SOL    HW2  702   1.079   1.254   3.541
  232SOL     OW  703   0.230   1.434   2.400
  232SOL    HW1  704   0.204   1.530   2.400
  232SOL    HW2  705   0.159   1.380   2.445
  233SOL     OW  706   0.240   1.091   2.748
  233SOL    HW1  707   0.254   1.007   2.800
  233SOL    HW2  708   0.185   1.155   2.803
  234SOL     OW  709   0.620   1.786   3.301
  234SOL    HW1  710   0.528   1.769   3.336
  234SOL    HW2  711   0.648   1.878   3.327
  235SOL     OW  712   0.606   0.964   1.985
  235SOL    HW1  713   0.613   1.048   1.931
  235SOL    HW2  714   0.652   0.977   2.073
  236SOL     OW  715   1.594   0.114   3.342
  236SOL    HW1  716   1.576   0.181   3.270
  236SOL    HW2  717   1.591   0.160   3.431
  237SOL     OW  718   0.122   0.643   2.425
  237SOL    HW1  719   0.077   0.555   2.442
  237SOL    HW2  720   0.121   0.697   2.509
  238SOL     OW  721   1.842   1.767   2.221
  238SOL    HW1  722   1.896   1.738   2.301
  238SOL    HW2  723   1.872   1.857   2.192
  239SOL     OW  724   0.027   1.596   1.979
  239SOL    HW1  725   0.008   1.500   2.000
  239SOL    HW2  726  -0.006   1.654   2.054
  240SOL     OW  727   1.689   0.922   2.474
  240SOL    HW1  728   1.784   0.893   2.482
  240SOL    HW2  729   1.681   0.987   2.399
  241SOL     OW  730   1.641   1.108   2.294
  241SOL    HW1  731   1.727   1.110   2.242
  241SOL    HW2  732   1.655   1.155   2.382
  242SOL     OW  733   0.113   0.737   3.459
  242SOL    HW1  734   0.201   0.724   3.504
  242SOL    HW2  735   0.100   0.834   3.437
  243SOL     OW  736   0.613   1.365   2.588
  243SOL    HW1  737   0.564   1.278   2.597
  243SOL    HW2  738   0.590   1.408   2.501
  244SOL     OW  739   1.293   1.228   3.285
  244SOL    HW1  740   1.330   1.155   3.227
  244SOL    HW2  741   1.345   1.233   3.370
  245SOL     OW  742   0.809   0.004   2.364
  245SOL    HW1  743   0.849   0.095   2.355
  245SOL    HW2  744   0.709   0.012   2.370
  246SOL     OW  745   0.197   0.976   3.126
  246SOL    HW1  746   0.286   0.931   3.112
  246SOL    HW2  747   0.124   0.911   3.107
  247SOL     OW  748   1.525   0.999   2.052
  247SOL    HW1  749   1.462   0.923   2.065
  247SOL    HW2  750   1.573   1.017   2.138
  248SOL     OW  751   1.187   1.792   3.478
  248SOL    HW1  752   1.211   1.852   3.402
  248SOL    HW2  753   1.194   1.697   3.448
  249SOL     OW  754   0.317   0.251   3.663
  249SOL    HW1  755   0.388   0.322   3.669
  249SOL    HW2  756   0.229   0.290   3.691
  250SOL     OW  757   1.466   1.417   2.815
  250SOL    HW1  758   1.407   1.423   2.895
  250SOL    HW2  759   1.451   1.329   2.769
  251SOL     OW  760   1.667   1.714   2.434
  251SOL    HW1  761   1.626   1.691   2.346
  251SOL    HW2  762   1.649   1.640   2.499
  252SOL     OW  763   0.598   0.729   2.132
  252SOL    HW1  764   0.622   0.798   2.064
  252SOL    HW2  765   0.520   0.762   2.186
  253SOL     OW  766   1.281   0.345   2.806
  253SOL    HW1  767   1.195   0.295   2.793
  253SOL    HW2  768   1.343   0.291   2.862
  254SOL     OW  769   1.576   1.662   2.169
  254SOL    HW1  770   1.665   1.708   2.172
  254SOL    HW2  771   1.555   1.638   2.074
  255SOL     OW  772   0.807   0.605   3.327
  255SOL    HW1  773   0.760   0.602   3.416
  255SOL    HW2  774   0.756   0.550   3.261
  256SOL     OW  775   1.394   0.469   3.536
  256SOL    HW1  776   1.374   0.512   3.624
  256SOL    HW2  777   1.472   0.407   3.545
  257SOL     OW  778   0.973   0.890   3.434
  257SOL    HW1  779   1.019   0.806   3.405
  257SOL    HW2  780   0.917   0.924   3.359
  258SOL     OW  781   0.991   0.410   3.104
  258SOL    HW1  782   0.914   0.444   3.158
  258SOL    HW2  783   0.957   0.359   3.025
  259SOL     OW  784   1.041   0.701   2.291
  259SOL    HW1  785   1.067   0.697   2.387
  259SOL    HW2  786   0.956   0.650   2.277
  260SOL     OW  787   0.076   0.811   2.651
  260SOL    HW1  788   0.175   0.799   2.660
  260SOL    HW2  789   0.052   0.906   2.672
  261SOL     OW  790   0.130   1.821   3.433
  261SOL    HW1  791   0.120   1.806   3.532
  261SOL    HW2  792   0.044   1.857   3.397
  262SOL     OW  793   0.865   0.348   2.057
  262SOL    HW1  794   0.924   0.411   2.008
  262SOL    HW2  795   0.884   0.254   2.028
  263SOL     OW  796   1.719   0.585   3.693
  263SOL    HW1  797   1.693   0.674   3.657
  263SOL    HW2  798   1.717   0.517   3.620
  264SOL     OW  799   1.362   1.144   2.407
  264SOL    HW1  800   1.445   1.115   2.359
  264SOL    HW2  801   1.313   1.211   2.351
  265SOL     OW  802   0.550   0.196   2.747
  265SOL    HW1  803   0.545   0.191   2.847
  265SOL    HW2  804   0.552   0.292   2.718
  266SOL     OW  805   1.008   1.456   2.339
  266SOL    HW1  806   0.962   1.528   2.287
  266SOL    HW2  807   1.004   1.476   2.437
  267SOL     OW  808   0.351   1.801   2.715
  267SOL    HW1  809   0.401   1.715   2.721
  267SOL    HW2  810   0.416   1.878   2.712
  268SOL     OW  811   1.795   1.066   2.735
  268SOL    HW1  812   1.733   1.051   2.659
  268SOL    HW2  813   1.743   1.077   2.820
  269SOL     OW  814   1.227   1.550   3.368
  269SOL    HW1  815   1.233   1.473   3.432
  269SOL    HW2  816   1.175   1.524   3.288
  270SOL     OW  817   0.321   0.943   2.104
  270SOL    HW1  818   0.403   0.982   2.062
  270SOL    HW2  819   0.294   0.861   2.055
  271SOL     OW  820   1.458   0.735   2.590
  271SOL    HW1  821   1.453   0.670   2.665
  271SOL    HW2  822   1.538   0.794   2.603
  272SOL     OW  823   0.461   1.266   3.589
  272SOL    HW1  824   0.411   1.267   3.503
  272SOL    HW2  825   0.398   1.248   3.665
  273SOL     OW  826   1.111   1.776   2.099
  273SOL    HW1  827   1.051   1.714   2.149
  273SOL    HW2  828   1.142   1.732   2.014
  274SOL     OW  829   0.202   0.285   3.360
  274SOL    HW1  830   0.122   0.345   3.347
  274SOL    HW2  831   0.192   0.236   3.446
  275SOL     OW  832   1.632   1.377   1.943
  275SOL    HW1  833   1.600   1.471   1.933
  275SOL    HW2  834   1.556   1.314   1.931
  276SOL     OW  835   0.464   1.743   2.185
  276SOL    HW1  836   0.497   1.782   2.271
  276SOL    HW2  837   0.540   1.736   2.120
  277SOL     OW  838   1.400   0.107   2.288
  277SOL    HW1  839   1.376   0.070   2.198
  277SOL    HW2  840   1.499   0.123   2.292
  278SOL     OW  841   0.249   1.785   3.103
  278SOL    HW1  842   0.306   1.720   3.153
  278SOL    HW2  843   0.233   1.752   3.010
  279SOL     OW  844   0.940   1.698   2.766
  279SOL    HW1  845   1.020   1.641   2.787
  279SOL    HW2  846   0.891   1.658   2.689
  280SOL     OW  847   0.382   0.700   2.342
  280SOL    HW1  848   0.427   0.610   2.339
  280SOL    HW2  849   0.288   0.689   2.375
  281SOL     OW  850   1.547   0.222   3.591
  281SOL    HW1  851   1.542   0.259   3.683
  281SOL    HW2  852   1.475   0.153   3.579
  282SOL     OW  853   0.614   0.122   1.979
  282SOL    HW1  854   0.712   0.100   1.986
  282SOL    HW2  855   0.583   0.105   1.886
  283SOL     OW  856   0.781   0.264   3.611
  283SOL    HW1  857   0.848   0.203   3.654
  283SOL    HW2  858   0.708   0.283   3.676
  284SOL     OW  859   0.888   1.514   3.057
  284SOL    HW1  860   0.865   1.489   2.963
  284SOL    HW2  861   0.949   1.445   3.096
  285SOL     OW  862   1.351   0.590   3.295
  285SOL    HW1  863   1.379   0.547   3.380
  285SOL    HW2  864   1.376   0.686   3.296
  286SOL     OW  865   0.803   1.402   2.786
  286SOL    HW1  866   0.893   1.416   2.744
  286SOL    HW2  867   0.732   1.404   2.715
  287SOL     OW  868   0.922   0.503   2.761
  287SOL    HW1  869   0.897   0.494   2.665
  287SOL    HW2  870   0.970   0.421   2.792
  288SOL     OW  871   0.539   0.064   2.374
  288SOL    HW1  872   0.458   0.065   2.432
  288SOL    HW2  873   0.542   0.147   2.319
  289SOL     OW  874   1.434   1.188   1.903
  289SOL    HW1  875   1.466   1.112   1.960
  289SOL    HW2  876   1.342   1.215   1.933
  290SOL     OW  877   0.297   0.035   2.033
  290SOL    HW1  878   0.346   0.119   2.012
  290SOL    HW2  879   0.359  -0.030   2.078
  291SOL     OW  880   0.935   0.236   2.342
  291SOL    HW1  881   0.887   0.277   2.264
  291SOL    HW2  882   1.034   0.234   2.323
  292SOL     OW  883   1.076   0.683   3.326
  292SOL    HW1  884   0.996   0.622   3.329
  292SOL    HW2  885   1.157   0.630   3.302
  293SOL     OW  886   1.227   1.570   2.655
  293SOL    HW1  887   1.248   1.644   2.590
  293SOL    HW2  888   1.295   1.570   2.728
  294SOL     OW  889   0.459   1.152   2.603
  294SOL    HW1  890   0.388   1.125   2.668
  294SOL    HW2  891   0.433   1.124   2.510
  295SOL     OW  892   1.271   1.797   2.453
  295SOL    HW1  893   1.315   1.861   2.389
  295SOL    HW2  894   1.221   1.849   2.523
  296SOL     OW  895   1.032   0.549   1.878
  296SOL    HW1  896   0.991   0.631   1.839
  296SOL    HW2  897   1.096   0.575   1.951
  297SOL     OW  898   0.078   0.556   3.248
  297SOL    HW1  899   0.170   0.555   3.207
  297SOL    HW2  900   0.072   0.630   3.315
  298SOL     OW  901   0.561   0.222   3.009
  298SOL    HW1  902   0.599   0.138   3.046
  298SOL    HW2  903   0.473   0.241   3.053
  299SOL     OW  904   0.866   0.454   2.504
  299SOL    HW1  905   0.834   0.526   2.442
  299SOL    HW2  906   0.890   0.373   2.451
  300SOL     OW  907   1.017   0.039   2.615
  300SOL    HW1  908   0.945   0.044   2.546
  300SOL    HW2  909   0.993  -0.030   2.684
  301SOL     OW  910   1.429   1.173   2.729
  301SOL    HW1  911   1.374   1.089   2.722
  301SOL    HW2  912   1.455   1.202   2.637
  302SOL     OW  913   1.466   0.590   2.854
  302SOL    HW1  914   1.436   0.495   2.861
  302SOL    HW2  915   1.539   0.606   2.920
  303SOL     OW  916   1.857   0.833   2.239
  303SOL    HW1  917   1.899   0.769   2.303
  303SOL    HW2  918   1.819   0.782   2.161
  304SOL     OW  919   0.488   1.385   2.036
  304SOL    HW1  920   0.401   1.370   2.083
  304SOL    HW2  921   0.471   1.411   1.941
  305SOL     OW  922   1.664   1.280   2.519
  305SOL    HW1  923   1.763   1.288   2.533
  305SOL    HW2  924   1.619   1.364   2.550
  306SOL     OW  925   1.390   0.575   1.940
  306SOL    HW1  926   1.336   0.554   2.021
  306SOL    HW2  927   1.481   0.534   1.949
  307SOL     OW  928   0.527   0.256   2.190
  307SOL    HW1  929   0.554   0.197   2.115
  307SOL    HW2  930   0.527   0.351   2.159
  308SOL     OW  931   1.754   1.223   3.450
  308SOL    HW1  932   1.845   1.184   3.437
  308SOL    HW2  933   1.762   1.319   3.474
  309SOL     OW  934   1.064   1.347   3.202
  309SOL    HW1  935   0.984   1.324   3.257
  309SOL    HW2  936   1.147   1.321   3.251
  310SOL     OW  937   1.592   1.629   3.487
  310SOL    HW1  938   1.619   1.663   3.397
  310SOL    HW2  939   1.671   1.591   3.533
  311SOL     OW  940   1.111   1.195   2.962
  311SOL    HW1  941   1.071   1.239   3.043
  311SOL    HW2  942   1.070   1.232   2.879
  312SOL     OW  943   1.638   1.099   2.941
  312SOL    HW1  944   1.643   1.180   3.000
  312SOL    HW2  945   1.552   1.101   2.890
  313SOL     OW  946   0.915   0.089   3.264
  313SOL    HW1  947   0.940   0.069   3.169
  313SOL    HW2  948   0.987   0.145   3.306
  314SOL     OW  949   0.980   1.116   3.581
  314SOL    HW1  950   0.881   1.122   3.591
  314SOL    HW2  951   1.003   1.036   3.525
  315SOL     OW  952   0.705   1.050   2.230
  315SOL    HW1  953   0.691   1.057   2.329
  315SOL    HW2  954   0.789   0.999   2.212
  316SOL     OW  955   0.410   0.813   3.113
  316SOL    HW1  956   0.496   0.825   3.163
  316SOL    HW2  957   0.368   0.726   3.140
  317SOL     OW  958   1.274   0.386   3.124
  317SOL    HW1  959   1.295   0.460   3.188
  317SOL    HW2  960   1.185   0.403   3.081
  318SOL     OW  961   0.064   1.564   3.193
  318SOL    HW1  962   0.018   1.646   3.159
  318SOL    HW2  963   0.162   1.583   3.202
  319SOL     OW  964   0.367   1.100   2.363
  319SOL    HW1  965   0.360   1.183   2.307
  319SOL    HW2  966   0.371   1.020   2.303
  320SOL     OW  967   0.566   0.537   2.727
  320SOL    HW1  968   0.578   0.603   2.653
  320SOL    HW2  969   0.612   0.571   2.810
  321SOL     OW  970   1.252   1.348   2.250
  321SOL    HW1  971   1.302   1.425   2.290
  321SOL    HW2  972   1.157   1.350   2.282
  322SOL     OW  973   1.272   1.445   3.004
  322SOL    HW1  974   1.319   1.458   3.091
  322SOL    HW2  975   1.206   1.371   3.013
  323SOL     OW  976   1.582   0.639   2.334
  323SOL    HW1  977   1.551   0.700   2.407
  323SOL    HW2  978   1.632   0.691   2.265
  324SOL     OW  979   0.354   1.510   3.191
  324SOL    HW1  980   0.333   1.466   3.104
  324SOL    HW2  981   0.451   1.536   3.194
  325SOL     OW  982   0.402   0.751   3.460
  325SOL    HW1  983   0.470   0.806   3.413
  325SOL    HW2  984   0.442   0.663   3.487
  326SOL     OW  985   1.587   0.779   3.532
  326SOL    HW1  986   1.495   0.817   3.527
  326SOL    HW2  987   1.647   0.826   3.467
  327SOL     OW  988   1.013   0.105   3.632
  327SOL    HW1  989   1.019   0.190   3.580
  327SOL    HW2  990   1.045   0.029   3.575
  328SOL     OW  991   0.504   0.050   3.602
  328SOL    HW1  992   0.462  -0.007   3.532
  328SOL    HW2  993   0.438   0.119   3.634
  329SOL     OW  994   0.573   0.870   2.891
  329SOL    HW1  995   0.617   0.959   2.882
  329SOL    HW2  996   0.510   0.870   2.968
  330SOL     OW  997   1.360   0.862   2.907
  330SOL    HW1  998   1.285   0.862   2.841
  330SOL    HW2  999   1.397   0.770   2.916
  331SOL     OW 1000   1.209   0.525   2.137
  331SOL    HW1 1001   1.222   0.441   2.191
  331SOL    HW2 1002   1.180   0.599   2.197
  332SOL     OW 1003   0.307   0.213   3.093
  332SOL    HW1 1004   0.284   0.250   3.183
  332SOL    HW2 1005   0.277   0.118   3.087
  333SOL     OW 1006   0.037   1.310   3.144
  333SOL    HW1 1007   0.090   1.261   3.212
  333SOL    HW2 1008   0.059   1.408   3.149
  334SOL     OW 1009   0.732   0.634   2.926
  334SOL    HW1 1010   0.791   0.608   2.850
  334SOL    HW2 1011   0.704   0.730   2.915
  335SOL     OW 1012   1.728   0.935   3.716
  335SOL    HW1 1013   1.682   0.928   3.627
  335SOL    HW2 1014   1.666   0.979   3.782
  336SOL     OW 1015   0.307   0.063   2.480
  336SOL    HW1 1016   0.296   0.157   2.513
  336SOL    HW2 1017   0.302   0.000   2.557
  337SOL     OW 1018   1.622   0.367   2.236
  337SOL    HW1 1019   1.624   0.291   2.300
  337SOL    HW2 1020   1.574   0.444   2.276
  338SOL     OW 1021   1.023   0.766   2.828
  338SOL    HW1 1022   1.038   0.787   2.924
  338SOL    HW2 1023   0.993   0.671   2.819
  339SOL     OW 1024   0.980   1.573   3.562
  339SOL    HW1 1025   0.960   1.617   3.474
  339SOL    HW2 1026   1.019   1.482   3.546
  340SOL     OW 1027   1.859   1.518   3.467
  340SOL    HW1 1028   1.873   1.545   3.372
  340SOL    HW2 1029   1.942   1.540   3.520
  341SOL     OW 1030   0.350   0.898   3.666
  341SOL    HW1 1031   0.426   0.942   3.714
  341SOL    HW2 1032   0.385   0.851   3.584
  342SOL     OW 1033   1.540   0.274   1.987
  342SOL    HW1 1034   1.479   0.199   2.010
  342SOL    HW2 1035   1.562   0.326   2.070
  343SOL     OW 1036   1.303   0.838   1.904
  343SOL    HW1 1037   1.337   0.745   1.919
  343SOL    HW2 1038   1.321   0.865   1.809
  344SOL     OW 1039   1.068   1.333   2.711
  344SOL    HW1 1040   1.075   1.249   2.656
  344SOL    HW2 1041   1.130   1.402   2.675
  345SOL     OW 1042   0.319   0.810   2.811
  345SOL    HW1 1043   0.412   0.846   2.816
  345SOL    HW2 1044   0.313   0.725   2.863
  346SOL     OW 1045   0.339   0.509   2.868
  346SOL    HW1 1046   0.287   0.426   2.851
  346SOL    HW2 1047   0.416   0.514   2.804
  347SOL     OW 1048   1.138   0.380   3.540
  347SOL    HW1 1049   1.093   0.443   3.604
  347SOL    HW2 1050   1.231   0.411   3.523
  348SOL     OW 1051   1.160   0.207   3.339
  348SOL    HW1 1052   1.160   0.271   3.416
  348SOL    HW2 1053   1.188   0.255   3.256
  349SOL     OW 1054   0.008   1.326   2.062
  349SOL    HW1 1055  -0.085   1.347   2.031
  349SOL    HW2 1056   0.018   1.227   2.075
  350SOL     OW 1057   0.088   1.801   2.789
  350SOL    HW1 1058   0.046   1.715   2.762
  350SOL    HW2 1059   0.182   1.804   2.755
  351SOL     OW 1060   0.504   1.568   2.772
  351SOL    HW1 1061   0.570   1.642   2.781
  351SOL    HW2 1062   0.548   1.489   2.730
  352SOL     OW 1063   1.002   0.796   3.100
  352SOL    HW1 1064   1.043   0.764   3.186
  352SOL    HW2 1065   0.906   0.769   3.097
  353SOL     OW 1066   0.040   0.544   2.976
  353SOL    HW1 1067   0.125   0.511   2.935
  353SOL    HW2 1068   0.053   0.559   3.074
  354SOL     OW 1069   0.189   0.520   3.584
  354SOL    HW1 1070   0.248   0.480   3.514
  354SOL    HW2 1071   0.131   0.591   3.543
  355SOL     OW 1072   1.369   0.950   3.522
  355SOL    HW1 1073   1.408   1.039   3.542
  355SOL    HW2 1074   1.379   0.930   3.425
  356SOL     OW 1075   0.815   0.572   2.187
  356SOL    HW1 1076   0.822   0.483   2.141
  356SOL    HW2 1077   0.721   0.606   2.179
  357SOL     OW 1078   1.657   0.604   3.068
  357SOL    HW1 1079   1.619   0.535   3.130
  357SOL    HW2 1080   1.739   0.568   3.024
  358SOL     OW 1081   0.252   1.564   3.606
  358SOL    HW1 1082   0.222   1.621   3.682
  358SOL    HW2 1083   0.245   1.467   3.632
  359SOL     OW 1084   0.671   0.464   3.131
  359SOL    HW1 1085   0.637   0.375   3.101
  359SOL    HW2 1086   0.697   0.518   3.051
  360SOL     OW 1087   0.930   1.678   3.327
  360SOL    HW1 1088   0.906   1.660   3.232
  360SOL    HW2 1089   0.960   1.772   3.337
  361SOL     OW 1090   0.473   0.500   2.053
  361SOL    HW1 1091   0.534   0.580   2.057
  361SOL    HW2 1092   0.378   0.531   2.060
  362SOL     OW 1093   0.159   1.137   3.328
  362SOL    HW1 1094   0.181   1.076   3.404
  362SOL    HW2 1095   0.169   1.088   3.242
  363SOL     OW 1096   1.347   1.059   3.096
  363SOL    HW1 1097   1.371   0.996   3.022
  363SOL    HW2 1098   1.257   1.099   3.078
  364SOL     OW 1099   1.302   0.855   2.171
  364SOL    HW1 1100   1.216   0.824   2.213
  364SOL    HW2 1101   1.298   0.841   2.072
  365SOL     OW 1102   1.759   1.747   3.016
  365SOL    HW1 1103   1.820   1.777   2.943
  365SOL    HW2 1104   1.721   1.658   2.994
  366SOL     OW 1105   1.252   1.731   2.990
  366SOL    HW1 1106   1.336   1.736   2.936
  366SOL    HW2 1107   1.229   1.635   3.008
  367SOL     OW 1108   0.083   1.258   2.884
  367SOL    HW1 1109   0.078   1.257   2.984
  367SOL    HW2 1110   0.000   1.217   2.846
  368SOL     OW 1111   0.688   1.662   3.578
  368SOL    HW1 1112   0.632   1.743   3.587
  368SOL    HW2 1113   0.740   1.666   3.492
  369SOL     OW 1114   1.726   0.135   2.385
  369SOL    HW1 1115   1.799   0.118   2.318
  369SOL    HW2 1116   1.695   0.048   2.423
  370SOL     OW 1117   1.388   1.573   2.339
  370SOL    HW1 1118   1.455   1.585   2.265
  370SOL    HW2 1119   1.348   1.662   2.362
  371SOL     OW 1120   0.130   1.794   3.713
  371SOL    HW1 1121   0.089   1.720   3.766
  371SOL    HW2 1122   0.194   1.845   3.771
  372SOL     OW 1123   1.280   0.927   2.534
  372SOL    HW1 1124   1.340   0.846   2.536
  372SOL    HW2 1125   1.320   0.996   2.474
  373SOL     OW 1126   0.830   1.273   3.284
  373SOL    HW1 1127   0.825   1.306   3.379
  373SOL    HW2 1128   0.744   1.292   3.238
  374SOL     OW 1129   0.672   1.616   2.016
  374SOL    HW1 1130   0.681   1.626   1.917
  374SOL    HW2 1131   0.632   1.527   2.037
  375SOL     OW 1132   1.650   1.720   3.256
  375SOL    HW1 1133   1.703   1.730   3.172
  375SOL    HW2 1134   1.623   1.810   3.290
  376SOL     OW 1135   1.841   0.175   2.825
  376SOL    HW1 1136   1.880   0.090   2.789
  376SOL    HW2 1137   1.743   0.177   2.806
  377SOL     OW 1138   0.263   0.326   2.582
  377SOL    HW1 1139   0.184   0.377   2.548
  377SOL    HW2 1140   0.254   0.311   2.680
  378SOL     OW 1141   1.194   1.612   1.893
  378SOL    HW1 1142   1.200   1.519   1.930
  378SOL    HW2 1143   1.135   1.612   1.813
  379SOL     OW 1144   0.822   1.002   3.234
  379SOL    HW1 1145   0.862   1.001   3.142
  379SOL    HW2 1146   0.832   1.094   3.274
  380SOL     OW 1147   0.916   0.910   2.153
  380SOL    HW1 1148   0.979   0.948   2.085
  380SOL    HW2 1149   0.956   0.827   2.192
  381SOL     OW 1150   1.504   1.607   1.906
  381SOL    HW1 1151   1.412   1.644   1.913
  381SOL    HW2 1152   1.542   1.627   1.816
  382SOL     OW 1153   0.372   1.288   3.352
  382SOL    HW1 1154   0.359   1.381   3.318
  382SOL    HW2 1155   0.288   1.236   3.339
  383SOL     OW 1156   1.614   1.292   3.151
  383SOL    HW1 1157   1.674   1.295   3.231
  383SOL    HW2 1158   1.539   1.356   3.164
  384SOL     OW 1159   1.039   1.098   2.558
  384SOL    HW1 1160   0.969   1.051   2.612
  384SOL    HW2 1161   1.098   1.030   2.515
  385SOL     OW 1162   1.014   0.236   2.833
  385SOL    HW1 1163   1.006   0.200   2.740
  385SOL    HW2 1164   1.012   0.160   2.898
  386SOL     OW 1165   0.590   1.487   2.353
  386SOL    HW1 1166   0.632   1.429   2.283
  386SOL    HW2 1167   0.546   1.566   2.309
  387SOL     OW 1168   1.709   0.385   3.243
  387SOL    HW1 1169   1.782   0.454   3.247
  387SOL    HW2 1170   1.737   0.310   3.184
  388SOL     OW 1171   0.255   1.348   2.152
  388SOL    HW1 1172   0.159   1.349   2.125
  388SOL    HW2 1173   0.267   1.401   2.236
  389SOL     OW 1174   0.105   1.013   3.588
  389SOL    HW1 1175   0.028   0.980   3.642
  389SOL    HW2 1176   0.190   0.983   3.630
  390SOL     OW 1177   0.672   0.203   3.351
  390SOL    HW1 1178   0.762   0.187   3.311
  390SOL    HW2 1179   0.680   0.208   3.450
  391SOL     OW 1180   0.075   0.345   1.895
  391SOL    HW1 1181  -0.017   0.317   1.866
  391SOL    HW2 1182   0.106   0.422   1.839
  392SOL     OW 1183   1.440   0.856   3.260
  392SOL    HW1 1184   1.383   0.908   3.197
  392SOL    HW2 1185   1.536   0.868   3.236
  393SOL     OW 1186   0.072   0.166   2.180
  393SOL    HW1 1187   0.055   0.249   2.126
  393SOL    HW2 1188   0.162   0.129   2.158
  394SOL     OW 1189   1.183   1.335   1.981
  394SOL    HW1 1190   1.084   1.324   1.983
  394SOL    HW2 1191   1.217   1.350   2.074
  395SOL     OW 1192   0.613   0.842   3.293
  395SOL    HW1 1193   0.669   0.923   3.276
  395SOL    HW2 1194   0.672   0.762   3.296
  396SOL     OW 1195   1.493   1.767   2.821
  396SOL    HW1 1196   1.526   1.831   2.752
  396SOL    HW2 1197   1.559   1.761   2.896
  397SOL     OW 1198   0.716   0.565   3.570
  397SOL    HW1 1199   0.735   0.630   3.644
  397SOL    HW2 1200   0.776   0.485   3.579
  398SOL     OW 1201   1.450   1.220   3.495
  398SOL    HW1 1202   1.441   1.210   3.594
  398SOL    HW2 1203   1.546   1.213   3.469
  399SOL     OW 1204   0.390   1.741   3.422
  399SOL    HW1 1205   0.299   1.782   3.420
  399SOL    HW2 1206   0.383   1.647   3.454
  400SOL     OW 1207   1.674   0.883   3.116
  400SOL    HW1 1208   1.647   0.794   3.079
  400SOL    HW2 1209   1.675   0.951   3.043
  401SOL     OW 1210   1.225   0.325   2.311
  401SOL    HW1 1211   1.290   0.251   2.300
  401SOL    HW2 1212   1.245   0.375   2.395
  402SOL     OW 1213   0.594   0.745   2.514
  402SOL    HW1 1214   0.644   0.830   2.495
  402SOL    HW2 1215   0.506   0.747   2.466
  403SOL     OW 1216   1.777   0.342   3.504
  403SOL    HW1 1217   1.760   0.373   3.410
  403SOL    HW2 1218   1.693   0.305   3.542
  404SOL     OW 1219   1.730   0.934   3.379
  404SOL    HW1 1220   1.768   1.025   3.394
  404SOL    HW2 1221   1.722   0.917   3.280
  405SOL     OW 1222   0.859   1.374   1.878
  405SOL    HW1 1223   0.813   1.389   1.966
  405SOL    HW2 1224   0.903   1.459   1.848
  406SOL     OW 1225   0.661   1.790   2.815
  406SOL    HW1 1226   0.615   1.878   2.802
  406SOL    HW2 1227   0.760   1.802   2.808
  407SOL     OW 1228   0.859   0.956   2.723
  407SOL    HW1 1229   0.913   0.887   2.771
  407SOL    HW2 1230   0.827   1.025   2.789
  408SOL     OW 1231   1.083   0.984   1.949
  408SOL    HW1 1232   1.060   1.037   1.867
  408SOL    HW2 1233   1.164   0.928   1.930
  409SOL     OW 1234   1.861   1.569   2.713
  409SOL    HW1 1235   1.790   1.557   2.643
  409SOL    HW2 1236   1.862   1.490   2.773
  410SOL     OW 1237   0.221   1.314   3.706
  410SOL    HW1 1238   0.156   1.241   3.685
  410SOL    HW2 1239   0.225   1.328   3.804
  411SOL     OW 1240   0.079   1.240   2.515
  411SOL    HW1 1241   0.078   1.193   2.603
  411SOL    HW2 1242   0.161   1.212   2.464
  412SOL     OW 1243   0.672   1.391   3.486
  412SOL    HW1 1244   0.594   1.341   3.524
  412SOL    HW2 1245   0.669   1.486   3.517
  413SOL     OW 1246   1.824   0.192   3.089
  413SOL    HW1 1247   1.820   0.102   3.133
  413SOL    HW2 1248   1.827   0.181   2.990
  414SOL     OW 1249   0.428   0.424   2.382
  414SOL    HW1 1250   0.458   0.352   2.320
  414SOL    HW2 1251   0.389   0.384   2.465
  415SOL     OW 1252   1.705   1.487   2.966
  415SOL    HW1 1253   1.612   1.462   2.939
  415SOL    HW2 1254   1.731   1.437   3.048
  416SOL     OW 1255   0.317   0.547   3.142
  416SOL    HW1 1256   0.355   0.488   3.214
  416SOL    HW2 1257   0.357   0.521   3.054
  417SOL     OW 1258   0.812   1.586   2.549
  417SOL    HW1 1259   0.844   1.596   2.455
  417SOL    HW2 1260   0.733   1.524   2.551
  418SOL     OW 1261   1.424   0.214   2.974
  418SOL    HW1 1262   1.476   0.149   3.029
  418SOL    HW2 1263   1.375   0.277   3.035
  419SOL     OW 1264   1.001   0.034   3.016
  419SOL    HW1 1265   0.938  -0.038   2.985
  419SOL    HW2 1266   1.094  -0.002   3.016
  420SOL     OW 1267   0.770   1.330   2.163
  420SOL    HW1 1268   0.724   1.243   2.180
  420SOL    HW2 1269   0.861   1.327   2.204
  421SOL     OW 1270   0.618   1.567   3.146
  421SOL    HW1 1271   0.613   1.649   3.203
  421SOL    HW2 1272   0.707   1.564   3.101
  422SOL     OW 1273   1.352   0.052   2.030
  422SOL    HW1 1274   1.387   0.011   1.946
  422SOL    HW2 1275   1.262   0.014   2.050
  423SOL     OW 1276   1.300   0.453   2.553
  423SOL    HW1 1277   1.241   0.533   2.557
  423SOL    HW2 1278   1.315   0.418   2.646
  424SOL     OW 1279   1.593   0.221   2.744
  424SOL    HW1 1280   1.509   0.220   2.798
  424SOL    HW2 1281   1.595   0.304   2.688
  425SOL     OW 1282   0.039   1.077   2.162
  425SOL    HW1 1283   0.138   1.066   2.153
  425SOL    HW2 1284  -0.001   0.991   2.194
  426SOL     OW 1285   0.875   1.646   2.199
  426SOL    HW1 1286   0.798   1.611   2.145
  426SOL    HW2 1287   0.843   1.717   2.261
  427SOL     OW 1288   0.230   0.628   3.837
  427SOL    HW1 1289   0.137   0.626   3.874
  427SOL    HW2 1290   0.231   0.589   3.745
  428SOL     OW 1291   1.755   0.607   3.955
  428SOL    HW1 1292   1.743   0.594   3.856
  428SOL    HW2 1293   1.725   0.526   4.004
  429SOL     OW 1294   1.603   0.447   4.461
  429SOL    HW1 1295   1.529   0.493   4.411
  429SOL    HW2 1296   1.654   0.515   4.514
  430SOL     OW 1297   0.231   1.713   4.207
  430SOL    HW1 1298   0.265   1.790   4.261
  430SOL    HW2 1299   0.275   1.713   4.117
  431SOL     OW 1300   0.230   1.434   4.262
  431SOL    HW1 1301   0.204   1.530   4.262
  431SOL    HW2 1302   0.159   1.380   4.307
  432SOL     OW 1303   0.606   0.964   3.847
  432SOL    HW1 1304   0.613   1.048   3.793
  432SOL    HW2 1305   0.652   0.977   3.935
  433SOL     OW 1306   0.122   0.643   4.287
  433SOL    HW1 1307   0.077   0.555   4.304
  433SOL    HW2 1308   0.121   0.697   4.371
  434SOL     OW 1309   1.842   1.767   4.083
  434SOL    HW1 1310   1.896   1.738   4.163
  434SOL    HW2 1311   1.872   1.857   4.054
  435SOL     OW 1312   0.027   1.596   3.841
  435SOL    HW1 1313   0.008   1.500   3.862
  435SOL    HW2 1314  -0.006   1.654   3.916
  436SOL     OW 1315   1.689   0.922   4.336
  436SOL    HW1 1316   1.784   0.893   4.344
  436SOL    HW2 1317   1.681   0.987   4.261
  437SOL     OW 1318   1.641   1.108   4.156
  437SOL    HW1 1319   1.727   1.110   4.104
  437SOL    HW2 1320   1.655   1.155   4.244
  438SOL     OW 1321   0.613   1.365   4.450
  438SOL    HW1 1322   0.564   1.278   4.459
  438SOL    HW2 1323   0.590   1.408   4.363
  439SOL     OW 1324   0.809   0.004   4.226
  439SOL    HW1 1325   0.849   0.095   4.217
  439SOL    HW2 1326   0.709   0.012   4.232
  440SOL     OW 1327   1.525   0.999   3.914
  440SOL    HW1 1328   1.462   0.923   3.927
  440SOL    HW2 1329   1.573   1.017   4.000
  441SOL     OW 1330   1.466   1.417   4.677
  441SOL    HW1 1331   1.407   1.423   4.757
  441SOL    HW2 1332   1.451   1.329   4.631
  442SOL     OW 1333   0.598   0.729   3.994
  442SOL    HW1 1334   0.622   0.798   3.926
  442SOL    HW2 1335   0.520   0.762   4.048
  443SOL     OW 1336   1.281   0.345   4.668
  443SOL    HW1 1337   1.195   0.295   4.655
  443SOL    HW2 1338   1.343   0.291   4.724
  444SOL     OW 1339   1.576   1.662   4.031
  444SOL    HW1 1340   1.665   1.708   4.034
  444SOL    HW2 1341   1.555   1.638   3.936
  445SOL     OW 1342   1.041   0.701   4.153
  445SOL    HW1 1343   1.067   0.697   4.249
  445SOL    HW2 1344   0.956   0.650   4.139
  446SOL     OW 1345   0.076   0.811   4.513
  446SOL    HW1 1346   0.175   0.799   4.522
  446SOL    HW2 1347   0.052   0.906   4.534
  447SOL     OW 1348   0.865   0.348   3.919
  447SOL    HW1 1349   0.924   0.411   3.870
  447SOL    HW2 1350   0.884   0.254   3.890
  448SOL     OW 1351   1.362   1.144   4.269
  448SOL    HW1 1352   1.445   1.115   4.221
  448SOL    HW2 1353   1.313   1.211   4.213
  449SOL     OW 1354   1.008   1.456   4.201
  449SOL    HW1 1355   0.962   1.528   4.149
  449SOL    HW2 1356   1.004   1.476   4.299
  450SOL     OW 1357   0.351   1.801   4.577
  450SOL    HW1 1358   0.401   1.715   4.583
  450SOL    HW2 1359   0.416   1.878   4.574
  451SOL     OW 1360   1.795   1.066   4.597
  451SOL    HW1 1361   1.733   1.051   4.521
  451SOL    HW2 1362   1.743   1.077   4.682
  452SOL     OW 1363   0.321   0.943   3.966
  452SOL    HW1 1364   0.403   0.982   3.924
  452SOL    HW2 1365   0.294   0.861   3.917
  453SOL     OW 1366   1.111   1.776   3.961
  453SOL    HW1 1367   1.051   1.714   4.011
  453SOL    HW2 1368   1.142   1.732   3.876
  454SOL     OW 1369   1.632   1.377   3.805
  454SOL    HW1 1370   1.600   1.471   3.795
  454SOL    HW2 1371   1.556   1.314   3.793
  455SOL     OW 1372   0.464   1.743   4.047
  455SOL    HW1 1373   0.497   1.782   4.133
  455SOL    HW2 1374   0.540   1.736   3.982
  456SOL     OW 1375   1.400   0.107   4.150
  456SOL    HW1 1376   1.376   0.070   4.060
  456SOL    HW2 1377   1.499   0.123   4.154
  457SOL     OW 1378   0.382   0.700   4.204
  457SOL    HW1 1379   0.427   0.610   4.201
  457SOL    HW2 1380   0.288   0.689   4.237
  458SOL     OW 1381   0.614   0.122   3.841
  458SOL    HW1 1382   0.712   0.100   3.848
  458SOL    HW2 1383   0.583   0.105   3.748
  459SOL     OW 1384   0.539   0.064   4.236
  459SOL    HW1 1385   0.458   0.065   4.294
  459SOL    HW2 1386   0.542   0.147   4.181
  460SOL     OW 1387   1.434   1.188   3.765
  460SOL    HW1 1388   1.466   1.112   3.822
  460SOL    HW2 1389   1.342   1.215   3.795
  461SOL     OW 1390   0.297   0.035   3.895
  461SOL    HW1 1391   0.346   0.119   3.874
  461SOL    HW2 1392   0.359  -0.030   3.940
  462SOL     OW 1393   0.935   0.236   4.204
  462SOL    HW1 1394   0.887   0.277   4.126
  462SOL    HW2 1395   1.034   0.234   4.185
  463SOL     OW 1396   0.459   1.152   4.465
  463SOL    HW1 1397   0.388   1.125   4.530
  463SOL    HW2 1398   0.433   1.124   4.372
  464SOL     OW 1399   1.271   1.797   4.315
  464SOL    HW1 1400   1.315   1.861   4.251
  464SOL    HW2 1401   1.221   1.849   4.385
  465SOL     OW 1402   1.032   0.549   3.740
  465SOL    HW1 1403   0.991   0.631   3.701
  465SOL    HW2 1404   1.096   0.575   3.813
  466SOL     OW 1405   0.866   0.454   4.366
  466SOL    HW1 1406   0.834   0.526   4.304
  466SOL    HW2 1407   0.890   0.373   4.313
  467SOL     OW 1408   1.857   0.833   4.101
  467SOL    HW1 1409   1.899   0.769   4.165
  467SOL    HW2 1410   1.819   0.782   4.023
  468SOL     OW 1411   0.488   1.385   3.898
  468SOL    HW1 1412   0.401   1.370   3.945
  468SOL    HW2 1413   0.471   1.411   3.803
  469SOL     OW 1414   1.390   0.575   3.802
  469SOL    HW1 1415   1.336   0.554   3.883
  469SOL    HW2 1416   1.481   0.534   3.811
  470SOL     OW 1417   0.527   0.256   4.052
  470SOL    HW1 1418   0.554   0.197   3.977
  470SOL    HW2 1419   0.527   0.351   4.021
  471SOL     OW 1420   0.705   1.050   4.092
  471SOL    HW1 1421   0.691   1.057   4.191
  471SOL    HW2 1422   0.789   0.999   4.074
  472SOL     OW 1423   0.367   1.100   4.225
  472SOL    HW1 1424   0.360   1.183   4.169
  472SOL    HW2 1425   0.371   1.020   4.165
  473SOL     OW 1426   1.252   1.348   4.112
  473SOL    HW1 1427   1.302   1.425   4.152
  473SOL    HW2 1428   1.157   1.350   4.144
  474SOL     OW 1429   1.582   0.639   4.196
  474SOL    HW1 1430   1.551   0.700   4.269
  474SOL    HW2 1431   1.632   0.691   4.127
  475SOL     OW 1432   1.209   0.525   3.999
  475SOL    HW1 1433   1.222   0.441   4.053
  475SOL    HW2 1434   1.180   0.599   4.059
  476SOL     OW 1435   0.307   0.063   4.342
  476SOL    HW1 1436   0.296   0.157   4.375
  476SOL    HW2 1437   0.302   0.000   4.419
  477SOL     OW 1438   1.622   0.367   4.098
  477SOL    HW1 1439   1.624   0.291   4.162
  477SOL    HW2 1440   1.574   0.444   4.138
  478SOL     OW 1441   1.540   0.274   3.849
  478SOL    HW1 1442   1.479   0.199   3.872
  478SOL    HW2 1443   1.562   0.326   3.932
  479SOL     OW 1444   1.303   0.838   3.766
  479SOL    HW1 1445   1.337   0.745   3.781
  479SOL    HW2 1446   1.321   0.865   3.671
  480SOL     OW 1447   0.008   1.326   3.924
  480SOL    HW1 1448  -0.085   1.347   3.893
  480SOL    HW2 1449   0.018   1.227   3.937
  481SOL     OW 1450   0.815   0.572   4.049
  481SOL    HW1 1451   0.822   0.483   4.003
  481SOL    HW2 1452   0.721   0.606   4.041
  482SOL     OW 1453   0.473   0.500   3.915
  482SOL    HW1 1454   0.534   0.580   3.919
  482SOL    HW2 1455   0.378   0.531   3.922
  483SOL     OW 1456   1.302   0.855   4.033
  483SOL    HW1 1457   1.216   0.824   4.075
  483SOL    HW2 1458   1.298   0.841   3.934
  484SOL     OW 1459   1.726   0.135   4.247
  484SOL    HW1 1460   1.799   0.118   4.180
  484SOL    HW2 1461   1.695   0.048   4.285
  485SOL     OW 1462   1.388   1.573   4.201
  485SOL    HW1 1463   1.455   1.585   4.127
  485SOL    HW2 1464   1.348   1.662   4.224
  486SOL     OW 1465   0.672   1.616   3.878
  486SOL    HW1 1466   0.681   1.626   3.779
  486SOL    HW2 1467   0.632   1.527   3.899
  487SOL     OW 1468   1.841   0.175   4.687
  487SOL    HW1 1469   1.880   0.090   4.651
  487SOL    HW2 1470   1.743   0.177   4.668
  488SOL     OW 1471   1.194   1.612   3.755
  488SOL    HW1 1472   1.200   1.519   3.792
  488SOL    HW2 1473   1.135   1.612   3.675
  489SOL     OW 1474   0.916   0.910   4.015
  489SOL    HW1 1475   0.979   0.948   3.947
  489SOL    HW2 1476   0.956   0.827   4.054
  490SOL     OW 1477   1.504   1.607   3.768
  490SOL    HW1 1478   1.412   1.644   3.775
  490SOL    HW2 1479   1.542   1.627   3.678
  491SOL     OW 1480   0.590   1.487   4.215
  491SOL    HW1 1481   0.632   1.429   4.145
  491SOL    HW2 1482   0.546   1.566   4.171
  492SOL     OW 1483   0.255   1.348   4.014
  492SOL    HW1 1484   0.159   1.349   3.987
  492SOL    HW2 1485   0.267   1.401   4.098
  493SOL     OW 1486   0.075   0.345   3.757
  493SOL    HW1 1487  -0.017   0.317   3.728
  493SOL    HW2 1488   0.106   0.422   3.701
  494SOL     OW 1489   0.072   0.166   4.042
  494SOL    HW1 1490   0.055   0.249   3.988
  494SOL    HW2 1491   0.162   0.129   4.020
  495SOL     OW 1492   1.183   1.335   3.843
  495SOL    HW1 1493   1.084   1.324   3.845
  495SOL    HW2 1494   1.217   1.350   3.936
  496SOL     OW 1495   1.225   0.325   4.173
  496SOL    HW1 1496   1.290   0.251   4.162
  496SOL    HW2 1497   1.245   0.375   4.257
  497SOL     OW 1498   0.594   0.745   4.376
  497SOL    HW1 1499   0.644   0.830   4.357
  497SOL    HW2 1500   0.506   0.747   4.328
  498SOL     OW 1501   0.859   1.374   3.740
  498SOL    HW1 1502   0.813   1.389   3.828
  498SOL    HW2 1503   0.903   1.459   3.710
  499SOL     OW 1504   1.083   0.984   3.811
  499SOL    HW1 1505   1.060   1.037   3.729
  499SOL    HW2 1506   1.164   0.928   3.792
  500SOL     OW 1507   0.079   1.240   4.377
  500SOL    HW1 1508   0.078   1.193   4.465
  500SOL    HW2 1509   0.161   1.212   4.326
  501SOL     OW 1510   0.428   0.424   4.244
  501SOL    HW1 1511   0.458   0.352   4.182
  501SOL    HW2 1512   0.389   0.384   4.327
  502SOL     OW 1513   0.812   1.586   4.411
  502SOL    HW1 1514   0.844   1.596   4.317
  502SOL    HW2 1515   0.733   1.524   4.413
  503SOL     OW 1516   0.770   1.330   4.025
  503SOL    HW1 1517   0.724   1.243   4.042
  503SOL    HW2 1518   0.861   1.327   4.066
  504SOL     OW 1519   1.352   0.052   3.892
  504SOL    HW1 1520   1.387   0.011   3.808
  504SOL    HW2 1521   1.262   0.014   3.912
  505SOL     OW 1522   1.300   0.453   4.415
  505SOL    HW1 1523   1.241   0.533   4.419
  505SOL    HW2 1524   1.315   0.418   4.508
  506SOL     OW 1525   0.039   1.077   4.024
  506SOL    HW1 1526   0.138   1.066   4.015
  506SOL    HW2 1527  -0.001   0.991   4.056
  507SOL     OW 1528   0.875   1.646   4.061
  507SOL    HW1 1529   0.798   1.611   4.007
  507SOL    HW2 1530   0.843   1.717   4.123
  508SOL     OW 1531   0.230   2.490   0.113
  508SOL    HW1 1532   0.137   2.488   0.150
  508SOL    HW2 1533   0.231   2.451   0.021
  509SOL     OW 1534   0.225   2.137   0.996
  509SOL    HW1 1535   0.260   2.120   1.088
  509SOL    HW2 1536   0.137   2.092   0.984
  510SOL     OW 1537   0.019   2.230   0.647
  510SOL    HW1 1538  -0.063   2.273   0.686
  510SOL    HW2 1539  -0.009   2.157   0.584
  511SOL     OW 1540   0.569   3.137   1.165
  511SOL    HW1 1541   0.476   3.130   1.128
  511SOL    HW2 1542   0.580   3.226   1.209
  512SOL     OW 1543   1.555   3.373   0.703
  512SOL    HW1 1544   1.498   3.357   0.784
  512SOL    HW2 1545   1.496   3.383   0.623
  513SOL     OW 1546   1.135   2.565   0.717
  513SOL    HW1 1547   1.192   2.643   0.692
  513SOL    HW2 1548   1.075   2.591   0.793
  514SOL     OW 1549   1.755   2.469   0.231
  514SOL    HW1 1550   1.743   2.456   0.132
  514SOL    HW2 1551   1.725   2.388   0.280
  515SOL     OW 1552   0.768   3.006   1.023
  515SOL    HW1 1553   0.690   3.023   1.083
  515SOL    HW2 1554   0.802   3.093   0.987
  516SOL     OW 1555   0.850   2.660   1.823
  516SOL    HW1 1556   0.846   2.736   1.888
  516SOL    HW2 1557   0.872   2.696   1.732
  517SOL     OW 1558   0.685   2.874   0.665
  517SOL    HW1 1559   0.754   2.858   0.735
  517SOL    HW2 1560   0.612   2.931   0.703
  518SOL     OW 1561   0.686   3.023   1.803
  518SOL    HW1 1562   0.746   3.102   1.817
  518SOL    HW2 1563   0.600   3.054   1.762
  519SOL     OW 1564   0.335   3.297   1.061
  519SOL    HW1 1565   0.257   3.266   1.008
  519SOL    HW2 1566   0.393   3.355   1.004
  520SOL     OW 1567   1.460   3.367   1.339
  520SOL    HW1 1568   1.484   3.461   1.365
  520SOL    HW2 1569   1.444   3.313   1.421
  521SOL     OW 1570   0.438   2.254   1.499
  521SOL    HW1 1571   0.520   2.198   1.508
  521SOL    HW2 1572   0.357   2.196   1.503
  522SOL     OW 1573   1.603   2.309   0.737
  522SOL    HW1 1574   1.529   2.355   0.687
  522SOL    HW2 1575   1.654   2.377   0.790
  523SOL     OW 1576   0.231   3.575   0.483
  523SOL    HW1 1577   0.265   3.652   0.537
  523SOL    HW2 1578   0.275   3.575   0.393
  524SOL     OW 1579   1.127   3.203   1.690
  524SOL    HW1 1580   1.174   3.203   1.778
  524SOL    HW2 1581   1.079   3.116   1.679
  525SOL     OW 1582   0.230   3.296   0.538
  525SOL    HW1 1583   0.204   3.392   0.538
  525SOL    HW2 1584   0.159   3.242   0.583
  526SOL     OW 1585   0.240   2.953   0.886
  526SOL    HW1 1586   0.254   2.869   0.938
  526SOL    HW2 1587   0.185   3.017   0.941
  527SOL     OW 1588   0.620   3.648   1.439
  527SOL    HW1 1589   0.528   3.631   1.474
  527SOL    HW2 1590   0.648   3.740   1.465
  528SOL     OW 1591   0.606   2.826   0.123
  528SOL    HW1 1592   0.613   2.910   0.069
  528SOL    HW2 1593   0.652   2.839   0.211
  529SOL     OW 1594   1.594   1.976   1.480
  529SOL    HW1 1595   1.576   2.043   1.408
  529SOL    HW2 1596   1.591   2.022   1.569
  530SOL     OW 1597   0.122   2.505   0.563
  530SOL    HW1 1598   0.077   2.417   0.580
  530SOL    HW2 1599   0.121   2.559   0.647
  531SOL     OW 1600   1.842   3.629   0.359
  531SOL    HW1 1601   1.896   3.600   0.439
  531SOL    HW2 1602   1.872   3.719   0.330
  532SOL     OW 1603   0.027   3.458   0.117
  532SOL    HW1 1604   0.008   3.362   0.138
  532SOL    HW2 1605  -0.006   3.516   0.192
  533SOL     OW 1606   1.689   2.784   0.612
  533SOL    HW1 1607   1.784   2.755   0.620
  533SOL    HW2 1608   1.681   2.849   0.537
  534SOL     OW 1609   1.641   2.970   0.432
  534SOL    HW1 1610   1.727   2.972   0.380
  534SOL    HW2 1611   1.655   3.017   0.520
  535SOL     OW 1612   0.113   2.599   1.597
  535SOL    HW1 1613   0.201   2.586   1.642
  535SOL    HW2 1614   0.100   2.696   1.575
  536SOL     OW 1615   0.613   3.227   0.726
  536SOL    HW1 1616   0.564   3.140   0.735
  536SOL    HW2 1617   0.590   3.270   0.639
  537SOL     OW 1618   1.293   3.090   1.423
  537SOL    HW1 1619   1.330   3.017   1.365
  537SOL    HW2 1620   1.345   3.095   1.508
  538SOL     OW 1621   0.809   1.866   0.502
  538SOL    HW1 1622   0.849   1.957   0.493
  538SOL    HW2 1623   0.709   1.874   0.508
  539SOL     OW 1624   0.197   2.838   1.264
  539SOL    HW1 1625   0.286   2.793   1.250
  539SOL    HW2 1626   0.124   2.773   1.245
  540SOL     OW 1627   1.525   2.861   0.190
  540SOL    HW1 1628   1.462   2.785   0.203
  540SOL    HW2 1629   1.573   2.879   0.276
  541SOL     OW 1630   1.187   3.654   1.616
  541SOL    HW1 1631   1.211   3.714   1.540
  541SOL    HW2 1632   1.194   3.559   1.586
  542SOL     OW 1633   0.317   2.113   1.801
  542SOL    HW1 1634   0.388   2.184   1.807
  542SOL    HW2 1635   0.229   2.152   1.829
  543SOL     OW 1636   1.466   3.279   0.953
  543SOL    HW1 1637   1.407   3.285   1.033
  543SOL    HW2 1638   1.451   3.191   0.907
  544SOL     OW 1639   1.667   3.576   0.572
  544SOL    HW1 1640   1.626   3.553   0.484
  544SOL    HW2 1641   1.649   3.502   0.637
  545SOL     OW 1642   0.598   2.591   0.270
  545SOL    HW1 1643   0.622   2.660   0.202
  545SOL    HW2 1644   0.520   2.624   0.324
  546SOL     OW 1645   1.281   2.207   0.944
  546SOL    HW1 1646   1.195   2.157   0.931
  546SOL    HW2 1647   1.343   2.153   1.000
  547SOL     OW 1648   1.576   3.524   0.307
  547SOL    HW1 1649   1.665   3.570   0.310
  547SOL    HW2 1650   1.555   3.500   0.212
  548SOL     OW 1651   0.807   2.467   1.465
  548SOL    HW1 1652   0.760   2.464   1.554
  548SOL    HW2 1653   0.756   2.412   1.399
  549SOL     OW 1654   1.394   2.331   1.674
  549SOL    HW1 1655   1.374   2.374   1.762
  549SOL    HW2 1656   1.472   2.269   1.683
  550SOL     OW 1657   0.973   2.752   1.572
  550SOL    HW1 1658   1.019   2.668   1.543
  550SOL    HW2 1659   0.917   2.786   1.497
  551SOL     OW 1660   0.991   2.272   1.242
  551SOL    HW1 1661   0.914   2.306   1.296
  551SOL    HW2 1662   0.957   2.221   1.163
  552SOL     OW 1663   1.041   2.563   0.429
  552SOL    HW1 1664   1.067   2.559   0.525
  552SOL    HW2 1665   0.956   2.512   0.415
  553SOL     OW 1666   0.076   2.673   0.789
  553SOL    HW1 1667   0.175   2.661   0.798
  553SOL    HW2 1668   0.052   2.768   0.810
  554SOL     OW 1669   0.130   3.683   1.571
  554SOL    HW1 1670   0.120   3.668   1.670
  554SOL    HW2 1671   0.044   3.719   1.535
  555SOL     OW 1672   0.865   2.210   0.195
  555SOL    HW1 1673   0.924   2.273   0.146
  555SOL    HW2 1674   0.884   2.116   0.166
  556SOL     OW 1675   1.719   2.447   1.831
  556SOL    HW1 1676   1.693   2.536   1.795
  556SOL    HW2 1677   1.717   2.379   1.758
  557SOL     OW 1678   1.362   3.006   0.545
  557SOL    HW1 1679   1.445   2.977   0.497
  557SOL    HW2 1680   1.313   3.073   0.489
  558SOL     OW 1681   0.550   2.058   0.885
  558SOL    HW1 1682   0.545   2.053   0.985
  558SOL    HW2 1683   0.552   2.154   0.856
  559SOL     OW 1684   1.008   3.318   0.477
  559SOL    HW1 1685   0.962   3.390   0.425
  559SOL    HW2 1686   1.004   3.338   0.575
  560SOL     OW 1687   0.351   3.663   0.853
  560SOL    HW1 1688   0.401   3.577   0.859
  560SOL    HW2 1689   0.416   3.740   0.850
  561SOL     OW 1690   1.795   2.928   0.873
  561SOL    HW1 1691   1.733   2.913   0.797
  561SOL    HW2 1692   1.743   2.939   0.958
  562SOL     OW 1693   1.227   3.412   1.506
  562SOL    HW1 1694   1.233   3.335   1.570
  562SOL    HW2 1695   1.175   3.386   1.426
  563SOL     OW 1696   0.321   2.805   0.242
  563SOL    HW1 1697   0.403   2.844   0.200
  563SOL    HW2 1698   0.294   2.723   0.193
  564SOL     OW 1699   1.458   2.597   0.728
  564SOL    HW1 1700   1.453   2.532   0.803
  564SOL    HW2 1701   1.538   2.656   0.741
  565SOL     OW 1702   0.461   3.128   1.727
  565SOL    HW1 1703   0.411   3.129   1.641
  565SOL    HW2 1704   0.398   3.110   1.803
  566SOL     OW 1705   1.111   3.638   0.237
  566SOL    HW1 1706   1.051   3.576   0.287
  566SOL    HW2 1707   1.142   3.594   0.152
  567SOL     OW 1708   0.202   2.147   1.498
  567SOL    HW1 1709   0.122   2.207   1.485
  567SOL    HW2 1710   0.192   2.098   1.584
  568SOL     OW 1711   1.632   3.239   0.081
  568SOL    HW1 1712   1.600   3.333   0.071
  568SOL    HW2 1713   1.556   3.176   0.069
  569SOL     OW 1714   0.464   3.605   0.323
  569SOL    HW1 1715   0.497   3.644   0.409
  569SOL    HW2 1716   0.540   3.598   0.258
  570SOL     OW 1717   1.400   1.969   0.426
  570SOL    HW1 1718   1.376   1.932   0.336
  570SOL    HW2 1719   1.499   1.985   0.430
  571SOL     OW 1720   0.249   3.647   1.241
  571SOL    HW1 1721   0.306   3.582   1.291
  571SOL    HW2 1722   0.233   3.614   1.148
  572SOL     OW 1723   0.940   3.560   0.904
  572SOL    HW1 1724   1.020   3.503   0.925
  572SOL    HW2 1725   0.891   3.520   0.827
  573SOL     OW 1726   0.382   2.562   0.480
  573SOL    HW1 1727   0.427   2.472   0.477
  573SOL    HW2 1728   0.288   2.551   0.513
  574SOL     OW 1729   1.547   2.084   1.729
  574SOL    HW1 1730   1.542   2.121   1.821
  574SOL    HW2 1731   1.475   2.015   1.717
  575SOL     OW 1732   0.614   1.984   0.117
  575SOL    HW1 1733   0.712   1.962   0.124
  575SOL    HW2 1734   0.583   1.967   0.024
  576SOL     OW 1735   0.781   2.126   1.749
  576SOL    HW1 1736   0.848   2.065   1.792
  576SOL    HW2 1737   0.708   2.145   1.814
  577SOL     OW 1738   0.888   3.376   1.195
  577SOL    HW1 1739   0.865   3.351   1.101
  577SOL    HW2 1740   0.949   3.307   1.234
  578SOL     OW 1741   1.351   2.452   1.433
  578SOL    HW1 1742   1.379   2.409   1.518
  578SOL    HW2 1743   1.376   2.548   1.434
  579SOL     OW 1744   0.803   3.264   0.924
  579SOL    HW1 1745   0.893   3.278   0.882
  579SOL    HW2 1746   0.732   3.266   0.853
  580SOL     OW 1747   0.922   2.365   0.899
  580SOL    HW1 1748   0.897   2.356   0.803
  580SOL    HW2 1749   0.970   2.283   0.930
  581SOL     OW 1750   0.539   1.926   0.512
  581SOL    HW1 1751   0.458   1.927   0.570
  581SOL    HW2 1752   0.542   2.009   0.457
  582SOL     OW 1753   1.434   3.050   0.041
  582SOL    HW1 1754   1.466   2.974   0.098
  582SOL    HW2 1755   1.342   3.077   0.071
  583SOL     OW 1756   0.935   2.098   0.480
  583SOL    HW1 1757   0.887   2.139   0.402
  583SOL    HW2 1758   1.034   2.096   0.461
  584SOL     OW 1759   1.076   2.545   1.464
  584SOL    HW1 1760   0.996   2.484   1.467
  584SOL    HW2 1761   1.157   2.492   1.440
  585SOL     OW 1762   1.227   3.432   0.793
  585SOL    HW1 1763   1.248   3.506   0.728
  585SOL    HW2 1764   1.295   3.432   0.866
  586SOL     OW 1765   0.459   3.014   0.741
  586SOL    HW1 1766   0.388   2.987   0.806
  586SOL    HW2 1767   0.433   2.986   0.648
  587SOL     OW 1768   1.271   3.659   0.591
  587SOL    HW1 1769   1.315   3.723   0.527
  587SOL    HW2 1770   1.221   3.711   0.661
  588SOL     OW 1771   1.032   2.411   0.016
  588SOL    HW1 1772   0.991   2.493  -0.023
  588SOL    HW2 1773   1.096   2.437   0.089
  589SOL     OW 1774   0.078   2.418   1.386
  589SOL    HW1 1775   0.170   2.417   1.345
  589SOL    HW2 1776   0.072   2.492   1.453
  590SOL     OW 1777   0.561   2.084   1.147
  590SOL    HW1 1778   0.599   2.000   1.184
  590SOL    HW2 1779   0.473   2.103   1.191
  591SOL     OW 1780   0.866   2.316   0.642
  591SOL    HW1 1781   0.834   2.388   0.580
  591SOL    HW2 1782   0.890   2.235   0.589
  592SOL     OW 1783   1.017   1.901   0.753
  592SOL    HW1 1784   0.945   1.906   0.684
  592SOL    HW2 1785   0.993   1.832   0.822
  593SOL     OW 1786   1.429   3.035   0.867
  593SOL    HW1 1787   1.374   2.951   0.860
  593SOL    HW2 1788   1.455   3.064   0.775
  594SOL     OW 1789   1.466   2.452   0.992
  594SOL    HW1 1790   1.436   2.357   0.999
  594SOL    HW2 1791   1.539   2.468   1.058
  595SOL     OW 1792   1.857   2.695   0.377
  595SOL    HW1 1793   1.899   2.631   0.441
  595SOL    HW2 1794   1.819   2.644   0.299
  596SOL     OW 1795   0.488   3.247   0.174
  596SOL    HW1 1796   0.401   3.232   0.221
  596SOL    HW2 1797   0.471   3.273   0.079
  597SOL     OW 1798   1.664   3.142   0.657
  597SOL    HW1 1799   1.763   3.150   0.671
  597SOL    HW2 1800   1.619   3.226   0.688
  598SOL     OW 1801   1.390   2.437   0.078
  598SOL    HW1 1802   1.336   2.416   0.159
  598SOL    HW2 1803   1.481   2.396   0.087
  599SOL     OW 1804   0.527   2.118   0.328
  599SOL    HW1 1805   0.554   2.059   0.253
  599SOL    HW2 1806   0.527   2.213   0.297
  600SOL     OW 1807   1.754   3.085   1.588
  600SOL    HW1 1808   1.845   3.046   1.575
  600SOL    HW2 1809   1.762   3.181   1.612
  601SOL     OW 1810   1.064   3.209   1.340
  601SOL    HW1 1811   0.984   3.186   1.395
  601SOL    HW2 1812   1.147   3.183   1.389
  602SOL     OW 1813   1.592   3.491   1.625
  602SOL    HW1 1814   1.619   3.525   1.535
  602SOL    HW2 1815   1.671   3.453   1.671
  603SOL     OW 1816   1.111   3.057   1.100
  603SOL    HW1 1817   1.071   3.101   1.181
  603SOL    HW2 1818   1.070   3.094   1.017
  604SOL     OW 1819   1.638   2.961   1.079
  604SOL    HW1 1820   1.643   3.042   1.138
  604SOL    HW2 1821   1.552   2.963   1.028
  605SOL     OW 1822   0.915   1.951   1.402
  605SOL    HW1 1823   0.940   1.931   1.307
  605SOL    HW2 1824   0.987   2.007   1.444
  606SOL     OW 1825   0.980   2.978   1.719
  606SOL    HW1 1826   0.881   2.984   1.729
  606SOL    HW2 1827   1.003   2.898   1.663
  607SOL     OW 1828   0.705   2.912   0.368
  607SOL    HW1 1829   0.691   2.919   0.467
  607SOL    HW2 1830   0.789   2.861   0.350
  608SOL     OW 1831   0.410   2.675   1.251
  608SOL    HW1 1832   0.496   2.687   1.301
  608SOL    HW2 1833   0.368   2.588   1.278
  609SOL     OW 1834   1.274   2.248   1.262
  609SOL    HW1 1835   1.295   2.322   1.326
  609SOL    HW2 1836   1.185   2.265   1.219
  610SOL     OW 1837   0.064   3.426   1.331
  610SOL    HW1 1838   0.018   3.508   1.297
  610SOL    HW2 1839   0.162   3.445   1.340
  611SOL     OW 1840   0.367   2.962   0.501
  611SOL    HW1 1841   0.360   3.045   0.445
  611SOL    HW2 1842   0.371   2.882   0.441
  612SOL     OW 1843   0.566   2.399   0.865
  612SOL    HW1 1844   0.578   2.465   0.791
  612SOL    HW2 1845   0.612   2.433   0.948
  613SOL     OW 1846   1.252   3.210   0.388
  613SOL    HW1 1847   1.302   3.287   0.428
  613SOL    HW2 1848   1.157   3.212   0.420
  614SOL     OW 1849   1.272   3.307   1.142
  614SOL    HW1 1850   1.319   3.320   1.229
  614SOL    HW2 1851   1.206   3.233   1.151
  615SOL     OW 1852   1.582   2.501   0.472
  615SOL    HW1 1853   1.551   2.562   0.545
  615SOL    HW2 1854   1.632   2.553   0.403
  616SOL     OW 1855   0.354   3.372   1.329
  616SOL    HW1 1856   0.333   3.328   1.242
  616SOL    HW2 1857   0.451   3.398   1.332
  617SOL     OW 1858   0.402   2.613   1.598
  617SOL    HW1 1859   0.470   2.668   1.551
  617SOL    HW2 1860   0.442   2.525   1.625
  618SOL     OW 1861   1.587   2.641   1.670
  618SOL    HW1 1862   1.495   2.679   1.665
  618SOL    HW2 1863   1.647   2.688   1.605
  619SOL     OW 1864   1.013   1.967   1.770
  619SOL    HW1 1865   1.019   2.052   1.718
  619SOL    HW2 1866   1.045   1.891   1.713
  620SOL     OW 1867   0.504   1.912   1.740
  620SOL    HW1 1868   0.462   1.855   1.670
  620SOL    HW2 1869   0.438   1.981   1.772
  621SOL     OW 1870   0.573   2.732   1.029
  621SOL    HW1 1871   0.617   2.821   1.020
  621SOL    HW2 1872   0.510   2.732   1.106
  622SOL     OW 1873   1.360   2.724   1.045
  622SOL    HW1 1874   1.285   2.724   0.979
  622SOL    HW2 1875   1.397   2.632   1.054
  623SOL     OW 1876   1.209   2.387   0.275
  623SOL    HW1 1877   1.222   2.303   0.329
  623SOL    HW2 1878   1.180   2.461   0.335
  624SOL     OW 1879   0.307   2.075   1.231
  624SOL    HW1 1880   0.284   2.112   1.321
  624SOL    HW2 1881   0.277   1.980   1.225
  625SOL     OW 1882   0.037   3.172   1.282
  625SOL    HW1 1883   0.090   3.123   1.350
  625SOL    HW2 1884   0.059   3.270   1.287
  626SOL     OW 1885   0.732   2.496   1.064
  626SOL    HW1 1886   0.791   2.470   0.988
  626SOL    HW2 1887   0.704   2.592   1.053
  627SOL     OW 1888   1.728   2.797   1.854
  627SOL    HW1 1889   1.682   2.790   1.765
  627SOL    HW2 1890   1.666   2.841   1.920
  628SOL     OW 1891   0.307   1.925   0.618
  628SOL    HW1 1892   0.296   2.019   0.651
  628SOL    HW2 1893   0.302   1.862   0.695
  629SOL     OW 1894   1.622   2.229   0.374
  629SOL    HW1 1895   1.624   2.153   0.438
  629SOL    HW2 1896   1.574   2.306   0.414
  630SOL     OW 1897   1.023   2.628   0.966
  630SOL    HW1 1898   1.038   2.649   1.062
  630SOL    HW2 1899   0.993   2.533   0.957
  631SOL     OW 1900   0.980   3.435   1.700
  631SOL    HW1 1901   0.960   3.479   1.612
  631SOL    HW2 1902   1.019   3.344   1.684
  632SOL     OW 1903   1.859   3.380   1.605
  632SOL    HW1 1904   1.873   3.407   1.510
  632SOL    HW2 1905   1.942   3.402   1.658
  633SOL     OW 1906   0.350   2.760   1.804
  633SOL    HW1 1907   0.426   2.804   1.852
  633SOL    HW2 1908   0.385   2.713   1.722
  634SOL     OW 1909   1.540   2.136   0.125
  634SOL    HW1 1910   1.479   2.061   0.148
  634SOL    HW2 1911   1.562   2.188   0.208
  635SOL     OW 1912   1.303   2.700   0.042
  635SOL    HW1 1913   1.337   2.607   0.057
  635SOL    HW2 1914   1.321   2.727  -0.053
  636SOL     OW 1915   1.068   3.195   0.849
  636SOL    HW1 1916   1.075   3.111   0.794
  636SOL    HW2 1917   1.130   3.264   0.813
  637SOL     OW 1918   0.319   2.672   0.949
  637SOL    HW1 1919   0.412   2.708   0.954
  637SOL    HW2 1920   0.313   2.587   1.001
  638SOL     OW 1921   0.339   2.371   1.006
  638SOL    HW1 1922   0.287   2.288   0.989
  638SOL    HW2 1923   0.416   2.376   0.942
  639SOL     OW 1924   1.138   2.242   1.678
  639SOL    HW1 1925   1.093   2.305   1.742
  639SOL    HW2 1926   1.231   2.273   1.661
  640SOL     OW 1927   1.160   2.069   1.477
  640SOL    HW1 1928   1.160   2.133   1.554
  640SOL    HW2 1929   1.188   2.117   1.394
  641SOL     OW 1930   0.008   3.188   0.200
  641SOL    HW1 1931  -0.085   3.209   0.169
  641SOL    HW2 1932   0.018   3.089   0.213
  642SOL     OW 1933   0.088   3.663   0.927
  642SOL    HW1 1934   0.046   3.577   0.900
  642SOL    HW2 1935   0.182   3.666   0.893
  643SOL     OW 1936   0.504   3.430   0.910
  643SOL    HW1 1937   0.570   3.504   0.919
  643SOL    HW2 1938   0.548   3.351   0.868
  644SOL     OW 1939   1.002   2.658   1.238
  644SOL    HW1 1940   1.043   2.626   1.324
  644SOL    HW2 1941   0.906   2.631   1.235
  645SOL     OW 1942   0.040   2.406   1.114
  645SOL    HW1 1943   0.125   2.373   1.073
  645SOL    HW2 1944   0.053   2.421   1.212
  646SOL     OW 1945   0.189   2.382   1.722
  646SOL    HW1 1946   0.248   2.342   1.652
  646SOL    HW2 1947   0.131   2.453   1.681
  647SOL     OW 1948   1.369   2.812   1.660
  647SOL    HW1 1949   1.408   2.901   1.680
  647SOL    HW2 1950   1.379   2.792   1.563
  648SOL     OW 1951   0.815   2.434   0.325
  648SOL    HW1 1952   0.822   2.345   0.279
  648SOL    HW2 1953   0.721   2.468   0.317
  649SOL     OW 1954   1.657   2.466   1.206
  649SOL    HW1 1955   1.619   2.397   1.268
  649SOL    HW2 1956   1.739   2.430   1.162
  650SOL     OW 1957   0.252   3.426   1.744
  650SOL    HW1 1958   0.222   3.483   1.820
  650SOL    HW2 1959   0.245   3.329   1.770
  651SOL     OW 1960   0.671   2.326   1.269
  651SOL    HW1 1961   0.637   2.237   1.239
  651SOL    HW2 1962   0.697   2.380   1.189
  652SOL     OW 1963   0.930   3.540   1.465
  652SOL    HW1 1964   0.906   3.522   1.370
  652SOL    HW2 1965   0.960   3.634   1.475
  653SOL     OW 1966   0.473   2.362   0.191
  653SOL    HW1 1967   0.534   2.442   0.195
  653SOL    HW2 1968   0.378   2.393   0.198
  654SOL     OW 1969   0.159   2.999   1.466
  654SOL    HW1 1970   0.181   2.938   1.542
  654SOL    HW2 1971   0.169   2.950   1.380
  655SOL     OW 1972   1.347   2.921   1.234
  655SOL    HW1 1973   1.371   2.858   1.160
  655SOL    HW2 1974   1.257   2.961   1.216
  656SOL     OW 1975   1.302   2.717   0.309
  656SOL    HW1 1976   1.216   2.686   0.351
  656SOL    HW2 1977   1.298   2.703   0.210
  657SOL     OW 1978   1.759   3.609   1.154
  657SOL    HW1 1979   1.820   3.639   1.081
  657SOL    HW2 1980   1.721   3.520   1.132
  658SOL     OW 1981   1.252   3.593   1.128
  658SOL    HW1 1982   1.336   3.598   1.074
  658SOL    HW2 1983   1.229   3.497   1.146
  659SOL     OW 1984   0.083   3.120   1.022
  659SOL    HW1 1985   0.078   3.119   1.122
  659SOL    HW2 1986   0.000   3.079   0.984
  660SOL     OW 1987   0.688   3.524   1.716
  660SOL    HW1 1988   0.632   3.605   1.725
  660SOL    HW2 1989   0.740   3.528   1.630
  661SOL     OW 1990   0.903   1.948   0.133
  661SOL    HW1 1991   0.954   1.949   0.047
  661SOL    HW2 1992   0.959   1.906   0.204
  662SOL     OW 1993   1.726   1.997   0.523
  662SOL    HW1 1994   1.799   1.980   0.456
  662SOL    HW2 1995   1.695   1.910   0.561
  663SOL     OW 1996   1.388   3.435   0.477
  663SOL    HW1 1997   1.455   3.447   0.403
  663SOL    HW2 1998   1.348   3.524   0.500
  664SOL     OW 1999   0.130   3.656   1.851
  664SOL    HW1 2000   0.089   3.582   1.904
  664SOL    HW2 2001   0.194   3.707   1.909
  665SOL     OW 2002   1.280   2.789   0.672
  665SOL    HW1 2003   1.340   2.708   0.674
  665SOL    HW2 2004   1.320   2.858   0.612
  666SOL     OW 2005   0.830   3.135   1.422
  666SOL    HW1 2006   0.825   3.168   1.517
  666SOL    HW2 2007   0.744   3.154   1.376
  667SOL     OW 2008   0.672   3.478   0.154
  667SOL    HW1 2009   0.681   3.488   0.055
  667SOL    HW2 2010   0.632   3.389   0.175
  668SOL     OW 2011   1.650   3.582   1.394
  668SOL    HW1 2012   1.703   3.592   1.310
  668SOL    HW2 2013   1.623   3.672   1.428
  669SOL     OW 2014   1.841   2.037   0.963
  669SOL    HW1 2015   1.880   1.952   0.927
  669SOL    HW2 2016   1.743   2.039   0.944
  670SOL     OW 2017   0.263   2.188   0.720
  670SOL    HW1 2018   0.184   2.239   0.686
  670SOL    HW2 2019   0.254   2.173   0.818
  671SOL     OW 2020   1.194   3.474   0.031
  671SOL    HW1 2021   1.200   3.381   0.068
  671SOL    HW2 2022   1.135   3.474  -0.049
  672SOL     OW 2023   0.822   2.864   1.372
  672SOL    HW1 2024   0.862   2.863   1.280
  672SOL    HW2 2025   0.832   2.956   1.412
  673SOL     OW 2026   0.916   2.772   0.291
  673SOL    HW1 2027   0.979   2.810   0.223
  673SOL    HW2 2028   0.956   2.689   0.330
  674SOL     OW 2029   1.504   3.469   0.044
  674SOL    HW1 2030   1.412   3.506   0.051
  674SOL    HW2 2031   1.542   3.489  -0.046
  675SOL     OW 2032   0.372   3.150   1.490
  675SOL    HW1 2033   0.359   3.243   1.456
  675SOL    HW2 2034   0.288   3.098   1.477
  676SOL     OW 2035   1.614   3.154   1.289
  676SOL    HW1 2036   1.674   3.157   1.369
  676SOL    HW2 2037   1.539   3.218   1.302
  677SOL     OW 2038   1.039   2.960   0.696
  677SOL    HW1 2039   0.969   2.913   0.750
  677SOL    HW2 2040   1.098   2.892   0.653
  678SOL     OW 2041   1.014   2.098   0.971
  678SOL    HW1 2042   1.006   2.062   0.878
  678SOL    HW2 2043   1.012   2.022   1.036
  679SOL     OW 2044   0.590   3.349   0.491
  679SOL    HW1 2045   0.632   3.291   0.421
  679SOL    HW2 2046   0.546   3.428   0.447
  680SOL     OW 2047   1.709   2.247   1.381
  680SOL    HW1 2048   1.782   2.316   1.385
  680SOL    HW2 2049   1.737   2.172   1.322
  681SOL     OW 2050   0.255   3.210   0.290
  681SOL    HW1 2051   0.159   3.211   0.263
  681SOL    HW2 2052   0.267   3.263   0.374
  682SOL     OW 2053   0.105   2.875   1.726
  682SOL    HW1 2054   0.028   2.842   1.780
  682SOL    HW2 2055   0.190   2.845   1.768
  683SOL     OW 2056   0.672   2.065   1.489
  683SOL    HW1 2057   0.762   2.049   1.449
  683SOL    HW2 2058   0.680   2.070   1.588
  684SOL     OW 2059   0.075   2.207   0.033
  684SOL    HW1 2060  -0.017   2.179   0.004
  684SOL    HW2 2061   0.106   2.284  -0.023
  685SOL     OW 2062   1.440   2.718   1.398
  685SOL    HW1 2063   1.383   2.770   1.335
  685SOL    HW2 2064   1.536   2.730   1.374
  686SOL     OW 2065   0.072   2.028   0.318
  686SOL    HW1 2066   0.055   2.111   0.264
  686SOL    HW2 2067   0.162   1.991   0.296
  687SOL     OW 2068   1.183   3.197   0.119
  687SOL    HW1 2069   1.084   3.186   0.121
  687SOL    HW2 2070   1.217   3.212   0.212
  688SOL     OW 2071   0.613   2.704   1.431
  688SOL    HW1 2072   0.669   2.785   1.414
  688SOL    HW2 2073   0.672   2.624   1.434
  689SOL     OW 2074   1.493   3.629   0.959
  689SOL    HW1 2075   1.526   3.693   0.890
  689SOL    HW2 2076   1.559   3.623   1.034
  690SOL     OW 2077   0.716   2.427   1.708
  690SOL    HW1 2078   0.735   2.492   1.782
  690SOL    HW2 2079   0.776   2.347   1.717
  691SOL     OW 2080   1.450   3.082   1.633
  691SOL    HW1 2081   1.441   3.072   1.732
  691SOL    HW2 2082   1.546   3.075   1.607
  692SOL     OW 2083   0.390   3.603   1.560
  692SOL    HW1 2084   0.299   3.644   1.558
  692SOL    HW2 2085   0.383   3.509   1.592
  693SOL     OW 2086   1.674   2.745   1.254
  693SOL    HW1 2087   1.647   2.656   1.217
  693SOL    HW2 2088   1.675   2.813   1.181
  694SOL     OW 2089   1.225   2.187   0.449
  694SOL    HW1 2090   1.290   2.113   0.438
  694SOL    HW2 2091   1.245   2.237   0.533
  695SOL     OW 2092   0.594   2.607   0.652
  695SOL    HW1 2093   0.644   2.692   0.633
  695SOL    HW2 2094   0.506   2.609   0.604
  696SOL     OW 2095   1.777   2.204   1.642
  696SOL    HW1 2096   1.760   2.235   1.548
  696SOL    HW2 2097   1.693   2.167   1.680
  697SOL     OW 2098   1.730   2.796   1.517
  697SOL    HW1 2099   1.768   2.887   1.532
  697SOL    HW2 2100   1.722   2.779   1.418
  698SOL     OW 2101   0.859   3.236   0.016
  698SOL    HW1 2102   0.813   3.251   0.104
  698SOL    HW2 2103   0.903   3.321  -0.014
  699SOL     OW 2104   0.661   3.652   0.953
  699SOL    HW1 2105   0.615   3.740   0.940
  699SOL    HW2 2106   0.760   3.664   0.946
  700SOL     OW 2107   0.859   2.818   0.861
  700SOL    HW1 2108   0.913   2.749   0.909
  700SOL    HW2 2109   0.827   2.887   0.927
  701SOL     OW 2110   1.083   2.846   0.087
  701SOL    HW1 2111   1.060   2.899   0.005
  701SOL    HW2 2112   1.164   2.790   0.068
  702SOL     OW 2113   1.861   3.431   0.851
  702SOL    HW1 2114   1.790   3.419   0.781
  702SOL    HW2 2115   1.862   3.352   0.911
  703SOL     OW 2116   0.221   3.176   1.844
  703SOL    HW1 2117   0.156   3.103   1.823
  703SOL    HW2 2118   0.225   3.190   1.942
  704SOL     OW 2119   0.079   3.102   0.653
  704SOL    HW1 2120   0.078   3.055   0.741
  704SOL    HW2 2121   0.161   3.074   0.602
  705SOL     OW 2122   0.672   3.253   1.624
  705SOL    HW1 2123   0.594   3.203   1.662
  705SOL    HW2 2124   0.669   3.348   1.655
  706SOL     OW 2125   1.824   2.054   1.227
  706SOL    HW1 2126   1.820   1.964   1.271
  706SOL    HW2 2127   1.827   2.043   1.128
  707SOL     OW 2128   0.428   2.286   0.520
  707SOL    HW1 2129   0.458   2.214   0.458
  707SOL    HW2 2130   0.389   2.246   0.603
  708SOL     OW 2131   1.705   3.349   1.104
  708SOL    HW1 2132   1.612   3.324   1.077
  708SOL    HW2 2133   1.731   3.299   1.186
  709SOL     OW 2134   0.317   2.409   1.280
  709SOL    HW1 2135   0.355   2.350   1.352
  709SOL    HW2 2136   0.357   2.383   1.192
  710SOL     OW 2137   0.812   3.448   0.687
  710SOL    HW1 2138   0.844   3.458   0.593
  710SOL    HW2 2139   0.733   3.386   0.689
  711SOL     OW 2140   1.424   2.076   1.112
  711SOL    HW1 2141   1.476   2.011   1.167
  711SOL    HW2 2142   1.375   2.139   1.173
  712SOL     OW 2143   1.001   1.896   1.154
  712SOL    HW1 2144   0.938   1.824   1.123
  712SOL    HW2 2145   1.094   1.860   1.154
  713SOL     OW 2146   0.770   3.192   0.301
  713SOL    HW1 2147   0.724   3.105   0.318
  713SOL    HW2 2148   0.861   3.189   0.342
  714SOL     OW 2149   0.618   3.429   1.284
  714SOL    HW1 2150   0.613   3.511   1.341
  714SOL    HW2 2151   0.707   3.426   1.239
  715SOL     OW 2152   1.352   1.914   0.168
  715SOL    HW1 2153   1.387   1.873   0.084
  715SOL    HW2 2154   1.262   1.876   0.188
  716SOL     OW 2155   1.300   2.315   0.691
  716SOL    HW1 2156   1.241   2.395   0.695
  716SOL    HW2 2157   1.315   2.280   0.784
  717SOL     OW 2158   1.593   2.083   0.882
  717SOL    HW1 2159   1.509   2.082   0.936
  717SOL    HW2 2160   1.595   2.166   0.826
  718SOL     OW 2161   0.039   2.939   0.300
  718SOL    HW1 2162   0.138   2.928   0.291
  718SOL    HW2 2163  -0.001   2.853   0.332
  719SOL     OW 2164   0.875   3.508   0.337
  719SOL    HW1 2165   0.798   3.473   0.283
  719SOL    HW2 2166   0.843   3.579   0.399
  720SOL     OW 2167   0.230   2.490   1.975
  720SOL    HW1 2168   0.137   2.488   2.012
  720SOL    HW2 2169   0.231   2.451   1.883
  721SOL     OW 2170   0.225   2.137   2.858
  721SOL    HW1 2171   0.260   2.120   2.950
  721SOL    HW2 2172   0.137   2.092   2.846
  722SOL     OW 2173   0.019   2.230   2.509
  722SOL    HW1 2174  -0.063   2.273   2.548
  722SOL    HW2 2175  -0.009   2.157   2.446
  723SOL     OW 2176   0.569   3.137   3.027
  723SOL    HW1 2177   0.476   3.130   2.990
  723SOL    HW2 2178   0.580   3.226   3.071
  724SOL     OW 2179   1.555   3.373   2.565
  724SOL    HW1 2180   1.498   3.357   2.646
  724SOL    HW2 2181   1.496   3.383   2.485
  725SOL     OW 2182   1.135   2.565   2.579
  725SOL    HW1 2183   1.192   2.643   2.554
  725SOL    HW2 2184   1.075   2.591   2.655
  726SOL     OW 2185   1.755   2.469   2.093
  726SOL    HW1 2186   1.743   2.456   1.994
  726SOL    HW2 2187   1.725   2.388   2.142
  727SOL     OW 2188   0.768   3.006   2.885
  727SOL    HW1 2189   0.690   3.023   2.945
  727SOL    HW2 2190   0.802   3.093   2.849
  728SOL     OW 2191   0.850   2.660   3.685
  728SOL    HW1 2192   0.846   2.736   3.750
  728SOL    HW2 2193   0.872   2.696   3.594
  729SOL     OW 2194   0.685   2.874   2.527
  729SOL    HW1 2195   0.754   2.858   2.597
  729SOL    HW2 2196   0.612   2.931   2.565
  730SOL     OW 2197   0.686   3.023   3.665
  730SOL    HW1 2198   0.746   3.102   3.679
  730SOL    HW2 2199   0.600   3.054   3.624
  731SOL     OW 2200   0.335   3.297   2.923
  731SOL    HW1 2201   0.257   3.266   2.870
  731SOL    HW2 2202   0.393   3.355   2.866
  732SOL     OW 2203   1.460   3.367   3.201
  732SOL    HW1 2204   1.484   3.461   3.227
  732SOL    HW2 2205   1.444   3.313   3.283
  733SOL     OW 2206   0.438   2.254   3.361
  733SOL    HW1 2207   0.520   2.198   3.370
  733SOL    HW2 2208   0.357   2.196   3.365
  734SOL     OW 2209   1.603   2.309   2.599
  734SOL    HW1 2210   1.529   2.355   2.549
  734SOL    HW2 2211   1.654   2.377   2.652
  735SOL     OW 2212   0.231   3.575   2.345
  735SOL    HW1 2213   0.265   3.652   2.399
  735SOL    HW2 2214   0.275   3.575   2.255
  736SOL     OW 2215   1.127   3.203   3.552
  736SOL    HW1 2216   1.174   3.203   3.640
  736SOL    HW2 2217   1.079   3.116   3.541
  737SOL     OW 2218   0.230   3.296   2.400
  737SOL    HW1 2219   0.204   3.392   2.400
  737SOL    HW2 2220   0.159   3.242   2.445
  738SOL     OW 2221   0.240   2.953   2.748
  738SOL    HW1 2222   0.254   2.869   2.800
  738SOL    HW2 2223   0.185   3.017   2.803
  739SOL     OW 2224   0.620   3.648   3.301
  739SOL    HW1 2225   0.528   3.631   3.336
  739SOL    HW2 2226   0.648   3.740   3.327
  740SOL     OW 2227   0.606   2.826   1.985
  740SOL    HW1 2228   0.613   2.910   1.931
  740SOL    HW2 2229   0.652   2.839   2.073
  741SOL     OW 2230   1.594   1.976   3.342
  741SOL    HW1 2231   1.576   2.043   3.270
  741SOL    HW2 2232   1.591   2.022   3.431
  742SOL     OW 2233   0.122   2.505   2.425
  742SOL    HW1 2234   0.077   2.417   2.442
  742SOL    HW2 2235   0.121   2.559   2.509
  743SOL     OW 2236   1.842   3.629   2.221
  743SOL    HW1 2237   1.896   3.600   2.301
  743SOL    HW2 2238   1.872   3.719   2.192
  744SOL     OW 2239   0.027   3.458   1.979
  744SOL    HW1 2240   0.008   3.362   2.000
  744SOL    HW2 2241  -0.006   3.516   2.054
  745SOL     OW 2242   1.689   2.784   2.474
  745SOL    HW1 2243   1.784   2.755   2.482
  745SOL    HW2 2244   1.681   2.849   2.399
  746SOL     OW 2245   1.641   2.970   2.294
  746SOL    HW1 2246   1.727   2.972   2.242
  746SOL    HW2 2247   1.655   3.017   2.382
  747SOL     OW 2248   0.113   2.599   3.459
  747SOL    HW1 2249   0.201   2.586   3.504
  747SOL    HW2 2250   0.100   2.696   3.437
  748SOL     OW 2251   0.613   3.227   2.588
  748SOL    HW1 2252   0.564   3.140   2.597
  748SOL    HW2 2253   0.590   3.270   2.501
  749SOL     OW 2254   1.293   3.090   3.285
  749SOL    HW1 2255   1.330   3.017   3.227
  749SOL    HW2 2256   1.345   3.095   3.370
  750SOL     OW 2257   0.809   1.866   2.364
  750SOL    HW1 2258   0.849   1.957   2.355
  750SOL    HW2 2259   0.709   1.874   2.370
  751SOL     OW 2260   0.197   2.838   3.126
  751SOL    HW1 2261   0.286   2.793   3.112
  751SOL    HW2 2262   0.124   2.773   3.107
  752SOL     OW 2263   1.525   2.861   2.052
  752SOL    HW1 2264   1.462   2.785   2.065
  752SOL    HW2 2265   1.573   2.879   2.138
  753SOL     OW 2266   1.187   3.654   3.478
  753SOL    HW1 2267   1.211   3.714   3.402
  753SOL    HW2 2268   1.194   3.559   3.448
  754SOL     OW 2269   0.317   2.113   3.663
  754SOL    HW1 2270   0.388   2.184   3.669
  754SOL    HW2 2271   0.229   2.152   3.691
  755SOL     OW 2272   1.466   3.279   2.815
  755SOL    HW1 2273   1.407   3.285   2.895
  755SOL    HW2 2274   1.451   3.191   2.769
  756SOL     OW 2275   1.667   3.576   2.434
  756SOL    HW1 2276   1.626   3.553   2.346
  756SOL    HW2 2277   1.649   3.502   2.499
  757SOL     OW 2278   0.598   2.591   2.132
  757SOL    HW1 2279   0.622   2.660   2.064
  757SOL    HW2 2280   0.520   2.624   2.186
  758SOL     OW 2281   1.281   2.207   2.806
  758SOL    HW1 2282   1.195   2.157   2.793
  758SOL    HW2 2283   1.343   2.153   2.862
  759SOL     OW 2284   1.576   3.524   2.169
  759SOL    HW1 2285   1.665   3.570   2.172
  759SOL    HW2 2286   1.555   3.500   2.074
  760SOL     OW 2287   0.807   2.467   3.327
  760SOL    HW1 2288   0.760   2.464   3.416
  760SOL    HW2 2289   0.756   2.412   3.261
  761SOL     OW 2290   1.394   2.331   3.536
  761SOL    HW1 2291   1.374   2.374   3.624
  761SOL    HW2 2292   1.472   2.269   3.545
  762SOL     OW 2293   0.973   2.752   3.434
  762SOL    HW1 2294   1.019   2.668   3.405
  762SOL    HW2 2295   0.917   2.786   3.359
  763SOL     OW 2296   0.991   2.272   3.104
  763SOL    HW1 2297   0.914   2.306   3.158
  763SOL    HW2 2298   0.957   2.221   3.025
  764SOL     OW 2299   1.041   2.563   2.291
  764SOL    HW1 2300   1.067   2.559   2.387
  764SOL    HW2 2301   0.956   2.512   2.277
  765SOL     OW 2302   0.076   2.673   2.651
  765SOL    HW1 2303   0.175   2.661   2.660
  765SOL    HW2 2304   0.052   2.768   2.672
  766SOL     OW 2305   0.130   3.683   3.433
  766SOL    HW1 2306   0.120   3.668   3.532
  766SOL    HW2 2307   0.044   3.719   3.397
  767SOL     OW 2308   0.865   2.210   2.057
  767SOL    HW1 2309   0.924   2.273   2.008
  767SOL    HW2 2310   0.884   2.116   2.028
  768SOL     OW 2311   1.719   2.447   3.693
  768SOL    HW1 2312   1.693   2.536   3.657
  768SOL    HW2 2313   1.717   2.379   3.620
  769SOL     OW 2314   1.362   3.006   2.407
  769SOL    HW1 2315   1.445   2.977   2.359
  769SOL    HW2 2316   1.313   3.073   2.351
  770SOL     OW 2317   0.550   2.058   2.747
  770SOL    HW1 2318   0.545   2.053   2.847
  770SOL    HW2 2319   0.552   2.154   2.718
  771SOL     OW 2320   1.008   3.318   2.339
  771SOL    HW1 2321   0.962   3.390   2.287
  771SOL    HW2 2322   1.004   3.338   2.437
  772SOL     OW 2323   0.351   3.663   2.715
  772SOL    HW1 2324   0.401   3.577   2.721
  772SOL    HW2 2325   0.416   3.740   2.712
  773SOL     OW 2326   1.795   2.928   2.735
  773SOL    HW1 2327   1.733   2.913   2.659
  773SOL    HW2 2328   1.743   2.939   2.820
  774SOL     OW 2329   1.227   3.412   3.368
  774SOL    HW1 2330   1.233   3.335   3.432
  774SOL    HW2 2331   1.175   3.386   3.288
  775SOL     OW 2332   0.321   2.805   2.104
  775SOL    HW1 2333   0.403   2.844   2.062
  775SOL    HW2 2334   0.294   2.723   2.055
  776SOL     OW 2335   1.458   2.597   2.590
  776SOL    HW1 2336   1.453   2.532   2.665
  776SOL    HW2 2337   1.538   2.656   2.603
  777SOL     OW 2338   0.461   3.128   3.589
  777SOL    HW1 2339   0.411   3.129   3.503
  777SOL    HW2 2340   0.398   3.110   3.665
  778SOL     OW 2341   1.111   3.638   2.099
  778SOL    HW1 2342   1.051   3.576   2.149
  778SOL    HW2 2343   1.142   3.594   2.014
  779SOL     OW 2344   0.202   2.147   3.360
  779SOL    HW1 2345   0.122   2.207   3.347
  779SOL    HW2 2346   0.192   2.098   3.446
  780SOL     OW 2347   1.632   3.239   1.943
  780SOL    HW1 2348   1.600   3.333   1.933
  780SOL    HW2 2349   1.556   3.176   1.931
  781SOL     OW 2350   0.464   3.605   2.185
  781SOL    HW1 2351   0.497   3.644   2.271
  781SOL    HW2 2352   0.540   3.598   2.120
  782SOL     OW 2353   1.400   1.969   2.288
  782SOL    HW1 2354   1.376   1.932   2.198
  782SOL    HW2 2355   1.499   1.985   2.292
  783SOL     OW 2356   0.249   3.647   3.103
  783SOL    HW1 2357   0.306   3.582   3.153
  783SOL    HW2 2358   0.233   3.614   3.010
  784SOL     OW 2359   0.940   3.560   2.766
  784SOL    HW1 2360   1.020   3.503   2.787
  784SOL    HW2 2361   0.891   3.520   2.689
  785SOL     OW 2362   0.382   2.562   2.342
  785SOL    HW1 2363   0.427   2.472   2.339
  785SOL    HW2 2364   0.288   2.551   2.375
  786SOL     OW 2365   1.547   2.084   3.591
  786SOL    HW1 2366   1.542   2.121   3.683
  786SOL    HW2 2367   1.475   2.015   3.579
  787SOL     OW 2368   0.614   1.984   1.979
  787SOL    HW1 2369   0.712   1.962   1.986
  787SOL    HW2 2370   0.583   1.967   1.886
  788SOL     OW 2371   0.781   2.126   3.611
  788SOL    HW1 2372   0.848   2.065   3.654
  788SOL    HW2 2373   0.708   2.145   3.676
  789SOL     OW 2374   0.888   3.376   3.057
  789SOL    HW1 2375   0.865   3.351   2.963
  789SOL    HW2 2376   0.949   3.307   3.096
  790SOL     OW 2377   1.351   2.452   3.295
  790SOL    HW1 2378   1.379   2.409   3.380
  790SOL    HW2 2379   1.376   2.548   3.296
  791SOL     OW 2380   0.803   3.264   2.786
  791SOL    HW1 2381   0.893   3.278   2.744
  791SOL    HW2 2382   0.732   3.266   2.715
  792SOL     OW 2383   0.922   2.365   2.761
  792SOL    HW1 2384   0.897   2.356   2.665
  792SOL    HW2 2385   0.970   2.283   2.792
  793SOL     OW 2386   0.539   1.926   2.374
  793SOL    HW1 2387   0.458   1.927   2.432
  793SOL    HW2 2388   0.542   2.009   2.319
  794SOL     OW 2389   1.434   3.050   1.903
  794SOL    HW1 2390   1.466   2.974   1.960
  794SOL    HW2 2391   1.342   3.077   1.933
  795SOL     OW 2392   0.297   1.897   2.033
  795SOL    HW1 2393   0.346   1.981   2.012
  795SOL    HW2 2394   0.359   1.832   2.078
  796SOL     OW 2395   0.935   2.098   2.342
  796SOL    HW1 2396   0.887   2.139   2.264
  796SOL    HW2 2397   1.034   2.096   2.323
  797SOL     OW 2398   1.076   2.545   3.326
  797SOL    HW1 2399   0.996   2.484   3.329
  797SOL    HW2 2400   1.157   2.492   3.302
  798SOL     OW 2401   1.227   3.432   2.655
  798SOL    HW1 2402   1.248   3.506   2.590
  798SOL    HW2 2403   1.295   3.432   2.728
  799SOL     OW 2404   0.459   3.014   2.603
  799SOL    HW1 2405   0.388   2.987   2.668
  799SOL    HW2 2406   0.433   2.986   2.510
  800SOL     OW 2407   1.271   3.659   2.453
  800SOL    HW1 2408   1.315   3.723   2.389
  800SOL    HW2 2409   1.221   3.711   2.523
  801SOL     OW 2410   1.032   2.411   1.878
  801SOL    HW1 2411   0.991   2.493   1.839
  801SOL    HW2 2412   1.096   2.437   1.951
  802SOL     OW 2413   0.078   2.418   3.248
  802SOL    HW1 2414   0.170   2.417   3.207
  802SOL    HW2 2415   0.072   2.492   3.315
  803SOL     OW 2416   0.561   2.084   3.009
  803SOL    HW1 2417   0.599   2.000   3.046
  803SOL    HW2 2418   0.473   2.103   3.053
  804SOL     OW 2419   0.866   2.316   2.504
  804SOL    HW1 2420   0.834   2.388   2.442
  804SOL    HW2 2421   0.890   2.235   2.451
  805SOL     OW 2422   1.017   1.901   2.615
  805SOL    HW1 2423   0.945   1.906   2.546
  805SOL    HW2 2424   0.993   1.832   2.684
  806SOL     OW 2425   1.429   3.035   2.729
  806SOL    HW1 2426   1.374   2.951   2.722
  806SOL    HW2 2427   1.455   3.064   2.637
  807SOL     OW 2428   1.466   2.452   2.854
  807SOL    HW1 2429   1.436   2.357   2.861
  807SOL    HW2 2430   1.539   2.468   2.920
  808SOL     OW 2431   1.857   2.695   2.239
  808SOL    HW1 2432   1.899   2.631   2.303
  808SOL    HW2 2433   1.819   2.644   2.161
  809SOL     OW 2434   0.488   3.247   2.036
  809SOL    HW1 2435   0.401   3.232   2.083
  809SOL    HW2 2436   0.471   3.273   1.941
  810SOL     OW 2437   1.664   3.142   2.519
  810SOL    HW1 2438   1.763   3.150   2.533
  810SOL    HW2 2439   1.619   3.226   2.550
  811SOL     OW 2440   1.390   2.437   1.940
  811SOL    HW1 2441   1.336   2.416   2.021
  811SOL    HW2 2442   1.481   2.396   1.949
  812SOL     OW 2443   0.527   2.118   2.190
  812SOL    HW1 2444   0.554   2.059   2.115
  812SOL    HW2 2445   0.527   2.213   2.159
  813SOL     OW 2446   1.754   3.085   3.450
  813SOL    HW1 2447   1.845   3.046   3.437
  813SOL    HW2 2448   1.762   3.181   3.474
  814SOL     OW 2449   1.064   3.209   3.202
  814SOL    HW1 2450   0.984   3.186   3.257
  814SOL    HW2 2451   1.147   3.183   3.251
  815SOL     OW 2452   1.592   3.491   3.487
  815SOL    HW1 2453   1.619   3.525   3.397
  815SOL    HW2 2454   1.671   3.453   3.533
  816SOL     OW 2455   1.111   3.057   2.962
  816SOL    HW1 2456   1.071   3.101   3.043
  816SOL    HW2 2457   1.070   3.094   2.879
  817SOL     OW 2458   1.638   2.961   2.941
  817SOL    HW1 2459   1.643   3.042   3.000
  817SOL    HW2 2460   1.552   2.963   2.890
  818SOL     OW 2461   0.915   1.951   3.264
  818SOL    HW1 2462   0.940   1.931   3.169
  818SOL    HW2 2463   0.987   2.007   3.306
  819SOL     OW 2464   0.980   2.978   3.581
  819SOL    HW1 2465   0.881   2.984   3.591
  819SOL    HW2 2466   1.003   2.898   3.525
  820SOL     OW 2467   0.705   2.912   2.230
  820SOL    HW1 2468   0.691   2.919   2.329
  820SOL    HW2 2469   0.789   2.861   2.212
  821SOL     OW 2470   0.410   2.675   3.113
  821SOL    HW1 2471   0.496   2.687   3.163
  821SOL    HW2 2472   0.368   2.588   3.140
  822SOL     OW 2473   1.274   2.248   3.124
  822SOL    HW1 2474   1.295   2.322   3.188
  822SOL    HW2 2475   1.185   2.265   3.081
  823SOL     OW 2476   0.064   3.426   3.193
  823SOL    HW1 2477   0.018   3.508   3.159
  823SOL    HW2 2478   0.162   3.445   3.202
  824SOL     OW 2479   0.367   2.962   2.363
  824SOL    HW1 2480   0.360   3.045   2.307
  824SOL    HW2 2481   0.371   2.882   2.303
  825SOL     OW 2482   0.566   2.399   2.727
  825SOL    HW1 2483   0.578   2.465   2.653
  825SOL    HW2 2484   0.612   2.433   2.810
  826SOL     OW 2485   1.252   3.210   2.250
  826SOL    HW1 2486   1.302   3.287   2.290
  826SOL    HW2 2487   1.157   3.212   2.282
  827SOL     OW 2488   1.272   3.307   3.004
  827SOL    HW1 2489   1.319   3.320   3.091
  827SOL    HW2 2490   1.206   3.233   3.013
  828SOL     OW 2491   1.582   2.501   2.334
  828SOL    HW1 2492   1.551   2.562   2.407
  828SOL    HW2 2493   1.632   2.553   2.265
  829SOL     OW 2494   0.354   3.372   3.191
  829SOL    HW1 2495   0.333   3.328   3.104
  829SOL    HW2 2496   0.451   3.398   3.194
  830SOL     OW 2497   0.402   2.613   3.460
  830SOL    HW1 2498   0.470   2.668   3.413
  830SOL    HW2 2499   0.442   2.525   3.487
  831SOL     OW 2500   1.587   2.641   3.532
  831SOL    HW1 2501   1.495   2.679   3.527
  831SOL    HW2 2502   1.647   2.688   3.467
  832SOL     OW 2503   1.013   1.967   3.632
  832SOL    HW1 2504   1.019   2.052   3.580
  832SOL    HW2 2505   1.045   1.891   3.575
  833SOL     OW 2506   0.504   1.912   3.602
  833SOL    HW1 2507   0.462   1.855   3.532
  833SOL    HW2 2508   0.438   1.981   3.634
  834SOL     OW 2509   0.573   2.732   2.891
  834SOL    HW1 2510   0.617   2.821   2.882
  834SOL    HW2 2511   0.510   2.732   2.968
  835SOL     OW 2512   1.360   2.724   2.907
  835SOL    HW1 2513   1.285   2.724   2.841
  835SOL    HW2 2514   1.397   2.632   2.916
  836SOL     OW 2515   1.209   2.387   2.137
  836SOL    HW1 2516   1.222   2.303   2.191
  836SOL    HW2 2517   1.180   2.461   2.197
  837SOL     OW 2518   0.307   2.075   3.093
  837SOL    HW1 2519   0.284   2.112   3.183
  837SOL    HW2 2520   0.277   1.980   3.087
  838SOL     OW 2521   0.037   3.172   3.144
  838SOL    HW1 2522   0.090   3.123   3.212
  838SOL    HW2 2523   0.059   3.270   3.149
  839SOL     OW 2524   0.732   2.496   2.926
  839SOL    HW1 2525   0.791   2.470   2.850
  839SOL    HW2 2526   0.704   2.592   2.915
  840SOL     OW 2527   1.728   2.797   3.716
  840SOL    HW1 2528   1.682   2.790   3.627
  840SOL    HW2 2529   1.666   2.841   3.782
  841SOL     OW 2530   0.307   1.925   2.480
  841SOL    HW1 2531   0.296   2.019   2.513
  841SOL    HW2 2532   0.302   1.862   2.557
  842SOL     OW 2533   1.622   2.229   2.236
  842SOL    HW1 2534   1.624   2.153   2.300
  842SOL    HW2 2535   1.574   2.306   2.276
  843SOL     OW 2536   1.023   2.628   2.828
  843SOL    HW1 2537   1.038   2.649   2.924
  843SOL    HW2 2538   0.993   2.533   2.819
  844SOL     OW 2539   0.980   3.435   3.562
  844SOL    HW1 2540   0.960   3.479   3.474
  844SOL    HW2 2541   1.019   3.344   3.546
  845SOL     OW 2542   1.859   3.380   3.467
  845SOL    HW1 2543   1.873   3.407   3.372
  845SOL    HW2 2544   1.942   3.402   3.520
  846SOL     OW 2545   0.350   2.760   3.666
  846SOL    HW1 2546   0.426   2.804   3.714
  846SOL    HW2 2547   0.385   2.713   3.584
  847SOL     OW 2548   1.540   2.136   1.987
  847SOL    HW1 2549   1.479   2.061   2.010
  847SOL    HW2 2550   1.562   2.188   2.070
  848SOL     OW 2551   1.303   2.700   1.904
  848SOL    HW1 2552   1.337   2.607   1.919
  848SOL    HW2 2553   1.321   2.727   1.809
  849SOL     OW 2554   1.068   3.195   2.711
  849SOL    HW1 2555   1.075   3.111   2.656
  849SOL    HW2 2556   1.130   3.264   2.675
  850SOL     OW 2557   0.319   2.672   2.811
  850SOL    HW1 2558   0.412   2.708   2.816
  850SOL    HW2 2559   0.313   2.587   2.863
  851SOL     OW 2560   0.339   2.371   2.868
  851SOL    HW1 2561   0.287   2.288   2.851
  851SOL    HW2 2562   0.416   2.376   2.804
  852SOL     OW 2563   1.138   2.242   3.540
  852SOL    HW1 2564   1.093   2.305   3.604
  852SOL    HW2 2565   1.231   2.273   3.523
  853SOL     OW 2566   1.160   2.069   3.339
  853SOL    HW1 2567   1.160   2.133   3.416
  853SOL    HW2 2568   1.188   2.117   3.256
  854SOL     OW 2569   0.008   3.188   2.062
  854SOL    HW1 2570  -0.085   3.209   2.031
  854SOL    HW2 2571   0.018   3.089   2.075
  855SOL     OW 2572   0.088   3.663   2.789
  855SOL    HW1 2573   0.046   3.577   2.762
  855SOL    HW2 2574   0.182   3.666   2.755
  856SOL     OW 2575   0.504   3.430   2.772
  856SOL    HW1 2576   0.570   3.504   2.781
  856SOL    HW2 2577   0.548   3.351   2.730
  857SOL     OW 2578   1.002   2.658   3.100
  857SOL    HW1 2579   1.043   2.626   3.186
  857SOL    HW2 2580   0.906   2.631   3.097
  858SOL     OW 2581   0.040   2.406   2.976
  858SOL    HW1 2582   0.125   2.373   2.935
  858SOL    HW2 2583   0.053   2.421   3.074
  859SOL     OW 2584   0.189   2.382   3.584
  859SOL    HW1 2585   0.248   2.342   3.514
  859SOL    HW2 2586   0.131   2.453   3.543
  860SOL     OW 2587   1.369   2.812   3.522
  860SOL    HW1 2588   1.408   2.901   3.542
  860SOL    HW2 2589   1.379   2.792   3.425
  861SOL     OW 2590   0.815   2.434   2.187
  861SOL    HW1 2591   0.822   2.345   2.141
  861SOL    HW2 2592   0.721   2.468   2.179
  862SOL     OW 2593   1.657   2.466   3.068
  862SOL    HW1 2594   1.619   2.397   3.130
  862SOL    HW2 2595   1.739   2.430   3.024
  863SOL     OW 2596   0.252   3.426   3.606
  863SOL    HW1 2597   0.222   3.483   3.682
  863SOL    HW2 2598   0.245   3.329   3.632
  864SOL     OW 2599   0.671   2.326   3.131
  864SOL    HW1 2600   0.637   2.237   3.101
  864SOL    HW2 2601   0.697   2.380   3.051
  865SOL     OW 2602   0.930   3.540   3.327
  865SOL    HW1 2603   0.906   3.522   3.232
  865SOL    HW2 2604   0.960   3.634   3.337
  866SOL     OW 2605   0.473   2.362   2.053
  866SOL    HW1 2606   0.534   2.442   2.057
  866SOL    HW2 2607   0.378   2.393   2.060
  867SOL     OW 2608   0.159   2.999   3.328
  867SOL    HW1 2609   0.181   2.938   3.404
  867SOL    HW2 2610   0.169   2.950   3.242
  868SOL     OW 2611   1.347   2.921   3.096
  868SOL    HW1 2612   1.371   2.858   3.022
  868SOL    HW2 2613   1.257   2.961   3.078
  869SOL     OW 2614   1.302   2.717   2.171
  869SOL    HW1 2615   1.216   2.686   2.213
  869SOL    HW2 2616   1.298   2.703   2.072
  870SOL     OW 2617   1.759   3.609   3.016
  870SOL    HW1 2618   1.820   3.639   2.943
  870SOL    HW2 2619   1.721   3.520   2.994
  871SOL     OW 2620   1.252   3.593   2.990
  871SOL    HW1 2621   1.336   3.598   2.936
  871SOL    HW2 2622   1.229   3.497   3.008
  872SOL     OW 2623   0.083   3.120   2.884
  872SOL    HW1 2624   0.078   3.119   2.984
  872SOL    HW2 2625   0.000   3.079   2.846
  873SOL     OW 2626   0.688   3.524   3.578
  873SOL    HW1 2627   0.632   3.605   3.587
  873SOL    HW2 2628   0.740   3.528   3.492
  874SOL     OW 2629   1.726   1.997   2.385
  874SOL    HW1 2630   1.799   1.980   2.318
  874SOL    HW2 2631   1.695   1.910   2.423
  875SOL     OW 2632   1.388   3.435   2.339
  875SOL    HW1 2633   1.455   3.447   2.265
  875SOL    HW2 2634   1.348   3.524   2.362
  876SOL     OW 2635   0.130   3.656   3.713
  876SOL    HW1 2636   0.089   3.582   3.766
  876SOL    HW2 2637   0.194   3.707   3.771
  877SOL     OW 2638   1.280   2.789   2.534
  877SOL    HW1 2639   1.340   2.708   2.536
  877SOL    HW2 2640   1.320   2.858   2.474
  878SOL     OW 2641   0.830   3.135   3.284
  878SOL    HW1 2642   0.825   3.168   3.379
  878SOL    HW2 2643   0.744   3.154   3.238
  879SOL     OW 2644   0.672   3.478   2.016
  879SOL    HW1 2645   0.681   3.488   1.917
  879SOL    HW2 2646   0.632   3.389   2.037
  880SOL     OW 2647   1.650   3.582   3.256
  880SOL    HW1 2648   1.703   3.592   3.172
  880SOL    HW2 2649   1.623   3.672   3.290
  881SOL     OW 2650   1.841   2.037   2.825
  881SOL    HW1 2651   1.880   1.952   2.789
  881SOL    HW2 2652   1.743   2.039   2.806
  882SOL     OW 2653   0.263   2.188   2.582
  882SOL    HW1 2654   0.184   2.239   2.548
  882SOL    HW2 2655   0.254   2.173   2.680
  883SOL     OW 2656   1.194   3.474   1.893
  883SOL    HW1 2657   1.200   3.381   1.930
  883SOL    HW2 2658   1.135   3.474   1.813
  884SOL     OW 2659   0.822   2.864   3.234
  884SOL    HW1 2660   0.862   2.863   3.142
  884SOL    HW2 2661   0.832   2.956   3.274
  885SOL     OW 2662   0.916   2.772   2.153
  885SOL    HW1 2663   0.979   2.810   2.085
  885SOL    HW2 2664   0.956   2.689   2.192
  886SOL     OW 2665   1.504   3.469   1.906
  886SOL    HW1 2666   1.412   3.506   1.913
  886SOL    HW2 2667   1.542   3.489   1.816
  887SOL     OW 2668   0.372   3.150   3.352
  887SOL    HW1 2669   0.359   3.243   3.318
  887SOL    HW2 2670   0.288   3.098   3.339
  888SOL     OW 2671   1.614   3.154   3.151
  888SOL    HW1 2672   1.674   3.157   3.231
  888SOL    HW2 2673   1.539   3.218   3.164
  889SOL     OW 2674   1.039   2.960   2.558
  889SOL    HW1 2675   0.969   2.913   2.612
  889SOL    HW2 2676   1.098   2.892   2.515
  890SOL     OW 2677   1.014   2.098   2.833
  890SOL    HW1 2678   1.006   2.062   2.740
  890SOL    HW2 2679   1.012   2.022   2.898
  891SOL     OW 2680   0.590   3.349   2.353
  891SOL    HW1 2681   0.632   3.291   2.283
  891SOL    HW2 2682   0.546   3.428   2.309
  892SOL     OW 2683   1.709   2.247   3.243
  892SOL    HW1 2684   1.782   2.316   3.247
  892SOL    HW2 2685   1.737   2.172   3.184
  893SOL     OW 2686   0.255   3.210   2.152
  893SOL    HW1 2687   0.159   3.211   2.125
  893SOL    HW2 2688   0.267   3.263   2.236
  894SOL     OW 2689   0.105   2.875   3.588
  894SOL    HW1 2690   0.028   2.842   3.642
  894SOL    HW2 2691   0.190   2.845   3.630
  895SOL     OW 2692   0.672   2.065   3.351
  895SOL    HW1 2693   0.762   2.049   3.311
  895SOL    HW2 2694   0.680   2.070   3.450
  896SOL     OW 2695   0.075   2.207   1.895
  896SOL    HW1 2696  -0.017   2.179   1.866
  896SOL    HW2 2697   0.106   2.284   1.839
  897SOL     OW 2698   1.440   2.718   3.260
  897SOL    HW1 2699   1.383   2.770   3.197
  897SOL    HW2 2700   1.536   2.730   3.236
  898SOL     OW 2701   0.072   2.028   2.180
  898SOL    HW1 2702   0.055   2.111   2.126
  898SOL    HW2 2703   0.162   1.991   2.158
  899SOL     OW 2704   1.183   3.197   1.981
  899SOL    HW1 2705   1.084   3.186   1.983
  899SOL    HW2 2706   1.217   3.212   2.074
  900SOL     OW 2707   0.613   2.704   3.293
  900SOL    HW1 2708   0.669   2.785   3.276
  900SOL    HW2 2709   0.672   2.624   3.296
  901SOL     OW 2710   1.493   3.629   2.821
  901SOL    HW1 2711   1.526   3.693   2.752
  901SOL    HW2 2712   1.559   3.623   2.896
  902SOL     OW 2713   0.716   2.427   3.570
  902SOL    HW1 2714   0.735   2.492   3.644
  902SOL    HW2 2715   0.776   2.347   3.579
  903SOL     OW 2716   1.450   3.082   3.495
  903SOL    HW1 2717   1.441   3.072   3.594
  903SOL    HW2 2718   1.546   3.075   3.469
  904SOL     OW 2719   0.390   3.603   3.422
  904SOL    HW1 2720   0.299   3.644   3.420
  904SOL    HW2 2721   0.383   3.509   3.454
  905SOL     OW 2722   1.674   2.745   3.116
  905SOL    HW1 2723   1.647   2.656   3.079
  905SOL    HW2 2724   1.675   2.813   3.043
  906SOL     OW 2725   1.225   2.187   2.311
  906SOL    HW1 2726   1.290   2.113   2.300
  906SOL    HW2 2727   1.245   2.237   2.395
  907SOL     OW 2728   0.594   2.607   2.514
  907SOL    HW1 2729   0.644   2.692   2.495
  907SOL    HW2 2730   0.506   2.609   2.466
  908SOL     OW 2731   1.777   2.204   3.504
  908SOL    HW1 2732   1.760   2.235   3.410
  908SOL    HW2 2733   1.693   2.167   3.542
  909SOL     OW 2734   1.730   2.796   3.379
  909SOL    HW1 2735   1.768   2.887   3.394
  909SOL    HW2 2736   1.722   2.779   3.280
  910SOL     OW 2737   0.859   3.236   1.878
  910SOL    HW1 2738   0.813   3.251   1.966
  910SOL    HW2 2739   0.903   3.321   1.848
  911SOL     OW 2740   0.661   3.652   2.815
  911SOL    HW1 2741   0.615   3.740   2.802
  911SOL    HW2 2742   0.760   3.664   2.808
  912SOL     OW 2743   0.859   2.818   2.723
  912SOL    HW1 2744   0.913   2.749   2.771
  912SOL    HW2 2745   0.827   2.887   2.789
  913SOL     OW 2746   1.083   2.846   1.949
  913SOL    HW1 2747   1.060   2.899   1.867
  913SOL    HW2 2748   1.164   2.790   1.930
  914SOL     OW 2749   1.861   3.431   2.713
  914SOL    HW1 2750   1.790   3.419   2.643
  914SOL    HW2 2751   1.862   3.352   2.773
  915SOL     OW 2752   0.221   3.176   3.706
  915SOL    HW1 2753   0.156   3.103   3.685
  915SOL    HW2 2754   0.225   3.190   3.804
  916SOL     OW 2755   0.079   3.102   2.515
  916SOL    HW1 2756   0.078   3.055   2.603
  916SOL    HW2 2757   0.161   3.074   2.464
  917SOL     OW 2758   0.672   3.253   3.486
  917SOL    HW1 2759   0.594   3.203   3.524
  917SOL    HW2 2760   0.669   3.348   3.517
  918SOL     OW 2761   1.824   2.054   3.089
  918SOL    HW1 2762   1.820   1.964   3.133
  918SOL    HW2 2763   1.827   2.043   2.990
  919SOL     OW 2764   0.428   2.286   2.382
  919SOL    HW1 2765   0.458   2.214   2.320
  919SOL    HW2 2766   0.389   2.246   2.465
  920SOL     OW 2767   1.705   3.349   2.966
  920SOL    HW1 2768   1.612   3.324   2.939
  920SOL    HW2 2769   1.731   3.299   3.048
  921SOL     OW 2770   0.317   2.409   3.142
  921SOL    HW1 2771   0.355   2.350   3.214
  921SOL    HW2 2772   0.357   2.383   3.054
  922SOL     OW 2773   0.812   3.448   2.549
  922SOL    HW1 2774   0.844   3.458   2.455
  922SOL    HW2 2775   0.733   3.386   2.551
  923SOL     OW 2776   1.424   2.076   2.974
  923SOL    HW1 2777   1.476   2.011   3.029
  923SOL    HW2 2778   1.375   2.139   3.035
  924SOL     OW 2779   1.001   1.896   3.016
  924SOL    HW1 2780   0.938   1.824   2.985
  924SOL    HW2 2781   1.094   1.860   3.016
  925SOL     OW 2782   0.770   3.192   2.163
  925SOL    HW1 2783   0.724   3.105   2.180
  925SOL    HW2 2784   0.861   3.189   2.204
  926SOL     OW 2785   0.618   3.429   3.146
  926SOL    HW1 2786   0.613   3.511   3.203
  926SOL    HW2 2787   0.707   3.426   3.101
  927SOL     OW 2788   1.352   1.914   2.030
  927SOL    HW1 2789   1.387   1.873   1.946
  927SOL    HW2 2790   1.262   1.876   2.050
  928SOL     OW 2791   1.300   2.315   2.553
  928SOL    HW1 2792   1.241   2.395   2.557
  928SOL    HW2 2793   1.315   2.280   2.646
  929SOL     OW 2794   1.593   2.083   2.744
  929SOL    HW1 2795   1.509   2.082   2.798
  929SOL    HW2 2796   1.595   2.166   2.688
  930SOL     OW 2797   0.039   2.939   2.162
  930SOL    HW1 2798   0.138   2.928   2.153
  930SOL    HW2 2799  -0.001   2.853   2.194
  931SOL     OW 2800   0.875   3.508   2.199
  931SOL    HW1 2801   0.798   3.473   2.145
  931SOL    HW2 2802   0.843   3.579   2.261
  932SOL     OW 2803   0.230   2.490   3.837
  932SOL    HW1 2804   0.137   2.488   3.874
  932SOL    HW2 2805   0.231   2.451   3.745
  933SOL     OW 2806   1.755   2.469   3.955
  933SOL    HW1 2807   1.743   2.456   3.856
  933SOL    HW2 2808   1.725   2.388   4.004
  934SOL     OW 2809   1.603   2.309   4.461
  934SOL    HW1 2810   1.529   2.355   4.411
  934SOL    HW2 2811   1.654   2.377   4.514
  935SOL     OW 2812   0.231   3.575   4.207
  935SOL    HW1 2813   0.265   3.652   4.261
  935SOL    HW2 2814   0.275   3.575   4.117
  936SOL     OW 2815   0.230   3.296   4.262
  936SOL    HW1 2816   0.204   3.392   4.262
  936SOL    HW2 2817   0.159   3.242   4.307
  937SOL     OW 2818   0.606   2.826   3.847
  937SOL    HW1 2819   0.613   2.910   3.793
  937SOL    HW2 2820   0.652   2.839   3.935
  938SOL     OW 2821   0.122   2.505   4.287
  938SOL    HW1 2822   0.077   2.417   4.304
  938SOL    HW2 2823   0.121   2.559   4.371
  939SOL     OW 2824   1.842   3.629   4.083
  939SOL    HW1 2825   1.896   3.600   4.163
  939SOL    HW2 2826   1.872   3.719   4.054
  940SOL     OW 2827   0.027   3.458   3.841
  940SOL    HW1 2828   0.008   3.362   3.862
  940SOL    HW2 2829  -0.006   3.516   3.916
  941SOL     OW 2830   1.689   2.784   4.336
  941SOL    HW1 2831   1.784   2.755   4.344
  941SOL    HW2 2832   1.681   2.849   4.261
  942SOL     OW 2833   1.641   2.970   4.156
  942SOL    HW1 2834   1.727   2.972   4.104
  942SOL    HW2 2835   1.655   3.017   4.244
  943SOL     OW 2836   0.613   3.227   4.450
  943SOL    HW1 2837   0.564   3.140   4.459
  943SOL    HW2 2838   0.590   3.270   4.363
  944SOL     OW 2839   0.809   1.866   4.226
  944SOL    HW1 2840   0.849   1.957   4.217
  944SOL    HW2 2841   0.709   1.874   4.232
  945SOL     OW 2842   1.525   2.861   3.914
  945SOL    HW1 2843   1.462   2.785   3.927
  945SOL    HW2 2844   1.573   2.879   4.000
  946SOL     OW 2845   1.466   3.279   4.677
  946SOL    HW1 2846   1.407   3.285   4.757
  946SOL    HW2 2847   1.451   3.191   4.631
  947SOL     OW 2848   0.598   2.591   3.994
  947SOL    HW1 2849   0.622   2.660   3.926
  947SOL    HW2 2850   0.520   2.624   4.048
  948SOL     OW 2851   1.281   2.207   4.668
  948SOL    HW1 2852   1.195   2.157   4.655
  948SOL    HW2 2853   1.343   2.153   4.724
  949SOL     OW 2854   1.576   3.524   4.031
  949SOL    HW1 2855   1.665   3.570   4.034
  949SOL    HW2 2856   1.555   3.500   3.936
  950SOL     OW 2857   1.041   2.563   4.153
  950SOL    HW1 2858   1.067   2.559   4.249
  950SOL    HW2 2859   0.956   2.512   4.139
  951SOL     OW 2860   0.076   2.673   4.513
  951SOL    HW1 2861   0.175   2.661   4.522
  951SOL    HW2 2862   0.052   2.768   4.534
  952SOL     OW 2863   0.865   2.210   3.919
  952SOL    HW1 2864   0.924   2.273   3.870
  952SOL    HW2 2865   0.884   2.116   3.890
  953SOL     OW 2866   1.362   3.006   4.269
  953SOL    HW1 2867   1.445   2.977   4.221
  953SOL    HW2 2868   1.313   3.073   4.213
  954SOL     OW 2869   1.008   3.318   4.201
  954SOL    HW1 2870   0.962   3.390   4.149
  954SOL    HW2 2871   1.004   3.338   4.299
  955SOL     OW 2872   0.351   3.663   4.577
  955SOL    HW1 2873   0.401   3.577   4.583
  955SOL    HW2 2874   0.416   3.740   4.574
  956SOL     OW 2875   1.795   2.928   4.597
  956SOL    HW1 2876   1.733   2.913   4.521
  956SOL    HW2 2877   1.743   2.939   4.682
  957SOL     OW 2878   0.321   2.805   3.966
  957SOL    HW1 2879   0.403   2.844   3.924
  957SOL    HW2 2880   0.294   2.723   3.917
  958SOL     OW 2881   1.111   3.638   3.961
  958SOL    HW1 2882   1.051   3.576   4.011
  958SOL    HW2 2883   1.142   3.594   3.876
  959SOL     OW 2884   1.632   3.239   3.805
  959SOL    HW1 2885   1.600   3.333   3.795
  959SOL    HW2 2886   1.556   3.176   3.793
  960SOL     OW 2887   0.464   3.605   4.047
  960SOL    HW1 2888   0.497   3.644   4.133
  960SOL    HW2 2889   0.540   3.598   3.982
  961SOL     OW 2890   1.400   1.969   4.150
  961SOL    HW1 2891   1.376   1.932   4.060
  961SOL    HW2 2892   1.499   1.985   4.154
  962SOL     OW 2893   0.382   2.562   4.204
  962SOL    HW1 2894   0.427   2.472   4.201
  962SOL    HW2 2895   0.288   2.551   4.237
  963SOL     OW 2896   0.614   1.984   3.841
  963SOL    HW1 2897   0.712   1.962   3.848
  963SOL    HW2 2898   0.583   1.967   3.748
  964SOL     OW 2899   0.539   1.926   4.236
  964SOL    HW1 2900   0.458   1.927   4.294
  964SOL    HW2 2901   0.542   2.009   4.181
  965SOL     OW 2902   1.434   3.050   3.765
  965SOL    HW1 2903   1.466   2.974   3.822
  965SOL    HW2 2904   1.342   3.077   3.795
  966SOL     OW 2905   0.297   1.897   3.895
  966SOL    HW1 2906   0.346   1.981   3.874
  966SOL    HW2 2907   0.359   1.832   3.940
  967SOL     OW 2908   0.935   2.098   4.204
  967SOL    HW1 2909   0.887   2.139   4.126
  967SOL    HW2 2910   1.034   2.096   4.185
  968SOL     OW 2911   0.459   3.014   4.465
  968SOL    HW1 2912   0.388   2.987   4.530
  968SOL    HW2 2913   0.433   2.986   4.372
  969SOL     OW 2914   1.271   3.659   4.315
  969SOL    HW1 2915   1.315   3.723   4.251
  969SOL    HW2 2916   1.221   3.711   4.385
  970SOL     OW 2917   1.032   2.411   3.740
  970SOL    HW1 2918   0.991   2.493   3.701
  970SOL    HW2 2919   1.096   2.437   3.813
  971SOL     OW 2920   0.866   2.316   4.366
  971SOL    HW1 2921   0.834   2.388   4.304
  971SOL    HW2 2922   0.890   2.235   4.313
  972SOL     OW 2923   1.857   2.695   4.101
  972SOL    HW1 2924   1.899   2.631   4.165
  972SOL    HW2 2925   1.819   2.644   4.023
  973SOL     OW 2926   0.488   3.247   3.898
  973SOL    HW1 2927   0.401   3.232   3.945
  973SOL    HW2 2928   0.471   3.273   3.803
  974SOL     OW 2929   1.390   2.437   3.802
  974SOL    HW1 2930   1.336   2.416   3.883
  974SOL    HW2 2931   1.481   2.396   3.811
  975SOL     OW 2932   0.527   2.118   4.052
  975SOL    HW1 2933   0.554   2.059   3.977
  975SOL    HW2 2934   0.527   2.213   4.021
  976SOL     OW 2935   0.705   2.912   4.092
  976SOL    HW1 2936   0.691   2.919   4.191
  976SOL    HW2 2937   0.789   2.861   4.074
  977SOL     OW 2938   0.367   2.962   4.225
  977SOL    HW1 2939   0.360   3.045   4.169
  977SOL    HW2 2940   0.371   2.882   4.165
  978SOL     OW 2941   1.252   3.210   4.112
  978SOL    HW1 2942   1.302   3.287   4.152
  978SOL    HW2 2943   1.157   3.212   4.144
  979SOL     OW 2944   1.582   2.501   4.196
  979SOL    HW1 2945   1.551   2.562   4.269
  979SOL    HW2 2946   1.632   2.553   4.127
  980SOL     OW 2947   1.209   2.387   3.999
  980SOL    HW1 2948   1.222   2.303   4.053
  980SOL    HW2 2949   1.180   2.461   4.059
  981SOL     OW 2950   0.307   1.925   4.342
  981SOL    HW1 2951   0.296   2.019   4.375
  981SOL    HW2 2952   0.302   1.862   4.419
  982SOL     OW 2953   1.622   2.229   4.098
  982SOL    HW1 2954   1.624   2.153   4.162
  982SOL    HW2 2955   1.574   2.306   4.138
  983SOL     OW 2956   1.540   2.136   3.849
  983SOL    HW1 2957   1.479   2.061   3.872
  983SOL    HW2 2958   1.562   2.188   3.932
  984SOL     OW 2959   1.303   2.700   3.766
  984SOL    HW1 2960   1.337   2.607   3.781
  984SOL    HW2 2961   1.321   2.727   3.671
  985SOL     OW 2962   0.008   3.188   3.924
  985SOL    HW1 2963  -0.085   3.209   3.893
  985SOL    HW2 2964   0.018   3.089   3.937
  986SOL     OW 2965   0.815   2.434   4.049
  986SOL    HW1 2966   0.822   2.345   4.003
  986SOL    HW2 2967   0.721   2.468   4.041
  987SOL     OW 2968   0.473   2.362   3.915
  987SOL    HW1 2969   0.534   2.442   3.919
  987SOL    HW2 2970   0.378   2.393   3.922
  988SOL     OW 2971   1.302   2.717   4.033
  988SOL    HW1 2972   1.216   2.686   4.075
  988SOL    HW2 2973   1.298   2.703   3.934
  989SOL     OW 2974   1.726   1.997   4.247
  989SOL    HW1 2975   1.799   1.980   4.180
  989SOL    HW2 2976   1.695   1.910   4.285
  990SOL     OW 2977   1.388   3.435   4.201
  990SOL    HW1 2978   1.455   3.447   4.127
  990SOL    HW2 2979   1.348   3.524   4.224
  991SOL     OW 2980   0.672   3.478   3.878
  991SOL    HW1 2981   0.681   3.488   3.779
  991SOL    HW2 2982   0.632   3.389   3.899
  992SOL     OW 2983   1.841   2.037   4.687
  992SOL    HW1 2984   1.880   1.952   4.651
  992SOL    HW2 2985   1.743   2.039   4.668
  993SOL     OW 2986   1.194   3.474   3.755
  993SOL    HW1 2987   1.200   3.381   3.792
  993SOL    HW2 2988   1.135   3.474   3.675
  994SOL     OW 2989   0.916   2.772   4.015
  994SOL    HW1 2990   0.979   2.810   3.947
  994SOL    HW2 2991   0.956   2.689   4.054
  995SOL     OW 2992   1.504   3.469   3.768
  995SOL    HW1 2993   1.412   3.506   3.775
  995SOL    HW2 2994   1.542   3.489   3.678
  996SOL     OW 2995   0.590   3.349   4.215
  996SOL    HW1 2996   0.632   3.291   4.145
  996SOL    HW2 2997   0.546   3.428   4.171
  997SOL     OW 2998   0.255   3.210   4.014
  997SOL    HW1 2999   0.159   3.211   3.987
  997SOL    HW2 3000   0.267   3.263   4.098
  998SOL     OW 3001   0.075   2.207   3.757
  998SOL    HW1 3002  -0.017   2.179   3.728
  998SOL    HW2 3003   0.106   2.284   3.701
  999SOL     OW 3004   0.072   2.028   4.042
  999SOL    HW1 3005   0.055   2.111   3.988
  999SOL    HW2 3006   0.162   1.991   4.020
 1000SOL     OW 3007   1.183   3.197   3.843
 1000SOL    HW1 3008   1.084   3.186   3.845
 1000SOL    HW2 3009   1.217   3.212   3.936
 1001SOL     OW 3010   1.225   2.187   4.173
 1001SOL    HW1 3011   1.290   2.113   4.162
 1001SOL    HW2 3012   1.245   2.237   4.257
 1002SOL     OW 3013   0.594   2.607   4.376
 1002SOL    HW1 3014   0.644   2.692   4.357
 1002SOL    HW2 3015   0.506   2.609   4.328
 1003SOL     OW 3016   0.859   3.236   3.740
 1003SOL    HW1 3017   0.813   3.251   3.828
 1003SOL    HW2 3018   0.903   3.321   3.710
 1004SOL     OW 3019   1.083   2.846   3.811
 1004SOL    HW1 3020   1.060   2.899   3.729
 1004SOL    HW2 3021   1.164   2.790   3.792
 1005SOL     OW 3022   0.079   3.102   4.377
 1005SOL    HW1 3023   0.078   3.055   4.465
 1005SOL    HW2 3024   0.161   3.074   4.326
 1006SOL     OW 3025   0.428   2.286   4.244
 1006SOL    HW1 3026   0.458   2.214   4.182
 1006SOL    HW2 3027   0.389   2.246   4.327
 1007SOL     OW 3028   0.812   3.448   4.411
 1007SOL    HW1 3029   0.844   3.458   4.317
 1007SOL    HW2 3030   0.733   3.386   4.413
 1008SOL     OW 3031   0.770   3.192   4.025
 1008SOL    HW1 3032   0.724   3.105   4.042
 1008SOL    HW2 3033   0.861   3.189   4.066
 1009SOL     OW 3034   1.352   1.914   3.892
 1009SOL    HW1 3035   1.387   1.873   3.808
 1009SOL    HW2 3036   1.262   1.876   3.912
 1010SOL     OW 3037   1.300   2.315   4.415
 1010SOL    HW1 3038   1.241   2.395   4.419
 1010SOL    HW2 3039   1.315   2.280   4.508
 1011SOL     OW 3040   0.039   2.939   4.024
 1011SOL    HW1 3041   0.138   2.928   4.015
 1011SOL    HW2 3042  -0.001   2.853   4.056
 1012SOL     OW 3043   0.875   3.508   4.061
 1012SOL    HW1 3044   0.798   3.473   4.007
 1012SOL    HW2 3045   0.843   3.579   4.123
 1013SOL     OW 3046   0.225   3.999   0.996
 1013SOL    HW1 3047   0.260   3.982   1.088
 1013SOL    HW2 3048   0.137   3.954   0.984
 1014SOL     OW 3049   0.019   4.092   0.647
 1014SOL    HW1 3050  -0.063   4.135   0.686
 1014SOL    HW2 3051  -0.009   4.019   0.584
 1015SOL     OW 3052   1.755   4.331   0.231
 1015SOL    HW1 3053   1.743   4.318   0.132
 1015SOL    HW2 3054   1.725   4.250   0.280
 1016SOL     OW 3055   0.438   4.116   1.499
 1016SOL    HW1 3056   0.520   4.060   1.508
 1016SOL    HW2 3057   0.357   4.058   1.503
 1017SOL     OW 3058   1.603   4.171   0.737
 1017SOL    HW1 3059   1.529   4.217   0.687
 1017SOL    HW2 3060   1.654   4.239   0.790
 1018SOL     OW 3061   1.594   3.838   1.480
 1018SOL    HW1 3062   1.576   3.905   1.408
 1018SOL    HW2 3063   1.591   3.884   1.569
 1019SOL     OW 3064   0.122   4.367   0.563
 1019SOL    HW1 3065   0.077   4.279   0.580
 1019SOL    HW2 3066   0.121   4.421   0.647
 1020SOL     OW 3067   0.113   4.461   1.597
 1020SOL    HW1 3068   0.201   4.448   1.642
 1020SOL    HW2 3069   0.100   4.558   1.575
 1021SOL     OW 3070   0.809   3.728   0.502
 1021SOL    HW1 3071   0.849   3.819   0.493
 1021SOL    HW2 3072   0.709   3.736   0.508
 1022SOL     OW 3073   0.317   3.975   1.801
 1022SOL    HW1 3074   0.388   4.046   1.807
 1022SOL    HW2 3075   0.229   4.014   1.829
 1023SOL     OW 3076   1.281   4.069   0.944
 1023SOL    HW1 3077   1.195   4.019   0.931
 1023SOL    HW2 3078   1.343   4.015   1.000
 1024SOL     OW 3079   0.807   4.329   1.465
 1024SOL    HW1 3080   0.760   4.326   1.554
 1024SOL    HW2 3081   0.756   4.274   1.399
 1025SOL     OW 3082   1.394   4.193   1.674
 1025SOL    HW1 3083   1.374   4.236   1.762
 1025SOL    HW2 3084   1.472   4.131   1.683
 1026SOL     OW 3085   0.991   4.134   1.242
 1026SOL    HW1 3086   0.914   4.168   1.296
 1026SOL    HW2 3087   0.957   4.083   1.163
 1027SOL     OW 3088   1.041   4.425   0.429
 1027SOL    HW1 3089   1.067   4.421   0.525
 1027SOL    HW2 3090   0.956   4.374   0.415
 1028SOL     OW 3091   0.076   4.535   0.789
 1028SOL    HW1 3092   0.175   4.523   0.798
 1028SOL    HW2 3093   0.052   4.630   0.810
 1029SOL     OW 3094   0.865   4.072   0.195
 1029SOL    HW1 3095   0.924   4.135   0.146
 1029SOL    HW2 3096   0.884   3.978   0.166
 1030SOL     OW 3097   1.719   4.309   1.831
 1030SOL    HW1 3098   1.693   4.398   1.795
 1030SOL    HW2 3099   1.717   4.241   1.758
 1031SOL     OW 3100   0.550   3.920   0.885
 1031SOL    HW1 3101   0.545   3.915   0.985
 1031SOL    HW2 3102   0.552   4.016   0.856
 1032SOL     OW 3103   1.458   4.459   0.728
 1032SOL    HW1 3104   1.453   4.394   0.803
 1032SOL    HW2 3105   1.538   4.518   0.741
 1033SOL     OW 3106   0.202   4.009   1.498
 1033SOL    HW1 3107   0.122   4.069   1.485
 1033SOL    HW2 3108   0.192   3.960   1.584
 1034SOL     OW 3109   1.400   3.831   0.426
 1034SOL    HW1 3110   1.376   3.794   0.336
 1034SOL    HW2 3111   1.499   3.847   0.430
 1035SOL     OW 3112   1.547   3.946   1.729
 1035SOL    HW1 3113   1.542   3.983   1.821
 1035SOL    HW2 3114   1.475   3.877   1.717
 1036SOL     OW 3115   0.614   3.846   0.117
 1036SOL    HW1 3116   0.712   3.824   0.124
 1036SOL    HW2 3117   0.583   3.829   0.024
 1037SOL     OW 3118   0.781   3.988   1.749
 1037SOL    HW1 3119   0.848   3.927   1.792
 1037SOL    HW2 3120   0.708   4.007   1.814
 1038SOL     OW 3121   1.351   4.314   1.433
 1038SOL    HW1 3122   1.379   4.271   1.518
 1038SOL    HW2 3123   1.376   4.410   1.434
 1039SOL     OW 3124   0.922   4.227   0.899
 1039SOL    HW1 3125   0.897   4.218   0.803
 1039SOL    HW2 3126   0.970   4.145   0.930
 1040SOL     OW 3127   0.539   3.788   0.512
 1040SOL    HW1 3128   0.458   3.789   0.570
 1040SOL    HW2 3129   0.542   3.871   0.457
 1041SOL     OW 3130   0.935   3.960   0.480
 1041SOL    HW1 3131   0.887   4.001   0.402
 1041SOL    HW2 3132   1.034   3.958   0.461
 1042SOL     OW 3133   1.076   4.407   1.464
 1042SOL    HW1 3134   0.996   4.346   1.467
 1042SOL    HW2 3135   1.157   4.354   1.440
 1043SOL     OW 3136   1.032   4.273   0.016
 1043SOL    HW1 3137   0.991   4.355  -0.023
 1043SOL    HW2 3138   1.096   4.299   0.089
 1044SOL     OW 3139   0.078   4.280   1.386
 1044SOL    HW1 3140   0.170   4.279   1.345
 1044SOL    HW2 3141   0.072   4.354   1.453
 1045SOL     OW 3142   0.561   3.946   1.147
 1045SOL    HW1 3143   0.599   3.862   1.184
 1045SOL    HW2 3144   0.473   3.965   1.191
 1046SOL     OW 3145   0.866   4.178   0.642
 1046SOL    HW1 3146   0.834   4.250   0.580
 1046SOL    HW2 3147   0.890   4.097   0.589
 1047SOL     OW 3148   1.017   3.763   0.753
 1047SOL    HW1 3149   0.945   3.768   0.684
 1047SOL    HW2 3150   0.993   3.694   0.822
 1048SOL     OW 3151   1.466   4.314   0.992
 1048SOL    HW1 3152   1.436   4.219   0.999
 1048SOL    HW2 3153   1.539   4.330   1.058
 1049SOL     OW 3154   1.390   4.299   0.078
 1049SOL    HW1 3155   1.336   4.278   0.159
 1049SOL    HW2 3156   1.481   4.258   0.087
 1050SOL     OW 3157   0.527   3.980   0.328
 1050SOL    HW1 3158   0.554   3.921   0.253
 1050SOL    HW2 3159   0.527   4.075   0.297
 1051SOL     OW 3160   0.915   3.813   1.402
 1051SOL    HW1 3161   0.940   3.793   1.307
 1051SOL    HW2 3162   0.987   3.869   1.444
 1052SOL     OW 3163   1.274   4.110   1.262
 1052SOL    HW1 3164   1.295   4.184   1.326
 1052SOL    HW2 3165   1.185   4.127   1.219
 1053SOL     OW 3166   0.566   4.261   0.865
 1053SOL    HW1 3167   0.578   4.327   0.791
 1053SOL    HW2 3168   0.612   4.295   0.948
 1054SOL     OW 3169   1.582   4.363   0.472
 1054SOL    HW1 3170   1.551   4.424   0.545
 1054SOL    HW2 3171   1.632   4.415   0.403
 1055SOL     OW 3172   1.013   3.829   1.770
 1055SOL    HW1 3173   1.019   3.914   1.718
 1055SOL    HW2 3174   1.045   3.753   1.713
 1056SOL     OW 3175   0.504   3.774   1.740
 1056SOL    HW1 3176   0.462   3.717   1.670
 1056SOL    HW2 3177   0.438   3.843   1.772
 1057SOL     OW 3178   1.209   4.249   0.275
 1057SOL    HW1 3179   1.222   4.165   0.329
 1057SOL    HW2 3180   1.180   4.323   0.335
 1058SOL     OW 3181   0.307   3.937   1.231
 1058SOL    HW1 3182   0.284   3.974   1.321
 1058SOL    HW2 3183   0.277   3.842   1.225
 1059SOL     OW 3184   0.732   4.358   1.064
 1059SOL    HW1 3185   0.791   4.332   0.988
 1059SOL    HW2 3186   0.704   4.454   1.053
 1060SOL     OW 3187   0.307   3.787   0.618
 1060SOL    HW1 3188   0.296   3.881   0.651
 1060SOL    HW2 3189   0.302   3.724   0.695
 1061SOL     OW 3190   1.622   4.091   0.374
 1061SOL    HW1 3191   1.624   4.015   0.438
 1061SOL    HW2 3192   1.574   4.168   0.414
 1062SOL     OW 3193   1.540   3.998   0.125
 1062SOL    HW1 3194   1.479   3.923   0.148
 1062SOL    HW2 3195   1.562   4.050   0.208
 1063SOL     OW 3196   0.319   4.534   0.949
 1063SOL    HW1 3197   0.412   4.570   0.954
 1063SOL    HW2 3198   0.313   4.449   1.001
 1064SOL     OW 3199   0.339   4.233   1.006
 1064SOL    HW1 3200   0.287   4.150   0.989
 1064SOL    HW2 3201   0.416   4.238   0.942
 1065SOL     OW 3202   1.138   4.104   1.678
 1065SOL    HW1 3203   1.093   4.167   1.742
 1065SOL    HW2 3204   1.231   4.135   1.661
 1066SOL     OW 3205   1.160   3.931   1.477
 1066SOL    HW1 3206   1.160   3.995   1.554
 1066SOL    HW2 3207   1.188   3.979   1.394
 1067SOL     OW 3208   0.040   4.268   1.114
 1067SOL    HW1 3209   0.125   4.235   1.073
 1067SOL    HW2 3210   0.053   4.283   1.212
 1068SOL     OW 3211   0.189   4.244   1.722
 1068SOL    HW1 3212   0.248   4.204   1.652
 1068SOL    HW2 3213   0.131   4.315   1.681
 1069SOL     OW 3214   0.815   4.296   0.325
 1069SOL    HW1 3215   0.822   4.207   0.279
 1069SOL    HW2 3216   0.721   4.330   0.317
 1070SOL     OW 3217   1.657   4.328   1.206
 1070SOL    HW1 3218   1.619   4.259   1.268
 1070SOL    HW2 3219   1.739   4.292   1.162
 1071SOL     OW 3220   0.671   4.188   1.269
 1071SOL    HW1 3221   0.637   4.099   1.239
 1071SOL    HW2 3222   0.697   4.242   1.189
 1072SOL     OW 3223   0.473   4.224   0.191
 1072SOL    HW1 3224   0.534   4.304   0.195
 1072SOL    HW2 3225   0.378   4.255   0.198
 1073SOL     OW 3226   0.903   3.810   0.133
 1073SOL    HW1 3227   0.954   3.811   0.047
 1073SOL    HW2 3228   0.959   3.768   0.204
 1074SOL     OW 3229   1.726   3.859   0.523
 1074SOL    HW1 3230   1.799   3.842   0.456
 1074SOL    HW2 3231   1.695   3.772   0.561
 1075SOL     OW 3232   1.280   4.651   0.672
 1075SOL    HW1 3233   1.340   4.570   0.674
 1075SOL    HW2 3234   1.320   4.720   0.612
 1076SOL     OW 3235   1.841   3.899   0.963
 1076SOL    HW1 3236   1.880   3.814   0.927
 1076SOL    HW2 3237   1.743   3.901   0.944
 1077SOL     OW 3238   0.263   4.050   0.720
 1077SOL    HW1 3239   0.184   4.101   0.686
 1077SOL    HW2 3240   0.254   4.035   0.818
 1078SOL     OW 3241   1.014   3.960   0.971
 1078SOL    HW1 3242   1.006   3.924   0.878
 1078SOL    HW2 3243   1.012   3.884   1.036
 1079SOL     OW 3244   1.709   4.109   1.381
 1079SOL    HW1 3245   1.782   4.178   1.385
 1079SOL    HW2 3246   1.737   4.034   1.322
 1080SOL     OW 3247   0.672   3.927   1.489
 1080SOL    HW1 3248   0.762   3.911   1.449
 1080SOL    HW2 3249   0.680   3.932   1.588
 1081SOL     OW 3250   0.075   4.069   0.033
 1081SOL    HW1 3251  -0.017   4.041   0.004
 1081SOL    HW2 3252   0.106   4.146  -0.023
 1082SOL     OW 3253   0.072   3.890   0.318
 1082SOL    HW1 3254   0.055   3.973   0.264
 1082SOL    HW2 3255   0.162   3.853   0.296
 1083SOL     OW 3256   0.716   4.289   1.708
 1083SOL    HW1 3257   0.735   4.354   1.782
 1083SOL    HW2 3258   0.776   4.209   1.717
 1084SOL     OW 3259   1.225   4.049   0.449
 1084SOL    HW1 3260   1.290   3.975   0.438
 1084SOL    HW2 3261   1.245   4.099   0.533
 1085SOL     OW 3262   1.777   4.066   1.642
 1085SOL    HW1 3263   1.760   4.097   1.548
 1085SOL    HW2 3264   1.693   4.029   1.680
 1086SOL     OW 3265   1.083   4.708   0.087
 1086SOL    HW1 3266   1.060   4.761   0.005
 1086SOL    HW2 3267   1.164   4.652   0.068
 1087SOL     OW 3268   1.824   3.916   1.227
 1087SOL    HW1 3269   1.820   3.826   1.271
 1087SOL    HW2 3270   1.827   3.905   1.128
 1088SOL     OW 3271   0.428   4.148   0.520
 1088SOL    HW1 3272   0.458   4.076   0.458
 1088SOL    HW2 3273   0.389   4.108   0.603
 1089SOL     OW 3274   0.317   4.271   1.280
 1089SOL    HW1 3275   0.355   4.212   1.352
 1089SOL    HW2 3276   0.357   4.245   1.192
 1090SOL     OW 3277   1.424   3.938   1.112
 1090SOL    HW1 3278   1.476   3.873   1.167
 1090SOL    HW2 3279   1.375   4.001   1.173
 1091SOL     OW 3280   1.001   3.758   1.154
 1091SOL    HW1 3281   0.938   3.686   1.123
 1091SOL    HW2 3282   1.094   3.722   1.154
 1092SOL     OW 3283   1.352   3.776   0.168
 1092SOL    HW1 3284   1.387   3.735   0.084
 1092SOL    HW2 3285   1.262   3.738   0.188
 1093SOL     OW 3286   1.300   4.177   0.691
 1093SOL    HW1 3287   1.241   4.257   0.695
 1093SOL    HW2 3288   1.315   4.142   0.784
 1094SOL     OW 3289   1.593   3.945   0.882
 1094SOL    HW1 3290   1.509   3.944   0.936
 1094SOL    HW2 3291   1.595   4.028   0.826
 1095SOL     OW 3292   0.225   3.999   2.858
 1095SOL    HW1 3293   0.260   3.982   2.950
 1095SOL    HW2 3294   0.137   3.954   2.846
 1096SOL     OW 3295   0.019   4.092   2.509
 1096SOL    HW1 3296  -0.063   4.135   2.548
 1096SOL    HW2 3297  -0.009   4.019   2.446
 1097SOL     OW 3298   1.755   4.331   2.093
 1097SOL    HW1 3299   1.743   4.318   1.994
 1097SOL    HW2 3300   1.725   4.250   2.142
 1098SOL     OW 3301   0.438   4.116   3.361
 1098SOL    HW1 3302   0.520   4.060   3.370
 1098SOL    HW2 3303   0.357   4.058   3.365
 1099SOL     OW 3304   1.603   4.171   2.599
 1099SOL    HW1 3305   1.529   4.217   2.549
 1099SOL    HW2 3306   1.654   4.239   2.652
 1100SOL     OW 3307   1.594   3.838   3.342
 1100SOL    HW1 3308   1.576   3.905   3.270
 1100SOL    HW2 3309   1.591   3.884   3.431
 1101SOL     OW 3310   0.122   4.367   2.425
 1101SOL    HW1 3311   0.077   4.279   2.442
 1101SOL    HW2 3312   0.121   4.421   2.509
 1102SOL     OW 3313   0.113   4.461   3.459
 1102SOL    HW1 3314   0.201   4.448   3.504
 1102SOL    HW2 3315   0.100   4.558   3.437
 1103SOL     OW 3316   0.809   3.728   2.364
 1103SOL    HW1 3317   0.849   3.819   2.355
 1103SOL    HW2 3318   0.709   3.736   2.370
 1104SOL     OW 3319   0.317   3.975   3.663
 1104SOL    HW1 3320   0.388   4.046   3.669
 1104SOL    HW2 3321   0.229   4.014   3.691
 1105SOL     OW 3322   1.281   4.069   2.806
 1105SOL    HW1 3323   1.195   4.019   2.793
 1105SOL    HW2 3324   1.343   4.015   2.862
 1106SOL     OW 3325   0.807   4.329   3.327
 1106SOL    HW1 3326   0.760   4.326   3.416
 1106SOL    HW2 3327   0.756   4.274   3.261
 1107SOL     OW 3328   1.394   4.193   3.536
 1107SOL    HW1 3329   1.374   4.236   3.624
 1107SOL    HW2 3330   1.472   4.131   3.545
 1108SOL     OW 3331   0.991   4.134   3.104
 1108SOL    HW1 3332   0.914   4.168   3.158
 1108SOL    HW2 3333   0.957   4.083   3.025
 1109SOL     OW 3334   1.041   4.425   2.291
 1109SOL    HW1 3335   1.067   4.421   2.387
 1109SOL    HW2 3336   0.956   4.374   2.277
 1110SOL     OW 3337   0.076   4.535   2.651
 1110SOL    HW1 3338   0.175   4.523   2.660
 1110SOL    HW2 3339   0.052   4.630   2.672
 1111SOL     OW 3340   0.865   4.072   2.057
 1111SOL    HW1 3341   0.924   4.135   2.008
 1111SOL    HW2 3342   0.884   3.978   2.028
 1112SOL     OW 3343   1.719   4.309   3.693
 1112SOL    HW1 3344   1.693   4.398   3.657
 1112SOL    HW2 3345   1.717   4.241   3.620
 1113SOL     OW 3346   0.550   3.920   2.747
 1113SOL    HW1 3347   0.545   3.915   2.847
 1113SOL    HW2 3348   0.552   4.016   2.718
 1114SOL     OW 3349   1.458   4.459   2.590
 1114SOL    HW1 3350   1.453   4.394   2.665
 1114SOL    HW2 3351   1.538   4.518   2.603
 1115SOL     OW 3352   0.202   4.009   3.360
 1115SOL    HW1 3353   0.122   4.069   3.347
 1115SOL    HW2 3354   0.192   3.960   3.446
 1116SOL     OW 3355   1.400   3.831   2.288
 1116SOL    HW1 3356   1.376   3.794   2.198
 1116SOL    HW2 3357   1.499   3.847   2.292
 1117SOL     OW 3358   1.547   3.946   3.591
 1117SOL    HW1 3359   1.542   3.983   3.683
 1117SOL    HW2 3360   1.475   3.877   3.579
 1118SOL     OW 3361   0.614   3.846   1.979
 1118SOL    HW1 3362   0.712   3.824   1.986
 1118SOL    HW2 3363   0.583   3.829   1.886
 1119SOL     OW 3364   0.781   3.988   3.611
 1119SOL    HW1 3365   0.848   3.927   3.654
 1119SOL    HW2 3366   0.708   4.007   3.676
 1120SOL     OW 3367   1.351   4.314   3.295
 1120SOL    HW1 3368   1.379   4.271   3.380
 1120SOL    HW2 3369   1.376   4.410   3.296
 1121SOL     OW 3370   0.922   4.227   2.761
 1121SOL    HW1 3371   0.897   4.218   2.665
 1121SOL    HW2 3372   0.970   4.145   2.792
 1122SOL     OW 3373   0.539   3.788   2.374
 1122SOL    HW1 3374   0.458   3.789   2.432
 1122SOL    HW2 3375   0.542   3.871   2.319
 1123SOL     OW 3376   0.297   3.759   2.033
 1123SOL    HW1 3377   0.346   3.843   2.012
 1123SOL    HW2 3378   0.359   3.694   2.078
 1124SOL     OW 3379   0.935   3.960   2.342
 1124SOL    HW1 3380   0.887   4.001   2.264
 1124SOL    HW2 3381   1.034   3.958   2.323
 1125SOL     OW 3382   1.076   4.407   3.326
 1125SOL    HW1 3383   0.996   4.346   3.329
 1125SOL    HW2 3384   1.157   4.354   3.302
 1126SOL     OW 3385   1.032   4.273   1.878
 1126SOL    HW1 3386   0.991   4.355   1.839
 1126SOL    HW2 3387   1.096   4.299   1.951
 1127SOL     OW 3388   0.078   4.280   3.248
 1127SOL    HW1 3389   0.170   4.279   3.207
 1127SOL    HW2 3390   0.072   4.354   3.315
 1128SOL     OW 3391   0.561   3.946   3.009
 1128SOL    HW1 3392   0.599   3.862   3.046
 1128SOL    HW2 3393   0.473   3.965   3.053
 1129SOL     OW 3394   0.866   4.178   2.504
 1129SOL    HW1 3395   0.834   4.250   2.442
 1129SOL    HW2 3396   0.890   4.097   2.451
 1130SOL     OW 3397   1.017   3.763   2.615
 1130SOL    HW1 3398   0.945   3.768   2.546
 1130SOL    HW2 3399   0.993   3.694   2.684
 1131SOL     OW 3400   1.466   4.314   2.854
 1131SOL    HW1 3401   1.436   4.219   2.861
 1131SOL    HW2 3402   1.539   4.330   2.920
 1132SOL     OW 3403   1.390   4.299   1.940
 1132SOL    HW1 3404   1.336   4.278   2.021
 1132SOL    HW2 3405   1.481   4.258   1.949
 1133SOL     OW 3406   0.527   3.980   2.190
 1133SOL    HW1 3407   0.554   3.921   2.115
 1133SOL    HW2 3408   0.527   4.075   2.159
 1134SOL     OW 3409   0.915   3.813   3.264
 1134SOL    HW1 3410   0.940   3.793   3.169
 1134SOL    HW2 3411   0.987   3.869   3.306
 1135SOL     OW 3412   1.274   4.110   3.124
 1135SOL    HW1 3413   1.295   4.184   3.188
 1135SOL    HW2 3414   1.185   4.127   3.081
 1136SOL     OW 3415   0.566   4.261   2.727
 1136SOL    HW1 3416   0.578   4.327   2.653
 1136SOL    HW2 3417   0.612   4.295   2.810
 1137SOL     OW 3418   1.582   4.363   2.334
 1137SOL    HW1 3419   1.551   4.424   2.407
 1137SOL    HW2 3420   1.632   4.415   2.265
 1138SOL     OW 3421   1.013   3.829   3.632
 1138SOL    HW1 3422   1.019   3.914   3.580
 1138SOL    HW2 3423   1.045   3.753   3.575
 1139SOL     OW 3424   0.504   3.774   3.602
 1139SOL    HW1 3425   0.462   3.717   3.532
 1139SOL    HW2 3426   0.438   3.843   3.634
 1140SOL     OW 3427   1.209   4.249   2.137
 1140SOL    HW1 3428   1.222   4.165   2.191
 1140SOL    HW2 3429   1.180   4.323   2.197
 1141SOL     OW 3430   0.307   3.937   3.093
 1141SOL    HW1 3431   0.284   3.974   3.183
 1141SOL    HW2 3432   0.277   3.842   3.087
 1142SOL     OW 3433   0.732   4.358   2.926
 1142SOL    HW1 3434   0.791   4.332   2.850
 1142SOL    HW2 3435   0.704   4.454   2.915
 1143SOL     OW 3436   0.307   3.787   2.480
 1143SOL    HW1 3437   0.296   3.881   2.513
 1143SOL    HW2 3438   0.302   3.724   2.557
 1144SOL     OW 3439   1.622   4.091   2.236
 1144SOL    HW1 3440   1.624   4.015   2.300
 1144SOL    HW2 3441   1.574   4.168   2.276
 1145SOL     OW 3442   1.540   3.998   1.987
 1145SOL    HW1 3443   1.479   3.923   2.010
 1145SOL    HW2 3444   1.562   4.050   2.070
 1146SOL     OW 3445   0.319   4.534   2.811
 1146SOL    HW1 3446   0.412   4.570   2.816
 1146SOL    HW2 3447   0.313   4.449   2.863
 1147SOL     OW 3448   0.339   4.233   2.868
 1147SOL    HW1 3449   0.287   4.150   2.851
 1147SOL    HW2 3450   0.416   4.238   2.804
 1148SOL     OW 3451   1.138   4.104   3.540
 1148SOL    HW1 3452   1.093   4.167   3.604
 1148SOL    HW2 3453   1.231   4.135   3.523
 1149SOL     OW 3454   1.160   3.931   3.339
 1149SOL    HW1 3455   1.160   3.995   3.416
 1149SOL    HW2 3456   1.188   3.979   3.256
 1150SOL     OW 3457   0.040   4.268   2.976
 1150SOL    HW1 3458   0.125   4.235   2.935
 1150SOL    HW2 3459   0.053   4.283   3.074
 1151SOL     OW 3460   0.189   4.244   3.584
 1151SOL    HW1 3461   0.248   4.204   3.514
 1151SOL    HW2 3462   0.131   4.315   3.543
 1152SOL     OW 3463   0.815   4.296   2.187
 1152SOL    HW1 3464   0.822   4.207   2.141
 1152SOL    HW2 3465   0.721   4.330   2.179
 1153SOL     OW 3466   1.657   4.328   3.068
 1153SOL    HW1 3467   1.619   4.259   3.130
 1153SOL    HW2 3468   1.739   4.292   3.024
 1154SOL     OW 3469   0.671   4.188   3.131
 1154SOL    HW1 3470   0.637   4.099   3.101
 1154SOL    HW2 3471   0.697   4.242   3.051
 1155SOL     OW 3472   0.473   4.224   2.053
 1155SOL    HW1 3473   0.534   4.304   2.057
 1155SOL    HW2 3474   0.378   4.255   2.060
 1156SOL     OW 3475   1.726   3.859   2.385
 1156SOL    HW1 3476   1.799   3.842   2.318
 1156SOL    HW2 3477   1.695   3.772   2.423
 1157SOL     OW 3478   1.280   4.651   2.534
 1157SOL    HW1 3479   1.340   4.570   2.536
 1157SOL    HW2 3480   1.320   4.720   2.474
 1158SOL     OW 3481   1.841   3.899   2.825
 1158SOL    HW1 3482   1.880   3.814   2.789
 1158SOL    HW2 3483   1.743   3.901   2.806
 1159SOL     OW 3484   0.263   4.050   2.582
 1159SOL    HW1 3485   0.184   4.101   2.548
 1159SOL    HW2 3486   0.254   4.035   2.680
 1160SOL     OW 3487   1.014   3.960   2.833
 1160SOL    HW1 3488   1.006   3.924   2.740
 1160SOL    HW2 3489   1.012   3.884   2.898
 1161SOL     OW 3490   1.709   4.109   3.243
 1161SOL    HW1 3491   1.782   4.178   3.247
 1161SOL    HW2 3492   1.737   4.034   3.184
 1162SOL     OW 3493   0.672   3.927   3.351
 1162SOL    HW1 3494   0.762   3.911   3.311
 1162SOL    HW2 3495   0.680   3.932   3.450
 1163SOL     OW 3496   0.075   4.069   1.895
 1163SOL    HW1 3497  -0.017   4.041   1.866
 1163SOL    HW2 3498   0.106   4.146   1.839
 1164SOL     OW 3499   0.072   3.890   2.180
 1164SOL    HW1 3500   0.055   3.973   2.126
 1164SOL    HW2 3501   0.162   3.853   2.158
 1165SOL     OW 3502   0.716   4.289   3.570
 1165SOL    HW1 3503   0.735   4.354   3.644
 1165SOL    HW2 3504   0.776   4.209   3.579
 1166SOL     OW 3505   1.225   4.049   2.311
 1166SOL    HW1 3506   1.290   3.975   2.300
 1166SOL    HW2 3507   1.245   4.099   2.395
 1167SOL     OW 3508   1.777   4.066   3.504
 1167SOL    HW1 3509   1.760   4.097   3.410
 1167SOL    HW2 3510   1.693   4.029   3.542
 1168SOL     OW 3511   1.083   4.708   1.949
 1168SOL    HW1 3512   1.060   4.761   1.867
 1168SOL    HW2 3513   1.164   4.652   1.930
 1169SOL     OW 3514   1.824   3.916   3.089
 1169SOL    HW1 3515   1.820   3.826   3.133
 1169SOL    HW2 3516   1.827   3.905   2.990
 1170SOL     OW 3517   0.428   4.148   2.382
 1170SOL    HW1 3518   0.458   4.076   2.320
 1170SOL    HW2 3519   0.389   4.108   2.465
 1171SOL     OW 3520   0.317   4.271   3.142
 1171SOL    HW1 3521   0.355   4.212   3.214
 1171SOL    HW2 3522   0.357   4.245   3.054
 1172SOL     OW 3523   1.424   3.938   2.974
 1172SOL    HW1 3524   1.476   3.873   3.029
 1172SOL    HW2 3525   1.375   4.001   3.035
 1173SOL     OW 3526   1.001   3.758   3.016
 1173SOL    HW1 3527   0.938   3.686   2.985
 1173SOL    HW2 3528   1.094   3.722   3.016
 1174SOL     OW 3529   1.352   3.776   2.030
 1174SOL    HW1 3530   1.387   3.735   1.946
 1174SOL    HW2 3531   1.262   3.738   2.050
 1175SOL     OW 3532   1.300   4.177   2.553
 1175SOL    HW1 3533   1.241   4.257   2.557
 1175SOL    HW2 3534   1.315   4.142   2.646
 1176SOL     OW 3535   1.593   3.945   2.744
 1176SOL    HW1 3536   1.509   3.944   2.798
 1176SOL    HW2 3537   1.595   4.028   2.688
 1177SOL     OW 3538   1.135   4.427   4.441
 1177SOL    HW1 3539   1.192   4.505   4.416
 1177SOL    HW2 3540   1.075   4.453   4.517
 1178SOL     OW 3541   1.755   4.331   3.955
 1178SOL    HW1 3542   1.743   4.318   3.856
 1178SOL    HW2 3543   1.725   4.250   4.004
 1179SOL     OW 3544   1.603   4.171   4.461
 1179SOL    HW1 3545   1.529   4.217   4.411
 1179SOL    HW2 3546   1.654   4.239   4.514
 1180SOL     OW 3547   0.122   4.367   4.287
 1180SOL    HW1 3548   0.077   4.279   4.304
 1180SOL    HW2 3549   0.121   4.421   4.371
 1181SOL     OW 3550   0.809   3.728   4.226
 1181SOL    HW1 3551   0.849   3.819   4.217
 1181SOL    HW2 3552   0.709   3.736   4.232
 1182SOL     OW 3553   1.281   4.069   4.668
 1182SOL    HW1 3554   1.195   4.019   4.655
 1182SOL    HW2 3555   1.343   4.015   4.724
 1183SOL     OW 3556   1.041   4.425   4.153
 1183SOL    HW1 3557   1.067   4.421   4.249
 1183SOL    HW2 3558   0.956   4.374   4.139
 1184SOL     OW 3559   0.076   4.535   4.513
 1184SOL    HW1 3560   0.175   4.523   4.522
 1184SOL    HW2 3561   0.052   4.630   4.534
 1185SOL     OW 3562   0.865   4.072   3.919
 1185SOL    HW1 3563   0.924   4.135   3.870
 1185SOL    HW2 3564   0.884   3.978   3.890
 1186SOL     OW 3565   1.400   3.831   4.150
 1186SOL    HW1 3566   1.376   3.794   4.060
 1186SOL    HW2 3567   1.499   3.847   4.154
 1187SOL     OW 3568   0.614   3.846   3.841
 1187SOL    HW1 3569   0.712   3.824   3.848
 1187SOL    HW2 3570   0.583   3.829   3.748
 1188SOL     OW 3571   0.539   3.788   4.236
 1188SOL    HW1 3572   0.458   3.789   4.294
 1188SOL    HW2 3573   0.542   3.871   4.181
 1189SOL     OW 3574   0.297   3.759   3.895
 1189SOL    HW1 3575   0.346   3.843   3.874
 1189SOL    HW2 3576   0.359   3.694   3.940
 1190SOL     OW 3577   0.935   3.960   4.204
 1190SOL    HW1 3578   0.887   4.001   4.126
 1190SOL    HW2 3579   1.034   3.958   4.185
 1191SOL     OW 3580   1.032   4.273   3.740
 1191SOL    HW1 3581   0.991   4.355   3.701
 1191SOL    HW2 3582   1.096   4.299   3.813
 1192SOL     OW 3583   0.866   4.178   4.366
 1192SOL    HW1 3584   0.834   4.250   4.304
 1192SOL    HW2 3585   0.890   4.097   4.313
 1193SOL     OW 3586   1.390   4.299   3.802
 1193SOL    HW1 3587   1.336   4.278   3.883
 1193SOL    HW2 3588   1.481   4.258   3.811
 1194SOL     OW 3589   0.527   3.980   4.052
 1194SOL    HW1 3590   0.554   3.921   3.977
 1194SOL    HW2 3591   0.527   4.075   4.021
 1195SOL     OW 3592   1.582   4.363   4.196
 1195SOL    HW1 3593   1.551   4.424   4.269
 1195SOL    HW2 3594   1.632   4.415   4.127
 1196SOL     OW 3595   1.209   4.249   3.999
 1196SOL    HW1 3596   1.222   4.165   4.053
 1196SOL    HW2 3597   1.180   4.323   4.059
 1197SOL     OW 3598   0.307   3.787   4.342
 1197SOL    HW1 3599   0.296   3.881   4.375
 1197SOL    HW2 3600   0.302   3.724   4.419
 1198SOL     OW 3601   1.622   4.091   4.098
 1198SOL    HW1 3602   1.624   4.015   4.162
 1198SOL    HW2 3603   1.574   4.168   4.138
 1199SOL     OW 3604   1.540   3.998   3.849
 1199SOL    HW1 3605   1.479   3.923   3.872
 1199SOL    HW2 3606   1.562   4.050   3.932
 1200SOL     OW 3607   0.815   4.296   4.049
 1200SOL    HW1 3608   0.822   4.207   4.003
 1200SOL    HW2 3609   0.721   4.330   4.041
 1201SOL     OW 3610   0.473   4.224   3.915
 1201SOL    HW1 3611   0.534   4.304   3.919
 1201SOL    HW2 3612   0.378   4.255   3.922
 1202SOL     OW 3613   1.726   3.859   4.247
 1202SOL    HW1 3614   1.799   3.842   4.180
 1202SOL    HW2 3615   1.695   3.772   4.285
 1203SOL     OW 3616   1.280   4.651   4.396
 1203SOL    HW1 3617   1.340   4.570   4.398
 1203SOL    HW2 3618   1.320   4.720   4.336
 1204SOL     OW 3619   1.841   3.899   4.687
 1204SOL    HW1 3620   1.880   3.814   4.651
 1204SOL    HW2 3621   1.743   3.901   4.668
 1205SOL     OW 3622   0.075   4.069   3.757
 1205SOL    HW1 3623  -0.017   4.041   3.728
 1205SOL    HW2 3624   0.106   4.146   3.701
 1206SOL     OW 3625   0.072   3.890   4.042
 1206SOL    HW1 3626   0.055   3.973   3.988
 1206SOL    HW2 3627   0.162   3.853   4.020
 1207SOL     OW 3628   1.225   4.049   4.173
 1207SOL    HW1 3629   1.290   3.975   4.162
 1207SOL    HW2 3630   1.245   4.099   4.257
 1208SOL     OW 3631   1.083   4.708   3.811
 1208SOL    HW1 3632   1.060   4.761   3.729
 1208SOL    HW2 3633   1.164   4.652   3.792
 1209SOL     OW 3634   0.428   4.148   4.244
 1209SOL    HW1 3635   0.458   4.076   4.182
 1209SOL    HW2 3636   0.389   4.108   4.327
 1210SOL     OW 3637   1.352   3.776   3.892
 1210SOL    HW1 3638   1.387   3.735   3.808
 1210SOL    HW2 3639   1.262   3.738   3.912
 1211SOL     OW 3640   1.300   4.177   4.415
 1211SOL    HW1 3641   1.241   4.257   4.419
 1211SOL    HW2 3642   1.315   4.142   4.508
 1212SOL     OW 3643   2.092   0.628   0.113
 1212SOL    HW1 3644   1.999   0.626   0.150
 1212SOL    HW2 3645   2.093   0.589   0.021
 1213SOL     OW 3646   2.087   0.275   0.996
 1213SOL    HW1 3647   2.122   0.258   1.088
 1213SOL    HW2 3648   1.999   0.230   0.984
 1214SOL     OW 3649   1.881   0.368   0.647
 1214SOL    HW1 3650   1.799   0.411   0.686
 1214SOL    HW2 3651   1.853   0.295   0.584
 1215SOL     OW 3652   2.431   1.275   1.165
 1215SOL    HW1 3653   2.338   1.268   1.128
 1215SOL    HW2 3654   2.442   1.364   1.209
 1216SOL     OW 3655   3.417   1.511   0.703
 1216SOL    HW1 3656   3.360   1.495   0.784
 1216SOL    HW2 3657   3.358   1.521   0.623
 1217SOL     OW 3658   2.997   0.703   0.717
 1217SOL    HW1 3659   3.054   0.781   0.692
 1217SOL    HW2 3660   2.937   0.729   0.793
 1218SOL     OW 3661   3.617   0.607   0.231
 1218SOL    HW1 3662   3.605   0.594   0.132
 1218SOL    HW2 3663   3.587   0.526   0.280
 1219SOL     OW 3664   2.630   1.144   1.023
 1219SOL    HW1 3665   2.552   1.161   1.083
 1219SOL    HW2 3666   2.664   1.231   0.987
 1220SOL     OW 3667   2.712   0.798   1.823
 1220SOL    HW1 3668   2.708   0.874   1.888
 1220SOL    HW2 3669   2.734   0.834   1.732
 1221SOL     OW 3670   2.547   1.012   0.665
 1221SOL    HW1 3671   2.616   0.996   0.735
 1221SOL    HW2 3672   2.474   1.069   0.703
 1222SOL     OW 3673   2.548   1.161   1.803
 1222SOL    HW1 3674   2.608   1.240   1.817
 1222SOL    HW2 3675   2.462   1.192   1.762
 1223SOL     OW 3676   2.197   1.435   1.061
 1223SOL    HW1 3677   2.119   1.404   1.008
 1223SOL    HW2 3678   2.255   1.493   1.004
 1224SOL     OW 3679   3.322   1.505   1.339
 1224SOL    HW1 3680   3.346   1.599   1.365
 1224SOL    HW2 3681   3.306   1.451   1.421
 1225SOL     OW 3682   2.300   0.392   1.499
 1225SOL    HW1 3683   2.382   0.336   1.508
 1225SOL    HW2 3684   2.219   0.334   1.503
 1226SOL     OW 3685   3.465   0.447   0.737
 1226SOL    HW1 3686   3.391   0.493   0.687
 1226SOL    HW2 3687   3.516   0.515   0.790
 1227SOL     OW 3688   2.093   1.713   0.483
 1227SOL    HW1 3689   2.127   1.790   0.537
 1227SOL    HW2 3690   2.137   1.713   0.393
 1228SOL     OW 3691   2.989   1.341   1.690
 1228SOL    HW1 3692   3.036   1.341   1.778
 1228SOL    HW2 3693   2.941   1.254   1.679
 1229SOL     OW 3694   2.092   1.434   0.538
 1229SOL    HW1 3695   2.066   1.530   0.538
 1229SOL    HW2 3696   2.021   1.380   0.583
 1230SOL     OW 3697   2.102   1.091   0.886
 1230SOL    HW1 3698   2.116   1.007   0.938
 1230SOL    HW2 3699   2.047   1.155   0.941
 1231SOL     OW 3700   2.482   1.786   1.439
 1231SOL    HW1 3701   2.390   1.769   1.474
 1231SOL    HW2 3702   2.510   1.878   1.465
 1232SOL     OW 3703   2.468   0.964   0.123
 1232SOL    HW1 3704   2.475   1.048   0.069
 1232SOL    HW2 3705   2.514   0.977   0.211
 1233SOL     OW 3706   3.456   0.114   1.480
 1233SOL    HW1 3707   3.438   0.181   1.408
 1233SOL    HW2 3708   3.453   0.160   1.569
 1234SOL     OW 3709   1.984   0.643   0.563
 1234SOL    HW1 3710   1.939   0.555   0.580
 1234SOL    HW2 3711   1.983   0.697   0.647
 1235SOL     OW 3712   3.704   1.767   0.359
 1235SOL    HW1 3713   3.758   1.738   0.439
 1235SOL    HW2 3714   3.734   1.857   0.330
 1236SOL     OW 3715   1.889   1.596   0.117
 1236SOL    HW1 3716   1.870   1.500   0.138
 1236SOL    HW2 3717   1.856   1.654   0.192
 1237SOL     OW 3718   3.551   0.922   0.612
 1237SOL    HW1 3719   3.646   0.893   0.620
 1237SOL    HW2 3720   3.543   0.987   0.537
 1238SOL     OW 3721   3.503   1.108   0.432
 1238SOL    HW1 3722   3.589   1.110   0.380
 1238SOL    HW2 3723   3.517   1.155   0.520
 1239SOL     OW 3724   1.975   0.737   1.597
 1239SOL    HW1 3725   2.063   0.724   1.642
 1239SOL    HW2 3726   1.962   0.834   1.575
 1240SOL     OW 3727   2.475   1.365   0.726
 1240SOL    HW1 3728   2.426   1.278   0.735
 1240SOL    HW2 3729   2.452   1.408   0.639
 1241SOL     OW 3730   3.155   1.228   1.423
 1241SOL    HW1 3731   3.192   1.155   1.365
 1241SOL    HW2 3732   3.207   1.233   1.508
 1242SOL     OW 3733   2.671   0.004   0.502
 1242SOL    HW1 3734   2.711   0.095   0.493
 1242SOL    HW2 3735   2.571   0.012   0.508
 1243SOL     OW 3736   2.059   0.976   1.264
 1243SOL    HW1 3737   2.148   0.931   1.250
 1243SOL    HW2 3738   1.986   0.911   1.245
 1244SOL     OW 3739   3.387   0.999   0.190
 1244SOL    HW1 3740   3.324   0.923   0.203
 1244SOL    HW2 3741   3.435   1.017   0.276
 1245SOL     OW 3742   3.049   1.792   1.616
 1245SOL    HW1 3743   3.073   1.852   1.540
 1245SOL    HW2 3744   3.056   1.697   1.586
 1246SOL     OW 3745   2.179   0.251   1.801
 1246SOL    HW1 3746   2.250   0.322   1.807
 1246SOL    HW2 3747   2.091   0.290   1.829
 1247SOL     OW 3748   3.328   1.417   0.953
 1247SOL    HW1 3749   3.269   1.423   1.033
 1247SOL    HW2 3750   3.313   1.329   0.907
 1248SOL     OW 3751   3.529   1.714   0.572
 1248SOL    HW1 3752   3.488   1.691   0.484
 1248SOL    HW2 3753   3.511   1.640   0.637
 1249SOL     OW 3754   2.460   0.729   0.270
 1249SOL    HW1 3755   2.484   0.798   0.202
 1249SOL    HW2 3756   2.382   0.762   0.324
 1250SOL     OW 3757   3.143   0.345   0.944
 1250SOL    HW1 3758   3.057   0.295   0.931
 1250SOL    HW2 3759   3.205   0.291   1.000
 1251SOL     OW 3760   3.438   1.662   0.307
 1251SOL    HW1 3761   3.527   1.708   0.310
 1251SOL    HW2 3762   3.417   1.638   0.212
 1252SOL     OW 3763   2.669   0.605   1.465
 1252SOL    HW1 3764   2.622   0.602   1.554
 1252SOL    HW2 3765   2.618   0.550   1.399
 1253SOL     OW 3766   3.256   0.469   1.674
 1253SOL    HW1 3767   3.236   0.512   1.762
 1253SOL    HW2 3768   3.334   0.407   1.683
 1254SOL     OW 3769   2.835   0.890   1.572
 1254SOL    HW1 3770   2.881   0.806   1.543
 1254SOL    HW2 3771   2.779   0.924   1.497
 1255SOL     OW 3772   2.853   0.410   1.242
 1255SOL    HW1 3773   2.776   0.444   1.296
 1255SOL    HW2 3774   2.819   0.359   1.163
 1256SOL     OW 3775   2.903   0.701   0.429
 1256SOL    HW1 3776   2.929   0.697   0.525
 1256SOL    HW2 3777   2.818   0.650   0.415
 1257SOL     OW 3778   1.938   0.811   0.789
 1257SOL    HW1 3779   2.037   0.799   0.798
 1257SOL    HW2 3780   1.914   0.906   0.810
 1258SOL     OW 3781   1.992   1.821   1.571
 1258SOL    HW1 3782   1.982   1.806   1.670
 1258SOL    HW2 3783   1.906   1.857   1.535
 1259SOL     OW 3784   2.727   0.348   0.195
 1259SOL    HW1 3785   2.786   0.411   0.146
 1259SOL    HW2 3786   2.746   0.254   0.166
 1260SOL     OW 3787   3.581   0.585   1.831
 1260SOL    HW1 3788   3.555   0.674   1.795
 1260SOL    HW2 3789   3.579   0.517   1.758
 1261SOL     OW 3790   3.224   1.144   0.545
 1261SOL    HW1 3791   3.307   1.115   0.497
 1261SOL    HW2 3792   3.175   1.211   0.489
 1262SOL     OW 3793   2.412   0.196   0.885
 1262SOL    HW1 3794   2.407   0.191   0.985
 1262SOL    HW2 3795   2.414   0.292   0.856
 1263SOL     OW 3796   2.870   1.456   0.477
 1263SOL    HW1 3797   2.824   1.528   0.425
 1263SOL    HW2 3798   2.866   1.476   0.575
 1264SOL     OW 3799   2.213   1.801   0.853
 1264SOL    HW1 3800   2.263   1.715   0.859
 1264SOL    HW2 3801   2.278   1.878   0.850
 1265SOL     OW 3802   3.657   1.066   0.873
 1265SOL    HW1 3803   3.595   1.051   0.797
 1265SOL    HW2 3804   3.605   1.077   0.958
 1266SOL     OW 3805   3.089   1.550   1.506
 1266SOL    HW1 3806   3.095   1.473   1.570
 1266SOL    HW2 3807   3.037   1.524   1.426
 1267SOL     OW 3808   2.183   0.943   0.242
 1267SOL    HW1 3809   2.265   0.982   0.200
 1267SOL    HW2 3810   2.156   0.861   0.193
 1268SOL     OW 3811   3.320   0.735   0.728
 1268SOL    HW1 3812   3.315   0.670   0.803
 1268SOL    HW2 3813   3.400   0.794   0.741
 1269SOL     OW 3814   2.323   1.266   1.727
 1269SOL    HW1 3815   2.273   1.267   1.641
 1269SOL    HW2 3816   2.260   1.248   1.803
 1270SOL     OW 3817   2.973   1.776   0.237
 1270SOL    HW1 3818   2.913   1.714   0.287
 1270SOL    HW2 3819   3.004   1.732   0.152
 1271SOL     OW 3820   2.064   0.285   1.498
 1271SOL    HW1 3821   1.984   0.345   1.485
 1271SOL    HW2 3822   2.054   0.236   1.584
 1272SOL     OW 3823   3.494   1.377   0.081
 1272SOL    HW1 3824   3.462   1.471   0.071
 1272SOL    HW2 3825   3.418   1.314   0.069
 1273SOL     OW 3826   2.326   1.743   0.323
 1273SOL    HW1 3827   2.359   1.782   0.409
 1273SOL    HW2 3828   2.402   1.736   0.258
 1274SOL     OW 3829   3.262   0.107   0.426
 1274SOL    HW1 3830   3.238   0.070   0.336
 1274SOL    HW2 3831   3.361   0.123   0.430
 1275SOL     OW 3832   2.111   1.785   1.241
 1275SOL    HW1 3833   2.168   1.720   1.291
 1275SOL    HW2 3834   2.095   1.752   1.148
 1276SOL     OW 3835   2.802   1.698   0.904
 1276SOL    HW1 3836   2.882   1.641   0.925
 1276SOL    HW2 3837   2.753   1.658   0.827
 1277SOL     OW 3838   2.244   0.700   0.480
 1277SOL    HW1 3839   2.289   0.610   0.477
 1277SOL    HW2 3840   2.150   0.689   0.513
 1278SOL     OW 3841   3.409   0.222   1.729
 1278SOL    HW1 3842   3.404   0.259   1.821
 1278SOL    HW2 3843   3.337   0.153   1.717
 1279SOL     OW 3844   2.476   0.122   0.117
 1279SOL    HW1 3845   2.574   0.100   0.124
 1279SOL    HW2 3846   2.445   0.105   0.024
 1280SOL     OW 3847   2.643   0.264   1.749
 1280SOL    HW1 3848   2.710   0.203   1.792
 1280SOL    HW2 3849   2.570   0.283   1.814
 1281SOL     OW 3850   2.750   1.514   1.195
 1281SOL    HW1 3851   2.727   1.489   1.101
 1281SOL    HW2 3852   2.811   1.445   1.234
 1282SOL     OW 3853   3.213   0.590   1.433
 1282SOL    HW1 3854   3.241   0.547   1.518
 1282SOL    HW2 3855   3.238   0.686   1.434
 1283SOL     OW 3856   2.665   1.402   0.924
 1283SOL    HW1 3857   2.755   1.416   0.882
 1283SOL    HW2 3858   2.594   1.404   0.853
 1284SOL     OW 3859   2.784   0.503   0.899
 1284SOL    HW1 3860   2.759   0.494   0.803
 1284SOL    HW2 3861   2.832   0.421   0.930
 1285SOL     OW 3862   2.401   0.064   0.512
 1285SOL    HW1 3863   2.320   0.065   0.570
 1285SOL    HW2 3864   2.404   0.147   0.457
 1286SOL     OW 3865   3.296   1.188   0.041
 1286SOL    HW1 3866   3.328   1.112   0.098
 1286SOL    HW2 3867   3.204   1.215   0.071
 1287SOL     OW 3868   2.159   0.035   0.171
 1287SOL    HW1 3869   2.208   0.119   0.150
 1287SOL    HW2 3870   2.221  -0.030   0.216
 1288SOL     OW 3871   2.797   0.236   0.480
 1288SOL    HW1 3872   2.749   0.277   0.402
 1288SOL    HW2 3873   2.896   0.234   0.461
 1289SOL     OW 3874   2.938   0.683   1.464
 1289SOL    HW1 3875   2.858   0.622   1.467
 1289SOL    HW2 3876   3.019   0.630   1.440
 1290SOL     OW 3877   3.089   1.570   0.793
 1290SOL    HW1 3878   3.110   1.644   0.728
 1290SOL    HW2 3879   3.157   1.570   0.866
 1291SOL     OW 3880   2.321   1.152   0.741
 1291SOL    HW1 3881   2.250   1.125   0.806
 1291SOL    HW2 3882   2.295   1.124   0.648
 1292SOL     OW 3883   3.133   1.797   0.591
 1292SOL    HW1 3884   3.177   1.861   0.527
 1292SOL    HW2 3885   3.083   1.849   0.661
 1293SOL     OW 3886   2.894   0.549   0.016
 1293SOL    HW1 3887   2.853   0.631  -0.023
 1293SOL    HW2 3888   2.958   0.575   0.089
 1294SOL     OW 3889   1.940   0.556   1.386
 1294SOL    HW1 3890   2.032   0.555   1.345
 1294SOL    HW2 3891   1.934   0.630   1.453
 1295SOL     OW 3892   2.423   0.222   1.147
 1295SOL    HW1 3893   2.461   0.138   1.184
 1295SOL    HW2 3894   2.335   0.241   1.191
 1296SOL     OW 3895   2.728   0.454   0.642
 1296SOL    HW1 3896   2.696   0.526   0.580
 1296SOL    HW2 3897   2.752   0.373   0.589
 1297SOL     OW 3898   2.879   0.039   0.753
 1297SOL    HW1 3899   2.807   0.044   0.684
 1297SOL    HW2 3900   2.855  -0.030   0.822
 1298SOL     OW 3901   3.291   1.173   0.867
 1298SOL    HW1 3902   3.236   1.089   0.860
 1298SOL    HW2 3903   3.317   1.202   0.775
 1299SOL     OW 3904   3.328   0.590   0.992
 1299SOL    HW1 3905   3.298   0.495   0.999
 1299SOL    HW2 3906   3.401   0.606   1.058
 1300SOL     OW 3907   3.719   0.833   0.377
 1300SOL    HW1 3908   3.761   0.769   0.441
 1300SOL    HW2 3909   3.681   0.782   0.299
 1301SOL     OW 3910   2.350   1.385   0.174
 1301SOL    HW1 3911   2.263   1.370   0.221
 1301SOL    HW2 3912   2.333   1.411   0.079
 1302SOL     OW 3913   3.526   1.280   0.657
 1302SOL    HW1 3914   3.625   1.288   0.671
 1302SOL    HW2 3915   3.481   1.364   0.688
 1303SOL     OW 3916   3.252   0.575   0.078
 1303SOL    HW1 3917   3.198   0.554   0.159
 1303SOL    HW2 3918   3.343   0.534   0.087
 1304SOL     OW 3919   2.389   0.256   0.328
 1304SOL    HW1 3920   2.416   0.197   0.253
 1304SOL    HW2 3921   2.389   0.351   0.297
 1305SOL     OW 3922   3.616   1.223   1.588
 1305SOL    HW1 3923   3.707   1.184   1.575
 1305SOL    HW2 3924   3.624   1.319   1.612
 1306SOL     OW 3925   2.926   1.347   1.340
 1306SOL    HW1 3926   2.846   1.324   1.395
 1306SOL    HW2 3927   3.009   1.321   1.389
 1307SOL     OW 3928   3.454   1.629   1.625
 1307SOL    HW1 3929   3.481   1.663   1.535
 1307SOL    HW2 3930   3.533   1.591   1.671
 1308SOL     OW 3931   2.973   1.195   1.100
 1308SOL    HW1 3932   2.933   1.239   1.181
 1308SOL    HW2 3933   2.932   1.232   1.017
 1309SOL     OW 3934   3.500   1.099   1.079
 1309SOL    HW1 3935   3.505   1.180   1.138
 1309SOL    HW2 3936   3.414   1.101   1.028
 1310SOL     OW 3937   2.777   0.089   1.402
 1310SOL    HW1 3938   2.802   0.069   1.307
 1310SOL    HW2 3939   2.849   0.145   1.444
 1311SOL     OW 3940   2.842   1.116   1.719
 1311SOL    HW1 3941   2.743   1.122   1.729
 1311SOL    HW2 3942   2.865   1.036   1.663
 1312SOL     OW 3943   2.567   1.050   0.368
 1312SOL    HW1 3944   2.553   1.057   0.467
 1312SOL    HW2 3945   2.651   0.999   0.350
 1313SOL     OW 3946   2.272   0.813   1.251
 1313SOL    HW1 3947   2.358   0.825   1.301
 1313SOL    HW2 3948   2.230   0.726   1.278
 1314SOL     OW 3949   3.136   0.386   1.262
 1314SOL    HW1 3950   3.157   0.460   1.326
 1314SOL    HW2 3951   3.047   0.403   1.219
 1315SOL     OW 3952   1.926   1.564   1.331
 1315SOL    HW1 3953   1.880   1.646   1.297
 1315SOL    HW2 3954   2.024   1.583   1.340
 1316SOL     OW 3955   2.229   1.100   0.501
 1316SOL    HW1 3956   2.222   1.183   0.445
 1316SOL    HW2 3957   2.233   1.020   0.441
 1317SOL     OW 3958   2.428   0.537   0.865
 1317SOL    HW1 3959   2.440   0.603   0.791
 1317SOL    HW2 3960   2.474   0.571   0.948
 1318SOL     OW 3961   3.114   1.348   0.388
 1318SOL    HW1 3962   3.164   1.425   0.428
 1318SOL    HW2 3963   3.019   1.350   0.420
 1319SOL     OW 3964   3.134   1.445   1.142
 1319SOL    HW1 3965   3.181   1.458   1.229
 1319SOL    HW2 3966   3.068   1.371   1.151
 1320SOL     OW 3967   3.444   0.639   0.472
 1320SOL    HW1 3968   3.413   0.700   0.545
 1320SOL    HW2 3969   3.494   0.691   0.403
 1321SOL     OW 3970   2.216   1.510   1.329
 1321SOL    HW1 3971   2.195   1.466   1.242
 1321SOL    HW2 3972   2.313   1.536   1.332
 1322SOL     OW 3973   2.264   0.751   1.598
 1322SOL    HW1 3974   2.332   0.806   1.551
 1322SOL    HW2 3975   2.304   0.663   1.625
 1323SOL     OW 3976   3.449   0.779   1.670
 1323SOL    HW1 3977   3.357   0.817   1.665
 1323SOL    HW2 3978   3.509   0.826   1.605
 1324SOL     OW 3979   2.875   0.105   1.770
 1324SOL    HW1 3980   2.881   0.190   1.718
 1324SOL    HW2 3981   2.907   0.029   1.713
 1325SOL     OW 3982   2.366   0.050   1.740
 1325SOL    HW1 3983   2.324  -0.007   1.670
 1325SOL    HW2 3984   2.300   0.119   1.772
 1326SOL     OW 3985   2.435   0.870   1.029
 1326SOL    HW1 3986   2.479   0.959   1.020
 1326SOL    HW2 3987   2.372   0.870   1.106
 1327SOL     OW 3988   3.222   0.862   1.045
 1327SOL    HW1 3989   3.147   0.862   0.979
 1327SOL    HW2 3990   3.259   0.770   1.054
 1328SOL     OW 3991   3.071   0.525   0.275
 1328SOL    HW1 3992   3.084   0.441   0.329
 1328SOL    HW2 3993   3.042   0.599   0.335
 1329SOL     OW 3994   2.169   0.213   1.231
 1329SOL    HW1 3995   2.146   0.250   1.321
 1329SOL    HW2 3996   2.139   0.118   1.225
 1330SOL     OW 3997   1.899   1.310   1.282
 1330SOL    HW1 3998   1.952   1.261   1.350
 1330SOL    HW2 3999   1.921   1.408   1.287
 1331SOL     OW 4000   2.594   0.634   1.064
 1331SOL    HW1 4001   2.653   0.608   0.988
 1331SOL    HW2 4002   2.566   0.730   1.053
 1332SOL     OW 4003   3.590   0.935   1.854
 1332SOL    HW1 4004   3.544   0.928   1.765
 1332SOL    HW2 4005   3.528   0.979   1.920
 1333SOL     OW 4006   2.169   0.063   0.618
 1333SOL    HW1 4007   2.158   0.157   0.651
 1333SOL    HW2 4008   2.164   0.000   0.695
 1334SOL     OW 4009   3.484   0.367   0.374
 1334SOL    HW1 4010   3.486   0.291   0.438
 1334SOL    HW2 4011   3.436   0.444   0.414
 1335SOL     OW 4012   2.885   0.766   0.966
 1335SOL    HW1 4013   2.900   0.787   1.062
 1335SOL    HW2 4014   2.855   0.671   0.957
 1336SOL     OW 4015   2.842   1.573   1.700
 1336SOL    HW1 4016   2.822   1.617   1.612
 1336SOL    HW2 4017   2.881   1.482   1.684
 1337SOL     OW 4018   3.721   1.518   1.605
 1337SOL    HW1 4019   3.735   1.545   1.510
 1337SOL    HW2 4020   3.804   1.540   1.658
 1338SOL     OW 4021   2.212   0.898   1.804
 1338SOL    HW1 4022   2.288   0.942   1.852
 1338SOL    HW2 4023   2.247   0.851   1.722
 1339SOL     OW 4024   3.402   0.274   0.125
 1339SOL    HW1 4025   3.341   0.199   0.148
 1339SOL    HW2 4026   3.424   0.326   0.208
 1340SOL     OW 4027   3.165   0.838   0.042
 1340SOL    HW1 4028   3.199   0.745   0.057
 1340SOL    HW2 4029   3.183   0.865  -0.053
 1341SOL     OW 4030   2.930   1.333   0.849
 1341SOL    HW1 4031   2.937   1.249   0.794
 1341SOL    HW2 4032   2.992   1.402   0.813
 1342SOL     OW 4033   2.181   0.810   0.949
 1342SOL    HW1 4034   2.274   0.846   0.954
 1342SOL    HW2 4035   2.175   0.725   1.001
 1343SOL     OW 4036   2.201   0.509   1.006
 1343SOL    HW1 4037   2.149   0.426   0.989
 1343SOL    HW2 4038   2.278   0.514   0.942
 1344SOL     OW 4039   3.000   0.380   1.678
 1344SOL    HW1 4040   2.955   0.443   1.742
 1344SOL    HW2 4041   3.093   0.411   1.661
 1345SOL     OW 4042   3.022   0.207   1.477
 1345SOL    HW1 4043   3.022   0.271   1.554
 1345SOL    HW2 4044   3.050   0.255   1.394
 1346SOL     OW 4045   1.870   1.326   0.200
 1346SOL    HW1 4046   1.777   1.347   0.169
 1346SOL    HW2 4047   1.880   1.227   0.213
 1347SOL     OW 4048   1.950   1.801   0.927
 1347SOL    HW1 4049   1.908   1.715   0.900
 1347SOL    HW2 4050   2.044   1.804   0.893
 1348SOL     OW 4051   2.366   1.568   0.910
 1348SOL    HW1 4052   2.432   1.642   0.919
 1348SOL    HW2 4053   2.410   1.489   0.868
 1349SOL     OW 4054   2.864   0.796   1.238
 1349SOL    HW1 4055   2.905   0.764   1.324
 1349SOL    HW2 4056   2.768   0.769   1.235
 1350SOL     OW 4057   1.902   0.544   1.114
 1350SOL    HW1 4058   1.987   0.511   1.073
 1350SOL    HW2 4059   1.915   0.559   1.212
 1351SOL     OW 4060   2.051   0.520   1.722
 1351SOL    HW1 4061   2.110   0.480   1.652
 1351SOL    HW2 4062   1.993   0.591   1.681
 1352SOL     OW 4063   3.231   0.950   1.660
 1352SOL    HW1 4064   3.270   1.039   1.680
 1352SOL    HW2 4065   3.241   0.930   1.563
 1353SOL     OW 4066   2.677   0.572   0.325
 1353SOL    HW1 4067   2.684   0.483   0.279
 1353SOL    HW2 4068   2.583   0.606   0.317
 1354SOL     OW 4069   3.519   0.604   1.206
 1354SOL    HW1 4070   3.481   0.535   1.268
 1354SOL    HW2 4071   3.601   0.568   1.162
 1355SOL     OW 4072   2.114   1.564   1.744
 1355SOL    HW1 4073   2.084   1.621   1.820
 1355SOL    HW2 4074   2.107   1.467   1.770
 1356SOL     OW 4075   2.533   0.464   1.269
 1356SOL    HW1 4076   2.499   0.375   1.239
 1356SOL    HW2 4077   2.559   0.518   1.189
 1357SOL     OW 4078   2.792   1.678   1.465
 1357SOL    HW1 4079   2.768   1.660   1.370
 1357SOL    HW2 4080   2.822   1.772   1.475
 1358SOL     OW 4081   2.335   0.500   0.191
 1358SOL    HW1 4082   2.396   0.580   0.195
 1358SOL    HW2 4083   2.240   0.531   0.198
 1359SOL     OW 4084   2.021   1.137   1.466
 1359SOL    HW1 4085   2.043   1.076   1.542
 1359SOL    HW2 4086   2.031   1.088   1.380
 1360SOL     OW 4087   3.209   1.059   1.234
 1360SOL    HW1 4088   3.233   0.996   1.160
 1360SOL    HW2 4089   3.119   1.099   1.216
 1361SOL     OW 4090   3.164   0.855   0.309
 1361SOL    HW1 4091   3.078   0.824   0.351
 1361SOL    HW2 4092   3.160   0.841   0.210
 1362SOL     OW 4093   3.621   1.747   1.154
 1362SOL    HW1 4094   3.682   1.777   1.081
 1362SOL    HW2 4095   3.583   1.658   1.132
 1363SOL     OW 4096   3.114   1.731   1.128
 1363SOL    HW1 4097   3.198   1.736   1.074
 1363SOL    HW2 4098   3.091   1.635   1.146
 1364SOL     OW 4099   1.945   1.258   1.022
 1364SOL    HW1 4100   1.940   1.257   1.122
 1364SOL    HW2 4101   1.862   1.217   0.984
 1365SOL     OW 4102   2.550   1.662   1.716
 1365SOL    HW1 4103   2.494   1.743   1.725
 1365SOL    HW2 4104   2.602   1.666   1.630
 1366SOL     OW 4105   2.765   0.086   0.133
 1366SOL    HW1 4106   2.816   0.087   0.047
 1366SOL    HW2 4107   2.821   0.044   0.204
 1367SOL     OW 4108   3.588   0.135   0.523
 1367SOL    HW1 4109   3.661   0.118   0.456
 1367SOL    HW2 4110   3.557   0.048   0.561
 1368SOL     OW 4111   3.250   1.573   0.477
 1368SOL    HW1 4112   3.317   1.585   0.403
 1368SOL    HW2 4113   3.210   1.662   0.500
 1369SOL     OW 4114   1.992   1.794   1.851
 1369SOL    HW1 4115   1.951   1.720   1.904
 1369SOL    HW2 4116   2.056   1.845   1.909
 1370SOL     OW 4117   3.142   0.927   0.672
 1370SOL    HW1 4118   3.202   0.846   0.674
 1370SOL    HW2 4119   3.182   0.996   0.612
 1371SOL     OW 4120   2.692   1.273   1.422
 1371SOL    HW1 4121   2.687   1.306   1.517
 1371SOL    HW2 4122   2.606   1.292   1.376
 1372SOL     OW 4123   2.534   1.616   0.154
 1372SOL    HW1 4124   2.543   1.626   0.055
 1372SOL    HW2 4125   2.494   1.527   0.175
 1373SOL     OW 4126   3.512   1.720   1.394
 1373SOL    HW1 4127   3.565   1.730   1.310
 1373SOL    HW2 4128   3.485   1.810   1.428
 1374SOL     OW 4129   3.703   0.175   0.963
 1374SOL    HW1 4130   3.742   0.090   0.927
 1374SOL    HW2 4131   3.605   0.177   0.944
 1375SOL     OW 4132   2.125   0.326   0.720
 1375SOL    HW1 4133   2.046   0.377   0.686
 1375SOL    HW2 4134   2.116   0.311   0.818
 1376SOL     OW 4135   3.056   1.612   0.031
 1376SOL    HW1 4136   3.062   1.519   0.068
 1376SOL    HW2 4137   2.997   1.612  -0.049
 1377SOL     OW 4138   2.684   1.002   1.372
 1377SOL    HW1 4139   2.724   1.001   1.280
 1377SOL    HW2 4140   2.694   1.094   1.412
 1378SOL     OW 4141   2.778   0.910   0.291
 1378SOL    HW1 4142   2.841   0.948   0.223
 1378SOL    HW2 4143   2.818   0.827   0.330
 1379SOL     OW 4144   3.366   1.607   0.044
 1379SOL    HW1 4145   3.274   1.644   0.051
 1379SOL    HW2 4146   3.404   1.627  -0.046
 1380SOL     OW 4147   2.234   1.288   1.490
 1380SOL    HW1 4148   2.221   1.381   1.456
 1380SOL    HW2 4149   2.150   1.236   1.477
 1381SOL     OW 4150   3.476   1.292   1.289
 1381SOL    HW1 4151   3.536   1.295   1.369
 1381SOL    HW2 4152   3.401   1.356   1.302
 1382SOL     OW 4153   2.901   1.098   0.696
 1382SOL    HW1 4154   2.831   1.051   0.750
 1382SOL    HW2 4155   2.960   1.030   0.653
 1383SOL     OW 4156   2.876   0.236   0.971
 1383SOL    HW1 4157   2.868   0.200   0.878
 1383SOL    HW2 4158   2.874   0.160   1.036
 1384SOL     OW 4159   2.452   1.487   0.491
 1384SOL    HW1 4160   2.494   1.429   0.421
 1384SOL    HW2 4161   2.408   1.566   0.447
 1385SOL     OW 4162   3.571   0.385   1.381
 1385SOL    HW1 4163   3.644   0.454   1.385
 1385SOL    HW2 4164   3.599   0.310   1.322
 1386SOL     OW 4165   2.117   1.348   0.290
 1386SOL    HW1 4166   2.021   1.349   0.263
 1386SOL    HW2 4167   2.129   1.401   0.374
 1387SOL     OW 4168   1.967   1.013   1.726
 1387SOL    HW1 4169   1.890   0.980   1.780
 1387SOL    HW2 4170   2.052   0.983   1.768
 1388SOL     OW 4171   2.534   0.203   1.489
 1388SOL    HW1 4172   2.624   0.187   1.449
 1388SOL    HW2 4173   2.542   0.208   1.588
 1389SOL     OW 4174   1.937   0.345   0.033
 1389SOL    HW1 4175   1.845   0.317   0.004
 1389SOL    HW2 4176   1.968   0.422  -0.023
 1390SOL     OW 4177   3.302   0.856   1.398
 1390SOL    HW1 4178   3.245   0.908   1.335
 1390SOL    HW2 4179   3.398   0.868   1.374
 1391SOL     OW 4180   3.045   1.335   0.119
 1391SOL    HW1 4181   2.946   1.324   0.121
 1391SOL    HW2 4182   3.079   1.350   0.212
 1392SOL     OW 4183   2.475   0.842   1.431
 1392SOL    HW1 4184   2.531   0.923   1.414
 1392SOL    HW2 4185   2.534   0.762   1.434
 1393SOL     OW 4186   3.355   1.767   0.959
 1393SOL    HW1 4187   3.388   1.831   0.890
 1393SOL    HW2 4188   3.421   1.761   1.034
 1394SOL     OW 4189   2.578   0.565   1.708
 1394SOL    HW1 4190   2.597   0.630   1.782
 1394SOL    HW2 4191   2.638   0.485   1.717
 1395SOL     OW 4192   3.312   1.220   1.633
 1395SOL    HW1 4193   3.303   1.210   1.732
 1395SOL    HW2 4194   3.408   1.213   1.607
 1396SOL     OW 4195   2.252   1.741   1.560
 1396SOL    HW1 4196   2.161   1.782   1.558
 1396SOL    HW2 4197   2.245   1.647   1.592
 1397SOL     OW 4198   3.536   0.883   1.254
 1397SOL    HW1 4199   3.509   0.794   1.217
 1397SOL    HW2 4200   3.537   0.951   1.181
 1398SOL     OW 4201   3.087   0.325   0.449
 1398SOL    HW1 4202   3.152   0.251   0.438
 1398SOL    HW2 4203   3.107   0.375   0.533
 1399SOL     OW 4204   2.456   0.745   0.652
 1399SOL    HW1 4205   2.506   0.830   0.633
 1399SOL    HW2 4206   2.368   0.747   0.604
 1400SOL     OW 4207   3.639   0.342   1.642
 1400SOL    HW1 4208   3.622   0.373   1.548
 1400SOL    HW2 4209   3.555   0.305   1.680
 1401SOL     OW 4210   3.592   0.934   1.517
 1401SOL    HW1 4211   3.630   1.025   1.532
 1401SOL    HW2 4212   3.584   0.917   1.418
 1402SOL     OW 4213   2.721   1.374   0.016
 1402SOL    HW1 4214   2.675   1.389   0.104
 1402SOL    HW2 4215   2.765   1.459  -0.014
 1403SOL     OW 4216   2.523   1.790   0.953
 1403SOL    HW1 4217   2.477   1.878   0.940
 1403SOL    HW2 4218   2.622   1.802   0.946
 1404SOL     OW 4219   2.721   0.956   0.861
 1404SOL    HW1 4220   2.775   0.887   0.909
 1404SOL    HW2 4221   2.689   1.025   0.927
 1405SOL     OW 4222   2.945   0.984   0.087
 1405SOL    HW1 4223   2.922   1.037   0.005
 1405SOL    HW2 4224   3.026   0.928   0.068
 1406SOL     OW 4225   3.723   1.569   0.851
 1406SOL    HW1 4226   3.652   1.557   0.781
 1406SOL    HW2 4227   3.724   1.490   0.911
 1407SOL     OW 4228   2.083   1.314   1.844
 1407SOL    HW1 4229   2.018   1.241   1.823
 1407SOL    HW2 4230   2.087   1.328   1.942
 1408SOL     OW 4231   1.941   1.240   0.653
 1408SOL    HW1 4232   1.940   1.193   0.741
 1408SOL    HW2 4233   2.023   1.212   0.602
 1409SOL     OW 4234   2.534   1.391   1.624
 1409SOL    HW1 4235   2.456   1.341   1.662
 1409SOL    HW2 4236   2.531   1.486   1.655
 1410SOL     OW 4237   3.686   0.192   1.227
 1410SOL    HW1 4238   3.682   0.102   1.271
 1410SOL    HW2 4239   3.689   0.181   1.128
 1411SOL     OW 4240   2.290   0.424   0.520
 1411SOL    HW1 4241   2.320   0.352   0.458
 1411SOL    HW2 4242   2.251   0.384   0.603
 1412SOL     OW 4243   3.567   1.487   1.104
 1412SOL    HW1 4244   3.474   1.462   1.077
 1412SOL    HW2 4245   3.593   1.437   1.186
 1413SOL     OW 4246   2.179   0.547   1.280
 1413SOL    HW1 4247   2.217   0.488   1.352
 1413SOL    HW2 4248   2.219   0.521   1.192
 1414SOL     OW 4249   2.674   1.586   0.687
 1414SOL    HW1 4250   2.706   1.596   0.593
 1414SOL    HW2 4251   2.595   1.524   0.689
 1415SOL     OW 4252   3.286   0.214   1.112
 1415SOL    HW1 4253   3.338   0.149   1.167
 1415SOL    HW2 4254   3.237   0.277   1.173
 1416SOL     OW 4255   2.863   0.034   1.154
 1416SOL    HW1 4256   2.800  -0.038   1.123
 1416SOL    HW2 4257   2.956  -0.002   1.154
 1417SOL     OW 4258   2.632   1.330   0.301
 1417SOL    HW1 4259   2.586   1.243   0.318
 1417SOL    HW2 4260   2.723   1.327   0.342
 1418SOL     OW 4261   2.480   1.567   1.284
 1418SOL    HW1 4262   2.475   1.649   1.341
 1418SOL    HW2 4263   2.569   1.564   1.239
 1419SOL     OW 4264   3.214   0.052   0.168
 1419SOL    HW1 4265   3.249   0.011   0.084
 1419SOL    HW2 4266   3.124   0.014   0.188
 1420SOL     OW 4267   3.162   0.453   0.691
 1420SOL    HW1 4268   3.103   0.533   0.695
 1420SOL    HW2 4269   3.177   0.418   0.784
 1421SOL     OW 4270   3.455   0.221   0.882
 1421SOL    HW1 4271   3.371   0.220   0.936
 1421SOL    HW2 4272   3.457   0.304   0.826
 1422SOL     OW 4273   1.901   1.077   0.300
 1422SOL    HW1 4274   2.000   1.066   0.291
 1422SOL    HW2 4275   1.861   0.991   0.332
 1423SOL     OW 4276   2.737   1.646   0.337
 1423SOL    HW1 4277   2.660   1.611   0.283
 1423SOL    HW2 4278   2.705   1.717   0.399
 1424SOL     OW 4279   2.092   0.628   1.975
 1424SOL    HW1 4280   1.999   0.626   2.012
 1424SOL    HW2 4281   2.093   0.589   1.883
 1425SOL     OW 4282   2.087   0.275   2.858
 1425SOL    HW1 4283   2.122   0.258   2.950
 1425SOL    HW2 4284   1.999   0.230   2.846
 1426SOL     OW 4285   1.881   0.368   2.509
 1426SOL    HW1 4286   1.799   0.411   2.548
 1426SOL    HW2 4287   1.853   0.295   2.446
 1427SOL     OW 4288   2.431   1.275   3.027
 1427SOL    HW1 4289   2.338   1.268   2.990
 1427SOL    HW2 4290   2.442   1.364   3.071
 1428SOL     OW 4291   3.417   1.511   2.565
 1428SOL    HW1 4292   3.360   1.495   2.646
 1428SOL    HW2 4293   3.358   1.521   2.485
 1429SOL     OW 4294   2.997   0.703   2.579
 1429SOL    HW1 4295   3.054   0.781   2.554
 1429SOL    HW2 4296   2.937   0.729   2.655
 1430SOL     OW 4297   3.617   0.607   2.093
 1430SOL    HW1 4298   3.605   0.594   1.994
 1430SOL    HW2 4299   3.587   0.526   2.142
 1431SOL     OW 4300   2.630   1.144   2.885
 1431SOL    HW1 4301   2.552   1.161   2.945
 1431SOL    HW2 4302   2.664   1.231   2.849
 1432SOL     OW 4303   2.712   0.798   3.685
 1432SOL    HW1 4304   2.708   0.874   3.750
 1432SOL    HW2 4305   2.734   0.834   3.594
 1433SOL     OW 4306   2.547   1.012   2.527
 1433SOL    HW1 4307   2.616   0.996   2.597
 1433SOL    HW2 4308   2.474   1.069   2.565
 1434SOL     OW 4309   2.548   1.161   3.665
 1434SOL    HW1 4310   2.608   1.240   3.679
 1434SOL    HW2 4311   2.462   1.192   3.624
 1435SOL     OW 4312   2.197   1.435   2.923
 1435SOL    HW1 4313   2.119   1.404   2.870
 1435SOL    HW2 4314   2.255   1.493   2.866
 1436SOL     OW 4315   3.322   1.505   3.201
 1436SOL    HW1 4316   3.346   1.599   3.227
 1436SOL    HW2 4317   3.306   1.451   3.283
 1437SOL     OW 4318   2.300   0.392   3.361
 1437SOL    HW1 4319   2.382   0.336   3.370
 1437SOL    HW2 4320   2.219   0.334   3.365
 1438SOL     OW 4321   3.465   0.447   2.599
 1438SOL    HW1 4322   3.391   0.493   2.549
 1438SOL    HW2 4323   3.516   0.515   2.652
 1439SOL     OW 4324   2.093   1.713   2.345
 1439SOL    HW1 4325   2.127   1.790   2.399
 1439SOL    HW2 4326   2.137   1.713   2.255
 1440SOL     OW 4327   2.989   1.341   3.552
 1440SOL    HW1 4328   3.036   1.341   3.640
 1440SOL    HW2 4329   2.941   1.254   3.541
 1441SOL     OW 4330   2.092   1.434   2.400
 1441SOL    HW1 4331   2.066   1.530   2.400
 1441SOL    HW2 4332   2.021   1.380   2.445
 1442SOL     OW 4333   2.102   1.091   2.748
 1442SOL    HW1 4334   2.116   1.007   2.800
 1442SOL    HW2 4335   2.047   1.155   2.803
 1443SOL     OW 4336   2.482   1.786   3.301
 1443SOL    HW1 4337   2.390   1.769   3.336
 1443SOL    HW2 4338   2.510   1.878   3.327
 1444SOL     OW 4339   2.468   0.964   1.985
 1444SOL    HW1 4340   2.475   1.048   1.931
 1444SOL    HW2 4341   2.514   0.977   2.073
 1445SOL     OW 4342   3.456   0.114   3.342
 1445SOL    HW1 4343   3.438   0.181   3.270
 1445SOL    HW2 4344   3.453   0.160   3.431
 1446SOL     OW 4345   1.984   0.643   2.425
 1446SOL    HW1 4346   1.939   0.555   2.442
 1446SOL    HW2 4347   1.983   0.697   2.509
 1447SOL     OW 4348   3.704   1.767   2.221
 1447SOL    HW1 4349   3.758   1.738   2.301
 1447SOL    HW2 4350   3.734   1.857   2.192
 1448SOL     OW 4351   1.889   1.596   1.979
 1448SOL    HW1 4352   1.870   1.500   2.000
 1448SOL    HW2 4353   1.856   1.654   2.054
 1449SOL     OW 4354   3.551   0.922   2.474
 1449SOL    HW1 4355   3.646   0.893   2.482
 1449SOL    HW2 4356   3.543   0.987   2.399
 1450SOL     OW 4357   3.503   1.108   2.294
 1450SOL    HW1 4358   3.589   1.110   2.242
 1450SOL    HW2 4359   3.517   1.155   2.382
 1451SOL     OW 4360   1.975   0.737   3.459
 1451SOL    HW1 4361   2.063   0.724   3.504
 1451SOL    HW2 4362   1.962   0.834   3.437
 1452SOL     OW 4363   2.475   1.365   2.588
 1452SOL    HW1 4364   2.426   1.278   2.597
 1452SOL    HW2 4365   2.452   1.408   2.501
 1453SOL     OW 4366   3.155   1.228   3.285
 1453SOL    HW1 4367   3.192   1.155   3.227
 1453SOL    HW2 4368   3.207   1.233   3.370
 1454SOL     OW 4369   2.671   0.004   2.364
 1454SOL    HW1 4370   2.711   0.095   2.355
 1454SOL    HW2 4371   2.571   0.012   2.370
 1455SOL     OW 4372   2.059   0.976   3.126
 1455SOL    HW1 4373   2.148   0.931   3.112
 1455SOL    HW2 4374   1.986   0.911   3.107
 1456SOL     OW 4375   3.387   0.999   2.052
 1456SOL    HW1 4376   3.324   0.923   2.065
 1456SOL    HW2 4377   3.435   1.017   2.138
 1457SOL     OW 4378   3.049   1.792   3.478
 1457SOL    HW1 4379   3.073   1.852   3.402
 1457SOL    HW2 4380   3.056   1.697   3.448
 1458SOL     OW 4381   2.179   0.251   3.663
 1458SOL    HW1 4382   2.250   0.322   3.669
 1458SOL    HW2 4383   2.091   0.290   3.691
 1459SOL     OW 4384   3.328   1.417   2.815
 1459SOL    HW1 4385   3.269   1.423   2.895
 1459SOL    HW2 4386   3.313   1.329   2.769
 1460SOL     OW 4387   3.529   1.714   2.434
 1460SOL    HW1 4388   3.488   1.691   2.346
 1460SOL    HW2 4389   3.511   1.640   2.499
 1461SOL     OW 4390   2.460   0.729   2.132
 1461SOL    HW1 4391   2.484   0.798   2.064
 1461SOL    HW2 4392   2.382   0.762   2.186
 1462SOL     OW 4393   3.143   0.345   2.806
 1462SOL    HW1 4394   3.057   0.295   2.793
 1462SOL    HW2 4395   3.205   0.291   2.862
 1463SOL     OW 4396   3.438   1.662   2.169
 1463SOL    HW1 4397   3.527   1.708   2.172
 1463SOL    HW2 4398   3.417   1.638   2.074
 1464SOL     OW 4399   2.669   0.605   3.327
 1464SOL    HW1 4400   2.622   0.602   3.416
 1464SOL    HW2 4401   2.618   0.550   3.261
 1465SOL     OW 4402   3.256   0.469   3.536
 1465SOL    HW1 4403   3.236   0.512   3.624
 1465SOL    HW2 4404   3.334   0.407   3.545
 1466SOL     OW 4405   2.835   0.890   3.434
 1466SOL    HW1 4406   2.881   0.806   3.405
 1466SOL    HW2 4407   2.779   0.924   3.359
 1467SOL     OW 4408   2.853   0.410   3.104
 1467SOL    HW1 4409   2.776   0.444   3.158
 1467SOL    HW2 4410   2.819   0.359   3.025
 1468SOL     OW 4411   2.903   0.701   2.291
 1468SOL    HW1 4412   2.929   0.697   2.387
 1468SOL    HW2 4413   2.818   0.650   2.277
 1469SOL     OW 4414   1.938   0.811   2.651
 1469SOL    HW1 4415   2.037   0.799   2.660
 1469SOL    HW2 4416   1.914   0.906   2.672
 1470SOL     OW 4417   1.992   1.821   3.433
 1470SOL    HW1 4418   1.982   1.806   3.532
 1470SOL    HW2 4419   1.906   1.857   3.397
 1471SOL     OW 4420   2.727   0.348   2.057
 1471SOL    HW1 4421   2.786   0.411   2.008
 1471SOL    HW2 4422   2.746   0.254   2.028
 1472SOL     OW 4423   3.581   0.585   3.693
 1472SOL    HW1 4424   3.555   0.674   3.657
 1472SOL    HW2 4425   3.579   0.517   3.620
 1473SOL     OW 4426   3.224   1.144   2.407
 1473SOL    HW1 4427   3.307   1.115   2.359
 1473SOL    HW2 4428   3.175   1.211   2.351
 1474SOL     OW 4429   2.412   0.196   2.747
 1474SOL    HW1 4430   2.407   0.191   2.847
 1474SOL    HW2 4431   2.414   0.292   2.718
 1475SOL     OW 4432   2.870   1.456   2.339
 1475SOL    HW1 4433   2.824   1.528   2.287
 1475SOL    HW2 4434   2.866   1.476   2.437
 1476SOL     OW 4435   2.213   1.801   2.715
 1476SOL    HW1 4436   2.263   1.715   2.721
 1476SOL    HW2 4437   2.278   1.878   2.712
 1477SOL     OW 4438   3.657   1.066   2.735
 1477SOL    HW1 4439   3.595   1.051   2.659
 1477SOL    HW2 4440   3.605   1.077   2.820
 1478SOL     OW 4441   3.089   1.550   3.368
 1478SOL    HW1 4442   3.095   1.473   3.432
 1478SOL    HW2 4443   3.037   1.524   3.288
 1479SOL     OW 4444   2.183   0.943   2.104
 1479SOL    HW1 4445   2.265   0.982   2.062
 1479SOL    HW2 4446   2.156   0.861   2.055
 1480SOL     OW 4447   3.320   0.735   2.590
 1480SOL    HW1 4448   3.315   0.670   2.665
 1480SOL    HW2 4449   3.400   0.794   2.603
 1481SOL     OW 4450   2.323   1.266   3.589
 1481SOL    HW1 4451   2.273   1.267   3.503
 1481SOL    HW2 4452   2.260   1.248   3.665
 1482SOL     OW 4453   2.973   1.776   2.099
 1482SOL    HW1 4454   2.913   1.714   2.149
 1482SOL    HW2 4455   3.004   1.732   2.014
 1483SOL     OW 4456   2.064   0.285   3.360
 1483SOL    HW1 4457   1.984   0.345   3.347
 1483SOL    HW2 4458   2.054   0.236   3.446
 1484SOL     OW 4459   3.494   1.377   1.943
 1484SOL    HW1 4460   3.462   1.471   1.933
 1484SOL    HW2 4461   3.418   1.314   1.931
 1485SOL     OW 4462   2.326   1.743   2.185
 1485SOL    HW1 4463   2.359   1.782   2.271
 1485SOL    HW2 4464   2.402   1.736   2.120
 1486SOL     OW 4465   3.262   0.107   2.288
 1486SOL    HW1 4466   3.238   0.070   2.198
 1486SOL    HW2 4467   3.361   0.123   2.292
 1487SOL     OW 4468   2.111   1.785   3.103
 1487SOL    HW1 4469   2.168   1.720   3.153
 1487SOL    HW2 4470   2.095   1.752   3.010
 1488SOL     OW 4471   2.802   1.698   2.766
 1488SOL    HW1 4472   2.882   1.641   2.787
 1488SOL    HW2 4473   2.753   1.658   2.689
 1489SOL     OW 4474   2.244   0.700   2.342
 1489SOL    HW1 4475   2.289   0.610   2.339
 1489SOL    HW2 4476   2.150   0.689   2.375
 1490SOL     OW 4477   3.409   0.222   3.591
 1490SOL    HW1 4478   3.404   0.259   3.683
 1490SOL    HW2 4479   3.337   0.153   3.579
 1491SOL     OW 4480   2.476   0.122   1.979
 1491SOL    HW1 4481   2.574   0.100   1.986
 1491SOL    HW2 4482   2.445   0.105   1.886
 1492SOL     OW 4483   2.643   0.264   3.611
 1492SOL    HW1 4484   2.710   0.203   3.654
 1492SOL    HW2 4485   2.570   0.283   3.676
 1493SOL     OW 4486   2.750   1.514   3.057
 1493SOL    HW1 4487   2.727   1.489   2.963
 1493SOL    HW2 4488   2.811   1.445   3.096
 1494SOL     OW 4489   3.213   0.590   3.295
 1494SOL    HW1 4490   3.241   0.547   3.380
 1494SOL    HW2 4491   3.238   0.686   3.296
 1495SOL     OW 4492   2.665   1.402   2.786
 1495SOL    HW1 4493   2.755   1.416   2.744
 1495SOL    HW2 4494   2.594   1.404   2.715
 1496SOL     OW 4495   2.784   0.503   2.761
 1496SOL    HW1 4496   2.759   0.494   2.665
 1496SOL    HW2 4497   2.832   0.421   2.792
 1497SOL     OW 4498   2.401   0.064   2.374
 1497SOL    HW1 4499   2.320   0.065   2.432
 1497SOL    HW2 4500   2.404   0.147   2.319
 1498SOL     OW 4501   3.296   1.188   1.903
 1498SOL    HW1 4502   3.328   1.112   1.960
 1498SOL    HW2 4503   3.204   1.215   1.933
 1499SOL     OW 4504   2.159   0.035   2.033
 1499SOL    HW1 4505   2.208   0.119   2.012
 1499SOL    HW2 4506   2.221  -0.030   2.078
 1500SOL     OW 4507   2.797   0.236   2.342
 1500SOL    HW1 4508   2.749   0.277   2.264
 1500SOL    HW2 4509   2.896   0.234   2.323
 1501SOL     OW 4510   2.938   0.683   3.326
 1501SOL    HW1 4511   2.858   0.622   3.329
 1501SOL    HW2 4512   3.019   0.630   3.302
 1502SOL     OW 4513   3.089   1.570   2.655
 1502SOL    HW1 4514   3.110   1.644   2.590
 1502SOL    HW2 4515   3.157   1.570   2.728
 1503SOL     OW 4516   2.321   1.152   2.603
 1503SOL    HW1 4517   2.250   1.125   2.668
 1503SOL    HW2 4518   2.295   1.124   2.510
 1504SOL     OW 4519   3.133   1.797   2.453
 1504SOL    HW1 4520   3.177   1.861   2.389
 1504SOL    HW2 4521   3.083   1.849   2.523
 1505SOL     OW 4522   2.894   0.549   1.878
 1505SOL    HW1 4523   2.853   0.631   1.839
 1505SOL    HW2 4524   2.958   0.575   1.951
 1506SOL     OW 4525   1.940   0.556   3.248
 1506SOL    HW1 4526   2.032   0.555   3.207
 1506SOL    HW2 4527   1.934   0.630   3.315
 1507SOL     OW 4528   2.423   0.222   3.009
 1507SOL    HW1 4529   2.461   0.138   3.046
 1507SOL    HW2 4530   2.335   0.241   3.053
 1508SOL     OW 4531   2.728   0.454   2.504
 1508SOL    HW1 4532   2.696   0.526   2.442
 1508SOL    HW2 4533   2.752   0.373   2.451
 1509SOL     OW 4534   2.879   0.039   2.615
 1509SOL    HW1 4535   2.807   0.044   2.546
 1509SOL    HW2 4536   2.855  -0.030   2.684
 1510SOL     OW 4537   3.291   1.173   2.729
 1510SOL    HW1 4538   3.236   1.089   2.722
 1510SOL    HW2 4539   3.317   1.202   2.637
 1511SOL     OW 4540   3.328   0.590   2.854
 1511SOL    HW1 4541   3.298   0.495   2.861
 1511SOL    HW2 4542   3.401   0.606   2.920
 1512SOL     OW 4543   3.719   0.833   2.239
 1512SOL    HW1 4544   3.761   0.769   2.303
 1512SOL    HW2 4545   3.681   0.782   2.161
 1513SOL     OW 4546   2.350   1.385   2.036
 1513SOL    HW1 4547   2.263   1.370   2.083
 1513SOL    HW2 4548   2.333   1.411   1.941
 1514SOL     OW 4549   3.526   1.280   2.519
 1514SOL    HW1 4550   3.625   1.288   2.533
 1514SOL    HW2 4551   3.481   1.364   2.550
 1515SOL     OW 4552   3.252   0.575   1.940
 1515SOL    HW1 4553   3.198   0.554   2.021
 1515SOL    HW2 4554   3.343   0.534   1.949
 1516SOL     OW 4555   2.389   0.256   2.190
 1516SOL    HW1 4556   2.416   0.197   2.115
 1516SOL    HW2 4557   2.389   0.351   2.159
 1517SOL     OW 4558   3.616   1.223   3.450
 1517SOL    HW1 4559   3.707   1.184   3.437
 1517SOL    HW2 4560   3.624   1.319   3.474
 1518SOL     OW 4561   2.926   1.347   3.202
 1518SOL    HW1 4562   2.846   1.324   3.257
 1518SOL    HW2 4563   3.009   1.321   3.251
 1519SOL     OW 4564   3.454   1.629   3.487
 1519SOL    HW1 4565   3.481   1.663   3.397
 1519SOL    HW2 4566   3.533   1.591   3.533
 1520SOL     OW 4567   2.973   1.195   2.962
 1520SOL    HW1 4568   2.933   1.239   3.043
 1520SOL    HW2 4569   2.932   1.232   2.879
 1521SOL     OW 4570   3.500   1.099   2.941
 1521SOL    HW1 4571   3.505   1.180   3.000
 1521SOL    HW2 4572   3.414   1.101   2.890
 1522SOL     OW 4573   2.777   0.089   3.264
 1522SOL    HW1 4574   2.802   0.069   3.169
 1522SOL    HW2 4575   2.849   0.145   3.306
 1523SOL     OW 4576   2.842   1.116   3.581
 1523SOL    HW1 4577   2.743   1.122   3.591
 1523SOL    HW2 4578   2.865   1.036   3.525
 1524SOL     OW 4579   2.567   1.050   2.230
 1524SOL    HW1 4580   2.553   1.057   2.329
 1524SOL    HW2 4581   2.651   0.999   2.212
 1525SOL     OW 4582   2.272   0.813   3.113
 1525SOL    HW1 4583   2.358   0.825   3.163
 1525SOL    HW2 4584   2.230   0.726   3.140
 1526SOL     OW 4585   3.136   0.386   3.124
 1526SOL    HW1 4586   3.157   0.460   3.188
 1526SOL    HW2 4587   3.047   0.403   3.081
 1527SOL     OW 4588   1.926   1.564   3.193
 1527SOL    HW1 4589   1.880   1.646   3.159
 1527SOL    HW2 4590   2.024   1.583   3.202
 1528SOL     OW 4591   2.229   1.100   2.363
 1528SOL    HW1 4592   2.222   1.183   2.307
 1528SOL    HW2 4593   2.233   1.020   2.303
 1529SOL     OW 4594   2.428   0.537   2.727
 1529SOL    HW1 4595   2.440   0.603   2.653
 1529SOL    HW2 4596   2.474   0.571   2.810
 1530SOL     OW 4597   3.114   1.348   2.250
 1530SOL    HW1 4598   3.164   1.425   2.290
 1530SOL    HW2 4599   3.019   1.350   2.282
 1531SOL     OW 4600   3.134   1.445   3.004
 1531SOL    HW1 4601   3.181   1.458   3.091
 1531SOL    HW2 4602   3.068   1.371   3.013
 1532SOL     OW 4603   3.444   0.639   2.334
 1532SOL    HW1 4604   3.413   0.700   2.407
 1532SOL    HW2 4605   3.494   0.691   2.265
 1533SOL     OW 4606   2.216   1.510   3.191
 1533SOL    HW1 4607   2.195   1.466   3.104
 1533SOL    HW2 4608   2.313   1.536   3.194
 1534SOL     OW 4609   2.264   0.751   3.460
 1534SOL    HW1 4610   2.332   0.806   3.413
 1534SOL    HW2 4611   2.304   0.663   3.487
 1535SOL     OW 4612   3.449   0.779   3.532
 1535SOL    HW1 4613   3.357   0.817   3.527
 1535SOL    HW2 4614   3.509   0.826   3.467
 1536SOL     OW 4615   2.875   0.105   3.632
 1536SOL    HW1 4616   2.881   0.190   3.580
 1536SOL    HW2 4617   2.907   0.029   3.575
 1537SOL     OW 4618   2.366   0.050   3.602
 1537SOL    HW1 4619   2.324  -0.007   3.532
 1537SOL    HW2 4620   2.300   0.119   3.634
 1538SOL     OW 4621   2.435   0.870   2.891
 1538SOL    HW1 4622   2.479   0.959   2.882
 1538SOL    HW2 4623   2.372   0.870   2.968
 1539SOL     OW 4624   3.222   0.862   2.907
 1539SOL    HW1 4625   3.147   0.862   2.841
 1539SOL    HW2 4626   3.259   0.770   2.916
 1540SOL     OW 4627   3.071   0.525   2.137
 1540SOL    HW1 4628   3.084   0.441   2.191
 1540SOL    HW2 4629   3.042   0.599   2.197
 1541SOL     OW 4630   2.169   0.213   3.093
 1541SOL    HW1 4631   2.146   0.250   3.183
 1541SOL    HW2 4632   2.139   0.118   3.087
 1542SOL     OW 4633   1.899   1.310   3.144
 1542SOL    HW1 4634   1.952   1.261   3.212
 1542SOL    HW2 4635   1.921   1.408   3.149
 1543SOL     OW 4636   2.594   0.634   2.926
 1543SOL    HW1 4637   2.653   0.608   2.850
 1543SOL    HW2 4638   2.566   0.730   2.915
 1544SOL     OW 4639   3.590   0.935   3.716
 1544SOL    HW1 4640   3.544   0.928   3.627
 1544SOL    HW2 4641   3.528   0.979   3.782
 1545SOL     OW 4642   2.169   0.063   2.480
 1545SOL    HW1 4643   2.158   0.157   2.513
 1545SOL    HW2 4644   2.164   0.000   2.557
 1546SOL     OW 4645   3.484   0.367   2.236
 1546SOL    HW1 4646   3.486   0.291   2.300
 1546SOL    HW2 4647   3.436   0.444   2.276
 1547SOL     OW 4648   2.885   0.766   2.828
 1547SOL    HW1 4649   2.900   0.787   2.924
 1547SOL    HW2 4650   2.855   0.671   2.819
 1548SOL     OW 4651   2.842   1.573   3.562
 1548SOL    HW1 4652   2.822   1.617   3.474
 1548SOL    HW2 4653   2.881   1.482   3.546
 1549SOL     OW 4654   3.721   1.518   3.467
 1549SOL    HW1 4655   3.735   1.545   3.372
 1549SOL    HW2 4656   3.804   1.540   3.520
 1550SOL     OW 4657   2.212   0.898   3.666
 1550SOL    HW1 4658   2.288   0.942   3.714
 1550SOL    HW2 4659   2.247   0.851   3.584
 1551SOL     OW 4660   3.402   0.274   1.987
 1551SOL    HW1 4661   3.341   0.199   2.010
 1551SOL    HW2 4662   3.424   0.326   2.070
 1552SOL     OW 4663   3.165   0.838   1.904
 1552SOL    HW1 4664   3.199   0.745   1.919
 1552SOL    HW2 4665   3.183   0.865   1.809
 1553SOL     OW 4666   2.930   1.333   2.711
 1553SOL    HW1 4667   2.937   1.249   2.656
 1553SOL    HW2 4668   2.992   1.402   2.675
 1554SOL     OW 4669   2.181   0.810   2.811
 1554SOL    HW1 4670   2.274   0.846   2.816
 1554SOL    HW2 4671   2.175   0.725   2.863
 1555SOL     OW 4672   2.201   0.509   2.868
 1555SOL    HW1 4673   2.149   0.426   2.851
 1555SOL    HW2 4674   2.278   0.514   2.804
 1556SOL     OW 4675   3.000   0.380   3.540
 1556SOL    HW1 4676   2.955   0.443   3.604
 1556SOL    HW2 4677   3.093   0.411   3.523
 1557SOL     OW 4678   3.022   0.207   3.339
 1557SOL    HW1 4679   3.022   0.271   3.416
 1557SOL    HW2 4680   3.050   0.255   3.256
 1558SOL     OW 4681   1.870   1.326   2.062
 1558SOL    HW1 4682   1.777   1.347   2.031
 1558SOL    HW2 4683   1.880   1.227   2.075
 1559SOL     OW 4684   1.950   1.801   2.789
 1559SOL    HW1 4685   1.908   1.715   2.762
 1559SOL    HW2 4686   2.044   1.804   2.755
 1560SOL     OW 4687   2.366   1.568   2.772
 1560SOL    HW1 4688   2.432   1.642   2.781
 1560SOL    HW2 4689   2.410   1.489   2.730
 1561SOL     OW 4690   2.864   0.796   3.100
 1561SOL    HW1 4691   2.905   0.764   3.186
 1561SOL    HW2 4692   2.768   0.769   3.097
 1562SOL     OW 4693   1.902   0.544   2.976
 1562SOL    HW1 4694   1.987   0.511   2.935
 1562SOL    HW2 4695   1.915   0.559   3.074
 1563SOL     OW 4696   2.051   0.520   3.584
 1563SOL    HW1 4697   2.110   0.480   3.514
 1563SOL    HW2 4698   1.993   0.591   3.543
 1564SOL     OW 4699   3.231   0.950   3.522
 1564SOL    HW1 4700   3.270   1.039   3.542
 1564SOL    HW2 4701   3.241   0.930   3.425
 1565SOL     OW 4702   2.677   0.572   2.187
 1565SOL    HW1 4703   2.684   0.483   2.141
 1565SOL    HW2 4704   2.583   0.606   2.179
 1566SOL     OW 4705   3.519   0.604   3.068
 1566SOL    HW1 4706   3.481   0.535   3.130
 1566SOL    HW2 4707   3.601   0.568   3.024
 1567SOL     OW 4708   2.114   1.564   3.606
 1567SOL    HW1 4709   2.084   1.621   3.682
 1567SOL    HW2 4710   2.107   1.467   3.632
 1568SOL     OW 4711   2.533   0.464   3.131
 1568SOL    HW1 4712   2.499   0.375   3.101
 1568SOL    HW2 4713   2.559   0.518   3.051
 1569SOL     OW 4714   2.792   1.678   3.327
 1569SOL    HW1 4715   2.768   1.660   3.232
 1569SOL    HW2 4716   2.822   1.772   3.337
 1570SOL     OW 4717   2.335   0.500   2.053
 1570SOL    HW1 4718   2.396   0.580   2.057
 1570SOL    HW2 4719   2.240   0.531   2.060
 1571SOL     OW 4720   2.021   1.137   3.328
 1571SOL    HW1 4721   2.043   1.076   3.404
 1571SOL    HW2 4722   2.031   1.088   3.242
 1572SOL     OW 4723   3.209   1.059   3.096
 1572SOL    HW1 4724   3.233   0.996   3.022
 1572SOL    HW2 4725   3.119   1.099   3.078
 1573SOL     OW 4726   3.164   0.855   2.171
 1573SOL    HW1 4727   3.078   0.824   2.213
 1573SOL    HW2 4728   3.160   0.841   2.072
 1574SOL     OW 4729   3.621   1.747   3.016
 1574SOL    HW1 4730   3.682   1.777   2.943
 1574SOL    HW2 4731   3.583   1.658   2.994
 1575SOL     OW 4732   3.114   1.731   2.990
 1575SOL    HW1 4733   3.198   1.736   2.936
 1575SOL    HW2 4734   3.091   1.635   3.008
 1576SOL     OW 4735   1.945   1.258   2.884
 1576SOL    HW1 4736   1.940   1.257   2.984
 1576SOL    HW2 4737   1.862   1.217   2.846
 1577SOL     OW 4738   2.550   1.662   3.578
 1577SOL    HW1 4739   2.494   1.743   3.587
 1577SOL    HW2 4740   2.602   1.666   3.492
 1578SOL     OW 4741   3.588   0.135   2.385
 1578SOL    HW1 4742   3.661   0.118   2.318
 1578SOL    HW2 4743   3.557   0.048   2.423
 1579SOL     OW 4744   3.250   1.573   2.339
 1579SOL    HW1 4745   3.317   1.585   2.265
 1579SOL    HW2 4746   3.210   1.662   2.362
 1580SOL     OW 4747   1.992   1.794   3.713
 1580SOL    HW1 4748   1.951   1.720   3.766
 1580SOL    HW2 4749   2.056   1.845   3.771
 1581SOL     OW 4750   3.142   0.927   2.534
 1581SOL    HW1 4751   3.202   0.846   2.536
 1581SOL    HW2 4752   3.182   0.996   2.474
 1582SOL     OW 4753   2.692   1.273   3.284
 1582SOL    HW1 4754   2.687   1.306   3.379
 1582SOL    HW2 4755   2.606   1.292   3.238
 1583SOL     OW 4756   2.534   1.616   2.016
 1583SOL    HW1 4757   2.543   1.626   1.917
 1583SOL    HW2 4758   2.494   1.527   2.037
 1584SOL     OW 4759   3.512   1.720   3.256
 1584SOL    HW1 4760   3.565   1.730   3.172
 1584SOL    HW2 4761   3.485   1.810   3.290
 1585SOL     OW 4762   3.703   0.175   2.825
 1585SOL    HW1 4763   3.742   0.090   2.789
 1585SOL    HW2 4764   3.605   0.177   2.806
 1586SOL     OW 4765   2.125   0.326   2.582
 1586SOL    HW1 4766   2.046   0.377   2.548
 1586SOL    HW2 4767   2.116   0.311   2.680
 1587SOL     OW 4768   3.056   1.612   1.893
 1587SOL    HW1 4769   3.062   1.519   1.930
 1587SOL    HW2 4770   2.997   1.612   1.813
 1588SOL     OW 4771   2.684   1.002   3.234
 1588SOL    HW1 4772   2.724   1.001   3.142
 1588SOL    HW2 4773   2.694   1.094   3.274
 1589SOL     OW 4774   2.778   0.910   2.153
 1589SOL    HW1 4775   2.841   0.948   2.085
 1589SOL    HW2 4776   2.818   0.827   2.192
 1590SOL     OW 4777   3.366   1.607   1.906
 1590SOL    HW1 4778   3.274   1.644   1.913
 1590SOL    HW2 4779   3.404   1.627   1.816
 1591SOL     OW 4780   2.234   1.288   3.352
 1591SOL    HW1 4781   2.221   1.381   3.318
 1591SOL    HW2 4782   2.150   1.236   3.339
 1592SOL     OW 4783   3.476   1.292   3.151
 1592SOL    HW1 4784   3.536   1.295   3.231
 1592SOL    HW2 4785   3.401   1.356   3.164
 1593SOL     OW 4786   2.901   1.098   2.558
 1593SOL    HW1 4787   2.831   1.051   2.612
 1593SOL    HW2 4788   2.960   1.030   2.515
 1594SOL     OW 4789   2.876   0.236   2.833
 1594SOL    HW1 4790   2.868   0.200   2.740
 1594SOL    HW2 4791   2.874   0.160   2.898
 1595SOL     OW 4792   2.452   1.487   2.353
 1595SOL    HW1 4793   2.494   1.429   2.283
 1595SOL    HW2 4794   2.408   1.566   2.309
 1596SOL     OW 4795   3.571   0.385   3.243
 1596SOL    HW1 4796   3.644   0.454   3.247
 1596SOL    HW2 4797   3.599   0.310   3.184
 1597SOL     OW 4798   2.117   1.348   2.152
 1597SOL    HW1 4799   2.021   1.349   2.125
 1597SOL    HW2 4800   2.129   1.401   2.236
 1598SOL     OW 4801   1.967   1.013   3.588
 1598SOL    HW1 4802   1.890   0.980   3.642
 1598SOL    HW2 4803   2.052   0.983   3.630
 1599SOL     OW 4804   2.534   0.203   3.351
 1599SOL    HW1 4805   2.624   0.187   3.311
 1599SOL    HW2 4806   2.542   0.208   3.450
 1600SOL     OW 4807   1.937   0.345   1.895
 1600SOL    HW1 4808   1.845   0.317   1.866
 1600SOL    HW2 4809   1.968   0.422   1.839
 1601SOL     OW 4810   3.302   0.856   3.260
 1601SOL    HW1 4811   3.245   0.908   3.197
 1601SOL    HW2 4812   3.398   0.868   3.236
 1602SOL     OW 4813   1.934   0.166   2.180
 1602SOL    HW1 4814   1.917   0.249   2.126
 1602SOL    HW2 4815   2.024   0.129   2.158
 1603SOL     OW 4816   3.045   1.335   1.981
 1603SOL    HW1 4817   2.946   1.324   1.983
 1603SOL    HW2 4818   3.079   1.350   2.074
 1604SOL     OW 4819   2.475   0.842   3.293
 1604SOL    HW1 4820   2.531   0.923   3.276
 1604SOL    HW2 4821   2.534   0.762   3.296
 1605SOL     OW 4822   3.355   1.767   2.821
 1605SOL    HW1 4823   3.388   1.831   2.752
 1605SOL    HW2 4824   3.421   1.761   2.896
 1606SOL     OW 4825   2.578   0.565   3.570
 1606SOL    HW1 4826   2.597   0.630   3.644
 1606SOL    HW2 4827   2.638   0.485   3.579
 1607SOL     OW 4828   3.312   1.220   3.495
 1607SOL    HW1 4829   3.303   1.210   3.594
 1607SOL    HW2 4830   3.408   1.213   3.469
 1608SOL     OW 4831   2.252   1.741   3.422
 1608SOL    HW1 4832   2.161   1.782   3.420
 1608SOL    HW2 4833   2.245   1.647   3.454
 1609SOL     OW 4834   3.536   0.883   3.116
 1609SOL    HW1 4835   3.509   0.794   3.079
 1609SOL    HW2 4836   3.537   0.951   3.043
 1610SOL     OW 4837   3.087   0.325   2.311
 1610SOL    HW1 4838   3.152   0.251   2.300
 1610SOL    HW2 4839   3.107   0.375   2.395
 1611SOL     OW 4840   2.456   0.745   2.514
 1611SOL    HW1 4841   2.506   0.830   2.495
 1611SOL    HW2 4842   2.368   0.747   2.466
 1612SOL     OW 4843   3.639   0.342   3.504
 1612SOL    HW1 4844   3.622   0.373   3.410
 1612SOL    HW2 4845   3.555   0.305   3.542
 1613SOL     OW 4846   3.592   0.934   3.379
 1613SOL    HW1 4847   3.630   1.025   3.394
 1613SOL    HW2 4848   3.584   0.917   3.280
 1614SOL     OW 4849   2.721   1.374   1.878
 1614SOL    HW1 4850   2.675   1.389   1.966
 1614SOL    HW2 4851   2.765   1.459   1.848
 1615SOL     OW 4852   2.523   1.790   2.815
 1615SOL    HW1 4853   2.477   1.878   2.802
 1615SOL    HW2 4854   2.622   1.802   2.808
 1616SOL     OW 4855   2.721   0.956   2.723
 1616SOL    HW1 4856   2.775   0.887   2.771
 1616SOL    HW2 4857   2.689   1.025   2.789
 1617SOL     OW 4858   2.945   0.984   1.949
 1617SOL    HW1 4859   2.922   1.037   1.867
 1617SOL    HW2 4860   3.026   0.928   1.930
 1618SOL     OW 4861   3.723   1.569   2.713
 1618SOL    HW1 4862   3.652   1.557   2.643
 1618SOL    HW2 4863   3.724   1.490   2.773
 1619SOL     OW 4864   2.083   1.314   3.706
 1619SOL    HW1 4865   2.018   1.241   3.685
 1619SOL    HW2 4866   2.087   1.328   3.804
 1620SOL     OW 4867   1.941   1.240   2.515
 1620SOL    HW1 4868   1.940   1.193   2.603
 1620SOL    HW2 4869   2.023   1.212   2.464
 1621SOL     OW 4870   2.534   1.391   3.486
 1621SOL    HW1 4871   2.456   1.341   3.524
 1621SOL    HW2 4872   2.531   1.486   3.517
 1622SOL     OW 4873   3.686   0.192   3.089
 1622SOL    HW1 4874   3.682   0.102   3.133
 1622SOL    HW2 4875   3.689   0.181   2.990
 1623SOL     OW 4876   2.290   0.424   2.382
 1623SOL    HW1 4877   2.320   0.352   2.320
 1623SOL    HW2 4878   2.251   0.384   2.465
 1624SOL     OW 4879   3.567   1.487   2.966
 1624SOL    HW1 4880   3.474   1.462   2.939
 1624SOL    HW2 4881   3.593   1.437   3.048
 1625SOL     OW 4882   2.179   0.547   3.142
 1625SOL    HW1 4883   2.217   0.488   3.214
 1625SOL    HW2 4884   2.219   0.521   3.054
 1626SOL     OW 4885   2.674   1.586   2.549
 1626SOL    HW1 4886   2.706   1.596   2.455
 1626SOL    HW2 4887   2.595   1.524   2.551
 1627SOL     OW 4888   3.286   0.214   2.974
 1627SOL    HW1 4889   3.338   0.149   3.029
 1627SOL    HW2 4890   3.237   0.277   3.035
 1628SOL     OW 4891   2.863   0.034   3.016
 1628SOL    HW1 4892   2.800  -0.038   2.985
 1628SOL    HW2 4893   2.956  -0.002   3.016
 1629SOL     OW 4894   2.632   1.330   2.163
 1629SOL    HW1 4895   2.586   1.243   2.180
 1629SOL    HW2 4896   2.723   1.327   2.204
 1630SOL     OW 4897   2.480   1.567   3.146
 1630SOL    HW1 4898   2.475   1.649   3.203
 1630SOL    HW2 4899   2.569   1.564   3.101
 1631SOL     OW 4900   3.214   0.052   2.030
 1631SOL    HW1 4901   3.249   0.011   1.946
 1631SOL    HW2 4902   3.124   0.014   2.050
 1632SOL     OW 4903   3.162   0.453   2.553
 1632SOL    HW1 4904   3.103   0.533   2.557
 1632SOL    HW2 4905   3.177   0.418   2.646
 1633SOL     OW 4906   3.455   0.221   2.744
 1633SOL    HW1 4907   3.371   0.220   2.798
 1633SOL    HW2 4908   3.457   0.304   2.688
 1634SOL     OW 4909   1.901   1.077   2.162
 1634SOL    HW1 4910   2.000   1.066   2.153
 1634SOL    HW2 4911   1.861   0.991   2.194
 1635SOL     OW 4912   2.737   1.646   2.199
 1635SOL    HW1 4913   2.660   1.611   2.145
 1635SOL    HW2 4914   2.705   1.717   2.261
 1636SOL     OW 4915   2.092   0.628   3.837
 1636SOL    HW1 4916   1.999   0.626   3.874
 1636SOL    HW2 4917   2.093   0.589   3.745
 1637SOL     OW 4918   2.087   0.275   4.720
 1637SOL    HW1 4919   2.122   0.258   4.812
 1637SOL    HW2 4920   1.999   0.230   4.708
 1638SOL     OW 4921   3.617   0.607   3.955
 1638SOL    HW1 4922   3.605   0.594   3.856
 1638SOL    HW2 4923   3.587   0.526   4.004
 1639SOL     OW 4924   3.465   0.447   4.461
 1639SOL    HW1 4925   3.391   0.493   4.411
 1639SOL    HW2 4926   3.516   0.515   4.514
 1640SOL     OW 4927   2.093   1.713   4.207
 1640SOL    HW1 4928   2.127   1.790   4.261
 1640SOL    HW2 4929   2.137   1.713   4.117
 1641SOL     OW 4930   2.092   1.434   4.262
 1641SOL    HW1 4931   2.066   1.530   4.262
 1641SOL    HW2 4932   2.021   1.380   4.307
 1642SOL     OW 4933   2.468   0.964   3.847
 1642SOL    HW1 4934   2.475   1.048   3.793
 1642SOL    HW2 4935   2.514   0.977   3.935
 1643SOL     OW 4936   1.984   0.643   4.287
 1643SOL    HW1 4937   1.939   0.555   4.304
 1643SOL    HW2 4938   1.983   0.697   4.371
 1644SOL     OW 4939   3.704   1.767   4.083
 1644SOL    HW1 4940   3.758   1.738   4.163
 1644SOL    HW2 4941   3.734   1.857   4.054
 1645SOL     OW 4942   1.889   1.596   3.841
 1645SOL    HW1 4943   1.870   1.500   3.862
 1645SOL    HW2 4944   1.856   1.654   3.916
 1646SOL     OW 4945   3.551   0.922   4.336
 1646SOL    HW1 4946   3.646   0.893   4.344
 1646SOL    HW2 4947   3.543   0.987   4.261
 1647SOL     OW 4948   3.503   1.108   4.156
 1647SOL    HW1 4949   3.589   1.110   4.104
 1647SOL    HW2 4950   3.517   1.155   4.244
 1648SOL     OW 4951   2.475   1.365   4.450
 1648SOL    HW1 4952   2.426   1.278   4.459
 1648SOL    HW2 4953   2.452   1.408   4.363
 1649SOL     OW 4954   2.671   0.004   4.226
 1649SOL    HW1 4955   2.711   0.095   4.217
 1649SOL    HW2 4956   2.571   0.012   4.232
 1650SOL     OW 4957   3.387   0.999   3.914
 1650SOL    HW1 4958   3.324   0.923   3.927
 1650SOL    HW2 4959   3.435   1.017   4.000
 1651SOL     OW 4960   3.328   1.417   4.677
 1651SOL    HW1 4961   3.269   1.423   4.757
 1651SOL    HW2 4962   3.313   1.329   4.631
 1652SOL     OW 4963   2.460   0.729   3.994
 1652SOL    HW1 4964   2.484   0.798   3.926
 1652SOL    HW2 4965   2.382   0.762   4.048
 1653SOL     OW 4966   3.143   0.345   4.668
 1653SOL    HW1 4967   3.057   0.295   4.655
 1653SOL    HW2 4968   3.205   0.291   4.724
 1654SOL     OW 4969   3.438   1.662   4.031
 1654SOL    HW1 4970   3.527   1.708   4.034
 1654SOL    HW2 4971   3.417   1.638   3.936
 1655SOL     OW 4972   2.903   0.701   4.153
 1655SOL    HW1 4973   2.929   0.697   4.249
 1655SOL    HW2 4974   2.818   0.650   4.139
 1656SOL     OW 4975   1.938   0.811   4.513
 1656SOL    HW1 4976   2.037   0.799   4.522
 1656SOL    HW2 4977   1.914   0.906   4.534
 1657SOL     OW 4978   2.727   0.348   3.919
 1657SOL    HW1 4979   2.786   0.411   3.870
 1657SOL    HW2 4980   2.746   0.254   3.890
 1658SOL     OW 4981   3.224   1.144   4.269
 1658SOL    HW1 4982   3.307   1.115   4.221
 1658SOL    HW2 4983   3.175   1.211   4.213
 1659SOL     OW 4984   2.870   1.456   4.201
 1659SOL    HW1 4985   2.824   1.528   4.149
 1659SOL    HW2 4986   2.866   1.476   4.299
 1660SOL     OW 4987   2.213   1.801   4.577
 1660SOL    HW1 4988   2.263   1.715   4.583
 1660SOL    HW2 4989   2.278   1.878   4.574
 1661SOL     OW 4990   3.657   1.066   4.597
 1661SOL    HW1 4991   3.595   1.051   4.521
 1661SOL    HW2 4992   3.605   1.077   4.682
 1662SOL     OW 4993   2.183   0.943   3.966
 1662SOL    HW1 4994   2.265   0.982   3.924
 1662SOL    HW2 4995   2.156   0.861   3.917
 1663SOL     OW 4996   2.973   1.776   3.961
 1663SOL    HW1 4997   2.913   1.714   4.011
 1663SOL    HW2 4998   3.004   1.732   3.876
 1664SOL     OW 4999   3.494   1.377   3.805
 1664SOL    HW1 5000   3.462   1.471   3.795
 1664SOL    HW2 5001   3.418   1.314   3.793
 1665SOL     OW 5002   2.326   1.743   4.047
 1665SOL    HW1 5003   2.359   1.782   4.133
 1665SOL    HW2 5004   2.402   1.736   3.982
 1666SOL     OW 5005   3.262   0.107   4.150
 1666SOL    HW1 5006   3.238   0.070   4.060
 1666SOL    HW2 5007   3.361   0.123   4.154
 1667SOL     OW 5008   2.244   0.700   4.204
 1667SOL    HW1 5009   2.289   0.610   4.201
 1667SOL    HW2 5010   2.150   0.689   4.237
 1668SOL     OW 5011   2.476   0.122   3.841
 1668SOL    HW1 5012   2.574   0.100   3.848
 1668SOL    HW2 5013   2.445   0.105   3.748
 1669SOL     OW 5014   2.401   0.064   4.236
 1669SOL    HW1 5015   2.320   0.065   4.294
 1669SOL    HW2 5016   2.404   0.147   4.181
 1670SOL     OW 5017   3.296   1.188   3.765
 1670SOL    HW1 5018   3.328   1.112   3.822
 1670SOL    HW2 5019   3.204   1.215   3.795
 1671SOL     OW 5020   2.159   0.035   3.895
 1671SOL    HW1 5021   2.208   0.119   3.874
 1671SOL    HW2 5022   2.221  -0.030   3.940
 1672SOL     OW 5023   2.797   0.236   4.204
 1672SOL    HW1 5024   2.749   0.277   4.126
 1672SOL    HW2 5025   2.896   0.234   4.185
 1673SOL     OW 5026   2.321   1.152   4.465
 1673SOL    HW1 5027   2.250   1.125   4.530
 1673SOL    HW2 5028   2.295   1.124   4.372
 1674SOL     OW 5029   3.133   1.797   4.315
 1674SOL    HW1 5030   3.177   1.861   4.251
 1674SOL    HW2 5031   3.083   1.849   4.385
 1675SOL     OW 5032   2.894   0.549   3.740
 1675SOL    HW1 5033   2.853   0.631   3.701
 1675SOL    HW2 5034   2.958   0.575   3.813
 1676SOL     OW 5035   2.728   0.454   4.366
 1676SOL    HW1 5036   2.696   0.526   4.304
 1676SOL    HW2 5037   2.752   0.373   4.313
 1677SOL     OW 5038   3.719   0.833   4.101
 1677SOL    HW1 5039   3.761   0.769   4.165
 1677SOL    HW2 5040   3.681   0.782   4.023
 1678SOL     OW 5041   2.350   1.385   3.898
 1678SOL    HW1 5042   2.263   1.370   3.945
 1678SOL    HW2 5043   2.333   1.411   3.803
 1679SOL     OW 5044   3.252   0.575   3.802
 1679SOL    HW1 5045   3.198   0.554   3.883
 1679SOL    HW2 5046   3.343   0.534   3.811
 1680SOL     OW 5047   2.389   0.256   4.052
 1680SOL    HW1 5048   2.416   0.197   3.977
 1680SOL    HW2 5049   2.389   0.351   4.021
 1681SOL     OW 5050   2.567   1.050   4.092
 1681SOL    HW1 5051   2.553   1.057   4.191
 1681SOL    HW2 5052   2.651   0.999   4.074
 1682SOL     OW 5053   2.229   1.100   4.225
 1682SOL    HW1 5054   2.222   1.183   4.169
 1682SOL    HW2 5055   2.233   1.020   4.165
 1683SOL     OW 5056   3.114   1.348   4.112
 1683SOL    HW1 5057   3.164   1.425   4.152
 1683SOL    HW2 5058   3.019   1.350   4.144
 1684SOL     OW 5059   3.444   0.639   4.196
 1684SOL    HW1 5060   3.413   0.700   4.269
 1684SOL    HW2 5061   3.494   0.691   4.127
 1685SOL     OW 5062   3.071   0.525   3.999
 1685SOL    HW1 5063   3.084   0.441   4.053
 1685SOL    HW2 5064   3.042   0.599   4.059
 1686SOL     OW 5065   2.169   0.063   4.342
 1686SOL    HW1 5066   2.158   0.157   4.375
 1686SOL    HW2 5067   2.164   0.000   4.419
 1687SOL     OW 5068   3.484   0.367   4.098
 1687SOL    HW1 5069   3.486   0.291   4.162
 1687SOL    HW2 5070   3.436   0.444   4.138
 1688SOL     OW 5071   3.402   0.274   3.849
 1688SOL    HW1 5072   3.341   0.199   3.872
 1688SOL    HW2 5073   3.424   0.326   3.932
 1689SOL     OW 5074   3.165   0.838   3.766
 1689SOL    HW1 5075   3.199   0.745   3.781
 1689SOL    HW2 5076   3.183   0.865   3.671
 1690SOL     OW 5077   1.870   1.326   3.924
 1690SOL    HW1 5078   1.777   1.347   3.893
 1690SOL    HW2 5079   1.880   1.227   3.937
 1691SOL     OW 5080   2.677   0.572   4.049
 1691SOL    HW1 5081   2.684   0.483   4.003
 1691SOL    HW2 5082   2.583   0.606   4.041
 1692SOL     OW 5083   2.335   0.500   3.915
 1692SOL    HW1 5084   2.396   0.580   3.919
 1692SOL    HW2 5085   2.240   0.531   3.922
 1693SOL     OW 5086   3.164   0.855   4.033
 1693SOL    HW1 5087   3.078   0.824   4.075
 1693SOL    HW2 5088   3.160   0.841   3.934
 1694SOL     OW 5089   3.588   0.135   4.247
 1694SOL    HW1 5090   3.661   0.118   4.180
 1694SOL    HW2 5091   3.557   0.048   4.285
 1695SOL     OW 5092   3.250   1.573   4.201
 1695SOL    HW1 5093   3.317   1.585   4.127
 1695SOL    HW2 5094   3.210   1.662   4.224
 1696SOL     OW 5095   2.534   1.616   3.878
 1696SOL    HW1 5096   2.543   1.626   3.779
 1696SOL    HW2 5097   2.494   1.527   3.899
 1697SOL     OW 5098   3.703   0.175   4.687
 1697SOL    HW1 5099   3.742   0.090   4.651
 1697SOL    HW2 5100   3.605   0.177   4.668
 1698SOL     OW 5101   3.056   1.612   3.755
 1698SOL    HW1 5102   3.062   1.519   3.792
 1698SOL    HW2 5103   2.997   1.612   3.675
 1699SOL     OW 5104   2.778   0.910   4.015
 1699SOL    HW1 5105   2.841   0.948   3.947
 1699SOL    HW2 5106   2.818   0.827   4.054
 1700SOL     OW 5107   3.366   1.607   3.768
 1700SOL    HW1 5108   3.274   1.644   3.775
 1700SOL    HW2 5109   3.404   1.627   3.678
 1701SOL     OW 5110   2.452   1.487   4.215
 1701SOL    HW1 5111   2.494   1.429   4.145
 1701SOL    HW2 5112   2.408   1.566   4.171
 1702SOL     OW 5113   2.117   1.348   4.014
 1702SOL    HW1 5114   2.021   1.349   3.987
 1702SOL    HW2 5115   2.129   1.401   4.098
 1703SOL     OW 5116   1.937   0.345   3.757
 1703SOL    HW1 5117   1.845   0.317   3.728
 1703SOL    HW2 5118   1.968   0.422   3.701
 1704SOL     OW 5119   1.934   0.166   4.042
 1704SOL    HW1 5120   1.917   0.249   3.988
 1704SOL    HW2 5121   2.024   0.129   4.020
 1705SOL     OW 5122   3.045   1.335   3.843
 1705SOL    HW1 5123   2.946   1.324   3.845
 1705SOL    HW2 5124   3.079   1.350   3.936
 1706SOL     OW 5125   3.087   0.325   4.173
 1706SOL    HW1 5126   3.152   0.251   4.162
 1706SOL    HW2 5127   3.107   0.375   4.257
 1707SOL     OW 5128   2.456   0.745   4.376
 1707SOL    HW1 5129   2.506   0.830   4.357
 1707SOL    HW2 5130   2.368   0.747   4.328
 1708SOL     OW 5131   2.721   1.374   3.740
 1708SOL    HW1 5132   2.675   1.389   3.828
 1708SOL    HW2 5133   2.765   1.459   3.710
 1709SOL     OW 5134   2.945   0.984   3.811
 1709SOL    HW1 5135   2.922   1.037   3.729
 1709SOL    HW2 5136   3.026   0.928   3.792
 1710SOL     OW 5137   1.941   1.240   4.377
 1710SOL    HW1 5138   1.940   1.193   4.465
 1710SOL    HW2 5139   2.023   1.212   4.326
 1711SOL     OW 5140   2.290   0.424   4.244
 1711SOL    HW1 5141   2.320   0.352   4.182
 1711SOL    HW2 5142   2.251   0.384   4.327
 1712SOL     OW 5143   2.674   1.586   4.411
 1712SOL    HW1 5144   2.706   1.596   4.317
 1712SOL    HW2 5145   2.595   1.524   4.413
 1713SOL     OW 5146   2.632   1.330   4.025
 1713SOL    HW1 5147   2.586   1.243   4.042
 1713SOL    HW2 5148   2.723   1.327   4.066
 1714SOL     OW 5149   3.214   0.052   3.892
 1714SOL    HW1 5150   3.249   0.011   3.808
 1714SOL    HW2 5151   3.124   0.014   3.912
 1715SOL     OW 5152   3.162   0.453   4.415
 1715SOL    HW1 5153   3.103   0.533   4.419
 1715SOL    HW2 5154   3.177   0.418   4.508
 1716SOL     OW 5155   1.901   1.077   4.024
 1716SOL    HW1 5156   2.000   1.066   4.015
 1716SOL    HW2 5157   1.861   0.991   4.056
 1717SOL     OW 5158   2.737   1.646   4.061
 1717SOL    HW1 5159   2.660   1.611   4.007
 1717SOL    HW2 5160   2.705   1.717   4.123
 1718SOL     OW 5161   2.092   2.490   0.113
 1718SOL    HW1 5162   1.999   2.488   0.150
 1718SOL    HW2 5163   2.093   2.451   0.021
 1719SOL     OW 5164   2.087   2.137   0.996
 1719SOL    HW1 5165   2.122   2.120   1.088
 1719SOL    HW2 5166   1.999   2.092   0.984
 1720SOL     OW 5167   1.881   2.230   0.647
 1720SOL    HW1 5168   1.799   2.273   0.686
 1720SOL    HW2 5169   1.853   2.157   0.584
 1721SOL     OW 5170   2.431   3.137   1.165
 1721SOL    HW1 5171   2.338   3.130   1.128
 1721SOL    HW2 5172   2.442   3.226   1.209
 1722SOL     OW 5173   3.417   3.373   0.703
 1722SOL    HW1 5174   3.360   3.357   0.784
 1722SOL    HW2 5175   3.358   3.383   0.623
 1723SOL     OW 5176   2.997   2.565   0.717
 1723SOL    HW1 5177   3.054   2.643   0.692
 1723SOL    HW2 5178   2.937   2.591   0.793
 1724SOL     OW 5179   3.617   2.469   0.231
 1724SOL    HW1 5180   3.605   2.456   0.132
 1724SOL    HW2 5181   3.587   2.388   0.280
 1725SOL     OW 5182   2.630   3.006   1.023
 1725SOL    HW1 5183   2.552   3.023   1.083
 1725SOL    HW2 5184   2.664   3.093   0.987
 1726SOL     OW 5185   2.712   2.660   1.823
 1726SOL    HW1 5186   2.708   2.736   1.888
 1726SOL    HW2 5187   2.734   2.696   1.732
 1727SOL     OW 5188   2.547   2.874   0.665
 1727SOL    HW1 5189   2.616   2.858   0.735
 1727SOL    HW2 5190   2.474   2.931   0.703
 1728SOL     OW 5191   2.548   3.023   1.803
 1728SOL    HW1 5192   2.608   3.102   1.817
 1728SOL    HW2 5193   2.462   3.054   1.762
 1729SOL     OW 5194   2.197   3.297   1.061
 1729SOL    HW1 5195   2.119   3.266   1.008
 1729SOL    HW2 5196   2.255   3.355   1.004
 1730SOL     OW 5197   3.322   3.367   1.339
 1730SOL    HW1 5198   3.346   3.461   1.365
 1730SOL    HW2 5199   3.306   3.313   1.421
 1731SOL     OW 5200   2.300   2.254   1.499
 1731SOL    HW1 5201   2.382   2.198   1.508
 1731SOL    HW2 5202   2.219   2.196   1.503
 1732SOL     OW 5203   3.465   2.309   0.737
 1732SOL    HW1 5204   3.391   2.355   0.687
 1732SOL    HW2 5205   3.516   2.377   0.790
 1733SOL     OW 5206   2.093   3.575   0.483
 1733SOL    HW1 5207   2.127   3.652   0.537
 1733SOL    HW2 5208   2.137   3.575   0.393
 1734SOL     OW 5209   2.989   3.203   1.690
 1734SOL    HW1 5210   3.036   3.203   1.778
 1734SOL    HW2 5211   2.941   3.116   1.679
 1735SOL     OW 5212   2.092   3.296   0.538
 1735SOL    HW1 5213   2.066   3.392   0.538
 1735SOL    HW2 5214   2.021   3.242   0.583
 1736SOL     OW 5215   2.102   2.953   0.886
 1736SOL    HW1 5216   2.116   2.869   0.938
 1736SOL    HW2 5217   2.047   3.017   0.941
 1737SOL     OW 5218   2.482   3.648   1.439
 1737SOL    HW1 5219   2.390   3.631   1.474
 1737SOL    HW2 5220   2.510   3.740   1.465
 1738SOL     OW 5221   2.468   2.826   0.123
 1738SOL    HW1 5222   2.475   2.910   0.069
 1738SOL    HW2 5223   2.514   2.839   0.211
 1739SOL     OW 5224   3.456   1.976   1.480
 1739SOL    HW1 5225   3.438   2.043   1.408
 1739SOL    HW2 5226   3.453   2.022   1.569
 1740SOL     OW 5227   1.984   2.505   0.563
 1740SOL    HW1 5228   1.939   2.417   0.580
 1740SOL    HW2 5229   1.983   2.559   0.647
 1741SOL     OW 5230   3.704   3.629   0.359
 1741SOL    HW1 5231   3.758   3.600   0.439
 1741SOL    HW2 5232   3.734   3.719   0.330
 1742SOL     OW 5233   1.889   3.458   0.117
 1742SOL    HW1 5234   1.870   3.362   0.138
 1742SOL    HW2 5235   1.856   3.516   0.192
 1743SOL     OW 5236   3.551   2.784   0.612
 1743SOL    HW1 5237   3.646   2.755   0.620
 1743SOL    HW2 5238   3.543   2.849   0.537
 1744SOL     OW 5239   3.503   2.970   0.432
 1744SOL    HW1 5240   3.589   2.972   0.380
 1744SOL    HW2 5241   3.517   3.017   0.520
 1745SOL     OW 5242   1.975   2.599   1.597
 1745SOL    HW1 5243   2.063   2.586   1.642
 1745SOL    HW2 5244   1.962   2.696   1.575
 1746SOL     OW 5245   2.475   3.227   0.726
 1746SOL    HW1 5246   2.426   3.140   0.735
 1746SOL    HW2 5247   2.452   3.270   0.639
 1747SOL     OW 5248   3.155   3.090   1.423
 1747SOL    HW1 5249   3.192   3.017   1.365
 1747SOL    HW2 5250   3.207   3.095   1.508
 1748SOL     OW 5251   2.671   1.866   0.502
 1748SOL    HW1 5252   2.711   1.957   0.493
 1748SOL    HW2 5253   2.571   1.874   0.508
 1749SOL     OW 5254   2.059   2.838   1.264
 1749SOL    HW1 5255   2.148   2.793   1.250
 1749SOL    HW2 5256   1.986   2.773   1.245
 1750SOL     OW 5257   3.387   2.861   0.190
 1750SOL    HW1 5258   3.324   2.785   0.203
 1750SOL    HW2 5259   3.435   2.879   0.276
 1751SOL     OW 5260   3.049   3.654   1.616
 1751SOL    HW1 5261   3.073   3.714   1.540
 1751SOL    HW2 5262   3.056   3.559   1.586
 1752SOL     OW 5263   2.179   2.113   1.801
 1752SOL    HW1 5264   2.250   2.184   1.807
 1752SOL    HW2 5265   2.091   2.152   1.829
 1753SOL     OW 5266   3.328   3.279   0.953
 1753SOL    HW1 5267   3.269   3.285   1.033
 1753SOL    HW2 5268   3.313   3.191   0.907
 1754SOL     OW 5269   3.529   3.576   0.572
 1754SOL    HW1 5270   3.488   3.553   0.484
 1754SOL    HW2 5271   3.511   3.502   0.637
 1755SOL     OW 5272   2.460   2.591   0.270
 1755SOL    HW1 5273   2.484   2.660   0.202
 1755SOL    HW2 5274   2.382   2.624   0.324
 1756SOL     OW 5275   3.143   2.207   0.944
 1756SOL    HW1 5276   3.057   2.157   0.931
 1756SOL    HW2 5277   3.205   2.153   1.000
 1757SOL     OW 5278   3.438   3.524   0.307
 1757SOL    HW1 5279   3.527   3.570   0.310
 1757SOL    HW2 5280   3.417   3.500   0.212
 1758SOL     OW 5281   2.669   2.467   1.465
 1758SOL    HW1 5282   2.622   2.464   1.554
 1758SOL    HW2 5283   2.618   2.412   1.399
 1759SOL     OW 5284   3.256   2.331   1.674
 1759SOL    HW1 5285   3.236   2.374   1.762
 1759SOL    HW2 5286   3.334   2.269   1.683
 1760SOL     OW 5287   2.835   2.752   1.572
 1760SOL    HW1 5288   2.881   2.668   1.543
 1760SOL    HW2 5289   2.779   2.786   1.497
 1761SOL     OW 5290   2.853   2.272   1.242
 1761SOL    HW1 5291   2.776   2.306   1.296
 1761SOL    HW2 5292   2.819   2.221   1.163
 1762SOL     OW 5293   2.903   2.563   0.429
 1762SOL    HW1 5294   2.929   2.559   0.525
 1762SOL    HW2 5295   2.818   2.512   0.415
 1763SOL     OW 5296   1.938   2.673   0.789
 1763SOL    HW1 5297   2.037   2.661   0.798
 1763SOL    HW2 5298   1.914   2.768   0.810
 1764SOL     OW 5299   1.992   3.683   1.571
 1764SOL    HW1 5300   1.982   3.668   1.670
 1764SOL    HW2 5301   1.906   3.719   1.535
 1765SOL     OW 5302   2.727   2.210   0.195
 1765SOL    HW1 5303   2.786   2.273   0.146
 1765SOL    HW2 5304   2.746   2.116   0.166
 1766SOL     OW 5305   3.581   2.447   1.831
 1766SOL    HW1 5306   3.555   2.536   1.795
 1766SOL    HW2 5307   3.579   2.379   1.758
 1767SOL     OW 5308   3.224   3.006   0.545
 1767SOL    HW1 5309   3.307   2.977   0.497
 1767SOL    HW2 5310   3.175   3.073   0.489
 1768SOL     OW 5311   2.412   2.058   0.885
 1768SOL    HW1 5312   2.407   2.053   0.985
 1768SOL    HW2 5313   2.414   2.154   0.856
 1769SOL     OW 5314   2.870   3.318   0.477
 1769SOL    HW1 5315   2.824   3.390   0.425
 1769SOL    HW2 5316   2.866   3.338   0.575
 1770SOL     OW 5317   2.213   3.663   0.853
 1770SOL    HW1 5318   2.263   3.577   0.859
 1770SOL    HW2 5319   2.278   3.740   0.850
 1771SOL     OW 5320   3.657   2.928   0.873
 1771SOL    HW1 5321   3.595   2.913   0.797
 1771SOL    HW2 5322   3.605   2.939   0.958
 1772SOL     OW 5323   3.089   3.412   1.506
 1772SOL    HW1 5324   3.095   3.335   1.570
 1772SOL    HW2 5325   3.037   3.386   1.426
 1773SOL     OW 5326   2.183   2.805   0.242
 1773SOL    HW1 5327   2.265   2.844   0.200
 1773SOL    HW2 5328   2.156   2.723   0.193
 1774SOL     OW 5329   3.320   2.597   0.728
 1774SOL    HW1 5330   3.315   2.532   0.803
 1774SOL    HW2 5331   3.400   2.656   0.741
 1775SOL     OW 5332   2.323   3.128   1.727
 1775SOL    HW1 5333   2.273   3.129   1.641
 1775SOL    HW2 5334   2.260   3.110   1.803
 1776SOL     OW 5335   2.973   3.638   0.237
 1776SOL    HW1 5336   2.913   3.576   0.287
 1776SOL    HW2 5337   3.004   3.594   0.152
 1777SOL     OW 5338   2.064   2.147   1.498
 1777SOL    HW1 5339   1.984   2.207   1.485
 1777SOL    HW2 5340   2.054   2.098   1.584
 1778SOL     OW 5341   3.494   3.239   0.081
 1778SOL    HW1 5342   3.462   3.333   0.071
 1778SOL    HW2 5343   3.418   3.176   0.069
 1779SOL     OW 5344   2.326   3.605   0.323
 1779SOL    HW1 5345   2.359   3.644   0.409
 1779SOL    HW2 5346   2.402   3.598   0.258
 1780SOL     OW 5347   3.262   1.969   0.426
 1780SOL    HW1 5348   3.238   1.932   0.336
 1780SOL    HW2 5349   3.361   1.985   0.430
 1781SOL     OW 5350   2.111   3.647   1.241
 1781SOL    HW1 5351   2.168   3.582   1.291
 1781SOL    HW2 5352   2.095   3.614   1.148
 1782SOL     OW 5353   2.802   3.560   0.904
 1782SOL    HW1 5354   2.882   3.503   0.925
 1782SOL    HW2 5355   2.753   3.520   0.827
 1783SOL     OW 5356   2.244   2.562   0.480
 1783SOL    HW1 5357   2.289   2.472   0.477
 1783SOL    HW2 5358   2.150   2.551   0.513
 1784SOL     OW 5359   3.409   2.084   1.729
 1784SOL    HW1 5360   3.404   2.121   1.821
 1784SOL    HW2 5361   3.337   2.015   1.717
 1785SOL     OW 5362   2.476   1.984   0.117
 1785SOL    HW1 5363   2.574   1.962   0.124
 1785SOL    HW2 5364   2.445   1.967   0.024
 1786SOL     OW 5365   2.643   2.126   1.749
 1786SOL    HW1 5366   2.710   2.065   1.792
 1786SOL    HW2 5367   2.570   2.145   1.814
 1787SOL     OW 5368   2.750   3.376   1.195
 1787SOL    HW1 5369   2.727   3.351   1.101
 1787SOL    HW2 5370   2.811   3.307   1.234
 1788SOL     OW 5371   3.213   2.452   1.433
 1788SOL    HW1 5372   3.241   2.409   1.518
 1788SOL    HW2 5373   3.238   2.548   1.434
 1789SOL     OW 5374   2.665   3.264   0.924
 1789SOL    HW1 5375   2.755   3.278   0.882
 1789SOL    HW2 5376   2.594   3.266   0.853
 1790SOL     OW 5377   2.784   2.365   0.899
 1790SOL    HW1 5378   2.759   2.356   0.803
 1790SOL    HW2 5379   2.832   2.283   0.930
 1791SOL     OW 5380   2.401   1.926   0.512
 1791SOL    HW1 5381   2.320   1.927   0.570
 1791SOL    HW2 5382   2.404   2.009   0.457
 1792SOL     OW 5383   3.296   3.050   0.041
 1792SOL    HW1 5384   3.328   2.974   0.098
 1792SOL    HW2 5385   3.204   3.077   0.071
 1793SOL     OW 5386   2.797   2.098   0.480
 1793SOL    HW1 5387   2.749   2.139   0.402
 1793SOL    HW2 5388   2.896   2.096   0.461
 1794SOL     OW 5389   2.938   2.545   1.464
 1794SOL    HW1 5390   2.858   2.484   1.467
 1794SOL    HW2 5391   3.019   2.492   1.440
 1795SOL     OW 5392   3.089   3.432   0.793
 1795SOL    HW1 5393   3.110   3.506   0.728
 1795SOL    HW2 5394   3.157   3.432   0.866
 1796SOL     OW 5395   2.321   3.014   0.741
 1796SOL    HW1 5396   2.250   2.987   0.806
 1796SOL    HW2 5397   2.295   2.986   0.648
 1797SOL     OW 5398   3.133   3.659   0.591
 1797SOL    HW1 5399   3.177   3.723   0.527
 1797SOL    HW2 5400   3.083   3.711   0.661
 1798SOL     OW 5401   2.894   2.411   0.016
 1798SOL    HW1 5402   2.853   2.493  -0.023
 1798SOL    HW2 5403   2.958   2.437   0.089
 1799SOL     OW 5404   1.940   2.418   1.386
 1799SOL    HW1 5405   2.032   2.417   1.345
 1799SOL    HW2 5406   1.934   2.492   1.453
 1800SOL     OW 5407   2.423   2.084   1.147
 1800SOL    HW1 5408   2.461   2.000   1.184
 1800SOL    HW2 5409   2.335   2.103   1.191
 1801SOL     OW 5410   2.728   2.316   0.642
 1801SOL    HW1 5411   2.696   2.388   0.580
 1801SOL    HW2 5412   2.752   2.235   0.589
 1802SOL     OW 5413   2.879   1.901   0.753
 1802SOL    HW1 5414   2.807   1.906   0.684
 1802SOL    HW2 5415   2.855   1.832   0.822
 1803SOL     OW 5416   3.291   3.035   0.867
 1803SOL    HW1 5417   3.236   2.951   0.860
 1803SOL    HW2 5418   3.317   3.064   0.775
 1804SOL     OW 5419   3.328   2.452   0.992
 1804SOL    HW1 5420   3.298   2.357   0.999
 1804SOL    HW2 5421   3.401   2.468   1.058
 1805SOL     OW 5422   3.719   2.695   0.377
 1805SOL    HW1 5423   3.761   2.631   0.441
 1805SOL    HW2 5424   3.681   2.644   0.299
 1806SOL     OW 5425   2.350   3.247   0.174
 1806SOL    HW1 5426   2.263   3.232   0.221
 1806SOL    HW2 5427   2.333   3.273   0.079
 1807SOL     OW 5428   3.526   3.142   0.657
 1807SOL    HW1 5429   3.625   3.150   0.671
 1807SOL    HW2 5430   3.481   3.226   0.688
 1808SOL     OW 5431   3.252   2.437   0.078
 1808SOL    HW1 5432   3.198   2.416   0.159
 1808SOL    HW2 5433   3.343   2.396   0.087
 1809SOL     OW 5434   2.389   2.118   0.328
 1809SOL    HW1 5435   2.416   2.059   0.253
 1809SOL    HW2 5436   2.389   2.213   0.297
 1810SOL     OW 5437   3.616   3.085   1.588
 1810SOL    HW1 5438   3.707   3.046   1.575
 1810SOL    HW2 5439   3.624   3.181   1.612
 1811SOL     OW 5440   2.926   3.209   1.340
 1811SOL    HW1 5441   2.846   3.186   1.395
 1811SOL    HW2 5442   3.009   3.183   1.389
 1812SOL     OW 5443   3.454   3.491   1.625
 1812SOL    HW1 5444   3.481   3.525   1.535
 1812SOL    HW2 5445   3.533   3.453   1.671
 1813SOL     OW 5446   2.973   3.057   1.100
 1813SOL    HW1 5447   2.933   3.101   1.181
 1813SOL    HW2 5448   2.932   3.094   1.017
 1814SOL     OW 5449   3.500   2.961   1.079
 1814SOL    HW1 5450   3.505   3.042   1.138
 1814SOL    HW2 5451   3.414   2.963   1.028
 1815SOL     OW 5452   2.777   1.951   1.402
 1815SOL    HW1 5453   2.802   1.931   1.307
 1815SOL    HW2 5454   2.849   2.007   1.444
 1816SOL     OW 5455   2.842   2.978   1.719
 1816SOL    HW1 5456   2.743   2.984   1.729
 1816SOL    HW2 5457   2.865   2.898   1.663
 1817SOL     OW 5458   2.567   2.912   0.368
 1817SOL    HW1 5459   2.553   2.919   0.467
 1817SOL    HW2 5460   2.651   2.861   0.350
 1818SOL     OW 5461   2.272   2.675   1.251
 1818SOL    HW1 5462   2.358   2.687   1.301
 1818SOL    HW2 5463   2.230   2.588   1.278
 1819SOL     OW 5464   3.136   2.248   1.262
 1819SOL    HW1 5465   3.157   2.322   1.326
 1819SOL    HW2 5466   3.047   2.265   1.219
 1820SOL     OW 5467   1.926   3.426   1.331
 1820SOL    HW1 5468   1.880   3.508   1.297
 1820SOL    HW2 5469   2.024   3.445   1.340
 1821SOL     OW 5470   2.229   2.962   0.501
 1821SOL    HW1 5471   2.222   3.045   0.445
 1821SOL    HW2 5472   2.233   2.882   0.441
 1822SOL     OW 5473   2.428   2.399   0.865
 1822SOL    HW1 5474   2.440   2.465   0.791
 1822SOL    HW2 5475   2.474   2.433   0.948
 1823SOL     OW 5476   3.114   3.210   0.388
 1823SOL    HW1 5477   3.164   3.287   0.428
 1823SOL    HW2 5478   3.019   3.212   0.420
 1824SOL     OW 5479   3.134   3.307   1.142
 1824SOL    HW1 5480   3.181   3.320   1.229
 1824SOL    HW2 5481   3.068   3.233   1.151
 1825SOL     OW 5482   3.444   2.501   0.472
 1825SOL    HW1 5483   3.413   2.562   0.545
 1825SOL    HW2 5484   3.494   2.553   0.403
 1826SOL     OW 5485   2.216   3.372   1.329
 1826SOL    HW1 5486   2.195   3.328   1.242
 1826SOL    HW2 5487   2.313   3.398   1.332
 1827SOL     OW 5488   2.264   2.613   1.598
 1827SOL    HW1 5489   2.332   2.668   1.551
 1827SOL    HW2 5490   2.304   2.525   1.625
 1828SOL     OW 5491   3.449   2.641   1.670
 1828SOL    HW1 5492   3.357   2.679   1.665
 1828SOL    HW2 5493   3.509   2.688   1.605
 1829SOL     OW 5494   2.875   1.967   1.770
 1829SOL    HW1 5495   2.881   2.052   1.718
 1829SOL    HW2 5496   2.907   1.891   1.713
 1830SOL     OW 5497   2.366   1.912   1.740
 1830SOL    HW1 5498   2.324   1.855   1.670
 1830SOL    HW2 5499   2.300   1.981   1.772
 1831SOL     OW 5500   2.435   2.732   1.029
 1831SOL    HW1 5501   2.479   2.821   1.020
 1831SOL    HW2 5502   2.372   2.732   1.106
 1832SOL     OW 5503   3.222   2.724   1.045
 1832SOL    HW1 5504   3.147   2.724   0.979
 1832SOL    HW2 5505   3.259   2.632   1.054
 1833SOL     OW 5506   3.071   2.387   0.275
 1833SOL    HW1 5507   3.084   2.303   0.329
 1833SOL    HW2 5508   3.042   2.461   0.335
 1834SOL     OW 5509   2.169   2.075   1.231
 1834SOL    HW1 5510   2.146   2.112   1.321
 1834SOL    HW2 5511   2.139   1.980   1.225
 1835SOL     OW 5512   1.899   3.172   1.282
 1835SOL    HW1 5513   1.952   3.123   1.350
 1835SOL    HW2 5514   1.921   3.270   1.287
 1836SOL     OW 5515   2.594   2.496   1.064
 1836SOL    HW1 5516   2.653   2.470   0.988
 1836SOL    HW2 5517   2.566   2.592   1.053
 1837SOL     OW 5518   3.590   2.797   1.854
 1837SOL    HW1 5519   3.544   2.790   1.765
 1837SOL    HW2 5520   3.528   2.841   1.920
 1838SOL     OW 5521   2.169   1.925   0.618
 1838SOL    HW1 5522   2.158   2.019   0.651
 1838SOL    HW2 5523   2.164   1.862   0.695
 1839SOL     OW 5524   3.484   2.229   0.374
 1839SOL    HW1 5525   3.486   2.153   0.438
 1839SOL    HW2 5526   3.436   2.306   0.414
 1840SOL     OW 5527   2.885   2.628   0.966
 1840SOL    HW1 5528   2.900   2.649   1.062
 1840SOL    HW2 5529   2.855   2.533   0.957
 1841SOL     OW 5530   2.842   3.435   1.700
 1841SOL    HW1 5531   2.822   3.479   1.612
 1841SOL    HW2 5532   2.881   3.344   1.684
 1842SOL     OW 5533   3.721   3.380   1.605
 1842SOL    HW1 5534   3.735   3.407   1.510
 1842SOL    HW2 5535   3.804   3.402   1.658
 1843SOL     OW 5536   2.212   2.760   1.804
 1843SOL    HW1 5537   2.288   2.804   1.852
 1843SOL    HW2 5538   2.247   2.713   1.722
 1844SOL     OW 5539   3.402   2.136   0.125
 1844SOL    HW1 5540   3.341   2.061   0.148
 1844SOL    HW2 5541   3.424   2.188   0.208
 1845SOL     OW 5542   3.165   2.700   0.042
 1845SOL    HW1 5543   3.199   2.607   0.057
 1845SOL    HW2 5544   3.183   2.727  -0.053
 1846SOL     OW 5545   2.930   3.195   0.849
 1846SOL    HW1 5546   2.937   3.111   0.794
 1846SOL    HW2 5547   2.992   3.264   0.813
 1847SOL     OW 5548   2.181   2.672   0.949
 1847SOL    HW1 5549   2.274   2.708   0.954
 1847SOL    HW2 5550   2.175   2.587   1.001
 1848SOL     OW 5551   2.201   2.371   1.006
 1848SOL    HW1 5552   2.149   2.288   0.989
 1848SOL    HW2 5553   2.278   2.376   0.942
 1849SOL     OW 5554   3.000   2.242   1.678
 1849SOL    HW1 5555   2.955   2.305   1.742
 1849SOL    HW2 5556   3.093   2.273   1.661
 1850SOL     OW 5557   3.022   2.069   1.477
 1850SOL    HW1 5558   3.022   2.133   1.554
 1850SOL    HW2 5559   3.050   2.117   1.394
 1851SOL     OW 5560   1.870   3.188   0.200
 1851SOL    HW1 5561   1.777   3.209   0.169
 1851SOL    HW2 5562   1.880   3.089   0.213
 1852SOL     OW 5563   1.950   3.663   0.927
 1852SOL    HW1 5564   1.908   3.577   0.900
 1852SOL    HW2 5565   2.044   3.666   0.893
 1853SOL     OW 5566   2.366   3.430   0.910
 1853SOL    HW1 5567   2.432   3.504   0.919
 1853SOL    HW2 5568   2.410   3.351   0.868
 1854SOL     OW 5569   2.864   2.658   1.238
 1854SOL    HW1 5570   2.905   2.626   1.324
 1854SOL    HW2 5571   2.768   2.631   1.235
 1855SOL     OW 5572   1.902   2.406   1.114
 1855SOL    HW1 5573   1.987   2.373   1.073
 1855SOL    HW2 5574   1.915   2.421   1.212
 1856SOL     OW 5575   2.051   2.382   1.722
 1856SOL    HW1 5576   2.110   2.342   1.652
 1856SOL    HW2 5577   1.993   2.453   1.681
 1857SOL     OW 5578   3.231   2.812   1.660
 1857SOL    HW1 5579   3.270   2.901   1.680
 1857SOL    HW2 5580   3.241   2.792   1.563
 1858SOL     OW 5581   2.677   2.434   0.325
 1858SOL    HW1 5582   2.684   2.345   0.279
 1858SOL    HW2 5583   2.583   2.468   0.317
 1859SOL     OW 5584   3.519   2.466   1.206
 1859SOL    HW1 5585   3.481   2.397   1.268
 1859SOL    HW2 5586   3.601   2.430   1.162
 1860SOL     OW 5587   2.114   3.426   1.744
 1860SOL    HW1 5588   2.084   3.483   1.820
 1860SOL    HW2 5589   2.107   3.329   1.770
 1861SOL     OW 5590   2.533   2.326   1.269
 1861SOL    HW1 5591   2.499   2.237   1.239
 1861SOL    HW2 5592   2.559   2.380   1.189
 1862SOL     OW 5593   2.792   3.540   1.465
 1862SOL    HW1 5594   2.768   3.522   1.370
 1862SOL    HW2 5595   2.822   3.634   1.475
 1863SOL     OW 5596   2.335   2.362   0.191
 1863SOL    HW1 5597   2.396   2.442   0.195
 1863SOL    HW2 5598   2.240   2.393   0.198
 1864SOL     OW 5599   2.021   2.999   1.466
 1864SOL    HW1 5600   2.043   2.938   1.542
 1864SOL    HW2 5601   2.031   2.950   1.380
 1865SOL     OW 5602   3.209   2.921   1.234
 1865SOL    HW1 5603   3.233   2.858   1.160
 1865SOL    HW2 5604   3.119   2.961   1.216
 1866SOL     OW 5605   3.164   2.717   0.309
 1866SOL    HW1 5606   3.078   2.686   0.351
 1866SOL    HW2 5607   3.160   2.703   0.210
 1867SOL     OW 5608   3.621   3.609   1.154
 1867SOL    HW1 5609   3.682   3.639   1.081
 1867SOL    HW2 5610   3.583   3.520   1.132
 1868SOL     OW 5611   3.114   3.593   1.128
 1868SOL    HW1 5612   3.198   3.598   1.074
 1868SOL    HW2 5613   3.091   3.497   1.146
 1869SOL     OW 5614   1.945   3.120   1.022
 1869SOL    HW1 5615   1.940   3.119   1.122
 1869SOL    HW2 5616   1.862   3.079   0.984
 1870SOL     OW 5617   2.550   3.524   1.716
 1870SOL    HW1 5618   2.494   3.605   1.725
 1870SOL    HW2 5619   2.602   3.528   1.630
 1871SOL     OW 5620   2.765   1.948   0.133
 1871SOL    HW1 5621   2.816   1.949   0.047
 1871SOL    HW2 5622   2.821   1.906   0.204
 1872SOL     OW 5623   3.588   1.997   0.523
 1872SOL    HW1 5624   3.661   1.980   0.456
 1872SOL    HW2 5625   3.557   1.910   0.561
 1873SOL     OW 5626   3.250   3.435   0.477
 1873SOL    HW1 5627   3.317   3.447   0.403
 1873SOL    HW2 5628   3.210   3.524   0.500
 1874SOL     OW 5629   1.992   3.656   1.851
 1874SOL    HW1 5630   1.951   3.582   1.904
 1874SOL    HW2 5631   2.056   3.707   1.909
 1875SOL     OW 5632   3.142   2.789   0.672
 1875SOL    HW1 5633   3.202   2.708   0.674
 1875SOL    HW2 5634   3.182   2.858   0.612
 1876SOL     OW 5635   2.692   3.135   1.422
 1876SOL    HW1 5636   2.687   3.168   1.517
 1876SOL    HW2 5637   2.606   3.154   1.376
 1877SOL     OW 5638   2.534   3.478   0.154
 1877SOL    HW1 5639   2.543   3.488   0.055
 1877SOL    HW2 5640   2.494   3.389   0.175
 1878SOL     OW 5641   3.512   3.582   1.394
 1878SOL    HW1 5642   3.565   3.592   1.310
 1878SOL    HW2 5643   3.485   3.672   1.428
 1879SOL     OW 5644   3.703   2.037   0.963
 1879SOL    HW1 5645   3.742   1.952   0.927
 1879SOL    HW2 5646   3.605   2.039   0.944
 1880SOL     OW 5647   2.125   2.188   0.720
 1880SOL    HW1 5648   2.046   2.239   0.686
 1880SOL    HW2 5649   2.116   2.173   0.818
 1881SOL     OW 5650   3.056   3.474   0.031
 1881SOL    HW1 5651   3.062   3.381   0.068
 1881SOL    HW2 5652   2.997   3.474  -0.049
 1882SOL     OW 5653   2.684   2.864   1.372
 1882SOL    HW1 5654   2.724   2.863   1.280
 1882SOL    HW2 5655   2.694   2.956   1.412
 1883SOL     OW 5656   2.778   2.772   0.291
 1883SOL    HW1 5657   2.841   2.810   0.223
 1883SOL    HW2 5658   2.818   2.689   0.330
 1884SOL     OW 5659   3.366   3.469   0.044
 1884SOL    HW1 5660   3.274   3.506   0.051
 1884SOL    HW2 5661   3.404   3.489  -0.046
 1885SOL     OW 5662   2.234   3.150   1.490
 1885SOL    HW1 5663   2.221   3.243   1.456
 1885SOL    HW2 5664   2.150   3.098   1.477
 1886SOL     OW 5665   3.476   3.154   1.289
 1886SOL    HW1 5666   3.536   3.157   1.369
 1886SOL    HW2 5667   3.401   3.218   1.302
 1887SOL     OW 5668   2.901   2.960   0.696
 1887SOL    HW1 5669   2.831   2.913   0.750
 1887SOL    HW2 5670   2.960   2.892   0.653
 1888SOL     OW 5671   2.876   2.098   0.971
 1888SOL    HW1 5672   2.868   2.062   0.878
 1888SOL    HW2 5673   2.874   2.022   1.036
 1889SOL     OW 5674   2.452   3.349   0.491
 1889SOL    HW1 5675   2.494   3.291   0.421
 1889SOL    HW2 5676   2.408   3.428   0.447
 1890SOL     OW 5677   3.571   2.247   1.381
 1890SOL    HW1 5678   3.644   2.316   1.385
 1890SOL    HW2 5679   3.599   2.172   1.322
 1891SOL     OW 5680   2.117   3.210   0.290
 1891SOL    HW1 5681   2.021   3.211   0.263
 1891SOL    HW2 5682   2.129   3.263   0.374
 1892SOL     OW 5683   1.967   2.875   1.726
 1892SOL    HW1 5684   1.890   2.842   1.780
 1892SOL    HW2 5685   2.052   2.845   1.768
 1893SOL     OW 5686   2.534   2.065   1.489
 1893SOL    HW1 5687   2.624   2.049   1.449
 1893SOL    HW2 5688   2.542   2.070   1.588
 1894SOL     OW 5689   1.937   2.207   0.033
 1894SOL    HW1 5690   1.845   2.179   0.004
 1894SOL    HW2 5691   1.968   2.284  -0.023
 1895SOL     OW 5692   3.302   2.718   1.398
 1895SOL    HW1 5693   3.245   2.770   1.335
 1895SOL    HW2 5694   3.398   2.730   1.374
 1896SOL     OW 5695   3.045   3.197   0.119
 1896SOL    HW1 5696   2.946   3.186   0.121
 1896SOL    HW2 5697   3.079   3.212   0.212
 1897SOL     OW 5698   2.475   2.704   1.431
 1897SOL    HW1 5699   2.531   2.785   1.414
 1897SOL    HW2 5700   2.534   2.624   1.434
 1898SOL     OW 5701   3.355   3.629   0.959
 1898SOL    HW1 5702   3.388   3.693   0.890
 1898SOL    HW2 5703   3.421   3.623   1.034
 1899SOL     OW 5704   2.578   2.427   1.708
 1899SOL    HW1 5705   2.597   2.492   1.782
 1899SOL    HW2 5706   2.638   2.347   1.717
 1900SOL     OW 5707   3.312   3.082   1.633
 1900SOL    HW1 5708   3.303   3.072   1.732
 1900SOL    HW2 5709   3.408   3.075   1.607
 1901SOL     OW 5710   2.252   3.603   1.560
 1901SOL    HW1 5711   2.161   3.644   1.558
 1901SOL    HW2 5712   2.245   3.509   1.592
 1902SOL     OW 5713   3.536   2.745   1.254
 1902SOL    HW1 5714   3.509   2.656   1.217
 1902SOL    HW2 5715   3.537   2.813   1.181
 1903SOL     OW 5716   3.087   2.187   0.449
 1903SOL    HW1 5717   3.152   2.113   0.438
 1903SOL    HW2 5718   3.107   2.237   0.533
 1904SOL     OW 5719   2.456   2.607   0.652
 1904SOL    HW1 5720   2.506   2.692   0.633
 1904SOL    HW2 5721   2.368   2.609   0.604
 1905SOL     OW 5722   3.639   2.204   1.642
 1905SOL    HW1 5723   3.622   2.235   1.548
 1905SOL    HW2 5724   3.555   2.167   1.680
 1906SOL     OW 5725   3.592   2.796   1.517
 1906SOL    HW1 5726   3.630   2.887   1.532
 1906SOL    HW2 5727   3.584   2.779   1.418
 1907SOL     OW 5728   2.721   3.236   0.016
 1907SOL    HW1 5729   2.675   3.251   0.104
 1907SOL    HW2 5730   2.765   3.321  -0.014
 1908SOL     OW 5731   2.523   3.652   0.953
 1908SOL    HW1 5732   2.477   3.740   0.940
 1908SOL    HW2 5733   2.622   3.664   0.946
 1909SOL     OW 5734   2.721   2.818   0.861
 1909SOL    HW1 5735   2.775   2.749   0.909
 1909SOL    HW2 5736   2.689   2.887   0.927
 1910SOL     OW 5737   2.945   2.846   0.087
 1910SOL    HW1 5738   2.922   2.899   0.005
 1910SOL    HW2 5739   3.026   2.790   0.068
 1911SOL     OW 5740   3.723   3.431   0.851
 1911SOL    HW1 5741   3.652   3.419   0.781
 1911SOL    HW2 5742   3.724   3.352   0.911
 1912SOL     OW 5743   2.083   3.176   1.844
 1912SOL    HW1 5744   2.018   3.103   1.823
 1912SOL    HW2 5745   2.087   3.190   1.942
 1913SOL     OW 5746   1.941   3.102   0.653
 1913SOL    HW1 5747   1.940   3.055   0.741
 1913SOL    HW2 5748   2.023   3.074   0.602
 1914SOL     OW 5749   2.534   3.253   1.624
 1914SOL    HW1 5750   2.456   3.203   1.662
 1914SOL    HW2 5751   2.531   3.348   1.655
 1915SOL     OW 5752   3.686   2.054   1.227
 1915SOL    HW1 5753   3.682   1.964   1.271
 1915SOL    HW2 5754   3.689   2.043   1.128
 1916SOL     OW 5755   2.290   2.286   0.520
 1916SOL    HW1 5756   2.320   2.214   0.458
 1916SOL    HW2 5757   2.251   2.246   0.603
 1917SOL     OW 5758   3.567   3.349   1.104
 1917SOL    HW1 5759   3.474   3.324   1.077
 1917SOL    HW2 5760   3.593   3.299   1.186
 1918SOL     OW 5761   2.179   2.409   1.280
 1918SOL    HW1 5762   2.217   2.350   1.352
 1918SOL    HW2 5763   2.219   2.383   1.192
 1919SOL     OW 5764   2.674   3.448   0.687
 1919SOL    HW1 5765   2.706   3.458   0.593
 1919SOL    HW2 5766   2.595   3.386   0.689
 1920SOL     OW 5767   3.286   2.076   1.112
 1920SOL    HW1 5768   3.338   2.011   1.167
 1920SOL    HW2 5769   3.237   2.139   1.173
 1921SOL     OW 5770   2.863   1.896   1.154
 1921SOL    HW1 5771   2.800   1.824   1.123
 1921SOL    HW2 5772   2.956   1.860   1.154
 1922SOL     OW 5773   2.632   3.192   0.301
 1922SOL    HW1 5774   2.586   3.105   0.318
 1922SOL    HW2 5775   2.723   3.189   0.342
 1923SOL     OW 5776   2.480   3.429   1.284
 1923SOL    HW1 5777   2.475   3.511   1.341
 1923SOL    HW2 5778   2.569   3.426   1.239
 1924SOL     OW 5779   3.214   1.914   0.168
 1924SOL    HW1 5780   3.249   1.873   0.084
 1924SOL    HW2 5781   3.124   1.876   0.188
 1925SOL     OW 5782   3.162   2.315   0.691
 1925SOL    HW1 5783   3.103   2.395   0.695
 1925SOL    HW2 5784   3.177   2.280   0.784
 1926SOL     OW 5785   3.455   2.083   0.882
 1926SOL    HW1 5786   3.371   2.082   0.936
 1926SOL    HW2 5787   3.457   2.166   0.826
 1927SOL     OW 5788   1.901   2.939   0.300
 1927SOL    HW1 5789   2.000   2.928   0.291
 1927SOL    HW2 5790   1.861   2.853   0.332
 1928SOL     OW 5791   2.737   3.508   0.337
 1928SOL    HW1 5792   2.660   3.473   0.283
 1928SOL    HW2 5793   2.705   3.579   0.399
 1929SOL     OW 5794   2.092   2.490   1.975
 1929SOL    HW1 5795   1.999   2.488   2.012
 1929SOL    HW2 5796   2.093   2.451   1.883
 1930SOL     OW 5797   2.087   2.137   2.858
 1930SOL    HW1 5798   2.122   2.120   2.950
 1930SOL    HW2 5799   1.999   2.092   2.846
 1931SOL     OW 5800   1.881   2.230   2.509
 1931SOL    HW1 5801   1.799   2.273   2.548
 1931SOL    HW2 5802   1.853   2.157   2.446
 1932SOL     OW 5803   2.431   3.137   3.027
 1932SOL    HW1 5804   2.338   3.130   2.990
 1932SOL    HW2 5805   2.442   3.226   3.071
 1933SOL     OW 5806   3.417   3.373   2.565
 1933SOL    HW1 5807   3.360   3.357   2.646
 1933SOL    HW2 5808   3.358   3.383   2.485
 1934SOL     OW 5809   2.997   2.565   2.579
 1934SOL    HW1 5810   3.054   2.643   2.554
 1934SOL    HW2 5811   2.937   2.591   2.655
 1935SOL     OW 5812   3.617   2.469   2.093
 1935SOL    HW1 5813   3.605   2.456   1.994
 1935SOL    HW2 5814   3.587   2.388   2.142
 1936SOL     OW 5815   2.630   3.006   2.885
 1936SOL    HW1 5816   2.552   3.023   2.945
 1936SOL    HW2 5817   2.664   3.093   2.849
 1937SOL     OW 5818   2.712   2.660   3.685
 1937SOL    HW1 5819   2.708   2.736   3.750
 1937SOL    HW2 5820   2.734   2.696   3.594
 1938SOL     OW 5821   2.547   2.874   2.527
 1938SOL    HW1 5822   2.616   2.858   2.597
 1938SOL    HW2 5823   2.474   2.931   2.565
 1939SOL     OW 5824   2.548   3.023   3.665
 1939SOL    HW1 5825   2.608   3.102   3.679
 1939SOL    HW2 5826   2.462   3.054   3.624
 1940SOL     OW 5827   2.197   3.297   2.923
 1940SOL    HW1 5828   2.119   3.266   2.870
 1940SOL    HW2 5829   2.255   3.355   2.866
 1941SOL     OW 5830   3.322   3.367   3.201
 1941SOL    HW1 5831   3.346   3.461   3.227
 1941SOL    HW2 5832   3.306   3.313   3.283
 1942SOL     OW 5833   2.300   2.254   3.361
 1942SOL    HW1 5834   2.382   2.198   3.370
 1942SOL    HW2 5835   2.219   2.196   3.365
 1943SOL     OW 5836   3.465   2.309   2.599
 1943SOL    HW1 5837   3.391   2.355   2.549
 1943SOL    HW2 5838   3.516   2.377   2.652
 1944SOL     OW 5839   2.093   3.575   2.345
 1944SOL    HW1 5840   2.127   3.652   2.399
 1944SOL    HW2 5841   2.137   3.575   2.255
 1945SOL     OW 5842   2.989   3.203   3.552
 1945SOL    HW1 5843   3.036   3.203   3.640
 1945SOL    HW2 5844   2.941   3.116   3.541
 1946SOL     OW 5845   2.092   3.296   2.400
 1946SOL    HW1 5846   2.066   3.392   2.400
 1946SOL    HW2 5847   2.021   3.242   2.445
 1947SOL     OW 5848   2.102   2.953   2.748
 1947SOL    HW1 5849   2.116   2.869   2.800
 1947SOL    HW2 5850   2.047   3.017   2.803
 1948SOL     OW 5851   2.482   3.648   3.301
 1948SOL    HW1 5852   2.390   3.631   3.336
 1948SOL    HW2 5853   2.510   3.740   3.327
 1949SOL     OW 5854   2.468   2.826   1.985
 1949SOL    HW1 5855   2.475   2.910   1.931
 1949SOL    HW2 5856   2.514   2.839   2.073
 1950SOL     OW 5857   3.456   1.976   3.342
 1950SOL    HW1 5858   3.438   2.043   3.270
 1950SOL    HW2 5859   3.453   2.022   3.431
 1951SOL     OW 5860   1.984   2.505   2.425
 1951SOL    HW1 5861   1.939   2.417   2.442
 1951SOL    HW2 5862   1.983   2.559   2.509
 1952SOL     OW 5863   3.704   3.629   2.221
 1952SOL    HW1 5864   3.758   3.600   2.301
 1952SOL    HW2 5865   3.734   3.719   2.192
 1953SOL     OW 5866   1.889   3.458   1.979
 1953SOL    HW1 5867   1.870   3.362   2.000
 1953SOL    HW2 5868   1.856   3.516   2.054
 1954SOL     OW 5869   3.551   2.784   2.474
 1954SOL    HW1 5870   3.646   2.755   2.482
 1954SOL    HW2 5871   3.543   2.849   2.399
 1955SOL     OW 5872   3.503   2.970   2.294
 1955SOL    HW1 5873   3.589   2.972   2.242
 1955SOL    HW2 5874   3.517   3.017   2.382
 1956SOL     OW 5875   1.975   2.599   3.459
 1956SOL    HW1 5876   2.063   2.586   3.504
 1956SOL    HW2 5877   1.962   2.696   3.437
 1957SOL     OW 5878   2.475   3.227   2.588
 1957SOL    HW1 5879   2.426   3.140   2.597
 1957SOL    HW2 5880   2.452   3.270   2.501
 1958SOL     OW 5881   3.155   3.090   3.285
 1958SOL    HW1 5882   3.192   3.017   3.227
 1958SOL    HW2 5883   3.207   3.095   3.370
 1959SOL     OW 5884   2.671   1.866   2.364
 1959SOL    HW1 5885   2.711   1.957   2.355
 1959SOL    HW2 5886   2.571   1.874   2.370
 1960SOL     OW 5887   2.059   2.838   3.126
 1960SOL    HW1 5888   2.148   2.793   3.112
 1960SOL    HW2 5889   1.986   2.773   3.107
 1961SOL     OW 5890   3.387   2.861   2.052
 1961SOL    HW1 5891   3.324   2.785   2.065
 1961SOL    HW2 5892   3.435   2.879   2.138
 1962SOL     OW 5893   3.049   3.654   3.478
 1962SOL    HW1 5894   3.073   3.714   3.402
 1962SOL    HW2 5895   3.056   3.559   3.448
 1963SOL     OW 5896   2.179   2.113   3.663
 1963SOL    HW1 5897   2.250   2.184   3.669
 1963SOL    HW2 5898   2.091   2.152   3.691
 1964SOL     OW 5899   3.328   3.279   2.815
 1964SOL    HW1 5900   3.269   3.285   2.895
 1964SOL    HW2 5901   3.313   3.191   2.769
 1965SOL     OW 5902   3.529   3.576   2.434
 1965SOL    HW1 5903   3.488   3.553   2.346
 1965SOL    HW2 5904   3.511   3.502   2.499
 1966SOL     OW 5905   2.460   2.591   2.132
 1966SOL    HW1 5906   2.484   2.660   2.064
 1966SOL    HW2 5907   2.382   2.624   2.186
 1967SOL     OW 5908   3.143   2.207   2.806
 1967SOL    HW1 5909   3.057   2.157   2.793
 1967SOL    HW2 5910   3.205   2.153   2.862
 1968SOL     OW 5911   3.438   3.524   2.169
 1968SOL    HW1 5912   3.527   3.570   2.172
 1968SOL    HW2 5913   3.417   3.500   2.074
 1969SOL     OW 5914   2.669   2.467   3.327
 1969SOL    HW1 5915   2.622   2.464   3.416
 1969SOL    HW2 5916   2.618   2.412   3.261
 1970SOL     OW 5917   3.256   2.331   3.536
 1970SOL    HW1 5918   3.236   2.374   3.624
 1970SOL    HW2 5919   3.334   2.269   3.545
 1971SOL     OW 5920   2.835   2.752   3.434
 1971SOL    HW1 5921   2.881   2.668   3.405
 1971SOL    HW2 5922   2.779   2.786   3.359
 1972SOL     OW 5923   2.853   2.272   3.104
 1972SOL    HW1 5924   2.776   2.306   3.158
 1972SOL    HW2 5925   2.819   2.221   3.025
 1973SOL     OW 5926   2.903   2.563   2.291
 1973SOL    HW1 5927   2.929   2.559   2.387
 1973SOL    HW2 5928   2.818   2.512   2.277
 1974SOL     OW 5929   1.938   2.673   2.651
 1974SOL    HW1 5930   2.037   2.661   2.660
 1974SOL    HW2 5931   1.914   2.768   2.672
 1975SOL     OW 5932   1.992   3.683   3.433
 1975SOL    HW1 5933   1.982   3.668   3.532
 1975SOL    HW2 5934   1.906   3.719   3.397
 1976SOL     OW 5935   2.727   2.210   2.057
 1976SOL    HW1 5936   2.786   2.273   2.008
 1976SOL    HW2 5937   2.746   2.116   2.028
 1977SOL     OW 5938   3.581   2.447   3.693
 1977SOL    HW1 5939   3.555   2.536   3.657
 1977SOL    HW2 5940   3.579   2.379   3.620
 1978SOL     OW 5941   3.224   3.006   2.407
 1978SOL    HW1 5942   3.307   2.977   2.359
 1978SOL    HW2 5943   3.175   3.073   2.351
 1979SOL     OW 5944   2.412   2.058   2.747
 1979SOL    HW1 5945   2.407   2.053   2.847
 1979SOL    HW2 5946   2.414   2.154   2.718
 1980SOL     OW 5947   2.870   3.318   2.339
 1980SOL    HW1 5948   2.824   3.390   2.287
 1980SOL    HW2 5949   2.866   3.338   2.437
 1981SOL     OW 5950   2.213   3.663   2.715
 1981SOL    HW1 5951   2.263   3.577   2.721
 1981SOL    HW2 5952   2.278   3.740   2.712
 1982SOL     OW 5953   3.657   2.928   2.735
 1982SOL    HW1 5954   3.595   2.913   2.659
 1982SOL    HW2 5955   3.605   2.939   2.820
 1983SOL     OW 5956   3.089   3.412   3.368
 1983SOL    HW1 5957   3.095   3.335   3.432
 1983SOL    HW2 5958   3.037   3.386   3.288
 1984SOL     OW 5959   2.183   2.805   2.104
 1984SOL    HW1 5960   2.265   2.844   2.062
 1984SOL    HW2 5961   2.156   2.723   2.055
 1985SOL     OW 5962   3.320   2.597   2.590
 1985SOL    HW1 5963   3.315   2.532   2.665
 1985SOL    HW2 5964   3.400   2.656   2.603
 1986SOL     OW 5965   2.323   3.128   3.589
 1986SOL    HW1 5966   2.273   3.129   3.503
 1986SOL    HW2 5967   2.260   3.110   3.665
 1987SOL     OW 5968   2.973   3.638   2.099
 1987SOL    HW1 5969   2.913   3.576   2.149
 1987SOL    HW2 5970   3.004   3.594   2.014
 1988SOL     OW 5971   2.064   2.147   3.360
 1988SOL    HW1 5972   1.984   2.207   3.347
 1988SOL    HW2 5973   2.054   2.098   3.446
 1989SOL     OW 5974   3.494   3.239   1.943
 1989SOL    HW1 5975   3.462   3.333   1.933
 1989SOL    HW2 5976   3.418   3.176   1.931
 1990SOL     OW 5977   2.326   3.605   2.185
 1990SOL    HW1 5978   2.359   3.644   2.271
 1990SOL    HW2 5979   2.402   3.598   2.120
 1991SOL     OW 5980   3.262   1.969   2.288
 1991SOL    HW1 5981   3.238   1.932   2.198
 1991SOL    HW2 5982   3.361   1.985   2.292
 1992SOL     OW 5983   2.111   3.647   3.103
 1992SOL    HW1 5984   2.168   3.582   3.153
 1992SOL    HW2 5985   2.095   3.614   3.010
 1993SOL     OW 5986   2.802   3.560   2.766
 1993SOL    HW1 5987   2.882   3.503   2.787
 1993SOL    HW2 5988   2.753   3.520   2.689
 1994SOL     OW 5989   2.244   2.562   2.342
 1994SOL    HW1 5990   2.289   2.472   2.339
 1994SOL    HW2 5991   2.150   2.551   2.375
 1995SOL     OW 5992   3.409   2.084   3.591
 1995SOL    HW1 5993   3.404   2.121   3.683
 1995SOL    HW2 5994   3.337   2.015   3.579
 1996SOL     OW 5995   2.476   1.984   1.979
 1996SOL    HW1 5996   2.574   1.962   1.986
 1996SOL    HW2 5997   2.445   1.967   1.886
 1997SOL     OW 5998   2.643   2.126   3.611
 1997SOL    HW1 5999   2.710   2.065   3.654
 1997SOL    HW2 6000   2.570   2.145   3.676
 1998SOL     OW 6001   2.750   3.376   3.057
 1998SOL    HW1 6002   2.727   3.351   2.963
 1998SOL    HW2 6003   2.811   3.307   3.096
 1999SOL     OW 6004   3.213   2.452   3.295
 1999SOL    HW1 6005   3.241   2.409   3.380
 1999SOL    HW2 6006   3.238   2.548   3.296
 2000SOL     OW 6007   2.665   3.264   2.786
 2000SOL    HW1 6008   2.755   3.278   2.744
 2000SOL    HW2 6009   2.594   3.266   2.715
 2001SOL     OW 6010   2.784   2.365   2.761
 2001SOL    HW1 6011   2.759   2.356   2.665
 2001SOL    HW2 6012   2.832   2.283   2.792
 2002SOL     OW 6013   3.296   3.050   1.903
 2002SOL    HW1 6014   3.328   2.974   1.960
 2002SOL    HW2 6015   3.204   3.077   1.933
 2003SOL     OW 6016   2.159   1.897   2.033
 2003SOL    HW1 6017   2.208   1.981   2.012
 2003SOL    HW2 6018   2.221   1.832   2.078
 2004SOL     OW 6019   2.797   2.098   2.342
 2004SOL    HW1 6020   2.749   2.139   2.264
 2004SOL    HW2 6021   2.896   2.096   2.323
 2005SOL     OW 6022   2.938   2.545   3.326
 2005SOL    HW1 6023   2.858   2.484   3.329
 2005SOL    HW2 6024   3.019   2.492   3.302
 2006SOL     OW 6025   3.089   3.432   2.655
 2006SOL    HW1 6026   3.110   3.506   2.590
 2006SOL    HW2 6027   3.157   3.432   2.728
 2007SOL     OW 6028   2.321   3.014   2.603
 2007SOL    HW1 6029   2.250   2.987   2.668
 2007SOL    HW2 6030   2.295   2.986   2.510
 2008SOL     OW 6031   3.133   3.659   2.453
 2008SOL    HW1 6032   3.177   3.723   2.389
 2008SOL    HW2 6033   3.083   3.711   2.523
 2009SOL     OW 6034   2.894   2.411   1.878
 2009SOL    HW1 6035   2.853   2.493   1.839
 2009SOL    HW2 6036   2.958   2.437   1.951
 2010SOL     OW 6037   1.940   2.418   3.248
 2010SOL    HW1 6038   2.032   2.417   3.207
 2010SOL    HW2 6039   1.934   2.492   3.315
 2011SOL     OW 6040   2.423   2.084   3.009
 2011SOL    HW1 6041   2.461   2.000   3.046
 2011SOL    HW2 6042   2.335   2.103   3.053
 2012SOL     OW 6043   2.728   2.316   2.504
 2012SOL    HW1 6044   2.696   2.388   2.442
 2012SOL    HW2 6045   2.752   2.235   2.451
 2013SOL     OW 6046   2.879   1.901   2.615
 2013SOL    HW1 6047   2.807   1.906   2.546
 2013SOL    HW2 6048   2.855   1.832   2.684
 2014SOL     OW 6049   3.291   3.035   2.729
 2014SOL    HW1 6050   3.236   2.951   2.722
 2014SOL    HW2 6051   3.317   3.064   2.637
 2015SOL     OW 6052   3.328   2.452   2.854
 2015SOL    HW1 6053   3.298   2.357   2.861
 2015SOL    HW2 6054   3.401   2.468   2.920
 2016SOL     OW 6055   3.719   2.695   2.239
 2016SOL    HW1 6056   3.761   2.631   2.303
 2016SOL    HW2 6057   3.681   2.644   2.161
 2017SOL     OW 6058   2.350   3.247   2.036
 2017SOL    HW1 6059   2.263   3.232   2.083
 2017SOL    HW2 6060   2.333   3.273   1.941
 2018SOL     OW 6061   3.526   3.142   2.519
 2018SOL    HW1 6062   3.625   3.150   2.533
 2018SOL    HW2 6063   3.481   3.226   2.550
 2019SOL     OW 6064   3.252   2.437   1.940
 2019SOL    HW1 6065   3.198   2.416   2.021
 2019SOL    HW2 6066   3.343   2.396   1.949
 2020SOL     OW 6067   3.616   3.085   3.450
 2020SOL    HW1 6068   3.707   3.046   3.437
 2020SOL    HW2 6069   3.624   3.181   3.474
 2021SOL     OW 6070   2.926   3.209   3.202
 2021SOL    HW1 6071   2.846   3.186   3.257
 2021SOL    HW2 6072   3.009   3.183   3.251
 2022SOL     OW 6073   3.454   3.491   3.487
 2022SOL    HW1 6074   3.481   3.525   3.397
 2022SOL    HW2 6075   3.533   3.453   3.533
 2023SOL     OW 6076   2.973   3.057   2.962
 2023SOL    HW1 6077   2.933   3.101   3.043
 2023SOL    HW2 6078   2.932   3.094   2.879
 2024SOL     OW 6079   3.500   2.961   2.941
 2024SOL    HW1 6080   3.505   3.042   3.000
 2024SOL    HW2 6081   3.414   2.963   2.890
 2025SOL     OW 6082   2.777   1.951   3.264
 2025SOL    HW1 6083   2.802   1.931   3.169
 2025SOL    HW2 6084   2.849   2.007   3.306
 2026SOL     OW 6085   2.842   2.978   3.581
 2026SOL    HW1 6086   2.743   2.984   3.591
 2026SOL    HW2 6087   2.865   2.898   3.525
 2027SOL     OW 6088   2.567   2.912   2.230
 2027SOL    HW1 6089   2.553   2.919   2.329
 2027SOL    HW2 6090   2.651   2.861   2.212
 2028SOL     OW 6091   2.272   2.675   3.113
 2028SOL    HW1 6092   2.358   2.687   3.163
 2028SOL    HW2 6093   2.230   2.588   3.140
 2029SOL     OW 6094   3.136   2.248   3.124
 2029SOL    HW1 6095   3.157   2.322   3.188
 2029SOL    HW2 6096   3.047   2.265   3.081
 2030SOL     OW 6097   1.926   3.426   3.193
 2030SOL    HW1 6098   1.880   3.508   3.159
 2030SOL    HW2 6099   2.024   3.445   3.202
 2031SOL     OW 6100   2.229   2.962   2.363
 2031SOL    HW1 6101   2.222   3.045   2.307
 2031SOL    HW2 6102   2.233   2.882   2.303
 2032SOL     OW 6103   2.428   2.399   2.727
 2032SOL    HW1 6104   2.440   2.465   2.653
 2032SOL    HW2 6105   2.474   2.433   2.810
 2033SOL     OW 6106   3.114   3.210   2.250
 2033SOL    HW1 6107   3.164   3.287   2.290
 2033SOL    HW2 6108   3.019   3.212   2.282
 2034SOL     OW 6109   3.134   3.307   3.004
 2034SOL    HW1 6110   3.181   3.320   3.091
 2034SOL    HW2 6111   3.068   3.233   3.013
 2035SOL     OW 6112   3.444   2.501   2.334
 2035SOL    HW1 6113   3.413   2.562   2.407
 2035SOL    HW2 6114   3.494   2.553   2.265
 2036SOL     OW 6115   2.216   3.372   3.191
 2036SOL    HW1 6116   2.195   3.328   3.104
 2036SOL    HW2 6117   2.313   3.398   3.194
 2037SOL     OW 6118   2.264   2.613   3.460
 2037SOL    HW1 6119   2.332   2.668   3.413
 2037SOL    HW2 6120   2.304   2.525   3.487
 2038SOL     OW 6121   3.449   2.641   3.532
 2038SOL    HW1 6122   3.357   2.679   3.527
 2038SOL    HW2 6123   3.509   2.688   3.467
 2039SOL     OW 6124   2.875   1.967   3.632
 2039SOL    HW1 6125   2.881   2.052   3.580
 2039SOL    HW2 6126   2.907   1.891   3.575
 2040SOL     OW 6127   2.366   1.912   3.602
 2040SOL    HW1 6128   2.324   1.855   3.532
 2040SOL    HW2 6129   2.300   1.981   3.634
 2041SOL     OW 6130   2.435   2.732   2.891
 2041SOL    HW1 6131   2.479   2.821   2.882
 2041SOL    HW2 6132   2.372   2.732   2.968
 2042SOL     OW 6133   3.222   2.724   2.907
 2042SOL    HW1 6134   3.147   2.724   2.841
 2042SOL    HW2 6135   3.259   2.632   2.916
 2043SOL     OW 6136   3.071   2.387   2.137
 2043SOL    HW1 6137   3.084   2.303   2.191
 2043SOL    HW2 6138   3.042   2.461   2.197
 2044SOL     OW 6139   2.169   2.075   3.093
 2044SOL    HW1 6140   2.146   2.112   3.183
 2044SOL    HW2 6141   2.139   1.980   3.087
 2045SOL     OW 6142   1.899   3.172   3.144
 2045SOL    HW1 6143   1.952   3.123   3.212
 2045SOL    HW2 6144   1.921   3.270   3.149
 2046SOL     OW 6145   2.594   2.496   2.926
 2046SOL    HW1 6146   2.653   2.470   2.850
 2046SOL    HW2 6147   2.566   2.592   2.915
 2047SOL     OW 6148   3.590   2.797   3.716
 2047SOL    HW1 6149   3.544   2.790   3.627
 2047SOL    HW2 6150   3.528   2.841   3.782
 2048SOL     OW 6151   2.169   1.925   2.480
 2048SOL    HW1 6152   2.158   2.019   2.513
 2048SOL    HW2 6153   2.164   1.862   2.557
 2049SOL     OW 6154   3.484   2.229   2.236
 2049SOL    HW1 6155   3.486   2.153   2.300
 2049SOL    HW2 6156   3.436   2.306   2.276
 2050SOL     OW 6157   2.885   2.628   2.828
 2050SOL    HW1 6158   2.900   2.649   2.924
 2050SOL    HW2 6159   2.855   2.533   2.819
 2051SOL     OW 6160   2.842   3.435   3.562
 2051SOL    HW1 6161   2.822   3.479   3.474
 2051SOL    HW2 6162   2.881   3.344   3.546
 2052SOL     OW 6163   3.721   3.380   3.467
 2052SOL    HW1 6164   3.735   3.407   3.372
 2052SOL    HW2 6165   3.804   3.402   3.520
 2053SOL     OW 6166   2.212   2.760   3.666
 2053SOL    HW1 6167   2.288   2.804   3.714
 2053SOL    HW2 6168   2.247   2.713   3.584
 2054SOL     OW 6169   3.402   2.136   1.987
 2054SOL    HW1 6170   3.341   2.061   2.010
 2054SOL    HW2 6171   3.424   2.188   2.070
 2055SOL     OW 6172   3.165   2.700   1.904
 2055SOL    HW1 6173   3.199   2.607   1.919
 2055SOL    HW2 6174   3.183   2.727   1.809
 2056SOL     OW 6175   2.930   3.195   2.711
 2056SOL    HW1 6176   2.937   3.111   2.656
 2056SOL    HW2 6177   2.992   3.264   2.675
 2057SOL     OW 6178   2.181   2.672   2.811
 2057SOL    HW1 6179   2.274   2.708   2.816
 2057SOL    HW2 6180   2.175   2.587   2.863
 2058SOL     OW 6181   2.201   2.371   2.868
 2058SOL    HW1 6182   2.149   2.288   2.851
 2058SOL    HW2 6183   2.278   2.376   2.804
 2059SOL     OW 6184   3.000   2.242   3.540
 2059SOL    HW1 6185   2.955   2.305   3.604
 2059SOL    HW2 6186   3.093   2.273   3.523
 2060SOL     OW 6187   3.022   2.069   3.339
 2060SOL    HW1 6188   3.022   2.133   3.416
 2060SOL    HW2 6189   3.050   2.117   3.256
 2061SOL     OW 6190   1.870   3.188   2.062
 2061SOL    HW1 6191   1.777   3.209   2.031
 2061SOL    HW2 6192   1.880   3.089   2.075
 2062SOL     OW 6193   1.950   3.663   2.789
 2062SOL    HW1 6194   1.908   3.577   2.762
 2062SOL    HW2 6195   2.044   3.666   2.755
 2063SOL     OW 6196   2.366   3.430   2.772
 2063SOL    HW1 6197   2.432   3.504   2.781
 2063SOL    HW2 6198   2.410   3.351   2.730
 2064SOL     OW 6199   2.864   2.658   3.100
 2064SOL    HW1 6200   2.905   2.626   3.186
 2064SOL    HW2 6201   2.768   2.631   3.097
 2065SOL     OW 6202   1.902   2.406   2.976
 2065SOL    HW1 6203   1.987   2.373   2.935
 2065SOL    HW2 6204   1.915   2.421   3.074
 2066SOL     OW 6205   2.051   2.382   3.584
 2066SOL    HW1 6206   2.110   2.342   3.514
 2066SOL    HW2 6207   1.993   2.453   3.543
 2067SOL     OW 6208   3.231   2.812   3.522
 2067SOL    HW1 6209   3.270   2.901   3.542
 2067SOL    HW2 6210   3.241   2.792   3.425
 2068SOL     OW 6211   2.677   2.434   2.187
 2068SOL    HW1 6212   2.684   2.345   2.141
 2068SOL    HW2 6213   2.583   2.468   2.179
 2069SOL     OW 6214   3.519   2.466   3.068
 2069SOL    HW1 6215   3.481   2.397   3.130
 2069SOL    HW2 6216   3.601   2.430   3.024
 2070SOL     OW 6217   2.114   3.426   3.606
 2070SOL    HW1 6218   2.084   3.483   3.682
 2070SOL    HW2 6219   2.107   3.329   3.632
 2071SOL     OW 6220   2.533   2.326   3.131
 2071SOL    HW1 6221   2.499   2.237   3.101
 2071SOL    HW2 6222   2.559   2.380   3.051
 2072SOL     OW 6223   2.792   3.540   3.327
 2072SOL    HW1 6224   2.768   3.522   3.232
 2072SOL    HW2 6225   2.822   3.634   3.337
 2073SOL     OW 6226   2.021   2.999   3.328
 2073SOL    HW1 6227   2.043   2.938   3.404
 2073SOL    HW2 6228   2.031   2.950   3.242
 2074SOL     OW 6229   3.209   2.921   3.096
 2074SOL    HW1 6230   3.233   2.858   3.022
 2074SOL    HW2 6231   3.119   2.961   3.078
 2075SOL     OW 6232   3.164   2.717   2.171
 2075SOL    HW1 6233   3.078   2.686   2.213
 2075SOL    HW2 6234   3.160   2.703   2.072
 2076SOL     OW 6235   3.621   3.609   3.016
 2076SOL    HW1 6236   3.682   3.639   2.943
 2076SOL    HW2 6237   3.583   3.520   2.994
 2077SOL     OW 6238   3.114   3.593   2.990
 2077SOL    HW1 6239   3.198   3.598   2.936
 2077SOL    HW2 6240   3.091   3.497   3.008
 2078SOL     OW 6241   1.945   3.120   2.884
 2078SOL    HW1 6242   1.940   3.119   2.984
 2078SOL    HW2 6243   1.862   3.079   2.846
 2079SOL     OW 6244   2.550   3.524   3.578
 2079SOL    HW1 6245   2.494   3.605   3.587
 2079SOL    HW2 6246   2.602   3.528   3.492
 2080SOL     OW 6247   3.588   1.997   2.385
 2080SOL    HW1 6248   3.661   1.980   2.318
 2080SOL    HW2 6249   3.557   1.910   2.423
 2081SOL     OW 6250   3.250   3.435   2.339
 2081SOL    HW1 6251   3.317   3.447   2.265
 2081SOL    HW2 6252   3.210   3.524   2.362
 2082SOL     OW 6253   1.992   3.656   3.713
 2082SOL    HW1 6254   1.951   3.582   3.766
 2082SOL    HW2 6255   2.056   3.707   3.771
 2083SOL     OW 6256   3.142   2.789   2.534
 2083SOL    HW1 6257   3.202   2.708   2.536
 2083SOL    HW2 6258   3.182   2.858   2.474
 2084SOL     OW 6259   2.692   3.135   3.284
 2084SOL    HW1 6260   2.687   3.168   3.379
 2084SOL    HW2 6261   2.606   3.154   3.238
 2085SOL     OW 6262   2.534   3.478   2.016
 2085SOL    HW1 6263   2.543   3.488   1.917
 2085SOL    HW2 6264   2.494   3.389   2.037
 2086SOL     OW 6265   3.512   3.582   3.256
 2086SOL    HW1 6266   3.565   3.592   3.172
 2086SOL    HW2 6267   3.485   3.672   3.290
 2087SOL     OW 6268   3.703   2.037   2.825
 2087SOL    HW1 6269   3.742   1.952   2.789
 2087SOL    HW2 6270   3.605   2.039   2.806
 2088SOL     OW 6271   2.125   2.188   2.582
 2088SOL    HW1 6272   2.046   2.239   2.548
 2088SOL    HW2 6273   2.116   2.173   2.680
 2089SOL     OW 6274   3.056   3.474   1.893
 2089SOL    HW1 6275   3.062   3.381   1.930
 2089SOL    HW2 6276   2.997   3.474   1.813
 2090SOL     OW 6277   2.684   2.864   3.234
 2090SOL    HW1 6278   2.724   2.863   3.142
 2090SOL    HW2 6279   2.694   2.956   3.274
 2091SOL     OW 6280   2.778   2.772   2.153
 2091SOL    HW1 6281   2.841   2.810   2.085
 2091SOL    HW2 6282   2.818   2.689   2.192
 2092SOL     OW 6283   3.366   3.469   1.906
 2092SOL    HW1 6284   3.274   3.506   1.913
 2092SOL    HW2 6285   3.404   3.489   1.816
 2093SOL     OW 6286   2.234   3.150   3.352
 2093SOL    HW1 6287   2.221   3.243   3.318
 2093SOL    HW2 6288   2.150   3.098   3.339
 2094SOL     OW 6289   3.476   3.154   3.151
 2094SOL    HW1 6290   3.536   3.157   3.231
 2094SOL    HW2 6291   3.401   3.218   3.164
 2095SOL     OW 6292   2.901   2.960   2.558
 2095SOL    HW1 6293   2.831   2.913   2.612
 2095SOL    HW2 6294   2.960   2.892   2.515
 2096SOL     OW 6295   2.876   2.098   2.833
 2096SOL    HW1 6296   2.868   2.062   2.740
 2096SOL    HW2 6297   2.874   2.022   2.898
 2097SOL     OW 6298   2.452   3.349   2.353
 2097SOL    HW1 6299   2.494   3.291   2.283
 2097SOL    HW2 6300   2.408   3.428   2.309
 2098SOL     OW 6301   3.571   2.247   3.243
 2098SOL    HW1 6302   3.644   2.316   3.247
 2098SOL    HW2 6303   3.599   2.172   3.184
 2099SOL     OW 6304   2.117   3.210   2.152
 2099SOL    HW1 6305   2.021   3.211   2.125
 2099SOL    HW2 6306   2.129   3.263   2.236
 2100SOL     OW 6307   1.967   2.875   3.588
 2100SOL    HW1 6308   1.890   2.842   3.642
 2100SOL    HW2 6309   2.052   2.845   3.630
 2101SOL     OW 6310   2.534   2.065   3.351
 2101SOL    HW1 6311   2.624   2.049   3.311
 2101SOL    HW2 6312   2.542   2.070   3.450
 2102SOL     OW 6313   1.937   2.207   1.895
 2102SOL    HW1 6314   1.845   2.179   1.866
 2102SOL    HW2 6315   1.968   2.284   1.839
 2103SOL     OW 6316   3.302   2.718   3.260
 2103SOL    HW1 6317   3.245   2.770   3.197
 2103SOL    HW2 6318   3.398   2.730   3.236
 2104SOL     OW 6319   1.934   2.028   2.180
 2104SOL    HW1 6320   1.917   2.111   2.126
 2104SOL    HW2 6321   2.024   1.991   2.158
 2105SOL     OW 6322   3.045   3.197   1.981
 2105SOL    HW1 6323   2.946   3.186   1.983
 2105SOL    HW2 6324   3.079   3.212   2.074
 2106SOL     OW 6325   2.475   2.704   3.293
 2106SOL    HW1 6326   2.531   2.785   3.276
 2106SOL    HW2 6327   2.534   2.624   3.296
 2107SOL     OW 6328   3.355   3.629   2.821
 2107SOL    HW1 6329   3.388   3.693   2.752
 2107SOL    HW2 6330   3.421   3.623   2.896
 2108SOL     OW 6331   2.578   2.427   3.570
 2108SOL    HW1 6332   2.597   2.492   3.644
 2108SOL    HW2 6333   2.638   2.347   3.579
 2109SOL     OW 6334   3.312   3.082   3.495
 2109SOL    HW1 6335   3.303   3.072   3.594
 2109SOL    HW2 6336   3.408   3.075   3.469
 2110SOL     OW 6337   2.252   3.603   3.422
 2110SOL    HW1 6338   2.161   3.644   3.420
 2110SOL    HW2 6339   2.245   3.509   3.454
 2111SOL     OW 6340   3.536   2.745   3.116
 2111SOL    HW1 6341   3.509   2.656   3.079
 2111SOL    HW2 6342   3.537   2.813   3.043
 2112SOL     OW 6343   3.087   2.187   2.311
 2112SOL    HW1 6344   3.152   2.113   2.300
 2112SOL    HW2 6345   3.107   2.237   2.395
 2113SOL     OW 6346   2.456   2.607   2.514
 2113SOL    HW1 6347   2.506   2.692   2.495
 2113SOL    HW2 6348   2.368   2.609   2.466
 2114SOL     OW 6349   3.639   2.204   3.504
 2114SOL    HW1 6350   3.622   2.235   3.410
 2114SOL    HW2 6351   3.555   2.167   3.542
 2115SOL     OW 6352   3.592   2.796   3.379
 2115SOL    HW1 6353   3.630   2.887   3.394
 2115SOL    HW2 6354   3.584   2.779   3.280
 2116SOL     OW 6355   2.721   3.236   1.878
 2116SOL    HW1 6356   2.675   3.251   1.966
 2116SOL    HW2 6357   2.765   3.321   1.848
 2117SOL     OW 6358   2.523   3.652   2.815
 2117SOL    HW1 6359   2.477   3.740   2.802
 2117SOL    HW2 6360   2.622   3.664   2.808
 2118SOL     OW 6361   2.721   2.818   2.723
 2118SOL    HW1 6362   2.775   2.749   2.771
 2118SOL    HW2 6363   2.689   2.887   2.789
 2119SOL     OW 6364   2.945   2.846   1.949
 2119SOL    HW1 6365   2.922   2.899   1.867
 2119SOL    HW2 6366   3.026   2.790   1.930
 2120SOL     OW 6367   3.723   3.431   2.713
 2120SOL    HW1 6368   3.652   3.419   2.643
 2120SOL    HW2 6369   3.724   3.352   2.773
 2121SOL     OW 6370   2.083   3.176   3.706
 2121SOL    HW1 6371   2.018   3.103   3.685
 2121SOL    HW2 6372   2.087   3.190   3.804
 2122SOL     OW 6373   1.941   3.102   2.515
 2122SOL    HW1 6374   1.940   3.055   2.603
 2122SOL    HW2 6375   2.023   3.074   2.464
 2123SOL     OW 6376   2.534   3.253   3.486
 2123SOL    HW1 6377   2.456   3.203   3.524
 2123SOL    HW2 6378   2.531   3.348   3.517
 2124SOL     OW 6379   3.686   2.054   3.089
 2124SOL    HW1 6380   3.682   1.964   3.133
 2124SOL    HW2 6381   3.689   2.043   2.990
 2125SOL     OW 6382   3.567   3.349   2.966
 2125SOL    HW1 6383   3.474   3.324   2.939
 2125SOL    HW2 6384   3.593   3.299   3.048
 2126SOL     OW 6385   2.179   2.409   3.142
 2126SOL    HW1 6386   2.217   2.350   3.214
 2126SOL    HW2 6387   2.219   2.383   3.054
 2127SOL     OW 6388   2.674   3.448   2.549
 2127SOL    HW1 6389   2.706   3.458   2.455
 2127SOL    HW2 6390   2.595   3.386   2.551
 2128SOL     OW 6391   3.286   2.076   2.974
 2128SOL    HW1 6392   3.338   2.011   3.029
 2128SOL    HW2 6393   3.237   2.139   3.035
 2129SOL     OW 6394   2.863   1.896   3.016
 2129SOL    HW1 6395   2.800   1.824   2.985
 2129SOL    HW2 6396   2.956   1.860   3.016
 2130SOL     OW 6397   2.632   3.192   2.163
 2130SOL    HW1 6398   2.586   3.105   2.180
 2130SOL    HW2 6399   2.723   3.189   2.204
 2131SOL     OW 6400   2.480   3.429   3.146
 2131SOL    HW1 6401   2.475   3.511   3.203
 2131SOL    HW2 6402   2.569   3.426   3.101
 2132SOL     OW 6403   3.214   1.914   2.030
 2132SOL    HW1 6404   3.249   1.873   1.946
 2132SOL    HW2 6405   3.124   1.876   2.050
 2133SOL     OW 6406   3.162   2.315   2.553
 2133SOL    HW1 6407   3.103   2.395   2.557
 2133SOL    HW2 6408   3.177   2.280   2.646
 2134SOL     OW 6409   3.455   2.083   2.744
 2134SOL    HW1 6410   3.371   2.082   2.798
 2134SOL    HW2 6411   3.457   2.166   2.688
 2135SOL     OW 6412   1.901   2.939   2.162
 2135SOL    HW1 6413   2.000   2.928   2.153
 2135SOL    HW2 6414   1.861   2.853   2.194
 2136SOL     OW 6415   2.737   3.508   2.199
 2136SOL    HW1 6416   2.660   3.473   2.145
 2136SOL    HW2 6417   2.705   3.579   2.261
 2137SOL     OW 6418   2.092   2.490   3.837
 2137SOL    HW1 6419   1.999   2.488   3.874
 2137SOL    HW2 6420   2.093   2.451   3.745
 2138SOL     OW 6421   2.087   2.137   4.720
 2138SOL    HW1 6422   2.122   2.120   4.812
 2138SOL    HW2 6423   1.999   2.092   4.708
 2139SOL     OW 6424   3.617   2.469   3.955
 2139SOL    HW1 6425   3.605   2.456   3.856
 2139SOL    HW2 6426   3.587   2.388   4.004
 2140SOL     OW 6427   3.465   2.309   4.461
 2140SOL    HW1 6428   3.391   2.355   4.411
 2140SOL    HW2 6429   3.516   2.377   4.514
 2141SOL     OW 6430   2.093   3.575   4.207
 2141SOL    HW1 6431   2.127   3.652   4.261
 2141SOL    HW2 6432   2.137   3.575   4.117
 2142SOL     OW 6433   2.092   3.296   4.262
 2142SOL    HW1 6434   2.066   3.392   4.262
 2142SOL    HW2 6435   2.021   3.242   4.307
 2143SOL     OW 6436   2.468   2.826   3.847
 2143SOL    HW1 6437   2.475   2.910   3.793
 2143SOL    HW2 6438   2.514   2.839   3.935
 2144SOL     OW 6439   1.984   2.505   4.287
 2144SOL    HW1 6440   1.939   2.417   4.304
 2144SOL    HW2 6441   1.983   2.559   4.371
 2145SOL     OW 6442   3.704   3.629   4.083
 2145SOL    HW1 6443   3.758   3.600   4.163
 2145SOL    HW2 6444   3.734   3.719   4.054
 2146SOL     OW 6445   1.889   3.458   3.841
 2146SOL    HW1 6446   1.870   3.362   3.862
 2146SOL    HW2 6447   1.856   3.516   3.916
 2147SOL     OW 6448   3.551   2.784   4.336
 2147SOL    HW1 6449   3.646   2.755   4.344
 2147SOL    HW2 6450   3.543   2.849   4.261
 2148SOL     OW 6451   3.503   2.970   4.156
 2148SOL    HW1 6452   3.589   2.972   4.104
 2148SOL    HW2 6453   3.517   3.017   4.244
 2149SOL     OW 6454   2.475   3.227   4.450
 2149SOL    HW1 6455   2.426   3.140   4.459
 2149SOL    HW2 6456   2.452   3.270   4.363
 2150SOL     OW 6457   2.671   1.866   4.226
 2150SOL    HW1 6458   2.711   1.957   4.217
 2150SOL    HW2 6459   2.571   1.874   4.232
 2151SOL     OW 6460   3.387   2.861   3.914
 2151SOL    HW1 6461   3.324   2.785   3.927
 2151SOL    HW2 6462   3.435   2.879   4.000
 2152SOL     OW 6463   3.328   3.279   4.677
 2152SOL    HW1 6464   3.269   3.285   4.757
 2152SOL    HW2 6465   3.313   3.191   4.631
 2153SOL     OW 6466   2.460   2.591   3.994
 2153SOL    HW1 6467   2.484   2.660   3.926
 2153SOL    HW2 6468   2.382   2.624   4.048
 2154SOL     OW 6469   3.143   2.207   4.668
 2154SOL    HW1 6470   3.057   2.157   4.655
 2154SOL    HW2 6471   3.205   2.153   4.724
 2155SOL     OW 6472   3.438   3.524   4.031
 2155SOL    HW1 6473   3.527   3.570   4.034
 2155SOL    HW2 6474   3.417   3.500   3.936
 2156SOL     OW 6475   2.903   2.563   4.153
 2156SOL    HW1 6476   2.929   2.559   4.249
 2156SOL    HW2 6477   2.818   2.512   4.139
 2157SOL     OW 6478   1.938   2.673   4.513
 2157SOL    HW1 6479   2.037   2.661   4.522
 2157SOL    HW2 6480   1.914   2.768   4.534
 2158SOL     OW 6481   2.727   2.210   3.919
 2158SOL    HW1 6482   2.786   2.273   3.870
 2158SOL    HW2 6483   2.746   2.116   3.890
 2159SOL     OW 6484   3.224   3.006   4.269
 2159SOL    HW1 6485   3.307   2.977   4.221
 2159SOL    HW2 6486   3.175   3.073   4.213
 2160SOL     OW 6487   2.870   3.318   4.201
 2160SOL    HW1 6488   2.824   3.390   4.149
 2160SOL    HW2 6489   2.866   3.338   4.299
 2161SOL     OW 6490   2.213   3.663   4.577
 2161SOL    HW1 6491   2.263   3.577   4.583
 2161SOL    HW2 6492   2.278   3.740   4.574
 2162SOL     OW 6493   3.657   2.928   4.597
 2162SOL    HW1 6494   3.595   2.913   4.521
 2162SOL    HW2 6495   3.605   2.939   4.682
 2163SOL     OW 6496   2.183   2.805   3.966
 2163SOL    HW1 6497   2.265   2.844   3.924
 2163SOL    HW2 6498   2.156   2.723   3.917
 2164SOL     OW 6499   2.973   3.638   3.961
 2164SOL    HW1 6500   2.913   3.576   4.011
 2164SOL    HW2 6501   3.004   3.594   3.876
 2165SOL     OW 6502   3.494   3.239   3.805
 2165SOL    HW1 6503   3.462   3.333   3.795
 2165SOL    HW2 6504   3.418   3.176   3.793
 2166SOL     OW 6505   2.326   3.605   4.047
 2166SOL    HW1 6506   2.359   3.644   4.133
 2166SOL    HW2 6507   2.402   3.598   3.982
 2167SOL     OW 6508   3.262   1.969   4.150
 2167SOL    HW1 6509   3.238   1.932   4.060
 2167SOL    HW2 6510   3.361   1.985   4.154
 2168SOL     OW 6511   2.244   2.562   4.204
 2168SOL    HW1 6512   2.289   2.472   4.201
 2168SOL    HW2 6513   2.150   2.551   4.237
 2169SOL     OW 6514   2.476   1.984   3.841
 2169SOL    HW1 6515   2.574   1.962   3.848
 2169SOL    HW2 6516   2.445   1.967   3.748
 2170SOL     OW 6517   2.401   1.926   4.236
 2170SOL    HW1 6518   2.320   1.927   4.294
 2170SOL    HW2 6519   2.404   2.009   4.181
 2171SOL     OW 6520   3.296   3.050   3.765
 2171SOL    HW1 6521   3.328   2.974   3.822
 2171SOL    HW2 6522   3.204   3.077   3.795
 2172SOL     OW 6523   2.159   1.897   3.895
 2172SOL    HW1 6524   2.208   1.981   3.874
 2172SOL    HW2 6525   2.221   1.832   3.940
 2173SOL     OW 6526   2.797   2.098   4.204
 2173SOL    HW1 6527   2.749   2.139   4.126
 2173SOL    HW2 6528   2.896   2.096   4.185
 2174SOL     OW 6529   2.321   3.014   4.465
 2174SOL    HW1 6530   2.250   2.987   4.530
 2174SOL    HW2 6531   2.295   2.986   4.372
 2175SOL     OW 6532   3.133   3.659   4.315
 2175SOL    HW1 6533   3.177   3.723   4.251
 2175SOL    HW2 6534   3.083   3.711   4.385
 2176SOL     OW 6535   2.894   2.411   3.740
 2176SOL    HW1 6536   2.853   2.493   3.701
 2176SOL    HW2 6537   2.958   2.437   3.813
 2177SOL     OW 6538   2.728   2.316   4.366
 2177SOL    HW1 6539   2.696   2.388   4.304
 2177SOL    HW2 6540   2.752   2.235   4.313
 2178SOL     OW 6541   3.719   2.695   4.101
 2178SOL    HW1 6542   3.761   2.631   4.165
 2178SOL    HW2 6543   3.681   2.644   4.023
 2179SOL     OW 6544   2.350   3.247   3.898
 2179SOL    HW1 6545   2.263   3.232   3.945
 2179SOL    HW2 6546   2.333   3.273   3.803
 2180SOL     OW 6547   3.252   2.437   3.802
 2180SOL    HW1 6548   3.198   2.416   3.883
 2180SOL    HW2 6549   3.343   2.396   3.811
 2181SOL     OW 6550   2.389   2.118   4.052
 2181SOL    HW1 6551   2.416   2.059   3.977
 2181SOL    HW2 6552   2.389   2.213   4.021
 2182SOL     OW 6553   2.567   2.912   4.092
 2182SOL    HW1 6554   2.553   2.919   4.191
 2182SOL    HW2 6555   2.651   2.861   4.074
 2183SOL     OW 6556   2.229   2.962   4.225
 2183SOL    HW1 6557   2.222   3.045   4.169
 2183SOL    HW2 6558   2.233   2.882   4.165
 2184SOL     OW 6559   3.114   3.210   4.112
 2184SOL    HW1 6560   3.164   3.287   4.152
 2184SOL    HW2 6561   3.019   3.212   4.144
 2185SOL     OW 6562   3.444   2.501   4.196
 2185SOL    HW1 6563   3.413   2.562   4.269
 2185SOL    HW2 6564   3.494   2.553   4.127
 2186SOL     OW 6565   3.071   2.387   3.999
 2186SOL    HW1 6566   3.084   2.303   4.053
 2186SOL    HW2 6567   3.042   2.461   4.059
 2187SOL     OW 6568   2.169   1.925   4.342
 2187SOL    HW1 6569   2.158   2.019   4.375
 2187SOL    HW2 6570   2.164   1.862   4.419
 2188SOL     OW 6571   3.484   2.229   4.098
 2188SOL    HW1 6572   3.486   2.153   4.162
 2188SOL    HW2 6573   3.436   2.306   4.138
 2189SOL     OW 6574   3.402   2.136   3.849
 2189SOL    HW1 6575   3.341   2.061   3.872
 2189SOL    HW2 6576   3.424   2.188   3.932
 2190SOL     OW 6577   3.165   2.700   3.766
 2190SOL    HW1 6578   3.199   2.607   3.781
 2190SOL    HW2 6579   3.183   2.727   3.671
 2191SOL     OW 6580   1.870   3.188   3.924
 2191SOL    HW1 6581   1.777   3.209   3.893
 2191SOL    HW2 6582   1.880   3.089   3.937
 2192SOL     OW 6583   2.677   2.434   4.049
 2192SOL    HW1 6584   2.684   2.345   4.003
 2192SOL    HW2 6585   2.583   2.468   4.041
 2193SOL     OW 6586   2.335   2.362   3.915
 2193SOL    HW1 6587   2.396   2.442   3.919
 2193SOL    HW2 6588   2.240   2.393   3.922
 2194SOL     OW 6589   3.164   2.717   4.033
 2194SOL    HW1 6590   3.078   2.686   4.075
 2194SOL    HW2 6591   3.160   2.703   3.934
 2195SOL     OW 6592   3.588   1.997   4.247
 2195SOL    HW1 6593   3.661   1.980   4.180
 2195SOL    HW2 6594   3.557   1.910   4.285
 2196SOL     OW 6595   3.250   3.435   4.201
 2196SOL    HW1 6596   3.317   3.447   4.127
 2196SOL    HW2 6597   3.210   3.524   4.224
 2197SOL     OW 6598   2.534   3.478   3.878
 2197SOL    HW1 6599   2.543   3.488   3.779
 2197SOL    HW2 6600   2.494   3.389   3.899
 2198SOL     OW 6601   3.703   2.037   4.687
 2198SOL    HW1 6602   3.742   1.952   4.651
 2198SOL    HW2 6603   3.605   2.039   4.668
 2199SOL     OW 6604   3.056   3.474   3.755
 2199SOL    HW1 6605   3.062   3.381   3.792
 2199SOL    HW2 6606   2.997   3.474   3.675
 2200SOL     OW 6607   2.778   2.772   4.015
 2200SOL    HW1 6608   2.841   2.810   3.947
 2200SOL    HW2 6609   2.818   2.689   4.054
 2201SOL     OW 6610   3.366   3.469   3.768
 2201SOL    HW1 6611   3.274   3.506   3.775
 2201SOL    HW2 6612   3.404   3.489   3.678
 2202SOL     OW 6613   2.452   3.349   4.215
 2202SOL    HW1 6614   2.494   3.291   4.145
 2202SOL    HW2 6615   2.408   3.428   4.171
 2203SOL     OW 6616   2.117   3.210   4.014
 2203SOL    HW1 6617   2.021   3.211   3.987
 2203SOL    HW2 6618   2.129   3.263   4.098
 2204SOL     OW 6619   1.937   2.207   3.757
 2204SOL    HW1 6620   1.845   2.179   3.728
 2204SOL    HW2 6621   1.968   2.284   3.701
 2205SOL     OW 6622   1.934   2.028   4.042
 2205SOL    HW1 6623   1.917   2.111   3.988
 2205SOL    HW2 6624   2.024   1.991   4.020
 2206SOL     OW 6625   3.045   3.197   3.843
 2206SOL    HW1 6626   2.946   3.186   3.845
 2206SOL    HW2 6627   3.079   3.212   3.936
 2207SOL     OW 6628   3.087   2.187   4.173
 2207SOL    HW1 6629   3.152   2.113   4.162
 2207SOL    HW2 6630   3.107   2.237   4.257
 2208SOL     OW 6631   2.456   2.607   4.376
 2208SOL    HW1 6632   2.506   2.692   4.357
 2208SOL    HW2 6633   2.368   2.609   4.328
 2209SOL     OW 6634   2.721   3.236   3.740
 2209SOL    HW1 6635   2.675   3.251   3.828
 2209SOL    HW2 6636   2.765   3.321   3.710
 2210SOL     OW 6637   2.945   2.846   3.811
 2210SOL    HW1 6638   2.922   2.899   3.729
 2210SOL    HW2 6639   3.026   2.790   3.792
 2211SOL     OW 6640   1.941   3.102   4.377
 2211SOL    HW1 6641   1.940   3.055   4.465
 2211SOL    HW2 6642   2.023   3.074   4.326
 2212SOL     OW 6643   2.290   2.286   4.244
 2212SOL    HW1 6644   2.320   2.214   4.182
 2212SOL    HW2 6645   2.251   2.246   4.327
 2213SOL     OW 6646   2.674   3.448   4.411
 2213SOL    HW1 6647   2.706   3.458   4.317
 2213SOL    HW2 6648   2.595   3.386   4.413
 2214SOL     OW 6649   2.632   3.192   4.025
 2214SOL    HW1 6650   2.586   3.105   4.042
 2214SOL    HW2 6651   2.723   3.189   4.066
 2215SOL     OW 6652   3.214   1.914   3.892
 2215SOL    HW1 6653   3.249   1.873   3.808
 2215SOL    HW2 6654   3.124   1.876   3.912
 2216SOL     OW 6655   3.162   2.315   4.415
 2216SOL    HW1 6656   3.103   2.395   4.419
 2216SOL    HW2 6657   3.177   2.280   4.508
 2217SOL     OW 6658   1.901   2.939   4.024
 2217SOL    HW1 6659   2.000   2.928   4.015
 2217SOL    HW2 6660   1.861   2.853   4.056
 2218SOL     OW 6661   2.737   3.508   4.061
 2218SOL    HW1 6662   2.660   3.473   4.007
 2218SOL    HW2 6663   2.705   3.579   4.123
 2219SOL     OW 6664   2.087   3.999   0.996
 2219SOL    HW1 6665   2.122   3.982   1.088
 2219SOL    HW2 6666   1.999   3.954   0.984
 2220SOL     OW 6667   1.881   4.092   0.647
 2220SOL    HW1 6668   1.799   4.135   0.686
 2220SOL    HW2 6669   1.853   4.019   0.584
 2221SOL     OW 6670   3.617   4.331   0.231
 2221SOL    HW1 6671   3.605   4.318   0.132
 2221SOL    HW2 6672   3.587   4.250   0.280
 2222SOL     OW 6673   2.300   4.116   1.499
 2222SOL    HW1 6674   2.382   4.060   1.508
 2222SOL    HW2 6675   2.219   4.058   1.503
 2223SOL     OW 6676   3.465   4.171   0.737
 2223SOL    HW1 6677   3.391   4.217   0.687
 2223SOL    HW2 6678   3.516   4.239   0.790
 2224SOL     OW 6679   3.456   3.838   1.480
 2224SOL    HW1 6680   3.438   3.905   1.408
 2224SOL    HW2 6681   3.453   3.884   1.569
 2225SOL     OW 6682   1.984   4.367   0.563
 2225SOL    HW1 6683   1.939   4.279   0.580
 2225SOL    HW2 6684   1.983   4.421   0.647
 2226SOL     OW 6685   1.975   4.461   1.597
 2226SOL    HW1 6686   2.063   4.448   1.642
 2226SOL    HW2 6687   1.962   4.558   1.575
 2227SOL     OW 6688   2.671   3.728   0.502
 2227SOL    HW1 6689   2.711   3.819   0.493
 2227SOL    HW2 6690   2.571   3.736   0.508
 2228SOL     OW 6691   2.179   3.975   1.801
 2228SOL    HW1 6692   2.250   4.046   1.807
 2228SOL    HW2 6693   2.091   4.014   1.829
 2229SOL     OW 6694   3.143   4.069   0.944
 2229SOL    HW1 6695   3.057   4.019   0.931
 2229SOL    HW2 6696   3.205   4.015   1.000
 2230SOL     OW 6697   2.669   4.329   1.465
 2230SOL    HW1 6698   2.622   4.326   1.554
 2230SOL    HW2 6699   2.618   4.274   1.399
 2231SOL     OW 6700   3.256   4.193   1.674
 2231SOL    HW1 6701   3.236   4.236   1.762
 2231SOL    HW2 6702   3.334   4.131   1.683
 2232SOL     OW 6703   2.853   4.134   1.242
 2232SOL    HW1 6704   2.776   4.168   1.296
 2232SOL    HW2 6705   2.819   4.083   1.163
 2233SOL     OW 6706   2.903   4.425   0.429
 2233SOL    HW1 6707   2.929   4.421   0.525
 2233SOL    HW2 6708   2.818   4.374   0.415
 2234SOL     OW 6709   2.727   4.072   0.195
 2234SOL    HW1 6710   2.786   4.135   0.146
 2234SOL    HW2 6711   2.746   3.978   0.166
 2235SOL     OW 6712   3.581   4.309   1.831
 2235SOL    HW1 6713   3.555   4.398   1.795
 2235SOL    HW2 6714   3.579   4.241   1.758
 2236SOL     OW 6715   2.412   3.920   0.885
 2236SOL    HW1 6716   2.407   3.915   0.985
 2236SOL    HW2 6717   2.414   4.016   0.856
 2237SOL     OW 6718   3.320   4.459   0.728
 2237SOL    HW1 6719   3.315   4.394   0.803
 2237SOL    HW2 6720   3.400   4.518   0.741
 2238SOL     OW 6721   2.064   4.009   1.498
 2238SOL    HW1 6722   1.984   4.069   1.485
 2238SOL    HW2 6723   2.054   3.960   1.584
 2239SOL     OW 6724   3.262   3.831   0.426
 2239SOL    HW1 6725   3.238   3.794   0.336
 2239SOL    HW2 6726   3.361   3.847   0.430
 2240SOL     OW 6727   3.409   3.946   1.729
 2240SOL    HW1 6728   3.404   3.983   1.821
 2240SOL    HW2 6729   3.337   3.877   1.717
 2241SOL     OW 6730   2.476   3.846   0.117
 2241SOL    HW1 6731   2.574   3.824   0.124
 2241SOL    HW2 6732   2.445   3.829   0.024
 2242SOL     OW 6733   2.643   3.988   1.749
 2242SOL    HW1 6734   2.710   3.927   1.792
 2242SOL    HW2 6735   2.570   4.007   1.814
 2243SOL     OW 6736   3.213   4.314   1.433
 2243SOL    HW1 6737   3.241   4.271   1.518
 2243SOL    HW2 6738   3.238   4.410   1.434
 2244SOL     OW 6739   2.784   4.227   0.899
 2244SOL    HW1 6740   2.759   4.218   0.803
 2244SOL    HW2 6741   2.832   4.145   0.930
 2245SOL     OW 6742   2.401   3.788   0.512
 2245SOL    HW1 6743   2.320   3.789   0.570
 2245SOL    HW2 6744   2.404   3.871   0.457
 2246SOL     OW 6745   2.797   3.960   0.480
 2246SOL    HW1 6746   2.749   4.001   0.402
 2246SOL    HW2 6747   2.896   3.958   0.461
 2247SOL     OW 6748   2.938   4.407   1.464
 2247SOL    HW1 6749   2.858   4.346   1.467
 2247SOL    HW2 6750   3.019   4.354   1.440
 2248SOL     OW 6751   2.894   4.273   0.016
 2248SOL    HW1 6752   2.853   4.355  -0.023
 2248SOL    HW2 6753   2.958   4.299   0.089
 2249SOL     OW 6754   1.940   4.280   1.386
 2249SOL    HW1 6755   2.032   4.279   1.345
 2249SOL    HW2 6756   1.934   4.354   1.453
 2250SOL     OW 6757   2.423   3.946   1.147
 2250SOL    HW1 6758   2.461   3.862   1.184
 2250SOL    HW2 6759   2.335   3.965   1.191
 2251SOL     OW 6760   2.728   4.178   0.642
 2251SOL    HW1 6761   2.696   4.250   0.580
 2251SOL    HW2 6762   2.752   4.097   0.589
 2252SOL     OW 6763   2.879   3.763   0.753
 2252SOL    HW1 6764   2.807   3.768   0.684
 2252SOL    HW2 6765   2.855   3.694   0.822
 2253SOL     OW 6766   3.328   4.314   0.992
 2253SOL    HW1 6767   3.298   4.219   0.999
 2253SOL    HW2 6768   3.401   4.330   1.058
 2254SOL     OW 6769   3.252   4.299   0.078
 2254SOL    HW1 6770   3.198   4.278   0.159
 2254SOL    HW2 6771   3.343   4.258   0.087
 2255SOL     OW 6772   2.389   3.980   0.328
 2255SOL    HW1 6773   2.416   3.921   0.253
 2255SOL    HW2 6774   2.389   4.075   0.297
 2256SOL     OW 6775   2.777   3.813   1.402
 2256SOL    HW1 6776   2.802   3.793   1.307
 2256SOL    HW2 6777   2.849   3.869   1.444
 2257SOL     OW 6778   3.136   4.110   1.262
 2257SOL    HW1 6779   3.157   4.184   1.326
 2257SOL    HW2 6780   3.047   4.127   1.219
 2258SOL     OW 6781   2.428   4.261   0.865
 2258SOL    HW1 6782   2.440   4.327   0.791
 2258SOL    HW2 6783   2.474   4.295   0.948
 2259SOL     OW 6784   3.444   4.363   0.472
 2259SOL    HW1 6785   3.413   4.424   0.545
 2259SOL    HW2 6786   3.494   4.415   0.403
 2260SOL     OW 6787   2.875   3.829   1.770
 2260SOL    HW1 6788   2.881   3.914   1.718
 2260SOL    HW2 6789   2.907   3.753   1.713
 2261SOL     OW 6790   2.366   3.774   1.740
 2261SOL    HW1 6791   2.324   3.717   1.670
 2261SOL    HW2 6792   2.300   3.843   1.772
 2262SOL     OW 6793   3.071   4.249   0.275
 2262SOL    HW1 6794   3.084   4.165   0.329
 2262SOL    HW2 6795   3.042   4.323   0.335
 2263SOL     OW 6796   2.169   3.937   1.231
 2263SOL    HW1 6797   2.146   3.974   1.321
 2263SOL    HW2 6798   2.139   3.842   1.225
 2264SOL     OW 6799   2.594   4.358   1.064
 2264SOL    HW1 6800   2.653   4.332   0.988
 2264SOL    HW2 6801   2.566   4.454   1.053
 2265SOL     OW 6802   2.169   3.787   0.618
 2265SOL    HW1 6803   2.158   3.881   0.651
 2265SOL    HW2 6804   2.164   3.724   0.695
 2266SOL     OW 6805   3.484   4.091   0.374
 2266SOL    HW1 6806   3.486   4.015   0.438
 2266SOL    HW2 6807   3.436   4.168   0.414
 2267SOL     OW 6808   3.402   3.998   0.125
 2267SOL    HW1 6809   3.341   3.923   0.148
 2267SOL    HW2 6810   3.424   4.050   0.208
 2268SOL     OW 6811   2.181   4.534   0.949
 2268SOL    HW1 6812   2.274   4.570   0.954
 2268SOL    HW2 6813   2.175   4.449   1.001
 2269SOL     OW 6814   2.201   4.233   1.006
 2269SOL    HW1 6815   2.149   4.150   0.989
 2269SOL    HW2 6816   2.278   4.238   0.942
 2270SOL     OW 6817   3.000   4.104   1.678
 2270SOL    HW1 6818   2.955   4.167   1.742
 2270SOL    HW2 6819   3.093   4.135   1.661
 2271SOL     OW 6820   3.022   3.931   1.477
 2271SOL    HW1 6821   3.022   3.995   1.554
 2271SOL    HW2 6822   3.050   3.979   1.394
 2272SOL     OW 6823   1.902   4.268   1.114
 2272SOL    HW1 6824   1.987   4.235   1.073
 2272SOL    HW2 6825   1.915   4.283   1.212
 2273SOL     OW 6826   2.051   4.244   1.722
 2273SOL    HW1 6827   2.110   4.204   1.652
 2273SOL    HW2 6828   1.993   4.315   1.681
 2274SOL     OW 6829   2.677   4.296   0.325
 2274SOL    HW1 6830   2.684   4.207   0.279
 2274SOL    HW2 6831   2.583   4.330   0.317
 2275SOL     OW 6832   3.519   4.328   1.206
 2275SOL    HW1 6833   3.481   4.259   1.268
 2275SOL    HW2 6834   3.601   4.292   1.162
 2276SOL     OW 6835   2.533   4.188   1.269
 2276SOL    HW1 6836   2.499   4.099   1.239
 2276SOL    HW2 6837   2.559   4.242   1.189
 2277SOL     OW 6838   2.335   4.224   0.191
 2277SOL    HW1 6839   2.396   4.304   0.195
 2277SOL    HW2 6840   2.240   4.255   0.198
 2278SOL     OW 6841   2.765   3.810   0.133
 2278SOL    HW1 6842   2.816   3.811   0.047
 2278SOL    HW2 6843   2.821   3.768   0.204
 2279SOL     OW 6844   3.588   3.859   0.523
 2279SOL    HW1 6845   3.661   3.842   0.456
 2279SOL    HW2 6846   3.557   3.772   0.561
 2280SOL     OW 6847   3.142   4.651   0.672
 2280SOL    HW1 6848   3.202   4.570   0.674
 2280SOL    HW2 6849   3.182   4.720   0.612
 2281SOL     OW 6850   3.703   3.899   0.963
 2281SOL    HW1 6851   3.742   3.814   0.927
 2281SOL    HW2 6852   3.605   3.901   0.944
 2282SOL     OW 6853   2.125   4.050   0.720
 2282SOL    HW1 6854   2.046   4.101   0.686
 2282SOL    HW2 6855   2.116   4.035   0.818
 2283SOL     OW 6856   2.876   3.960   0.971
 2283SOL    HW1 6857   2.868   3.924   0.878
 2283SOL    HW2 6858   2.874   3.884   1.036
 2284SOL     OW 6859   3.571   4.109   1.381
 2284SOL    HW1 6860   3.644   4.178   1.385
 2284SOL    HW2 6861   3.599   4.034   1.322
 2285SOL     OW 6862   2.534   3.927   1.489
 2285SOL    HW1 6863   2.624   3.911   1.449
 2285SOL    HW2 6864   2.542   3.932   1.588
 2286SOL     OW 6865   1.937   4.069   0.033
 2286SOL    HW1 6866   1.845   4.041   0.004
 2286SOL    HW2 6867   1.968   4.146  -0.023
 2287SOL     OW 6868   2.578   4.289   1.708
 2287SOL    HW1 6869   2.597   4.354   1.782
 2287SOL    HW2 6870   2.638   4.209   1.717
 2288SOL     OW 6871   3.087   4.049   0.449
 2288SOL    HW1 6872   3.152   3.975   0.438
 2288SOL    HW2 6873   3.107   4.099   0.533
 2289SOL     OW 6874   3.639   4.066   1.642
 2289SOL    HW1 6875   3.622   4.097   1.548
 2289SOL    HW2 6876   3.555   4.029   1.680
 2290SOL     OW 6877   2.945   4.708   0.087
 2290SOL    HW1 6878   2.922   4.761   0.005
 2290SOL    HW2 6879   3.026   4.652   0.068
 2291SOL     OW 6880   3.686   3.916   1.227
 2291SOL    HW1 6881   3.682   3.826   1.271
 2291SOL    HW2 6882   3.689   3.905   1.128
 2292SOL     OW 6883   2.290   4.148   0.520
 2292SOL    HW1 6884   2.320   4.076   0.458
 2292SOL    HW2 6885   2.251   4.108   0.603
 2293SOL     OW 6886   2.179   4.271   1.280
 2293SOL    HW1 6887   2.217   4.212   1.352
 2293SOL    HW2 6888   2.219   4.245   1.192
 2294SOL     OW 6889   3.286   3.938   1.112
 2294SOL    HW1 6890   3.338   3.873   1.167
 2294SOL    HW2 6891   3.237   4.001   1.173
 2295SOL     OW 6892   2.863   3.758   1.154
 2295SOL    HW1 6893   2.800   3.686   1.123
 2295SOL    HW2 6894   2.956   3.722   1.154
 2296SOL     OW 6895   3.214   3.776   0.168
 2296SOL    HW1 6896   3.249   3.735   0.084
 2296SOL    HW2 6897   3.124   3.738   0.188
 2297SOL     OW 6898   3.162   4.177   0.691
 2297SOL    HW1 6899   3.103   4.257   0.695
 2297SOL    HW2 6900   3.177   4.142   0.784
 2298SOL     OW 6901   3.455   3.945   0.882
 2298SOL    HW1 6902   3.371   3.944   0.936
 2298SOL    HW2 6903   3.457   4.028   0.826
 2299SOL     OW 6904   2.087   3.999   2.858
 2299SOL    HW1 6905   2.122   3.982   2.950
 2299SOL    HW2 6906   1.999   3.954   2.846
 2300SOL     OW 6907   1.881   4.092   2.509
 2300SOL    HW1 6908   1.799   4.135   2.548
 2300SOL    HW2 6909   1.853   4.019   2.446
 2301SOL     OW 6910   3.617   4.331   2.093
 2301SOL    HW1 6911   3.605   4.318   1.994
 2301SOL    HW2 6912   3.587   4.250   2.142
 2302SOL     OW 6913   2.300   4.116   3.361
 2302SOL    HW1 6914   2.382   4.060   3.370
 2302SOL    HW2 6915   2.219   4.058   3.365
 2303SOL     OW 6916   3.465   4.171   2.599
 2303SOL    HW1 6917   3.391   4.217   2.549
 2303SOL    HW2 6918   3.516   4.239   2.652
 2304SOL     OW 6919   3.456   3.838   3.342
 2304SOL    HW1 6920   3.438   3.905   3.270
 2304SOL    HW2 6921   3.453   3.884   3.431
 2305SOL     OW 6922   1.984   4.367   2.425
 2305SOL    HW1 6923   1.939   4.279   2.442
 2305SOL    HW2 6924   1.983   4.421   2.509
 2306SOL     OW 6925   1.975   4.461   3.459
 2306SOL    HW1 6926   2.063   4.448   3.504
 2306SOL    HW2 6927   1.962   4.558   3.437
 2307SOL     OW 6928   2.671   3.728   2.364
 2307SOL    HW1 6929   2.711   3.819   2.355
 2307SOL    HW2 6930   2.571   3.736   2.370
 2308SOL     OW 6931   2.179   3.975   3.663
 2308SOL    HW1 6932   2.250   4.046   3.669
 2308SOL    HW2 6933   2.091   4.014   3.691
 2309SOL     OW 6934   3.143   4.069   2.806
 2309SOL    HW1 6935   3.057   4.019   2.793
 2309SOL    HW2 6936   3.205   4.015   2.862
 2310SOL     OW 6937   2.669   4.329   3.327
 2310SOL    HW1 6938   2.622   4.326   3.416
 2310SOL    HW2 6939   2.618   4.274   3.261
 2311SOL     OW 6940   3.256   4.193   3.536
 2311SOL    HW1 6941   3.236   4.236   3.624
 2311SOL    HW2 6942   3.334   4.131   3.545
 2312SOL     OW 6943   2.853   4.134   3.104
 2312SOL    HW1 6944   2.776   4.168   3.158
 2312SOL    HW2 6945   2.819   4.083   3.025
 2313SOL     OW 6946   2.903   4.425   2.291
 2313SOL    HW1 6947   2.929   4.421   2.387
 2313SOL    HW2 6948   2.818   4.374   2.277
 2314SOL     OW 6949   2.727   4.072   2.057
 2314SOL    HW1 6950   2.786   4.135   2.008
 2314SOL    HW2 6951   2.746   3.978   2.028
 2315SOL     OW 6952   3.581   4.309   3.693
 2315SOL    HW1 6953   3.555   4.398   3.657
 2315SOL    HW2 6954   3.579   4.241   3.620
 2316SOL     OW 6955   2.412   3.920   2.747
 2316SOL    HW1 6956   2.407   3.915   2.847
 2316SOL    HW2 6957   2.414   4.016   2.718
 2317SOL     OW 6958   3.320   4.459   2.590
 2317SOL    HW1 6959   3.315   4.394   2.665
 2317SOL    HW2 6960   3.400   4.518   2.603
 2318SOL     OW 6961   2.064   4.009   3.360
 2318SOL    HW1 6962   1.984   4.069   3.347
 2318SOL    HW2 6963   2.054   3.960   3.446
 2319SOL     OW 6964   3.262   3.831   2.288
 2319SOL    HW1 6965   3.238   3.794   2.198
 2319SOL    HW2 6966   3.361   3.847   2.292
 2320SOL     OW 6967   3.409   3.946   3.591
 2320SOL    HW1 6968   3.404   3.983   3.683
 2320SOL    HW2 6969   3.337   3.877   3.579
 2321SOL     OW 6970   2.476   3.846   1.979
 2321SOL    HW1 6971   2.574   3.824   1.986
 2321SOL    HW2 6972   2.445   3.829   1.886
 2322SOL     OW 6973   2.643   3.988   3.611
 2322SOL    HW1 6974   2.710   3.927   3.654
 2322SOL    HW2 6975   2.570   4.007   3.676
 2323SOL     OW 6976   3.213   4.314   3.295
 2323SOL    HW1 6977   3.241   4.271   3.380
 2323SOL    HW2 6978   3.238   4.410   3.296
 2324SOL     OW 6979   2.784   4.227   2.761
 2324SOL    HW1 6980   2.759   4.218   2.665
 2324SOL    HW2 6981   2.832   4.145   2.792
 2325SOL     OW 6982   2.401   3.788   2.374
 2325SOL    HW1 6983   2.320   3.789   2.432
 2325SOL    HW2 6984   2.404   3.871   2.319
 2326SOL     OW 6985   2.159   3.759   2.033
 2326SOL    HW1 6986   2.208   3.843   2.012
 2326SOL    HW2 6987   2.221   3.694   2.078
 2327SOL     OW 6988   2.797   3.960   2.342
 2327SOL    HW1 6989   2.749   4.001   2.264
 2327SOL    HW2 6990   2.896   3.958   2.323
 2328SOL     OW 6991   2.938   4.407   3.326
 2328SOL    HW1 6992   2.858   4.346   3.329
 2328SOL    HW2 6993   3.019   4.354   3.302
 2329SOL     OW 6994   2.894   4.273   1.878
 2329SOL    HW1 6995   2.853   4.355   1.839
 2329SOL    HW2 6996   2.958   4.299   1.951
 2330SOL     OW 6997   1.940   4.280   3.248
 2330SOL    HW1 6998   2.032   4.279   3.207
 2330SOL    HW2 6999   1.934   4.354   3.315
 2331SOL     OW 7000   2.423   3.946   3.009
 2331SOL    HW1 7001   2.461   3.862   3.046
 2331SOL    HW2 7002   2.335   3.965   3.053
 2332SOL     OW 7003   2.728   4.178   2.504
 2332SOL    HW1 7004   2.696   4.250   2.442
 2332SOL    HW2 7005   2.752   4.097   2.451
 2333SOL     OW 7006   2.879   3.763   2.615
 2333SOL    HW1 7007   2.807   3.768   2.546
 2333SOL    HW2 7008   2.855   3.694   2.684
 2334SOL     OW 7009   3.328   4.314   2.854
 2334SOL    HW1 7010   3.298   4.219   2.861
 2334SOL    HW2 7011   3.401   4.330   2.920
 2335SOL     OW 7012   3.252   4.299   1.940
 2335SOL    HW1 7013   3.198   4.278   2.021
 2335SOL    HW2 7014   3.343   4.258   1.949
 2336SOL     OW 7015   2.389   3.980   2.190
 2336SOL    HW1 7016   2.416   3.921   2.115
 2336SOL    HW2 7017   2.389   4.075   2.159
 2337SOL     OW 7018   2.777   3.813   3.264
 2337SOL    HW1 7019   2.802   3.793   3.169
 2337SOL    HW2 7020   2.849   3.869   3.306
 2338SOL     OW 7021   3.136   4.110   3.124
 2338SOL    HW1 7022   3.157   4.184   3.188
 2338SOL    HW2 7023   3.047   4.127   3.081
 2339SOL     OW 7024   2.428   4.261   2.727
 2339SOL    HW1 7025   2.440   4.327   2.653
 2339SOL    HW2 7026   2.474   4.295   2.810
 2340SOL     OW 7027   3.444   4.363   2.334
 2340SOL    HW1 7028   3.413   4.424   2.407
 2340SOL    HW2 7029   3.494   4.415   2.265
 2341SOL     OW 7030   2.875   3.829   3.632
 2341SOL    HW1 7031   2.881   3.914   3.580
 2341SOL    HW2 7032   2.907   3.753   3.575
 2342SOL     OW 7033   2.366   3.774   3.602
 2342SOL    HW1 7034   2.324   3.717   3.532
 2342SOL    HW2 7035   2.300   3.843   3.634
 2343SOL     OW 7036   3.071   4.249   2.137
 2343SOL    HW1 7037   3.084   4.165   2.191
 2343SOL    HW2 7038   3.042   4.323   2.197
 2344SOL     OW 7039   2.169   3.937   3.093
 2344SOL    HW1 7040   2.146   3.974   3.183
 2344SOL    HW2 7041   2.139   3.842   3.087
 2345SOL     OW 7042   2.594   4.358   2.926
 2345SOL    HW1 7043   2.653   4.332   2.850
 2345SOL    HW2 7044   2.566   4.454   2.915
 2346SOL     OW 7045   2.169   3.787   2.480
 2346SOL    HW1 7046   2.158   3.881   2.513
 2346SOL    HW2 7047   2.164   3.724   2.557
 2347SOL     OW 7048   3.484   4.091   2.236
 2347SOL    HW1 7049   3.486   4.015   2.300
 2347SOL    HW2 7050   3.436   4.168   2.276
 2348SOL     OW 7051   3.402   3.998   1.987
 2348SOL    HW1 7052   3.341   3.923   2.010
 2348SOL    HW2 7053   3.424   4.050   2.070
 2349SOL     OW 7054   2.181   4.534   2.811
 2349SOL    HW1 7055   2.274   4.570   2.816
 2349SOL    HW2 7056   2.175   4.449   2.863
 2350SOL     OW 7057   2.201   4.233   2.868
 2350SOL    HW1 7058   2.149   4.150   2.851
 2350SOL    HW2 7059   2.278   4.238   2.804
 2351SOL     OW 7060   3.000   4.104   3.540
 2351SOL    HW1 7061   2.955   4.167   3.604
 2351SOL    HW2 7062   3.093   4.135   3.523
 2352SOL     OW 7063   3.022   3.931   3.339
 2352SOL    HW1 7064   3.022   3.995   3.416
 2352SOL    HW2 7065   3.050   3.979   3.256
 2353SOL     OW 7066   1.902   4.268   2.976
 2353SOL    HW1 7067   1.987   4.235   2.935
 2353SOL    HW2 7068   1.915   4.283   3.074
 2354SOL     OW 7069   2.051   4.244   3.584
 2354SOL    HW1 7070   2.110   4.204   3.514
 2354SOL    HW2 7071   1.993   4.315   3.543
 2355SOL     OW 7072   2.677   4.296   2.187
 2355SOL    HW1 7073   2.684   4.207   2.141
 2355SOL    HW2 7074   2.583   4.330   2.179
 2356SOL     OW 7075   3.519   4.328   3.068
 2356SOL    HW1 7076   3.481   4.259   3.130
 2356SOL    HW2 7077   3.601   4.292   3.024
 2357SOL     OW 7078   2.533   4.188   3.131
 2357SOL    HW1 7079   2.499   4.099   3.101
 2357SOL    HW2 7080   2.559   4.242   3.051
 2358SOL     OW 7081   2.335   4.224   2.053
 2358SOL    HW1 7082   2.396   4.304   2.057
 2358SOL    HW2 7083   2.240   4.255   2.060
 2359SOL     OW 7084   3.588   3.859   2.385
 2359SOL    HW1 7085   3.661   3.842   2.318
 2359SOL    HW2 7086   3.557   3.772   2.423
 2360SOL     OW 7087   3.142   4.651   2.534
 2360SOL    HW1 7088   3.202   4.570   2.536
 2360SOL    HW2 7089   3.182   4.720   2.474
 2361SOL     OW 7090   3.703   3.899   2.825
 2361SOL    HW1 7091   3.742   3.814   2.789
 2361SOL    HW2 7092   3.605   3.901   2.806
 2362SOL     OW 7093   2.125   4.050   2.582
 2362SOL    HW1 7094   2.046   4.101   2.548
 2362SOL    HW2 7095   2.116   4.035   2.680
 2363SOL     OW 7096   2.876   3.960   2.833
 2363SOL    HW1 7097   2.868   3.924   2.740
 2363SOL    HW2 7098   2.874   3.884   2.898
 2364SOL     OW 7099   3.571   4.109   3.243
 2364SOL    HW1 7100   3.644   4.178   3.247
 2364SOL    HW2 7101   3.599   4.034   3.184
 2365SOL     OW 7102   2.534   3.927   3.351
 2365SOL    HW1 7103   2.624   3.911   3.311
 2365SOL    HW2 7104   2.542   3.932   3.450
 2366SOL     OW 7105   1.937   4.069   1.895
 2366SOL    HW1 7106   1.845   4.041   1.866
 2366SOL    HW2 7107   1.968   4.146   1.839
 2367SOL     OW 7108   1.934   3.890   2.180
 2367SOL    HW1 7109   1.917   3.973   2.126
 2367SOL    HW2 7110   2.024   3.853   2.158
 2368SOL     OW 7111   2.578   4.289   3.570
 2368SOL    HW1 7112   2.597   4.354   3.644
 2368SOL    HW2 7113   2.638   4.209   3.579
 2369SOL     OW 7114   3.087   4.049   2.311
 2369SOL    HW1 7115   3.152   3.975   2.300
 2369SOL    HW2 7116   3.107   4.099   2.395
 2370SOL     OW 7117   3.639   4.066   3.504
 2370SOL    HW1 7118   3.622   4.097   3.410
 2370SOL    HW2 7119   3.555   4.029   3.542
 2371SOL     OW 7120   2.945   4.708   1.949
 2371SOL    HW1 7121   2.922   4.761   1.867
 2371SOL    HW2 7122   3.026   4.652   1.930
 2372SOL     OW 7123   3.686   3.916   3.089
 2372SOL    HW1 7124   3.682   3.826   3.133
 2372SOL    HW2 7125   3.689   3.905   2.990
 2373SOL     OW 7126   2.290   4.148   2.382
 2373SOL    HW1 7127   2.320   4.076   2.320
 2373SOL    HW2 7128   2.251   4.108   2.465
 2374SOL     OW 7129   2.179   4.271   3.142
 2374SOL    HW1 7130   2.217   4.212   3.214
 2374SOL    HW2 7131   2.219   4.245   3.054
 2375SOL     OW 7132   3.286   3.938   2.974
 2375SOL    HW1 7133   3.338   3.873   3.029
 2375SOL    HW2 7134   3.237   4.001   3.035
 2376SOL     OW 7135   2.863   3.758   3.016
 2376SOL    HW1 7136   2.800   3.686   2.985
 2376SOL    HW2 7137   2.956   3.722   3.016
 2377SOL     OW 7138   3.214   3.776   2.030
 2377SOL    HW1 7139   3.249   3.735   1.946
 2377SOL    HW2 7140   3.124   3.738   2.050
 2378SOL     OW 7141   3.162   4.177   2.553
 2378SOL    HW1 7142   3.103   4.257   2.557
 2378SOL    HW2 7143   3.177   4.142   2.646
 2379SOL     OW 7144   3.455   3.945   2.744
 2379SOL    HW1 7145   3.371   3.944   2.798
 2379SOL    HW2 7146   3.457   4.028   2.688
 2380SOL     OW 7147   2.087   3.999   4.720
 2380SOL    HW1 7148   2.122   3.982   4.812
 2380SOL    HW2 7149   1.999   3.954   4.708
 2381SOL     OW 7150   2.997   4.427   4.441
 2381SOL    HW1 7151   3.054   4.505   4.416
 2381SOL    HW2 7152   2.937   4.453   4.517
 2382SOL     OW 7153   3.617   4.331   3.955
 2382SOL    HW1 7154   3.605   4.318   3.856
 2382SOL    HW2 7155   3.587   4.250   4.004
 2383SOL     OW 7156   3.465   4.171   4.461
 2383SOL    HW1 7157   3.391   4.217   4.411
 2383SOL    HW2 7158   3.516   4.239   4.514
 2384SOL     OW 7159   1.984   4.367   4.287
 2384SOL    HW1 7160   1.939   4.279   4.304
 2384SOL    HW2 7161   1.983   4.421   4.371
 2385SOL     OW 7162   2.671   3.728   4.226
 2385SOL    HW1 7163   2.711   3.819   4.217
 2385SOL    HW2 7164   2.571   3.736   4.232
 2386SOL     OW 7165   3.143   4.069   4.668
 2386SOL    HW1 7166   3.057   4.019   4.655
 2386SOL    HW2 7167   3.205   4.015   4.724
 2387SOL     OW 7168   2.903   4.425   4.153
 2387SOL    HW1 7169   2.929   4.421   4.249
 2387SOL    HW2 7170   2.818   4.374   4.139
 2388SOL     OW 7171   2.727   4.072   3.919
 2388SOL    HW1 7172   2.786   4.135   3.870
 2388SOL    HW2 7173   2.746   3.978   3.890
 2389SOL     OW 7174   3.262   3.831   4.150
 2389SOL    HW1 7175   3.238   3.794   4.060
 2389SOL    HW2 7176   3.361   3.847   4.154
 2390SOL     OW 7177   2.476   3.846   3.841
 2390SOL    HW1 7178   2.574   3.824   3.848
 2390SOL    HW2 7179   2.445   3.829   3.748
 2391SOL     OW 7180   2.401   3.788   4.236
 2391SOL    HW1 7181   2.320   3.789   4.294
 2391SOL    HW2 7182   2.404   3.871   4.181
 2392SOL     OW 7183   2.159   3.759   3.895
 2392SOL    HW1 7184   2.208   3.843   3.874
 2392SOL    HW2 7185   2.221   3.694   3.940
 2393SOL     OW 7186   2.797   3.960   4.204
 2393SOL    HW1 7187   2.749   4.001   4.126
 2393SOL    HW2 7188   2.896   3.958   4.185
 2394SOL     OW 7189   2.894   4.273   3.740
 2394SOL    HW1 7190   2.853   4.355   3.701
 2394SOL    HW2 7191   2.958   4.299   3.813
 2395SOL     OW 7192   2.728   4.178   4.366
 2395SOL    HW1 7193   2.696   4.250   4.304
 2395SOL    HW2 7194   2.752   4.097   4.313
 2396SOL     OW 7195   3.252   4.299   3.802
 2396SOL    HW1 7196   3.198   4.278   3.883
 2396SOL    HW2 7197   3.343   4.258   3.811
 2397SOL     OW 7198   2.389   3.980   4.052
 2397SOL    HW1 7199   2.416   3.921   3.977
 2397SOL    HW2 7200   2.389   4.075   4.021
 2398SOL     OW 7201   3.444   4.363   4.196
 2398SOL    HW1 7202   3.413   4.424   4.269
 2398SOL    HW2 7203   3.494   4.415   4.127
 2399SOL     OW 7204   3.071   4.249   3.999
 2399SOL    HW1 7205   3.084   4.165   4.053
 2399SOL    HW2 7206   3.042   4.323   4.059
 2400SOL     OW 7207   2.169   3.787   4.342
 2400SOL    HW1 7208   2.158   3.881   4.375
 2400SOL    HW2 7209   2.164   3.724   4.419
 2401SOL     OW 7210   3.484   4.091   4.098
 2401SOL    HW1 7211   3.486   4.015   4.162
 2401SOL    HW2 7212   3.436   4.168   4.138
 2402SOL     OW 7213   3.402   3.998   3.849
 2402SOL    HW1 7214   3.341   3.923   3.872
 2402SOL    HW2 7215   3.424   4.050   3.932
 2403SOL     OW 7216   2.677   4.296   4.049
 2403SOL    HW1 7217   2.684   4.207   4.003
 2403SOL    HW2 7218   2.583   4.330   4.041
 2404SOL     OW 7219   2.335   4.224   3.915
 2404SOL    HW1 7220   2.396   4.304   3.919
 2404SOL    HW2 7221   2.240   4.255   3.922
 2405SOL     OW 7222   3.588   3.859   4.247
 2405SOL    HW1 7223   3.661   3.842   4.180
 2405SOL    HW2 7224   3.557   3.772   4.285
 2406SOL     OW 7225   3.142   4.651   4.396
 2406SOL    HW1 7226   3.202   4.570   4.398
 2406SOL    HW2 7227   3.182   4.720   4.336
 2407SOL     OW 7228   3.703   3.899   4.687
 2407SOL    HW1 7229   3.742   3.814   4.651
 2407SOL    HW2 7230   3.605   3.901   4.668
 2408SOL     OW 7231   1.937   4.069   3.757
 2408SOL    HW1 7232   1.845   4.041   3.728
 2408SOL    HW2 7233   1.968   4.146   3.701
 2409SOL     OW 7234   1.934   3.890   4.042
 2409SOL    HW1 7235   1.917   3.973   3.988
 2409SOL    HW2 7236   2.024   3.853   4.020
 2410SOL     OW 7237   3.087   4.049   4.173
 2410SOL    HW1 7238   3.152   3.975   4.162
 2410SOL    HW2 7239   3.107   4.099   4.257
 2411SOL     OW 7240   2.945   4.708   3.811
 2411SOL    HW1 7241   2.922   4.761   3.729
 2411SOL    HW2 7242   3.026   4.652   3.792
 2412SOL     OW 7243   2.290   4.148   4.244
 2412SOL    HW1 7244   2.320   4.076   4.182
 2412SOL    HW2 7245   2.251   4.108   4.327
 2413SOL     OW 7246   3.214   3.776   3.892
 2413SOL    HW1 7247   3.249   3.735   3.808
 2413SOL    HW2 7248   3.124   3.738   3.912
 2414SOL     OW 7249   3.162   4.177   4.415
 2414SOL    HW1 7250   3.103   4.257   4.419
 2414SOL    HW2 7251   3.177   4.142   4.508
 2415SOL     OW 7252   3.954   0.628   0.113
 2415SOL    HW1 7253   3.861   0.626   0.150
 2415SOL    HW2 7254   3.955   0.589   0.021
 2416SOL     OW 7255   3.949   0.275   0.996
 2416SOL    HW1 7256   3.984   0.258   1.088
 2416SOL    HW2 7257   3.861   0.230   0.984
 2417SOL     OW 7258   3.743   0.368   0.647
 2417SOL    HW1 7259   3.661   0.411   0.686
 2417SOL    HW2 7260   3.715   0.295   0.584
 2418SOL     OW 7261   4.293   1.275   1.165
 2418SOL    HW1 7262   4.200   1.268   1.128
 2418SOL    HW2 7263   4.304   1.364   1.209
 2419SOL     OW 7264   4.574   0.798   1.823
 2419SOL    HW1 7265   4.570   0.874   1.888
 2419SOL    HW2 7266   4.596   0.834   1.732
 2420SOL     OW 7267   4.410   1.161   1.803
 2420SOL    HW1 7268   4.470   1.240   1.817
 2420SOL    HW2 7269   4.324   1.192   1.762
 2421SOL     OW 7270   4.059   1.435   1.061
 2421SOL    HW1 7271   3.981   1.404   1.008
 2421SOL    HW2 7272   4.117   1.493   1.004
 2422SOL     OW 7273   4.162   0.392   1.499
 2422SOL    HW1 7274   4.244   0.336   1.508
 2422SOL    HW2 7275   4.081   0.334   1.503
 2423SOL     OW 7276   3.955   1.713   0.483
 2423SOL    HW1 7277   3.989   1.790   0.537
 2423SOL    HW2 7278   3.999   1.713   0.393
 2424SOL     OW 7279   3.954   1.434   0.538
 2424SOL    HW1 7280   3.928   1.530   0.538
 2424SOL    HW2 7281   3.883   1.380   0.583
 2425SOL     OW 7282   3.964   1.091   0.886
 2425SOL    HW1 7283   3.978   1.007   0.938
 2425SOL    HW2 7284   3.909   1.155   0.941
 2426SOL     OW 7285   4.344   1.786   1.439
 2426SOL    HW1 7286   4.252   1.769   1.474
 2426SOL    HW2 7287   4.372   1.878   1.465
 2427SOL     OW 7288   4.330   0.964   0.123
 2427SOL    HW1 7289   4.337   1.048   0.069
 2427SOL    HW2 7290   4.376   0.977   0.211
 2428SOL     OW 7291   3.846   0.643   0.563
 2428SOL    HW1 7292   3.801   0.555   0.580
 2428SOL    HW2 7293   3.845   0.697   0.647
 2429SOL     OW 7294   3.751   1.596   0.117
 2429SOL    HW1 7295   3.732   1.500   0.138
 2429SOL    HW2 7296   3.718   1.654   0.192
 2430SOL     OW 7297   3.837   0.737   1.597
 2430SOL    HW1 7298   3.925   0.724   1.642
 2430SOL    HW2 7299   3.824   0.834   1.575
 2431SOL     OW 7300   4.337   1.365   0.726
 2431SOL    HW1 7301   4.288   1.278   0.735
 2431SOL    HW2 7302   4.314   1.408   0.639
 2432SOL     OW 7303   3.921   0.976   1.264
 2432SOL    HW1 7304   4.010   0.931   1.250
 2432SOL    HW2 7305   3.848   0.911   1.245
 2433SOL     OW 7306   4.041   0.251   1.801
 2433SOL    HW1 7307   4.112   0.322   1.807
 2433SOL    HW2 7308   3.953   0.290   1.829
 2434SOL     OW 7309   4.322   0.729   0.270
 2434SOL    HW1 7310   4.346   0.798   0.202
 2434SOL    HW2 7311   4.244   0.762   0.324
 2435SOL     OW 7312   3.800   0.811   0.789
 2435SOL    HW1 7313   3.899   0.799   0.798
 2435SOL    HW2 7314   3.776   0.906   0.810
 2436SOL     OW 7315   3.854   1.821   1.571
 2436SOL    HW1 7316   3.844   1.806   1.670
 2436SOL    HW2 7317   3.768   1.857   1.535
 2437SOL     OW 7318   4.274   0.196   0.885
 2437SOL    HW1 7319   4.269   0.191   0.985
 2437SOL    HW2 7320   4.276   0.292   0.856
 2438SOL     OW 7321   4.075   1.801   0.853
 2438SOL    HW1 7322   4.125   1.715   0.859
 2438SOL    HW2 7323   4.140   1.878   0.850
 2439SOL     OW 7324   4.045   0.943   0.242
 2439SOL    HW1 7325   4.127   0.982   0.200
 2439SOL    HW2 7326   4.018   0.861   0.193
 2440SOL     OW 7327   4.185   1.266   1.727
 2440SOL    HW1 7328   4.135   1.267   1.641
 2440SOL    HW2 7329   4.122   1.248   1.803
 2441SOL     OW 7330   3.926   0.285   1.498
 2441SOL    HW1 7331   3.846   0.345   1.485
 2441SOL    HW2 7332   3.916   0.236   1.584
 2442SOL     OW 7333   4.188   1.743   0.323
 2442SOL    HW1 7334   4.221   1.782   0.409
 2442SOL    HW2 7335   4.264   1.736   0.258
 2443SOL     OW 7336   3.973   1.785   1.241
 2443SOL    HW1 7337   4.030   1.720   1.291
 2443SOL    HW2 7338   3.957   1.752   1.148
 2444SOL     OW 7339   4.106   0.700   0.480
 2444SOL    HW1 7340   4.151   0.610   0.477
 2444SOL    HW2 7341   4.012   0.689   0.513
 2445SOL     OW 7342   4.527   1.402   0.924
 2445SOL    HW1 7343   4.617   1.416   0.882
 2445SOL    HW2 7344   4.456   1.404   0.853
 2446SOL     OW 7345   4.263   0.064   0.512
 2446SOL    HW1 7346   4.182   0.065   0.570
 2446SOL    HW2 7347   4.266   0.147   0.457
 2447SOL     OW 7348   4.021   0.035   0.171
 2447SOL    HW1 7349   4.070   0.119   0.150
 2447SOL    HW2 7350   4.083  -0.030   0.216
 2448SOL     OW 7351   4.659   0.236   0.480
 2448SOL    HW1 7352   4.611   0.277   0.402
 2448SOL    HW2 7353   4.758   0.234   0.461
 2449SOL     OW 7354   4.183   1.152   0.741
 2449SOL    HW1 7355   4.112   1.125   0.806
 2449SOL    HW2 7356   4.157   1.124   0.648
 2450SOL     OW 7357   3.802   0.556   1.386
 2450SOL    HW1 7358   3.894   0.555   1.345
 2450SOL    HW2 7359   3.796   0.630   1.453
 2451SOL     OW 7360   4.285   0.222   1.147
 2451SOL    HW1 7361   4.323   0.138   1.184
 2451SOL    HW2 7362   4.197   0.241   1.191
 2452SOL     OW 7363   4.212   1.385   0.174
 2452SOL    HW1 7364   4.125   1.370   0.221
 2452SOL    HW2 7365   4.195   1.411   0.079
 2453SOL     OW 7366   4.251   0.256   0.328
 2453SOL    HW1 7367   4.278   0.197   0.253
 2453SOL    HW2 7368   4.251   0.351   0.297
 2454SOL     OW 7369   4.134   0.813   1.251
 2454SOL    HW1 7370   4.220   0.825   1.301
 2454SOL    HW2 7371   4.092   0.726   1.278
 2455SOL     OW 7372   3.788   1.564   1.331
 2455SOL    HW1 7373   3.742   1.646   1.297
 2455SOL    HW2 7374   3.886   1.583   1.340
 2456SOL     OW 7375   4.091   1.100   0.501
 2456SOL    HW1 7376   4.084   1.183   0.445
 2456SOL    HW2 7377   4.095   1.020   0.441
 2457SOL     OW 7378   4.290   0.537   0.865
 2457SOL    HW1 7379   4.302   0.603   0.791
 2457SOL    HW2 7380   4.336   0.571   0.948
 2458SOL     OW 7381   4.078   1.510   1.329
 2458SOL    HW1 7382   4.057   1.466   1.242
 2458SOL    HW2 7383   4.175   1.536   1.332
 2459SOL     OW 7384   4.126   0.751   1.598
 2459SOL    HW1 7385   4.194   0.806   1.551
 2459SOL    HW2 7386   4.166   0.663   1.625
 2460SOL     OW 7387   4.228   0.050   1.740
 2460SOL    HW1 7388   4.186  -0.007   1.670
 2460SOL    HW2 7389   4.162   0.119   1.772
 2461SOL     OW 7390   4.297   0.870   1.029
 2461SOL    HW1 7391   4.341   0.959   1.020
 2461SOL    HW2 7392   4.234   0.870   1.106
 2462SOL     OW 7393   4.031   0.213   1.231
 2462SOL    HW1 7394   4.008   0.250   1.321
 2462SOL    HW2 7395   4.001   0.118   1.225
 2463SOL     OW 7396   3.761   1.310   1.282
 2463SOL    HW1 7397   3.814   1.261   1.350
 2463SOL    HW2 7398   3.783   1.408   1.287
 2464SOL     OW 7399   4.031   0.063   0.618
 2464SOL    HW1 7400   4.020   0.157   0.651
 2464SOL    HW2 7401   4.026   0.000   0.695
 2465SOL     OW 7402   4.074   0.898   1.804
 2465SOL    HW1 7403   4.150   0.942   1.852
 2465SOL    HW2 7404   4.109   0.851   1.722
 2466SOL     OW 7405   4.043   0.810   0.949
 2466SOL    HW1 7406   4.136   0.846   0.954
 2466SOL    HW2 7407   4.037   0.725   1.001
 2467SOL     OW 7408   4.063   0.509   1.006
 2467SOL    HW1 7409   4.011   0.426   0.989
 2467SOL    HW2 7410   4.140   0.514   0.942
 2468SOL     OW 7411   3.732   1.326   0.200
 2468SOL    HW1 7412   3.639   1.347   0.169
 2468SOL    HW2 7413   3.742   1.227   0.213
 2469SOL     OW 7414   3.812   1.801   0.927
 2469SOL    HW1 7415   3.770   1.715   0.900
 2469SOL    HW2 7416   3.906   1.804   0.893
 2470SOL     OW 7417   4.228   1.568   0.910
 2470SOL    HW1 7418   4.294   1.642   0.919
 2470SOL    HW2 7419   4.272   1.489   0.868
 2471SOL     OW 7420   3.764   0.544   1.114
 2471SOL    HW1 7421   3.849   0.511   1.073
 2471SOL    HW2 7422   3.777   0.559   1.212
 2472SOL     OW 7423   3.913   0.520   1.722
 2472SOL    HW1 7424   3.972   0.480   1.652
 2472SOL    HW2 7425   3.855   0.591   1.681
 2473SOL     OW 7426   4.539   0.572   0.325
 2473SOL    HW1 7427   4.546   0.483   0.279
 2473SOL    HW2 7428   4.445   0.606   0.317
 2474SOL     OW 7429   3.976   1.564   1.744
 2474SOL    HW1 7430   3.946   1.621   1.820
 2474SOL    HW2 7431   3.969   1.467   1.770
 2475SOL     OW 7432   4.197   0.500   0.191
 2475SOL    HW1 7433   4.258   0.580   0.195
 2475SOL    HW2 7434   4.102   0.531   0.198
 2476SOL     OW 7435   3.883   1.137   1.466
 2476SOL    HW1 7436   3.905   1.076   1.542
 2476SOL    HW2 7437   3.893   1.088   1.380
 2477SOL     OW 7438   3.807   1.258   1.022
 2477SOL    HW1 7439   3.802   1.257   1.122
 2477SOL    HW2 7440   3.724   1.217   0.984
 2478SOL     OW 7441   4.412   1.662   1.716
 2478SOL    HW1 7442   4.356   1.743   1.725
 2478SOL    HW2 7443   4.464   1.666   1.630
 2479SOL     OW 7444   3.854   1.794   1.851
 2479SOL    HW1 7445   3.813   1.720   1.904
 2479SOL    HW2 7446   3.918   1.845   1.909
 2480SOL     OW 7447   3.987   0.326   0.720
 2480SOL    HW1 7448   3.908   0.377   0.686
 2480SOL    HW2 7449   3.978   0.311   0.818
 2481SOL     OW 7450   4.096   1.288   1.490
 2481SOL    HW1 7451   4.083   1.381   1.456
 2481SOL    HW2 7452   4.012   1.236   1.477
 2482SOL     OW 7453   4.314   1.487   0.491
 2482SOL    HW1 7454   4.356   1.429   0.421
 2482SOL    HW2 7455   4.270   1.566   0.447
 2483SOL     OW 7456   3.979   1.348   0.290
 2483SOL    HW1 7457   3.883   1.349   0.263
 2483SOL    HW2 7458   3.991   1.401   0.374
 2484SOL     OW 7459   3.829   1.013   1.726
 2484SOL    HW1 7460   3.752   0.980   1.780
 2484SOL    HW2 7461   3.914   0.983   1.768
 2485SOL     OW 7462   4.396   0.203   1.489
 2485SOL    HW1 7463   4.486   0.187   1.449
 2485SOL    HW2 7464   4.404   0.208   1.588
 2486SOL     OW 7465   3.799   0.345   0.033
 2486SOL    HW1 7466   3.707   0.317   0.004
 2486SOL    HW2 7467   3.830   0.422  -0.023
 2487SOL     OW 7468   4.337   0.842   1.431
 2487SOL    HW1 7469   4.393   0.923   1.414
 2487SOL    HW2 7470   4.396   0.762   1.434
 2488SOL     OW 7471   4.114   1.741   1.560
 2488SOL    HW1 7472   4.023   1.782   1.558
 2488SOL    HW2 7473   4.107   1.647   1.592
 2489SOL     OW 7474   4.318   0.745   0.652
 2489SOL    HW1 7475   4.368   0.830   0.633
 2489SOL    HW2 7476   4.230   0.747   0.604
 2490SOL     OW 7477   3.945   1.314   1.844
 2490SOL    HW1 7478   3.880   1.241   1.823
 2490SOL    HW2 7479   3.949   1.328   1.942
 2491SOL     OW 7480   3.803   1.240   0.653
 2491SOL    HW1 7481   3.802   1.193   0.741
 2491SOL    HW2 7482   3.885   1.212   0.602
 2492SOL     OW 7483   4.396   1.391   1.624
 2492SOL    HW1 7484   4.318   1.341   1.662
 2492SOL    HW2 7485   4.393   1.486   1.655
 2493SOL     OW 7486   4.152   0.424   0.520
 2493SOL    HW1 7487   4.182   0.352   0.458
 2493SOL    HW2 7488   4.113   0.384   0.603
 2494SOL     OW 7489   4.041   0.547   1.280
 2494SOL    HW1 7490   4.079   0.488   1.352
 2494SOL    HW2 7491   4.081   0.521   1.192
 2495SOL     OW 7492   3.763   1.077   0.300
 2495SOL    HW1 7493   3.862   1.066   0.291
 2495SOL    HW2 7494   3.723   0.991   0.332
 2496SOL     OW 7495   3.954   0.628   1.975
 2496SOL    HW1 7496   3.861   0.626   2.012
 2496SOL    HW2 7497   3.955   0.589   1.883
 2497SOL     OW 7498   3.949   0.275   2.858
 2497SOL    HW1 7499   3.984   0.258   2.950
 2497SOL    HW2 7500   3.861   0.230   2.846
 2498SOL     OW 7501   3.743   0.368   2.509
 2498SOL    HW1 7502   3.661   0.411   2.548
 2498SOL    HW2 7503   3.715   0.295   2.446
 2499SOL     OW 7504   4.293   1.275   3.027
 2499SOL    HW1 7505   4.200   1.268   2.990
 2499SOL    HW2 7506   4.304   1.364   3.071
 2500SOL     OW 7507   4.574   0.798   3.685
 2500SOL    HW1 7508   4.570   0.874   3.750
 2500SOL    HW2 7509   4.596   0.834   3.594
 2501SOL     OW 7510   4.410   1.161   3.665
 2501SOL    HW1 7511   4.470   1.240   3.679
 2501SOL    HW2 7512   4.324   1.192   3.624
 2502SOL     OW 7513   4.059   1.435   2.923
 2502SOL    HW1 7514   3.981   1.404   2.870
 2502SOL    HW2 7515   4.117   1.493   2.866
 2503SOL     OW 7516   4.162   0.392   3.361
 2503SOL    HW1 7517   4.244   0.336   3.370
 2503SOL    HW2 7518   4.081   0.334   3.365
 2504SOL     OW 7519   3.955   1.713   2.345
 2504SOL    HW1 7520   3.989   1.790   2.399
 2504SOL    HW2 7521   3.999   1.713   2.255
 2505SOL     OW 7522   3.954   1.434   2.400
 2505SOL    HW1 7523   3.928   1.530   2.400
 2505SOL    HW2 7524   3.883   1.380   2.445
 2506SOL     OW 7525   3.964   1.091   2.748
 2506SOL    HW1 7526   3.978   1.007   2.800
 2506SOL    HW2 7527   3.909   1.155   2.803
 2507SOL     OW 7528   4.344   1.786   3.301
 2507SOL    HW1 7529   4.252   1.769   3.336
 2507SOL    HW2 7530   4.372   1.878   3.327
 2508SOL     OW 7531   4.330   0.964   1.985
 2508SOL    HW1 7532   4.337   1.048   1.931
 2508SOL    HW2 7533   4.376   0.977   2.073
 2509SOL     OW 7534   3.846   0.643   2.425
 2509SOL    HW1 7535   3.801   0.555   2.442
 2509SOL    HW2 7536   3.845   0.697   2.509
 2510SOL     OW 7537   3.751   1.596   1.979
 2510SOL    HW1 7538   3.732   1.500   2.000
 2510SOL    HW2 7539   3.718   1.654   2.054
 2511SOL     OW 7540   3.837   0.737   3.459
 2511SOL    HW1 7541   3.925   0.724   3.504
 2511SOL    HW2 7542   3.824   0.834   3.437
 2512SOL     OW 7543   4.337   1.365   2.588
 2512SOL    HW1 7544   4.288   1.278   2.597
 2512SOL    HW2 7545   4.314   1.408   2.501
 2513SOL     OW 7546   3.921   0.976   3.126
 2513SOL    HW1 7547   4.010   0.931   3.112
 2513SOL    HW2 7548   3.848   0.911   3.107
 2514SOL     OW 7549   4.041   0.251   3.663
 2514SOL    HW1 7550   4.112   0.322   3.669
 2514SOL    HW2 7551   3.953   0.290   3.691
 2515SOL     OW 7552   4.322   0.729   2.132
 2515SOL    HW1 7553   4.346   0.798   2.064
 2515SOL    HW2 7554   4.244   0.762   2.186
 2516SOL     OW 7555   3.800   0.811   2.651
 2516SOL    HW1 7556   3.899   0.799   2.660
 2516SOL    HW2 7557   3.776   0.906   2.672
 2517SOL     OW 7558   3.854   1.821   3.433
 2517SOL    HW1 7559   3.844   1.806   3.532
 2517SOL    HW2 7560   3.768   1.857   3.397
 2518SOL     OW 7561   4.274   0.196   2.747
 2518SOL    HW1 7562   4.269   0.191   2.847
 2518SOL    HW2 7563   4.276   0.292   2.718
 2519SOL     OW 7564   4.075   1.801   2.715
 2519SOL    HW1 7565   4.125   1.715   2.721
 2519SOL    HW2 7566   4.140   1.878   2.712
 2520SOL     OW 7567   4.045   0.943   2.104
 2520SOL    HW1 7568   4.127   0.982   2.062
 2520SOL    HW2 7569   4.018   0.861   2.055
 2521SOL     OW 7570   4.185   1.266   3.589
 2521SOL    HW1 7571   4.135   1.267   3.503
 2521SOL    HW2 7572   4.122   1.248   3.665
 2522SOL     OW 7573   3.926   0.285   3.360
 2522SOL    HW1 7574   3.846   0.345   3.347
 2522SOL    HW2 7575   3.916   0.236   3.446
 2523SOL     OW 7576   4.188   1.743   2.185
 2523SOL    HW1 7577   4.221   1.782   2.271
 2523SOL    HW2 7578   4.264   1.736   2.120
 2524SOL     OW 7579   3.973   1.785   3.103
 2524SOL    HW1 7580   4.030   1.720   3.153
 2524SOL    HW2 7581   3.957   1.752   3.010
 2525SOL     OW 7582   4.106   0.700   2.342
 2525SOL    HW1 7583   4.151   0.610   2.339
 2525SOL    HW2 7584   4.012   0.689   2.375
 2526SOL     OW 7585   4.338   0.122   1.979
 2526SOL    HW1 7586   4.436   0.100   1.986
 2526SOL    HW2 7587   4.307   0.105   1.886
 2527SOL     OW 7588   4.527   1.402   2.786
 2527SOL    HW1 7589   4.617   1.416   2.744
 2527SOL    HW2 7590   4.456   1.404   2.715
 2528SOL     OW 7591   4.263   0.064   2.374
 2528SOL    HW1 7592   4.182   0.065   2.432
 2528SOL    HW2 7593   4.266   0.147   2.319
 2529SOL     OW 7594   4.021   0.035   2.033
 2529SOL    HW1 7595   4.070   0.119   2.012
 2529SOL    HW2 7596   4.083  -0.030   2.078
 2530SOL     OW 7597   4.659   0.236   2.342
 2530SOL    HW1 7598   4.611   0.277   2.264
 2530SOL    HW2 7599   4.758   0.234   2.323
 2531SOL     OW 7600   4.183   1.152   2.603
 2531SOL    HW1 7601   4.112   1.125   2.668
 2531SOL    HW2 7602   4.157   1.124   2.510
 2532SOL     OW 7603   3.802   0.556   3.248
 2532SOL    HW1 7604   3.894   0.555   3.207
 2532SOL    HW2 7605   3.796   0.630   3.315
 2533SOL     OW 7606   4.285   0.222   3.009
 2533SOL    HW1 7607   4.323   0.138   3.046
 2533SOL    HW2 7608   4.197   0.241   3.053
 2534SOL     OW 7609   4.212   1.385   2.036
 2534SOL    HW1 7610   4.125   1.370   2.083
 2534SOL    HW2 7611   4.195   1.411   1.941
 2535SOL     OW 7612   4.251   0.256   2.190
 2535SOL    HW1 7613   4.278   0.197   2.115
 2535SOL    HW2 7614   4.251   0.351   2.159
 2536SOL     OW 7615   4.134   0.813   3.113
 2536SOL    HW1 7616   4.220   0.825   3.163
 2536SOL    HW2 7617   4.092   0.726   3.140
 2537SOL     OW 7618   3.788   1.564   3.193
 2537SOL    HW1 7619   3.742   1.646   3.159
 2537SOL    HW2 7620   3.886   1.583   3.202
 2538SOL     OW 7621   4.091   1.100   2.363
 2538SOL    HW1 7622   4.084   1.183   2.307
 2538SOL    HW2 7623   4.095   1.020   2.303
 2539SOL     OW 7624   4.290   0.537   2.727
 2539SOL    HW1 7625   4.302   0.603   2.653
 2539SOL    HW2 7626   4.336   0.571   2.810
 2540SOL     OW 7627   4.078   1.510   3.191
 2540SOL    HW1 7628   4.057   1.466   3.104
 2540SOL    HW2 7629   4.175   1.536   3.194
 2541SOL     OW 7630   4.126   0.751   3.460
 2541SOL    HW1 7631   4.194   0.806   3.413
 2541SOL    HW2 7632   4.166   0.663   3.487
 2542SOL     OW 7633   4.228   0.050   3.602
 2542SOL    HW1 7634   4.186  -0.007   3.532
 2542SOL    HW2 7635   4.162   0.119   3.634
 2543SOL     OW 7636   4.297   0.870   2.891
 2543SOL    HW1 7637   4.341   0.959   2.882
 2543SOL    HW2 7638   4.234   0.870   2.968
 2544SOL     OW 7639   4.031   0.213   3.093
 2544SOL    HW1 7640   4.008   0.250   3.183
 2544SOL    HW2 7641   4.001   0.118   3.087
 2545SOL     OW 7642   3.761   1.310   3.144
 2545SOL    HW1 7643   3.814   1.261   3.212
 2545SOL    HW2 7644   3.783   1.408   3.149
 2546SOL     OW 7645   4.031   0.063   2.480
 2546SOL    HW1 7646   4.020   0.157   2.513
 2546SOL    HW2 7647   4.026   0.000   2.557
 2547SOL     OW 7648   4.074   0.898   3.666
 2547SOL    HW1 7649   4.150   0.942   3.714
 2547SOL    HW2 7650   4.109   0.851   3.584
 2548SOL     OW 7651   4.043   0.810   2.811
 2548SOL    HW1 7652   4.136   0.846   2.816
 2548SOL    HW2 7653   4.037   0.725   2.863
 2549SOL     OW 7654   4.063   0.509   2.868
 2549SOL    HW1 7655   4.011   0.426   2.851
 2549SOL    HW2 7656   4.140   0.514   2.804
 2550SOL     OW 7657   3.732   1.326   2.062
 2550SOL    HW1 7658   3.639   1.347   2.031
 2550SOL    HW2 7659   3.742   1.227   2.075
 2551SOL     OW 7660   3.812   1.801   2.789
 2551SOL    HW1 7661   3.770   1.715   2.762
 2551SOL    HW2 7662   3.906   1.804   2.755
 2552SOL     OW 7663   4.228   1.568   2.772
 2552SOL    HW1 7664   4.294   1.642   2.781
 2552SOL    HW2 7665   4.272   1.489   2.730
 2553SOL     OW 7666   3.764   0.544   2.976
 2553SOL    HW1 7667   3.849   0.511   2.935
 2553SOL    HW2 7668   3.777   0.559   3.074
 2554SOL     OW 7669   3.913   0.520   3.584
 2554SOL    HW1 7670   3.972   0.480   3.514
 2554SOL    HW2 7671   3.855   0.591   3.543
 2555SOL     OW 7672   4.539   0.572   2.187
 2555SOL    HW1 7673   4.546   0.483   2.141
 2555SOL    HW2 7674   4.445   0.606   2.179
 2556SOL     OW 7675   3.976   1.564   3.606
 2556SOL    HW1 7676   3.946   1.621   3.682
 2556SOL    HW2 7677   3.969   1.467   3.632
 2557SOL     OW 7678   4.197   0.500   2.053
 2557SOL    HW1 7679   4.258   0.580   2.057
 2557SOL    HW2 7680   4.102   0.531   2.060
 2558SOL     OW 7681   3.883   1.137   3.328
 2558SOL    HW1 7682   3.905   1.076   3.404
 2558SOL    HW2 7683   3.893   1.088   3.242
 2559SOL     OW 7684   3.807   1.258   2.884
 2559SOL    HW1 7685   3.802   1.257   2.984
 2559SOL    HW2 7686   3.724   1.217   2.846
 2560SOL     OW 7687   4.412   1.662   3.578
 2560SOL    HW1 7688   4.356   1.743   3.587
 2560SOL    HW2 7689   4.464   1.666   3.492
 2561SOL     OW 7690   3.854   1.794   3.713
 2561SOL    HW1 7691   3.813   1.720   3.766
 2561SOL    HW2 7692   3.918   1.845   3.771
 2562SOL     OW 7693   3.987   0.326   2.582
 2562SOL    HW1 7694   3.908   0.377   2.548
 2562SOL    HW2 7695   3.978   0.311   2.680
 2563SOL     OW 7696   4.096   1.288   3.352
 2563SOL    HW1 7697   4.083   1.381   3.318
 2563SOL    HW2 7698   4.012   1.236   3.339
 2564SOL     OW 7699   4.314   1.487   2.353
 2564SOL    HW1 7700   4.356   1.429   2.283
 2564SOL    HW2 7701   4.270   1.566   2.309
 2565SOL     OW 7702   3.979   1.348   2.152
 2565SOL    HW1 7703   3.883   1.349   2.125
 2565SOL    HW2 7704   3.991   1.401   2.236
 2566SOL     OW 7705   3.829   1.013   3.588
 2566SOL    HW1 7706   3.752   0.980   3.642
 2566SOL    HW2 7707   3.914   0.983   3.630
 2567SOL     OW 7708   4.396   0.203   3.351
 2567SOL    HW1 7709   4.486   0.187   3.311
 2567SOL    HW2 7710   4.404   0.208   3.450
 2568SOL     OW 7711   3.799   0.345   1.895
 2568SOL    HW1 7712   3.707   0.317   1.866
 2568SOL    HW2 7713   3.830   0.422   1.839
 2569SOL     OW 7714   3.796   0.166   2.180
 2569SOL    HW1 7715   3.779   0.249   2.126
 2569SOL    HW2 7716   3.886   0.129   2.158
 2570SOL     OW 7717   4.337   0.842   3.293
 2570SOL    HW1 7718   4.393   0.923   3.276
 2570SOL    HW2 7719   4.396   0.762   3.296
 2571SOL     OW 7720   4.114   1.741   3.422
 2571SOL    HW1 7721   4.023   1.782   3.420
 2571SOL    HW2 7722   4.107   1.647   3.454
 2572SOL     OW 7723   4.318   0.745   2.514
 2572SOL    HW1 7724   4.368   0.830   2.495
 2572SOL    HW2 7725   4.230   0.747   2.466
 2573SOL     OW 7726   3.945   1.314   3.706
 2573SOL    HW1 7727   3.880   1.241   3.685
 2573SOL    HW2 7728   3.949   1.328   3.804
 2574SOL     OW 7729   3.803   1.240   2.515
 2574SOL    HW1 7730   3.802   1.193   2.603
 2574SOL    HW2 7731   3.885   1.212   2.464
 2575SOL     OW 7732   4.396   1.391   3.486
 2575SOL    HW1 7733   4.318   1.341   3.524
 2575SOL    HW2 7734   4.393   1.486   3.517
 2576SOL     OW 7735   4.152   0.424   2.382
 2576SOL    HW1 7736   4.182   0.352   2.320
 2576SOL    HW2 7737   4.113   0.384   2.465
 2577SOL     OW 7738   4.041   0.547   3.142
 2577SOL    HW1 7739   4.079   0.488   3.214
 2577SOL    HW2 7740   4.081   0.521   3.054
 2578SOL     OW 7741   3.763   1.077   2.162
 2578SOL    HW1 7742   3.862   1.066   2.153
 2578SOL    HW2 7743   3.723   0.991   2.194
 2579SOL     OW 7744   3.954   0.628   3.837
 2579SOL    HW1 7745   3.861   0.626   3.874
 2579SOL    HW2 7746   3.955   0.589   3.745
 2580SOL     OW 7747   3.949   0.275   4.720
 2580SOL    HW1 7748   3.984   0.258   4.812
 2580SOL    HW2 7749   3.861   0.230   4.708
 2581SOL     OW 7750   3.955   1.713   4.207
 2581SOL    HW1 7751   3.989   1.790   4.261
 2581SOL    HW2 7752   3.999   1.713   4.117
 2582SOL     OW 7753   3.954   1.434   4.262
 2582SOL    HW1 7754   3.928   1.530   4.262
 2582SOL    HW2 7755   3.883   1.380   4.307
 2583SOL     OW 7756   4.330   0.964   3.847
 2583SOL    HW1 7757   4.337   1.048   3.793
 2583SOL    HW2 7758   4.376   0.977   3.935
 2584SOL     OW 7759   3.846   0.643   4.287
 2584SOL    HW1 7760   3.801   0.555   4.304
 2584SOL    HW2 7761   3.845   0.697   4.371
 2585SOL     OW 7762   3.751   1.596   3.841
 2585SOL    HW1 7763   3.732   1.500   3.862
 2585SOL    HW2 7764   3.718   1.654   3.916
 2586SOL     OW 7765   4.337   1.365   4.450
 2586SOL    HW1 7766   4.288   1.278   4.459
 2586SOL    HW2 7767   4.314   1.408   4.363
 2587SOL     OW 7768   4.322   0.729   3.994
 2587SOL    HW1 7769   4.346   0.798   3.926
 2587SOL    HW2 7770   4.244   0.762   4.048
 2588SOL     OW 7771   3.800   0.811   4.513
 2588SOL    HW1 7772   3.899   0.799   4.522
 2588SOL    HW2 7773   3.776   0.906   4.534
 2589SOL     OW 7774   4.075   1.801   4.577
 2589SOL    HW1 7775   4.125   1.715   4.583
 2589SOL    HW2 7776   4.140   1.878   4.574
 2590SOL     OW 7777   4.045   0.943   3.966
 2590SOL    HW1 7778   4.127   0.982   3.924
 2590SOL    HW2 7779   4.018   0.861   3.917
 2591SOL     OW 7780   4.188   1.743   4.047
 2591SOL    HW1 7781   4.221   1.782   4.133
 2591SOL    HW2 7782   4.264   1.736   3.982
 2592SOL     OW 7783   4.106   0.700   4.204
 2592SOL    HW1 7784   4.151   0.610   4.201
 2592SOL    HW2 7785   4.012   0.689   4.237
 2593SOL     OW 7786   4.338   0.122   3.841
 2593SOL    HW1 7787   4.436   0.100   3.848
 2593SOL    HW2 7788   4.307   0.105   3.748
 2594SOL     OW 7789   4.263   0.064   4.236
 2594SOL    HW1 7790   4.182   0.065   4.294
 2594SOL    HW2 7791   4.266   0.147   4.181
 2595SOL     OW 7792   4.021   0.035   3.895
 2595SOL    HW1 7793   4.070   0.119   3.874
 2595SOL    HW2 7794   4.083  -0.030   3.940
 2596SOL     OW 7795   4.659   0.236   4.204
 2596SOL    HW1 7796   4.611   0.277   4.126
 2596SOL    HW2 7797   4.758   0.234   4.185
 2597SOL     OW 7798   4.183   1.152   4.465
 2597SOL    HW1 7799   4.112   1.125   4.530
 2597SOL    HW2 7800   4.157   1.124   4.372
 2598SOL     OW 7801   4.212   1.385   3.898
 2598SOL    HW1 7802   4.125   1.370   3.945
 2598SOL    HW2 7803   4.195   1.411   3.803
 2599SOL     OW 7804   4.251   0.256   4.052
 2599SOL    HW1 7805   4.278   0.197   3.977
 2599SOL    HW2 7806   4.251   0.351   4.021
 2600SOL     OW 7807   4.091   1.100   4.225
 2600SOL    HW1 7808   4.084   1.183   4.169
 2600SOL    HW2 7809   4.095   1.020   4.165
 2601SOL     OW 7810   4.031   0.063   4.342
 2601SOL    HW1 7811   4.020   0.157   4.375
 2601SOL    HW2 7812   4.026   0.000   4.419
 2602SOL     OW 7813   3.732   1.326   3.924
 2602SOL    HW1 7814   3.639   1.347   3.893
 2602SOL    HW2 7815   3.742   1.227   3.937
 2603SOL     OW 7816   4.539   0.572   4.049
 2603SOL    HW1 7817   4.546   0.483   4.003
 2603SOL    HW2 7818   4.445   0.606   4.041
 2604SOL     OW 7819   4.197   0.500   3.915
 2604SOL    HW1 7820   4.258   0.580   3.919
 2604SOL    HW2 7821   4.102   0.531   3.922
 2605SOL     OW 7822   4.314   1.487   4.215
 2605SOL    HW1 7823   4.356   1.429   4.145
 2605SOL    HW2 7824   4.270   1.566   4.171
 2606SOL     OW 7825   3.979   1.348   4.014
 2606SOL    HW1 7826   3.883   1.349   3.987
 2606SOL    HW2 7827   3.991   1.401   4.098
 2607SOL     OW 7828   3.799   0.345   3.757
 2607SOL    HW1 7829   3.707   0.317   3.728
 2607SOL    HW2 7830   3.830   0.422   3.701
 2608SOL     OW 7831   3.796   0.166   4.042
 2608SOL    HW1 7832   3.779   0.249   3.988
 2608SOL    HW2 7833   3.886   0.129   4.020
 2609SOL     OW 7834   4.318   0.745   4.376
 2609SOL    HW1 7835   4.368   0.830   4.357
 2609SOL    HW2 7836   4.230   0.747   4.328
 2610SOL     OW 7837   3.803   1.240   4.377
 2610SOL    HW1 7838   3.802   1.193   4.465
 2610SOL    HW2 7839   3.885   1.212   4.326
 2611SOL     OW 7840   4.152   0.424   4.244
 2611SOL    HW1 7841   4.182   0.352   4.182
 2611SOL    HW2 7842   4.113   0.384   4.327
 2612SOL     OW 7843   3.763   1.077   4.024
 2612SOL    HW1 7844   3.862   1.066   4.015
 2612SOL    HW2 7845   3.723   0.991   4.056
 2613SOL     OW 7846   3.954   2.490   0.113
 2613SOL    HW1 7847   3.861   2.488   0.150
 2613SOL    HW2 7848   3.955   2.451   0.021
 2614SOL     OW 7849   3.949   2.137   0.996
 2614SOL    HW1 7850   3.984   2.120   1.088
 2614SOL    HW2 7851   3.861   2.092   0.984
 2615SOL     OW 7852   3.743   2.230   0.647
 2615SOL    HW1 7853   3.661   2.273   0.686
 2615SOL    HW2 7854   3.715   2.157   0.584
 2616SOL     OW 7855   4.293   3.137   1.165
 2616SOL    HW1 7856   4.200   3.130   1.128
 2616SOL    HW2 7857   4.304   3.226   1.209
 2617SOL     OW 7858   4.574   2.660   1.823
 2617SOL    HW1 7859   4.570   2.736   1.888
 2617SOL    HW2 7860   4.596   2.696   1.732
 2618SOL     OW 7861   4.410   3.023   1.803
 2618SOL    HW1 7862   4.470   3.102   1.817
 2618SOL    HW2 7863   4.324   3.054   1.762
 2619SOL     OW 7864   4.059   3.297   1.061
 2619SOL    HW1 7865   3.981   3.266   1.008
 2619SOL    HW2 7866   4.117   3.355   1.004
 2620SOL     OW 7867   4.162   2.254   1.499
 2620SOL    HW1 7868   4.244   2.198   1.508
 2620SOL    HW2 7869   4.081   2.196   1.503
 2621SOL     OW 7870   3.955   3.575   0.483
 2621SOL    HW1 7871   3.989   3.652   0.537
 2621SOL    HW2 7872   3.999   3.575   0.393
 2622SOL     OW 7873   3.954   3.296   0.538
 2622SOL    HW1 7874   3.928   3.392   0.538
 2622SOL    HW2 7875   3.883   3.242   0.583
 2623SOL     OW 7876   3.964   2.953   0.886
 2623SOL    HW1 7877   3.978   2.869   0.938
 2623SOL    HW2 7878   3.909   3.017   0.941
 2624SOL     OW 7879   4.344   3.648   1.439
 2624SOL    HW1 7880   4.252   3.631   1.474
 2624SOL    HW2 7881   4.372   3.740   1.465
 2625SOL     OW 7882   4.330   2.826   0.123
 2625SOL    HW1 7883   4.337   2.910   0.069
 2625SOL    HW2 7884   4.376   2.839   0.211
 2626SOL     OW 7885   3.846   2.505   0.563
 2626SOL    HW1 7886   3.801   2.417   0.580
 2626SOL    HW2 7887   3.845   2.559   0.647
 2627SOL     OW 7888   3.751   3.458   0.117
 2627SOL    HW1 7889   3.732   3.362   0.138
 2627SOL    HW2 7890   3.718   3.516   0.192
 2628SOL     OW 7891   3.837   2.599   1.597
 2628SOL    HW1 7892   3.925   2.586   1.642
 2628SOL    HW2 7893   3.824   2.696   1.575
 2629SOL     OW 7894   4.337   3.227   0.726
 2629SOL    HW1 7895   4.288   3.140   0.735
 2629SOL    HW2 7896   4.314   3.270   0.639
 2630SOL     OW 7897   4.533   1.866   0.502
 2630SOL    HW1 7898   4.573   1.957   0.493
 2630SOL    HW2 7899   4.433   1.874   0.508
 2631SOL     OW 7900   3.921   2.838   1.264
 2631SOL    HW1 7901   4.010   2.793   1.250
 2631SOL    HW2 7902   3.848   2.773   1.245
 2632SOL     OW 7903   4.041   2.113   1.801
 2632SOL    HW1 7904   4.112   2.184   1.807
 2632SOL    HW2 7905   3.953   2.152   1.829
 2633SOL     OW 7906   4.322   2.591   0.270
 2633SOL    HW1 7907   4.346   2.660   0.202
 2633SOL    HW2 7908   4.244   2.624   0.324
 2634SOL     OW 7909   3.800   2.673   0.789
 2634SOL    HW1 7910   3.899   2.661   0.798
 2634SOL    HW2 7911   3.776   2.768   0.810
 2635SOL     OW 7912   3.854   3.683   1.571
 2635SOL    HW1 7913   3.844   3.668   1.670
 2635SOL    HW2 7914   3.768   3.719   1.535
 2636SOL     OW 7915   4.274   2.058   0.885
 2636SOL    HW1 7916   4.269   2.053   0.985
 2636SOL    HW2 7917   4.276   2.154   0.856
 2637SOL     OW 7918   4.075   3.663   0.853
 2637SOL    HW1 7919   4.125   3.577   0.859
 2637SOL    HW2 7920   4.140   3.740   0.850
 2638SOL     OW 7921   4.045   2.805   0.242
 2638SOL    HW1 7922   4.127   2.844   0.200
 2638SOL    HW2 7923   4.018   2.723   0.193
 2639SOL     OW 7924   4.185   3.128   1.727
 2639SOL    HW1 7925   4.135   3.129   1.641
 2639SOL    HW2 7926   4.122   3.110   1.803
 2640SOL     OW 7927   3.926   2.147   1.498
 2640SOL    HW1 7928   3.846   2.207   1.485
 2640SOL    HW2 7929   3.916   2.098   1.584
 2641SOL     OW 7930   4.188   3.605   0.323
 2641SOL    HW1 7931   4.221   3.644   0.409
 2641SOL    HW2 7932   4.264   3.598   0.258
 2642SOL     OW 7933   3.973   3.647   1.241
 2642SOL    HW1 7934   4.030   3.582   1.291
 2642SOL    HW2 7935   3.957   3.614   1.148
 2643SOL     OW 7936   4.106   2.562   0.480
 2643SOL    HW1 7937   4.151   2.472   0.477
 2643SOL    HW2 7938   4.012   2.551   0.513
 2644SOL     OW 7939   4.338   1.984   0.117
 2644SOL    HW1 7940   4.436   1.962   0.124
 2644SOL    HW2 7941   4.307   1.967   0.024
 2645SOL     OW 7942   4.527   3.264   0.924
 2645SOL    HW1 7943   4.617   3.278   0.882
 2645SOL    HW2 7944   4.456   3.266   0.853
 2646SOL     OW 7945   4.263   1.926   0.512
 2646SOL    HW1 7946   4.182   1.927   0.570
 2646SOL    HW2 7947   4.266   2.009   0.457
 2647SOL     OW 7948   4.659   2.098   0.480
 2647SOL    HW1 7949   4.611   2.139   0.402
 2647SOL    HW2 7950   4.758   2.096   0.461
 2648SOL     OW 7951   4.183   3.014   0.741
 2648SOL    HW1 7952   4.112   2.987   0.806
 2648SOL    HW2 7953   4.157   2.986   0.648
 2649SOL     OW 7954   3.802   2.418   1.386
 2649SOL    HW1 7955   3.894   2.417   1.345
 2649SOL    HW2 7956   3.796   2.492   1.453
 2650SOL     OW 7957   4.285   2.084   1.147
 2650SOL    HW1 7958   4.323   2.000   1.184
 2650SOL    HW2 7959   4.197   2.103   1.191
 2651SOL     OW 7960   4.212   3.247   0.174
 2651SOL    HW1 7961   4.125   3.232   0.221
 2651SOL    HW2 7962   4.195   3.273   0.079
 2652SOL     OW 7963   4.251   2.118   0.328
 2652SOL    HW1 7964   4.278   2.059   0.253
 2652SOL    HW2 7965   4.251   2.213   0.297
 2653SOL     OW 7966   4.134   2.675   1.251
 2653SOL    HW1 7967   4.220   2.687   1.301
 2653SOL    HW2 7968   4.092   2.588   1.278
 2654SOL     OW 7969   3.788   3.426   1.331
 2654SOL    HW1 7970   3.742   3.508   1.297
 2654SOL    HW2 7971   3.886   3.445   1.340
 2655SOL     OW 7972   4.091   2.962   0.501
 2655SOL    HW1 7973   4.084   3.045   0.445
 2655SOL    HW2 7974   4.095   2.882   0.441
 2656SOL     OW 7975   4.290   2.399   0.865
 2656SOL    HW1 7976   4.302   2.465   0.791
 2656SOL    HW2 7977   4.336   2.433   0.948
 2657SOL     OW 7978   4.078   3.372   1.329
 2657SOL    HW1 7979   4.057   3.328   1.242
 2657SOL    HW2 7980   4.175   3.398   1.332
 2658SOL     OW 7981   4.126   2.613   1.598
 2658SOL    HW1 7982   4.194   2.668   1.551
 2658SOL    HW2 7983   4.166   2.525   1.625
 2659SOL     OW 7984   4.228   1.912   1.740
 2659SOL    HW1 7985   4.186   1.855   1.670
 2659SOL    HW2 7986   4.162   1.981   1.772
 2660SOL     OW 7987   4.297   2.732   1.029
 2660SOL    HW1 7988   4.341   2.821   1.020
 2660SOL    HW2 7989   4.234   2.732   1.106
 2661SOL     OW 7990   4.031   2.075   1.231
 2661SOL    HW1 7991   4.008   2.112   1.321
 2661SOL    HW2 7992   4.001   1.980   1.225
 2662SOL     OW 7993   3.761   3.172   1.282
 2662SOL    HW1 7994   3.814   3.123   1.350
 2662SOL    HW2 7995   3.783   3.270   1.287
 2663SOL     OW 7996   4.031   1.925   0.618
 2663SOL    HW1 7997   4.020   2.019   0.651
 2663SOL    HW2 7998   4.026   1.862   0.695
 2664SOL     OW 7999   4.074   2.760   1.804
 2664SOL    HW1 8000   4.150   2.804   1.852
 2664SOL    HW2 8001   4.109   2.713   1.722
 2665SOL     OW 8002   4.043   2.672   0.949
 2665SOL    HW1 8003   4.136   2.708   0.954
 2665SOL    HW2 8004   4.037   2.587   1.001
 2666SOL     OW 8005   4.063   2.371   1.006
 2666SOL    HW1 8006   4.011   2.288   0.989
 2666SOL    HW2 8007   4.140   2.376   0.942
 2667SOL     OW 8008   3.732   3.188   0.200
 2667SOL    HW1 8009   3.639   3.209   0.169
 2667SOL    HW2 8010   3.742   3.089   0.213
 2668SOL     OW 8011   3.812   3.663   0.927
 2668SOL    HW1 8012   3.770   3.577   0.900
 2668SOL    HW2 8013   3.906   3.666   0.893
 2669SOL     OW 8014   4.228   3.430   0.910
 2669SOL    HW1 8015   4.294   3.504   0.919
 2669SOL    HW2 8016   4.272   3.351   0.868
 2670SOL     OW 8017   3.764   2.406   1.114
 2670SOL    HW1 8018   3.849   2.373   1.073
 2670SOL    HW2 8019   3.777   2.421   1.212
 2671SOL     OW 8020   3.913   2.382   1.722
 2671SOL    HW1 8021   3.972   2.342   1.652
 2671SOL    HW2 8022   3.855   2.453   1.681
 2672SOL     OW 8023   4.539   2.434   0.325
 2672SOL    HW1 8024   4.546   2.345   0.279
 2672SOL    HW2 8025   4.445   2.468   0.317
 2673SOL     OW 8026   3.976   3.426   1.744
 2673SOL    HW1 8027   3.946   3.483   1.820
 2673SOL    HW2 8028   3.969   3.329   1.770
 2674SOL     OW 8029   4.197   2.362   0.191
 2674SOL    HW1 8030   4.258   2.442   0.195
 2674SOL    HW2 8031   4.102   2.393   0.198
 2675SOL     OW 8032   3.883   2.999   1.466
 2675SOL    HW1 8033   3.905   2.938   1.542
 2675SOL    HW2 8034   3.893   2.950   1.380
 2676SOL     OW 8035   3.807   3.120   1.022
 2676SOL    HW1 8036   3.802   3.119   1.122
 2676SOL    HW2 8037   3.724   3.079   0.984
 2677SOL     OW 8038   4.412   3.524   1.716
 2677SOL    HW1 8039   4.356   3.605   1.725
 2677SOL    HW2 8040   4.464   3.528   1.630
 2678SOL     OW 8041   4.627   1.948   0.133
 2678SOL    HW1 8042   4.678   1.949   0.047
 2678SOL    HW2 8043   4.683   1.906   0.204
 2679SOL     OW 8044   3.854   3.656   1.851
 2679SOL    HW1 8045   3.813   3.582   1.904
 2679SOL    HW2 8046   3.918   3.707   1.909
 2680SOL     OW 8047   3.987   2.188   0.720
 2680SOL    HW1 8048   3.908   2.239   0.686
 2680SOL    HW2 8049   3.978   2.173   0.818
 2681SOL     OW 8050   4.096   3.150   1.490
 2681SOL    HW1 8051   4.083   3.243   1.456
 2681SOL    HW2 8052   4.012   3.098   1.477
 2682SOL     OW 8053   4.314   3.349   0.491
 2682SOL    HW1 8054   4.356   3.291   0.421
 2682SOL    HW2 8055   4.270   3.428   0.447
 2683SOL     OW 8056   3.979   3.210   0.290
 2683SOL    HW1 8057   3.883   3.211   0.263
 2683SOL    HW2 8058   3.991   3.263   0.374
 2684SOL     OW 8059   3.829   2.875   1.726
 2684SOL    HW1 8060   3.752   2.842   1.780
 2684SOL    HW2 8061   3.914   2.845   1.768
 2685SOL     OW 8062   4.396   2.065   1.489
 2685SOL    HW1 8063   4.486   2.049   1.449
 2685SOL    HW2 8064   4.404   2.070   1.588
 2686SOL     OW 8065   3.799   2.207   0.033
 2686SOL    HW1 8066   3.707   2.179   0.004
 2686SOL    HW2 8067   3.830   2.284  -0.023
 2687SOL     OW 8068   4.337   2.704   1.431
 2687SOL    HW1 8069   4.393   2.785   1.414
 2687SOL    HW2 8070   4.396   2.624   1.434
 2688SOL     OW 8071   4.114   3.603   1.560
 2688SOL    HW1 8072   4.023   3.644   1.558
 2688SOL    HW2 8073   4.107   3.509   1.592
 2689SOL     OW 8074   4.318   2.607   0.652
 2689SOL    HW1 8075   4.368   2.692   0.633
 2689SOL    HW2 8076   4.230   2.609   0.604
 2690SOL     OW 8077   3.945   3.176   1.844
 2690SOL    HW1 8078   3.880   3.103   1.823
 2690SOL    HW2 8079   3.949   3.190   1.942
 2691SOL     OW 8080   3.803   3.102   0.653
 2691SOL    HW1 8081   3.802   3.055   0.741
 2691SOL    HW2 8082   3.885   3.074   0.602
 2692SOL     OW 8083   4.396   3.253   1.624
 2692SOL    HW1 8084   4.318   3.203   1.662
 2692SOL    HW2 8085   4.393   3.348   1.655
 2693SOL     OW 8086   4.152   2.286   0.520
 2693SOL    HW1 8087   4.182   2.214   0.458
 2693SOL    HW2 8088   4.113   2.246   0.603
 2694SOL     OW 8089   4.041   2.409   1.280
 2694SOL    HW1 8090   4.079   2.350   1.352
 2694SOL    HW2 8091   4.081   2.383   1.192
 2695SOL     OW 8092   3.763   2.939   0.300
 2695SOL    HW1 8093   3.862   2.928   0.291
 2695SOL    HW2 8094   3.723   2.853   0.332
 2696SOL     OW 8095   3.954   2.490   1.975
 2696SOL    HW1 8096   3.861   2.488   2.012
 2696SOL    HW2 8097   3.955   2.451   1.883
 2697SOL     OW 8098   3.949   2.137   2.858
 2697SOL    HW1 8099   3.984   2.120   2.950
 2697SOL    HW2 8100   3.861   2.092   2.846
 2698SOL     OW 8101   3.743   2.230   2.509
 2698SOL    HW1 8102   3.661   2.273   2.548
 2698SOL    HW2 8103   3.715   2.157   2.446
 2699SOL     OW 8104   4.293   3.137   3.027
 2699SOL    HW1 8105   4.200   3.130   2.990
 2699SOL    HW2 8106   4.304   3.226   3.071
 2700SOL     OW 8107   4.574   2.660   3.685
 2700SOL    HW1 8108   4.570   2.736   3.750
 2700SOL    HW2 8109   4.596   2.696   3.594
 2701SOL     OW 8110   4.410   3.023   3.665
 2701SOL    HW1 8111   4.470   3.102   3.679
 2701SOL    HW2 8112   4.324   3.054   3.624
 2702SOL     OW 8113   4.059   3.297   2.923
 2702SOL    HW1 8114   3.981   3.266   2.870
 2702SOL    HW2 8115   4.117   3.355   2.866
 2703SOL     OW 8116   4.162   2.254   3.361
 2703SOL    HW1 8117   4.244   2.198   3.370
 2703SOL    HW2 8118   4.081   2.196   3.365
 2704SOL     OW 8119   3.955   3.575   2.345
 2704SOL    HW1 8120   3.989   3.652   2.399
 2704SOL    HW2 8121   3.999   3.575   2.255
 2705SOL     OW 8122   3.954   3.296   2.400
 2705SOL    HW1 8123   3.928   3.392   2.400
 2705SOL    HW2 8124   3.883   3.242   2.445
 2706SOL     OW 8125   3.964   2.953   2.748
 2706SOL    HW1 8126   3.978   2.869   2.800
 2706SOL    HW2 8127   3.909   3.017   2.803
 2707SOL     OW 8128   4.344   3.648   3.301
 2707SOL    HW1 8129   4.252   3.631   3.336
 2707SOL    HW2 8130   4.372   3.740   3.327
 2708SOL     OW 8131   4.330   2.826   1.985
 2708SOL    HW1 8132   4.337   2.910   1.931
 2708SOL    HW2 8133   4.376   2.839   2.073
 2709SOL     OW 8134   3.846   2.505   2.425
 2709SOL    HW1 8135   3.801   2.417   2.442
 2709SOL    HW2 8136   3.845   2.559   2.509
 2710SOL     OW 8137   3.751   3.458   1.979
 2710SOL    HW1 8138   3.732   3.362   2.000
 2710SOL    HW2 8139   3.718   3.516   2.054
 2711SOL     OW 8140   3.837   2.599   3.459
 2711SOL    HW1 8141   3.925   2.586   3.504
 2711SOL    HW2 8142   3.824   2.696   3.437
 2712SOL     OW 8143   4.337   3.227   2.588
 2712SOL    HW1 8144   4.288   3.140   2.597
 2712SOL    HW2 8145   4.314   3.270   2.501
 2713SOL     OW 8146   4.533   1.866   2.364
 2713SOL    HW1 8147   4.573   1.957   2.355
 2713SOL    HW2 8148   4.433   1.874   2.370
 2714SOL     OW 8149   3.921   2.838   3.126
 2714SOL    HW1 8150   4.010   2.793   3.112
 2714SOL    HW2 8151   3.848   2.773   3.107
 2715SOL     OW 8152   4.041   2.113   3.663
 2715SOL    HW1 8153   4.112   2.184   3.669
 2715SOL    HW2 8154   3.953   2.152   3.691
 2716SOL     OW 8155   4.322   2.591   2.132
 2716SOL    HW1 8156   4.346   2.660   2.064
 2716SOL    HW2 8157   4.244   2.624   2.186
 2717SOL     OW 8158   3.800   2.673   2.651
 2717SOL    HW1 8159   3.899   2.661   2.660
 2717SOL    HW2 8160   3.776   2.768   2.672
 2718SOL     OW 8161   3.854   3.683   3.433
 2718SOL    HW1 8162   3.844   3.668   3.532
 2718SOL    HW2 8163   3.768   3.719   3.397
 2719SOL     OW 8164   4.274   2.058   2.747
 2719SOL    HW1 8165   4.269   2.053   2.847
 2719SOL    HW2 8166   4.276   2.154   2.718
 2720SOL     OW 8167   4.075   3.663   2.715
 2720SOL    HW1 8168   4.125   3.577   2.721
 2720SOL    HW2 8169   4.140   3.740   2.712
 2721SOL     OW 8170   4.045   2.805   2.104
 2721SOL    HW1 8171   4.127   2.844   2.062
 2721SOL    HW2 8172   4.018   2.723   2.055
 2722SOL     OW 8173   4.185   3.128   3.589
 2722SOL    HW1 8174   4.135   3.129   3.503
 2722SOL    HW2 8175   4.122   3.110   3.665
 2723SOL     OW 8176   3.926   2.147   3.360
 2723SOL    HW1 8177   3.846   2.207   3.347
 2723SOL    HW2 8178   3.916   2.098   3.446
 2724SOL     OW 8179   4.188   3.605   2.185
 2724SOL    HW1 8180   4.221   3.644   2.271
 2724SOL    HW2 8181   4.264   3.598   2.120
 2725SOL     OW 8182   3.973   3.647   3.103
 2725SOL    HW1 8183   4.030   3.582   3.153
 2725SOL    HW2 8184   3.957   3.614   3.010
 2726SOL     OW 8185   4.106   2.562   2.342
 2726SOL    HW1 8186   4.151   2.472   2.339
 2726SOL    HW2 8187   4.012   2.551   2.375
 2727SOL     OW 8188   4.338   1.984   1.979
 2727SOL    HW1 8189   4.436   1.962   1.986
 2727SOL    HW2 8190   4.307   1.967   1.886
 2728SOL     OW 8191   4.527   3.264   2.786
 2728SOL    HW1 8192   4.617   3.278   2.744
 2728SOL    HW2 8193   4.456   3.266   2.715
 2729SOL     OW 8194   4.263   1.926   2.374
 2729SOL    HW1 8195   4.182   1.927   2.432
 2729SOL    HW2 8196   4.266   2.009   2.319
 2730SOL     OW 8197   4.021   1.897   2.033
 2730SOL    HW1 8198   4.070   1.981   2.012
 2730SOL    HW2 8199   4.083   1.832   2.078
 2731SOL     OW 8200   4.659   2.098   2.342
 2731SOL    HW1 8201   4.611   2.139   2.264
 2731SOL    HW2 8202   4.758   2.096   2.323
 2732SOL     OW 8203   4.183   3.014   2.603
 2732SOL    HW1 8204   4.112   2.987   2.668
 2732SOL    HW2 8205   4.157   2.986   2.510
 2733SOL     OW 8206   3.802   2.418   3.248
 2733SOL    HW1 8207   3.894   2.417   3.207
 2733SOL    HW2 8208   3.796   2.492   3.315
 2734SOL     OW 8209   4.285   2.084   3.009
 2734SOL    HW1 8210   4.323   2.000   3.046
 2734SOL    HW2 8211   4.197   2.103   3.053
 2735SOL     OW 8212   4.212   3.247   2.036
 2735SOL    HW1 8213   4.125   3.232   2.083
 2735SOL    HW2 8214   4.195   3.273   1.941
 2736SOL     OW 8215   4.251   2.118   2.190
 2736SOL    HW1 8216   4.278   2.059   2.115
 2736SOL    HW2 8217   4.251   2.213   2.159
 2737SOL     OW 8218   4.134   2.675   3.113
 2737SOL    HW1 8219   4.220   2.687   3.163
 2737SOL    HW2 8220   4.092   2.588   3.140
 2738SOL     OW 8221   3.788   3.426   3.193
 2738SOL    HW1 8222   3.742   3.508   3.159
 2738SOL    HW2 8223   3.886   3.445   3.202
 2739SOL     OW 8224   4.091   2.962   2.363
 2739SOL    HW1 8225   4.084   3.045   2.307
 2739SOL    HW2 8226   4.095   2.882   2.303
 2740SOL     OW 8227   4.290   2.399   2.727
 2740SOL    HW1 8228   4.302   2.465   2.653
 2740SOL    HW2 8229   4.336   2.433   2.810
 2741SOL     OW 8230   4.078   3.372   3.191
 2741SOL    HW1 8231   4.057   3.328   3.104
 2741SOL    HW2 8232   4.175   3.398   3.194
 2742SOL     OW 8233   4.126   2.613   3.460
 2742SOL    HW1 8234   4.194   2.668   3.413
 2742SOL    HW2 8235   4.166   2.525   3.487
 2743SOL     OW 8236   4.228   1.912   3.602
 2743SOL    HW1 8237   4.186   1.855   3.532
 2743SOL    HW2 8238   4.162   1.981   3.634
 2744SOL     OW 8239   4.297   2.732   2.891
 2744SOL    HW1 8240   4.341   2.821   2.882
 2744SOL    HW2 8241   4.234   2.732   2.968
 2745SOL     OW 8242   4.031   2.075   3.093
 2745SOL    HW1 8243   4.008   2.112   3.183
 2745SOL    HW2 8244   4.001   1.980   3.087
 2746SOL     OW 8245   3.761   3.172   3.144
 2746SOL    HW1 8246   3.814   3.123   3.212
 2746SOL    HW2 8247   3.783   3.270   3.149
 2747SOL     OW 8248   4.031   1.925   2.480
 2747SOL    HW1 8249   4.020   2.019   2.513
 2747SOL    HW2 8250   4.026   1.862   2.557
 2748SOL     OW 8251   4.074   2.760   3.666
 2748SOL    HW1 8252   4.150   2.804   3.714
 2748SOL    HW2 8253   4.109   2.713   3.584
 2749SOL     OW 8254   4.043   2.672   2.811
 2749SOL    HW1 8255   4.136   2.708   2.816
 2749SOL    HW2 8256   4.037   2.587   2.863
 2750SOL     OW 8257   4.063   2.371   2.868
 2750SOL    HW1 8258   4.011   2.288   2.851
 2750SOL    HW2 8259   4.140   2.376   2.804
 2751SOL     OW 8260   3.732   3.188   2.062
 2751SOL    HW1 8261   3.639   3.209   2.031
 2751SOL    HW2 8262   3.742   3.089   2.075
 2752SOL     OW 8263   3.812   3.663   2.789
 2752SOL    HW1 8264   3.770   3.577   2.762
 2752SOL    HW2 8265   3.906   3.666   2.755
 2753SOL     OW 8266   4.228   3.430   2.772
 2753SOL    HW1 8267   4.294   3.504   2.781
 2753SOL    HW2 8268   4.272   3.351   2.730
 2754SOL     OW 8269   3.764   2.406   2.976
 2754SOL    HW1 8270   3.849   2.373   2.935
 2754SOL    HW2 8271   3.777   2.421   3.074
 2755SOL     OW 8272   3.913   2.382   3.584
 2755SOL    HW1 8273   3.972   2.342   3.514
 2755SOL    HW2 8274   3.855   2.453   3.543
 2756SOL     OW 8275   4.539   2.434   2.187
 2756SOL    HW1 8276   4.546   2.345   2.141
 2756SOL    HW2 8277   4.445   2.468   2.179
 2757SOL     OW 8278   3.976   3.426   3.606
 2757SOL    HW1 8279   3.946   3.483   3.682
 2757SOL    HW2 8280   3.969   3.329   3.632
 2758SOL     OW 8281   4.197   2.362   2.053
 2758SOL    HW1 8282   4.258   2.442   2.057
 2758SOL    HW2 8283   4.102   2.393   2.060
 2759SOL     OW 8284   3.883   2.999   3.328
 2759SOL    HW1 8285   3.905   2.938   3.404
 2759SOL    HW2 8286   3.893   2.950   3.242
 2760SOL     OW 8287   3.807   3.120   2.884
 2760SOL    HW1 8288   3.802   3.119   2.984
 2760SOL    HW2 8289   3.724   3.079   2.846
 2761SOL     OW 8290   4.412   3.524   3.578
 2761SOL    HW1 8291   4.356   3.605   3.587
 2761SOL    HW2 8292   4.464   3.528   3.492
 2762SOL     OW 8293   3.854   3.656   3.713
 2762SOL    HW1 8294   3.813   3.582   3.766
 2762SOL    HW2 8295   3.918   3.707   3.771
 2763SOL     OW 8296   3.987   2.188   2.582
 2763SOL    HW1 8297   3.908   2.239   2.548
 2763SOL    HW2 8298   3.978   2.173   2.680
 2764SOL     OW 8299   4.096   3.150   3.352
 2764SOL    HW1 8300   4.083   3.243   3.318
 2764SOL    HW2 8301   4.012   3.098   3.339
 2765SOL     OW 8302   4.314   3.349   2.353
 2765SOL    HW1 8303   4.356   3.291   2.283
 2765SOL    HW2 8304   4.270   3.428   2.309
 2766SOL     OW 8305   3.979   3.210   2.152
 2766SOL    HW1 8306   3.883   3.211   2.125
 2766SOL    HW2 8307   3.991   3.263   2.236
 2767SOL     OW 8308   3.829   2.875   3.588
 2767SOL    HW1 8309   3.752   2.842   3.642
 2767SOL    HW2 8310   3.914   2.845   3.630
 2768SOL     OW 8311   4.396   2.065   3.351
 2768SOL    HW1 8312   4.486   2.049   3.311
 2768SOL    HW2 8313   4.404   2.070   3.450
 2769SOL     OW 8314   3.799   2.207   1.895
 2769SOL    HW1 8315   3.707   2.179   1.866
 2769SOL    HW2 8316   3.830   2.284   1.839
 2770SOL     OW 8317   3.796   2.028   2.180
 2770SOL    HW1 8318   3.779   2.111   2.126
 2770SOL    HW2 8319   3.886   1.991   2.158
 2771SOL     OW 8320   4.337   2.704   3.293
 2771SOL    HW1 8321   4.393   2.785   3.276
 2771SOL    HW2 8322   4.396   2.624   3.296
 2772SOL     OW 8323   4.114   3.603   3.422
 2772SOL    HW1 8324   4.023   3.644   3.420
 2772SOL    HW2 8325   4.107   3.509   3.454
 2773SOL     OW 8326   4.318   2.607   2.514
 2773SOL    HW1 8327   4.368   2.692   2.495
 2773SOL    HW2 8328   4.230   2.609   2.466
 2774SOL     OW 8329   3.945   3.176   3.706
 2774SOL    HW1 8330   3.880   3.103   3.685
 2774SOL    HW2 8331   3.949   3.190   3.804
 2775SOL     OW 8332   3.803   3.102   2.515
 2775SOL    HW1 8333   3.802   3.055   2.603
 2775SOL    HW2 8334   3.885   3.074   2.464
 2776SOL     OW 8335   4.396   3.253   3.486
 2776SOL    HW1 8336   4.318   3.203   3.524
 2776SOL    HW2 8337   4.393   3.348   3.517
 2777SOL     OW 8338   4.152   2.286   2.382
 2777SOL    HW1 8339   4.182   2.214   2.320
 2777SOL    HW2 8340   4.113   2.246   2.465
 2778SOL     OW 8341   4.041   2.409   3.142
 2778SOL    HW1 8342   4.079   2.350   3.214
 2778SOL    HW2 8343   4.081   2.383   3.054
 2779SOL     OW 8344   3.763   2.939   2.162
 2779SOL    HW1 8345   3.862   2.928   2.153
 2779SOL    HW2 8346   3.723   2.853   2.194
 2780SOL     OW 8347   3.954   2.490   3.837
 2780SOL    HW1 8348   3.861   2.488   3.874
 2780SOL    HW2 8349   3.955   2.451   3.745
 2781SOL     OW 8350   3.949   2.137   4.720
 2781SOL    HW1 8351   3.984   2.120   4.812
 2781SOL    HW2 8352   3.861   2.092   4.708
 2782SOL     OW 8353   3.955   3.575   4.207
 2782SOL    HW1 8354   3.989   3.652   4.261
 2782SOL    HW2 8355   3.999   3.575   4.117
 2783SOL     OW 8356   3.954   3.296   4.262
 2783SOL    HW1 8357   3.928   3.392   4.262
 2783SOL    HW2 8358   3.883   3.242   4.307
 2784SOL     OW 8359   4.330   2.826   3.847
 2784SOL    HW1 8360   4.337   2.910   3.793
 2784SOL    HW2 8361   4.376   2.839   3.935
 2785SOL     OW 8362   3.846   2.505   4.287
 2785SOL    HW1 8363   3.801   2.417   4.304
 2785SOL    HW2 8364   3.845   2.559   4.371
 2786SOL     OW 8365   3.751   3.458   3.841
 2786SOL    HW1 8366   3.732   3.362   3.862
 2786SOL    HW2 8367   3.718   3.516   3.916
 2787SOL     OW 8368   4.337   3.227   4.450
 2787SOL    HW1 8369   4.288   3.140   4.459
 2787SOL    HW2 8370   4.314   3.270   4.363
 2788SOL     OW 8371   4.533   1.866   4.226
 2788SOL    HW1 8372   4.573   1.957   4.217
 2788SOL    HW2 8373   4.433   1.874   4.232
 2789SOL     OW 8374   4.322   2.591   3.994
 2789SOL    HW1 8375   4.346   2.660   3.926
 2789SOL    HW2 8376   4.244   2.624   4.048
 2790SOL     OW 8377   3.800   2.673   4.513
 2790SOL    HW1 8378   3.899   2.661   4.522
 2790SOL    HW2 8379   3.776   2.768   4.534
 2791SOL     OW 8380   4.075   3.663   4.577
 2791SOL    HW1 8381   4.125   3.577   4.583
 2791SOL    HW2 8382   4.140   3.740   4.574
 2792SOL     OW 8383   4.045   2.805   3.966
 2792SOL    HW1 8384   4.127   2.844   3.924
 2792SOL    HW2 8385   4.018   2.723   3.917
 2793SOL     OW 8386   4.188   3.605   4.047
 2793SOL    HW1 8387   4.221   3.644   4.133
 2793SOL    HW2 8388   4.264   3.598   3.982
 2794SOL     OW 8389   4.106   2.562   4.204
 2794SOL    HW1 8390   4.151   2.472   4.201
 2794SOL    HW2 8391   4.012   2.551   4.237
 2795SOL     OW 8392   4.338   1.984   3.841
 2795SOL    HW1 8393   4.436   1.962   3.848
 2795SOL    HW2 8394   4.307   1.967   3.748
 2796SOL     OW 8395   4.263   1.926   4.236
 2796SOL    HW1 8396   4.182   1.927   4.294
 2796SOL    HW2 8397   4.266   2.009   4.181
 2797SOL     OW 8398   4.021   1.897   3.895
 2797SOL    HW1 8399   4.070   1.981   3.874
 2797SOL    HW2 8400   4.083   1.832   3.940
 2798SOL     OW 8401   4.659   2.098   4.204
 2798SOL    HW1 8402   4.611   2.139   4.126
 2798SOL    HW2 8403   4.758   2.096   4.185
 2799SOL     OW 8404   4.183   3.014   4.465
 2799SOL    HW1 8405   4.112   2.987   4.530
 2799SOL    HW2 8406   4.157   2.986   4.372
 2800SOL     OW 8407   4.212   3.247   3.898
 2800SOL    HW1 8408   4.125   3.232   3.945
 2800SOL    HW2 8409   4.195   3.273   3.803
 2801SOL     OW 8410   4.251   2.118   4.052
 2801SOL    HW1 8411   4.278   2.059   3.977
 2801SOL    HW2 8412   4.251   2.213   4.021
 2802SOL     OW 8413   4.091   2.962   4.225
 2802SOL    HW1 8414   4.084   3.045   4.169
 2802SOL    HW2 8415   4.095   2.882   4.165
 2803SOL     OW 8416   4.031   1.925   4.342
 2803SOL    HW1 8417   4.020   2.019   4.375
 2803SOL    HW2 8418   4.026   1.862   4.419
 2804SOL     OW 8419   3.732   3.188   3.924
 2804SOL    HW1 8420   3.639   3.209   3.893
 2804SOL    HW2 8421   3.742   3.089   3.937
 2805SOL     OW 8422   4.539   2.434   4.049
 2805SOL    HW1 8423   4.546   2.345   4.003
 2805SOL    HW2 8424   4.445   2.468   4.041
 2806SOL     OW 8425   4.197   2.362   3.915
 2806SOL    HW1 8426   4.258   2.442   3.919
 2806SOL    HW2 8427   4.102   2.393   3.922
 2807SOL     OW 8428   4.314   3.349   4.215
 2807SOL    HW1 8429   4.356   3.291   4.145
 2807SOL    HW2 8430   4.270   3.428   4.171
 2808SOL     OW 8431   3.979   3.210   4.014
 2808SOL    HW1 8432   3.883   3.211   3.987
 2808SOL    HW2 8433   3.991   3.263   4.098
 2809SOL     OW 8434   3.799   2.207   3.757
 2809SOL    HW1 8435   3.707   2.179   3.728
 2809SOL    HW2 8436   3.830   2.284   3.701
 2810SOL     OW 8437   3.796   2.028   4.042
 2810SOL    HW1 8438   3.779   2.111   3.988
 2810SOL    HW2 8439   3.886   1.991   4.020
 2811SOL     OW 8440   4.318   2.607   4.376
 2811SOL    HW1 8441   4.368   2.692   4.357
 2811SOL    HW2 8442   4.230   2.609   4.328
 2812SOL     OW 8443   3.803   3.102   4.377
 2812SOL    HW1 8444   3.802   3.055   4.465
 2812SOL    HW2 8445   3.885   3.074   4.326
 2813SOL     OW 8446   4.152   2.286   4.244
 2813SOL    HW1 8447   4.182   2.214   4.182
 2813SOL    HW2 8448   4.113   2.246   4.327
 2814SOL     OW 8449   3.763   2.939   4.024
 2814SOL    HW1 8450   3.862   2.928   4.015
 2814SOL    HW2 8451   3.723   2.853   4.056
 2815SOL     OW 8452   3.949   3.999   0.996
 2815SOL    HW1 8453   3.984   3.982   1.088
 2815SOL    HW2 8454   3.861   3.954   0.984
 2816SOL     OW 8455   3.743   4.092   0.647
 2816SOL    HW1 8456   3.661   4.135   0.686
 2816SOL    HW2 8457   3.715   4.019   0.584
 2817SOL     OW 8458   4.574   4.522   1.823
 2817SOL    HW1 8459   4.570   4.598   1.888
 2817SOL    HW2 8460   4.596   4.558   1.732
 2818SOL     OW 8461   4.162   4.116   1.499
 2818SOL    HW1 8462   4.244   4.060   1.508
 2818SOL    HW2 8463   4.081   4.058   1.503
 2819SOL     OW 8464   3.846   4.367   0.563
 2819SOL    HW1 8465   3.801   4.279   0.580
 2819SOL    HW2 8466   3.845   4.421   0.647
 2820SOL     OW 8467   3.837   4.461   1.597
 2820SOL    HW1 8468   3.925   4.448   1.642
 2820SOL    HW2 8469   3.824   4.558   1.575
 2821SOL     OW 8470   4.533   3.728   0.502
 2821SOL    HW1 8471   4.573   3.819   0.493
 2821SOL    HW2 8472   4.433   3.736   0.508
 2822SOL     OW 8473   4.041   3.975   1.801
 2822SOL    HW1 8474   4.112   4.046   1.807
 2822SOL    HW2 8475   3.953   4.014   1.829
 2823SOL     OW 8476   4.322   4.453   0.270
 2823SOL    HW1 8477   4.346   4.522   0.202
 2823SOL    HW2 8478   4.244   4.486   0.324
 2824SOL     OW 8479   4.274   3.920   0.885
 2824SOL    HW1 8480   4.269   3.915   0.985
 2824SOL    HW2 8481   4.276   4.016   0.856
 2825SOL     OW 8482   3.926   4.009   1.498
 2825SOL    HW1 8483   3.846   4.069   1.485
 2825SOL    HW2 8484   3.916   3.960   1.584
 2826SOL     OW 8485   4.338   3.846   0.117
 2826SOL    HW1 8486   4.436   3.824   0.124
 2826SOL    HW2 8487   4.307   3.829   0.024
 2827SOL     OW 8488   4.263   3.788   0.512
 2827SOL    HW1 8489   4.182   3.789   0.570
 2827SOL    HW2 8490   4.266   3.871   0.457
 2828SOL     OW 8491   4.659   3.960   0.480
 2828SOL    HW1 8492   4.611   4.001   0.402
 2828SOL    HW2 8493   4.758   3.958   0.461
 2829SOL     OW 8494   3.802   4.280   1.386
 2829SOL    HW1 8495   3.894   4.279   1.345
 2829SOL    HW2 8496   3.796   4.354   1.453
 2830SOL     OW 8497   4.285   3.946   1.147
 2830SOL    HW1 8498   4.323   3.862   1.184
 2830SOL    HW2 8499   4.197   3.965   1.191
 2831SOL     OW 8500   4.251   3.980   0.328
 2831SOL    HW1 8501   4.278   3.921   0.253
 2831SOL    HW2 8502   4.251   4.075   0.297
 2832SOL     OW 8503   4.290   4.261   0.865
 2832SOL    HW1 8504   4.302   4.327   0.791
 2832SOL    HW2 8505   4.336   4.295   0.948
 2833SOL     OW 8506   4.228   3.774   1.740
 2833SOL    HW1 8507   4.186   3.717   1.670
 2833SOL    HW2 8508   4.162   3.843   1.772
 2834SOL     OW 8509   4.031   3.937   1.231
 2834SOL    HW1 8510   4.008   3.974   1.321
 2834SOL    HW2 8511   4.001   3.842   1.225
 2835SOL     OW 8512   4.031   3.787   0.618
 2835SOL    HW1 8513   4.020   3.881   0.651
 2835SOL    HW2 8514   4.026   3.724   0.695
 2836SOL     OW 8515   4.043   4.534   0.949
 2836SOL    HW1 8516   4.136   4.570   0.954
 2836SOL    HW2 8517   4.037   4.449   1.001
 2837SOL     OW 8518   4.063   4.233   1.006
 2837SOL    HW1 8519   4.011   4.150   0.989
 2837SOL    HW2 8520   4.140   4.238   0.942
 2838SOL     OW 8521   3.764   4.268   1.114
 2838SOL    HW1 8522   3.849   4.235   1.073
 2838SOL    HW2 8523   3.777   4.283   1.212
 2839SOL     OW 8524   3.913   4.244   1.722
 2839SOL    HW1 8525   3.972   4.204   1.652
 2839SOL    HW2 8526   3.855   4.315   1.681
 2840SOL     OW 8527   4.539   4.296   0.325
 2840SOL    HW1 8528   4.546   4.207   0.279
 2840SOL    HW2 8529   4.445   4.330   0.317
 2841SOL     OW 8530   4.197   4.224   0.191
 2841SOL    HW1 8531   4.258   4.304   0.195
 2841SOL    HW2 8532   4.102   4.255   0.198
 2842SOL     OW 8533   4.627   3.810   0.133
 2842SOL    HW1 8534   4.678   3.811   0.047
 2842SOL    HW2 8535   4.683   3.768   0.204
 2843SOL     OW 8536   3.987   4.050   0.720
 2843SOL    HW1 8537   3.908   4.101   0.686
 2843SOL    HW2 8538   3.978   4.035   0.818
 2844SOL     OW 8539   4.396   3.927   1.489
 2844SOL    HW1 8540   4.486   3.911   1.449
 2844SOL    HW2 8541   4.404   3.932   1.588
 2845SOL     OW 8542   3.799   4.069   0.033
 2845SOL    HW1 8543   3.707   4.041   0.004
 2845SOL    HW2 8544   3.830   4.146  -0.023
 2846SOL     OW 8545   4.152   4.148   0.520
 2846SOL    HW1 8546   4.182   4.076   0.458
 2846SOL    HW2 8547   4.113   4.108   0.603
 2847SOL     OW 8548   4.041   4.271   1.280
 2847SOL    HW1 8549   4.079   4.212   1.352
 2847SOL    HW2 8550   4.081   4.245   1.192
 2848SOL     OW 8551   3.949   3.999   2.858
 2848SOL    HW1 8552   3.984   3.982   2.950
 2848SOL    HW2 8553   3.861   3.954   2.846
 2849SOL     OW 8554   3.743   4.092   2.509
 2849SOL    HW1 8555   3.661   4.135   2.548
 2849SOL    HW2 8556   3.715   4.019   2.446
 2850SOL     OW 8557   4.574   4.522   3.685
 2850SOL    HW1 8558   4.570   4.598   3.750
 2850SOL    HW2 8559   4.596   4.558   3.594
 2851SOL     OW 8560   4.162   4.116   3.361
 2851SOL    HW1 8561   4.244   4.060   3.370
 2851SOL    HW2 8562   4.081   4.058   3.365
 2852SOL     OW 8563   3.846   4.367   2.425
 2852SOL    HW1 8564   3.801   4.279   2.442
 2852SOL    HW2 8565   3.845   4.421   2.509
 2853SOL     OW 8566   3.837   4.461   3.459
 2853SOL    HW1 8567   3.925   4.448   3.504
 2853SOL    HW2 8568   3.824   4.558   3.437
 2854SOL     OW 8569   4.533   3.728   2.364
 2854SOL    HW1 8570   4.573   3.819   2.355
 2854SOL    HW2 8571   4.433   3.736   2.370
 2855SOL     OW 8572   4.041   3.975   3.663
 2855SOL    HW1 8573   4.112   4.046   3.669
 2855SOL    HW2 8574   3.953   4.014   3.691
 2856SOL     OW 8575   4.274   3.920   2.747
 2856SOL    HW1 8576   4.269   3.915   2.847
 2856SOL    HW2 8577   4.276   4.016   2.718
 2857SOL     OW 8578   3.926   4.009   3.360
 2857SOL    HW1 8579   3.846   4.069   3.347
 2857SOL    HW2 8580   3.916   3.960   3.446
 2858SOL     OW 8581   4.338   3.846   1.979
 2858SOL    HW1 8582   4.436   3.824   1.986
 2858SOL    HW2 8583   4.307   3.829   1.886
 2859SOL     OW 8584   4.263   3.788   2.374
 2859SOL    HW1 8585   4.182   3.789   2.432
 2859SOL    HW2 8586   4.266   3.871   2.319
 2860SOL     OW 8587   4.021   3.759   2.033
 2860SOL    HW1 8588   4.070   3.843   2.012
 2860SOL    HW2 8589   4.083   3.694   2.078
 2861SOL     OW 8590   4.659   3.960   2.342
 2861SOL    HW1 8591   4.611   4.001   2.264
 2861SOL    HW2 8592   4.758   3.958   2.323
 2862SOL     OW 8593   3.802   4.280   3.248
 2862SOL    HW1 8594   3.894   4.279   3.207
 2862SOL    HW2 8595   3.796   4.354   3.315
 2863SOL     OW 8596   4.285   3.946   3.009
 2863SOL    HW1 8597   4.323   3.862   3.046
 2863SOL    HW2 8598   4.197   3.965   3.053
 2864SOL     OW 8599   4.251   3.980   2.190
 2864SOL    HW1 8600   4.278   3.921   2.115
 2864SOL    HW2 8601   4.251   4.075   2.159
 2865SOL     OW 8602   4.290   4.261   2.727
 2865SOL    HW1 8603   4.302   4.327   2.653
 2865SOL    HW2 8604   4.336   4.295   2.810
 2866SOL     OW 8605   4.228   3.774   3.602
 2866SOL    HW1 8606   4.186   3.717   3.532
 2866SOL    HW2 8607   4.162   3.843   3.634
 2867SOL     OW 8608   4.031   3.937   3.093
 2867SOL    HW1 8609   4.008   3.974   3.183
 2867SOL    HW2 8610   4.001   3.842   3.087
 2868SOL     OW 8611   4.031   3.787   2.480
 2868SOL    HW1 8612   4.020   3.881   2.513
 2868SOL    HW2 8613   4.026   3.724   2.557
 2869SOL     OW 8614   4.043   4.534   2.811
 2869SOL    HW1 8615   4.136   4.570   2.816
 2869SOL    HW2 8616   4.037   4.449   2.863
 2870SOL     OW 8617   4.063   4.233   2.868
 2870SOL    HW1 8618   4.011   4.150   2.851
 2870SOL    HW2 8619   4.140   4.238   2.804
 2871SOL     OW 8620   3.764   4.268   2.976
 2871SOL    HW1 8621   3.849   4.235   2.935
 2871SOL    HW2 8622   3.777   4.283   3.074
 2872SOL     OW 8623   3.913   4.244   3.584
 2872SOL    HW1 8624   3.972   4.204   3.514
 2872SOL    HW2 8625   3.855   4.315   3.543
 2873SOL     OW 8626   4.539   4.296   2.187
 2873SOL    HW1 8627   4.546   4.207   2.141
 2873SOL    HW2 8628   4.445   4.330   2.179
 2874SOL     OW 8629   4.197   4.224   2.053
 2874SOL    HW1 8630   4.258   4.304   2.057
 2874SOL    HW2 8631   4.102   4.255   2.060
 2875SOL     OW 8632   3.987   4.050   2.582
 2875SOL    HW1 8633   3.908   4.101   2.548
 2875SOL    HW2 8634   3.978   4.035   2.680
 2876SOL     OW 8635   4.396   3.927   3.351
 2876SOL    HW1 8636   4.486   3.911   3.311
 2876SOL    HW2 8637   4.404   3.932   3.450
 2877SOL     OW 8638   3.799   4.069   1.895
 2877SOL    HW1 8639   3.707   4.041   1.866
 2877SOL    HW2 8640   3.830   4.146   1.839
 2878SOL     OW 8641   3.796   3.890   2.180
 2878SOL    HW1 8642   3.779   3.973   2.126
 2878SOL    HW2 8643   3.886   3.853   2.158
 2879SOL     OW 8644   4.152   4.148   2.382
 2879SOL    HW1 8645   4.182   4.076   2.320
 2879SOL    HW2 8646   4.113   4.108   2.465
 2880SOL     OW 8647   4.041   4.271   3.142
 2880SOL    HW1 8648   4.079   4.212   3.214
 2880SOL    HW2 8649   4.081   4.245   3.054
 2881SOL     OW 8650   3.949   3.999   4.720
 2881SOL    HW1 8651   3.984   3.982   4.812
 2881SOL    HW2 8652   3.861   3.954   4.708
 2882SOL     OW 8653   3.846   4.367   4.287
 2882SOL    HW1 8654   3.801   4.279   4.304
 2882SOL    HW2 8655   3.845   4.421   4.371
 2883SOL     OW 8656   4.533   3.728   4.226
 2883SOL    HW1 8657   4.573   3.819   4.217
 2883SOL    HW2 8658   4.433   3.736   4.232
 2884SOL     OW 8659   4.338   3.846   3.841
 2884SOL    HW1 8660   4.436   3.824   3.848
 2884SOL    HW2 8661   4.307   3.829   3.748
 2885SOL     OW 8662   4.263   3.788   4.236
 2885SOL    HW1 8663   4.182   3.789   4.294
 2885SOL    HW2 8664   4.266   3.871   4.181
 2886SOL     OW 8665   4.021   3.759   3.895
 2886SOL    HW1 8666   4.070   3.843   3.874
 2886SOL    HW2 8667   4.083   3.694   3.940
 2887SOL     OW 8668   4.659   3.960   4.204
 2887SOL    HW1 8669   4.611   4.001   4.126
 2887SOL    HW2 8670   4.758   3.958   4.185
 2888SOL     OW 8671   4.251   3.980   4.052
 2888SOL    HW1 8672   4.278   3.921   3.977
 2888SOL    HW2 8673   4.251   4.075   4.021
 2889SOL     OW 8674   4.031   3.787   4.342
 2889SOL    HW1 8675   4.020   3.881   4.375
 2889SOL    HW2 8676   4.026   3.724   4.419
 2890SOL     OW 8677   4.539   4.296   4.049
 2890SOL    HW1 8678   4.546   4.207   4.003
 2890SOL    HW2 8679   4.445   4.330   4.041
 2891SOL     OW 8680   4.197   4.224   3.915
 2891SOL    HW1 8681   4.258   4.304   3.919
 2891SOL    HW2 8682   4.102   4.255   3.922
 2892SOL     OW 8683   3.799   4.069   3.757
 2892SOL    HW1 8684   3.707   4.041   3.728
 2892SOL    HW2 8685   3.830   4.146   3.701
 2893SOL     OW 8686   3.796   3.890   4.042
 2893SOL    HW1 8687   3.779   3.973   3.988
 2893SOL    HW2 8688   3.886   3.853   4.020
 2894SOL     OW 8689   4.152   4.148   4.244
 2894SOL    HW1 8690   4.182   4.076   4.182
 2894SOL    HW2 8691   4.113   4.108   4.327
   4.45269   4.45269   4.45269
