mobley_3976574_GMX.gro created by acpype (v: 2023.10.27) on Wed May 20 23:51:51 2026
 22
    1  MOL   C1    1  -0.315   0.042   0.122
    1  MOL   C2    2  -0.186   0.074   0.080
    1  MOL   C3    3  -0.144  -0.158   0.027
    1  MOL   C4    4  -0.358  -0.091   0.116
    1  MOL   C5    5  -0.273  -0.191   0.069
    1  MOL   C6    6  -0.524  -0.250   0.151
    1  MOL   C7    7  -0.439  -0.349   0.104
    1  MOL   C8    8  -0.100  -0.026   0.033
    1  MOL   C9    9  -0.653  -0.282   0.193
    1  MOL  C10   10  -0.482  -0.482   0.098
    1  MOL  C11   11  -0.696  -0.415   0.188
    1  MOL  C12   12  -0.611  -0.514   0.140
    1  MOL   O1   13  -0.486  -0.118   0.159
    1  MOL   O2   14  -0.311  -0.322   0.062
    1  MOL  CL1   15   0.059   0.015  -0.019
    1  MOL  CL2   16  -0.757  -0.155   0.252
    1  MOL  CL3   17  -0.373  -0.603   0.039
    1  MOL  CL4   18  -0.857  -0.455   0.240
    1  MOL  CL5   19  -0.665  -0.680   0.133
    1  MOL   H1   20  -0.381   0.120   0.159
    1  MOL   H2   21  -0.153   0.178   0.085
    1  MOL   H3   22  -0.078  -0.236  -0.010
   18.32000    17.15000     5.41000
