1,2,3,4,7-pentachlorodibenzo-p-
    22
  -3.1490000   0.4150000   1.2200000  -1.8580000   0.7400000   0.8000000
  -1.4370000  -1.5820000   0.2690000  -3.5800000  -0.9100000   1.1630000
  -2.7270000  -1.9050000   0.6890000  -5.2390000  -2.4980000   1.5120000
  -4.3860000  -3.4940000   1.0380000  -1.0040000  -0.2570000   0.3260000
  -6.5290000  -2.8210000   1.9320000  -4.8170000  -4.8180000   0.9820000
  -6.9620000  -4.1460000   1.8750000  -6.1070000  -5.1430000   1.4010000
  -4.8560000  -1.1830000   1.5850000  -3.1090000  -3.2200000   0.6160000
   0.5870000   0.1500000  -0.1890000  -7.5650000  -1.5540000   2.5160000
  -3.7250000  -6.0320000   0.3860000  -8.5730000  -4.5510000   2.4000000
  -6.6460000  -6.7990000   1.3320000  -3.8080000   1.1960000   1.5880000
  -1.5310000   1.7760000   0.8480000  -0.7770000  -2.3640000  -0.0990000
