; mobley_3976574_GMX_OPLS.itp created by acpype (v: 2023.10.27) on Wed May 20 23:51:51 2026

; For OPLS atomtypes manual fine tuning
; AC_at:OPLS_at:OPLScode: Possible_Alternatives (see ffoplsaa.atp and ffoplsaanb.itp)
; ca:CA:opls_145: ['166', '501', '502']
; os:x:opls_x: []
; cl:x:opls_x: []
; ha:HA:opls_146: []

[ moleculetype ]
;name            nrexcl
 mobley_3976574   3

[ atoms ]
;   nr  type  resi  res  atom  cgnr     charge      mass       ; qtot   bond_type
     1 opls_145     1   MOL    C1    1    -0.166300     12.01100 ; qtot -0.166  CA  
     2 opls_145     1   MOL    C2    2    -0.119000     12.01100 ; qtot -0.285  CA  
     3 opls_145     1   MOL    C3    3    -0.171300     12.01100 ; qtot -0.457  CA  
     4 opls_145     1   MOL    C4    4     0.208700     12.01100 ; qtot -0.248  CA  
     5 opls_145     1   MOL    C5    5     0.216700     12.01100 ; qtot -0.031  CA  
     6 opls_145     1   MOL    C6    6     0.232700     12.01100 ; qtot  0.201  CA  
     7 opls_145     1   MOL    C7    7     0.232700     12.01100 ; qtot  0.434  CA  
     8 opls_145     1   MOL    C8    8     0.020400     12.01100 ; qtot  0.455  CA  
     9 opls_145     1   MOL    C9    9    -0.036900     12.01100 ; qtot  0.418  CA  
    10 opls_145     1   MOL   C10   10    -0.035900     12.01100 ; qtot  0.382  CA  
    11 opls_145     1   MOL   C11   11     0.021400     12.01100 ; qtot  0.403  CA  
    12 opls_145     1   MOL   C12   12     0.020400     12.01100 ; qtot  0.424  CA  
    13 opls_x     1   MOL    O1   13    -0.372800      0.00000 ; qtot  0.051  x   
    14 opls_x     1   MOL    O2   14    -0.371800      0.00000 ; qtot -0.321  x   
    15 opls_x     1   MOL   CL1   15    -0.074400      0.00000 ; qtot -0.395  x   
    16 opls_x     1   MOL   CL2   16    -0.021400      0.00000 ; qtot -0.417  x   
    17 opls_x     1   MOL   CL3   17    -0.021400      0.00000 ; qtot -0.438  x   
    18 opls_x     1   MOL   CL4   18    -0.029400      0.00000 ; qtot -0.468  x   
    19 opls_x     1   MOL   CL5   19    -0.029400      0.00000 ; qtot -0.497  x   
    20 opls_146     1   MOL    H1   20     0.165000      1.00800 ; qtot -0.332  HA  
    21 opls_146     1   MOL    H2   21     0.158000      1.00800 ; qtot -0.174  HA  
    22 opls_146     1   MOL    H3   22     0.174000      1.00800 ; qtot -0.000  HA  

[ bonds ]
;   ai     aj funct   r             k
     1      2   1 ;    1.3986e-01    2.9644e+05 ;     C1 - C2         CA - CA    
     1      4   1 ;    1.3986e-01    2.9644e+05 ;     C1 - C4         CA - CA    
     1     20   1 ;    1.0860e-01    3.0183e+05 ;     C1 - H1         CA - HA    
     2      8   1 ;    1.3986e-01    2.9644e+05 ;     C2 - C8         CA - CA    
     2     21   1 ;    1.0860e-01    3.0183e+05 ;     C2 - H2         CA - HA    
     3      5   1 ;    1.3986e-01    2.9644e+05 ;     C3 - C5         CA - CA    
     3      8   1 ;    1.3986e-01    2.9644e+05 ;     C3 - C8         CA - CA    
     3     22   1 ;    1.0860e-01    3.0183e+05 ;     C3 - H3         CA - HA    
     4      5   1 ;    1.3986e-01    2.9644e+05 ;     C4 - C5         CA - CA    
     4     13   1 ;    1.3688e-01    2.8731e+05 ;     C4 - O1         CA - x     
     5     14   1 ;    1.3688e-01    2.8731e+05 ;     C5 - O2         CA - x     
     6      7   1 ;    1.3986e-01    2.9644e+05 ;     C6 - C7         CA - CA    
     6      9   1 ;    1.3986e-01    2.9644e+05 ;     C6 - C9         CA - CA    
     6     13   1 ;    1.3688e-01    2.8731e+05 ;     C6 - O1         CA - x     
     7     10   1 ;    1.3986e-01    2.9644e+05 ;     C7 - C10        CA - CA    
     7     14   1 ;    1.3688e-01    2.8731e+05 ;     C7 - O2         CA - x     
     8     15   1 ;    1.7572e-01    1.5730e+05 ;     C8 - CL1        CA - x     
     9     11   1 ;    1.3986e-01    2.9644e+05 ;     C9 - C11        CA - CA    
     9     16   1 ;    1.7572e-01    1.5730e+05 ;     C9 - CL2        CA - x     
    10     12   1 ;    1.3986e-01    2.9644e+05 ;    C10 - C12        CA - CA    
    10     17   1 ;    1.7572e-01    1.5730e+05 ;    C10 - CL3        CA - x     
    11     12   1 ;    1.3986e-01    2.9644e+05 ;    C11 - C12        CA - CA    
    11     18   1 ;    1.7572e-01    1.5730e+05 ;    C11 - CL4        CA - x     
    12     19   1 ;    1.7572e-01    1.5730e+05 ;    C12 - CL5        CA - x     

[ pairs ]
;   ai     aj    funct
     1      3      1 ;     C1 - C3    
     1      6      1 ;     C1 - C6    
     1     14      1 ;     C1 - O2    
     1     15      1 ;     C1 - CL1   
     2      5      1 ;     C2 - C5    
     2     13      1 ;     C2 - O1    
     2     22      1 ;     C2 - H3    
     3      7      1 ;     C3 - C7    
     3     13      1 ;     C3 - O1    
     3     21      1 ;     C3 - H2    
     4      7      1 ;     C4 - C7    
     4      8      1 ;     C4 - C8    
     4      9      1 ;     C4 - C9    
     4     21      1 ;     C4 - H2    
     4     22      1 ;     C4 - H3    
     5      6      1 ;     C5 - C6    
     5     10      1 ;     C5 - C10   
     5     15      1 ;     C5 - CL1   
     6     12      1 ;     C6 - C12   
     6     17      1 ;     C6 - CL3   
     6     18      1 ;     C6 - CL4   
     7     11      1 ;     C7 - C11   
     7     16      1 ;     C7 - CL2   
     7     19      1 ;     C7 - CL5   
     8     14      1 ;     C8 - O2    
     9     10      1 ;     C9 - C10   
     9     14      1 ;     C9 - O2    
     9     19      1 ;     C9 - CL5   
    10     13      1 ;    C10 - O1    
    10     18      1 ;    C10 - CL4   
    11     13      1 ;    C11 - O1    
    11     17      1 ;    C11 - CL3   
    12     14      1 ;    C12 - O2    
    12     16      1 ;    C12 - CL2   
    13     14      1 ;     O1 - O2    
    13     16      1 ;     O1 - CL2   
    14     17      1 ;     O2 - CL3   
    14     22      1 ;     O2 - H3    
    15     21      1 ;    CL1 - H2    
    15     22      1 ;    CL1 - H3    
    16     18      1 ;    CL2 - CL4   
    17     19      1 ;    CL3 - CL5   
    18     19      1 ;    CL4 - CL5   
    20      5      1 ;     H1 - C5    
    20      8      1 ;     H1 - C8    
    20     13      1 ;     H1 - O1    
    20     21      1 ;     H1 - H2    

[ angles ]
;   ai     aj     ak    funct   theta         cth
     1      2      8      1 ;    1.2002e+02    5.3279e+02 ;     C1 - C2   - C8       CA -   CA - CA  
     1      2     21      1 ;    1.1988e+02    3.7572e+02 ;     C1 - C2   - H2       CA -   CA - HA  
     1      4      5      1 ;    1.2002e+02    5.3279e+02 ;     C1 - C4   - C5       CA -   CA - CA  
     1      4     13      1 ;    1.1911e+02    6.6107e+02 ;     C1 - C4   - O1       CA -   CA - x   
     2      1      4      1 ;    1.2002e+02    5.3279e+02 ;     C2 - C1   - C4       CA -   CA - CA  
     2      1     20      1 ;    1.1988e+02    3.7572e+02 ;     C2 - C1   - H1       CA -   CA - HA  
     2      8      3      1 ;    1.2002e+02    5.3279e+02 ;     C2 - C8   - C3       CA -   CA - CA  
     2      8     15      1 ;    1.1938e+02    5.3605e+02 ;     C2 - C8   - CL1      CA -   CA - x   
     3      5      4      1 ;    1.2002e+02    5.3279e+02 ;     C3 - C5   - C4       CA -   CA - CA  
     3      5     14      1 ;    1.1911e+02    6.6107e+02 ;     C3 - C5   - O2       CA -   CA - x   
     3      8     15      1 ;    1.1938e+02    5.3605e+02 ;     C3 - C8   - CL1      CA -   CA - x   
     4      1     20      1 ;    1.1988e+02    3.7572e+02 ;     C4 - C1   - H1       CA -   CA - HA  
     4      5     14      1 ;    1.1911e+02    6.6107e+02 ;     C4 - C5   - O2       CA -   CA - x   
     4     13      6      1 ;    1.1987e+02    7.5036e+02 ;     C4 - O1   - C6       CA -    x - CA  
     5      3      8      1 ;    1.2002e+02    5.3279e+02 ;     C5 - C3   - C8       CA -   CA - CA  
     5      3     22      1 ;    1.1988e+02    3.7572e+02 ;     C5 - C3   - H3       CA -   CA - HA  
     5      4     13      1 ;    1.1911e+02    6.6107e+02 ;     C5 - C4   - O1       CA -   CA - x   
     5     14      7      1 ;    1.1987e+02    7.5036e+02 ;     C5 - O2   - C7       CA -    x - CA  
     6      7     10      1 ;    1.2002e+02    5.3279e+02 ;     C6 - C7   - C10      CA -   CA - CA  
     6      7     14      1 ;    1.1911e+02    6.6107e+02 ;     C6 - C7   - O2       CA -   CA - x   
     6      9     11      1 ;    1.2002e+02    5.3279e+02 ;     C6 - C9   - C11      CA -   CA - CA  
     6      9     16      1 ;    1.1938e+02    5.3605e+02 ;     C6 - C9   - CL2      CA -   CA - x   
     7      6      9      1 ;    1.2002e+02    5.3279e+02 ;     C7 - C6   - C9       CA -   CA - CA  
     7      6     13      1 ;    1.1911e+02    6.6107e+02 ;     C7 - C6   - O1       CA -   CA - x   
     7     10     12      1 ;    1.2002e+02    5.3279e+02 ;     C7 - C10  - C12      CA -   CA - CA  
     7     10     17      1 ;    1.1938e+02    5.3605e+02 ;     C7 - C10  - CL3      CA -   CA - x   
     8      2     21      1 ;    1.1988e+02    3.7572e+02 ;     C8 - C2   - H2       CA -   CA - HA  
     8      3     22      1 ;    1.1988e+02    3.7572e+02 ;     C8 - C3   - H3       CA -   CA - HA  
     9      6     13      1 ;    1.1911e+02    6.6107e+02 ;     C9 - C6   - O1       CA -   CA - x   
     9     11     12      1 ;    1.2002e+02    5.3279e+02 ;     C9 - C11  - C12      CA -   CA - CA  
     9     11     18      1 ;    1.1938e+02    5.3605e+02 ;     C9 - C11  - CL4      CA -   CA - x   
    10      7     14      1 ;    1.1911e+02    6.6107e+02 ;    C10 - C7   - O2       CA -   CA - x   
    10     12     11      1 ;    1.2002e+02    5.3279e+02 ;    C10 - C12  - C11      CA -   CA - CA  
    10     12     19      1 ;    1.1938e+02    5.3605e+02 ;    C10 - C12  - CL5      CA -   CA - x   
    11      9     16      1 ;    1.1938e+02    5.3605e+02 ;    C11 - C9   - CL2      CA -   CA - x   
    11     12     19      1 ;    1.1938e+02    5.3605e+02 ;    C11 - C12  - CL5      CA -   CA - x   
    12     10     17      1 ;    1.1938e+02    5.3605e+02 ;    C12 - C10  - CL3      CA -   CA - x   
    12     11     18      1 ;    1.1938e+02    5.3605e+02 ;    C12 - C11  - CL4      CA -   CA - x   

[ dihedrals ] ; propers
; for gromacs 4.5 or higher, using funct 9
;    i      j      k      l   func   phase     kd      pn
     1      2      8      3      9 ;   180.00  15.16700   2 ;     C1-    C2-    C8-    C3
     1      2      8     15      9 ;   180.00  15.16700   2 ;     C1-    C2-    C8-   CL1
     1      4      5      3      9 ;   180.00  15.16700   2 ;     C1-    C4-    C5-    C3
     1      4      5     14      9 ;   180.00  15.16700   2 ;     C1-    C4-    C5-    O2
     1      4     13      6      9 ;   180.00   3.76560   2 ;     C1-    C4-    O1-    C6
     2      1      4      5      9 ;   180.00  15.16700   2 ;     C2-    C1-    C4-    C5
     2      1      4     13      9 ;   180.00  15.16700   2 ;     C2-    C1-    C4-    O1
     2      8      3      5      9 ;   180.00  15.16700   2 ;     C2-    C8-    C3-    C5
     2      8      3     22      9 ;   180.00  15.16700   2 ;     C2-    C8-    C3-    H3
     3      5      4     13      9 ;   180.00  15.16700   2 ;     C3-    C5-    C4-    O1
     3      5     14      7      9 ;   180.00   3.76560   2 ;     C3-    C5-    O2-    C7
     3      8      2     21      9 ;   180.00  15.16700   2 ;     C3-    C8-    C2-    H2
     4      1      2      8      9 ;   180.00  15.16700   2 ;     C4-    C1-    C2-    C8
     4      1      2     21      9 ;   180.00  15.16700   2 ;     C4-    C1-    C2-    H2
     4      5      3      8      9 ;   180.00  15.16700   2 ;     C4-    C5-    C3-    C8
     4      5      3     22      9 ;   180.00  15.16700   2 ;     C4-    C5-    C3-    H3
     4      5     14      7      9 ;   180.00   3.76560   2 ;     C4-    C5-    O2-    C7
     4     13      6      7      9 ;   180.00   3.76560   2 ;     C4-    O1-    C6-    C7
     4     13      6      9      9 ;   180.00   3.76560   2 ;     C4-    O1-    C6-    C9
     5      3      8     15      9 ;   180.00  15.16700   2 ;     C5-    C3-    C8-   CL1
     5      4     13      6      9 ;   180.00   3.76560   2 ;     C5-    C4-    O1-    C6
     5     14      7      6      9 ;   180.00   3.76560   2 ;     C5-    O2-    C7-    C6
     5     14      7     10      9 ;   180.00   3.76560   2 ;     C5-    O2-    C7-   C10
     6      7     10     12      9 ;   180.00  15.16700   2 ;     C6-    C7-   C10-   C12
     6      7     10     17      9 ;   180.00  15.16700   2 ;     C6-    C7-   C10-   CL3
     6      9     11     12      9 ;   180.00  15.16700   2 ;     C6-    C9-   C11-   C12
     6      9     11     18      9 ;   180.00  15.16700   2 ;     C6-    C9-   C11-   CL4
     7      6      9     11      9 ;   180.00  15.16700   2 ;     C7-    C6-    C9-   C11
     7      6      9     16      9 ;   180.00  15.16700   2 ;     C7-    C6-    C9-   CL2
     7     10     12     11      9 ;   180.00  15.16700   2 ;     C7-   C10-   C12-   C11
     7     10     12     19      9 ;   180.00  15.16700   2 ;     C7-   C10-   C12-   CL5
     8      3      5     14      9 ;   180.00  15.16700   2 ;     C8-    C3-    C5-    O2
     9      6      7     10      9 ;   180.00  15.16700   2 ;     C9-    C6-    C7-   C10
     9      6      7     14      9 ;   180.00  15.16700   2 ;     C9-    C6-    C7-    O2
     9     11     12     10      9 ;   180.00  15.16700   2 ;     C9-   C11-   C12-   C10
     9     11     12     19      9 ;   180.00  15.16700   2 ;     C9-   C11-   C12-   CL5
    10      7      6     13      9 ;   180.00  15.16700   2 ;    C10-    C7-    C6-    O1
    10     12     11     18      9 ;   180.00  15.16700   2 ;    C10-   C12-   C11-   CL4
    11      9      6     13      9 ;   180.00  15.16700   2 ;    C11-    C9-    C6-    O1
    11     12     10     17      9 ;   180.00  15.16700   2 ;    C11-   C12-   C10-   CL3
    12     10      7     14      9 ;   180.00  15.16700   2 ;    C12-   C10-    C7-    O2
    12     11      9     16      9 ;   180.00  15.16700   2 ;    C12-   C11-    C9-   CL2
    13      4      5     14      9 ;   180.00  15.16700   2 ;     O1-    C4-    C5-    O2
    13      6      7     14      9 ;   180.00  15.16700   2 ;     O1-    C6-    C7-    O2
    13      6      9     16      9 ;   180.00  15.16700   2 ;     O1-    C6-    C9-   CL2
    14      5      3     22      9 ;   180.00  15.16700   2 ;     O2-    C5-    C3-    H3
    14      7     10     17      9 ;   180.00  15.16700   2 ;     O2-    C7-   C10-   CL3
    15      8      2     21      9 ;   180.00  15.16700   2 ;    CL1-    C8-    C2-    H2
    15      8      3     22      9 ;   180.00  15.16700   2 ;    CL1-    C8-    C3-    H3
    16      9     11     18      9 ;   180.00  15.16700   2 ;    CL2-    C9-   C11-   CL4
    17     10     12     19      9 ;   180.00  15.16700   2 ;    CL3-   C10-   C12-   CL5
    18     11     12     19      9 ;   180.00  15.16700   2 ;    CL4-   C11-   C12-   CL5
    20      1      2      8      9 ;   180.00  15.16700   2 ;     H1-    C1-    C2-    C8
    20      1      2     21      9 ;   180.00  15.16700   2 ;     H1-    C1-    C2-    H2
    20      1      4      5      9 ;   180.00  15.16700   2 ;     H1-    C1-    C4-    C5
    20      1      4     13      9 ;   180.00  15.16700   2 ;     H1-    C1-    C4-    O1

[ dihedrals ] ; impropers
; treated as propers in GROMACS to use correct AMBER analytical function
;    i      j      k      l   func   phase     kd      pn
     1      5      4     13      4 ;   180.00   4.60240   2 ;     C1-    C5-    C4-    O1
     1      8      2     21      4 ;   180.00   4.60240   2 ;     C1-    C8-    C2-    H2
     2      3      8     15      4 ;   180.00   4.60240   2 ;     C2-    C3-    C8-   CL1
     3      4      5     14      4 ;   180.00   4.60240   2 ;     C3-    C4-    C5-    O2
     5      8      3     22      4 ;   180.00   4.60240   2 ;     C5-    C8-    C3-    H3
     6     10      7     14      4 ;   180.00   4.60240   2 ;     C6-   C10-    C7-    O2
     6     11      9     16      4 ;   180.00   4.60240   2 ;     C6-   C11-    C9-   CL2
     7      9      6     13      4 ;   180.00   4.60240   2 ;     C7-    C9-    C6-    O1
     7     12     10     17      4 ;   180.00   4.60240   2 ;     C7-   C12-   C10-   CL3
     9     12     11     18      4 ;   180.00   4.60240   2 ;     C9-   C12-   C11-   CL4
    10     11     12     19      4 ;   180.00   4.60240   2 ;    C10-   C11-   C12-   CL5
    20      1      4      2      4 ;   180.00   4.60240   2 ;     H1-    C1-    C4-    C2
