%VERSION  VERSION_STAMP = V0001.000  DATE = 05/20/26  23:52:03                  
%FLAG TITLE                                                                     
%FORMAT(20a4)                                                                   
1,2,3,4,7-pentachlorodibenzo-p-                                                 
%FLAG POINTERS                                                                  
%FORMAT(10I8)                                                                   
      22       4       3      21       6      32      14      54       0       0
     112       1      21      32      54       4       5       3       4       0
       0       0       0       0       0       0       0       0      22       0
       0
%FLAG ATOM_NAME                                                                 
%FORMAT(20a4)                                                                   
C1  C2  C3  C4  C5  C6  C7  C8  C9  C10 C11 C12 O1  O2  Cl1 Cl2 Cl3 Cl4 Cl5 H1  
H2  H3  
%FLAG CHARGE                                                                    
%FORMAT(5E16.8)                                                                 
 -3.03036849E+00 -2.16845370E+00 -3.12147999E+00  3.80299401E+00  3.94877241E+00
  4.24032921E+00  4.24032921E+00  3.71734920E-01 -6.72402870E-01 -6.54180570E-01
  3.89957220E-01  3.71734920E-01 -6.79327344E+00 -6.77505114E+00 -1.35573912E+00
 -3.89957220E-01 -3.89957220E-01 -5.35735620E-01 -5.35735620E-01  3.00667950E+00
  2.87912340E+00  3.17068020E+00
%FLAG ATOMIC_NUMBER                                                             
%FORMAT(10I8)                                                                   
       6       6       6       6       6       6       6       6       6       6
       6       6       8       8      17      17      17      17      17       1
       1       1
%FLAG MASS                                                                      
%FORMAT(5E16.8)                                                                 
  1.20100000E+01  1.20100000E+01  1.20100000E+01  1.20100000E+01  1.20100000E+01
  1.20100000E+01  1.20100000E+01  1.20100000E+01  1.20100000E+01  1.20100000E+01
  1.20100000E+01  1.20100000E+01  1.60000000E+01  1.60000000E+01  3.54500000E+01
  3.54500000E+01  3.54500000E+01  3.54500000E+01  3.54500000E+01  1.00800000E+00
  1.00800000E+00  1.00800000E+00
%FLAG ATOM_TYPE_INDEX                                                           
%FORMAT(10I8)                                                                   
       1       1       1       1       1       1       1       1       1       1
       1       1       2       2       3       3       3       3       3       4
       4       4
%FLAG NUMBER_EXCLUDED_ATOMS                                                     
%FORMAT(10I8)                                                                   
      11       9       9      10       9      10       9       5       8       7
       6       5       3       2       2       1       1       1       1       1
       1       1
%FLAG NONBONDED_PARM_INDEX                                                      
%FORMAT(10I8)                                                                   
       1       2       4       7       2       3       5       8       4       5
       6       9       7       8       9      10
%FLAG RESIDUE_LABEL                                                             
%FORMAT(20a4)                                                                   
MOL 
%FLAG RESIDUE_POINTER                                                           
%FORMAT(10I8)                                                                   
       1
%FLAG BOND_FORCE_CONSTANT                                                       
%FORMAT(5E16.8)                                                                 
  3.54250000E+02  3.60690000E+02  3.43340000E+02  1.87980000E+02
%FLAG BOND_EQUIL_VALUE                                                          
%FORMAT(5E16.8)                                                                 
  1.39860000E+00  1.08600000E+00  1.36880000E+00  1.75720000E+00
%FLAG ANGLE_FORCE_CONSTANT                                                      
%FORMAT(5E16.8)                                                                 
  6.36700000E+01  4.49000000E+01  7.90000000E+01  6.40600000E+01  8.96700000E+01
%FLAG ANGLE_EQUIL_VALUE                                                         
%FORMAT(5E16.8)                                                                 
  2.09474507E+00  2.09230160E+00  2.07886256E+00  2.08357495E+00  2.09212707E+00
%FLAG DIHEDRAL_FORCE_CONSTANT                                                   
%FORMAT(5E16.8)                                                                 
  3.62500000E+00  9.00000000E-01  1.10000000E+00
%FLAG DIHEDRAL_PERIODICITY                                                      
%FORMAT(5E16.8)                                                                 
  2.00000000E+00  2.00000000E+00  2.00000000E+00
%FLAG DIHEDRAL_PHASE                                                            
%FORMAT(5E16.8)                                                                 
  3.14159400E+00  3.14159400E+00  3.14159400E+00
%FLAG SCEE_SCALE_FACTOR                                                         
%FORMAT(5E16.8)                                                                 
  1.20000000E+00  1.20000000E+00  0.00000000E+00
%FLAG SCNB_SCALE_FACTOR                                                         
%FORMAT(5E16.8)                                                                 
  2.00000000E+00  2.00000000E+00  0.00000000E+00
%FLAG SOLTY                                                                     
%FORMAT(5E16.8)                                                                 
  0.00000000E+00  0.00000000E+00  0.00000000E+00  0.00000000E+00
%FLAG LENNARD_JONES_ACOEF                                                       
%FORMAT(5E16.8)                                                                 
  6.96551276E+05  4.46121722E+05  2.83662575E+05  1.49062160E+06  9.60982218E+05
  3.17107030E+06  7.52549148E+04  4.65732396E+04  1.66104821E+05  6.90855956E+03
%FLAG LENNARD_JONES_BCOEF                                                       
%FORMAT(5E16.8)                                                                 
  5.24668528E+02  3.88758656E+02  2.87011518E+02  9.81118883E+02  7.29357620E+02
  1.82923847E+03  1.09570372E+02  7.98066064E+01  2.08087638E+02  2.10929191E+01
%FLAG BONDS_INC_HYDROGEN                                                        
%FORMAT(10I8)                                                                   
       0      57       2       3      60       2       6      63       2
%FLAG BONDS_WITHOUT_HYDROGEN                                                    
%FORMAT(10I8)                                                                   
       0       3       1       0       9       1       3      21       1       6
      12       1       6      21       1       9      12       1       9      36
       3      12      39       3      15      18       1      15      24       1
      15      36       3      18      27       1      18      39       3      21
      42       4      24      30       1      24      45       4      27      33
       1      27      48       4      30      33       1      30      51       4
      33      54       4
%FLAG ANGLES_INC_HYDROGEN                                                       
%FORMAT(10I8)                                                                   
       0       3      60       2       3       0      57       2       9       0
      57       2      12       6      63       2      21       3      60       2
      21       6      63       2
%FLAG ANGLES_WITHOUT_HYDROGEN                                                   
%FORMAT(10I8)                                                                   
       0       3      21       1       0       9      12       1       0       9
      36       3       3       0       9       1       3      21       6       1
       3      21      42       4       6      12       9       1       6      12
      39       3       6      21      42       4       9      12      39       3
       9      36      15       5      12       6      21       1      12       9
      36       3      12      39      18       5      15      18      27       1
      15      18      39       3      15      24      30       1      15      24
      45       4      18      15      24       1      18      15      36       3
      18      27      33       1      18      27      48       4      24      15
      36       3      24      30      33       1      24      30      51       4
      27      18      39       3      27      33      30       1      27      33
      54       4      30      24      45       4      30      33      54       4
      33      27      48       4      33      30      51       4
%FLAG DIHEDRALS_INC_HYDROGEN                                                    
%FORMAT(10I8)                                                                   
       3      21       6      63       1       6      21       3      60       1
       9       0       3      60       1       9      12       6      63       1
      57       0       9      12       1      57       0       3      21       1
      57       0       9      36       1      39      12       6      63       1
      42      21       3      60       1      42      21       6      63       1
      57       0       3      60       1      57       0      -9      -3       3
       0      21      -3     -60       3      12      21      -6     -63       3
%FLAG DIHEDRALS_WITHOUT_HYDROGEN                                                
%FORMAT(10I8)                                                                   
       0       3      21       6       1       0       3      21      42       1
       0       9     -12       6       1       0       9      12      39       1
       0       9      36      15       2       3       0       9      12       1
       3       0       9      36       1       3      21      -6      12       1
       6      12       9      36       1       6      12      39      18       2
       9       0       3      21       1       9      12      -6      21       1
       9      12      39      18       2       9      36     -15      18       2
       9      36      15      24       2      12       6      21      42       1
      12       9      36      15       2      12      39     -18      15       2
      12      39      18      27       2      15      18      27      33       1
      15      18      27      48       1      15      24     -30      33       1
      15      24      30      51       1      18      15      24      30       1
      18      15      24      45       1      18      27     -33      30       1
      18      27      33      54       1      21       6      12      39       1
      24      15      18      27       1      24      15      18      39       1
      24      30     -33      27       1      24      30      33      54       1
      27      18      15      36       1      27      33      30      51       1
      30      24      15      36       1      30      33      27      48       1
      33      27      18      39       1      33      30      24      45       1
      36       9      12      39       1      36      15     -18      39       1
      36      15      24      45       1      39      18      27      48       1
      45      24      30      51       1      48      27      33      54       1
      51      30      33      54       1       0      12      -9     -36       3
       6       9     -12     -39       3      18      24     -15     -36       3
      15      27     -18     -39       3       3       6     -21     -42       3
      15      30     -24     -45       3      18      33     -27     -48       3
      24      33     -30     -51       3      27      30     -33     -54       3
%FLAG EXCLUDED_ATOMS_LIST                                                       
%FORMAT(10I8)                                                                   
       2       3       4       5       6       8      13      14      15      20
      21       3       4       5       8      13      15      20      21      22
       4       5       7       8      13      14      15      21      22       5
       6       7       8       9      13      14      20      21      22       6
       7       8      10      13      14      15      20      22       7       9
      10      11      12      13      14      16      17      18       9      10
      11      12      13      14      16      17      19      14      15      20
      21      22      10      11      12      13      14      16      18      19
      11      12      13      14      17      18      19      12      13      16
      17      18      19      14      16      17      18      19      14      16
      20      17      22      21      22      18      19      19       0      21
       0       0
%FLAG HBOND_ACOEF                                                               
%FORMAT(5E16.8)                                                                 

%FLAG HBOND_BCOEF                                                               
%FORMAT(5E16.8)                                                                 

%FLAG HBCUT                                                                     
%FORMAT(5E16.8)                                                                 

%FLAG AMBER_ATOM_TYPE                                                           
%FORMAT(20a4)                                                                   
ca  ca  ca  ca  ca  ca  ca  ca  ca  ca  ca  ca  os  os  cl  cl  cl  cl  cl  ha  
ha  ha  
%FLAG TREE_CHAIN_CLASSIFICATION                                                 
%FORMAT(20a4)                                                                   
BLA BLA BLA BLA BLA BLA BLA BLA BLA BLA BLA BLA BLA BLA BLA BLA BLA BLA BLA BLA 
BLA BLA 
%FLAG JOIN_ARRAY                                                                
%FORMAT(10I8)                                                                   
       0       0       0       0       0       0       0       0       0       0
       0       0       0       0       0       0       0       0       0       0
       0       0
%FLAG IROTAT                                                                    
%FORMAT(10I8)                                                                   
       0       0       0       0       0       0       0       0       0       0
       0       0       0       0       0       0       0       0       0       0
       0       0
%FLAG RADIUS_SET                                                                
%FORMAT(1a80)                                                                   
modified Bondi radii (mbondi)                                                   
%FLAG RADII                                                                     
%FORMAT(5E16.8)                                                                 
  1.70000000E+00  1.70000000E+00  1.70000000E+00  1.70000000E+00  1.70000000E+00
  1.70000000E+00  1.70000000E+00  1.70000000E+00  1.70000000E+00  1.70000000E+00
  1.70000000E+00  1.70000000E+00  1.50000000E+00  1.50000000E+00  1.70000000E+00
  1.70000000E+00  1.70000000E+00  1.70000000E+00  1.70000000E+00  1.30000000E+00
  1.30000000E+00  1.30000000E+00
%FLAG SCREEN                                                                    
%FORMAT(5E16.8)                                                                 
  7.20000000E-01  7.20000000E-01  7.20000000E-01  7.20000000E-01  7.20000000E-01
  7.20000000E-01  7.20000000E-01  7.20000000E-01  7.20000000E-01  7.20000000E-01
  7.20000000E-01  7.20000000E-01  8.50000000E-01  8.50000000E-01  8.00000000E-01
  8.00000000E-01  8.00000000E-01  8.00000000E-01  8.00000000E-01  8.50000000E-01
  8.50000000E-01  8.50000000E-01
%FLAG IPOL                                                                      
%FORMAT(1I8)                                                                    
       0
