mobley_1502181_GMX.gro created by acpype (v: 2023.10.27) on Wed May 20 23:46:25 2026
13711
    1MOL     C1    1   2.517   2.273   2.375
    1MOL     C2    2   2.543   2.207   2.242
    1MOL     C3    3   2.671   2.984   2.885
    1MOL     C4    4   2.577   2.410   2.398
    1MOL     C5    5   2.613   2.846   2.863
    1MOL     C6    6   2.551   2.464   2.538
    1MOL     C7    7   2.641   2.795   2.722
    1MOL     C8    8   2.610   2.604   2.559
    1MOL     C9    9   2.585   2.654   2.702
    1MOL     O1   10   2.452   2.217   2.463
    1MOL     H1   11   2.478   2.120   2.231
    1MOL     H2   12   2.647   2.175   2.236
    1MOL     H3   13   2.520   2.277   2.161
    1MOL     H4   14   2.628   3.057   2.815
    1MOL     H5   15   2.780   2.984   2.872
    1MOL     H6   16   2.650   3.019   2.987
    1MOL     H7   17   2.537   2.479   2.322
    1MOL     H8   18   2.685   2.403   2.380
    1MOL     H9   19   2.655   2.777   2.937
    1MOL    H10   20   2.505   2.849   2.881
    1MOL    H11   21   2.595   2.395   2.611
    1MOL    H12   22   2.443   2.467   2.559
    1MOL    H13   23   2.597   2.863   2.649
    1MOL    H14   24   2.749   2.794   2.704
    1MOL    H15   25   2.566   2.675   2.488
    1MOL    H16   26   2.718   2.601   2.540
    1MOL    H17   27   2.631   2.585   2.774
    1MOL    H18   28   2.477   2.654   2.722
    2SOL     OW   29   0.230   0.628   0.113
    2SOL    HW1   30   0.137   0.626   0.150
    2SOL    HW2   31   0.231   0.589   0.021
    3SOL     OW   32   0.225   0.275   0.996
    3SOL    HW1   33   0.260   0.258   1.088
    3SOL    HW2   34   0.137   0.230   0.984
    4SOL     OW   35   0.019   0.368   0.647
    4SOL    HW1   36  -0.063   0.411   0.686
    4SOL    HW2   37  -0.009   0.295   0.584
    5SOL     OW   38   0.569   1.275   1.165
    5SOL    HW1   39   0.476   1.268   1.128
    5SOL    HW2   40   0.580   1.364   1.209
    6SOL     OW   41   1.555   1.511   0.703
    6SOL    HW1   42   1.498   1.495   0.784
    6SOL    HW2   43   1.496   1.521   0.623
    7SOL     OW   44   1.135   0.703   0.717
    7SOL    HW1   45   1.192   0.781   0.692
    7SOL    HW2   46   1.075   0.729   0.793
    8SOL     OW   47   1.755   0.607   0.231
    8SOL    HW1   48   1.743   0.594   0.132
    8SOL    HW2   49   1.725   0.526   0.280
    9SOL     OW   50   0.768   1.144   1.023
    9SOL    HW1   51   0.690   1.161   1.083
    9SOL    HW2   52   0.802   1.231   0.987
   10SOL     OW   53   0.850   0.798   1.823
   10SOL    HW1   54   0.846   0.874   1.888
   10SOL    HW2   55   0.872   0.834   1.732
   11SOL     OW   56   0.685   1.012   0.665
   11SOL    HW1   57   0.754   0.996   0.735
   11SOL    HW2   58   0.612   1.069   0.703
   12SOL     OW   59   0.686   1.161   1.803
   12SOL    HW1   60   0.746   1.240   1.817
   12SOL    HW2   61   0.600   1.192   1.762
   13SOL     OW   62   0.335   1.435   1.061
   13SOL    HW1   63   0.257   1.404   1.008
   13SOL    HW2   64   0.393   1.493   1.004
   14SOL     OW   65   1.460   1.505   1.339
   14SOL    HW1   66   1.484   1.599   1.365
   14SOL    HW2   67   1.444   1.451   1.421
   15SOL     OW   68   0.438   0.392   1.499
   15SOL    HW1   69   0.520   0.336   1.508
   15SOL    HW2   70   0.357   0.334   1.503
   16SOL     OW   71   1.603   0.447   0.737
   16SOL    HW1   72   1.529   0.493   0.687
   16SOL    HW2   73   1.654   0.515   0.790
   17SOL     OW   74   0.231   1.713   0.483
   17SOL    HW1   75   0.265   1.790   0.537
   17SOL    HW2   76   0.275   1.713   0.393
   18SOL     OW   77   1.127   1.341   1.690
   18SOL    HW1   78   1.174   1.341   1.778
   18SOL    HW2   79   1.079   1.254   1.679
   19SOL     OW   80   0.230   1.434   0.538
   19SOL    HW1   81   0.204   1.530   0.538
   19SOL    HW2   82   0.159   1.380   0.583
   20SOL     OW   83   0.240   1.091   0.886
   20SOL    HW1   84   0.254   1.007   0.938
   20SOL    HW2   85   0.185   1.155   0.941
   21SOL     OW   86   0.620   1.786   1.439
   21SOL    HW1   87   0.528   1.769   1.474
   21SOL    HW2   88   0.648   1.878   1.465
   22SOL     OW   89   0.606   0.964   0.123
   22SOL    HW1   90   0.613   1.048   0.069
   22SOL    HW2   91   0.652   0.977   0.211
   23SOL     OW   92   1.594   0.114   1.480
   23SOL    HW1   93   1.576   0.181   1.408
   23SOL    HW2   94   1.591   0.160   1.569
   24SOL     OW   95   0.122   0.643   0.563
   24SOL    HW1   96   0.077   0.555   0.580
   24SOL    HW2   97   0.121   0.697   0.647
   25SOL     OW   98   1.842   1.767   0.359
   25SOL    HW1   99   1.896   1.738   0.439
   25SOL    HW2  100   1.872   1.857   0.330
   26SOL     OW  101   0.027   1.596   0.117
   26SOL    HW1  102   0.008   1.500   0.138
   26SOL    HW2  103  -0.006   1.654   0.192
   27SOL     OW  104   1.689   0.922   0.612
   27SOL    HW1  105   1.784   0.893   0.620
   27SOL    HW2  106   1.681   0.987   0.537
   28SOL     OW  107   1.641   1.108   0.432
   28SOL    HW1  108   1.727   1.110   0.380
   28SOL    HW2  109   1.655   1.155   0.520
   29SOL     OW  110   0.113   0.737   1.597
   29SOL    HW1  111   0.201   0.724   1.642
   29SOL    HW2  112   0.100   0.834   1.575
   30SOL     OW  113   0.613   1.365   0.726
   30SOL    HW1  114   0.564   1.278   0.735
   30SOL    HW2  115   0.590   1.408   0.639
   31SOL     OW  116   1.293   1.228   1.423
   31SOL    HW1  117   1.330   1.155   1.365
   31SOL    HW2  118   1.345   1.233   1.508
   32SOL     OW  119   0.809   0.004   0.502
   32SOL    HW1  120   0.849   0.095   0.493
   32SOL    HW2  121   0.709   0.012   0.508
   33SOL     OW  122   0.197   0.976   1.264
   33SOL    HW1  123   0.286   0.931   1.250
   33SOL    HW2  124   0.124   0.911   1.245
   34SOL     OW  125   1.525   0.999   0.190
   34SOL    HW1  126   1.462   0.923   0.203
   34SOL    HW2  127   1.573   1.017   0.276
   35SOL     OW  128   1.187   1.792   1.616
   35SOL    HW1  129   1.211   1.852   1.540
   35SOL    HW2  130   1.194   1.697   1.586
   36SOL     OW  131   0.317   0.251   1.801
   36SOL    HW1  132   0.388   0.322   1.807
   36SOL    HW2  133   0.229   0.290   1.829
   37SOL     OW  134   1.466   1.417   0.953
   37SOL    HW1  135   1.407   1.423   1.033
   37SOL    HW2  136   1.451   1.329   0.907
   38SOL     OW  137   1.667   1.714   0.572
   38SOL    HW1  138   1.626   1.691   0.484
   38SOL    HW2  139   1.649   1.640   0.637
   39SOL     OW  140   0.598   0.729   0.270
   39SOL    HW1  141   0.622   0.798   0.202
   39SOL    HW2  142   0.520   0.762   0.324
   40SOL     OW  143   1.281   0.345   0.944
   40SOL    HW1  144   1.195   0.295   0.931
   40SOL    HW2  145   1.343   0.291   1.000
   41SOL     OW  146   1.576   1.662   0.307
   41SOL    HW1  147   1.665   1.708   0.310
   41SOL    HW2  148   1.555   1.638   0.212
   42SOL     OW  149   0.807   0.605   1.465
   42SOL    HW1  150   0.760   0.602   1.554
   42SOL    HW2  151   0.756   0.550   1.399
   43SOL     OW  152   1.394   0.469   1.674
   43SOL    HW1  153   1.374   0.512   1.762
   43SOL    HW2  154   1.472   0.407   1.683
   44SOL     OW  155   0.973   0.890   1.572
   44SOL    HW1  156   1.019   0.806   1.543
   44SOL    HW2  157   0.917   0.924   1.497
   45SOL     OW  158   0.991   0.410   1.242
   45SOL    HW1  159   0.914   0.444   1.296
   45SOL    HW2  160   0.957   0.359   1.163
   46SOL     OW  161   1.041   0.701   0.429
   46SOL    HW1  162   1.067   0.697   0.525
   46SOL    HW2  163   0.956   0.650   0.415
   47SOL     OW  164   0.076   0.811   0.789
   47SOL    HW1  165   0.175   0.799   0.798
   47SOL    HW2  166   0.052   0.906   0.810
   48SOL     OW  167   0.130   1.821   1.571
   48SOL    HW1  168   0.120   1.806   1.670
   48SOL    HW2  169   0.044   1.857   1.535
   49SOL     OW  170   0.865   0.348   0.195
   49SOL    HW1  171   0.924   0.411   0.146
   49SOL    HW2  172   0.884   0.254   0.166
   50SOL     OW  173   1.719   0.585   1.831
   50SOL    HW1  174   1.693   0.674   1.795
   50SOL    HW2  175   1.717   0.517   1.758
   51SOL     OW  176   1.362   1.144   0.545
   51SOL    HW1  177   1.445   1.115   0.497
   51SOL    HW2  178   1.313   1.211   0.489
   52SOL     OW  179   0.550   0.196   0.885
   52SOL    HW1  180   0.545   0.191   0.985
   52SOL    HW2  181   0.552   0.292   0.856
   53SOL     OW  182   1.008   1.456   0.477
   53SOL    HW1  183   0.962   1.528   0.425
   53SOL    HW2  184   1.004   1.476   0.575
   54SOL     OW  185   0.351   1.801   0.853
   54SOL    HW1  186   0.401   1.715   0.859
   54SOL    HW2  187   0.416   1.878   0.850
   55SOL     OW  188   1.795   1.066   0.873
   55SOL    HW1  189   1.733   1.051   0.797
   55SOL    HW2  190   1.743   1.077   0.958
   56SOL     OW  191   1.227   1.550   1.506
   56SOL    HW1  192   1.233   1.473   1.570
   56SOL    HW2  193   1.175   1.524   1.426
   57SOL     OW  194   0.321   0.943   0.242
   57SOL    HW1  195   0.403   0.982   0.200
   57SOL    HW2  196   0.294   0.861   0.193
   58SOL     OW  197   1.458   0.735   0.728
   58SOL    HW1  198   1.453   0.670   0.803
   58SOL    HW2  199   1.538   0.794   0.741
   59SOL     OW  200   0.461   1.266   1.727
   59SOL    HW1  201   0.411   1.267   1.641
   59SOL    HW2  202   0.398   1.248   1.803
   60SOL     OW  203   1.111   1.776   0.237
   60SOL    HW1  204   1.051   1.714   0.287
   60SOL    HW2  205   1.142   1.732   0.152
   61SOL     OW  206   0.202   0.285   1.498
   61SOL    HW1  207   0.122   0.345   1.485
   61SOL    HW2  208   0.192   0.236   1.584
   62SOL     OW  209   1.632   1.377   0.081
   62SOL    HW1  210   1.600   1.471   0.071
   62SOL    HW2  211   1.556   1.314   0.069
   63SOL     OW  212   0.464   1.743   0.323
   63SOL    HW1  213   0.497   1.782   0.409
   63SOL    HW2  214   0.540   1.736   0.258
   64SOL     OW  215   1.400   0.107   0.426
   64SOL    HW1  216   1.376   0.070   0.336
   64SOL    HW2  217   1.499   0.123   0.430
   65SOL     OW  218   0.249   1.785   1.241
   65SOL    HW1  219   0.306   1.720   1.291
   65SOL    HW2  220   0.233   1.752   1.148
   66SOL     OW  221   0.940   1.698   0.904
   66SOL    HW1  222   1.020   1.641   0.925
   66SOL    HW2  223   0.891   1.658   0.827
   67SOL     OW  224   0.382   0.700   0.480
   67SOL    HW1  225   0.427   0.610   0.477
   67SOL    HW2  226   0.288   0.689   0.513
   68SOL     OW  227   1.547   0.222   1.729
   68SOL    HW1  228   1.542   0.259   1.821
   68SOL    HW2  229   1.475   0.153   1.717
   69SOL     OW  230   0.614   0.122   0.117
   69SOL    HW1  231   0.712   0.100   0.124
   69SOL    HW2  232   0.583   0.105   0.024
   70SOL     OW  233   0.781   0.264   1.749
   70SOL    HW1  234   0.848   0.203   1.792
   70SOL    HW2  235   0.708   0.283   1.814
   71SOL     OW  236   0.888   1.514   1.195
   71SOL    HW1  237   0.865   1.489   1.101
   71SOL    HW2  238   0.949   1.445   1.234
   72SOL     OW  239   1.351   0.590   1.433
   72SOL    HW1  240   1.379   0.547   1.518
   72SOL    HW2  241   1.376   0.686   1.434
   73SOL     OW  242   0.803   1.402   0.924
   73SOL    HW1  243   0.893   1.416   0.882
   73SOL    HW2  244   0.732   1.404   0.853
   74SOL     OW  245   0.922   0.503   0.899
   74SOL    HW1  246   0.897   0.494   0.803
   74SOL    HW2  247   0.970   0.421   0.930
   75SOL     OW  248   0.539   0.064   0.512
   75SOL    HW1  249   0.458   0.065   0.570
   75SOL    HW2  250   0.542   0.147   0.457
   76SOL     OW  251   1.434   1.188   0.041
   76SOL    HW1  252   1.466   1.112   0.098
   76SOL    HW2  253   1.342   1.215   0.071
   77SOL     OW  254   0.297   0.035   0.171
   77SOL    HW1  255   0.346   0.119   0.150
   77SOL    HW2  256   0.359  -0.030   0.216
   78SOL     OW  257   0.935   0.236   0.480
   78SOL    HW1  258   0.887   0.277   0.402
   78SOL    HW2  259   1.034   0.234   0.461
   79SOL     OW  260   1.076   0.683   1.464
   79SOL    HW1  261   0.996   0.622   1.467
   79SOL    HW2  262   1.157   0.630   1.440
   80SOL     OW  263   1.227   1.570   0.793
   80SOL    HW1  264   1.248   1.644   0.728
   80SOL    HW2  265   1.295   1.570   0.866
   81SOL     OW  266   0.459   1.152   0.741
   81SOL    HW1  267   0.388   1.125   0.806
   81SOL    HW2  268   0.433   1.124   0.648
   82SOL     OW  269   1.271   1.797   0.591
   82SOL    HW1  270   1.315   1.861   0.527
   82SOL    HW2  271   1.221   1.849   0.661
   83SOL     OW  272   1.032   0.549   0.016
   83SOL    HW1  273   0.991   0.631  -0.023
   83SOL    HW2  274   1.096   0.575   0.089
   84SOL     OW  275   0.078   0.556   1.386
   84SOL    HW1  276   0.170   0.555   1.345
   84SOL    HW2  277   0.072   0.630   1.453
   85SOL     OW  278   0.561   0.222   1.147
   85SOL    HW1  279   0.599   0.138   1.184
   85SOL    HW2  280   0.473   0.241   1.191
   86SOL     OW  281   0.866   0.454   0.642
   86SOL    HW1  282   0.834   0.526   0.580
   86SOL    HW2  283   0.890   0.373   0.589
   87SOL     OW  284   1.017   0.039   0.753
   87SOL    HW1  285   0.945   0.044   0.684
   87SOL    HW2  286   0.993  -0.030   0.822
   88SOL     OW  287   1.429   1.173   0.867
   88SOL    HW1  288   1.374   1.089   0.860
   88SOL    HW2  289   1.455   1.202   0.775
   89SOL     OW  290   1.466   0.590   0.992
   89SOL    HW1  291   1.436   0.495   0.999
   89SOL    HW2  292   1.539   0.606   1.058
   90SOL     OW  293   1.857   0.833   0.377
   90SOL    HW1  294   1.899   0.769   0.441
   90SOL    HW2  295   1.819   0.782   0.299
   91SOL     OW  296   0.488   1.385   0.174
   91SOL    HW1  297   0.401   1.370   0.221
   91SOL    HW2  298   0.471   1.411   0.079
   92SOL     OW  299   1.664   1.280   0.657
   92SOL    HW1  300   1.763   1.288   0.671
   92SOL    HW2  301   1.619   1.364   0.688
   93SOL     OW  302   1.390   0.575   0.078
   93SOL    HW1  303   1.336   0.554   0.159
   93SOL    HW2  304   1.481   0.534   0.087
   94SOL     OW  305   0.527   0.256   0.328
   94SOL    HW1  306   0.554   0.197   0.253
   94SOL    HW2  307   0.527   0.351   0.297
   95SOL     OW  308   1.754   1.223   1.588
   95SOL    HW1  309   1.845   1.184   1.575
   95SOL    HW2  310   1.762   1.319   1.612
   96SOL     OW  311   1.064   1.347   1.340
   96SOL    HW1  312   0.984   1.324   1.395
   96SOL    HW2  313   1.147   1.321   1.389
   97SOL     OW  314   1.592   1.629   1.625
   97SOL    HW1  315   1.619   1.663   1.535
   97SOL    HW2  316   1.671   1.591   1.671
   98SOL     OW  317   1.111   1.195   1.100
   98SOL    HW1  318   1.071   1.239   1.181
   98SOL    HW2  319   1.070   1.232   1.017
   99SOL     OW  320   1.638   1.099   1.079
   99SOL    HW1  321   1.643   1.180   1.138
   99SOL    HW2  322   1.552   1.101   1.028
  100SOL     OW  323   0.915   0.089   1.402
  100SOL    HW1  324   0.940   0.069   1.307
  100SOL    HW2  325   0.987   0.145   1.444
  101SOL     OW  326   0.980   1.116   1.719
  101SOL    HW1  327   0.881   1.122   1.729
  101SOL    HW2  328   1.003   1.036   1.663
  102SOL     OW  329   0.705   1.050   0.368
  102SOL    HW1  330   0.691   1.057   0.467
  102SOL    HW2  331   0.789   0.999   0.350
  103SOL     OW  332   0.410   0.813   1.251
  103SOL    HW1  333   0.496   0.825   1.301
  103SOL    HW2  334   0.368   0.726   1.278
  104SOL     OW  335   1.274   0.386   1.262
  104SOL    HW1  336   1.295   0.460   1.326
  104SOL    HW2  337   1.185   0.403   1.219
  105SOL     OW  338   0.064   1.564   1.331
  105SOL    HW1  339   0.018   1.646   1.297
  105SOL    HW2  340   0.162   1.583   1.340
  106SOL     OW  341   0.367   1.100   0.501
  106SOL    HW1  342   0.360   1.183   0.445
  106SOL    HW2  343   0.371   1.020   0.441
  107SOL     OW  344   0.566   0.537   0.865
  107SOL    HW1  345   0.578   0.603   0.791
  107SOL    HW2  346   0.612   0.571   0.948
  108SOL     OW  347   1.252   1.348   0.388
  108SOL    HW1  348   1.302   1.425   0.428
  108SOL    HW2  349   1.157   1.350   0.420
  109SOL     OW  350   1.272   1.445   1.142
  109SOL    HW1  351   1.319   1.458   1.229
  109SOL    HW2  352   1.206   1.371   1.151
  110SOL     OW  353   1.582   0.639   0.472
  110SOL    HW1  354   1.551   0.700   0.545
  110SOL    HW2  355   1.632   0.691   0.403
  111SOL     OW  356   0.354   1.510   1.329
  111SOL    HW1  357   0.333   1.466   1.242
  111SOL    HW2  358   0.451   1.536   1.332
  112SOL     OW  359   0.402   0.751   1.598
  112SOL    HW1  360   0.470   0.806   1.551
  112SOL    HW2  361   0.442   0.663   1.625
  113SOL     OW  362   1.587   0.779   1.670
  113SOL    HW1  363   1.495   0.817   1.665
  113SOL    HW2  364   1.647   0.826   1.605
  114SOL     OW  365   1.013   0.105   1.770
  114SOL    HW1  366   1.019   0.190   1.718
  114SOL    HW2  367   1.045   0.029   1.713
  115SOL     OW  368   0.504   0.050   1.740
  115SOL    HW1  369   0.462  -0.007   1.670
  115SOL    HW2  370   0.438   0.119   1.772
  116SOL     OW  371   0.573   0.870   1.029
  116SOL    HW1  372   0.617   0.959   1.020
  116SOL    HW2  373   0.510   0.870   1.106
  117SOL     OW  374   1.360   0.862   1.045
  117SOL    HW1  375   1.285   0.862   0.979
  117SOL    HW2  376   1.397   0.770   1.054
  118SOL     OW  377   1.209   0.525   0.275
  118SOL    HW1  378   1.222   0.441   0.329
  118SOL    HW2  379   1.180   0.599   0.335
  119SOL     OW  380   0.307   0.213   1.231
  119SOL    HW1  381   0.284   0.250   1.321
  119SOL    HW2  382   0.277   0.118   1.225
  120SOL     OW  383   0.037   1.310   1.282
  120SOL    HW1  384   0.090   1.261   1.350
  120SOL    HW2  385   0.059   1.408   1.287
  121SOL     OW  386   0.732   0.634   1.064
  121SOL    HW1  387   0.791   0.608   0.988
  121SOL    HW2  388   0.704   0.730   1.053
  122SOL     OW  389   1.728   0.935   1.854
  122SOL    HW1  390   1.682   0.928   1.765
  122SOL    HW2  391   1.666   0.979   1.920
  123SOL     OW  392   0.307   0.063   0.618
  123SOL    HW1  393   0.296   0.157   0.651
  123SOL    HW2  394   0.302   0.000   0.695
  124SOL     OW  395   1.622   0.367   0.374
  124SOL    HW1  396   1.624   0.291   0.438
  124SOL    HW2  397   1.574   0.444   0.414
  125SOL     OW  398   1.023   0.766   0.966
  125SOL    HW1  399   1.038   0.787   1.062
  125SOL    HW2  400   0.993   0.671   0.957
  126SOL     OW  401   0.980   1.573   1.700
  126SOL    HW1  402   0.960   1.617   1.612
  126SOL    HW2  403   1.019   1.482   1.684
  127SOL     OW  404   1.859   1.518   1.605
  127SOL    HW1  405   1.873   1.545   1.510
  127SOL    HW2  406   1.942   1.540   1.658
  128SOL     OW  407   0.350   0.898   1.804
  128SOL    HW1  408   0.426   0.942   1.852
  128SOL    HW2  409   0.385   0.851   1.722
  129SOL     OW  410   1.540   0.274   0.125
  129SOL    HW1  411   1.479   0.199   0.148
  129SOL    HW2  412   1.562   0.326   0.208
  130SOL     OW  413   1.303   0.838   0.042
  130SOL    HW1  414   1.337   0.745   0.057
  130SOL    HW2  415   1.321   0.865  -0.053
  131SOL     OW  416   1.068   1.333   0.849
  131SOL    HW1  417   1.075   1.249   0.794
  131SOL    HW2  418   1.130   1.402   0.813
  132SOL     OW  419   0.319   0.810   0.949
  132SOL    HW1  420   0.412   0.846   0.954
  132SOL    HW2  421   0.313   0.725   1.001
  133SOL     OW  422   0.339   0.509   1.006
  133SOL    HW1  423   0.287   0.426   0.989
  133SOL    HW2  424   0.416   0.514   0.942
  134SOL     OW  425   1.138   0.380   1.678
  134SOL    HW1  426   1.093   0.443   1.742
  134SOL    HW2  427   1.231   0.411   1.661
  135SOL     OW  428   1.160   0.207   1.477
  135SOL    HW1  429   1.160   0.271   1.554
  135SOL    HW2  430   1.188   0.255   1.394
  136SOL     OW  431   0.008   1.326   0.200
  136SOL    HW1  432  -0.085   1.347   0.169
  136SOL    HW2  433   0.018   1.227   0.213
  137SOL     OW  434   0.088   1.801   0.927
  137SOL    HW1  435   0.046   1.715   0.900
  137SOL    HW2  436   0.182   1.804   0.893
  138SOL     OW  437   0.504   1.568   0.910
  138SOL    HW1  438   0.570   1.642   0.919
  138SOL    HW2  439   0.548   1.489   0.868
  139SOL     OW  440   1.002   0.796   1.238
  139SOL    HW1  441   1.043   0.764   1.324
  139SOL    HW2  442   0.906   0.769   1.235
  140SOL     OW  443   0.040   0.544   1.114
  140SOL    HW1  444   0.125   0.511   1.073
  140SOL    HW2  445   0.053   0.559   1.212
  141SOL     OW  446   0.189   0.520   1.722
  141SOL    HW1  447   0.248   0.480   1.652
  141SOL    HW2  448   0.131   0.591   1.681
  142SOL     OW  449   1.369   0.950   1.660
  142SOL    HW1  450   1.408   1.039   1.680
  142SOL    HW2  451   1.379   0.930   1.563
  143SOL     OW  452   0.815   0.572   0.325
  143SOL    HW1  453   0.822   0.483   0.279
  143SOL    HW2  454   0.721   0.606   0.317
  144SOL     OW  455   1.657   0.604   1.206
  144SOL    HW1  456   1.619   0.535   1.268
  144SOL    HW2  457   1.739   0.568   1.162
  145SOL     OW  458   0.252   1.564   1.744
  145SOL    HW1  459   0.222   1.621   1.820
  145SOL    HW2  460   0.245   1.467   1.770
  146SOL     OW  461   0.671   0.464   1.269
  146SOL    HW1  462   0.637   0.375   1.239
  146SOL    HW2  463   0.697   0.518   1.189
  147SOL     OW  464   0.930   1.678   1.465
  147SOL    HW1  465   0.906   1.660   1.370
  147SOL    HW2  466   0.960   1.772   1.475
  148SOL     OW  467   0.473   0.500   0.191
  148SOL    HW1  468   0.534   0.580   0.195
  148SOL    HW2  469   0.378   0.531   0.198
  149SOL     OW  470   0.159   1.137   1.466
  149SOL    HW1  471   0.181   1.076   1.542
  149SOL    HW2  472   0.169   1.088   1.380
  150SOL     OW  473   1.347   1.059   1.234
  150SOL    HW1  474   1.371   0.996   1.160
  150SOL    HW2  475   1.257   1.099   1.216
  151SOL     OW  476   1.302   0.855   0.309
  151SOL    HW1  477   1.216   0.824   0.351
  151SOL    HW2  478   1.298   0.841   0.210
  152SOL     OW  479   1.759   1.747   1.154
  152SOL    HW1  480   1.820   1.777   1.081
  152SOL    HW2  481   1.721   1.658   1.132
  153SOL     OW  482   1.252   1.731   1.128
  153SOL    HW1  483   1.336   1.736   1.074
  153SOL    HW2  484   1.229   1.635   1.146
  154SOL     OW  485   0.083   1.258   1.022
  154SOL    HW1  486   0.078   1.257   1.122
  154SOL    HW2  487   0.000   1.217   0.984
  155SOL     OW  488   0.688   1.662   1.716
  155SOL    HW1  489   0.632   1.743   1.725
  155SOL    HW2  490   0.740   1.666   1.630
  156SOL     OW  491   0.903   0.086   0.133
  156SOL    HW1  492   0.954   0.087   0.047
  156SOL    HW2  493   0.959   0.044   0.204
  157SOL     OW  494   1.726   0.135   0.523
  157SOL    HW1  495   1.799   0.118   0.456
  157SOL    HW2  496   1.695   0.048   0.561
  158SOL     OW  497   1.388   1.573   0.477
  158SOL    HW1  498   1.455   1.585   0.403
  158SOL    HW2  499   1.348   1.662   0.500
  159SOL     OW  500   0.130   1.794   1.851
  159SOL    HW1  501   0.089   1.720   1.904
  159SOL    HW2  502   0.194   1.845   1.909
  160SOL     OW  503   1.280   0.927   0.672
  160SOL    HW1  504   1.340   0.846   0.674
  160SOL    HW2  505   1.320   0.996   0.612
  161SOL     OW  506   0.830   1.273   1.422
  161SOL    HW1  507   0.825   1.306   1.517
  161SOL    HW2  508   0.744   1.292   1.376
  162SOL     OW  509   0.672   1.616   0.154
  162SOL    HW1  510   0.681   1.626   0.055
  162SOL    HW2  511   0.632   1.527   0.175
  163SOL     OW  512   1.650   1.720   1.394
  163SOL    HW1  513   1.703   1.730   1.310
  163SOL    HW2  514   1.623   1.810   1.428
  164SOL     OW  515   1.841   0.175   0.963
  164SOL    HW1  516   1.880   0.090   0.927
  164SOL    HW2  517   1.743   0.177   0.944
  165SOL     OW  518   0.263   0.326   0.720
  165SOL    HW1  519   0.184   0.377   0.686
  165SOL    HW2  520   0.254   0.311   0.818
  166SOL     OW  521   1.194   1.612   0.031
  166SOL    HW1  522   1.200   1.519   0.068
  166SOL    HW2  523   1.135   1.612  -0.049
  167SOL     OW  524   0.822   1.002   1.372
  167SOL    HW1  525   0.862   1.001   1.280
  167SOL    HW2  526   0.832   1.094   1.412
  168SOL     OW  527   0.916   0.910   0.291
  168SOL    HW1  528   0.979   0.948   0.223
  168SOL    HW2  529   0.956   0.827   0.330
  169SOL     OW  530   1.504   1.607   0.044
  169SOL    HW1  531   1.412   1.644   0.051
  169SOL    HW2  532   1.542   1.627  -0.046
  170SOL     OW  533   0.372   1.288   1.490
  170SOL    HW1  534   0.359   1.381   1.456
  170SOL    HW2  535   0.288   1.236   1.477
  171SOL     OW  536   1.614   1.292   1.289
  171SOL    HW1  537   1.674   1.295   1.369
  171SOL    HW2  538   1.539   1.356   1.302
  172SOL     OW  539   1.039   1.098   0.696
  172SOL    HW1  540   0.969   1.051   0.750
  172SOL    HW2  541   1.098   1.030   0.653
  173SOL     OW  542   1.014   0.236   0.971
  173SOL    HW1  543   1.006   0.200   0.878
  173SOL    HW2  544   1.012   0.160   1.036
  174SOL     OW  545   0.590   1.487   0.491
  174SOL    HW1  546   0.632   1.429   0.421
  174SOL    HW2  547   0.546   1.566   0.447
  175SOL     OW  548   1.709   0.385   1.381
  175SOL    HW1  549   1.782   0.454   1.385
  175SOL    HW2  550   1.737   0.310   1.322
  176SOL     OW  551   0.255   1.348   0.290
  176SOL    HW1  552   0.159   1.349   0.263
  176SOL    HW2  553   0.267   1.401   0.374
  177SOL     OW  554   0.105   1.013   1.726
  177SOL    HW1  555   0.028   0.980   1.780
  177SOL    HW2  556   0.190   0.983   1.768
  178SOL     OW  557   0.672   0.203   1.489
  178SOL    HW1  558   0.762   0.187   1.449
  178SOL    HW2  559   0.680   0.208   1.588
  179SOL     OW  560   0.075   0.345   0.033
  179SOL    HW1  561  -0.017   0.317   0.004
  179SOL    HW2  562   0.106   0.422  -0.023
  180SOL     OW  563   1.440   0.856   1.398
  180SOL    HW1  564   1.383   0.908   1.335
  180SOL    HW2  565   1.536   0.868   1.374
  181SOL     OW  566   0.072   0.166   0.318
  181SOL    HW1  567   0.055   0.249   0.264
  181SOL    HW2  568   0.162   0.129   0.296
  182SOL     OW  569   1.183   1.335   0.119
  182SOL    HW1  570   1.084   1.324   0.121
  182SOL    HW2  571   1.217   1.350   0.212
  183SOL     OW  572   0.613   0.842   1.431
  183SOL    HW1  573   0.669   0.923   1.414
  183SOL    HW2  574   0.672   0.762   1.434
  184SOL     OW  575   1.493   1.767   0.959
  184SOL    HW1  576   1.526   1.831   0.890
  184SOL    HW2  577   1.559   1.761   1.034
  185SOL     OW  578   0.716   0.565   1.708
  185SOL    HW1  579   0.735   0.630   1.782
  185SOL    HW2  580   0.776   0.485   1.717
  186SOL     OW  581   1.450   1.220   1.633
  186SOL    HW1  582   1.441   1.210   1.732
  186SOL    HW2  583   1.546   1.213   1.607
  187SOL     OW  584   0.390   1.741   1.560
  187SOL    HW1  585   0.299   1.782   1.558
  187SOL    HW2  586   0.383   1.647   1.592
  188SOL     OW  587   1.674   0.883   1.254
  188SOL    HW1  588   1.647   0.794   1.217
  188SOL    HW2  589   1.675   0.951   1.181
  189SOL     OW  590   1.225   0.325   0.449
  189SOL    HW1  591   1.290   0.251   0.438
  189SOL    HW2  592   1.245   0.375   0.533
  190SOL     OW  593   0.594   0.745   0.652
  190SOL    HW1  594   0.644   0.830   0.633
  190SOL    HW2  595   0.506   0.747   0.604
  191SOL     OW  596   1.777   0.342   1.642
  191SOL    HW1  597   1.760   0.373   1.548
  191SOL    HW2  598   1.693   0.305   1.680
  192SOL     OW  599   1.730   0.934   1.517
  192SOL    HW1  600   1.768   1.025   1.532
  192SOL    HW2  601   1.722   0.917   1.418
  193SOL     OW  602   0.859   1.374   0.016
  193SOL    HW1  603   0.813   1.389   0.104
  193SOL    HW2  604   0.903   1.459  -0.014
  194SOL     OW  605   0.661   1.790   0.953
  194SOL    HW1  606   0.615   1.878   0.940
  194SOL    HW2  607   0.760   1.802   0.946
  195SOL     OW  608   0.859   0.956   0.861
  195SOL    HW1  609   0.913   0.887   0.909
  195SOL    HW2  610   0.827   1.025   0.927
  196SOL     OW  611   1.083   0.984   0.087
  196SOL    HW1  612   1.060   1.037   0.005
  196SOL    HW2  613   1.164   0.928   0.068
  197SOL     OW  614   1.861   1.569   0.851
  197SOL    HW1  615   1.790   1.557   0.781
  197SOL    HW2  616   1.862   1.490   0.911
  198SOL     OW  617   0.221   1.314   1.844
  198SOL    HW1  618   0.156   1.241   1.823
  198SOL    HW2  619   0.225   1.328   1.942
  199SOL     OW  620   0.079   1.240   0.653
  199SOL    HW1  621   0.078   1.193   0.741
  199SOL    HW2  622   0.161   1.212   0.602
  200SOL     OW  623   0.672   1.391   1.624
  200SOL    HW1  624   0.594   1.341   1.662
  200SOL    HW2  625   0.669   1.486   1.655
  201SOL     OW  626   1.824   0.192   1.227
  201SOL    HW1  627   1.820   0.102   1.271
  201SOL    HW2  628   1.827   0.181   1.128
  202SOL     OW  629   0.428   0.424   0.520
  202SOL    HW1  630   0.458   0.352   0.458
  202SOL    HW2  631   0.389   0.384   0.603
  203SOL     OW  632   1.705   1.487   1.104
  203SOL    HW1  633   1.612   1.462   1.077
  203SOL    HW2  634   1.731   1.437   1.186
  204SOL     OW  635   0.317   0.547   1.280
  204SOL    HW1  636   0.355   0.488   1.352
  204SOL    HW2  637   0.357   0.521   1.192
  205SOL     OW  638   0.812   1.586   0.687
  205SOL    HW1  639   0.844   1.596   0.593
  205SOL    HW2  640   0.733   1.524   0.689
  206SOL     OW  641   1.424   0.214   1.112
  206SOL    HW1  642   1.476   0.149   1.167
  206SOL    HW2  643   1.375   0.277   1.173
  207SOL     OW  644   1.001   0.034   1.154
  207SOL    HW1  645   0.938  -0.038   1.123
  207SOL    HW2  646   1.094  -0.002   1.154
  208SOL     OW  647   0.770   1.330   0.301
  208SOL    HW1  648   0.724   1.243   0.318
  208SOL    HW2  649   0.861   1.327   0.342
  209SOL     OW  650   0.618   1.567   1.284
  209SOL    HW1  651   0.613   1.649   1.341
  209SOL    HW2  652   0.707   1.564   1.239
  210SOL     OW  653   1.352   0.052   0.168
  210SOL    HW1  654   1.387   0.011   0.084
  210SOL    HW2  655   1.262   0.014   0.188
  211SOL     OW  656   1.300   0.453   0.691
  211SOL    HW1  657   1.241   0.533   0.695
  211SOL    HW2  658   1.315   0.418   0.784
  212SOL     OW  659   1.593   0.221   0.882
  212SOL    HW1  660   1.509   0.220   0.936
  212SOL    HW2  661   1.595   0.304   0.826
  213SOL     OW  662   0.039   1.077   0.300
  213SOL    HW1  663   0.138   1.066   0.291
  213SOL    HW2  664  -0.001   0.991   0.332
  214SOL     OW  665   0.875   1.646   0.337
  214SOL    HW1  666   0.798   1.611   0.283
  214SOL    HW2  667   0.843   1.717   0.399
  215SOL     OW  668   0.230   0.628   1.975
  215SOL    HW1  669   0.137   0.626   2.012
  215SOL    HW2  670   0.231   0.589   1.883
  216SOL     OW  671   0.225   0.275   2.858
  216SOL    HW1  672   0.260   0.258   2.950
  216SOL    HW2  673   0.137   0.230   2.846
  217SOL     OW  674   0.019   0.368   2.509
  217SOL    HW1  675  -0.063   0.411   2.548
  217SOL    HW2  676  -0.009   0.295   2.446
  218SOL     OW  677   0.569   1.275   3.027
  218SOL    HW1  678   0.476   1.268   2.990
  218SOL    HW2  679   0.580   1.364   3.071
  219SOL     OW  680   1.555   1.511   2.565
  219SOL    HW1  681   1.498   1.495   2.646
  219SOL    HW2  682   1.496   1.521   2.485
  220SOL     OW  683   1.135   0.703   2.579
  220SOL    HW1  684   1.192   0.781   2.554
  220SOL    HW2  685   1.075   0.729   2.655
  221SOL     OW  686   1.755   0.607   2.093
  221SOL    HW1  687   1.743   0.594   1.994
  221SOL    HW2  688   1.725   0.526   2.142
  222SOL     OW  689   0.768   1.144   2.885
  222SOL    HW1  690   0.690   1.161   2.945
  222SOL    HW2  691   0.802   1.231   2.849
  223SOL     OW  692   0.850   0.798   3.685
  223SOL    HW1  693   0.846   0.874   3.750
  223SOL    HW2  694   0.872   0.834   3.594
  224SOL     OW  695   0.685   1.012   2.527
  224SOL    HW1  696   0.754   0.996   2.597
  224SOL    HW2  697   0.612   1.069   2.565
  225SOL     OW  698   0.686   1.161   3.665
  225SOL    HW1  699   0.746   1.240   3.679
  225SOL    HW2  700   0.600   1.192   3.624
  226SOL     OW  701   0.335   1.435   2.923
  226SOL    HW1  702   0.257   1.404   2.870
  226SOL    HW2  703   0.393   1.493   2.866
  227SOL     OW  704   1.460   1.505   3.201
  227SOL    HW1  705   1.484   1.599   3.227
  227SOL    HW2  706   1.444   1.451   3.283
  228SOL     OW  707   0.438   0.392   3.361
  228SOL    HW1  708   0.520   0.336   3.370
  228SOL    HW2  709   0.357   0.334   3.365
  229SOL     OW  710   1.603   0.447   2.599
  229SOL    HW1  711   1.529   0.493   2.549
  229SOL    HW2  712   1.654   0.515   2.652
  230SOL     OW  713   0.231   1.713   2.345
  230SOL    HW1  714   0.265   1.790   2.399
  230SOL    HW2  715   0.275   1.713   2.255
  231SOL     OW  716   1.127   1.341   3.552
  231SOL    HW1  717   1.174   1.341   3.640
  231SOL    HW2  718   1.079   1.254   3.541
  232SOL     OW  719   0.230   1.434   2.400
  232SOL    HW1  720   0.204   1.530   2.400
  232SOL    HW2  721   0.159   1.380   2.445
  233SOL     OW  722   0.240   1.091   2.748
  233SOL    HW1  723   0.254   1.007   2.800
  233SOL    HW2  724   0.185   1.155   2.803
  234SOL     OW  725   0.620   1.786   3.301
  234SOL    HW1  726   0.528   1.769   3.336
  234SOL    HW2  727   0.648   1.878   3.327
  235SOL     OW  728   0.606   0.964   1.985
  235SOL    HW1  729   0.613   1.048   1.931
  235SOL    HW2  730   0.652   0.977   2.073
  236SOL     OW  731   1.594   0.114   3.342
  236SOL    HW1  732   1.576   0.181   3.270
  236SOL    HW2  733   1.591   0.160   3.431
  237SOL     OW  734   0.122   0.643   2.425
  237SOL    HW1  735   0.077   0.555   2.442
  237SOL    HW2  736   0.121   0.697   2.509
  238SOL     OW  737   1.842   1.767   2.221
  238SOL    HW1  738   1.896   1.738   2.301
  238SOL    HW2  739   1.872   1.857   2.192
  239SOL     OW  740   0.027   1.596   1.979
  239SOL    HW1  741   0.008   1.500   2.000
  239SOL    HW2  742  -0.006   1.654   2.054
  240SOL     OW  743   1.689   0.922   2.474
  240SOL    HW1  744   1.784   0.893   2.482
  240SOL    HW2  745   1.681   0.987   2.399
  241SOL     OW  746   1.641   1.108   2.294
  241SOL    HW1  747   1.727   1.110   2.242
  241SOL    HW2  748   1.655   1.155   2.382
  242SOL     OW  749   0.113   0.737   3.459
  242SOL    HW1  750   0.201   0.724   3.504
  242SOL    HW2  751   0.100   0.834   3.437
  243SOL     OW  752   0.613   1.365   2.588
  243SOL    HW1  753   0.564   1.278   2.597
  243SOL    HW2  754   0.590   1.408   2.501
  244SOL     OW  755   1.293   1.228   3.285
  244SOL    HW1  756   1.330   1.155   3.227
  244SOL    HW2  757   1.345   1.233   3.370
  245SOL     OW  758   0.809   0.004   2.364
  245SOL    HW1  759   0.849   0.095   2.355
  245SOL    HW2  760   0.709   0.012   2.370
  246SOL     OW  761   0.197   0.976   3.126
  246SOL    HW1  762   0.286   0.931   3.112
  246SOL    HW2  763   0.124   0.911   3.107
  247SOL     OW  764   1.525   0.999   2.052
  247SOL    HW1  765   1.462   0.923   2.065
  247SOL    HW2  766   1.573   1.017   2.138
  248SOL     OW  767   1.187   1.792   3.478
  248SOL    HW1  768   1.211   1.852   3.402
  248SOL    HW2  769   1.194   1.697   3.448
  249SOL     OW  770   0.317   0.251   3.663
  249SOL    HW1  771   0.388   0.322   3.669
  249SOL    HW2  772   0.229   0.290   3.691
  250SOL     OW  773   1.466   1.417   2.815
  250SOL    HW1  774   1.407   1.423   2.895
  250SOL    HW2  775   1.451   1.329   2.769
  251SOL     OW  776   1.667   1.714   2.434
  251SOL    HW1  777   1.626   1.691   2.346
  251SOL    HW2  778   1.649   1.640   2.499
  252SOL     OW  779   0.598   0.729   2.132
  252SOL    HW1  780   0.622   0.798   2.064
  252SOL    HW2  781   0.520   0.762   2.186
  253SOL     OW  782   1.281   0.345   2.806
  253SOL    HW1  783   1.195   0.295   2.793
  253SOL    HW2  784   1.343   0.291   2.862
  254SOL     OW  785   1.576   1.662   2.169
  254SOL    HW1  786   1.665   1.708   2.172
  254SOL    HW2  787   1.555   1.638   2.074
  255SOL     OW  788   0.807   0.605   3.327
  255SOL    HW1  789   0.760   0.602   3.416
  255SOL    HW2  790   0.756   0.550   3.261
  256SOL     OW  791   1.394   0.469   3.536
  256SOL    HW1  792   1.374   0.512   3.624
  256SOL    HW2  793   1.472   0.407   3.545
  257SOL     OW  794   0.973   0.890   3.434
  257SOL    HW1  795   1.019   0.806   3.405
  257SOL    HW2  796   0.917   0.924   3.359
  258SOL     OW  797   0.991   0.410   3.104
  258SOL    HW1  798   0.914   0.444   3.158
  258SOL    HW2  799   0.957   0.359   3.025
  259SOL     OW  800   1.041   0.701   2.291
  259SOL    HW1  801   1.067   0.697   2.387
  259SOL    HW2  802   0.956   0.650   2.277
  260SOL     OW  803   0.076   0.811   2.651
  260SOL    HW1  804   0.175   0.799   2.660
  260SOL    HW2  805   0.052   0.906   2.672
  261SOL     OW  806   0.130   1.821   3.433
  261SOL    HW1  807   0.120   1.806   3.532
  261SOL    HW2  808   0.044   1.857   3.397
  262SOL     OW  809   0.865   0.348   2.057
  262SOL    HW1  810   0.924   0.411   2.008
  262SOL    HW2  811   0.884   0.254   2.028
  263SOL     OW  812   1.719   0.585   3.693
  263SOL    HW1  813   1.693   0.674   3.657
  263SOL    HW2  814   1.717   0.517   3.620
  264SOL     OW  815   1.362   1.144   2.407
  264SOL    HW1  816   1.445   1.115   2.359
  264SOL    HW2  817   1.313   1.211   2.351
  265SOL     OW  818   0.550   0.196   2.747
  265SOL    HW1  819   0.545   0.191   2.847
  265SOL    HW2  820   0.552   0.292   2.718
  266SOL     OW  821   1.008   1.456   2.339
  266SOL    HW1  822   0.962   1.528   2.287
  266SOL    HW2  823   1.004   1.476   2.437
  267SOL     OW  824   0.351   1.801   2.715
  267SOL    HW1  825   0.401   1.715   2.721
  267SOL    HW2  826   0.416   1.878   2.712
  268SOL     OW  827   1.795   1.066   2.735
  268SOL    HW1  828   1.733   1.051   2.659
  268SOL    HW2  829   1.743   1.077   2.820
  269SOL     OW  830   1.227   1.550   3.368
  269SOL    HW1  831   1.233   1.473   3.432
  269SOL    HW2  832   1.175   1.524   3.288
  270SOL     OW  833   0.321   0.943   2.104
  270SOL    HW1  834   0.403   0.982   2.062
  270SOL    HW2  835   0.294   0.861   2.055
  271SOL     OW  836   1.458   0.735   2.590
  271SOL    HW1  837   1.453   0.670   2.665
  271SOL    HW2  838   1.538   0.794   2.603
  272SOL     OW  839   0.461   1.266   3.589
  272SOL    HW1  840   0.411   1.267   3.503
  272SOL    HW2  841   0.398   1.248   3.665
  273SOL     OW  842   1.111   1.776   2.099
  273SOL    HW1  843   1.051   1.714   2.149
  273SOL    HW2  844   1.142   1.732   2.014
  274SOL     OW  845   0.202   0.285   3.360
  274SOL    HW1  846   0.122   0.345   3.347
  274SOL    HW2  847   0.192   0.236   3.446
  275SOL     OW  848   1.632   1.377   1.943
  275SOL    HW1  849   1.600   1.471   1.933
  275SOL    HW2  850   1.556   1.314   1.931
  276SOL     OW  851   0.464   1.743   2.185
  276SOL    HW1  852   0.497   1.782   2.271
  276SOL    HW2  853   0.540   1.736   2.120
  277SOL     OW  854   1.400   0.107   2.288
  277SOL    HW1  855   1.376   0.070   2.198
  277SOL    HW2  856   1.499   0.123   2.292
  278SOL     OW  857   0.249   1.785   3.103
  278SOL    HW1  858   0.306   1.720   3.153
  278SOL    HW2  859   0.233   1.752   3.010
  279SOL     OW  860   0.940   1.698   2.766
  279SOL    HW1  861   1.020   1.641   2.787
  279SOL    HW2  862   0.891   1.658   2.689
  280SOL     OW  863   0.382   0.700   2.342
  280SOL    HW1  864   0.427   0.610   2.339
  280SOL    HW2  865   0.288   0.689   2.375
  281SOL     OW  866   1.547   0.222   3.591
  281SOL    HW1  867   1.542   0.259   3.683
  281SOL    HW2  868   1.475   0.153   3.579
  282SOL     OW  869   0.614   0.122   1.979
  282SOL    HW1  870   0.712   0.100   1.986
  282SOL    HW2  871   0.583   0.105   1.886
  283SOL     OW  872   0.781   0.264   3.611
  283SOL    HW1  873   0.848   0.203   3.654
  283SOL    HW2  874   0.708   0.283   3.676
  284SOL     OW  875   0.888   1.514   3.057
  284SOL    HW1  876   0.865   1.489   2.963
  284SOL    HW2  877   0.949   1.445   3.096
  285SOL     OW  878   1.351   0.590   3.295
  285SOL    HW1  879   1.379   0.547   3.380
  285SOL    HW2  880   1.376   0.686   3.296
  286SOL     OW  881   0.803   1.402   2.786
  286SOL    HW1  882   0.893   1.416   2.744
  286SOL    HW2  883   0.732   1.404   2.715
  287SOL     OW  884   0.922   0.503   2.761
  287SOL    HW1  885   0.897   0.494   2.665
  287SOL    HW2  886   0.970   0.421   2.792
  288SOL     OW  887   0.539   0.064   2.374
  288SOL    HW1  888   0.458   0.065   2.432
  288SOL    HW2  889   0.542   0.147   2.319
  289SOL     OW  890   1.434   1.188   1.903
  289SOL    HW1  891   1.466   1.112   1.960
  289SOL    HW2  892   1.342   1.215   1.933
  290SOL     OW  893   0.297   0.035   2.033
  290SOL    HW1  894   0.346   0.119   2.012
  290SOL    HW2  895   0.359  -0.030   2.078
  291SOL     OW  896   0.935   0.236   2.342
  291SOL    HW1  897   0.887   0.277   2.264
  291SOL    HW2  898   1.034   0.234   2.323
  292SOL     OW  899   1.076   0.683   3.326
  292SOL    HW1  900   0.996   0.622   3.329
  292SOL    HW2  901   1.157   0.630   3.302
  293SOL     OW  902   1.227   1.570   2.655
  293SOL    HW1  903   1.248   1.644   2.590
  293SOL    HW2  904   1.295   1.570   2.728
  294SOL     OW  905   0.459   1.152   2.603
  294SOL    HW1  906   0.388   1.125   2.668
  294SOL    HW2  907   0.433   1.124   2.510
  295SOL     OW  908   1.271   1.797   2.453
  295SOL    HW1  909   1.315   1.861   2.389
  295SOL    HW2  910   1.221   1.849   2.523
  296SOL     OW  911   1.032   0.549   1.878
  296SOL    HW1  912   0.991   0.631   1.839
  296SOL    HW2  913   1.096   0.575   1.951
  297SOL     OW  914   0.078   0.556   3.248
  297SOL    HW1  915   0.170   0.555   3.207
  297SOL    HW2  916   0.072   0.630   3.315
  298SOL     OW  917   0.561   0.222   3.009
  298SOL    HW1  918   0.599   0.138   3.046
  298SOL    HW2  919   0.473   0.241   3.053
  299SOL     OW  920   0.866   0.454   2.504
  299SOL    HW1  921   0.834   0.526   2.442
  299SOL    HW2  922   0.890   0.373   2.451
  300SOL     OW  923   1.017   0.039   2.615
  300SOL    HW1  924   0.945   0.044   2.546
  300SOL    HW2  925   0.993  -0.030   2.684
  301SOL     OW  926   1.429   1.173   2.729
  301SOL    HW1  927   1.374   1.089   2.722
  301SOL    HW2  928   1.455   1.202   2.637
  302SOL     OW  929   1.466   0.590   2.854
  302SOL    HW1  930   1.436   0.495   2.861
  302SOL    HW2  931   1.539   0.606   2.920
  303SOL     OW  932   1.857   0.833   2.239
  303SOL    HW1  933   1.899   0.769   2.303
  303SOL    HW2  934   1.819   0.782   2.161
  304SOL     OW  935   0.488   1.385   2.036
  304SOL    HW1  936   0.401   1.370   2.083
  304SOL    HW2  937   0.471   1.411   1.941
  305SOL     OW  938   1.664   1.280   2.519
  305SOL    HW1  939   1.763   1.288   2.533
  305SOL    HW2  940   1.619   1.364   2.550
  306SOL     OW  941   1.390   0.575   1.940
  306SOL    HW1  942   1.336   0.554   2.021
  306SOL    HW2  943   1.481   0.534   1.949
  307SOL     OW  944   0.527   0.256   2.190
  307SOL    HW1  945   0.554   0.197   2.115
  307SOL    HW2  946   0.527   0.351   2.159
  308SOL     OW  947   1.754   1.223   3.450
  308SOL    HW1  948   1.845   1.184   3.437
  308SOL    HW2  949   1.762   1.319   3.474
  309SOL     OW  950   1.064   1.347   3.202
  309SOL    HW1  951   0.984   1.324   3.257
  309SOL    HW2  952   1.147   1.321   3.251
  310SOL     OW  953   1.592   1.629   3.487
  310SOL    HW1  954   1.619   1.663   3.397
  310SOL    HW2  955   1.671   1.591   3.533
  311SOL     OW  956   1.111   1.195   2.962
  311SOL    HW1  957   1.071   1.239   3.043
  311SOL    HW2  958   1.070   1.232   2.879
  312SOL     OW  959   1.638   1.099   2.941
  312SOL    HW1  960   1.643   1.180   3.000
  312SOL    HW2  961   1.552   1.101   2.890
  313SOL     OW  962   0.915   0.089   3.264
  313SOL    HW1  963   0.940   0.069   3.169
  313SOL    HW2  964   0.987   0.145   3.306
  314SOL     OW  965   0.980   1.116   3.581
  314SOL    HW1  966   0.881   1.122   3.591
  314SOL    HW2  967   1.003   1.036   3.525
  315SOL     OW  968   0.705   1.050   2.230
  315SOL    HW1  969   0.691   1.057   2.329
  315SOL    HW2  970   0.789   0.999   2.212
  316SOL     OW  971   0.410   0.813   3.113
  316SOL    HW1  972   0.496   0.825   3.163
  316SOL    HW2  973   0.368   0.726   3.140
  317SOL     OW  974   1.274   0.386   3.124
  317SOL    HW1  975   1.295   0.460   3.188
  317SOL    HW2  976   1.185   0.403   3.081
  318SOL     OW  977   0.064   1.564   3.193
  318SOL    HW1  978   0.018   1.646   3.159
  318SOL    HW2  979   0.162   1.583   3.202
  319SOL     OW  980   0.367   1.100   2.363
  319SOL    HW1  981   0.360   1.183   2.307
  319SOL    HW2  982   0.371   1.020   2.303
  320SOL     OW  983   0.566   0.537   2.727
  320SOL    HW1  984   0.578   0.603   2.653
  320SOL    HW2  985   0.612   0.571   2.810
  321SOL     OW  986   1.252   1.348   2.250
  321SOL    HW1  987   1.302   1.425   2.290
  321SOL    HW2  988   1.157   1.350   2.282
  322SOL     OW  989   1.272   1.445   3.004
  322SOL    HW1  990   1.319   1.458   3.091
  322SOL    HW2  991   1.206   1.371   3.013
  323SOL     OW  992   1.582   0.639   2.334
  323SOL    HW1  993   1.551   0.700   2.407
  323SOL    HW2  994   1.632   0.691   2.265
  324SOL     OW  995   0.354   1.510   3.191
  324SOL    HW1  996   0.333   1.466   3.104
  324SOL    HW2  997   0.451   1.536   3.194
  325SOL     OW  998   0.402   0.751   3.460
  325SOL    HW1  999   0.470   0.806   3.413
  325SOL    HW2 1000   0.442   0.663   3.487
  326SOL     OW 1001   1.587   0.779   3.532
  326SOL    HW1 1002   1.495   0.817   3.527
  326SOL    HW2 1003   1.647   0.826   3.467
  327SOL     OW 1004   1.013   0.105   3.632
  327SOL    HW1 1005   1.019   0.190   3.580
  327SOL    HW2 1006   1.045   0.029   3.575
  328SOL     OW 1007   0.504   0.050   3.602
  328SOL    HW1 1008   0.462  -0.007   3.532
  328SOL    HW2 1009   0.438   0.119   3.634
  329SOL     OW 1010   0.573   0.870   2.891
  329SOL    HW1 1011   0.617   0.959   2.882
  329SOL    HW2 1012   0.510   0.870   2.968
  330SOL     OW 1013   1.360   0.862   2.907
  330SOL    HW1 1014   1.285   0.862   2.841
  330SOL    HW2 1015   1.397   0.770   2.916
  331SOL     OW 1016   1.209   0.525   2.137
  331SOL    HW1 1017   1.222   0.441   2.191
  331SOL    HW2 1018   1.180   0.599   2.197
  332SOL     OW 1019   0.307   0.213   3.093
  332SOL    HW1 1020   0.284   0.250   3.183
  332SOL    HW2 1021   0.277   0.118   3.087
  333SOL     OW 1022   0.037   1.310   3.144
  333SOL    HW1 1023   0.090   1.261   3.212
  333SOL    HW2 1024   0.059   1.408   3.149
  334SOL     OW 1025   0.732   0.634   2.926
  334SOL    HW1 1026   0.791   0.608   2.850
  334SOL    HW2 1027   0.704   0.730   2.915
  335SOL     OW 1028   1.728   0.935   3.716
  335SOL    HW1 1029   1.682   0.928   3.627
  335SOL    HW2 1030   1.666   0.979   3.782
  336SOL     OW 1031   0.307   0.063   2.480
  336SOL    HW1 1032   0.296   0.157   2.513
  336SOL    HW2 1033   0.302   0.000   2.557
  337SOL     OW 1034   1.622   0.367   2.236
  337SOL    HW1 1035   1.624   0.291   2.300
  337SOL    HW2 1036   1.574   0.444   2.276
  338SOL     OW 1037   1.023   0.766   2.828
  338SOL    HW1 1038   1.038   0.787   2.924
  338SOL    HW2 1039   0.993   0.671   2.819
  339SOL     OW 1040   0.980   1.573   3.562
  339SOL    HW1 1041   0.960   1.617   3.474
  339SOL    HW2 1042   1.019   1.482   3.546
  340SOL     OW 1043   1.859   1.518   3.467
  340SOL    HW1 1044   1.873   1.545   3.372
  340SOL    HW2 1045   1.942   1.540   3.520
  341SOL     OW 1046   0.350   0.898   3.666
  341SOL    HW1 1047   0.426   0.942   3.714
  341SOL    HW2 1048   0.385   0.851   3.584
  342SOL     OW 1049   1.540   0.274   1.987
  342SOL    HW1 1050   1.479   0.199   2.010
  342SOL    HW2 1051   1.562   0.326   2.070
  343SOL     OW 1052   1.303   0.838   1.904
  343SOL    HW1 1053   1.337   0.745   1.919
  343SOL    HW2 1054   1.321   0.865   1.809
  344SOL     OW 1055   1.068   1.333   2.711
  344SOL    HW1 1056   1.075   1.249   2.656
  344SOL    HW2 1057   1.130   1.402   2.675
  345SOL     OW 1058   0.319   0.810   2.811
  345SOL    HW1 1059   0.412   0.846   2.816
  345SOL    HW2 1060   0.313   0.725   2.863
  346SOL     OW 1061   0.339   0.509   2.868
  346SOL    HW1 1062   0.287   0.426   2.851
  346SOL    HW2 1063   0.416   0.514   2.804
  347SOL     OW 1064   1.138   0.380   3.540
  347SOL    HW1 1065   1.093   0.443   3.604
  347SOL    HW2 1066   1.231   0.411   3.523
  348SOL     OW 1067   1.160   0.207   3.339
  348SOL    HW1 1068   1.160   0.271   3.416
  348SOL    HW2 1069   1.188   0.255   3.256
  349SOL     OW 1070   0.008   1.326   2.062
  349SOL    HW1 1071  -0.085   1.347   2.031
  349SOL    HW2 1072   0.018   1.227   2.075
  350SOL     OW 1073   0.088   1.801   2.789
  350SOL    HW1 1074   0.046   1.715   2.762
  350SOL    HW2 1075   0.182   1.804   2.755
  351SOL     OW 1076   0.504   1.568   2.772
  351SOL    HW1 1077   0.570   1.642   2.781
  351SOL    HW2 1078   0.548   1.489   2.730
  352SOL     OW 1079   1.002   0.796   3.100
  352SOL    HW1 1080   1.043   0.764   3.186
  352SOL    HW2 1081   0.906   0.769   3.097
  353SOL     OW 1082   0.040   0.544   2.976
  353SOL    HW1 1083   0.125   0.511   2.935
  353SOL    HW2 1084   0.053   0.559   3.074
  354SOL     OW 1085   0.189   0.520   3.584
  354SOL    HW1 1086   0.248   0.480   3.514
  354SOL    HW2 1087   0.131   0.591   3.543
  355SOL     OW 1088   1.369   0.950   3.522
  355SOL    HW1 1089   1.408   1.039   3.542
  355SOL    HW2 1090   1.379   0.930   3.425
  356SOL     OW 1091   0.815   0.572   2.187
  356SOL    HW1 1092   0.822   0.483   2.141
  356SOL    HW2 1093   0.721   0.606   2.179
  357SOL     OW 1094   1.657   0.604   3.068
  357SOL    HW1 1095   1.619   0.535   3.130
  357SOL    HW2 1096   1.739   0.568   3.024
  358SOL     OW 1097   0.252   1.564   3.606
  358SOL    HW1 1098   0.222   1.621   3.682
  358SOL    HW2 1099   0.245   1.467   3.632
  359SOL     OW 1100   0.671   0.464   3.131
  359SOL    HW1 1101   0.637   0.375   3.101
  359SOL    HW2 1102   0.697   0.518   3.051
  360SOL     OW 1103   0.930   1.678   3.327
  360SOL    HW1 1104   0.906   1.660   3.232
  360SOL    HW2 1105   0.960   1.772   3.337
  361SOL     OW 1106   0.473   0.500   2.053
  361SOL    HW1 1107   0.534   0.580   2.057
  361SOL    HW2 1108   0.378   0.531   2.060
  362SOL     OW 1109   0.159   1.137   3.328
  362SOL    HW1 1110   0.181   1.076   3.404
  362SOL    HW2 1111   0.169   1.088   3.242
  363SOL     OW 1112   1.347   1.059   3.096
  363SOL    HW1 1113   1.371   0.996   3.022
  363SOL    HW2 1114   1.257   1.099   3.078
  364SOL     OW 1115   1.302   0.855   2.171
  364SOL    HW1 1116   1.216   0.824   2.213
  364SOL    HW2 1117   1.298   0.841   2.072
  365SOL     OW 1118   1.759   1.747   3.016
  365SOL    HW1 1119   1.820   1.777   2.943
  365SOL    HW2 1120   1.721   1.658   2.994
  366SOL     OW 1121   1.252   1.731   2.990
  366SOL    HW1 1122   1.336   1.736   2.936
  366SOL    HW2 1123   1.229   1.635   3.008
  367SOL     OW 1124   0.083   1.258   2.884
  367SOL    HW1 1125   0.078   1.257   2.984
  367SOL    HW2 1126   0.000   1.217   2.846
  368SOL     OW 1127   0.688   1.662   3.578
  368SOL    HW1 1128   0.632   1.743   3.587
  368SOL    HW2 1129   0.740   1.666   3.492
  369SOL     OW 1130   1.726   0.135   2.385
  369SOL    HW1 1131   1.799   0.118   2.318
  369SOL    HW2 1132   1.695   0.048   2.423
  370SOL     OW 1133   1.388   1.573   2.339
  370SOL    HW1 1134   1.455   1.585   2.265
  370SOL    HW2 1135   1.348   1.662   2.362
  371SOL     OW 1136   0.130   1.794   3.713
  371SOL    HW1 1137   0.089   1.720   3.766
  371SOL    HW2 1138   0.194   1.845   3.771
  372SOL     OW 1139   1.280   0.927   2.534
  372SOL    HW1 1140   1.340   0.846   2.536
  372SOL    HW2 1141   1.320   0.996   2.474
  373SOL     OW 1142   0.830   1.273   3.284
  373SOL    HW1 1143   0.825   1.306   3.379
  373SOL    HW2 1144   0.744   1.292   3.238
  374SOL     OW 1145   0.672   1.616   2.016
  374SOL    HW1 1146   0.681   1.626   1.917
  374SOL    HW2 1147   0.632   1.527   2.037
  375SOL     OW 1148   1.650   1.720   3.256
  375SOL    HW1 1149   1.703   1.730   3.172
  375SOL    HW2 1150   1.623   1.810   3.290
  376SOL     OW 1151   1.841   0.175   2.825
  376SOL    HW1 1152   1.880   0.090   2.789
  376SOL    HW2 1153   1.743   0.177   2.806
  377SOL     OW 1154   0.263   0.326   2.582
  377SOL    HW1 1155   0.184   0.377   2.548
  377SOL    HW2 1156   0.254   0.311   2.680
  378SOL     OW 1157   1.194   1.612   1.893
  378SOL    HW1 1158   1.200   1.519   1.930
  378SOL    HW2 1159   1.135   1.612   1.813
  379SOL     OW 1160   0.822   1.002   3.234
  379SOL    HW1 1161   0.862   1.001   3.142
  379SOL    HW2 1162   0.832   1.094   3.274
  380SOL     OW 1163   0.916   0.910   2.153
  380SOL    HW1 1164   0.979   0.948   2.085
  380SOL    HW2 1165   0.956   0.827   2.192
  381SOL     OW 1166   1.504   1.607   1.906
  381SOL    HW1 1167   1.412   1.644   1.913
  381SOL    HW2 1168   1.542   1.627   1.816
  382SOL     OW 1169   0.372   1.288   3.352
  382SOL    HW1 1170   0.359   1.381   3.318
  382SOL    HW2 1171   0.288   1.236   3.339
  383SOL     OW 1172   1.614   1.292   3.151
  383SOL    HW1 1173   1.674   1.295   3.231
  383SOL    HW2 1174   1.539   1.356   3.164
  384SOL     OW 1175   1.039   1.098   2.558
  384SOL    HW1 1176   0.969   1.051   2.612
  384SOL    HW2 1177   1.098   1.030   2.515
  385SOL     OW 1178   1.014   0.236   2.833
  385SOL    HW1 1179   1.006   0.200   2.740
  385SOL    HW2 1180   1.012   0.160   2.898
  386SOL     OW 1181   0.590   1.487   2.353
  386SOL    HW1 1182   0.632   1.429   2.283
  386SOL    HW2 1183   0.546   1.566   2.309
  387SOL     OW 1184   1.709   0.385   3.243
  387SOL    HW1 1185   1.782   0.454   3.247
  387SOL    HW2 1186   1.737   0.310   3.184
  388SOL     OW 1187   0.255   1.348   2.152
  388SOL    HW1 1188   0.159   1.349   2.125
  388SOL    HW2 1189   0.267   1.401   2.236
  389SOL     OW 1190   0.105   1.013   3.588
  389SOL    HW1 1191   0.028   0.980   3.642
  389SOL    HW2 1192   0.190   0.983   3.630
  390SOL     OW 1193   0.672   0.203   3.351
  390SOL    HW1 1194   0.762   0.187   3.311
  390SOL    HW2 1195   0.680   0.208   3.450
  391SOL     OW 1196   0.075   0.345   1.895
  391SOL    HW1 1197  -0.017   0.317   1.866
  391SOL    HW2 1198   0.106   0.422   1.839
  392SOL     OW 1199   1.440   0.856   3.260
  392SOL    HW1 1200   1.383   0.908   3.197
  392SOL    HW2 1201   1.536   0.868   3.236
  393SOL     OW 1202   0.072   0.166   2.180
  393SOL    HW1 1203   0.055   0.249   2.126
  393SOL    HW2 1204   0.162   0.129   2.158
  394SOL     OW 1205   1.183   1.335   1.981
  394SOL    HW1 1206   1.084   1.324   1.983
  394SOL    HW2 1207   1.217   1.350   2.074
  395SOL     OW 1208   0.613   0.842   3.293
  395SOL    HW1 1209   0.669   0.923   3.276
  395SOL    HW2 1210   0.672   0.762   3.296
  396SOL     OW 1211   1.493   1.767   2.821
  396SOL    HW1 1212   1.526   1.831   2.752
  396SOL    HW2 1213   1.559   1.761   2.896
  397SOL     OW 1214   0.716   0.565   3.570
  397SOL    HW1 1215   0.735   0.630   3.644
  397SOL    HW2 1216   0.776   0.485   3.579
  398SOL     OW 1217   1.450   1.220   3.495
  398SOL    HW1 1218   1.441   1.210   3.594
  398SOL    HW2 1219   1.546   1.213   3.469
  399SOL     OW 1220   0.390   1.741   3.422
  399SOL    HW1 1221   0.299   1.782   3.420
  399SOL    HW2 1222   0.383   1.647   3.454
  400SOL     OW 1223   1.674   0.883   3.116
  400SOL    HW1 1224   1.647   0.794   3.079
  400SOL    HW2 1225   1.675   0.951   3.043
  401SOL     OW 1226   1.225   0.325   2.311
  401SOL    HW1 1227   1.290   0.251   2.300
  401SOL    HW2 1228   1.245   0.375   2.395
  402SOL     OW 1229   0.594   0.745   2.514
  402SOL    HW1 1230   0.644   0.830   2.495
  402SOL    HW2 1231   0.506   0.747   2.466
  403SOL     OW 1232   1.777   0.342   3.504
  403SOL    HW1 1233   1.760   0.373   3.410
  403SOL    HW2 1234   1.693   0.305   3.542
  404SOL     OW 1235   1.730   0.934   3.379
  404SOL    HW1 1236   1.768   1.025   3.394
  404SOL    HW2 1237   1.722   0.917   3.280
  405SOL     OW 1238   0.859   1.374   1.878
  405SOL    HW1 1239   0.813   1.389   1.966
  405SOL    HW2 1240   0.903   1.459   1.848
  406SOL     OW 1241   0.661   1.790   2.815
  406SOL    HW1 1242   0.615   1.878   2.802
  406SOL    HW2 1243   0.760   1.802   2.808
  407SOL     OW 1244   0.859   0.956   2.723
  407SOL    HW1 1245   0.913   0.887   2.771
  407SOL    HW2 1246   0.827   1.025   2.789
  408SOL     OW 1247   1.083   0.984   1.949
  408SOL    HW1 1248   1.060   1.037   1.867
  408SOL    HW2 1249   1.164   0.928   1.930
  409SOL     OW 1250   1.861   1.569   2.713
  409SOL    HW1 1251   1.790   1.557   2.643
  409SOL    HW2 1252   1.862   1.490   2.773
  410SOL     OW 1253   0.221   1.314   3.706
  410SOL    HW1 1254   0.156   1.241   3.685
  410SOL    HW2 1255   0.225   1.328   3.804
  411SOL     OW 1256   0.079   1.240   2.515
  411SOL    HW1 1257   0.078   1.193   2.603
  411SOL    HW2 1258   0.161   1.212   2.464
  412SOL     OW 1259   0.672   1.391   3.486
  412SOL    HW1 1260   0.594   1.341   3.524
  412SOL    HW2 1261   0.669   1.486   3.517
  413SOL     OW 1262   1.824   0.192   3.089
  413SOL    HW1 1263   1.820   0.102   3.133
  413SOL    HW2 1264   1.827   0.181   2.990
  414SOL     OW 1265   0.428   0.424   2.382
  414SOL    HW1 1266   0.458   0.352   2.320
  414SOL    HW2 1267   0.389   0.384   2.465
  415SOL     OW 1268   1.705   1.487   2.966
  415SOL    HW1 1269   1.612   1.462   2.939
  415SOL    HW2 1270   1.731   1.437   3.048
  416SOL     OW 1271   0.317   0.547   3.142
  416SOL    HW1 1272   0.355   0.488   3.214
  416SOL    HW2 1273   0.357   0.521   3.054
  417SOL     OW 1274   0.812   1.586   2.549
  417SOL    HW1 1275   0.844   1.596   2.455
  417SOL    HW2 1276   0.733   1.524   2.551
  418SOL     OW 1277   1.424   0.214   2.974
  418SOL    HW1 1278   1.476   0.149   3.029
  418SOL    HW2 1279   1.375   0.277   3.035
  419SOL     OW 1280   1.001   0.034   3.016
  419SOL    HW1 1281   0.938  -0.038   2.985
  419SOL    HW2 1282   1.094  -0.002   3.016
  420SOL     OW 1283   0.770   1.330   2.163
  420SOL    HW1 1284   0.724   1.243   2.180
  420SOL    HW2 1285   0.861   1.327   2.204
  421SOL     OW 1286   0.618   1.567   3.146
  421SOL    HW1 1287   0.613   1.649   3.203
  421SOL    HW2 1288   0.707   1.564   3.101
  422SOL     OW 1289   1.352   0.052   2.030
  422SOL    HW1 1290   1.387   0.011   1.946
  422SOL    HW2 1291   1.262   0.014   2.050
  423SOL     OW 1292   1.300   0.453   2.553
  423SOL    HW1 1293   1.241   0.533   2.557
  423SOL    HW2 1294   1.315   0.418   2.646
  424SOL     OW 1295   1.593   0.221   2.744
  424SOL    HW1 1296   1.509   0.220   2.798
  424SOL    HW2 1297   1.595   0.304   2.688
  425SOL     OW 1298   0.039   1.077   2.162
  425SOL    HW1 1299   0.138   1.066   2.153
  425SOL    HW2 1300  -0.001   0.991   2.194
  426SOL     OW 1301   0.875   1.646   2.199
  426SOL    HW1 1302   0.798   1.611   2.145
  426SOL    HW2 1303   0.843   1.717   2.261
  427SOL     OW 1304   0.230   0.628   3.837
  427SOL    HW1 1305   0.137   0.626   3.874
  427SOL    HW2 1306   0.231   0.589   3.745
  428SOL     OW 1307   0.225   0.275   4.720
  428SOL    HW1 1308   0.260   0.258   4.812
  428SOL    HW2 1309   0.137   0.230   4.708
  429SOL     OW 1310   0.019   0.368   4.371
  429SOL    HW1 1311  -0.063   0.411   4.410
  429SOL    HW2 1312  -0.009   0.295   4.308
  430SOL     OW 1313   0.569   1.275   4.889
  430SOL    HW1 1314   0.476   1.268   4.852
  430SOL    HW2 1315   0.580   1.364   4.933
  431SOL     OW 1316   1.555   1.511   4.427
  431SOL    HW1 1317   1.498   1.495   4.508
  431SOL    HW2 1318   1.496   1.521   4.347
  432SOL     OW 1319   1.135   0.703   4.441
  432SOL    HW1 1320   1.192   0.781   4.416
  432SOL    HW2 1321   1.075   0.729   4.517
  433SOL     OW 1322   1.755   0.607   3.955
  433SOL    HW1 1323   1.743   0.594   3.856
  433SOL    HW2 1324   1.725   0.526   4.004
  434SOL     OW 1325   0.768   1.144   4.747
  434SOL    HW1 1326   0.690   1.161   4.807
  434SOL    HW2 1327   0.802   1.231   4.711
  435SOL     OW 1328   0.685   1.012   4.389
  435SOL    HW1 1329   0.754   0.996   4.459
  435SOL    HW2 1330   0.612   1.069   4.427
  436SOL     OW 1331   0.335   1.435   4.785
  436SOL    HW1 1332   0.257   1.404   4.732
  436SOL    HW2 1333   0.393   1.493   4.728
  437SOL     OW 1334   0.438   0.392   5.223
  437SOL    HW1 1335   0.520   0.336   5.232
  437SOL    HW2 1336   0.357   0.334   5.227
  438SOL     OW 1337   1.603   0.447   4.461
  438SOL    HW1 1338   1.529   0.493   4.411
  438SOL    HW2 1339   1.654   0.515   4.514
  439SOL     OW 1340   0.231   1.713   4.207
  439SOL    HW1 1341   0.265   1.790   4.261
  439SOL    HW2 1342   0.275   1.713   4.117
  440SOL     OW 1343   0.230   1.434   4.262
  440SOL    HW1 1344   0.204   1.530   4.262
  440SOL    HW2 1345   0.159   1.380   4.307
  441SOL     OW 1346   0.240   1.091   4.610
  441SOL    HW1 1347   0.254   1.007   4.662
  441SOL    HW2 1348   0.185   1.155   4.665
  442SOL     OW 1349   0.620   1.786   5.163
  442SOL    HW1 1350   0.528   1.769   5.198
  442SOL    HW2 1351   0.648   1.878   5.189
  443SOL     OW 1352   0.606   0.964   3.847
  443SOL    HW1 1353   0.613   1.048   3.793
  443SOL    HW2 1354   0.652   0.977   3.935
  444SOL     OW 1355   0.122   0.643   4.287
  444SOL    HW1 1356   0.077   0.555   4.304
  444SOL    HW2 1357   0.121   0.697   4.371
  445SOL     OW 1358   1.842   1.767   4.083
  445SOL    HW1 1359   1.896   1.738   4.163
  445SOL    HW2 1360   1.872   1.857   4.054
  446SOL     OW 1361   0.027   1.596   3.841
  446SOL    HW1 1362   0.008   1.500   3.862
  446SOL    HW2 1363  -0.006   1.654   3.916
  447SOL     OW 1364   1.689   0.922   4.336
  447SOL    HW1 1365   1.784   0.893   4.344
  447SOL    HW2 1366   1.681   0.987   4.261
  448SOL     OW 1367   1.641   1.108   4.156
  448SOL    HW1 1368   1.727   1.110   4.104
  448SOL    HW2 1369   1.655   1.155   4.244
  449SOL     OW 1370   0.613   1.365   4.450
  449SOL    HW1 1371   0.564   1.278   4.459
  449SOL    HW2 1372   0.590   1.408   4.363
  450SOL     OW 1373   0.809   0.004   4.226
  450SOL    HW1 1374   0.849   0.095   4.217
  450SOL    HW2 1375   0.709   0.012   4.232
  451SOL     OW 1376   0.197   0.976   4.988
  451SOL    HW1 1377   0.286   0.931   4.974
  451SOL    HW2 1378   0.124   0.911   4.969
  452SOL     OW 1379   1.525   0.999   3.914
  452SOL    HW1 1380   1.462   0.923   3.927
  452SOL    HW2 1381   1.573   1.017   4.000
  453SOL     OW 1382   1.466   1.417   4.677
  453SOL    HW1 1383   1.407   1.423   4.757
  453SOL    HW2 1384   1.451   1.329   4.631
  454SOL     OW 1385   1.667   1.714   4.296
  454SOL    HW1 1386   1.626   1.691   4.208
  454SOL    HW2 1387   1.649   1.640   4.361
  455SOL     OW 1388   0.598   0.729   3.994
  455SOL    HW1 1389   0.622   0.798   3.926
  455SOL    HW2 1390   0.520   0.762   4.048
  456SOL     OW 1391   1.281   0.345   4.668
  456SOL    HW1 1392   1.195   0.295   4.655
  456SOL    HW2 1393   1.343   0.291   4.724
  457SOL     OW 1394   1.576   1.662   4.031
  457SOL    HW1 1395   1.665   1.708   4.034
  457SOL    HW2 1396   1.555   1.638   3.936
  458SOL     OW 1397   0.807   0.605   5.189
  458SOL    HW1 1398   0.760   0.602   5.278
  458SOL    HW2 1399   0.756   0.550   5.123
  459SOL     OW 1400   0.991   0.410   4.966
  459SOL    HW1 1401   0.914   0.444   5.020
  459SOL    HW2 1402   0.957   0.359   4.887
  460SOL     OW 1403   1.041   0.701   4.153
  460SOL    HW1 1404   1.067   0.697   4.249
  460SOL    HW2 1405   0.956   0.650   4.139
  461SOL     OW 1406   0.076   0.811   4.513
  461SOL    HW1 1407   0.175   0.799   4.522
  461SOL    HW2 1408   0.052   0.906   4.534
  462SOL     OW 1409   0.130   1.821   5.295
  462SOL    HW1 1410   0.120   1.806   5.394
  462SOL    HW2 1411   0.044   1.857   5.259
  463SOL     OW 1412   0.865   0.348   3.919
  463SOL    HW1 1413   0.924   0.411   3.870
  463SOL    HW2 1414   0.884   0.254   3.890
  464SOL     OW 1415   1.362   1.144   4.269
  464SOL    HW1 1416   1.445   1.115   4.221
  464SOL    HW2 1417   1.313   1.211   4.213
  465SOL     OW 1418   0.550   0.196   4.609
  465SOL    HW1 1419   0.545   0.191   4.709
  465SOL    HW2 1420   0.552   0.292   4.580
  466SOL     OW 1421   1.008   1.456   4.201
  466SOL    HW1 1422   0.962   1.528   4.149
  466SOL    HW2 1423   1.004   1.476   4.299
  467SOL     OW 1424   0.351   1.801   4.577
  467SOL    HW1 1425   0.401   1.715   4.583
  467SOL    HW2 1426   0.416   1.878   4.574
  468SOL     OW 1427   1.795   1.066   4.597
  468SOL    HW1 1428   1.733   1.051   4.521
  468SOL    HW2 1429   1.743   1.077   4.682
  469SOL     OW 1430   0.321   0.943   3.966
  469SOL    HW1 1431   0.403   0.982   3.924
  469SOL    HW2 1432   0.294   0.861   3.917
  470SOL     OW 1433   1.458   0.735   4.452
  470SOL    HW1 1434   1.453   0.670   4.527
  470SOL    HW2 1435   1.538   0.794   4.465
  471SOL     OW 1436   1.111   1.776   3.961
  471SOL    HW1 1437   1.051   1.714   4.011
  471SOL    HW2 1438   1.142   1.732   3.876
  472SOL     OW 1439   1.632   1.377   3.805
  472SOL    HW1 1440   1.600   1.471   3.795
  472SOL    HW2 1441   1.556   1.314   3.793
  473SOL     OW 1442   0.464   1.743   4.047
  473SOL    HW1 1443   0.497   1.782   4.133
  473SOL    HW2 1444   0.540   1.736   3.982
  474SOL     OW 1445   1.400   0.107   4.150
  474SOL    HW1 1446   1.376   0.070   4.060
  474SOL    HW2 1447   1.499   0.123   4.154
  475SOL     OW 1448   0.249   1.785   4.965
  475SOL    HW1 1449   0.306   1.720   5.015
  475SOL    HW2 1450   0.233   1.752   4.872
  476SOL     OW 1451   0.940   1.698   4.628
  476SOL    HW1 1452   1.020   1.641   4.649
  476SOL    HW2 1453   0.891   1.658   4.551
  477SOL     OW 1454   0.382   0.700   4.204
  477SOL    HW1 1455   0.427   0.610   4.201
  477SOL    HW2 1456   0.288   0.689   4.237
  478SOL     OW 1457   0.614   0.122   3.841
  478SOL    HW1 1458   0.712   0.100   3.848
  478SOL    HW2 1459   0.583   0.105   3.748
  479SOL     OW 1460   0.888   1.514   4.919
  479SOL    HW1 1461   0.865   1.489   4.825
  479SOL    HW2 1462   0.949   1.445   4.958
  480SOL     OW 1463   0.803   1.402   4.648
  480SOL    HW1 1464   0.893   1.416   4.606
  480SOL    HW2 1465   0.732   1.404   4.577
  481SOL     OW 1466   0.922   0.503   4.623
  481SOL    HW1 1467   0.897   0.494   4.527
  481SOL    HW2 1468   0.970   0.421   4.654
  482SOL     OW 1469   0.539   0.064   4.236
  482SOL    HW1 1470   0.458   0.065   4.294
  482SOL    HW2 1471   0.542   0.147   4.181
  483SOL     OW 1472   1.434   1.188   3.765
  483SOL    HW1 1473   1.466   1.112   3.822
  483SOL    HW2 1474   1.342   1.215   3.795
  484SOL     OW 1475   0.297   0.035   3.895
  484SOL    HW1 1476   0.346   0.119   3.874
  484SOL    HW2 1477   0.359  -0.030   3.940
  485SOL     OW 1478   0.935   0.236   4.204
  485SOL    HW1 1479   0.887   0.277   4.126
  485SOL    HW2 1480   1.034   0.234   4.185
  486SOL     OW 1481   1.227   1.570   4.517
  486SOL    HW1 1482   1.248   1.644   4.452
  486SOL    HW2 1483   1.295   1.570   4.590
  487SOL     OW 1484   0.459   1.152   4.465
  487SOL    HW1 1485   0.388   1.125   4.530
  487SOL    HW2 1486   0.433   1.124   4.372
  488SOL     OW 1487   1.271   1.797   4.315
  488SOL    HW1 1488   1.315   1.861   4.251
  488SOL    HW2 1489   1.221   1.849   4.385
  489SOL     OW 1490   1.032   0.549   3.740
  489SOL    HW1 1491   0.991   0.631   3.701
  489SOL    HW2 1492   1.096   0.575   3.813
  490SOL     OW 1493   0.561   0.222   4.871
  490SOL    HW1 1494   0.599   0.138   4.908
  490SOL    HW2 1495   0.473   0.241   4.915
  491SOL     OW 1496   0.866   0.454   4.366
  491SOL    HW1 1497   0.834   0.526   4.304
  491SOL    HW2 1498   0.890   0.373   4.313
  492SOL     OW 1499   1.017   0.039   4.477
  492SOL    HW1 1500   0.945   0.044   4.408
  492SOL    HW2 1501   0.993  -0.030   4.546
  493SOL     OW 1502   1.429   1.173   4.591
  493SOL    HW1 1503   1.374   1.089   4.584
  493SOL    HW2 1504   1.455   1.202   4.499
  494SOL     OW 1505   1.466   0.590   4.716
  494SOL    HW1 1506   1.436   0.495   4.723
  494SOL    HW2 1507   1.539   0.606   4.782
  495SOL     OW 1508   1.857   0.833   4.101
  495SOL    HW1 1509   1.899   0.769   4.165
  495SOL    HW2 1510   1.819   0.782   4.023
  496SOL     OW 1511   0.488   1.385   3.898
  496SOL    HW1 1512   0.401   1.370   3.945
  496SOL    HW2 1513   0.471   1.411   3.803
  497SOL     OW 1514   1.664   1.280   4.381
  497SOL    HW1 1515   1.763   1.288   4.395
  497SOL    HW2 1516   1.619   1.364   4.412
  498SOL     OW 1517   1.390   0.575   3.802
  498SOL    HW1 1518   1.336   0.554   3.883
  498SOL    HW2 1519   1.481   0.534   3.811
  499SOL     OW 1520   0.527   0.256   4.052
  499SOL    HW1 1521   0.554   0.197   3.977
  499SOL    HW2 1522   0.527   0.351   4.021
  500SOL     OW 1523   1.754   1.223   5.312
  500SOL    HW1 1524   1.845   1.184   5.299
  500SOL    HW2 1525   1.762   1.319   5.336
  501SOL     OW 1526   1.064   1.347   5.064
  501SOL    HW1 1527   0.984   1.324   5.119
  501SOL    HW2 1528   1.147   1.321   5.113
  502SOL     OW 1529   1.111   1.195   4.824
  502SOL    HW1 1530   1.071   1.239   4.905
  502SOL    HW2 1531   1.070   1.232   4.741
  503SOL     OW 1532   1.638   1.099   4.803
  503SOL    HW1 1533   1.643   1.180   4.862
  503SOL    HW2 1534   1.552   1.101   4.752
  504SOL     OW 1535   0.705   1.050   4.092
  504SOL    HW1 1536   0.691   1.057   4.191
  504SOL    HW2 1537   0.789   0.999   4.074
  505SOL     OW 1538   0.410   0.813   4.975
  505SOL    HW1 1539   0.496   0.825   5.025
  505SOL    HW2 1540   0.368   0.726   5.002
  506SOL     OW 1541   1.274   0.386   4.986
  506SOL    HW1 1542   1.295   0.460   5.050
  506SOL    HW2 1543   1.185   0.403   4.943
  507SOL     OW 1544   0.064   1.564   5.055
  507SOL    HW1 1545   0.018   1.646   5.021
  507SOL    HW2 1546   0.162   1.583   5.064
  508SOL     OW 1547   0.367   1.100   4.225
  508SOL    HW1 1548   0.360   1.183   4.169
  508SOL    HW2 1549   0.371   1.020   4.165
  509SOL     OW 1550   0.566   0.537   4.589
  509SOL    HW1 1551   0.578   0.603   4.515
  509SOL    HW2 1552   0.612   0.571   4.672
  510SOL     OW 1553   1.252   1.348   4.112
  510SOL    HW1 1554   1.302   1.425   4.152
  510SOL    HW2 1555   1.157   1.350   4.144
  511SOL     OW 1556   1.272   1.445   4.866
  511SOL    HW1 1557   1.319   1.458   4.953
  511SOL    HW2 1558   1.206   1.371   4.875
  512SOL     OW 1559   1.582   0.639   4.196
  512SOL    HW1 1560   1.551   0.700   4.269
  512SOL    HW2 1561   1.632   0.691   4.127
  513SOL     OW 1562   0.354   1.510   5.053
  513SOL    HW1 1563   0.333   1.466   4.966
  513SOL    HW2 1564   0.451   1.536   5.056
  514SOL     OW 1565   0.573   0.870   4.753
  514SOL    HW1 1566   0.617   0.959   4.744
  514SOL    HW2 1567   0.510   0.870   4.830
  515SOL     OW 1568   1.360   0.862   4.769
  515SOL    HW1 1569   1.285   0.862   4.703
  515SOL    HW2 1570   1.397   0.770   4.778
  516SOL     OW 1571   1.209   0.525   3.999
  516SOL    HW1 1572   1.222   0.441   4.053
  516SOL    HW2 1573   1.180   0.599   4.059
  517SOL     OW 1574   0.307   0.213   4.955
  517SOL    HW1 1575   0.284   0.250   5.045
  517SOL    HW2 1576   0.277   0.118   4.949
  518SOL     OW 1577   0.037   1.310   5.006
  518SOL    HW1 1578   0.090   1.261   5.074
  518SOL    HW2 1579   0.059   1.408   5.011
  519SOL     OW 1580   0.732   0.634   4.788
  519SOL    HW1 1581   0.791   0.608   4.712
  519SOL    HW2 1582   0.704   0.730   4.777
  520SOL     OW 1583   0.307   0.063   4.342
  520SOL    HW1 1584   0.296   0.157   4.375
  520SOL    HW2 1585   0.302   0.000   4.419
  521SOL     OW 1586   1.622   0.367   4.098
  521SOL    HW1 1587   1.624   0.291   4.162
  521SOL    HW2 1588   1.574   0.444   4.138
  522SOL     OW 1589   1.023   0.766   4.690
  522SOL    HW1 1590   1.038   0.787   4.786
  522SOL    HW2 1591   0.993   0.671   4.681
  523SOL     OW 1592   1.540   0.274   3.849
  523SOL    HW1 1593   1.479   0.199   3.872
  523SOL    HW2 1594   1.562   0.326   3.932
  524SOL     OW 1595   1.303   0.838   3.766
  524SOL    HW1 1596   1.337   0.745   3.781
  524SOL    HW2 1597   1.321   0.865   3.671
  525SOL     OW 1598   1.068   1.333   4.573
  525SOL    HW1 1599   1.075   1.249   4.518
  525SOL    HW2 1600   1.130   1.402   4.537
  526SOL     OW 1601   0.319   0.810   4.673
  526SOL    HW1 1602   0.412   0.846   4.678
  526SOL    HW2 1603   0.313   0.725   4.725
  527SOL     OW 1604   0.339   0.509   4.730
  527SOL    HW1 1605   0.287   0.426   4.713
  527SOL    HW2 1606   0.416   0.514   4.666
  528SOL     OW 1607   1.160   0.207   5.201
  528SOL    HW1 1608   1.160   0.271   5.278
  528SOL    HW2 1609   1.188   0.255   5.118
  529SOL     OW 1610   0.008   1.326   3.924
  529SOL    HW1 1611  -0.085   1.347   3.893
  529SOL    HW2 1612   0.018   1.227   3.937
  530SOL     OW 1613   0.088   1.801   4.651
  530SOL    HW1 1614   0.046   1.715   4.624
  530SOL    HW2 1615   0.182   1.804   4.617
  531SOL     OW 1616   0.504   1.568   4.634
  531SOL    HW1 1617   0.570   1.642   4.643
  531SOL    HW2 1618   0.548   1.489   4.592
  532SOL     OW 1619   1.002   0.796   4.962
  532SOL    HW1 1620   1.043   0.764   5.048
  532SOL    HW2 1621   0.906   0.769   4.959
  533SOL     OW 1622   0.040   0.544   4.838
  533SOL    HW1 1623   0.125   0.511   4.797
  533SOL    HW2 1624   0.053   0.559   4.936
  534SOL     OW 1625   0.815   0.572   4.049
  534SOL    HW1 1626   0.822   0.483   4.003
  534SOL    HW2 1627   0.721   0.606   4.041
  535SOL     OW 1628   1.657   0.604   4.930
  535SOL    HW1 1629   1.619   0.535   4.992
  535SOL    HW2 1630   1.739   0.568   4.886
  536SOL     OW 1631   0.671   0.464   4.993
  536SOL    HW1 1632   0.637   0.375   4.963
  536SOL    HW2 1633   0.697   0.518   4.913
  537SOL     OW 1634   0.930   1.678   5.189
  537SOL    HW1 1635   0.906   1.660   5.094
  537SOL    HW2 1636   0.960   1.772   5.199
  538SOL     OW 1637   0.473   0.500   3.915
  538SOL    HW1 1638   0.534   0.580   3.919
  538SOL    HW2 1639   0.378   0.531   3.922
  539SOL     OW 1640   0.159   1.137   5.190
  539SOL    HW1 1641   0.181   1.076   5.266
  539SOL    HW2 1642   0.169   1.088   5.104
  540SOL     OW 1643   1.347   1.059   4.958
  540SOL    HW1 1644   1.371   0.996   4.884
  540SOL    HW2 1645   1.257   1.099   4.940
  541SOL     OW 1646   1.302   0.855   4.033
  541SOL    HW1 1647   1.216   0.824   4.075
  541SOL    HW2 1648   1.298   0.841   3.934
  542SOL     OW 1649   1.759   1.747   4.878
  542SOL    HW1 1650   1.820   1.777   4.805
  542SOL    HW2 1651   1.721   1.658   4.856
  543SOL     OW 1652   1.252   1.731   4.852
  543SOL    HW1 1653   1.336   1.736   4.798
  543SOL    HW2 1654   1.229   1.635   4.870
  544SOL     OW 1655   0.083   1.258   4.746
  544SOL    HW1 1656   0.078   1.257   4.846
  544SOL    HW2 1657   0.000   1.217   4.708
  545SOL     OW 1658   1.726   0.135   4.247
  545SOL    HW1 1659   1.799   0.118   4.180
  545SOL    HW2 1660   1.695   0.048   4.285
  546SOL     OW 1661   1.388   1.573   4.201
  546SOL    HW1 1662   1.455   1.585   4.127
  546SOL    HW2 1663   1.348   1.662   4.224
  547SOL     OW 1664   1.280   0.927   4.396
  547SOL    HW1 1665   1.340   0.846   4.398
  547SOL    HW2 1666   1.320   0.996   4.336
  548SOL     OW 1667   0.672   1.616   3.878
  548SOL    HW1 1668   0.681   1.626   3.779
  548SOL    HW2 1669   0.632   1.527   3.899
  549SOL     OW 1670   1.841   0.175   4.687
  549SOL    HW1 1671   1.880   0.090   4.651
  549SOL    HW2 1672   1.743   0.177   4.668
  550SOL     OW 1673   0.263   0.326   4.444
  550SOL    HW1 1674   0.184   0.377   4.410
  550SOL    HW2 1675   0.254   0.311   4.542
  551SOL     OW 1676   1.194   1.612   3.755
  551SOL    HW1 1677   1.200   1.519   3.792
  551SOL    HW2 1678   1.135   1.612   3.675
  552SOL     OW 1679   0.822   1.002   5.096
  552SOL    HW1 1680   0.862   1.001   5.004
  552SOL    HW2 1681   0.832   1.094   5.136
  553SOL     OW 1682   0.916   0.910   4.015
  553SOL    HW1 1683   0.979   0.948   3.947
  553SOL    HW2 1684   0.956   0.827   4.054
  554SOL     OW 1685   1.504   1.607   3.768
  554SOL    HW1 1686   1.412   1.644   3.775
  554SOL    HW2 1687   1.542   1.627   3.678
  555SOL     OW 1688   0.372   1.288   5.214
  555SOL    HW1 1689   0.359   1.381   5.180
  555SOL    HW2 1690   0.288   1.236   5.201
  556SOL     OW 1691   1.614   1.292   5.013
  556SOL    HW1 1692   1.674   1.295   5.093
  556SOL    HW2 1693   1.539   1.356   5.026
  557SOL     OW 1694   1.039   1.098   4.420
  557SOL    HW1 1695   0.969   1.051   4.474
  557SOL    HW2 1696   1.098   1.030   4.377
  558SOL     OW 1697   1.014   0.236   4.695
  558SOL    HW1 1698   1.006   0.200   4.602
  558SOL    HW2 1699   1.012   0.160   4.760
  559SOL     OW 1700   0.590   1.487   4.215
  559SOL    HW1 1701   0.632   1.429   4.145
  559SOL    HW2 1702   0.546   1.566   4.171
  560SOL     OW 1703   1.709   0.385   5.105
  560SOL    HW1 1704   1.782   0.454   5.109
  560SOL    HW2 1705   1.737   0.310   5.046
  561SOL     OW 1706   0.255   1.348   4.014
  561SOL    HW1 1707   0.159   1.349   3.987
  561SOL    HW2 1708   0.267   1.401   4.098
  562SOL     OW 1709   0.075   0.345   3.757
  562SOL    HW1 1710  -0.017   0.317   3.728
  562SOL    HW2 1711   0.106   0.422   3.701
  563SOL     OW 1712   0.072   0.166   4.042
  563SOL    HW1 1713   0.055   0.249   3.988
  563SOL    HW2 1714   0.162   0.129   4.020
  564SOL     OW 1715   1.183   1.335   3.843
  564SOL    HW1 1716   1.084   1.324   3.845
  564SOL    HW2 1717   1.217   1.350   3.936
  565SOL     OW 1718   0.613   0.842   5.155
  565SOL    HW1 1719   0.669   0.923   5.138
  565SOL    HW2 1720   0.672   0.762   5.158
  566SOL     OW 1721   1.493   1.767   4.683
  566SOL    HW1 1722   1.526   1.831   4.614
  566SOL    HW2 1723   1.559   1.761   4.758
  567SOL     OW 1724   0.390   1.741   5.284
  567SOL    HW1 1725   0.299   1.782   5.282
  567SOL    HW2 1726   0.383   1.647   5.316
  568SOL     OW 1727   1.674   0.883   4.978
  568SOL    HW1 1728   1.647   0.794   4.941
  568SOL    HW2 1729   1.675   0.951   4.905
  569SOL     OW 1730   1.225   0.325   4.173
  569SOL    HW1 1731   1.290   0.251   4.162
  569SOL    HW2 1732   1.245   0.375   4.257
  570SOL     OW 1733   0.594   0.745   4.376
  570SOL    HW1 1734   0.644   0.830   4.357
  570SOL    HW2 1735   0.506   0.747   4.328
  571SOL     OW 1736   1.730   0.934   5.241
  571SOL    HW1 1737   1.768   1.025   5.256
  571SOL    HW2 1738   1.722   0.917   5.142
  572SOL     OW 1739   0.859   1.374   3.740
  572SOL    HW1 1740   0.813   1.389   3.828
  572SOL    HW2 1741   0.903   1.459   3.710
  573SOL     OW 1742   0.661   1.790   4.677
  573SOL    HW1 1743   0.615   1.878   4.664
  573SOL    HW2 1744   0.760   1.802   4.670
  574SOL     OW 1745   0.859   0.956   4.585
  574SOL    HW1 1746   0.913   0.887   4.633
  574SOL    HW2 1747   0.827   1.025   4.651
  575SOL     OW 1748   1.083   0.984   3.811
  575SOL    HW1 1749   1.060   1.037   3.729
  575SOL    HW2 1750   1.164   0.928   3.792
  576SOL     OW 1751   1.861   1.569   4.575
  576SOL    HW1 1752   1.790   1.557   4.505
  576SOL    HW2 1753   1.862   1.490   4.635
  577SOL     OW 1754   0.079   1.240   4.377
  577SOL    HW1 1755   0.078   1.193   4.465
  577SOL    HW2 1756   0.161   1.212   4.326
  578SOL     OW 1757   1.824   0.192   4.951
  578SOL    HW1 1758   1.820   0.102   4.995
  578SOL    HW2 1759   1.827   0.181   4.852
  579SOL     OW 1760   0.428   0.424   4.244
  579SOL    HW1 1761   0.458   0.352   4.182
  579SOL    HW2 1762   0.389   0.384   4.327
  580SOL     OW 1763   1.705   1.487   4.828
  580SOL    HW1 1764   1.612   1.462   4.801
  580SOL    HW2 1765   1.731   1.437   4.910
  581SOL     OW 1766   0.317   0.547   5.004
  581SOL    HW1 1767   0.355   0.488   5.076
  581SOL    HW2 1768   0.357   0.521   4.916
  582SOL     OW 1769   0.812   1.586   4.411
  582SOL    HW1 1770   0.844   1.596   4.317
  582SOL    HW2 1771   0.733   1.524   4.413
  583SOL     OW 1772   1.424   0.214   4.836
  583SOL    HW1 1773   1.476   0.149   4.891
  583SOL    HW2 1774   1.375   0.277   4.897
  584SOL     OW 1775   1.001   0.034   4.878
  584SOL    HW1 1776   0.938  -0.038   4.847
  584SOL    HW2 1777   1.094  -0.002   4.878
  585SOL     OW 1778   0.770   1.330   4.025
  585SOL    HW1 1779   0.724   1.243   4.042
  585SOL    HW2 1780   0.861   1.327   4.066
  586SOL     OW 1781   0.618   1.567   5.008
  586SOL    HW1 1782   0.613   1.649   5.065
  586SOL    HW2 1783   0.707   1.564   4.963
  587SOL     OW 1784   1.352   0.052   3.892
  587SOL    HW1 1785   1.387   0.011   3.808
  587SOL    HW2 1786   1.262   0.014   3.912
  588SOL     OW 1787   1.300   0.453   4.415
  588SOL    HW1 1788   1.241   0.533   4.419
  588SOL    HW2 1789   1.315   0.418   4.508
  589SOL     OW 1790   1.593   0.221   4.606
  589SOL    HW1 1791   1.509   0.220   4.660
  589SOL    HW2 1792   1.595   0.304   4.550
  590SOL     OW 1793   0.039   1.077   4.024
  590SOL    HW1 1794   0.138   1.066   4.015
  590SOL    HW2 1795  -0.001   0.991   4.056
  591SOL     OW 1796   0.875   1.646   4.061
  591SOL    HW1 1797   0.798   1.611   4.007
  591SOL    HW2 1798   0.843   1.717   4.123
  592SOL     OW 1799   0.230   2.490   0.113
  592SOL    HW1 1800   0.137   2.488   0.150
  592SOL    HW2 1801   0.231   2.451   0.021
  593SOL     OW 1802   0.225   2.137   0.996
  593SOL    HW1 1803   0.260   2.120   1.088
  593SOL    HW2 1804   0.137   2.092   0.984
  594SOL     OW 1805   0.019   2.230   0.647
  594SOL    HW1 1806  -0.063   2.273   0.686
  594SOL    HW2 1807  -0.009   2.157   0.584
  595SOL     OW 1808   0.569   3.137   1.165
  595SOL    HW1 1809   0.476   3.130   1.128
  595SOL    HW2 1810   0.580   3.226   1.209
  596SOL     OW 1811   1.555   3.373   0.703
  596SOL    HW1 1812   1.498   3.357   0.784
  596SOL    HW2 1813   1.496   3.383   0.623
  597SOL     OW 1814   1.135   2.565   0.717
  597SOL    HW1 1815   1.192   2.643   0.692
  597SOL    HW2 1816   1.075   2.591   0.793
  598SOL     OW 1817   1.755   2.469   0.231
  598SOL    HW1 1818   1.743   2.456   0.132
  598SOL    HW2 1819   1.725   2.388   0.280
  599SOL     OW 1820   0.768   3.006   1.023
  599SOL    HW1 1821   0.690   3.023   1.083
  599SOL    HW2 1822   0.802   3.093   0.987
  600SOL     OW 1823   0.850   2.660   1.823
  600SOL    HW1 1824   0.846   2.736   1.888
  600SOL    HW2 1825   0.872   2.696   1.732
  601SOL     OW 1826   0.685   2.874   0.665
  601SOL    HW1 1827   0.754   2.858   0.735
  601SOL    HW2 1828   0.612   2.931   0.703
  602SOL     OW 1829   0.686   3.023   1.803
  602SOL    HW1 1830   0.746   3.102   1.817
  602SOL    HW2 1831   0.600   3.054   1.762
  603SOL     OW 1832   0.335   3.297   1.061
  603SOL    HW1 1833   0.257   3.266   1.008
  603SOL    HW2 1834   0.393   3.355   1.004
  604SOL     OW 1835   1.460   3.367   1.339
  604SOL    HW1 1836   1.484   3.461   1.365
  604SOL    HW2 1837   1.444   3.313   1.421
  605SOL     OW 1838   0.438   2.254   1.499
  605SOL    HW1 1839   0.520   2.198   1.508
  605SOL    HW2 1840   0.357   2.196   1.503
  606SOL     OW 1841   1.603   2.309   0.737
  606SOL    HW1 1842   1.529   2.355   0.687
  606SOL    HW2 1843   1.654   2.377   0.790
  607SOL     OW 1844   0.231   3.575   0.483
  607SOL    HW1 1845   0.265   3.652   0.537
  607SOL    HW2 1846   0.275   3.575   0.393
  608SOL     OW 1847   1.127   3.203   1.690
  608SOL    HW1 1848   1.174   3.203   1.778
  608SOL    HW2 1849   1.079   3.116   1.679
  609SOL     OW 1850   0.230   3.296   0.538
  609SOL    HW1 1851   0.204   3.392   0.538
  609SOL    HW2 1852   0.159   3.242   0.583
  610SOL     OW 1853   0.240   2.953   0.886
  610SOL    HW1 1854   0.254   2.869   0.938
  610SOL    HW2 1855   0.185   3.017   0.941
  611SOL     OW 1856   0.620   3.648   1.439
  611SOL    HW1 1857   0.528   3.631   1.474
  611SOL    HW2 1858   0.648   3.740   1.465
  612SOL     OW 1859   0.606   2.826   0.123
  612SOL    HW1 1860   0.613   2.910   0.069
  612SOL    HW2 1861   0.652   2.839   0.211
  613SOL     OW 1862   1.594   1.976   1.480
  613SOL    HW1 1863   1.576   2.043   1.408
  613SOL    HW2 1864   1.591   2.022   1.569
  614SOL     OW 1865   0.122   2.505   0.563
  614SOL    HW1 1866   0.077   2.417   0.580
  614SOL    HW2 1867   0.121   2.559   0.647
  615SOL     OW 1868   1.842   3.629   0.359
  615SOL    HW1 1869   1.896   3.600   0.439
  615SOL    HW2 1870   1.872   3.719   0.330
  616SOL     OW 1871   0.027   3.458   0.117
  616SOL    HW1 1872   0.008   3.362   0.138
  616SOL    HW2 1873  -0.006   3.516   0.192
  617SOL     OW 1874   1.689   2.784   0.612
  617SOL    HW1 1875   1.784   2.755   0.620
  617SOL    HW2 1876   1.681   2.849   0.537
  618SOL     OW 1877   1.641   2.970   0.432
  618SOL    HW1 1878   1.727   2.972   0.380
  618SOL    HW2 1879   1.655   3.017   0.520
  619SOL     OW 1880   0.113   2.599   1.597
  619SOL    HW1 1881   0.201   2.586   1.642
  619SOL    HW2 1882   0.100   2.696   1.575
  620SOL     OW 1883   0.613   3.227   0.726
  620SOL    HW1 1884   0.564   3.140   0.735
  620SOL    HW2 1885   0.590   3.270   0.639
  621SOL     OW 1886   1.293   3.090   1.423
  621SOL    HW1 1887   1.330   3.017   1.365
  621SOL    HW2 1888   1.345   3.095   1.508
  622SOL     OW 1889   0.809   1.866   0.502
  622SOL    HW1 1890   0.849   1.957   0.493
  622SOL    HW2 1891   0.709   1.874   0.508
  623SOL     OW 1892   0.197   2.838   1.264
  623SOL    HW1 1893   0.286   2.793   1.250
  623SOL    HW2 1894   0.124   2.773   1.245
  624SOL     OW 1895   1.525   2.861   0.190
  624SOL    HW1 1896   1.462   2.785   0.203
  624SOL    HW2 1897   1.573   2.879   0.276
  625SOL     OW 1898   1.187   3.654   1.616
  625SOL    HW1 1899   1.211   3.714   1.540
  625SOL    HW2 1900   1.194   3.559   1.586
  626SOL     OW 1901   0.317   2.113   1.801
  626SOL    HW1 1902   0.388   2.184   1.807
  626SOL    HW2 1903   0.229   2.152   1.829
  627SOL     OW 1904   1.466   3.279   0.953
  627SOL    HW1 1905   1.407   3.285   1.033
  627SOL    HW2 1906   1.451   3.191   0.907
  628SOL     OW 1907   1.667   3.576   0.572
  628SOL    HW1 1908   1.626   3.553   0.484
  628SOL    HW2 1909   1.649   3.502   0.637
  629SOL     OW 1910   0.598   2.591   0.270
  629SOL    HW1 1911   0.622   2.660   0.202
  629SOL    HW2 1912   0.520   2.624   0.324
  630SOL     OW 1913   1.281   2.207   0.944
  630SOL    HW1 1914   1.195   2.157   0.931
  630SOL    HW2 1915   1.343   2.153   1.000
  631SOL     OW 1916   1.576   3.524   0.307
  631SOL    HW1 1917   1.665   3.570   0.310
  631SOL    HW2 1918   1.555   3.500   0.212
  632SOL     OW 1919   0.807   2.467   1.465
  632SOL    HW1 1920   0.760   2.464   1.554
  632SOL    HW2 1921   0.756   2.412   1.399
  633SOL     OW 1922   1.394   2.331   1.674
  633SOL    HW1 1923   1.374   2.374   1.762
  633SOL    HW2 1924   1.472   2.269   1.683
  634SOL     OW 1925   0.973   2.752   1.572
  634SOL    HW1 1926   1.019   2.668   1.543
  634SOL    HW2 1927   0.917   2.786   1.497
  635SOL     OW 1928   0.991   2.272   1.242
  635SOL    HW1 1929   0.914   2.306   1.296
  635SOL    HW2 1930   0.957   2.221   1.163
  636SOL     OW 1931   1.041   2.563   0.429
  636SOL    HW1 1932   1.067   2.559   0.525
  636SOL    HW2 1933   0.956   2.512   0.415
  637SOL     OW 1934   0.076   2.673   0.789
  637SOL    HW1 1935   0.175   2.661   0.798
  637SOL    HW2 1936   0.052   2.768   0.810
  638SOL     OW 1937   0.130   3.683   1.571
  638SOL    HW1 1938   0.120   3.668   1.670
  638SOL    HW2 1939   0.044   3.719   1.535
  639SOL     OW 1940   0.865   2.210   0.195
  639SOL    HW1 1941   0.924   2.273   0.146
  639SOL    HW2 1942   0.884   2.116   0.166
  640SOL     OW 1943   1.719   2.447   1.831
  640SOL    HW1 1944   1.693   2.536   1.795
  640SOL    HW2 1945   1.717   2.379   1.758
  641SOL     OW 1946   1.362   3.006   0.545
  641SOL    HW1 1947   1.445   2.977   0.497
  641SOL    HW2 1948   1.313   3.073   0.489
  642SOL     OW 1949   0.550   2.058   0.885
  642SOL    HW1 1950   0.545   2.053   0.985
  642SOL    HW2 1951   0.552   2.154   0.856
  643SOL     OW 1952   1.008   3.318   0.477
  643SOL    HW1 1953   0.962   3.390   0.425
  643SOL    HW2 1954   1.004   3.338   0.575
  644SOL     OW 1955   0.351   3.663   0.853
  644SOL    HW1 1956   0.401   3.577   0.859
  644SOL    HW2 1957   0.416   3.740   0.850
  645SOL     OW 1958   1.795   2.928   0.873
  645SOL    HW1 1959   1.733   2.913   0.797
  645SOL    HW2 1960   1.743   2.939   0.958
  646SOL     OW 1961   1.227   3.412   1.506
  646SOL    HW1 1962   1.233   3.335   1.570
  646SOL    HW2 1963   1.175   3.386   1.426
  647SOL     OW 1964   0.321   2.805   0.242
  647SOL    HW1 1965   0.403   2.844   0.200
  647SOL    HW2 1966   0.294   2.723   0.193
  648SOL     OW 1967   1.458   2.597   0.728
  648SOL    HW1 1968   1.453   2.532   0.803
  648SOL    HW2 1969   1.538   2.656   0.741
  649SOL     OW 1970   0.461   3.128   1.727
  649SOL    HW1 1971   0.411   3.129   1.641
  649SOL    HW2 1972   0.398   3.110   1.803
  650SOL     OW 1973   1.111   3.638   0.237
  650SOL    HW1 1974   1.051   3.576   0.287
  650SOL    HW2 1975   1.142   3.594   0.152
  651SOL     OW 1976   0.202   2.147   1.498
  651SOL    HW1 1977   0.122   2.207   1.485
  651SOL    HW2 1978   0.192   2.098   1.584
  652SOL     OW 1979   1.632   3.239   0.081
  652SOL    HW1 1980   1.600   3.333   0.071
  652SOL    HW2 1981   1.556   3.176   0.069
  653SOL     OW 1982   0.464   3.605   0.323
  653SOL    HW1 1983   0.497   3.644   0.409
  653SOL    HW2 1984   0.540   3.598   0.258
  654SOL     OW 1985   1.400   1.969   0.426
  654SOL    HW1 1986   1.376   1.932   0.336
  654SOL    HW2 1987   1.499   1.985   0.430
  655SOL     OW 1988   0.249   3.647   1.241
  655SOL    HW1 1989   0.306   3.582   1.291
  655SOL    HW2 1990   0.233   3.614   1.148
  656SOL     OW 1991   0.940   3.560   0.904
  656SOL    HW1 1992   1.020   3.503   0.925
  656SOL    HW2 1993   0.891   3.520   0.827
  657SOL     OW 1994   0.382   2.562   0.480
  657SOL    HW1 1995   0.427   2.472   0.477
  657SOL    HW2 1996   0.288   2.551   0.513
  658SOL     OW 1997   1.547   2.084   1.729
  658SOL    HW1 1998   1.542   2.121   1.821
  658SOL    HW2 1999   1.475   2.015   1.717
  659SOL     OW 2000   0.781   2.126   1.749
  659SOL    HW1 2001   0.848   2.065   1.792
  659SOL    HW2 2002   0.708   2.145   1.814
  660SOL     OW 2003   0.888   3.376   1.195
  660SOL    HW1 2004   0.865   3.351   1.101
  660SOL    HW2 2005   0.949   3.307   1.234
  661SOL     OW 2006   1.351   2.452   1.433
  661SOL    HW1 2007   1.379   2.409   1.518
  661SOL    HW2 2008   1.376   2.548   1.434
  662SOL     OW 2009   0.803   3.264   0.924
  662SOL    HW1 2010   0.893   3.278   0.882
  662SOL    HW2 2011   0.732   3.266   0.853
  663SOL     OW 2012   0.922   2.365   0.899
  663SOL    HW1 2013   0.897   2.356   0.803
  663SOL    HW2 2014   0.970   2.283   0.930
  664SOL     OW 2015   0.539   1.926   0.512
  664SOL    HW1 2016   0.458   1.927   0.570
  664SOL    HW2 2017   0.542   2.009   0.457
  665SOL     OW 2018   1.434   3.050   0.041
  665SOL    HW1 2019   1.466   2.974   0.098
  665SOL    HW2 2020   1.342   3.077   0.071
  666SOL     OW 2021   0.935   2.098   0.480
  666SOL    HW1 2022   0.887   2.139   0.402
  666SOL    HW2 2023   1.034   2.096   0.461
  667SOL     OW 2024   1.076   2.545   1.464
  667SOL    HW1 2025   0.996   2.484   1.467
  667SOL    HW2 2026   1.157   2.492   1.440
  668SOL     OW 2027   1.227   3.432   0.793
  668SOL    HW1 2028   1.248   3.506   0.728
  668SOL    HW2 2029   1.295   3.432   0.866
  669SOL     OW 2030   0.459   3.014   0.741
  669SOL    HW1 2031   0.388   2.987   0.806
  669SOL    HW2 2032   0.433   2.986   0.648
  670SOL     OW 2033   1.271   3.659   0.591
  670SOL    HW1 2034   1.315   3.723   0.527
  670SOL    HW2 2035   1.221   3.711   0.661
  671SOL     OW 2036   1.032   2.411   0.016
  671SOL    HW1 2037   0.991   2.493  -0.023
  671SOL    HW2 2038   1.096   2.437   0.089
  672SOL     OW 2039   0.078   2.418   1.386
  672SOL    HW1 2040   0.170   2.417   1.345
  672SOL    HW2 2041   0.072   2.492   1.453
  673SOL     OW 2042   0.561   2.084   1.147
  673SOL    HW1 2043   0.599   2.000   1.184
  673SOL    HW2 2044   0.473   2.103   1.191
  674SOL     OW 2045   0.866   2.316   0.642
  674SOL    HW1 2046   0.834   2.388   0.580
  674SOL    HW2 2047   0.890   2.235   0.589
  675SOL     OW 2048   1.017   1.901   0.753
  675SOL    HW1 2049   0.945   1.906   0.684
  675SOL    HW2 2050   0.993   1.832   0.822
  676SOL     OW 2051   1.429   3.035   0.867
  676SOL    HW1 2052   1.374   2.951   0.860
  676SOL    HW2 2053   1.455   3.064   0.775
  677SOL     OW 2054   1.466   2.452   0.992
  677SOL    HW1 2055   1.436   2.357   0.999
  677SOL    HW2 2056   1.539   2.468   1.058
  678SOL     OW 2057   1.857   2.695   0.377
  678SOL    HW1 2058   1.899   2.631   0.441
  678SOL    HW2 2059   1.819   2.644   0.299
  679SOL     OW 2060   0.488   3.247   0.174
  679SOL    HW1 2061   0.401   3.232   0.221
  679SOL    HW2 2062   0.471   3.273   0.079
  680SOL     OW 2063   1.664   3.142   0.657
  680SOL    HW1 2064   1.763   3.150   0.671
  680SOL    HW2 2065   1.619   3.226   0.688
  681SOL     OW 2066   1.390   2.437   0.078
  681SOL    HW1 2067   1.336   2.416   0.159
  681SOL    HW2 2068   1.481   2.396   0.087
  682SOL     OW 2069   0.527   2.118   0.328
  682SOL    HW1 2070   0.554   2.059   0.253
  682SOL    HW2 2071   0.527   2.213   0.297
  683SOL     OW 2072   1.754   3.085   1.588
  683SOL    HW1 2073   1.845   3.046   1.575
  683SOL    HW2 2074   1.762   3.181   1.612
  684SOL     OW 2075   1.064   3.209   1.340
  684SOL    HW1 2076   0.984   3.186   1.395
  684SOL    HW2 2077   1.147   3.183   1.389
  685SOL     OW 2078   1.592   3.491   1.625
  685SOL    HW1 2079   1.619   3.525   1.535
  685SOL    HW2 2080   1.671   3.453   1.671
  686SOL     OW 2081   1.111   3.057   1.100
  686SOL    HW1 2082   1.071   3.101   1.181
  686SOL    HW2 2083   1.070   3.094   1.017
  687SOL     OW 2084   1.638   2.961   1.079
  687SOL    HW1 2085   1.643   3.042   1.138
  687SOL    HW2 2086   1.552   2.963   1.028
  688SOL     OW 2087   0.915   1.951   1.402
  688SOL    HW1 2088   0.940   1.931   1.307
  688SOL    HW2 2089   0.987   2.007   1.444
  689SOL     OW 2090   0.980   2.978   1.719
  689SOL    HW1 2091   0.881   2.984   1.729
  689SOL    HW2 2092   1.003   2.898   1.663
  690SOL     OW 2093   0.705   2.912   0.368
  690SOL    HW1 2094   0.691   2.919   0.467
  690SOL    HW2 2095   0.789   2.861   0.350
  691SOL     OW 2096   0.410   2.675   1.251
  691SOL    HW1 2097   0.496   2.687   1.301
  691SOL    HW2 2098   0.368   2.588   1.278
  692SOL     OW 2099   1.274   2.248   1.262
  692SOL    HW1 2100   1.295   2.322   1.326
  692SOL    HW2 2101   1.185   2.265   1.219
  693SOL     OW 2102   0.064   3.426   1.331
  693SOL    HW1 2103   0.018   3.508   1.297
  693SOL    HW2 2104   0.162   3.445   1.340
  694SOL     OW 2105   0.367   2.962   0.501
  694SOL    HW1 2106   0.360   3.045   0.445
  694SOL    HW2 2107   0.371   2.882   0.441
  695SOL     OW 2108   0.566   2.399   0.865
  695SOL    HW1 2109   0.578   2.465   0.791
  695SOL    HW2 2110   0.612   2.433   0.948
  696SOL     OW 2111   1.252   3.210   0.388
  696SOL    HW1 2112   1.302   3.287   0.428
  696SOL    HW2 2113   1.157   3.212   0.420
  697SOL     OW 2114   1.272   3.307   1.142
  697SOL    HW1 2115   1.319   3.320   1.229
  697SOL    HW2 2116   1.206   3.233   1.151
  698SOL     OW 2117   1.582   2.501   0.472
  698SOL    HW1 2118   1.551   2.562   0.545
  698SOL    HW2 2119   1.632   2.553   0.403
  699SOL     OW 2120   0.354   3.372   1.329
  699SOL    HW1 2121   0.333   3.328   1.242
  699SOL    HW2 2122   0.451   3.398   1.332
  700SOL     OW 2123   0.402   2.613   1.598
  700SOL    HW1 2124   0.470   2.668   1.551
  700SOL    HW2 2125   0.442   2.525   1.625
  701SOL     OW 2126   1.587   2.641   1.670
  701SOL    HW1 2127   1.495   2.679   1.665
  701SOL    HW2 2128   1.647   2.688   1.605
  702SOL     OW 2129   1.013   1.967   1.770
  702SOL    HW1 2130   1.019   2.052   1.718
  702SOL    HW2 2131   1.045   1.891   1.713
  703SOL     OW 2132   0.504   1.912   1.740
  703SOL    HW1 2133   0.462   1.855   1.670
  703SOL    HW2 2134   0.438   1.981   1.772
  704SOL     OW 2135   0.573   2.732   1.029
  704SOL    HW1 2136   0.617   2.821   1.020
  704SOL    HW2 2137   0.510   2.732   1.106
  705SOL     OW 2138   1.360   2.724   1.045
  705SOL    HW1 2139   1.285   2.724   0.979
  705SOL    HW2 2140   1.397   2.632   1.054
  706SOL     OW 2141   1.209   2.387   0.275
  706SOL    HW1 2142   1.222   2.303   0.329
  706SOL    HW2 2143   1.180   2.461   0.335
  707SOL     OW 2144   0.307   2.075   1.231
  707SOL    HW1 2145   0.284   2.112   1.321
  707SOL    HW2 2146   0.277   1.980   1.225
  708SOL     OW 2147   0.037   3.172   1.282
  708SOL    HW1 2148   0.090   3.123   1.350
  708SOL    HW2 2149   0.059   3.270   1.287
  709SOL     OW 2150   0.732   2.496   1.064
  709SOL    HW1 2151   0.791   2.470   0.988
  709SOL    HW2 2152   0.704   2.592   1.053
  710SOL     OW 2153   1.728   2.797   1.854
  710SOL    HW1 2154   1.682   2.790   1.765
  710SOL    HW2 2155   1.666   2.841   1.920
  711SOL     OW 2156   0.307   1.925   0.618
  711SOL    HW1 2157   0.296   2.019   0.651
  711SOL    HW2 2158   0.302   1.862   0.695
  712SOL     OW 2159   1.622   2.229   0.374
  712SOL    HW1 2160   1.624   2.153   0.438
  712SOL    HW2 2161   1.574   2.306   0.414
  713SOL     OW 2162   1.023   2.628   0.966
  713SOL    HW1 2163   1.038   2.649   1.062
  713SOL    HW2 2164   0.993   2.533   0.957
  714SOL     OW 2165   0.980   3.435   1.700
  714SOL    HW1 2166   0.960   3.479   1.612
  714SOL    HW2 2167   1.019   3.344   1.684
  715SOL     OW 2168   1.859   3.380   1.605
  715SOL    HW1 2169   1.873   3.407   1.510
  715SOL    HW2 2170   1.942   3.402   1.658
  716SOL     OW 2171   0.350   2.760   1.804
  716SOL    HW1 2172   0.426   2.804   1.852
  716SOL    HW2 2173   0.385   2.713   1.722
  717SOL     OW 2174   1.540   2.136   0.125
  717SOL    HW1 2175   1.479   2.061   0.148
  717SOL    HW2 2176   1.562   2.188   0.208
  718SOL     OW 2177   1.303   2.700   0.042
  718SOL    HW1 2178   1.337   2.607   0.057
  718SOL    HW2 2179   1.321   2.727  -0.053
  719SOL     OW 2180   1.068   3.195   0.849
  719SOL    HW1 2181   1.075   3.111   0.794
  719SOL    HW2 2182   1.130   3.264   0.813
  720SOL     OW 2183   0.319   2.672   0.949
  720SOL    HW1 2184   0.412   2.708   0.954
  720SOL    HW2 2185   0.313   2.587   1.001
  721SOL     OW 2186   0.339   2.371   1.006
  721SOL    HW1 2187   0.287   2.288   0.989
  721SOL    HW2 2188   0.416   2.376   0.942
  722SOL     OW 2189   1.138   2.242   1.678
  722SOL    HW1 2190   1.093   2.305   1.742
  722SOL    HW2 2191   1.231   2.273   1.661
  723SOL     OW 2192   1.160   2.069   1.477
  723SOL    HW1 2193   1.160   2.133   1.554
  723SOL    HW2 2194   1.188   2.117   1.394
  724SOL     OW 2195   0.008   3.188   0.200
  724SOL    HW1 2196  -0.085   3.209   0.169
  724SOL    HW2 2197   0.018   3.089   0.213
  725SOL     OW 2198   0.088   3.663   0.927
  725SOL    HW1 2199   0.046   3.577   0.900
  725SOL    HW2 2200   0.182   3.666   0.893
  726SOL     OW 2201   0.504   3.430   0.910
  726SOL    HW1 2202   0.570   3.504   0.919
  726SOL    HW2 2203   0.548   3.351   0.868
  727SOL     OW 2204   1.002   2.658   1.238
  727SOL    HW1 2205   1.043   2.626   1.324
  727SOL    HW2 2206   0.906   2.631   1.235
  728SOL     OW 2207   0.040   2.406   1.114
  728SOL    HW1 2208   0.125   2.373   1.073
  728SOL    HW2 2209   0.053   2.421   1.212
  729SOL     OW 2210   0.189   2.382   1.722
  729SOL    HW1 2211   0.248   2.342   1.652
  729SOL    HW2 2212   0.131   2.453   1.681
  730SOL     OW 2213   1.369   2.812   1.660
  730SOL    HW1 2214   1.408   2.901   1.680
  730SOL    HW2 2215   1.379   2.792   1.563
  731SOL     OW 2216   0.815   2.434   0.325
  731SOL    HW1 2217   0.822   2.345   0.279
  731SOL    HW2 2218   0.721   2.468   0.317
  732SOL     OW 2219   1.657   2.466   1.206
  732SOL    HW1 2220   1.619   2.397   1.268
  732SOL    HW2 2221   1.739   2.430   1.162
  733SOL     OW 2222   0.252   3.426   1.744
  733SOL    HW1 2223   0.222   3.483   1.820
  733SOL    HW2 2224   0.245   3.329   1.770
  734SOL     OW 2225   0.671   2.326   1.269
  734SOL    HW1 2226   0.637   2.237   1.239
  734SOL    HW2 2227   0.697   2.380   1.189
  735SOL     OW 2228   0.930   3.540   1.465
  735SOL    HW1 2229   0.906   3.522   1.370
  735SOL    HW2 2230   0.960   3.634   1.475
  736SOL     OW 2231   0.473   2.362   0.191
  736SOL    HW1 2232   0.534   2.442   0.195
  736SOL    HW2 2233   0.378   2.393   0.198
  737SOL     OW 2234   0.159   2.999   1.466
  737SOL    HW1 2235   0.181   2.938   1.542
  737SOL    HW2 2236   0.169   2.950   1.380
  738SOL     OW 2237   1.347   2.921   1.234
  738SOL    HW1 2238   1.371   2.858   1.160
  738SOL    HW2 2239   1.257   2.961   1.216
  739SOL     OW 2240   1.302   2.717   0.309
  739SOL    HW1 2241   1.216   2.686   0.351
  739SOL    HW2 2242   1.298   2.703   0.210
  740SOL     OW 2243   1.759   3.609   1.154
  740SOL    HW1 2244   1.820   3.639   1.081
  740SOL    HW2 2245   1.721   3.520   1.132
  741SOL     OW 2246   1.252   3.593   1.128
  741SOL    HW1 2247   1.336   3.598   1.074
  741SOL    HW2 2248   1.229   3.497   1.146
  742SOL     OW 2249   0.083   3.120   1.022
  742SOL    HW1 2250   0.078   3.119   1.122
  742SOL    HW2 2251   0.000   3.079   0.984
  743SOL     OW 2252   0.688   3.524   1.716
  743SOL    HW1 2253   0.632   3.605   1.725
  743SOL    HW2 2254   0.740   3.528   1.630
  744SOL     OW 2255   0.903   1.948   0.133
  744SOL    HW1 2256   0.954   1.949   0.047
  744SOL    HW2 2257   0.959   1.906   0.204
  745SOL     OW 2258   1.726   1.997   0.523
  745SOL    HW1 2259   1.799   1.980   0.456
  745SOL    HW2 2260   1.695   1.910   0.561
  746SOL     OW 2261   1.388   3.435   0.477
  746SOL    HW1 2262   1.455   3.447   0.403
  746SOL    HW2 2263   1.348   3.524   0.500
  747SOL     OW 2264   0.130   3.656   1.851
  747SOL    HW1 2265   0.089   3.582   1.904
  747SOL    HW2 2266   0.194   3.707   1.909
  748SOL     OW 2267   1.280   2.789   0.672
  748SOL    HW1 2268   1.340   2.708   0.674
  748SOL    HW2 2269   1.320   2.858   0.612
  749SOL     OW 2270   0.830   3.135   1.422
  749SOL    HW1 2271   0.825   3.168   1.517
  749SOL    HW2 2272   0.744   3.154   1.376
  750SOL     OW 2273   0.672   3.478   0.154
  750SOL    HW1 2274   0.681   3.488   0.055
  750SOL    HW2 2275   0.632   3.389   0.175
  751SOL     OW 2276   1.650   3.582   1.394
  751SOL    HW1 2277   1.703   3.592   1.310
  751SOL    HW2 2278   1.623   3.672   1.428
  752SOL     OW 2279   1.841   2.037   0.963
  752SOL    HW1 2280   1.880   1.952   0.927
  752SOL    HW2 2281   1.743   2.039   0.944
  753SOL     OW 2282   0.263   2.188   0.720
  753SOL    HW1 2283   0.184   2.239   0.686
  753SOL    HW2 2284   0.254   2.173   0.818
  754SOL     OW 2285   1.194   3.474   0.031
  754SOL    HW1 2286   1.200   3.381   0.068
  754SOL    HW2 2287   1.135   3.474  -0.049
  755SOL     OW 2288   0.822   2.864   1.372
  755SOL    HW1 2289   0.862   2.863   1.280
  755SOL    HW2 2290   0.832   2.956   1.412
  756SOL     OW 2291   0.916   2.772   0.291
  756SOL    HW1 2292   0.979   2.810   0.223
  756SOL    HW2 2293   0.956   2.689   0.330
  757SOL     OW 2294   1.504   3.469   0.044
  757SOL    HW1 2295   1.412   3.506   0.051
  757SOL    HW2 2296   1.542   3.489  -0.046
  758SOL     OW 2297   0.372   3.150   1.490
  758SOL    HW1 2298   0.359   3.243   1.456
  758SOL    HW2 2299   0.288   3.098   1.477
  759SOL     OW 2300   1.614   3.154   1.289
  759SOL    HW1 2301   1.674   3.157   1.369
  759SOL    HW2 2302   1.539   3.218   1.302
  760SOL     OW 2303   1.039   2.960   0.696
  760SOL    HW1 2304   0.969   2.913   0.750
  760SOL    HW2 2305   1.098   2.892   0.653
  761SOL     OW 2306   1.014   2.098   0.971
  761SOL    HW1 2307   1.006   2.062   0.878
  761SOL    HW2 2308   1.012   2.022   1.036
  762SOL     OW 2309   0.590   3.349   0.491
  762SOL    HW1 2310   0.632   3.291   0.421
  762SOL    HW2 2311   0.546   3.428   0.447
  763SOL     OW 2312   1.709   2.247   1.381
  763SOL    HW1 2313   1.782   2.316   1.385
  763SOL    HW2 2314   1.737   2.172   1.322
  764SOL     OW 2315   0.255   3.210   0.290
  764SOL    HW1 2316   0.159   3.211   0.263
  764SOL    HW2 2317   0.267   3.263   0.374
  765SOL     OW 2318   0.105   2.875   1.726
  765SOL    HW1 2319   0.028   2.842   1.780
  765SOL    HW2 2320   0.190   2.845   1.768
  766SOL     OW 2321   0.672   2.065   1.489
  766SOL    HW1 2322   0.762   2.049   1.449
  766SOL    HW2 2323   0.680   2.070   1.588
  767SOL     OW 2324   0.075   2.207   0.033
  767SOL    HW1 2325  -0.017   2.179   0.004
  767SOL    HW2 2326   0.106   2.284  -0.023
  768SOL     OW 2327   1.440   2.718   1.398
  768SOL    HW1 2328   1.383   2.770   1.335
  768SOL    HW2 2329   1.536   2.730   1.374
  769SOL     OW 2330   0.072   2.028   0.318
  769SOL    HW1 2331   0.055   2.111   0.264
  769SOL    HW2 2332   0.162   1.991   0.296
  770SOL     OW 2333   1.183   3.197   0.119
  770SOL    HW1 2334   1.084   3.186   0.121
  770SOL    HW2 2335   1.217   3.212   0.212
  771SOL     OW 2336   0.613   2.704   1.431
  771SOL    HW1 2337   0.669   2.785   1.414
  771SOL    HW2 2338   0.672   2.624   1.434
  772SOL     OW 2339   1.493   3.629   0.959
  772SOL    HW1 2340   1.526   3.693   0.890
  772SOL    HW2 2341   1.559   3.623   1.034
  773SOL     OW 2342   0.716   2.427   1.708
  773SOL    HW1 2343   0.735   2.492   1.782
  773SOL    HW2 2344   0.776   2.347   1.717
  774SOL     OW 2345   1.450   3.082   1.633
  774SOL    HW1 2346   1.441   3.072   1.732
  774SOL    HW2 2347   1.546   3.075   1.607
  775SOL     OW 2348   0.390   3.603   1.560
  775SOL    HW1 2349   0.299   3.644   1.558
  775SOL    HW2 2350   0.383   3.509   1.592
  776SOL     OW 2351   1.674   2.745   1.254
  776SOL    HW1 2352   1.647   2.656   1.217
  776SOL    HW2 2353   1.675   2.813   1.181
  777SOL     OW 2354   1.225   2.187   0.449
  777SOL    HW1 2355   1.290   2.113   0.438
  777SOL    HW2 2356   1.245   2.237   0.533
  778SOL     OW 2357   0.594   2.607   0.652
  778SOL    HW1 2358   0.644   2.692   0.633
  778SOL    HW2 2359   0.506   2.609   0.604
  779SOL     OW 2360   1.777   2.204   1.642
  779SOL    HW1 2361   1.760   2.235   1.548
  779SOL    HW2 2362   1.693   2.167   1.680
  780SOL     OW 2363   1.730   2.796   1.517
  780SOL    HW1 2364   1.768   2.887   1.532
  780SOL    HW2 2365   1.722   2.779   1.418
  781SOL     OW 2366   0.859   3.236   0.016
  781SOL    HW1 2367   0.813   3.251   0.104
  781SOL    HW2 2368   0.903   3.321  -0.014
  782SOL     OW 2369   0.661   3.652   0.953
  782SOL    HW1 2370   0.615   3.740   0.940
  782SOL    HW2 2371   0.760   3.664   0.946
  783SOL     OW 2372   0.859   2.818   0.861
  783SOL    HW1 2373   0.913   2.749   0.909
  783SOL    HW2 2374   0.827   2.887   0.927
  784SOL     OW 2375   1.083   2.846   0.087
  784SOL    HW1 2376   1.060   2.899   0.005
  784SOL    HW2 2377   1.164   2.790   0.068
  785SOL     OW 2378   1.861   3.431   0.851
  785SOL    HW1 2379   1.790   3.419   0.781
  785SOL    HW2 2380   1.862   3.352   0.911
  786SOL     OW 2381   0.221   3.176   1.844
  786SOL    HW1 2382   0.156   3.103   1.823
  786SOL    HW2 2383   0.225   3.190   1.942
  787SOL     OW 2384   0.079   3.102   0.653
  787SOL    HW1 2385   0.078   3.055   0.741
  787SOL    HW2 2386   0.161   3.074   0.602
  788SOL     OW 2387   0.672   3.253   1.624
  788SOL    HW1 2388   0.594   3.203   1.662
  788SOL    HW2 2389   0.669   3.348   1.655
  789SOL     OW 2390   1.824   2.054   1.227
  789SOL    HW1 2391   1.820   1.964   1.271
  789SOL    HW2 2392   1.827   2.043   1.128
  790SOL     OW 2393   0.428   2.286   0.520
  790SOL    HW1 2394   0.458   2.214   0.458
  790SOL    HW2 2395   0.389   2.246   0.603
  791SOL     OW 2396   1.705   3.349   1.104
  791SOL    HW1 2397   1.612   3.324   1.077
  791SOL    HW2 2398   1.731   3.299   1.186
  792SOL     OW 2399   0.317   2.409   1.280
  792SOL    HW1 2400   0.355   2.350   1.352
  792SOL    HW2 2401   0.357   2.383   1.192
  793SOL     OW 2402   0.812   3.448   0.687
  793SOL    HW1 2403   0.844   3.458   0.593
  793SOL    HW2 2404   0.733   3.386   0.689
  794SOL     OW 2405   1.424   2.076   1.112
  794SOL    HW1 2406   1.476   2.011   1.167
  794SOL    HW2 2407   1.375   2.139   1.173
  795SOL     OW 2408   1.001   1.896   1.154
  795SOL    HW1 2409   0.938   1.824   1.123
  795SOL    HW2 2410   1.094   1.860   1.154
  796SOL     OW 2411   0.770   3.192   0.301
  796SOL    HW1 2412   0.724   3.105   0.318
  796SOL    HW2 2413   0.861   3.189   0.342
  797SOL     OW 2414   0.618   3.429   1.284
  797SOL    HW1 2415   0.613   3.511   1.341
  797SOL    HW2 2416   0.707   3.426   1.239
  798SOL     OW 2417   1.352   1.914   0.168
  798SOL    HW1 2418   1.387   1.873   0.084
  798SOL    HW2 2419   1.262   1.876   0.188
  799SOL     OW 2420   1.300   2.315   0.691
  799SOL    HW1 2421   1.241   2.395   0.695
  799SOL    HW2 2422   1.315   2.280   0.784
  800SOL     OW 2423   1.593   2.083   0.882
  800SOL    HW1 2424   1.509   2.082   0.936
  800SOL    HW2 2425   1.595   2.166   0.826
  801SOL     OW 2426   0.039   2.939   0.300
  801SOL    HW1 2427   0.138   2.928   0.291
  801SOL    HW2 2428  -0.001   2.853   0.332
  802SOL     OW 2429   0.875   3.508   0.337
  802SOL    HW1 2430   0.798   3.473   0.283
  802SOL    HW2 2431   0.843   3.579   0.399
  803SOL     OW 2432   0.230   2.490   1.975
  803SOL    HW1 2433   0.137   2.488   2.012
  803SOL    HW2 2434   0.231   2.451   1.883
  804SOL     OW 2435   0.225   2.137   2.858
  804SOL    HW1 2436   0.260   2.120   2.950
  804SOL    HW2 2437   0.137   2.092   2.846
  805SOL     OW 2438   0.019   2.230   2.509
  805SOL    HW1 2439  -0.063   2.273   2.548
  805SOL    HW2 2440  -0.009   2.157   2.446
  806SOL     OW 2441   0.569   3.137   3.027
  806SOL    HW1 2442   0.476   3.130   2.990
  806SOL    HW2 2443   0.580   3.226   3.071
  807SOL     OW 2444   1.555   3.373   2.565
  807SOL    HW1 2445   1.498   3.357   2.646
  807SOL    HW2 2446   1.496   3.383   2.485
  808SOL     OW 2447   1.135   2.565   2.579
  808SOL    HW1 2448   1.192   2.643   2.554
  808SOL    HW2 2449   1.075   2.591   2.655
  809SOL     OW 2450   1.755   2.469   2.093
  809SOL    HW1 2451   1.743   2.456   1.994
  809SOL    HW2 2452   1.725   2.388   2.142
  810SOL     OW 2453   0.768   3.006   2.885
  810SOL    HW1 2454   0.690   3.023   2.945
  810SOL    HW2 2455   0.802   3.093   2.849
  811SOL     OW 2456   0.850   2.660   3.685
  811SOL    HW1 2457   0.846   2.736   3.750
  811SOL    HW2 2458   0.872   2.696   3.594
  812SOL     OW 2459   0.685   2.874   2.527
  812SOL    HW1 2460   0.754   2.858   2.597
  812SOL    HW2 2461   0.612   2.931   2.565
  813SOL     OW 2462   0.686   3.023   3.665
  813SOL    HW1 2463   0.746   3.102   3.679
  813SOL    HW2 2464   0.600   3.054   3.624
  814SOL     OW 2465   0.335   3.297   2.923
  814SOL    HW1 2466   0.257   3.266   2.870
  814SOL    HW2 2467   0.393   3.355   2.866
  815SOL     OW 2468   1.460   3.367   3.201
  815SOL    HW1 2469   1.484   3.461   3.227
  815SOL    HW2 2470   1.444   3.313   3.283
  816SOL     OW 2471   0.438   2.254   3.361
  816SOL    HW1 2472   0.520   2.198   3.370
  816SOL    HW2 2473   0.357   2.196   3.365
  817SOL     OW 2474   1.603   2.309   2.599
  817SOL    HW1 2475   1.529   2.355   2.549
  817SOL    HW2 2476   1.654   2.377   2.652
  818SOL     OW 2477   0.231   3.575   2.345
  818SOL    HW1 2478   0.265   3.652   2.399
  818SOL    HW2 2479   0.275   3.575   2.255
  819SOL     OW 2480   1.127   3.203   3.552
  819SOL    HW1 2481   1.174   3.203   3.640
  819SOL    HW2 2482   1.079   3.116   3.541
  820SOL     OW 2483   0.230   3.296   2.400
  820SOL    HW1 2484   0.204   3.392   2.400
  820SOL    HW2 2485   0.159   3.242   2.445
  821SOL     OW 2486   0.240   2.953   2.748
  821SOL    HW1 2487   0.254   2.869   2.800
  821SOL    HW2 2488   0.185   3.017   2.803
  822SOL     OW 2489   0.620   3.648   3.301
  822SOL    HW1 2490   0.528   3.631   3.336
  822SOL    HW2 2491   0.648   3.740   3.327
  823SOL     OW 2492   0.606   2.826   1.985
  823SOL    HW1 2493   0.613   2.910   1.931
  823SOL    HW2 2494   0.652   2.839   2.073
  824SOL     OW 2495   1.594   1.976   3.342
  824SOL    HW1 2496   1.576   2.043   3.270
  824SOL    HW2 2497   1.591   2.022   3.431
  825SOL     OW 2498   0.122   2.505   2.425
  825SOL    HW1 2499   0.077   2.417   2.442
  825SOL    HW2 2500   0.121   2.559   2.509
  826SOL     OW 2501   1.842   3.629   2.221
  826SOL    HW1 2502   1.896   3.600   2.301
  826SOL    HW2 2503   1.872   3.719   2.192
  827SOL     OW 2504   0.027   3.458   1.979
  827SOL    HW1 2505   0.008   3.362   2.000
  827SOL    HW2 2506  -0.006   3.516   2.054
  828SOL     OW 2507   1.689   2.784   2.474
  828SOL    HW1 2508   1.784   2.755   2.482
  828SOL    HW2 2509   1.681   2.849   2.399
  829SOL     OW 2510   1.641   2.970   2.294
  829SOL    HW1 2511   1.727   2.972   2.242
  829SOL    HW2 2512   1.655   3.017   2.382
  830SOL     OW 2513   0.113   2.599   3.459
  830SOL    HW1 2514   0.201   2.586   3.504
  830SOL    HW2 2515   0.100   2.696   3.437
  831SOL     OW 2516   0.613   3.227   2.588
  831SOL    HW1 2517   0.564   3.140   2.597
  831SOL    HW2 2518   0.590   3.270   2.501
  832SOL     OW 2519   1.293   3.090   3.285
  832SOL    HW1 2520   1.330   3.017   3.227
  832SOL    HW2 2521   1.345   3.095   3.370
  833SOL     OW 2522   0.809   1.866   2.364
  833SOL    HW1 2523   0.849   1.957   2.355
  833SOL    HW2 2524   0.709   1.874   2.370
  834SOL     OW 2525   0.197   2.838   3.126
  834SOL    HW1 2526   0.286   2.793   3.112
  834SOL    HW2 2527   0.124   2.773   3.107
  835SOL     OW 2528   1.525   2.861   2.052
  835SOL    HW1 2529   1.462   2.785   2.065
  835SOL    HW2 2530   1.573   2.879   2.138
  836SOL     OW 2531   1.187   3.654   3.478
  836SOL    HW1 2532   1.211   3.714   3.402
  836SOL    HW2 2533   1.194   3.559   3.448
  837SOL     OW 2534   0.317   2.113   3.663
  837SOL    HW1 2535   0.388   2.184   3.669
  837SOL    HW2 2536   0.229   2.152   3.691
  838SOL     OW 2537   1.466   3.279   2.815
  838SOL    HW1 2538   1.407   3.285   2.895
  838SOL    HW2 2539   1.451   3.191   2.769
  839SOL     OW 2540   1.667   3.576   2.434
  839SOL    HW1 2541   1.626   3.553   2.346
  839SOL    HW2 2542   1.649   3.502   2.499
  840SOL     OW 2543   0.598   2.591   2.132
  840SOL    HW1 2544   0.622   2.660   2.064
  840SOL    HW2 2545   0.520   2.624   2.186
  841SOL     OW 2546   1.281   2.207   2.806
  841SOL    HW1 2547   1.195   2.157   2.793
  841SOL    HW2 2548   1.343   2.153   2.862
  842SOL     OW 2549   1.576   3.524   2.169
  842SOL    HW1 2550   1.665   3.570   2.172
  842SOL    HW2 2551   1.555   3.500   2.074
  843SOL     OW 2552   0.807   2.467   3.327
  843SOL    HW1 2553   0.760   2.464   3.416
  843SOL    HW2 2554   0.756   2.412   3.261
  844SOL     OW 2555   1.394   2.331   3.536
  844SOL    HW1 2556   1.374   2.374   3.624
  844SOL    HW2 2557   1.472   2.269   3.545
  845SOL     OW 2558   0.973   2.752   3.434
  845SOL    HW1 2559   1.019   2.668   3.405
  845SOL    HW2 2560   0.917   2.786   3.359
  846SOL     OW 2561   0.991   2.272   3.104
  846SOL    HW1 2562   0.914   2.306   3.158
  846SOL    HW2 2563   0.957   2.221   3.025
  847SOL     OW 2564   1.041   2.563   2.291
  847SOL    HW1 2565   1.067   2.559   2.387
  847SOL    HW2 2566   0.956   2.512   2.277
  848SOL     OW 2567   0.076   2.673   2.651
  848SOL    HW1 2568   0.175   2.661   2.660
  848SOL    HW2 2569   0.052   2.768   2.672
  849SOL     OW 2570   0.130   3.683   3.433
  849SOL    HW1 2571   0.120   3.668   3.532
  849SOL    HW2 2572   0.044   3.719   3.397
  850SOL     OW 2573   0.865   2.210   2.057
  850SOL    HW1 2574   0.924   2.273   2.008
  850SOL    HW2 2575   0.884   2.116   2.028
  851SOL     OW 2576   1.719   2.447   3.693
  851SOL    HW1 2577   1.693   2.536   3.657
  851SOL    HW2 2578   1.717   2.379   3.620
  852SOL     OW 2579   1.362   3.006   2.407
  852SOL    HW1 2580   1.445   2.977   2.359
  852SOL    HW2 2581   1.313   3.073   2.351
  853SOL     OW 2582   0.550   2.058   2.747
  853SOL    HW1 2583   0.545   2.053   2.847
  853SOL    HW2 2584   0.552   2.154   2.718
  854SOL     OW 2585   1.008   3.318   2.339
  854SOL    HW1 2586   0.962   3.390   2.287
  854SOL    HW2 2587   1.004   3.338   2.437
  855SOL     OW 2588   0.351   3.663   2.715
  855SOL    HW1 2589   0.401   3.577   2.721
  855SOL    HW2 2590   0.416   3.740   2.712
  856SOL     OW 2591   1.795   2.928   2.735
  856SOL    HW1 2592   1.733   2.913   2.659
  856SOL    HW2 2593   1.743   2.939   2.820
  857SOL     OW 2594   1.227   3.412   3.368
  857SOL    HW1 2595   1.233   3.335   3.432
  857SOL    HW2 2596   1.175   3.386   3.288
  858SOL     OW 2597   0.321   2.805   2.104
  858SOL    HW1 2598   0.403   2.844   2.062
  858SOL    HW2 2599   0.294   2.723   2.055
  859SOL     OW 2600   1.458   2.597   2.590
  859SOL    HW1 2601   1.453   2.532   2.665
  859SOL    HW2 2602   1.538   2.656   2.603
  860SOL     OW 2603   0.461   3.128   3.589
  860SOL    HW1 2604   0.411   3.129   3.503
  860SOL    HW2 2605   0.398   3.110   3.665
  861SOL     OW 2606   1.111   3.638   2.099
  861SOL    HW1 2607   1.051   3.576   2.149
  861SOL    HW2 2608   1.142   3.594   2.014
  862SOL     OW 2609   0.202   2.147   3.360
  862SOL    HW1 2610   0.122   2.207   3.347
  862SOL    HW2 2611   0.192   2.098   3.446
  863SOL     OW 2612   1.632   3.239   1.943
  863SOL    HW1 2613   1.600   3.333   1.933
  863SOL    HW2 2614   1.556   3.176   1.931
  864SOL     OW 2615   0.464   3.605   2.185
  864SOL    HW1 2616   0.497   3.644   2.271
  864SOL    HW2 2617   0.540   3.598   2.120
  865SOL     OW 2618   1.400   1.969   2.288
  865SOL    HW1 2619   1.376   1.932   2.198
  865SOL    HW2 2620   1.499   1.985   2.292
  866SOL     OW 2621   0.249   3.647   3.103
  866SOL    HW1 2622   0.306   3.582   3.153
  866SOL    HW2 2623   0.233   3.614   3.010
  867SOL     OW 2624   0.940   3.560   2.766
  867SOL    HW1 2625   1.020   3.503   2.787
  867SOL    HW2 2626   0.891   3.520   2.689
  868SOL     OW 2627   0.382   2.562   2.342
  868SOL    HW1 2628   0.427   2.472   2.339
  868SOL    HW2 2629   0.288   2.551   2.375
  869SOL     OW 2630   1.547   2.084   3.591
  869SOL    HW1 2631   1.542   2.121   3.683
  869SOL    HW2 2632   1.475   2.015   3.579
  870SOL     OW 2633   0.614   1.984   1.979
  870SOL    HW1 2634   0.712   1.962   1.986
  870SOL    HW2 2635   0.583   1.967   1.886
  871SOL     OW 2636   0.781   2.126   3.611
  871SOL    HW1 2637   0.848   2.065   3.654
  871SOL    HW2 2638   0.708   2.145   3.676
  872SOL     OW 2639   0.888   3.376   3.057
  872SOL    HW1 2640   0.865   3.351   2.963
  872SOL    HW2 2641   0.949   3.307   3.096
  873SOL     OW 2642   1.351   2.452   3.295
  873SOL    HW1 2643   1.379   2.409   3.380
  873SOL    HW2 2644   1.376   2.548   3.296
  874SOL     OW 2645   0.803   3.264   2.786
  874SOL    HW1 2646   0.893   3.278   2.744
  874SOL    HW2 2647   0.732   3.266   2.715
  875SOL     OW 2648   0.922   2.365   2.761
  875SOL    HW1 2649   0.897   2.356   2.665
  875SOL    HW2 2650   0.970   2.283   2.792
  876SOL     OW 2651   0.539   1.926   2.374
  876SOL    HW1 2652   0.458   1.927   2.432
  876SOL    HW2 2653   0.542   2.009   2.319
  877SOL     OW 2654   1.434   3.050   1.903
  877SOL    HW1 2655   1.466   2.974   1.960
  877SOL    HW2 2656   1.342   3.077   1.933
  878SOL     OW 2657   0.297   1.897   2.033
  878SOL    HW1 2658   0.346   1.981   2.012
  878SOL    HW2 2659   0.359   1.832   2.078
  879SOL     OW 2660   0.935   2.098   2.342
  879SOL    HW1 2661   0.887   2.139   2.264
  879SOL    HW2 2662   1.034   2.096   2.323
  880SOL     OW 2663   1.076   2.545   3.326
  880SOL    HW1 2664   0.996   2.484   3.329
  880SOL    HW2 2665   1.157   2.492   3.302
  881SOL     OW 2666   1.227   3.432   2.655
  881SOL    HW1 2667   1.248   3.506   2.590
  881SOL    HW2 2668   1.295   3.432   2.728
  882SOL     OW 2669   0.459   3.014   2.603
  882SOL    HW1 2670   0.388   2.987   2.668
  882SOL    HW2 2671   0.433   2.986   2.510
  883SOL     OW 2672   1.271   3.659   2.453
  883SOL    HW1 2673   1.315   3.723   2.389
  883SOL    HW2 2674   1.221   3.711   2.523
  884SOL     OW 2675   1.032   2.411   1.878
  884SOL    HW1 2676   0.991   2.493   1.839
  884SOL    HW2 2677   1.096   2.437   1.951
  885SOL     OW 2678   0.078   2.418   3.248
  885SOL    HW1 2679   0.170   2.417   3.207
  885SOL    HW2 2680   0.072   2.492   3.315
  886SOL     OW 2681   0.561   2.084   3.009
  886SOL    HW1 2682   0.599   2.000   3.046
  886SOL    HW2 2683   0.473   2.103   3.053
  887SOL     OW 2684   0.866   2.316   2.504
  887SOL    HW1 2685   0.834   2.388   2.442
  887SOL    HW2 2686   0.890   2.235   2.451
  888SOL     OW 2687   1.017   1.901   2.615
  888SOL    HW1 2688   0.945   1.906   2.546
  888SOL    HW2 2689   0.993   1.832   2.684
  889SOL     OW 2690   1.429   3.035   2.729
  889SOL    HW1 2691   1.374   2.951   2.722
  889SOL    HW2 2692   1.455   3.064   2.637
  890SOL     OW 2693   1.466   2.452   2.854
  890SOL    HW1 2694   1.436   2.357   2.861
  890SOL    HW2 2695   1.539   2.468   2.920
  891SOL     OW 2696   1.857   2.695   2.239
  891SOL    HW1 2697   1.899   2.631   2.303
  891SOL    HW2 2698   1.819   2.644   2.161
  892SOL     OW 2699   0.488   3.247   2.036
  892SOL    HW1 2700   0.401   3.232   2.083
  892SOL    HW2 2701   0.471   3.273   1.941
  893SOL     OW 2702   1.664   3.142   2.519
  893SOL    HW1 2703   1.763   3.150   2.533
  893SOL    HW2 2704   1.619   3.226   2.550
  894SOL     OW 2705   1.390   2.437   1.940
  894SOL    HW1 2706   1.336   2.416   2.021
  894SOL    HW2 2707   1.481   2.396   1.949
  895SOL     OW 2708   0.527   2.118   2.190
  895SOL    HW1 2709   0.554   2.059   2.115
  895SOL    HW2 2710   0.527   2.213   2.159
  896SOL     OW 2711   1.754   3.085   3.450
  896SOL    HW1 2712   1.845   3.046   3.437
  896SOL    HW2 2713   1.762   3.181   3.474
  897SOL     OW 2714   1.064   3.209   3.202
  897SOL    HW1 2715   0.984   3.186   3.257
  897SOL    HW2 2716   1.147   3.183   3.251
  898SOL     OW 2717   1.592   3.491   3.487
  898SOL    HW1 2718   1.619   3.525   3.397
  898SOL    HW2 2719   1.671   3.453   3.533
  899SOL     OW 2720   1.111   3.057   2.962
  899SOL    HW1 2721   1.071   3.101   3.043
  899SOL    HW2 2722   1.070   3.094   2.879
  900SOL     OW 2723   1.638   2.961   2.941
  900SOL    HW1 2724   1.643   3.042   3.000
  900SOL    HW2 2725   1.552   2.963   2.890
  901SOL     OW 2726   0.915   1.951   3.264
  901SOL    HW1 2727   0.940   1.931   3.169
  901SOL    HW2 2728   0.987   2.007   3.306
  902SOL     OW 2729   0.980   2.978   3.581
  902SOL    HW1 2730   0.881   2.984   3.591
  902SOL    HW2 2731   1.003   2.898   3.525
  903SOL     OW 2732   0.705   2.912   2.230
  903SOL    HW1 2733   0.691   2.919   2.329
  903SOL    HW2 2734   0.789   2.861   2.212
  904SOL     OW 2735   0.410   2.675   3.113
  904SOL    HW1 2736   0.496   2.687   3.163
  904SOL    HW2 2737   0.368   2.588   3.140
  905SOL     OW 2738   1.274   2.248   3.124
  905SOL    HW1 2739   1.295   2.322   3.188
  905SOL    HW2 2740   1.185   2.265   3.081
  906SOL     OW 2741   0.064   3.426   3.193
  906SOL    HW1 2742   0.018   3.508   3.159
  906SOL    HW2 2743   0.162   3.445   3.202
  907SOL     OW 2744   0.367   2.962   2.363
  907SOL    HW1 2745   0.360   3.045   2.307
  907SOL    HW2 2746   0.371   2.882   2.303
  908SOL     OW 2747   0.566   2.399   2.727
  908SOL    HW1 2748   0.578   2.465   2.653
  908SOL    HW2 2749   0.612   2.433   2.810
  909SOL     OW 2750   1.252   3.210   2.250
  909SOL    HW1 2751   1.302   3.287   2.290
  909SOL    HW2 2752   1.157   3.212   2.282
  910SOL     OW 2753   1.272   3.307   3.004
  910SOL    HW1 2754   1.319   3.320   3.091
  910SOL    HW2 2755   1.206   3.233   3.013
  911SOL     OW 2756   1.582   2.501   2.334
  911SOL    HW1 2757   1.551   2.562   2.407
  911SOL    HW2 2758   1.632   2.553   2.265
  912SOL     OW 2759   0.354   3.372   3.191
  912SOL    HW1 2760   0.333   3.328   3.104
  912SOL    HW2 2761   0.451   3.398   3.194
  913SOL     OW 2762   0.402   2.613   3.460
  913SOL    HW1 2763   0.470   2.668   3.413
  913SOL    HW2 2764   0.442   2.525   3.487
  914SOL     OW 2765   1.587   2.641   3.532
  914SOL    HW1 2766   1.495   2.679   3.527
  914SOL    HW2 2767   1.647   2.688   3.467
  915SOL     OW 2768   1.013   1.967   3.632
  915SOL    HW1 2769   1.019   2.052   3.580
  915SOL    HW2 2770   1.045   1.891   3.575
  916SOL     OW 2771   0.504   1.912   3.602
  916SOL    HW1 2772   0.462   1.855   3.532
  916SOL    HW2 2773   0.438   1.981   3.634
  917SOL     OW 2774   0.573   2.732   2.891
  917SOL    HW1 2775   0.617   2.821   2.882
  917SOL    HW2 2776   0.510   2.732   2.968
  918SOL     OW 2777   1.360   2.724   2.907
  918SOL    HW1 2778   1.285   2.724   2.841
  918SOL    HW2 2779   1.397   2.632   2.916
  919SOL     OW 2780   1.209   2.387   2.137
  919SOL    HW1 2781   1.222   2.303   2.191
  919SOL    HW2 2782   1.180   2.461   2.197
  920SOL     OW 2783   0.307   2.075   3.093
  920SOL    HW1 2784   0.284   2.112   3.183
  920SOL    HW2 2785   0.277   1.980   3.087
  921SOL     OW 2786   0.037   3.172   3.144
  921SOL    HW1 2787   0.090   3.123   3.212
  921SOL    HW2 2788   0.059   3.270   3.149
  922SOL     OW 2789   0.732   2.496   2.926
  922SOL    HW1 2790   0.791   2.470   2.850
  922SOL    HW2 2791   0.704   2.592   2.915
  923SOL     OW 2792   1.728   2.797   3.716
  923SOL    HW1 2793   1.682   2.790   3.627
  923SOL    HW2 2794   1.666   2.841   3.782
  924SOL     OW 2795   0.307   1.925   2.480
  924SOL    HW1 2796   0.296   2.019   2.513
  924SOL    HW2 2797   0.302   1.862   2.557
  925SOL     OW 2798   1.622   2.229   2.236
  925SOL    HW1 2799   1.624   2.153   2.300
  925SOL    HW2 2800   1.574   2.306   2.276
  926SOL     OW 2801   1.023   2.628   2.828
  926SOL    HW1 2802   1.038   2.649   2.924
  926SOL    HW2 2803   0.993   2.533   2.819
  927SOL     OW 2804   0.980   3.435   3.562
  927SOL    HW1 2805   0.960   3.479   3.474
  927SOL    HW2 2806   1.019   3.344   3.546
  928SOL     OW 2807   1.859   3.380   3.467
  928SOL    HW1 2808   1.873   3.407   3.372
  928SOL    HW2 2809   1.942   3.402   3.520
  929SOL     OW 2810   0.350   2.760   3.666
  929SOL    HW1 2811   0.426   2.804   3.714
  929SOL    HW2 2812   0.385   2.713   3.584
  930SOL     OW 2813   1.540   2.136   1.987
  930SOL    HW1 2814   1.479   2.061   2.010
  930SOL    HW2 2815   1.562   2.188   2.070
  931SOL     OW 2816   1.303   2.700   1.904
  931SOL    HW1 2817   1.337   2.607   1.919
  931SOL    HW2 2818   1.321   2.727   1.809
  932SOL     OW 2819   1.068   3.195   2.711
  932SOL    HW1 2820   1.075   3.111   2.656
  932SOL    HW2 2821   1.130   3.264   2.675
  933SOL     OW 2822   0.319   2.672   2.811
  933SOL    HW1 2823   0.412   2.708   2.816
  933SOL    HW2 2824   0.313   2.587   2.863
  934SOL     OW 2825   0.339   2.371   2.868
  934SOL    HW1 2826   0.287   2.288   2.851
  934SOL    HW2 2827   0.416   2.376   2.804
  935SOL     OW 2828   1.138   2.242   3.540
  935SOL    HW1 2829   1.093   2.305   3.604
  935SOL    HW2 2830   1.231   2.273   3.523
  936SOL     OW 2831   1.160   2.069   3.339
  936SOL    HW1 2832   1.160   2.133   3.416
  936SOL    HW2 2833   1.188   2.117   3.256
  937SOL     OW 2834   0.008   3.188   2.062
  937SOL    HW1 2835  -0.085   3.209   2.031
  937SOL    HW2 2836   0.018   3.089   2.075
  938SOL     OW 2837   0.088   3.663   2.789
  938SOL    HW1 2838   0.046   3.577   2.762
  938SOL    HW2 2839   0.182   3.666   2.755
  939SOL     OW 2840   0.504   3.430   2.772
  939SOL    HW1 2841   0.570   3.504   2.781
  939SOL    HW2 2842   0.548   3.351   2.730
  940SOL     OW 2843   1.002   2.658   3.100
  940SOL    HW1 2844   1.043   2.626   3.186
  940SOL    HW2 2845   0.906   2.631   3.097
  941SOL     OW 2846   0.040   2.406   2.976
  941SOL    HW1 2847   0.125   2.373   2.935
  941SOL    HW2 2848   0.053   2.421   3.074
  942SOL     OW 2849   0.189   2.382   3.584
  942SOL    HW1 2850   0.248   2.342   3.514
  942SOL    HW2 2851   0.131   2.453   3.543
  943SOL     OW 2852   1.369   2.812   3.522
  943SOL    HW1 2853   1.408   2.901   3.542
  943SOL    HW2 2854   1.379   2.792   3.425
  944SOL     OW 2855   0.815   2.434   2.187
  944SOL    HW1 2856   0.822   2.345   2.141
  944SOL    HW2 2857   0.721   2.468   2.179
  945SOL     OW 2858   1.657   2.466   3.068
  945SOL    HW1 2859   1.619   2.397   3.130
  945SOL    HW2 2860   1.739   2.430   3.024
  946SOL     OW 2861   0.252   3.426   3.606
  946SOL    HW1 2862   0.222   3.483   3.682
  946SOL    HW2 2863   0.245   3.329   3.632
  947SOL     OW 2864   0.671   2.326   3.131
  947SOL    HW1 2865   0.637   2.237   3.101
  947SOL    HW2 2866   0.697   2.380   3.051
  948SOL     OW 2867   0.930   3.540   3.327
  948SOL    HW1 2868   0.906   3.522   3.232
  948SOL    HW2 2869   0.960   3.634   3.337
  949SOL     OW 2870   0.473   2.362   2.053
  949SOL    HW1 2871   0.534   2.442   2.057
  949SOL    HW2 2872   0.378   2.393   2.060
  950SOL     OW 2873   0.159   2.999   3.328
  950SOL    HW1 2874   0.181   2.938   3.404
  950SOL    HW2 2875   0.169   2.950   3.242
  951SOL     OW 2876   1.347   2.921   3.096
  951SOL    HW1 2877   1.371   2.858   3.022
  951SOL    HW2 2878   1.257   2.961   3.078
  952SOL     OW 2879   1.302   2.717   2.171
  952SOL    HW1 2880   1.216   2.686   2.213
  952SOL    HW2 2881   1.298   2.703   2.072
  953SOL     OW 2882   1.759   3.609   3.016
  953SOL    HW1 2883   1.820   3.639   2.943
  953SOL    HW2 2884   1.721   3.520   2.994
  954SOL     OW 2885   1.252   3.593   2.990
  954SOL    HW1 2886   1.336   3.598   2.936
  954SOL    HW2 2887   1.229   3.497   3.008
  955SOL     OW 2888   0.083   3.120   2.884
  955SOL    HW1 2889   0.078   3.119   2.984
  955SOL    HW2 2890   0.000   3.079   2.846
  956SOL     OW 2891   0.688   3.524   3.578
  956SOL    HW1 2892   0.632   3.605   3.587
  956SOL    HW2 2893   0.740   3.528   3.492
  957SOL     OW 2894   1.726   1.997   2.385
  957SOL    HW1 2895   1.799   1.980   2.318
  957SOL    HW2 2896   1.695   1.910   2.423
  958SOL     OW 2897   1.388   3.435   2.339
  958SOL    HW1 2898   1.455   3.447   2.265
  958SOL    HW2 2899   1.348   3.524   2.362
  959SOL     OW 2900   0.130   3.656   3.713
  959SOL    HW1 2901   0.089   3.582   3.766
  959SOL    HW2 2902   0.194   3.707   3.771
  960SOL     OW 2903   1.280   2.789   2.534
  960SOL    HW1 2904   1.340   2.708   2.536
  960SOL    HW2 2905   1.320   2.858   2.474
  961SOL     OW 2906   0.830   3.135   3.284
  961SOL    HW1 2907   0.825   3.168   3.379
  961SOL    HW2 2908   0.744   3.154   3.238
  962SOL     OW 2909   0.672   3.478   2.016
  962SOL    HW1 2910   0.681   3.488   1.917
  962SOL    HW2 2911   0.632   3.389   2.037
  963SOL     OW 2912   1.650   3.582   3.256
  963SOL    HW1 2913   1.703   3.592   3.172
  963SOL    HW2 2914   1.623   3.672   3.290
  964SOL     OW 2915   1.841   2.037   2.825
  964SOL    HW1 2916   1.880   1.952   2.789
  964SOL    HW2 2917   1.743   2.039   2.806
  965SOL     OW 2918   0.263   2.188   2.582
  965SOL    HW1 2919   0.184   2.239   2.548
  965SOL    HW2 2920   0.254   2.173   2.680
  966SOL     OW 2921   1.194   3.474   1.893
  966SOL    HW1 2922   1.200   3.381   1.930
  966SOL    HW2 2923   1.135   3.474   1.813
  967SOL     OW 2924   0.822   2.864   3.234
  967SOL    HW1 2925   0.862   2.863   3.142
  967SOL    HW2 2926   0.832   2.956   3.274
  968SOL     OW 2927   0.916   2.772   2.153
  968SOL    HW1 2928   0.979   2.810   2.085
  968SOL    HW2 2929   0.956   2.689   2.192
  969SOL     OW 2930   1.504   3.469   1.906
  969SOL    HW1 2931   1.412   3.506   1.913
  969SOL    HW2 2932   1.542   3.489   1.816
  970SOL     OW 2933   0.372   3.150   3.352
  970SOL    HW1 2934   0.359   3.243   3.318
  970SOL    HW2 2935   0.288   3.098   3.339
  971SOL     OW 2936   1.614   3.154   3.151
  971SOL    HW1 2937   1.674   3.157   3.231
  971SOL    HW2 2938   1.539   3.218   3.164
  972SOL     OW 2939   1.039   2.960   2.558
  972SOL    HW1 2940   0.969   2.913   2.612
  972SOL    HW2 2941   1.098   2.892   2.515
  973SOL     OW 2942   1.014   2.098   2.833
  973SOL    HW1 2943   1.006   2.062   2.740
  973SOL    HW2 2944   1.012   2.022   2.898
  974SOL     OW 2945   0.590   3.349   2.353
  974SOL    HW1 2946   0.632   3.291   2.283
  974SOL    HW2 2947   0.546   3.428   2.309
  975SOL     OW 2948   1.709   2.247   3.243
  975SOL    HW1 2949   1.782   2.316   3.247
  975SOL    HW2 2950   1.737   2.172   3.184
  976SOL     OW 2951   0.255   3.210   2.152
  976SOL    HW1 2952   0.159   3.211   2.125
  976SOL    HW2 2953   0.267   3.263   2.236
  977SOL     OW 2954   0.105   2.875   3.588
  977SOL    HW1 2955   0.028   2.842   3.642
  977SOL    HW2 2956   0.190   2.845   3.630
  978SOL     OW 2957   0.672   2.065   3.351
  978SOL    HW1 2958   0.762   2.049   3.311
  978SOL    HW2 2959   0.680   2.070   3.450
  979SOL     OW 2960   0.075   2.207   1.895
  979SOL    HW1 2961  -0.017   2.179   1.866
  979SOL    HW2 2962   0.106   2.284   1.839
  980SOL     OW 2963   1.440   2.718   3.260
  980SOL    HW1 2964   1.383   2.770   3.197
  980SOL    HW2 2965   1.536   2.730   3.236
  981SOL     OW 2966   0.072   2.028   2.180
  981SOL    HW1 2967   0.055   2.111   2.126
  981SOL    HW2 2968   0.162   1.991   2.158
  982SOL     OW 2969   1.183   3.197   1.981
  982SOL    HW1 2970   1.084   3.186   1.983
  982SOL    HW2 2971   1.217   3.212   2.074
  983SOL     OW 2972   0.613   2.704   3.293
  983SOL    HW1 2973   0.669   2.785   3.276
  983SOL    HW2 2974   0.672   2.624   3.296
  984SOL     OW 2975   1.493   3.629   2.821
  984SOL    HW1 2976   1.526   3.693   2.752
  984SOL    HW2 2977   1.559   3.623   2.896
  985SOL     OW 2978   0.716   2.427   3.570
  985SOL    HW1 2979   0.735   2.492   3.644
  985SOL    HW2 2980   0.776   2.347   3.579
  986SOL     OW 2981   1.450   3.082   3.495
  986SOL    HW1 2982   1.441   3.072   3.594
  986SOL    HW2 2983   1.546   3.075   3.469
  987SOL     OW 2984   0.390   3.603   3.422
  987SOL    HW1 2985   0.299   3.644   3.420
  987SOL    HW2 2986   0.383   3.509   3.454
  988SOL     OW 2987   1.674   2.745   3.116
  988SOL    HW1 2988   1.647   2.656   3.079
  988SOL    HW2 2989   1.675   2.813   3.043
  989SOL     OW 2990   1.225   2.187   2.311
  989SOL    HW1 2991   1.290   2.113   2.300
  989SOL    HW2 2992   1.245   2.237   2.395
  990SOL     OW 2993   0.594   2.607   2.514
  990SOL    HW1 2994   0.644   2.692   2.495
  990SOL    HW2 2995   0.506   2.609   2.466
  991SOL     OW 2996   1.777   2.204   3.504
  991SOL    HW1 2997   1.760   2.235   3.410
  991SOL    HW2 2998   1.693   2.167   3.542
  992SOL     OW 2999   1.730   2.796   3.379
  992SOL    HW1 3000   1.768   2.887   3.394
  992SOL    HW2 3001   1.722   2.779   3.280
  993SOL     OW 3002   0.859   3.236   1.878
  993SOL    HW1 3003   0.813   3.251   1.966
  993SOL    HW2 3004   0.903   3.321   1.848
  994SOL     OW 3005   0.661   3.652   2.815
  994SOL    HW1 3006   0.615   3.740   2.802
  994SOL    HW2 3007   0.760   3.664   2.808
  995SOL     OW 3008   0.859   2.818   2.723
  995SOL    HW1 3009   0.913   2.749   2.771
  995SOL    HW2 3010   0.827   2.887   2.789
  996SOL     OW 3011   1.083   2.846   1.949
  996SOL    HW1 3012   1.060   2.899   1.867
  996SOL    HW2 3013   1.164   2.790   1.930
  997SOL     OW 3014   1.861   3.431   2.713
  997SOL    HW1 3015   1.790   3.419   2.643
  997SOL    HW2 3016   1.862   3.352   2.773
  998SOL     OW 3017   0.221   3.176   3.706
  998SOL    HW1 3018   0.156   3.103   3.685
  998SOL    HW2 3019   0.225   3.190   3.804
  999SOL     OW 3020   0.079   3.102   2.515
  999SOL    HW1 3021   0.078   3.055   2.603
  999SOL    HW2 3022   0.161   3.074   2.464
 1000SOL     OW 3023   0.672   3.253   3.486
 1000SOL    HW1 3024   0.594   3.203   3.524
 1000SOL    HW2 3025   0.669   3.348   3.517
 1001SOL     OW 3026   1.824   2.054   3.089
 1001SOL    HW1 3027   1.820   1.964   3.133
 1001SOL    HW2 3028   1.827   2.043   2.990
 1002SOL     OW 3029   0.428   2.286   2.382
 1002SOL    HW1 3030   0.458   2.214   2.320
 1002SOL    HW2 3031   0.389   2.246   2.465
 1003SOL     OW 3032   1.705   3.349   2.966
 1003SOL    HW1 3033   1.612   3.324   2.939
 1003SOL    HW2 3034   1.731   3.299   3.048
 1004SOL     OW 3035   0.317   2.409   3.142
 1004SOL    HW1 3036   0.355   2.350   3.214
 1004SOL    HW2 3037   0.357   2.383   3.054
 1005SOL     OW 3038   0.812   3.448   2.549
 1005SOL    HW1 3039   0.844   3.458   2.455
 1005SOL    HW2 3040   0.733   3.386   2.551
 1006SOL     OW 3041   1.424   2.076   2.974
 1006SOL    HW1 3042   1.476   2.011   3.029
 1006SOL    HW2 3043   1.375   2.139   3.035
 1007SOL     OW 3044   1.001   1.896   3.016
 1007SOL    HW1 3045   0.938   1.824   2.985
 1007SOL    HW2 3046   1.094   1.860   3.016
 1008SOL     OW 3047   0.770   3.192   2.163
 1008SOL    HW1 3048   0.724   3.105   2.180
 1008SOL    HW2 3049   0.861   3.189   2.204
 1009SOL     OW 3050   0.618   3.429   3.146
 1009SOL    HW1 3051   0.613   3.511   3.203
 1009SOL    HW2 3052   0.707   3.426   3.101
 1010SOL     OW 3053   1.352   1.914   2.030
 1010SOL    HW1 3054   1.387   1.873   1.946
 1010SOL    HW2 3055   1.262   1.876   2.050
 1011SOL     OW 3056   1.300   2.315   2.553
 1011SOL    HW1 3057   1.241   2.395   2.557
 1011SOL    HW2 3058   1.315   2.280   2.646
 1012SOL     OW 3059   1.593   2.083   2.744
 1012SOL    HW1 3060   1.509   2.082   2.798
 1012SOL    HW2 3061   1.595   2.166   2.688
 1013SOL     OW 3062   0.039   2.939   2.162
 1013SOL    HW1 3063   0.138   2.928   2.153
 1013SOL    HW2 3064  -0.001   2.853   2.194
 1014SOL     OW 3065   0.875   3.508   2.199
 1014SOL    HW1 3066   0.798   3.473   2.145
 1014SOL    HW2 3067   0.843   3.579   2.261
 1015SOL     OW 3068   0.230   2.490   3.837
 1015SOL    HW1 3069   0.137   2.488   3.874
 1015SOL    HW2 3070   0.231   2.451   3.745
 1016SOL     OW 3071   0.225   2.137   4.720
 1016SOL    HW1 3072   0.260   2.120   4.812
 1016SOL    HW2 3073   0.137   2.092   4.708
 1017SOL     OW 3074   0.019   2.230   4.371
 1017SOL    HW1 3075  -0.063   2.273   4.410
 1017SOL    HW2 3076  -0.009   2.157   4.308
 1018SOL     OW 3077   0.569   3.137   4.889
 1018SOL    HW1 3078   0.476   3.130   4.852
 1018SOL    HW2 3079   0.580   3.226   4.933
 1019SOL     OW 3080   1.555   3.373   4.427
 1019SOL    HW1 3081   1.498   3.357   4.508
 1019SOL    HW2 3082   1.496   3.383   4.347
 1020SOL     OW 3083   1.135   2.565   4.441
 1020SOL    HW1 3084   1.192   2.643   4.416
 1020SOL    HW2 3085   1.075   2.591   4.517
 1021SOL     OW 3086   1.755   2.469   3.955
 1021SOL    HW1 3087   1.743   2.456   3.856
 1021SOL    HW2 3088   1.725   2.388   4.004
 1022SOL     OW 3089   0.768   3.006   4.747
 1022SOL    HW1 3090   0.690   3.023   4.807
 1022SOL    HW2 3091   0.802   3.093   4.711
 1023SOL     OW 3092   0.685   2.874   4.389
 1023SOL    HW1 3093   0.754   2.858   4.459
 1023SOL    HW2 3094   0.612   2.931   4.427
 1024SOL     OW 3095   0.335   3.297   4.785
 1024SOL    HW1 3096   0.257   3.266   4.732
 1024SOL    HW2 3097   0.393   3.355   4.728
 1025SOL     OW 3098   0.438   2.254   5.223
 1025SOL    HW1 3099   0.520   2.198   5.232
 1025SOL    HW2 3100   0.357   2.196   5.227
 1026SOL     OW 3101   1.603   2.309   4.461
 1026SOL    HW1 3102   1.529   2.355   4.411
 1026SOL    HW2 3103   1.654   2.377   4.514
 1027SOL     OW 3104   0.231   3.575   4.207
 1027SOL    HW1 3105   0.265   3.652   4.261
 1027SOL    HW2 3106   0.275   3.575   4.117
 1028SOL     OW 3107   0.230   3.296   4.262
 1028SOL    HW1 3108   0.204   3.392   4.262
 1028SOL    HW2 3109   0.159   3.242   4.307
 1029SOL     OW 3110   0.240   2.953   4.610
 1029SOL    HW1 3111   0.254   2.869   4.662
 1029SOL    HW2 3112   0.185   3.017   4.665
 1030SOL     OW 3113   0.620   3.648   5.163
 1030SOL    HW1 3114   0.528   3.631   5.198
 1030SOL    HW2 3115   0.648   3.740   5.189
 1031SOL     OW 3116   0.606   2.826   3.847
 1031SOL    HW1 3117   0.613   2.910   3.793
 1031SOL    HW2 3118   0.652   2.839   3.935
 1032SOL     OW 3119   0.122   2.505   4.287
 1032SOL    HW1 3120   0.077   2.417   4.304
 1032SOL    HW2 3121   0.121   2.559   4.371
 1033SOL     OW 3122   1.842   3.629   4.083
 1033SOL    HW1 3123   1.896   3.600   4.163
 1033SOL    HW2 3124   1.872   3.719   4.054
 1034SOL     OW 3125   0.027   3.458   3.841
 1034SOL    HW1 3126   0.008   3.362   3.862
 1034SOL    HW2 3127  -0.006   3.516   3.916
 1035SOL     OW 3128   1.689   2.784   4.336
 1035SOL    HW1 3129   1.784   2.755   4.344
 1035SOL    HW2 3130   1.681   2.849   4.261
 1036SOL     OW 3131   1.641   2.970   4.156
 1036SOL    HW1 3132   1.727   2.972   4.104
 1036SOL    HW2 3133   1.655   3.017   4.244
 1037SOL     OW 3134   0.613   3.227   4.450
 1037SOL    HW1 3135   0.564   3.140   4.459
 1037SOL    HW2 3136   0.590   3.270   4.363
 1038SOL     OW 3137   0.809   1.866   4.226
 1038SOL    HW1 3138   0.849   1.957   4.217
 1038SOL    HW2 3139   0.709   1.874   4.232
 1039SOL     OW 3140   0.197   2.838   4.988
 1039SOL    HW1 3141   0.286   2.793   4.974
 1039SOL    HW2 3142   0.124   2.773   4.969
 1040SOL     OW 3143   1.525   2.861   3.914
 1040SOL    HW1 3144   1.462   2.785   3.927
 1040SOL    HW2 3145   1.573   2.879   4.000
 1041SOL     OW 3146   1.466   3.279   4.677
 1041SOL    HW1 3147   1.407   3.285   4.757
 1041SOL    HW2 3148   1.451   3.191   4.631
 1042SOL     OW 3149   1.667   3.576   4.296
 1042SOL    HW1 3150   1.626   3.553   4.208
 1042SOL    HW2 3151   1.649   3.502   4.361
 1043SOL     OW 3152   0.598   2.591   3.994
 1043SOL    HW1 3153   0.622   2.660   3.926
 1043SOL    HW2 3154   0.520   2.624   4.048
 1044SOL     OW 3155   1.281   2.207   4.668
 1044SOL    HW1 3156   1.195   2.157   4.655
 1044SOL    HW2 3157   1.343   2.153   4.724
 1045SOL     OW 3158   1.576   3.524   4.031
 1045SOL    HW1 3159   1.665   3.570   4.034
 1045SOL    HW2 3160   1.555   3.500   3.936
 1046SOL     OW 3161   0.807   2.467   5.189
 1046SOL    HW1 3162   0.760   2.464   5.278
 1046SOL    HW2 3163   0.756   2.412   5.123
 1047SOL     OW 3164   0.991   2.272   4.966
 1047SOL    HW1 3165   0.914   2.306   5.020
 1047SOL    HW2 3166   0.957   2.221   4.887
 1048SOL     OW 3167   1.041   2.563   4.153
 1048SOL    HW1 3168   1.067   2.559   4.249
 1048SOL    HW2 3169   0.956   2.512   4.139
 1049SOL     OW 3170   0.076   2.673   4.513
 1049SOL    HW1 3171   0.175   2.661   4.522
 1049SOL    HW2 3172   0.052   2.768   4.534
 1050SOL     OW 3173   0.130   3.683   5.295
 1050SOL    HW1 3174   0.120   3.668   5.394
 1050SOL    HW2 3175   0.044   3.719   5.259
 1051SOL     OW 3176   0.865   2.210   3.919
 1051SOL    HW1 3177   0.924   2.273   3.870
 1051SOL    HW2 3178   0.884   2.116   3.890
 1052SOL     OW 3179   1.362   3.006   4.269
 1052SOL    HW1 3180   1.445   2.977   4.221
 1052SOL    HW2 3181   1.313   3.073   4.213
 1053SOL     OW 3182   0.550   2.058   4.609
 1053SOL    HW1 3183   0.545   2.053   4.709
 1053SOL    HW2 3184   0.552   2.154   4.580
 1054SOL     OW 3185   1.008   3.318   4.201
 1054SOL    HW1 3186   0.962   3.390   4.149
 1054SOL    HW2 3187   1.004   3.338   4.299
 1055SOL     OW 3188   0.351   3.663   4.577
 1055SOL    HW1 3189   0.401   3.577   4.583
 1055SOL    HW2 3190   0.416   3.740   4.574
 1056SOL     OW 3191   1.795   2.928   4.597
 1056SOL    HW1 3192   1.733   2.913   4.521
 1056SOL    HW2 3193   1.743   2.939   4.682
 1057SOL     OW 3194   0.321   2.805   3.966
 1057SOL    HW1 3195   0.403   2.844   3.924
 1057SOL    HW2 3196   0.294   2.723   3.917
 1058SOL     OW 3197   1.458   2.597   4.452
 1058SOL    HW1 3198   1.453   2.532   4.527
 1058SOL    HW2 3199   1.538   2.656   4.465
 1059SOL     OW 3200   1.111   3.638   3.961
 1059SOL    HW1 3201   1.051   3.576   4.011
 1059SOL    HW2 3202   1.142   3.594   3.876
 1060SOL     OW 3203   1.632   3.239   3.805
 1060SOL    HW1 3204   1.600   3.333   3.795
 1060SOL    HW2 3205   1.556   3.176   3.793
 1061SOL     OW 3206   0.464   3.605   4.047
 1061SOL    HW1 3207   0.497   3.644   4.133
 1061SOL    HW2 3208   0.540   3.598   3.982
 1062SOL     OW 3209   1.400   1.969   4.150
 1062SOL    HW1 3210   1.376   1.932   4.060
 1062SOL    HW2 3211   1.499   1.985   4.154
 1063SOL     OW 3212   0.249   3.647   4.965
 1063SOL    HW1 3213   0.306   3.582   5.015
 1063SOL    HW2 3214   0.233   3.614   4.872
 1064SOL     OW 3215   0.940   3.560   4.628
 1064SOL    HW1 3216   1.020   3.503   4.649
 1064SOL    HW2 3217   0.891   3.520   4.551
 1065SOL     OW 3218   0.382   2.562   4.204
 1065SOL    HW1 3219   0.427   2.472   4.201
 1065SOL    HW2 3220   0.288   2.551   4.237
 1066SOL     OW 3221   0.614   1.984   3.841
 1066SOL    HW1 3222   0.712   1.962   3.848
 1066SOL    HW2 3223   0.583   1.967   3.748
 1067SOL     OW 3224   0.888   3.376   4.919
 1067SOL    HW1 3225   0.865   3.351   4.825
 1067SOL    HW2 3226   0.949   3.307   4.958
 1068SOL     OW 3227   0.803   3.264   4.648
 1068SOL    HW1 3228   0.893   3.278   4.606
 1068SOL    HW2 3229   0.732   3.266   4.577
 1069SOL     OW 3230   0.922   2.365   4.623
 1069SOL    HW1 3231   0.897   2.356   4.527
 1069SOL    HW2 3232   0.970   2.283   4.654
 1070SOL     OW 3233   0.539   1.926   4.236
 1070SOL    HW1 3234   0.458   1.927   4.294
 1070SOL    HW2 3235   0.542   2.009   4.181
 1071SOL     OW 3236   1.434   3.050   3.765
 1071SOL    HW1 3237   1.466   2.974   3.822
 1071SOL    HW2 3238   1.342   3.077   3.795
 1072SOL     OW 3239   0.297   1.897   3.895
 1072SOL    HW1 3240   0.346   1.981   3.874
 1072SOL    HW2 3241   0.359   1.832   3.940
 1073SOL     OW 3242   0.935   2.098   4.204
 1073SOL    HW1 3243   0.887   2.139   4.126
 1073SOL    HW2 3244   1.034   2.096   4.185
 1074SOL     OW 3245   1.227   3.432   4.517
 1074SOL    HW1 3246   1.248   3.506   4.452
 1074SOL    HW2 3247   1.295   3.432   4.590
 1075SOL     OW 3248   0.459   3.014   4.465
 1075SOL    HW1 3249   0.388   2.987   4.530
 1075SOL    HW2 3250   0.433   2.986   4.372
 1076SOL     OW 3251   1.271   3.659   4.315
 1076SOL    HW1 3252   1.315   3.723   4.251
 1076SOL    HW2 3253   1.221   3.711   4.385
 1077SOL     OW 3254   1.032   2.411   3.740
 1077SOL    HW1 3255   0.991   2.493   3.701
 1077SOL    HW2 3256   1.096   2.437   3.813
 1078SOL     OW 3257   0.561   2.084   4.871
 1078SOL    HW1 3258   0.599   2.000   4.908
 1078SOL    HW2 3259   0.473   2.103   4.915
 1079SOL     OW 3260   0.866   2.316   4.366
 1079SOL    HW1 3261   0.834   2.388   4.304
 1079SOL    HW2 3262   0.890   2.235   4.313
 1080SOL     OW 3263   1.017   1.901   4.477
 1080SOL    HW1 3264   0.945   1.906   4.408
 1080SOL    HW2 3265   0.993   1.832   4.546
 1081SOL     OW 3266   1.429   3.035   4.591
 1081SOL    HW1 3267   1.374   2.951   4.584
 1081SOL    HW2 3268   1.455   3.064   4.499
 1082SOL     OW 3269   1.466   2.452   4.716
 1082SOL    HW1 3270   1.436   2.357   4.723
 1082SOL    HW2 3271   1.539   2.468   4.782
 1083SOL     OW 3272   1.857   2.695   4.101
 1083SOL    HW1 3273   1.899   2.631   4.165
 1083SOL    HW2 3274   1.819   2.644   4.023
 1084SOL     OW 3275   0.488   3.247   3.898
 1084SOL    HW1 3276   0.401   3.232   3.945
 1084SOL    HW2 3277   0.471   3.273   3.803
 1085SOL     OW 3278   1.664   3.142   4.381
 1085SOL    HW1 3279   1.763   3.150   4.395
 1085SOL    HW2 3280   1.619   3.226   4.412
 1086SOL     OW 3281   1.390   2.437   3.802
 1086SOL    HW1 3282   1.336   2.416   3.883
 1086SOL    HW2 3283   1.481   2.396   3.811
 1087SOL     OW 3284   0.527   2.118   4.052
 1087SOL    HW1 3285   0.554   2.059   3.977
 1087SOL    HW2 3286   0.527   2.213   4.021
 1088SOL     OW 3287   1.754   3.085   5.312
 1088SOL    HW1 3288   1.845   3.046   5.299
 1088SOL    HW2 3289   1.762   3.181   5.336
 1089SOL     OW 3290   1.064   3.209   5.064
 1089SOL    HW1 3291   0.984   3.186   5.119
 1089SOL    HW2 3292   1.147   3.183   5.113
 1090SOL     OW 3293   1.111   3.057   4.824
 1090SOL    HW1 3294   1.071   3.101   4.905
 1090SOL    HW2 3295   1.070   3.094   4.741
 1091SOL     OW 3296   1.638   2.961   4.803
 1091SOL    HW1 3297   1.643   3.042   4.862
 1091SOL    HW2 3298   1.552   2.963   4.752
 1092SOL     OW 3299   0.705   2.912   4.092
 1092SOL    HW1 3300   0.691   2.919   4.191
 1092SOL    HW2 3301   0.789   2.861   4.074
 1093SOL     OW 3302   0.410   2.675   4.975
 1093SOL    HW1 3303   0.496   2.687   5.025
 1093SOL    HW2 3304   0.368   2.588   5.002
 1094SOL     OW 3305   1.274   2.248   4.986
 1094SOL    HW1 3306   1.295   2.322   5.050
 1094SOL    HW2 3307   1.185   2.265   4.943
 1095SOL     OW 3308   0.064   3.426   5.055
 1095SOL    HW1 3309   0.018   3.508   5.021
 1095SOL    HW2 3310   0.162   3.445   5.064
 1096SOL     OW 3311   0.367   2.962   4.225
 1096SOL    HW1 3312   0.360   3.045   4.169
 1096SOL    HW2 3313   0.371   2.882   4.165
 1097SOL     OW 3314   0.566   2.399   4.589
 1097SOL    HW1 3315   0.578   2.465   4.515
 1097SOL    HW2 3316   0.612   2.433   4.672
 1098SOL     OW 3317   1.252   3.210   4.112
 1098SOL    HW1 3318   1.302   3.287   4.152
 1098SOL    HW2 3319   1.157   3.212   4.144
 1099SOL     OW 3320   1.272   3.307   4.866
 1099SOL    HW1 3321   1.319   3.320   4.953
 1099SOL    HW2 3322   1.206   3.233   4.875
 1100SOL     OW 3323   1.582   2.501   4.196
 1100SOL    HW1 3324   1.551   2.562   4.269
 1100SOL    HW2 3325   1.632   2.553   4.127
 1101SOL     OW 3326   0.354   3.372   5.053
 1101SOL    HW1 3327   0.333   3.328   4.966
 1101SOL    HW2 3328   0.451   3.398   5.056
 1102SOL     OW 3329   0.504   1.912   5.464
 1102SOL    HW1 3330   0.462   1.855   5.394
 1102SOL    HW2 3331   0.438   1.981   5.496
 1103SOL     OW 3332   0.573   2.732   4.753
 1103SOL    HW1 3333   0.617   2.821   4.744
 1103SOL    HW2 3334   0.510   2.732   4.830
 1104SOL     OW 3335   1.360   2.724   4.769
 1104SOL    HW1 3336   1.285   2.724   4.703
 1104SOL    HW2 3337   1.397   2.632   4.778
 1105SOL     OW 3338   1.209   2.387   3.999
 1105SOL    HW1 3339   1.222   2.303   4.053
 1105SOL    HW2 3340   1.180   2.461   4.059
 1106SOL     OW 3341   0.307   2.075   4.955
 1106SOL    HW1 3342   0.284   2.112   5.045
 1106SOL    HW2 3343   0.277   1.980   4.949
 1107SOL     OW 3344   0.037   3.172   5.006
 1107SOL    HW1 3345   0.090   3.123   5.074
 1107SOL    HW2 3346   0.059   3.270   5.011
 1108SOL     OW 3347   0.732   2.496   4.788
 1108SOL    HW1 3348   0.791   2.470   4.712
 1108SOL    HW2 3349   0.704   2.592   4.777
 1109SOL     OW 3350   0.307   1.925   4.342
 1109SOL    HW1 3351   0.296   2.019   4.375
 1109SOL    HW2 3352   0.302   1.862   4.419
 1110SOL     OW 3353   1.622   2.229   4.098
 1110SOL    HW1 3354   1.624   2.153   4.162
 1110SOL    HW2 3355   1.574   2.306   4.138
 1111SOL     OW 3356   1.023   2.628   4.690
 1111SOL    HW1 3357   1.038   2.649   4.786
 1111SOL    HW2 3358   0.993   2.533   4.681
 1112SOL     OW 3359   1.540   2.136   3.849
 1112SOL    HW1 3360   1.479   2.061   3.872
 1112SOL    HW2 3361   1.562   2.188   3.932
 1113SOL     OW 3362   1.303   2.700   3.766
 1113SOL    HW1 3363   1.337   2.607   3.781
 1113SOL    HW2 3364   1.321   2.727   3.671
 1114SOL     OW 3365   1.068   3.195   4.573
 1114SOL    HW1 3366   1.075   3.111   4.518
 1114SOL    HW2 3367   1.130   3.264   4.537
 1115SOL     OW 3368   0.319   2.672   4.673
 1115SOL    HW1 3369   0.412   2.708   4.678
 1115SOL    HW2 3370   0.313   2.587   4.725
 1116SOL     OW 3371   0.339   2.371   4.730
 1116SOL    HW1 3372   0.287   2.288   4.713
 1116SOL    HW2 3373   0.416   2.376   4.666
 1117SOL     OW 3374   1.160   2.069   5.201
 1117SOL    HW1 3375   1.160   2.133   5.278
 1117SOL    HW2 3376   1.188   2.117   5.118
 1118SOL     OW 3377   0.008   3.188   3.924
 1118SOL    HW1 3378  -0.085   3.209   3.893
 1118SOL    HW2 3379   0.018   3.089   3.937
 1119SOL     OW 3380   0.088   3.663   4.651
 1119SOL    HW1 3381   0.046   3.577   4.624
 1119SOL    HW2 3382   0.182   3.666   4.617
 1120SOL     OW 3383   0.504   3.430   4.634
 1120SOL    HW1 3384   0.570   3.504   4.643
 1120SOL    HW2 3385   0.548   3.351   4.592
 1121SOL     OW 3386   1.002   2.658   4.962
 1121SOL    HW1 3387   1.043   2.626   5.048
 1121SOL    HW2 3388   0.906   2.631   4.959
 1122SOL     OW 3389   0.040   2.406   4.838
 1122SOL    HW1 3390   0.125   2.373   4.797
 1122SOL    HW2 3391   0.053   2.421   4.936
 1123SOL     OW 3392   0.815   2.434   4.049
 1123SOL    HW1 3393   0.822   2.345   4.003
 1123SOL    HW2 3394   0.721   2.468   4.041
 1124SOL     OW 3395   1.657   2.466   4.930
 1124SOL    HW1 3396   1.619   2.397   4.992
 1124SOL    HW2 3397   1.739   2.430   4.886
 1125SOL     OW 3398   0.671   2.326   4.993
 1125SOL    HW1 3399   0.637   2.237   4.963
 1125SOL    HW2 3400   0.697   2.380   4.913
 1126SOL     OW 3401   0.930   3.540   5.189
 1126SOL    HW1 3402   0.906   3.522   5.094
 1126SOL    HW2 3403   0.960   3.634   5.199
 1127SOL     OW 3404   0.473   2.362   3.915
 1127SOL    HW1 3405   0.534   2.442   3.919
 1127SOL    HW2 3406   0.378   2.393   3.922
 1128SOL     OW 3407   0.159   2.999   5.190
 1128SOL    HW1 3408   0.181   2.938   5.266
 1128SOL    HW2 3409   0.169   2.950   5.104
 1129SOL     OW 3410   1.347   2.921   4.958
 1129SOL    HW1 3411   1.371   2.858   4.884
 1129SOL    HW2 3412   1.257   2.961   4.940
 1130SOL     OW 3413   1.302   2.717   4.033
 1130SOL    HW1 3414   1.216   2.686   4.075
 1130SOL    HW2 3415   1.298   2.703   3.934
 1131SOL     OW 3416   1.759   3.609   4.878
 1131SOL    HW1 3417   1.820   3.639   4.805
 1131SOL    HW2 3418   1.721   3.520   4.856
 1132SOL     OW 3419   1.252   3.593   4.852
 1132SOL    HW1 3420   1.336   3.598   4.798
 1132SOL    HW2 3421   1.229   3.497   4.870
 1133SOL     OW 3422   0.083   3.120   4.746
 1133SOL    HW1 3423   0.078   3.119   4.846
 1133SOL    HW2 3424   0.000   3.079   4.708
 1134SOL     OW 3425   1.726   1.997   4.247
 1134SOL    HW1 3426   1.799   1.980   4.180
 1134SOL    HW2 3427   1.695   1.910   4.285
 1135SOL     OW 3428   1.388   3.435   4.201
 1135SOL    HW1 3429   1.455   3.447   4.127
 1135SOL    HW2 3430   1.348   3.524   4.224
 1136SOL     OW 3431   1.280   2.789   4.396
 1136SOL    HW1 3432   1.340   2.708   4.398
 1136SOL    HW2 3433   1.320   2.858   4.336
 1137SOL     OW 3434   0.672   3.478   3.878
 1137SOL    HW1 3435   0.681   3.488   3.779
 1137SOL    HW2 3436   0.632   3.389   3.899
 1138SOL     OW 3437   1.841   2.037   4.687
 1138SOL    HW1 3438   1.880   1.952   4.651
 1138SOL    HW2 3439   1.743   2.039   4.668
 1139SOL     OW 3440   0.263   2.188   4.444
 1139SOL    HW1 3441   0.184   2.239   4.410
 1139SOL    HW2 3442   0.254   2.173   4.542
 1140SOL     OW 3443   1.194   3.474   3.755
 1140SOL    HW1 3444   1.200   3.381   3.792
 1140SOL    HW2 3445   1.135   3.474   3.675
 1141SOL     OW 3446   0.822   2.864   5.096
 1141SOL    HW1 3447   0.862   2.863   5.004
 1141SOL    HW2 3448   0.832   2.956   5.136
 1142SOL     OW 3449   0.916   2.772   4.015
 1142SOL    HW1 3450   0.979   2.810   3.947
 1142SOL    HW2 3451   0.956   2.689   4.054
 1143SOL     OW 3452   1.504   3.469   3.768
 1143SOL    HW1 3453   1.412   3.506   3.775
 1143SOL    HW2 3454   1.542   3.489   3.678
 1144SOL     OW 3455   0.372   3.150   5.214
 1144SOL    HW1 3456   0.359   3.243   5.180
 1144SOL    HW2 3457   0.288   3.098   5.201
 1145SOL     OW 3458   1.614   3.154   5.013
 1145SOL    HW1 3459   1.674   3.157   5.093
 1145SOL    HW2 3460   1.539   3.218   5.026
 1146SOL     OW 3461   1.039   2.960   4.420
 1146SOL    HW1 3462   0.969   2.913   4.474
 1146SOL    HW2 3463   1.098   2.892   4.377
 1147SOL     OW 3464   1.014   2.098   4.695
 1147SOL    HW1 3465   1.006   2.062   4.602
 1147SOL    HW2 3466   1.012   2.022   4.760
 1148SOL     OW 3467   0.590   3.349   4.215
 1148SOL    HW1 3468   0.632   3.291   4.145
 1148SOL    HW2 3469   0.546   3.428   4.171
 1149SOL     OW 3470   1.709   2.247   5.105
 1149SOL    HW1 3471   1.782   2.316   5.109
 1149SOL    HW2 3472   1.737   2.172   5.046
 1150SOL     OW 3473   0.255   3.210   4.014
 1150SOL    HW1 3474   0.159   3.211   3.987
 1150SOL    HW2 3475   0.267   3.263   4.098
 1151SOL     OW 3476   0.672   2.065   5.213
 1151SOL    HW1 3477   0.762   2.049   5.173
 1151SOL    HW2 3478   0.680   2.070   5.312
 1152SOL     OW 3479   0.075   2.207   3.757
 1152SOL    HW1 3480  -0.017   2.179   3.728
 1152SOL    HW2 3481   0.106   2.284   3.701
 1153SOL     OW 3482   0.072   2.028   4.042
 1153SOL    HW1 3483   0.055   2.111   3.988
 1153SOL    HW2 3484   0.162   1.991   4.020
 1154SOL     OW 3485   1.183   3.197   3.843
 1154SOL    HW1 3486   1.084   3.186   3.845
 1154SOL    HW2 3487   1.217   3.212   3.936
 1155SOL     OW 3488   0.613   2.704   5.155
 1155SOL    HW1 3489   0.669   2.785   5.138
 1155SOL    HW2 3490   0.672   2.624   5.158
 1156SOL     OW 3491   1.493   3.629   4.683
 1156SOL    HW1 3492   1.526   3.693   4.614
 1156SOL    HW2 3493   1.559   3.623   4.758
 1157SOL     OW 3494   0.390   3.603   5.284
 1157SOL    HW1 3495   0.299   3.644   5.282
 1157SOL    HW2 3496   0.383   3.509   5.316
 1158SOL     OW 3497   1.674   2.745   4.978
 1158SOL    HW1 3498   1.647   2.656   4.941
 1158SOL    HW2 3499   1.675   2.813   4.905
 1159SOL     OW 3500   1.225   2.187   4.173
 1159SOL    HW1 3501   1.290   2.113   4.162
 1159SOL    HW2 3502   1.245   2.237   4.257
 1160SOL     OW 3503   0.594   2.607   4.376
 1160SOL    HW1 3504   0.644   2.692   4.357
 1160SOL    HW2 3505   0.506   2.609   4.328
 1161SOL     OW 3506   1.730   2.796   5.241
 1161SOL    HW1 3507   1.768   2.887   5.256
 1161SOL    HW2 3508   1.722   2.779   5.142
 1162SOL     OW 3509   0.859   3.236   3.740
 1162SOL    HW1 3510   0.813   3.251   3.828
 1162SOL    HW2 3511   0.903   3.321   3.710
 1163SOL     OW 3512   0.661   3.652   4.677
 1163SOL    HW1 3513   0.615   3.740   4.664
 1163SOL    HW2 3514   0.760   3.664   4.670
 1164SOL     OW 3515   0.859   2.818   4.585
 1164SOL    HW1 3516   0.913   2.749   4.633
 1164SOL    HW2 3517   0.827   2.887   4.651
 1165SOL     OW 3518   1.083   2.846   3.811
 1165SOL    HW1 3519   1.060   2.899   3.729
 1165SOL    HW2 3520   1.164   2.790   3.792
 1166SOL     OW 3521   1.861   3.431   4.575
 1166SOL    HW1 3522   1.790   3.419   4.505
 1166SOL    HW2 3523   1.862   3.352   4.635
 1167SOL     OW 3524   0.079   3.102   4.377
 1167SOL    HW1 3525   0.078   3.055   4.465
 1167SOL    HW2 3526   0.161   3.074   4.326
 1168SOL     OW 3527   1.824   2.054   4.951
 1168SOL    HW1 3528   1.820   1.964   4.995
 1168SOL    HW2 3529   1.827   2.043   4.852
 1169SOL     OW 3530   0.428   2.286   4.244
 1169SOL    HW1 3531   0.458   2.214   4.182
 1169SOL    HW2 3532   0.389   2.246   4.327
 1170SOL     OW 3533   1.705   3.349   4.828
 1170SOL    HW1 3534   1.612   3.324   4.801
 1170SOL    HW2 3535   1.731   3.299   4.910
 1171SOL     OW 3536   0.317   2.409   5.004
 1171SOL    HW1 3537   0.355   2.350   5.076
 1171SOL    HW2 3538   0.357   2.383   4.916
 1172SOL     OW 3539   0.812   3.448   4.411
 1172SOL    HW1 3540   0.844   3.458   4.317
 1172SOL    HW2 3541   0.733   3.386   4.413
 1173SOL     OW 3542   1.424   2.076   4.836
 1173SOL    HW1 3543   1.476   2.011   4.891
 1173SOL    HW2 3544   1.375   2.139   4.897
 1174SOL     OW 3545   1.001   1.896   4.878
 1174SOL    HW1 3546   0.938   1.824   4.847
 1174SOL    HW2 3547   1.094   1.860   4.878
 1175SOL     OW 3548   0.770   3.192   4.025
 1175SOL    HW1 3549   0.724   3.105   4.042
 1175SOL    HW2 3550   0.861   3.189   4.066
 1176SOL     OW 3551   0.618   3.429   5.008
 1176SOL    HW1 3552   0.613   3.511   5.065
 1176SOL    HW2 3553   0.707   3.426   4.963
 1177SOL     OW 3554   1.352   1.914   3.892
 1177SOL    HW1 3555   1.387   1.873   3.808
 1177SOL    HW2 3556   1.262   1.876   3.912
 1178SOL     OW 3557   1.300   2.315   4.415
 1178SOL    HW1 3558   1.241   2.395   4.419
 1178SOL    HW2 3559   1.315   2.280   4.508
 1179SOL     OW 3560   1.593   2.083   4.606
 1179SOL    HW1 3561   1.509   2.082   4.660
 1179SOL    HW2 3562   1.595   2.166   4.550
 1180SOL     OW 3563   0.039   2.939   4.024
 1180SOL    HW1 3564   0.138   2.928   4.015
 1180SOL    HW2 3565  -0.001   2.853   4.056
 1181SOL     OW 3566   0.875   3.508   4.061
 1181SOL    HW1 3567   0.798   3.473   4.007
 1181SOL    HW2 3568   0.843   3.579   4.123
 1182SOL     OW 3569   0.230   4.352   0.113
 1182SOL    HW1 3570   0.137   4.350   0.150
 1182SOL    HW2 3571   0.231   4.313   0.021
 1183SOL     OW 3572   0.225   3.999   0.996
 1183SOL    HW1 3573   0.260   3.982   1.088
 1183SOL    HW2 3574   0.137   3.954   0.984
 1184SOL     OW 3575   0.019   4.092   0.647
 1184SOL    HW1 3576  -0.063   4.135   0.686
 1184SOL    HW2 3577  -0.009   4.019   0.584
 1185SOL     OW 3578   0.569   4.999   1.165
 1185SOL    HW1 3579   0.476   4.992   1.128
 1185SOL    HW2 3580   0.580   5.088   1.209
 1186SOL     OW 3581   1.555   5.235   0.703
 1186SOL    HW1 3582   1.498   5.219   0.784
 1186SOL    HW2 3583   1.496   5.245   0.623
 1187SOL     OW 3584   1.135   4.427   0.717
 1187SOL    HW1 3585   1.192   4.505   0.692
 1187SOL    HW2 3586   1.075   4.453   0.793
 1188SOL     OW 3587   1.755   4.331   0.231
 1188SOL    HW1 3588   1.743   4.318   0.132
 1188SOL    HW2 3589   1.725   4.250   0.280
 1189SOL     OW 3590   0.768   4.868   1.023
 1189SOL    HW1 3591   0.690   4.885   1.083
 1189SOL    HW2 3592   0.802   4.955   0.987
 1190SOL     OW 3593   0.850   4.522   1.823
 1190SOL    HW1 3594   0.846   4.598   1.888
 1190SOL    HW2 3595   0.872   4.558   1.732
 1191SOL     OW 3596   0.685   4.736   0.665
 1191SOL    HW1 3597   0.754   4.720   0.735
 1191SOL    HW2 3598   0.612   4.793   0.703
 1192SOL     OW 3599   0.686   4.885   1.803
 1192SOL    HW1 3600   0.746   4.964   1.817
 1192SOL    HW2 3601   0.600   4.916   1.762
 1193SOL     OW 3602   0.335   5.159   1.061
 1193SOL    HW1 3603   0.257   5.128   1.008
 1193SOL    HW2 3604   0.393   5.217   1.004
 1194SOL     OW 3605   0.438   4.116   1.499
 1194SOL    HW1 3606   0.520   4.060   1.508
 1194SOL    HW2 3607   0.357   4.058   1.503
 1195SOL     OW 3608   1.603   4.171   0.737
 1195SOL    HW1 3609   1.529   4.217   0.687
 1195SOL    HW2 3610   1.654   4.239   0.790
 1196SOL     OW 3611   0.231   5.437   0.483
 1196SOL    HW1 3612   0.265   5.514   0.537
 1196SOL    HW2 3613   0.275   5.437   0.393
 1197SOL     OW 3614   1.127   5.065   1.690
 1197SOL    HW1 3615   1.174   5.065   1.778
 1197SOL    HW2 3616   1.079   4.978   1.679
 1198SOL     OW 3617   0.240   4.815   0.886
 1198SOL    HW1 3618   0.254   4.731   0.938
 1198SOL    HW2 3619   0.185   4.879   0.941
 1199SOL     OW 3620   0.606   4.688   0.123
 1199SOL    HW1 3621   0.613   4.772   0.069
 1199SOL    HW2 3622   0.652   4.701   0.211
 1200SOL     OW 3623   1.594   3.838   1.480
 1200SOL    HW1 3624   1.576   3.905   1.408
 1200SOL    HW2 3625   1.591   3.884   1.569
 1201SOL     OW 3626   0.122   4.367   0.563
 1201SOL    HW1 3627   0.077   4.279   0.580
 1201SOL    HW2 3628   0.121   4.421   0.647
 1202SOL     OW 3629   1.689   4.646   0.612
 1202SOL    HW1 3630   1.784   4.617   0.620
 1202SOL    HW2 3631   1.681   4.711   0.537
 1203SOL     OW 3632   1.641   4.832   0.432
 1203SOL    HW1 3633   1.727   4.834   0.380
 1203SOL    HW2 3634   1.655   4.879   0.520
 1204SOL     OW 3635   0.113   4.461   1.597
 1204SOL    HW1 3636   0.201   4.448   1.642
 1204SOL    HW2 3637   0.100   4.558   1.575
 1205SOL     OW 3638   0.613   5.089   0.726
 1205SOL    HW1 3639   0.564   5.002   0.735
 1205SOL    HW2 3640   0.590   5.132   0.639
 1206SOL     OW 3641   1.293   4.952   1.423
 1206SOL    HW1 3642   1.330   4.879   1.365
 1206SOL    HW2 3643   1.345   4.957   1.508
 1207SOL     OW 3644   0.809   3.728   0.502
 1207SOL    HW1 3645   0.849   3.819   0.493
 1207SOL    HW2 3646   0.709   3.736   0.508
 1208SOL     OW 3647   0.197   4.700   1.264
 1208SOL    HW1 3648   0.286   4.655   1.250
 1208SOL    HW2 3649   0.124   4.635   1.245
 1209SOL     OW 3650   1.525   4.723   0.190
 1209SOL    HW1 3651   1.462   4.647   0.203
 1209SOL    HW2 3652   1.573   4.741   0.276
 1210SOL     OW 3653   0.317   3.975   1.801
 1210SOL    HW1 3654   0.388   4.046   1.807
 1210SOL    HW2 3655   0.229   4.014   1.829
 1211SOL     OW 3656   1.466   5.141   0.953
 1211SOL    HW1 3657   1.407   5.147   1.033
 1211SOL    HW2 3658   1.451   5.053   0.907
 1212SOL     OW 3659   0.598   4.453   0.270
 1212SOL    HW1 3660   0.622   4.522   0.202
 1212SOL    HW2 3661   0.520   4.486   0.324
 1213SOL     OW 3662   1.281   4.069   0.944
 1213SOL    HW1 3663   1.195   4.019   0.931
 1213SOL    HW2 3664   1.343   4.015   1.000
 1214SOL     OW 3665   0.807   4.329   1.465
 1214SOL    HW1 3666   0.760   4.326   1.554
 1214SOL    HW2 3667   0.756   4.274   1.399
 1215SOL     OW 3668   1.394   4.193   1.674
 1215SOL    HW1 3669   1.374   4.236   1.762
 1215SOL    HW2 3670   1.472   4.131   1.683
 1216SOL     OW 3671   0.973   4.614   1.572
 1216SOL    HW1 3672   1.019   4.530   1.543
 1216SOL    HW2 3673   0.917   4.648   1.497
 1217SOL     OW 3674   0.991   4.134   1.242
 1217SOL    HW1 3675   0.914   4.168   1.296
 1217SOL    HW2 3676   0.957   4.083   1.163
 1218SOL     OW 3677   1.041   4.425   0.429
 1218SOL    HW1 3678   1.067   4.421   0.525
 1218SOL    HW2 3679   0.956   4.374   0.415
 1219SOL     OW 3680   0.076   4.535   0.789
 1219SOL    HW1 3681   0.175   4.523   0.798
 1219SOL    HW2 3682   0.052   4.630   0.810
 1220SOL     OW 3683   0.865   4.072   0.195
 1220SOL    HW1 3684   0.924   4.135   0.146
 1220SOL    HW2 3685   0.884   3.978   0.166
 1221SOL     OW 3686   1.719   4.309   1.831
 1221SOL    HW1 3687   1.693   4.398   1.795
 1221SOL    HW2 3688   1.717   4.241   1.758
 1222SOL     OW 3689   1.362   4.868   0.545
 1222SOL    HW1 3690   1.445   4.839   0.497
 1222SOL    HW2 3691   1.313   4.935   0.489
 1223SOL     OW 3692   0.550   3.920   0.885
 1223SOL    HW1 3693   0.545   3.915   0.985
 1223SOL    HW2 3694   0.552   4.016   0.856
 1224SOL     OW 3695   1.795   4.790   0.873
 1224SOL    HW1 3696   1.733   4.775   0.797
 1224SOL    HW2 3697   1.743   4.801   0.958
 1225SOL     OW 3698   0.321   4.667   0.242
 1225SOL    HW1 3699   0.403   4.706   0.200
 1225SOL    HW2 3700   0.294   4.585   0.193
 1226SOL     OW 3701   1.458   4.459   0.728
 1226SOL    HW1 3702   1.453   4.394   0.803
 1226SOL    HW2 3703   1.538   4.518   0.741
 1227SOL     OW 3704   0.461   4.990   1.727
 1227SOL    HW1 3705   0.411   4.991   1.641
 1227SOL    HW2 3706   0.398   4.972   1.803
 1228SOL     OW 3707   0.202   4.009   1.498
 1228SOL    HW1 3708   0.122   4.069   1.485
 1228SOL    HW2 3709   0.192   3.960   1.584
 1229SOL     OW 3710   1.632   5.101   0.081
 1229SOL    HW1 3711   1.600   5.195   0.071
 1229SOL    HW2 3712   1.556   5.038   0.069
 1230SOL     OW 3713   1.400   3.831   0.426
 1230SOL    HW1 3714   1.376   3.794   0.336
 1230SOL    HW2 3715   1.499   3.847   0.430
 1231SOL     OW 3716   0.382   4.424   0.480
 1231SOL    HW1 3717   0.427   4.334   0.477
 1231SOL    HW2 3718   0.288   4.413   0.513
 1232SOL     OW 3719   1.547   3.946   1.729
 1232SOL    HW1 3720   1.542   3.983   1.821
 1232SOL    HW2 3721   1.475   3.877   1.717
 1233SOL     OW 3722   0.781   3.988   1.749
 1233SOL    HW1 3723   0.848   3.927   1.792
 1233SOL    HW2 3724   0.708   4.007   1.814
 1234SOL     OW 3725   1.351   4.314   1.433
 1234SOL    HW1 3726   1.379   4.271   1.518
 1234SOL    HW2 3727   1.376   4.410   1.434
 1235SOL     OW 3728   0.922   4.227   0.899
 1235SOL    HW1 3729   0.897   4.218   0.803
 1235SOL    HW2 3730   0.970   4.145   0.930
 1236SOL     OW 3731   0.539   3.788   0.512
 1236SOL    HW1 3732   0.458   3.789   0.570
 1236SOL    HW2 3733   0.542   3.871   0.457
 1237SOL     OW 3734   1.434   4.912   0.041
 1237SOL    HW1 3735   1.466   4.836   0.098
 1237SOL    HW2 3736   1.342   4.939   0.071
 1238SOL     OW 3737   0.935   3.960   0.480
 1238SOL    HW1 3738   0.887   4.001   0.402
 1238SOL    HW2 3739   1.034   3.958   0.461
 1239SOL     OW 3740   1.076   4.407   1.464
 1239SOL    HW1 3741   0.996   4.346   1.467
 1239SOL    HW2 3742   1.157   4.354   1.440
 1240SOL     OW 3743   1.227   5.294   0.793
 1240SOL    HW1 3744   1.248   5.368   0.728
 1240SOL    HW2 3745   1.295   5.294   0.866
 1241SOL     OW 3746   0.459   4.876   0.741
 1241SOL    HW1 3747   0.388   4.849   0.806
 1241SOL    HW2 3748   0.433   4.848   0.648
 1242SOL     OW 3749   1.032   4.273   0.016
 1242SOL    HW1 3750   0.991   4.355  -0.023
 1242SOL    HW2 3751   1.096   4.299   0.089
 1243SOL     OW 3752   0.078   4.280   1.386
 1243SOL    HW1 3753   0.170   4.279   1.345
 1243SOL    HW2 3754   0.072   4.354   1.453
 1244SOL     OW 3755   0.561   3.946   1.147
 1244SOL    HW1 3756   0.599   3.862   1.184
 1244SOL    HW2 3757   0.473   3.965   1.191
 1245SOL     OW 3758   0.866   4.178   0.642
 1245SOL    HW1 3759   0.834   4.250   0.580
 1245SOL    HW2 3760   0.890   4.097   0.589
 1246SOL     OW 3761   1.017   3.763   0.753
 1246SOL    HW1 3762   0.945   3.768   0.684
 1246SOL    HW2 3763   0.993   3.694   0.822
 1247SOL     OW 3764   1.429   4.897   0.867
 1247SOL    HW1 3765   1.374   4.813   0.860
 1247SOL    HW2 3766   1.455   4.926   0.775
 1248SOL     OW 3767   1.466   4.314   0.992
 1248SOL    HW1 3768   1.436   4.219   0.999
 1248SOL    HW2 3769   1.539   4.330   1.058
 1249SOL     OW 3770   1.857   4.557   0.377
 1249SOL    HW1 3771   1.899   4.493   0.441
 1249SOL    HW2 3772   1.819   4.506   0.299
 1250SOL     OW 3773   1.664   5.004   0.657
 1250SOL    HW1 3774   1.763   5.012   0.671
 1250SOL    HW2 3775   1.619   5.088   0.688
 1251SOL     OW 3776   1.390   4.299   0.078
 1251SOL    HW1 3777   1.336   4.278   0.159
 1251SOL    HW2 3778   1.481   4.258   0.087
 1252SOL     OW 3779   0.527   3.980   0.328
 1252SOL    HW1 3780   0.554   3.921   0.253
 1252SOL    HW2 3781   0.527   4.075   0.297
 1253SOL     OW 3782   1.754   4.947   1.588
 1253SOL    HW1 3783   1.845   4.908   1.575
 1253SOL    HW2 3784   1.762   5.043   1.612
 1254SOL     OW 3785   1.064   5.071   1.340
 1254SOL    HW1 3786   0.984   5.048   1.395
 1254SOL    HW2 3787   1.147   5.045   1.389
 1255SOL     OW 3788   1.111   4.919   1.100
 1255SOL    HW1 3789   1.071   4.963   1.181
 1255SOL    HW2 3790   1.070   4.956   1.017
 1256SOL     OW 3791   1.638   4.823   1.079
 1256SOL    HW1 3792   1.643   4.904   1.138
 1256SOL    HW2 3793   1.552   4.825   1.028
 1257SOL     OW 3794   0.915   3.813   1.402
 1257SOL    HW1 3795   0.940   3.793   1.307
 1257SOL    HW2 3796   0.987   3.869   1.444
 1258SOL     OW 3797   0.980   4.840   1.719
 1258SOL    HW1 3798   0.881   4.846   1.729
 1258SOL    HW2 3799   1.003   4.760   1.663
 1259SOL     OW 3800   0.705   4.774   0.368
 1259SOL    HW1 3801   0.691   4.781   0.467
 1259SOL    HW2 3802   0.789   4.723   0.350
 1260SOL     OW 3803   0.410   4.537   1.251
 1260SOL    HW1 3804   0.496   4.549   1.301
 1260SOL    HW2 3805   0.368   4.450   1.278
 1261SOL     OW 3806   1.274   4.110   1.262
 1261SOL    HW1 3807   1.295   4.184   1.326
 1261SOL    HW2 3808   1.185   4.127   1.219
 1262SOL     OW 3809   0.064   5.288   1.331
 1262SOL    HW1 3810   0.018   5.370   1.297
 1262SOL    HW2 3811   0.162   5.307   1.340
 1263SOL     OW 3812   0.367   4.824   0.501
 1263SOL    HW1 3813   0.360   4.907   0.445
 1263SOL    HW2 3814   0.371   4.744   0.441
 1264SOL     OW 3815   0.566   4.261   0.865
 1264SOL    HW1 3816   0.578   4.327   0.791
 1264SOL    HW2 3817   0.612   4.295   0.948
 1265SOL     OW 3818   1.252   5.072   0.388
 1265SOL    HW1 3819   1.302   5.149   0.428
 1265SOL    HW2 3820   1.157   5.074   0.420
 1266SOL     OW 3821   1.272   5.169   1.142
 1266SOL    HW1 3822   1.319   5.182   1.229
 1266SOL    HW2 3823   1.206   5.095   1.151
 1267SOL     OW 3824   1.582   4.363   0.472
 1267SOL    HW1 3825   1.551   4.424   0.545
 1267SOL    HW2 3826   1.632   4.415   0.403
 1268SOL     OW 3827   0.402   4.475   1.598
 1268SOL    HW1 3828   0.470   4.530   1.551
 1268SOL    HW2 3829   0.442   4.387   1.625
 1269SOL     OW 3830   1.587   4.503   1.670
 1269SOL    HW1 3831   1.495   4.541   1.665
 1269SOL    HW2 3832   1.647   4.550   1.605
 1270SOL     OW 3833   1.013   3.829   1.770
 1270SOL    HW1 3834   1.019   3.914   1.718
 1270SOL    HW2 3835   1.045   3.753   1.713
 1271SOL     OW 3836   0.504   3.774   1.740
 1271SOL    HW1 3837   0.462   3.717   1.670
 1271SOL    HW2 3838   0.438   3.843   1.772
 1272SOL     OW 3839   0.573   4.594   1.029
 1272SOL    HW1 3840   0.617   4.683   1.020
 1272SOL    HW2 3841   0.510   4.594   1.106
 1273SOL     OW 3842   1.360   4.586   1.045
 1273SOL    HW1 3843   1.285   4.586   0.979
 1273SOL    HW2 3844   1.397   4.494   1.054
 1274SOL     OW 3845   1.209   4.249   0.275
 1274SOL    HW1 3846   1.222   4.165   0.329
 1274SOL    HW2 3847   1.180   4.323   0.335
 1275SOL     OW 3848   0.307   3.937   1.231
 1275SOL    HW1 3849   0.284   3.974   1.321
 1275SOL    HW2 3850   0.277   3.842   1.225
 1276SOL     OW 3851   0.037   5.034   1.282
 1276SOL    HW1 3852   0.090   4.985   1.350
 1276SOL    HW2 3853   0.059   5.132   1.287
 1277SOL     OW 3854   0.732   4.358   1.064
 1277SOL    HW1 3855   0.791   4.332   0.988
 1277SOL    HW2 3856   0.704   4.454   1.053
 1278SOL     OW 3857   1.728   4.659   1.854
 1278SOL    HW1 3858   1.682   4.652   1.765
 1278SOL    HW2 3859   1.666   4.703   1.920
 1279SOL     OW 3860   0.307   3.787   0.618
 1279SOL    HW1 3861   0.296   3.881   0.651
 1279SOL    HW2 3862   0.302   3.724   0.695
 1280SOL     OW 3863   1.622   4.091   0.374
 1280SOL    HW1 3864   1.624   4.015   0.438
 1280SOL    HW2 3865   1.574   4.168   0.414
 1281SOL     OW 3866   1.023   4.490   0.966
 1281SOL    HW1 3867   1.038   4.511   1.062
 1281SOL    HW2 3868   0.993   4.395   0.957
 1282SOL     OW 3869   1.859   5.242   1.605
 1282SOL    HW1 3870   1.873   5.269   1.510
 1282SOL    HW2 3871   1.942   5.264   1.658
 1283SOL     OW 3872   0.350   4.622   1.804
 1283SOL    HW1 3873   0.426   4.666   1.852
 1283SOL    HW2 3874   0.385   4.575   1.722
 1284SOL     OW 3875   1.540   3.998   0.125
 1284SOL    HW1 3876   1.479   3.923   0.148
 1284SOL    HW2 3877   1.562   4.050   0.208
 1285SOL     OW 3878   1.303   4.562   0.042
 1285SOL    HW1 3879   1.337   4.469   0.057
 1285SOL    HW2 3880   1.321   4.589  -0.053
 1286SOL     OW 3881   0.319   4.534   0.949
 1286SOL    HW1 3882   0.412   4.570   0.954
 1286SOL    HW2 3883   0.313   4.449   1.001
 1287SOL     OW 3884   0.339   4.233   1.006
 1287SOL    HW1 3885   0.287   4.150   0.989
 1287SOL    HW2 3886   0.416   4.238   0.942
 1288SOL     OW 3887   1.138   4.104   1.678
 1288SOL    HW1 3888   1.093   4.167   1.742
 1288SOL    HW2 3889   1.231   4.135   1.661
 1289SOL     OW 3890   1.160   3.931   1.477
 1289SOL    HW1 3891   1.160   3.995   1.554
 1289SOL    HW2 3892   1.188   3.979   1.394
 1290SOL     OW 3893   0.008   5.050   0.200
 1290SOL    HW1 3894  -0.085   5.071   0.169
 1290SOL    HW2 3895   0.018   4.951   0.213
 1291SOL     OW 3896   1.002   4.520   1.238
 1291SOL    HW1 3897   1.043   4.488   1.324
 1291SOL    HW2 3898   0.906   4.493   1.235
 1292SOL     OW 3899   0.040   4.268   1.114
 1292SOL    HW1 3900   0.125   4.235   1.073
 1292SOL    HW2 3901   0.053   4.283   1.212
 1293SOL     OW 3902   0.189   4.244   1.722
 1293SOL    HW1 3903   0.248   4.204   1.652
 1293SOL    HW2 3904   0.131   4.315   1.681
 1294SOL     OW 3905   1.369   4.674   1.660
 1294SOL    HW1 3906   1.408   4.763   1.680
 1294SOL    HW2 3907   1.379   4.654   1.563
 1295SOL     OW 3908   0.815   4.296   0.325
 1295SOL    HW1 3909   0.822   4.207   0.279
 1295SOL    HW2 3910   0.721   4.330   0.317
 1296SOL     OW 3911   1.657   4.328   1.206
 1296SOL    HW1 3912   1.619   4.259   1.268
 1296SOL    HW2 3913   1.739   4.292   1.162
 1297SOL     OW 3914   0.671   4.188   1.269
 1297SOL    HW1 3915   0.637   4.099   1.239
 1297SOL    HW2 3916   0.697   4.242   1.189
 1298SOL     OW 3917   0.473   4.224   0.191
 1298SOL    HW1 3918   0.534   4.304   0.195
 1298SOL    HW2 3919   0.378   4.255   0.198
 1299SOL     OW 3920   0.159   4.861   1.466
 1299SOL    HW1 3921   0.181   4.800   1.542
 1299SOL    HW2 3922   0.169   4.812   1.380
 1300SOL     OW 3923   1.347   4.783   1.234
 1300SOL    HW1 3924   1.371   4.720   1.160
 1300SOL    HW2 3925   1.257   4.823   1.216
 1301SOL     OW 3926   1.302   4.579   0.309
 1301SOL    HW1 3927   1.216   4.548   0.351
 1301SOL    HW2 3928   1.298   4.565   0.210
 1302SOL     OW 3929   0.083   4.982   1.022
 1302SOL    HW1 3930   0.078   4.981   1.122
 1302SOL    HW2 3931   0.000   4.941   0.984
 1303SOL     OW 3932   0.903   3.810   0.133
 1303SOL    HW1 3933   0.954   3.811   0.047
 1303SOL    HW2 3934   0.959   3.768   0.204
 1304SOL     OW 3935   1.726   3.859   0.523
 1304SOL    HW1 3936   1.799   3.842   0.456
 1304SOL    HW2 3937   1.695   3.772   0.561
 1305SOL     OW 3938   1.280   4.651   0.672
 1305SOL    HW1 3939   1.340   4.570   0.674
 1305SOL    HW2 3940   1.320   4.720   0.612
 1306SOL     OW 3941   0.830   4.997   1.422
 1306SOL    HW1 3942   0.825   5.030   1.517
 1306SOL    HW2 3943   0.744   5.016   1.376
 1307SOL     OW 3944   1.841   3.899   0.963
 1307SOL    HW1 3945   1.880   3.814   0.927
 1307SOL    HW2 3946   1.743   3.901   0.944
 1308SOL     OW 3947   0.263   4.050   0.720
 1308SOL    HW1 3948   0.184   4.101   0.686
 1308SOL    HW2 3949   0.254   4.035   0.818
 1309SOL     OW 3950   0.822   4.726   1.372
 1309SOL    HW1 3951   0.862   4.725   1.280
 1309SOL    HW2 3952   0.832   4.818   1.412
 1310SOL     OW 3953   0.916   4.634   0.291
 1310SOL    HW1 3954   0.979   4.672   0.223
 1310SOL    HW2 3955   0.956   4.551   0.330
 1311SOL     OW 3956   0.372   5.012   1.490
 1311SOL    HW1 3957   0.359   5.105   1.456
 1311SOL    HW2 3958   0.288   4.960   1.477
 1312SOL     OW 3959   1.614   5.016   1.289
 1312SOL    HW1 3960   1.674   5.019   1.369
 1312SOL    HW2 3961   1.539   5.080   1.302
 1313SOL     OW 3962   1.039   4.822   0.696
 1313SOL    HW1 3963   0.969   4.775   0.750
 1313SOL    HW2 3964   1.098   4.754   0.653
 1314SOL     OW 3965   1.014   3.960   0.971
 1314SOL    HW1 3966   1.006   3.924   0.878
 1314SOL    HW2 3967   1.012   3.884   1.036
 1315SOL     OW 3968   1.709   4.109   1.381
 1315SOL    HW1 3969   1.782   4.178   1.385
 1315SOL    HW2 3970   1.737   4.034   1.322
 1316SOL     OW 3971   0.105   4.737   1.726
 1316SOL    HW1 3972   0.028   4.704   1.780
 1316SOL    HW2 3973   0.190   4.707   1.768
 1317SOL     OW 3974   0.672   3.927   1.489
 1317SOL    HW1 3975   0.762   3.911   1.449
 1317SOL    HW2 3976   0.680   3.932   1.588
 1318SOL     OW 3977   0.075   4.069   0.033
 1318SOL    HW1 3978  -0.017   4.041   0.004
 1318SOL    HW2 3979   0.106   4.146  -0.023
 1319SOL     OW 3980   1.440   4.580   1.398
 1319SOL    HW1 3981   1.383   4.632   1.335
 1319SOL    HW2 3982   1.536   4.592   1.374
 1320SOL     OW 3983   0.072   3.890   0.318
 1320SOL    HW1 3984   0.055   3.973   0.264
 1320SOL    HW2 3985   0.162   3.853   0.296
 1321SOL     OW 3986   1.183   5.059   0.119
 1321SOL    HW1 3987   1.084   5.048   0.121
 1321SOL    HW2 3988   1.217   5.074   0.212
 1322SOL     OW 3989   0.613   4.566   1.431
 1322SOL    HW1 3990   0.669   4.647   1.414
 1322SOL    HW2 3991   0.672   4.486   1.434
 1323SOL     OW 3992   0.716   4.289   1.708
 1323SOL    HW1 3993   0.735   4.354   1.782
 1323SOL    HW2 3994   0.776   4.209   1.717
 1324SOL     OW 3995   1.450   4.944   1.633
 1324SOL    HW1 3996   1.441   4.934   1.732
 1324SOL    HW2 3997   1.546   4.937   1.607
 1325SOL     OW 3998   1.674   4.607   1.254
 1325SOL    HW1 3999   1.647   4.518   1.217
 1325SOL    HW2 4000   1.675   4.675   1.181
 1326SOL     OW 4001   1.225   4.049   0.449
 1326SOL    HW1 4002   1.290   3.975   0.438
 1326SOL    HW2 4003   1.245   4.099   0.533
 1327SOL     OW 4004   0.594   4.469   0.652
 1327SOL    HW1 4005   0.644   4.554   0.633
 1327SOL    HW2 4006   0.506   4.471   0.604
 1328SOL     OW 4007   1.777   4.066   1.642
 1328SOL    HW1 4008   1.760   4.097   1.548
 1328SOL    HW2 4009   1.693   4.029   1.680
 1329SOL     OW 4010   1.730   4.658   1.517
 1329SOL    HW1 4011   1.768   4.749   1.532
 1329SOL    HW2 4012   1.722   4.641   1.418
 1330SOL     OW 4013   0.859   4.680   0.861
 1330SOL    HW1 4014   0.913   4.611   0.909
 1330SOL    HW2 4015   0.827   4.749   0.927
 1331SOL     OW 4016   1.083   4.708   0.087
 1331SOL    HW1 4017   1.060   4.761   0.005
 1331SOL    HW2 4018   1.164   4.652   0.068
 1332SOL     OW 4019   0.221   5.038   1.844
 1332SOL    HW1 4020   0.156   4.965   1.823
 1332SOL    HW2 4021   0.225   5.052   1.942
 1333SOL     OW 4022   0.079   4.964   0.653
 1333SOL    HW1 4023   0.078   4.917   0.741
 1333SOL    HW2 4024   0.161   4.936   0.602
 1334SOL     OW 4025   0.672   5.115   1.624
 1334SOL    HW1 4026   0.594   5.065   1.662
 1334SOL    HW2 4027   0.669   5.210   1.655
 1335SOL     OW 4028   1.824   3.916   1.227
 1335SOL    HW1 4029   1.820   3.826   1.271
 1335SOL    HW2 4030   1.827   3.905   1.128
 1336SOL     OW 4031   0.428   4.148   0.520
 1336SOL    HW1 4032   0.458   4.076   0.458
 1336SOL    HW2 4033   0.389   4.108   0.603
 1337SOL     OW 4034   1.705   5.211   1.104
 1337SOL    HW1 4035   1.612   5.186   1.077
 1337SOL    HW2 4036   1.731   5.161   1.186
 1338SOL     OW 4037   0.317   4.271   1.280
 1338SOL    HW1 4038   0.355   4.212   1.352
 1338SOL    HW2 4039   0.357   4.245   1.192
 1339SOL     OW 4040   1.424   3.938   1.112
 1339SOL    HW1 4041   1.476   3.873   1.167
 1339SOL    HW2 4042   1.375   4.001   1.173
 1340SOL     OW 4043   1.001   3.758   1.154
 1340SOL    HW1 4044   0.938   3.686   1.123
 1340SOL    HW2 4045   1.094   3.722   1.154
 1341SOL     OW 4046   0.770   5.054   0.301
 1341SOL    HW1 4047   0.724   4.967   0.318
 1341SOL    HW2 4048   0.861   5.051   0.342
 1342SOL     OW 4049   1.352   3.776   0.168
 1342SOL    HW1 4050   1.387   3.735   0.084
 1342SOL    HW2 4051   1.262   3.738   0.188
 1343SOL     OW 4052   1.300   4.177   0.691
 1343SOL    HW1 4053   1.241   4.257   0.695
 1343SOL    HW2 4054   1.315   4.142   0.784
 1344SOL     OW 4055   1.593   3.945   0.882
 1344SOL    HW1 4056   1.509   3.944   0.936
 1344SOL    HW2 4057   1.595   4.028   0.826
 1345SOL     OW 4058   0.039   4.801   0.300
 1345SOL    HW1 4059   0.138   4.790   0.291
 1345SOL    HW2 4060  -0.001   4.715   0.332
 1346SOL     OW 4061   0.230   4.352   1.975
 1346SOL    HW1 4062   0.137   4.350   2.012
 1346SOL    HW2 4063   0.231   4.313   1.883
 1347SOL     OW 4064   0.225   3.999   2.858
 1347SOL    HW1 4065   0.260   3.982   2.950
 1347SOL    HW2 4066   0.137   3.954   2.846
 1348SOL     OW 4067   0.019   4.092   2.509
 1348SOL    HW1 4068  -0.063   4.135   2.548
 1348SOL    HW2 4069  -0.009   4.019   2.446
 1349SOL     OW 4070   0.569   4.999   3.027
 1349SOL    HW1 4071   0.476   4.992   2.990
 1349SOL    HW2 4072   0.580   5.088   3.071
 1350SOL     OW 4073   1.555   5.235   2.565
 1350SOL    HW1 4074   1.498   5.219   2.646
 1350SOL    HW2 4075   1.496   5.245   2.485
 1351SOL     OW 4076   1.135   4.427   2.579
 1351SOL    HW1 4077   1.192   4.505   2.554
 1351SOL    HW2 4078   1.075   4.453   2.655
 1352SOL     OW 4079   1.755   4.331   2.093
 1352SOL    HW1 4080   1.743   4.318   1.994
 1352SOL    HW2 4081   1.725   4.250   2.142
 1353SOL     OW 4082   0.768   4.868   2.885
 1353SOL    HW1 4083   0.690   4.885   2.945
 1353SOL    HW2 4084   0.802   4.955   2.849
 1354SOL     OW 4085   0.850   4.522   3.685
 1354SOL    HW1 4086   0.846   4.598   3.750
 1354SOL    HW2 4087   0.872   4.558   3.594
 1355SOL     OW 4088   0.685   4.736   2.527
 1355SOL    HW1 4089   0.754   4.720   2.597
 1355SOL    HW2 4090   0.612   4.793   2.565
 1356SOL     OW 4091   0.686   4.885   3.665
 1356SOL    HW1 4092   0.746   4.964   3.679
 1356SOL    HW2 4093   0.600   4.916   3.624
 1357SOL     OW 4094   0.335   5.159   2.923
 1357SOL    HW1 4095   0.257   5.128   2.870
 1357SOL    HW2 4096   0.393   5.217   2.866
 1358SOL     OW 4097   0.438   4.116   3.361
 1358SOL    HW1 4098   0.520   4.060   3.370
 1358SOL    HW2 4099   0.357   4.058   3.365
 1359SOL     OW 4100   1.603   4.171   2.599
 1359SOL    HW1 4101   1.529   4.217   2.549
 1359SOL    HW2 4102   1.654   4.239   2.652
 1360SOL     OW 4103   0.231   5.437   2.345
 1360SOL    HW1 4104   0.265   5.514   2.399
 1360SOL    HW2 4105   0.275   5.437   2.255
 1361SOL     OW 4106   1.127   5.065   3.552
 1361SOL    HW1 4107   1.174   5.065   3.640
 1361SOL    HW2 4108   1.079   4.978   3.541
 1362SOL     OW 4109   0.240   4.815   2.748
 1362SOL    HW1 4110   0.254   4.731   2.800
 1362SOL    HW2 4111   0.185   4.879   2.803
 1363SOL     OW 4112   0.606   4.688   1.985
 1363SOL    HW1 4113   0.613   4.772   1.931
 1363SOL    HW2 4114   0.652   4.701   2.073
 1364SOL     OW 4115   1.594   3.838   3.342
 1364SOL    HW1 4116   1.576   3.905   3.270
 1364SOL    HW2 4117   1.591   3.884   3.431
 1365SOL     OW 4118   0.122   4.367   2.425
 1365SOL    HW1 4119   0.077   4.279   2.442
 1365SOL    HW2 4120   0.121   4.421   2.509
 1366SOL     OW 4121   1.689   4.646   2.474
 1366SOL    HW1 4122   1.784   4.617   2.482
 1366SOL    HW2 4123   1.681   4.711   2.399
 1367SOL     OW 4124   1.641   4.832   2.294
 1367SOL    HW1 4125   1.727   4.834   2.242
 1367SOL    HW2 4126   1.655   4.879   2.382
 1368SOL     OW 4127   0.113   4.461   3.459
 1368SOL    HW1 4128   0.201   4.448   3.504
 1368SOL    HW2 4129   0.100   4.558   3.437
 1369SOL     OW 4130   0.613   5.089   2.588
 1369SOL    HW1 4131   0.564   5.002   2.597
 1369SOL    HW2 4132   0.590   5.132   2.501
 1370SOL     OW 4133   1.293   4.952   3.285
 1370SOL    HW1 4134   1.330   4.879   3.227
 1370SOL    HW2 4135   1.345   4.957   3.370
 1371SOL     OW 4136   0.809   3.728   2.364
 1371SOL    HW1 4137   0.849   3.819   2.355
 1371SOL    HW2 4138   0.709   3.736   2.370
 1372SOL     OW 4139   0.197   4.700   3.126
 1372SOL    HW1 4140   0.286   4.655   3.112
 1372SOL    HW2 4141   0.124   4.635   3.107
 1373SOL     OW 4142   1.525   4.723   2.052
 1373SOL    HW1 4143   1.462   4.647   2.065
 1373SOL    HW2 4144   1.573   4.741   2.138
 1374SOL     OW 4145   0.317   3.975   3.663
 1374SOL    HW1 4146   0.388   4.046   3.669
 1374SOL    HW2 4147   0.229   4.014   3.691
 1375SOL     OW 4148   1.466   5.141   2.815
 1375SOL    HW1 4149   1.407   5.147   2.895
 1375SOL    HW2 4150   1.451   5.053   2.769
 1376SOL     OW 4151   0.598   4.453   2.132
 1376SOL    HW1 4152   0.622   4.522   2.064
 1376SOL    HW2 4153   0.520   4.486   2.186
 1377SOL     OW 4154   1.281   4.069   2.806
 1377SOL    HW1 4155   1.195   4.019   2.793
 1377SOL    HW2 4156   1.343   4.015   2.862
 1378SOL     OW 4157   0.807   4.329   3.327
 1378SOL    HW1 4158   0.760   4.326   3.416
 1378SOL    HW2 4159   0.756   4.274   3.261
 1379SOL     OW 4160   1.394   4.193   3.536
 1379SOL    HW1 4161   1.374   4.236   3.624
 1379SOL    HW2 4162   1.472   4.131   3.545
 1380SOL     OW 4163   0.973   4.614   3.434
 1380SOL    HW1 4164   1.019   4.530   3.405
 1380SOL    HW2 4165   0.917   4.648   3.359
 1381SOL     OW 4166   0.991   4.134   3.104
 1381SOL    HW1 4167   0.914   4.168   3.158
 1381SOL    HW2 4168   0.957   4.083   3.025
 1382SOL     OW 4169   1.041   4.425   2.291
 1382SOL    HW1 4170   1.067   4.421   2.387
 1382SOL    HW2 4171   0.956   4.374   2.277
 1383SOL     OW 4172   0.076   4.535   2.651
 1383SOL    HW1 4173   0.175   4.523   2.660
 1383SOL    HW2 4174   0.052   4.630   2.672
 1384SOL     OW 4175   0.865   4.072   2.057
 1384SOL    HW1 4176   0.924   4.135   2.008
 1384SOL    HW2 4177   0.884   3.978   2.028
 1385SOL     OW 4178   1.719   4.309   3.693
 1385SOL    HW1 4179   1.693   4.398   3.657
 1385SOL    HW2 4180   1.717   4.241   3.620
 1386SOL     OW 4181   1.362   4.868   2.407
 1386SOL    HW1 4182   1.445   4.839   2.359
 1386SOL    HW2 4183   1.313   4.935   2.351
 1387SOL     OW 4184   0.550   3.920   2.747
 1387SOL    HW1 4185   0.545   3.915   2.847
 1387SOL    HW2 4186   0.552   4.016   2.718
 1388SOL     OW 4187   1.795   4.790   2.735
 1388SOL    HW1 4188   1.733   4.775   2.659
 1388SOL    HW2 4189   1.743   4.801   2.820
 1389SOL     OW 4190   0.321   4.667   2.104
 1389SOL    HW1 4191   0.403   4.706   2.062
 1389SOL    HW2 4192   0.294   4.585   2.055
 1390SOL     OW 4193   1.458   4.459   2.590
 1390SOL    HW1 4194   1.453   4.394   2.665
 1390SOL    HW2 4195   1.538   4.518   2.603
 1391SOL     OW 4196   0.461   4.990   3.589
 1391SOL    HW1 4197   0.411   4.991   3.503
 1391SOL    HW2 4198   0.398   4.972   3.665
 1392SOL     OW 4199   1.111   5.500   2.099
 1392SOL    HW1 4200   1.051   5.438   2.149
 1392SOL    HW2 4201   1.142   5.456   2.014
 1393SOL     OW 4202   0.202   4.009   3.360
 1393SOL    HW1 4203   0.122   4.069   3.347
 1393SOL    HW2 4204   0.192   3.960   3.446
 1394SOL     OW 4205   1.632   5.101   1.943
 1394SOL    HW1 4206   1.600   5.195   1.933
 1394SOL    HW2 4207   1.556   5.038   1.931
 1395SOL     OW 4208   1.400   3.831   2.288
 1395SOL    HW1 4209   1.376   3.794   2.198
 1395SOL    HW2 4210   1.499   3.847   2.292
 1396SOL     OW 4211   0.382   4.424   2.342
 1396SOL    HW1 4212   0.427   4.334   2.339
 1396SOL    HW2 4213   0.288   4.413   2.375
 1397SOL     OW 4214   1.547   3.946   3.591
 1397SOL    HW1 4215   1.542   3.983   3.683
 1397SOL    HW2 4216   1.475   3.877   3.579
 1398SOL     OW 4217   0.614   3.846   1.979
 1398SOL    HW1 4218   0.712   3.824   1.986
 1398SOL    HW2 4219   0.583   3.829   1.886
 1399SOL     OW 4220   0.781   3.988   3.611
 1399SOL    HW1 4221   0.848   3.927   3.654
 1399SOL    HW2 4222   0.708   4.007   3.676
 1400SOL     OW 4223   1.351   4.314   3.295
 1400SOL    HW1 4224   1.379   4.271   3.380
 1400SOL    HW2 4225   1.376   4.410   3.296
 1401SOL     OW 4226   0.922   4.227   2.761
 1401SOL    HW1 4227   0.897   4.218   2.665
 1401SOL    HW2 4228   0.970   4.145   2.792
 1402SOL     OW 4229   0.539   3.788   2.374
 1402SOL    HW1 4230   0.458   3.789   2.432
 1402SOL    HW2 4231   0.542   3.871   2.319
 1403SOL     OW 4232   1.434   4.912   1.903
 1403SOL    HW1 4233   1.466   4.836   1.960
 1403SOL    HW2 4234   1.342   4.939   1.933
 1404SOL     OW 4235   0.297   3.759   2.033
 1404SOL    HW1 4236   0.346   3.843   2.012
 1404SOL    HW2 4237   0.359   3.694   2.078
 1405SOL     OW 4238   0.935   3.960   2.342
 1405SOL    HW1 4239   0.887   4.001   2.264
 1405SOL    HW2 4240   1.034   3.958   2.323
 1406SOL     OW 4241   1.076   4.407   3.326
 1406SOL    HW1 4242   0.996   4.346   3.329
 1406SOL    HW2 4243   1.157   4.354   3.302
 1407SOL     OW 4244   1.227   5.294   2.655
 1407SOL    HW1 4245   1.248   5.368   2.590
 1407SOL    HW2 4246   1.295   5.294   2.728
 1408SOL     OW 4247   0.459   4.876   2.603
 1408SOL    HW1 4248   0.388   4.849   2.668
 1408SOL    HW2 4249   0.433   4.848   2.510
 1409SOL     OW 4250   1.032   4.273   1.878
 1409SOL    HW1 4251   0.991   4.355   1.839
 1409SOL    HW2 4252   1.096   4.299   1.951
 1410SOL     OW 4253   0.078   4.280   3.248
 1410SOL    HW1 4254   0.170   4.279   3.207
 1410SOL    HW2 4255   0.072   4.354   3.315
 1411SOL     OW 4256   0.561   3.946   3.009
 1411SOL    HW1 4257   0.599   3.862   3.046
 1411SOL    HW2 4258   0.473   3.965   3.053
 1412SOL     OW 4259   0.866   4.178   2.504
 1412SOL    HW1 4260   0.834   4.250   2.442
 1412SOL    HW2 4261   0.890   4.097   2.451
 1413SOL     OW 4262   1.017   3.763   2.615
 1413SOL    HW1 4263   0.945   3.768   2.546
 1413SOL    HW2 4264   0.993   3.694   2.684
 1414SOL     OW 4265   1.429   4.897   2.729
 1414SOL    HW1 4266   1.374   4.813   2.722
 1414SOL    HW2 4267   1.455   4.926   2.637
 1415SOL     OW 4268   1.466   4.314   2.854
 1415SOL    HW1 4269   1.436   4.219   2.861
 1415SOL    HW2 4270   1.539   4.330   2.920
 1416SOL     OW 4271   1.857   4.557   2.239
 1416SOL    HW1 4272   1.899   4.493   2.303
 1416SOL    HW2 4273   1.819   4.506   2.161
 1417SOL     OW 4274   1.664   5.004   2.519
 1417SOL    HW1 4275   1.763   5.012   2.533
 1417SOL    HW2 4276   1.619   5.088   2.550
 1418SOL     OW 4277   1.390   4.299   1.940
 1418SOL    HW1 4278   1.336   4.278   2.021
 1418SOL    HW2 4279   1.481   4.258   1.949
 1419SOL     OW 4280   0.527   3.980   2.190
 1419SOL    HW1 4281   0.554   3.921   2.115
 1419SOL    HW2 4282   0.527   4.075   2.159
 1420SOL     OW 4283   1.754   4.947   3.450
 1420SOL    HW1 4284   1.845   4.908   3.437
 1420SOL    HW2 4285   1.762   5.043   3.474
 1421SOL     OW 4286   1.064   5.071   3.202
 1421SOL    HW1 4287   0.984   5.048   3.257
 1421SOL    HW2 4288   1.147   5.045   3.251
 1422SOL     OW 4289   1.111   4.919   2.962
 1422SOL    HW1 4290   1.071   4.963   3.043
 1422SOL    HW2 4291   1.070   4.956   2.879
 1423SOL     OW 4292   1.638   4.823   2.941
 1423SOL    HW1 4293   1.643   4.904   3.000
 1423SOL    HW2 4294   1.552   4.825   2.890
 1424SOL     OW 4295   0.915   3.813   3.264
 1424SOL    HW1 4296   0.940   3.793   3.169
 1424SOL    HW2 4297   0.987   3.869   3.306
 1425SOL     OW 4298   0.980   4.840   3.581
 1425SOL    HW1 4299   0.881   4.846   3.591
 1425SOL    HW2 4300   1.003   4.760   3.525
 1426SOL     OW 4301   0.705   4.774   2.230
 1426SOL    HW1 4302   0.691   4.781   2.329
 1426SOL    HW2 4303   0.789   4.723   2.212
 1427SOL     OW 4304   0.410   4.537   3.113
 1427SOL    HW1 4305   0.496   4.549   3.163
 1427SOL    HW2 4306   0.368   4.450   3.140
 1428SOL     OW 4307   1.274   4.110   3.124
 1428SOL    HW1 4308   1.295   4.184   3.188
 1428SOL    HW2 4309   1.185   4.127   3.081
 1429SOL     OW 4310   0.064   5.288   3.193
 1429SOL    HW1 4311   0.018   5.370   3.159
 1429SOL    HW2 4312   0.162   5.307   3.202
 1430SOL     OW 4313   0.367   4.824   2.363
 1430SOL    HW1 4314   0.360   4.907   2.307
 1430SOL    HW2 4315   0.371   4.744   2.303
 1431SOL     OW 4316   0.566   4.261   2.727
 1431SOL    HW1 4317   0.578   4.327   2.653
 1431SOL    HW2 4318   0.612   4.295   2.810
 1432SOL     OW 4319   1.252   5.072   2.250
 1432SOL    HW1 4320   1.302   5.149   2.290
 1432SOL    HW2 4321   1.157   5.074   2.282
 1433SOL     OW 4322   1.272   5.169   3.004
 1433SOL    HW1 4323   1.319   5.182   3.091
 1433SOL    HW2 4324   1.206   5.095   3.013
 1434SOL     OW 4325   1.582   4.363   2.334
 1434SOL    HW1 4326   1.551   4.424   2.407
 1434SOL    HW2 4327   1.632   4.415   2.265
 1435SOL     OW 4328   0.402   4.475   3.460
 1435SOL    HW1 4329   0.470   4.530   3.413
 1435SOL    HW2 4330   0.442   4.387   3.487
 1436SOL     OW 4331   1.587   4.503   3.532
 1436SOL    HW1 4332   1.495   4.541   3.527
 1436SOL    HW2 4333   1.647   4.550   3.467
 1437SOL     OW 4334   1.013   3.829   3.632
 1437SOL    HW1 4335   1.019   3.914   3.580
 1437SOL    HW2 4336   1.045   3.753   3.575
 1438SOL     OW 4337   0.504   3.774   3.602
 1438SOL    HW1 4338   0.462   3.717   3.532
 1438SOL    HW2 4339   0.438   3.843   3.634
 1439SOL     OW 4340   0.573   4.594   2.891
 1439SOL    HW1 4341   0.617   4.683   2.882
 1439SOL    HW2 4342   0.510   4.594   2.968
 1440SOL     OW 4343   1.360   4.586   2.907
 1440SOL    HW1 4344   1.285   4.586   2.841
 1440SOL    HW2 4345   1.397   4.494   2.916
 1441SOL     OW 4346   1.209   4.249   2.137
 1441SOL    HW1 4347   1.222   4.165   2.191
 1441SOL    HW2 4348   1.180   4.323   2.197
 1442SOL     OW 4349   0.307   3.937   3.093
 1442SOL    HW1 4350   0.284   3.974   3.183
 1442SOL    HW2 4351   0.277   3.842   3.087
 1443SOL     OW 4352   0.037   5.034   3.144
 1443SOL    HW1 4353   0.090   4.985   3.212
 1443SOL    HW2 4354   0.059   5.132   3.149
 1444SOL     OW 4355   0.732   4.358   2.926
 1444SOL    HW1 4356   0.791   4.332   2.850
 1444SOL    HW2 4357   0.704   4.454   2.915
 1445SOL     OW 4358   1.728   4.659   3.716
 1445SOL    HW1 4359   1.682   4.652   3.627
 1445SOL    HW2 4360   1.666   4.703   3.782
 1446SOL     OW 4361   0.307   3.787   2.480
 1446SOL    HW1 4362   0.296   3.881   2.513
 1446SOL    HW2 4363   0.302   3.724   2.557
 1447SOL     OW 4364   1.622   4.091   2.236
 1447SOL    HW1 4365   1.624   4.015   2.300
 1447SOL    HW2 4366   1.574   4.168   2.276
 1448SOL     OW 4367   1.023   4.490   2.828
 1448SOL    HW1 4368   1.038   4.511   2.924
 1448SOL    HW2 4369   0.993   4.395   2.819
 1449SOL     OW 4370   1.859   5.242   3.467
 1449SOL    HW1 4371   1.873   5.269   3.372
 1449SOL    HW2 4372   1.942   5.264   3.520
 1450SOL     OW 4373   0.350   4.622   3.666
 1450SOL    HW1 4374   0.426   4.666   3.714
 1450SOL    HW2 4375   0.385   4.575   3.584
 1451SOL     OW 4376   1.540   3.998   1.987
 1451SOL    HW1 4377   1.479   3.923   2.010
 1451SOL    HW2 4378   1.562   4.050   2.070
 1452SOL     OW 4379   1.303   4.562   1.904
 1452SOL    HW1 4380   1.337   4.469   1.919
 1452SOL    HW2 4381   1.321   4.589   1.809
 1453SOL     OW 4382   0.319   4.534   2.811
 1453SOL    HW1 4383   0.412   4.570   2.816
 1453SOL    HW2 4384   0.313   4.449   2.863
 1454SOL     OW 4385   0.339   4.233   2.868
 1454SOL    HW1 4386   0.287   4.150   2.851
 1454SOL    HW2 4387   0.416   4.238   2.804
 1455SOL     OW 4388   1.138   4.104   3.540
 1455SOL    HW1 4389   1.093   4.167   3.604
 1455SOL    HW2 4390   1.231   4.135   3.523
 1456SOL     OW 4391   1.160   3.931   3.339
 1456SOL    HW1 4392   1.160   3.995   3.416
 1456SOL    HW2 4393   1.188   3.979   3.256
 1457SOL     OW 4394   0.008   5.050   2.062
 1457SOL    HW1 4395  -0.085   5.071   2.031
 1457SOL    HW2 4396   0.018   4.951   2.075
 1458SOL     OW 4397   1.002   4.520   3.100
 1458SOL    HW1 4398   1.043   4.488   3.186
 1458SOL    HW2 4399   0.906   4.493   3.097
 1459SOL     OW 4400   0.040   4.268   2.976
 1459SOL    HW1 4401   0.125   4.235   2.935
 1459SOL    HW2 4402   0.053   4.283   3.074
 1460SOL     OW 4403   0.189   4.244   3.584
 1460SOL    HW1 4404   0.248   4.204   3.514
 1460SOL    HW2 4405   0.131   4.315   3.543
 1461SOL     OW 4406   1.369   4.674   3.522
 1461SOL    HW1 4407   1.408   4.763   3.542
 1461SOL    HW2 4408   1.379   4.654   3.425
 1462SOL     OW 4409   0.815   4.296   2.187
 1462SOL    HW1 4410   0.822   4.207   2.141
 1462SOL    HW2 4411   0.721   4.330   2.179
 1463SOL     OW 4412   1.657   4.328   3.068
 1463SOL    HW1 4413   1.619   4.259   3.130
 1463SOL    HW2 4414   1.739   4.292   3.024
 1464SOL     OW 4415   0.671   4.188   3.131
 1464SOL    HW1 4416   0.637   4.099   3.101
 1464SOL    HW2 4417   0.697   4.242   3.051
 1465SOL     OW 4418   0.473   4.224   2.053
 1465SOL    HW1 4419   0.534   4.304   2.057
 1465SOL    HW2 4420   0.378   4.255   2.060
 1466SOL     OW 4421   0.159   4.861   3.328
 1466SOL    HW1 4422   0.181   4.800   3.404
 1466SOL    HW2 4423   0.169   4.812   3.242
 1467SOL     OW 4424   1.347   4.783   3.096
 1467SOL    HW1 4425   1.371   4.720   3.022
 1467SOL    HW2 4426   1.257   4.823   3.078
 1468SOL     OW 4427   1.302   4.579   2.171
 1468SOL    HW1 4428   1.216   4.548   2.213
 1468SOL    HW2 4429   1.298   4.565   2.072
 1469SOL     OW 4430   0.083   4.982   2.884
 1469SOL    HW1 4431   0.078   4.981   2.984
 1469SOL    HW2 4432   0.000   4.941   2.846
 1470SOL     OW 4433   1.726   3.859   2.385
 1470SOL    HW1 4434   1.799   3.842   2.318
 1470SOL    HW2 4435   1.695   3.772   2.423
 1471SOL     OW 4436   1.280   4.651   2.534
 1471SOL    HW1 4437   1.340   4.570   2.536
 1471SOL    HW2 4438   1.320   4.720   2.474
 1472SOL     OW 4439   0.830   4.997   3.284
 1472SOL    HW1 4440   0.825   5.030   3.379
 1472SOL    HW2 4441   0.744   5.016   3.238
 1473SOL     OW 4442   1.841   3.899   2.825
 1473SOL    HW1 4443   1.880   3.814   2.789
 1473SOL    HW2 4444   1.743   3.901   2.806
 1474SOL     OW 4445   0.263   4.050   2.582
 1474SOL    HW1 4446   0.184   4.101   2.548
 1474SOL    HW2 4447   0.254   4.035   2.680
 1475SOL     OW 4448   0.822   4.726   3.234
 1475SOL    HW1 4449   0.862   4.725   3.142
 1475SOL    HW2 4450   0.832   4.818   3.274
 1476SOL     OW 4451   0.916   4.634   2.153
 1476SOL    HW1 4452   0.979   4.672   2.085
 1476SOL    HW2 4453   0.956   4.551   2.192
 1477SOL     OW 4454   0.372   5.012   3.352
 1477SOL    HW1 4455   0.359   5.105   3.318
 1477SOL    HW2 4456   0.288   4.960   3.339
 1478SOL     OW 4457   1.614   5.016   3.151
 1478SOL    HW1 4458   1.674   5.019   3.231
 1478SOL    HW2 4459   1.539   5.080   3.164
 1479SOL     OW 4460   1.039   4.822   2.558
 1479SOL    HW1 4461   0.969   4.775   2.612
 1479SOL    HW2 4462   1.098   4.754   2.515
 1480SOL     OW 4463   1.014   3.960   2.833
 1480SOL    HW1 4464   1.006   3.924   2.740
 1480SOL    HW2 4465   1.012   3.884   2.898
 1481SOL     OW 4466   1.709   4.109   3.243
 1481SOL    HW1 4467   1.782   4.178   3.247
 1481SOL    HW2 4468   1.737   4.034   3.184
 1482SOL     OW 4469   0.105   4.737   3.588
 1482SOL    HW1 4470   0.028   4.704   3.642
 1482SOL    HW2 4471   0.190   4.707   3.630
 1483SOL     OW 4472   0.672   3.927   3.351
 1483SOL    HW1 4473   0.762   3.911   3.311
 1483SOL    HW2 4474   0.680   3.932   3.450
 1484SOL     OW 4475   0.075   4.069   1.895
 1484SOL    HW1 4476  -0.017   4.041   1.866
 1484SOL    HW2 4477   0.106   4.146   1.839
 1485SOL     OW 4478   1.440   4.580   3.260
 1485SOL    HW1 4479   1.383   4.632   3.197
 1485SOL    HW2 4480   1.536   4.592   3.236
 1486SOL     OW 4481   0.072   3.890   2.180
 1486SOL    HW1 4482   0.055   3.973   2.126
 1486SOL    HW2 4483   0.162   3.853   2.158
 1487SOL     OW 4484   1.183   5.059   1.981
 1487SOL    HW1 4485   1.084   5.048   1.983
 1487SOL    HW2 4486   1.217   5.074   2.074
 1488SOL     OW 4487   0.613   4.566   3.293
 1488SOL    HW1 4488   0.669   4.647   3.276
 1488SOL    HW2 4489   0.672   4.486   3.296
 1489SOL     OW 4490   0.716   4.289   3.570
 1489SOL    HW1 4491   0.735   4.354   3.644
 1489SOL    HW2 4492   0.776   4.209   3.579
 1490SOL     OW 4493   1.450   4.944   3.495
 1490SOL    HW1 4494   1.441   4.934   3.594
 1490SOL    HW2 4495   1.546   4.937   3.469
 1491SOL     OW 4496   1.674   4.607   3.116
 1491SOL    HW1 4497   1.647   4.518   3.079
 1491SOL    HW2 4498   1.675   4.675   3.043
 1492SOL     OW 4499   1.225   4.049   2.311
 1492SOL    HW1 4500   1.290   3.975   2.300
 1492SOL    HW2 4501   1.245   4.099   2.395
 1493SOL     OW 4502   0.594   4.469   2.514
 1493SOL    HW1 4503   0.644   4.554   2.495
 1493SOL    HW2 4504   0.506   4.471   2.466
 1494SOL     OW 4505   1.777   4.066   3.504
 1494SOL    HW1 4506   1.760   4.097   3.410
 1494SOL    HW2 4507   1.693   4.029   3.542
 1495SOL     OW 4508   1.730   4.658   3.379
 1495SOL    HW1 4509   1.768   4.749   3.394
 1495SOL    HW2 4510   1.722   4.641   3.280
 1496SOL     OW 4511   0.859   5.098   1.878
 1496SOL    HW1 4512   0.813   5.113   1.966
 1496SOL    HW2 4513   0.903   5.183   1.848
 1497SOL     OW 4514   0.859   4.680   2.723
 1497SOL    HW1 4515   0.913   4.611   2.771
 1497SOL    HW2 4516   0.827   4.749   2.789
 1498SOL     OW 4517   1.083   4.708   1.949
 1498SOL    HW1 4518   1.060   4.761   1.867
 1498SOL    HW2 4519   1.164   4.652   1.930
 1499SOL     OW 4520   0.221   5.038   3.706
 1499SOL    HW1 4521   0.156   4.965   3.685
 1499SOL    HW2 4522   0.225   5.052   3.804
 1500SOL     OW 4523   0.079   4.964   2.515
 1500SOL    HW1 4524   0.078   4.917   2.603
 1500SOL    HW2 4525   0.161   4.936   2.464
 1501SOL     OW 4526   0.672   5.115   3.486
 1501SOL    HW1 4527   0.594   5.065   3.524
 1501SOL    HW2 4528   0.669   5.210   3.517
 1502SOL     OW 4529   1.824   3.916   3.089
 1502SOL    HW1 4530   1.820   3.826   3.133
 1502SOL    HW2 4531   1.827   3.905   2.990
 1503SOL     OW 4532   0.428   4.148   2.382
 1503SOL    HW1 4533   0.458   4.076   2.320
 1503SOL    HW2 4534   0.389   4.108   2.465
 1504SOL     OW 4535   1.705   5.211   2.966
 1504SOL    HW1 4536   1.612   5.186   2.939
 1504SOL    HW2 4537   1.731   5.161   3.048
 1505SOL     OW 4538   0.317   4.271   3.142
 1505SOL    HW1 4539   0.355   4.212   3.214
 1505SOL    HW2 4540   0.357   4.245   3.054
 1506SOL     OW 4541   1.424   3.938   2.974
 1506SOL    HW1 4542   1.476   3.873   3.029
 1506SOL    HW2 4543   1.375   4.001   3.035
 1507SOL     OW 4544   1.001   3.758   3.016
 1507SOL    HW1 4545   0.938   3.686   2.985
 1507SOL    HW2 4546   1.094   3.722   3.016
 1508SOL     OW 4547   0.770   5.054   2.163
 1508SOL    HW1 4548   0.724   4.967   2.180
 1508SOL    HW2 4549   0.861   5.051   2.204
 1509SOL     OW 4550   1.352   3.776   2.030
 1509SOL    HW1 4551   1.387   3.735   1.946
 1509SOL    HW2 4552   1.262   3.738   2.050
 1510SOL     OW 4553   1.300   4.177   2.553
 1510SOL    HW1 4554   1.241   4.257   2.557
 1510SOL    HW2 4555   1.315   4.142   2.646
 1511SOL     OW 4556   1.593   3.945   2.744
 1511SOL    HW1 4557   1.509   3.944   2.798
 1511SOL    HW2 4558   1.595   4.028   2.688
 1512SOL     OW 4559   0.039   4.801   2.162
 1512SOL    HW1 4560   0.138   4.790   2.153
 1512SOL    HW2 4561  -0.001   4.715   2.194
 1513SOL     OW 4562   0.230   4.352   3.837
 1513SOL    HW1 4563   0.137   4.350   3.874
 1513SOL    HW2 4564   0.231   4.313   3.745
 1514SOL     OW 4565   0.225   3.999   4.720
 1514SOL    HW1 4566   0.260   3.982   4.812
 1514SOL    HW2 4567   0.137   3.954   4.708
 1515SOL     OW 4568   0.019   4.092   4.371
 1515SOL    HW1 4569  -0.063   4.135   4.410
 1515SOL    HW2 4570  -0.009   4.019   4.308
 1516SOL     OW 4571   0.569   4.999   4.889
 1516SOL    HW1 4572   0.476   4.992   4.852
 1516SOL    HW2 4573   0.580   5.088   4.933
 1517SOL     OW 4574   1.555   5.235   4.427
 1517SOL    HW1 4575   1.498   5.219   4.508
 1517SOL    HW2 4576   1.496   5.245   4.347
 1518SOL     OW 4577   1.135   4.427   4.441
 1518SOL    HW1 4578   1.192   4.505   4.416
 1518SOL    HW2 4579   1.075   4.453   4.517
 1519SOL     OW 4580   1.755   4.331   3.955
 1519SOL    HW1 4581   1.743   4.318   3.856
 1519SOL    HW2 4582   1.725   4.250   4.004
 1520SOL     OW 4583   0.768   4.868   4.747
 1520SOL    HW1 4584   0.690   4.885   4.807
 1520SOL    HW2 4585   0.802   4.955   4.711
 1521SOL     OW 4586   0.685   4.736   4.389
 1521SOL    HW1 4587   0.754   4.720   4.459
 1521SOL    HW2 4588   0.612   4.793   4.427
 1522SOL     OW 4589   0.335   5.159   4.785
 1522SOL    HW1 4590   0.257   5.128   4.732
 1522SOL    HW2 4591   0.393   5.217   4.728
 1523SOL     OW 4592   1.460   5.229   5.063
 1523SOL    HW1 4593   1.484   5.323   5.089
 1523SOL    HW2 4594   1.444   5.175   5.145
 1524SOL     OW 4595   0.438   4.116   5.223
 1524SOL    HW1 4596   0.520   4.060   5.232
 1524SOL    HW2 4597   0.357   4.058   5.227
 1525SOL     OW 4598   1.603   4.171   4.461
 1525SOL    HW1 4599   1.529   4.217   4.411
 1525SOL    HW2 4600   1.654   4.239   4.514
 1526SOL     OW 4601   0.231   5.437   4.207
 1526SOL    HW1 4602   0.265   5.514   4.261
 1526SOL    HW2 4603   0.275   5.437   4.117
 1527SOL     OW 4604   0.240   4.815   4.610
 1527SOL    HW1 4605   0.254   4.731   4.662
 1527SOL    HW2 4606   0.185   4.879   4.665
 1528SOL     OW 4607   0.606   4.688   3.847
 1528SOL    HW1 4608   0.613   4.772   3.793
 1528SOL    HW2 4609   0.652   4.701   3.935
 1529SOL     OW 4610   0.122   4.367   4.287
 1529SOL    HW1 4611   0.077   4.279   4.304
 1529SOL    HW2 4612   0.121   4.421   4.371
 1530SOL     OW 4613   1.689   4.646   4.336
 1530SOL    HW1 4614   1.784   4.617   4.344
 1530SOL    HW2 4615   1.681   4.711   4.261
 1531SOL     OW 4616   1.641   4.832   4.156
 1531SOL    HW1 4617   1.727   4.834   4.104
 1531SOL    HW2 4618   1.655   4.879   4.244
 1532SOL     OW 4619   0.613   5.089   4.450
 1532SOL    HW1 4620   0.564   5.002   4.459
 1532SOL    HW2 4621   0.590   5.132   4.363
 1533SOL     OW 4622   0.809   3.728   4.226
 1533SOL    HW1 4623   0.849   3.819   4.217
 1533SOL    HW2 4624   0.709   3.736   4.232
 1534SOL     OW 4625   0.197   4.700   4.988
 1534SOL    HW1 4626   0.286   4.655   4.974
 1534SOL    HW2 4627   0.124   4.635   4.969
 1535SOL     OW 4628   1.525   4.723   3.914
 1535SOL    HW1 4629   1.462   4.647   3.927
 1535SOL    HW2 4630   1.573   4.741   4.000
 1536SOL     OW 4631   1.466   5.141   4.677
 1536SOL    HW1 4632   1.407   5.147   4.757
 1536SOL    HW2 4633   1.451   5.053   4.631
 1537SOL     OW 4634   0.598   4.453   3.994
 1537SOL    HW1 4635   0.622   4.522   3.926
 1537SOL    HW2 4636   0.520   4.486   4.048
 1538SOL     OW 4637   1.281   4.069   4.668
 1538SOL    HW1 4638   1.195   4.019   4.655
 1538SOL    HW2 4639   1.343   4.015   4.724
 1539SOL     OW 4640   0.807   4.329   5.189
 1539SOL    HW1 4641   0.760   4.326   5.278
 1539SOL    HW2 4642   0.756   4.274   5.123
 1540SOL     OW 4643   0.991   4.134   4.966
 1540SOL    HW1 4644   0.914   4.168   5.020
 1540SOL    HW2 4645   0.957   4.083   4.887
 1541SOL     OW 4646   1.041   4.425   4.153
 1541SOL    HW1 4647   1.067   4.421   4.249
 1541SOL    HW2 4648   0.956   4.374   4.139
 1542SOL     OW 4649   0.076   4.535   4.513
 1542SOL    HW1 4650   0.175   4.523   4.522
 1542SOL    HW2 4651   0.052   4.630   4.534
 1543SOL     OW 4652   0.865   4.072   3.919
 1543SOL    HW1 4653   0.924   4.135   3.870
 1543SOL    HW2 4654   0.884   3.978   3.890
 1544SOL     OW 4655   1.362   4.868   4.269
 1544SOL    HW1 4656   1.445   4.839   4.221
 1544SOL    HW2 4657   1.313   4.935   4.213
 1545SOL     OW 4658   0.550   3.920   4.609
 1545SOL    HW1 4659   0.545   3.915   4.709
 1545SOL    HW2 4660   0.552   4.016   4.580
 1546SOL     OW 4661   1.795   4.790   4.597
 1546SOL    HW1 4662   1.733   4.775   4.521
 1546SOL    HW2 4663   1.743   4.801   4.682
 1547SOL     OW 4664   0.321   4.667   3.966
 1547SOL    HW1 4665   0.403   4.706   3.924
 1547SOL    HW2 4666   0.294   4.585   3.917
 1548SOL     OW 4667   1.458   4.459   4.452
 1548SOL    HW1 4668   1.453   4.394   4.527
 1548SOL    HW2 4669   1.538   4.518   4.465
 1549SOL     OW 4670   1.111   5.500   3.961
 1549SOL    HW1 4671   1.051   5.438   4.011
 1549SOL    HW2 4672   1.142   5.456   3.876
 1550SOL     OW 4673   1.632   5.101   3.805
 1550SOL    HW1 4674   1.600   5.195   3.795
 1550SOL    HW2 4675   1.556   5.038   3.793
 1551SOL     OW 4676   1.400   3.831   4.150
 1551SOL    HW1 4677   1.376   3.794   4.060
 1551SOL    HW2 4678   1.499   3.847   4.154
 1552SOL     OW 4679   0.382   4.424   4.204
 1552SOL    HW1 4680   0.427   4.334   4.201
 1552SOL    HW2 4681   0.288   4.413   4.237
 1553SOL     OW 4682   0.614   3.846   3.841
 1553SOL    HW1 4683   0.712   3.824   3.848
 1553SOL    HW2 4684   0.583   3.829   3.748
 1554SOL     OW 4685   0.922   4.227   4.623
 1554SOL    HW1 4686   0.897   4.218   4.527
 1554SOL    HW2 4687   0.970   4.145   4.654
 1555SOL     OW 4688   0.539   3.788   4.236
 1555SOL    HW1 4689   0.458   3.789   4.294
 1555SOL    HW2 4690   0.542   3.871   4.181
 1556SOL     OW 4691   1.434   4.912   3.765
 1556SOL    HW1 4692   1.466   4.836   3.822
 1556SOL    HW2 4693   1.342   4.939   3.795
 1557SOL     OW 4694   0.297   3.759   3.895
 1557SOL    HW1 4695   0.346   3.843   3.874
 1557SOL    HW2 4696   0.359   3.694   3.940
 1558SOL     OW 4697   0.935   3.960   4.204
 1558SOL    HW1 4698   0.887   4.001   4.126
 1558SOL    HW2 4699   1.034   3.958   4.185
 1559SOL     OW 4700   1.227   5.294   4.517
 1559SOL    HW1 4701   1.248   5.368   4.452
 1559SOL    HW2 4702   1.295   5.294   4.590
 1560SOL     OW 4703   0.459   4.876   4.465
 1560SOL    HW1 4704   0.388   4.849   4.530
 1560SOL    HW2 4705   0.433   4.848   4.372
 1561SOL     OW 4706   1.032   4.273   3.740
 1561SOL    HW1 4707   0.991   4.355   3.701
 1561SOL    HW2 4708   1.096   4.299   3.813
 1562SOL     OW 4709   0.561   3.946   4.871
 1562SOL    HW1 4710   0.599   3.862   4.908
 1562SOL    HW2 4711   0.473   3.965   4.915
 1563SOL     OW 4712   0.866   4.178   4.366
 1563SOL    HW1 4713   0.834   4.250   4.304
 1563SOL    HW2 4714   0.890   4.097   4.313
 1564SOL     OW 4715   1.017   3.763   4.477
 1564SOL    HW1 4716   0.945   3.768   4.408
 1564SOL    HW2 4717   0.993   3.694   4.546
 1565SOL     OW 4718   1.429   4.897   4.591
 1565SOL    HW1 4719   1.374   4.813   4.584
 1565SOL    HW2 4720   1.455   4.926   4.499
 1566SOL     OW 4721   1.466   4.314   4.716
 1566SOL    HW1 4722   1.436   4.219   4.723
 1566SOL    HW2 4723   1.539   4.330   4.782
 1567SOL     OW 4724   1.857   4.557   4.101
 1567SOL    HW1 4725   1.899   4.493   4.165
 1567SOL    HW2 4726   1.819   4.506   4.023
 1568SOL     OW 4727   1.664   5.004   4.381
 1568SOL    HW1 4728   1.763   5.012   4.395
 1568SOL    HW2 4729   1.619   5.088   4.412
 1569SOL     OW 4730   1.390   4.299   3.802
 1569SOL    HW1 4731   1.336   4.278   3.883
 1569SOL    HW2 4732   1.481   4.258   3.811
 1570SOL     OW 4733   0.527   3.980   4.052
 1570SOL    HW1 4734   0.554   3.921   3.977
 1570SOL    HW2 4735   0.527   4.075   4.021
 1571SOL     OW 4736   1.754   4.947   5.312
 1571SOL    HW1 4737   1.845   4.908   5.299
 1571SOL    HW2 4738   1.762   5.043   5.336
 1572SOL     OW 4739   1.064   5.071   5.064
 1572SOL    HW1 4740   0.984   5.048   5.119
 1572SOL    HW2 4741   1.147   5.045   5.113
 1573SOL     OW 4742   1.111   4.919   4.824
 1573SOL    HW1 4743   1.071   4.963   4.905
 1573SOL    HW2 4744   1.070   4.956   4.741
 1574SOL     OW 4745   1.638   4.823   4.803
 1574SOL    HW1 4746   1.643   4.904   4.862
 1574SOL    HW2 4747   1.552   4.825   4.752
 1575SOL     OW 4748   0.705   4.774   4.092
 1575SOL    HW1 4749   0.691   4.781   4.191
 1575SOL    HW2 4750   0.789   4.723   4.074
 1576SOL     OW 4751   0.410   4.537   4.975
 1576SOL    HW1 4752   0.496   4.549   5.025
 1576SOL    HW2 4753   0.368   4.450   5.002
 1577SOL     OW 4754   1.274   4.110   4.986
 1577SOL    HW1 4755   1.295   4.184   5.050
 1577SOL    HW2 4756   1.185   4.127   4.943
 1578SOL     OW 4757   0.064   5.288   5.055
 1578SOL    HW1 4758   0.018   5.370   5.021
 1578SOL    HW2 4759   0.162   5.307   5.064
 1579SOL     OW 4760   0.367   4.824   4.225
 1579SOL    HW1 4761   0.360   4.907   4.169
 1579SOL    HW2 4762   0.371   4.744   4.165
 1580SOL     OW 4763   0.566   4.261   4.589
 1580SOL    HW1 4764   0.578   4.327   4.515
 1580SOL    HW2 4765   0.612   4.295   4.672
 1581SOL     OW 4766   1.252   5.072   4.112
 1581SOL    HW1 4767   1.302   5.149   4.152
 1581SOL    HW2 4768   1.157   5.074   4.144
 1582SOL     OW 4769   1.272   5.169   4.866
 1582SOL    HW1 4770   1.319   5.182   4.953
 1582SOL    HW2 4771   1.206   5.095   4.875
 1583SOL     OW 4772   1.582   4.363   4.196
 1583SOL    HW1 4773   1.551   4.424   4.269
 1583SOL    HW2 4774   1.632   4.415   4.127
 1584SOL     OW 4775   0.504   3.774   5.464
 1584SOL    HW1 4776   0.462   3.717   5.394
 1584SOL    HW2 4777   0.438   3.843   5.496
 1585SOL     OW 4778   0.573   4.594   4.753
 1585SOL    HW1 4779   0.617   4.683   4.744
 1585SOL    HW2 4780   0.510   4.594   4.830
 1586SOL     OW 4781   1.360   4.586   4.769
 1586SOL    HW1 4782   1.285   4.586   4.703
 1586SOL    HW2 4783   1.397   4.494   4.778
 1587SOL     OW 4784   1.209   4.249   3.999
 1587SOL    HW1 4785   1.222   4.165   4.053
 1587SOL    HW2 4786   1.180   4.323   4.059
 1588SOL     OW 4787   0.307   3.937   4.955
 1588SOL    HW1 4788   0.284   3.974   5.045
 1588SOL    HW2 4789   0.277   3.842   4.949
 1589SOL     OW 4790   0.037   5.034   5.006
 1589SOL    HW1 4791   0.090   4.985   5.074
 1589SOL    HW2 4792   0.059   5.132   5.011
 1590SOL     OW 4793   0.732   4.358   4.788
 1590SOL    HW1 4794   0.791   4.332   4.712
 1590SOL    HW2 4795   0.704   4.454   4.777
 1591SOL     OW 4796   0.307   3.787   4.342
 1591SOL    HW1 4797   0.296   3.881   4.375
 1591SOL    HW2 4798   0.302   3.724   4.419
 1592SOL     OW 4799   1.622   4.091   4.098
 1592SOL    HW1 4800   1.624   4.015   4.162
 1592SOL    HW2 4801   1.574   4.168   4.138
 1593SOL     OW 4802   1.023   4.490   4.690
 1593SOL    HW1 4803   1.038   4.511   4.786
 1593SOL    HW2 4804   0.993   4.395   4.681
 1594SOL     OW 4805   1.540   3.998   3.849
 1594SOL    HW1 4806   1.479   3.923   3.872
 1594SOL    HW2 4807   1.562   4.050   3.932
 1595SOL     OW 4808   1.303   4.562   3.766
 1595SOL    HW1 4809   1.337   4.469   3.781
 1595SOL    HW2 4810   1.321   4.589   3.671
 1596SOL     OW 4811   0.319   4.534   4.673
 1596SOL    HW1 4812   0.412   4.570   4.678
 1596SOL    HW2 4813   0.313   4.449   4.725
 1597SOL     OW 4814   0.339   4.233   4.730
 1597SOL    HW1 4815   0.287   4.150   4.713
 1597SOL    HW2 4816   0.416   4.238   4.666
 1598SOL     OW 4817   1.160   3.931   5.201
 1598SOL    HW1 4818   1.160   3.995   5.278
 1598SOL    HW2 4819   1.188   3.979   5.118
 1599SOL     OW 4820   0.008   5.050   3.924
 1599SOL    HW1 4821  -0.085   5.071   3.893
 1599SOL    HW2 4822   0.018   4.951   3.937
 1600SOL     OW 4823   1.002   4.520   4.962
 1600SOL    HW1 4824   1.043   4.488   5.048
 1600SOL    HW2 4825   0.906   4.493   4.959
 1601SOL     OW 4826   0.040   4.268   4.838
 1601SOL    HW1 4827   0.125   4.235   4.797
 1601SOL    HW2 4828   0.053   4.283   4.936
 1602SOL     OW 4829   0.815   4.296   4.049
 1602SOL    HW1 4830   0.822   4.207   4.003
 1602SOL    HW2 4831   0.721   4.330   4.041
 1603SOL     OW 4832   1.657   4.328   4.930
 1603SOL    HW1 4833   1.619   4.259   4.992
 1603SOL    HW2 4834   1.739   4.292   4.886
 1604SOL     OW 4835   0.671   4.188   4.993
 1604SOL    HW1 4836   0.637   4.099   4.963
 1604SOL    HW2 4837   0.697   4.242   4.913
 1605SOL     OW 4838   0.473   4.224   3.915
 1605SOL    HW1 4839   0.534   4.304   3.919
 1605SOL    HW2 4840   0.378   4.255   3.922
 1606SOL     OW 4841   0.159   4.861   5.190
 1606SOL    HW1 4842   0.181   4.800   5.266
 1606SOL    HW2 4843   0.169   4.812   5.104
 1607SOL     OW 4844   1.347   4.783   4.958
 1607SOL    HW1 4845   1.371   4.720   4.884
 1607SOL    HW2 4846   1.257   4.823   4.940
 1608SOL     OW 4847   1.302   4.579   4.033
 1608SOL    HW1 4848   1.216   4.548   4.075
 1608SOL    HW2 4849   1.298   4.565   3.934
 1609SOL     OW 4850   0.083   4.982   4.746
 1609SOL    HW1 4851   0.078   4.981   4.846
 1609SOL    HW2 4852   0.000   4.941   4.708
 1610SOL     OW 4853   1.726   3.859   4.247
 1610SOL    HW1 4854   1.799   3.842   4.180
 1610SOL    HW2 4855   1.695   3.772   4.285
 1611SOL     OW 4856   1.280   4.651   4.396
 1611SOL    HW1 4857   1.340   4.570   4.398
 1611SOL    HW2 4858   1.320   4.720   4.336
 1612SOL     OW 4859   0.830   4.997   5.146
 1612SOL    HW1 4860   0.825   5.030   5.241
 1612SOL    HW2 4861   0.744   5.016   5.100
 1613SOL     OW 4862   1.841   3.899   4.687
 1613SOL    HW1 4863   1.880   3.814   4.651
 1613SOL    HW2 4864   1.743   3.901   4.668
 1614SOL     OW 4865   0.263   4.050   4.444
 1614SOL    HW1 4866   0.184   4.101   4.410
 1614SOL    HW2 4867   0.254   4.035   4.542
 1615SOL     OW 4868   0.822   4.726   5.096
 1615SOL    HW1 4869   0.862   4.725   5.004
 1615SOL    HW2 4870   0.832   4.818   5.136
 1616SOL     OW 4871   0.916   4.634   4.015
 1616SOL    HW1 4872   0.979   4.672   3.947
 1616SOL    HW2 4873   0.956   4.551   4.054
 1617SOL     OW 4874   0.372   5.012   5.214
 1617SOL    HW1 4875   0.359   5.105   5.180
 1617SOL    HW2 4876   0.288   4.960   5.201
 1618SOL     OW 4877   1.614   5.016   5.013
 1618SOL    HW1 4878   1.674   5.019   5.093
 1618SOL    HW2 4879   1.539   5.080   5.026
 1619SOL     OW 4880   1.039   4.822   4.420
 1619SOL    HW1 4881   0.969   4.775   4.474
 1619SOL    HW2 4882   1.098   4.754   4.377
 1620SOL     OW 4883   1.014   3.960   4.695
 1620SOL    HW1 4884   1.006   3.924   4.602
 1620SOL    HW2 4885   1.012   3.884   4.760
 1621SOL     OW 4886   1.709   4.109   5.105
 1621SOL    HW1 4887   1.782   4.178   5.109
 1621SOL    HW2 4888   1.737   4.034   5.046
 1622SOL     OW 4889   0.672   3.927   5.213
 1622SOL    HW1 4890   0.762   3.911   5.173
 1622SOL    HW2 4891   0.680   3.932   5.312
 1623SOL     OW 4892   0.075   4.069   3.757
 1623SOL    HW1 4893  -0.017   4.041   3.728
 1623SOL    HW2 4894   0.106   4.146   3.701
 1624SOL     OW 4895   0.072   3.890   4.042
 1624SOL    HW1 4896   0.055   3.973   3.988
 1624SOL    HW2 4897   0.162   3.853   4.020
 1625SOL     OW 4898   1.183   5.059   3.843
 1625SOL    HW1 4899   1.084   5.048   3.845
 1625SOL    HW2 4900   1.217   5.074   3.936
 1626SOL     OW 4901   0.613   4.566   5.155
 1626SOL    HW1 4902   0.669   4.647   5.138
 1626SOL    HW2 4903   0.672   4.486   5.158
 1627SOL     OW 4904   1.674   4.607   4.978
 1627SOL    HW1 4905   1.647   4.518   4.941
 1627SOL    HW2 4906   1.675   4.675   4.905
 1628SOL     OW 4907   1.225   4.049   4.173
 1628SOL    HW1 4908   1.290   3.975   4.162
 1628SOL    HW2 4909   1.245   4.099   4.257
 1629SOL     OW 4910   0.594   4.469   4.376
 1629SOL    HW1 4911   0.644   4.554   4.357
 1629SOL    HW2 4912   0.506   4.471   4.328
 1630SOL     OW 4913   1.730   4.658   5.241
 1630SOL    HW1 4914   1.768   4.749   5.256
 1630SOL    HW2 4915   1.722   4.641   5.142
 1631SOL     OW 4916   0.859   5.098   3.740
 1631SOL    HW1 4917   0.813   5.113   3.828
 1631SOL    HW2 4918   0.903   5.183   3.710
 1632SOL     OW 4919   0.859   4.680   4.585
 1632SOL    HW1 4920   0.913   4.611   4.633
 1632SOL    HW2 4921   0.827   4.749   4.651
 1633SOL     OW 4922   1.083   4.708   3.811
 1633SOL    HW1 4923   1.060   4.761   3.729
 1633SOL    HW2 4924   1.164   4.652   3.792
 1634SOL     OW 4925   0.079   4.964   4.377
 1634SOL    HW1 4926   0.078   4.917   4.465
 1634SOL    HW2 4927   0.161   4.936   4.326
 1635SOL     OW 4928   1.824   3.916   4.951
 1635SOL    HW1 4929   1.820   3.826   4.995
 1635SOL    HW2 4930   1.827   3.905   4.852
 1636SOL     OW 4931   0.428   4.148   4.244
 1636SOL    HW1 4932   0.458   4.076   4.182
 1636SOL    HW2 4933   0.389   4.108   4.327
 1637SOL     OW 4934   1.705   5.211   4.828
 1637SOL    HW1 4935   1.612   5.186   4.801
 1637SOL    HW2 4936   1.731   5.161   4.910
 1638SOL     OW 4937   0.317   4.271   5.004
 1638SOL    HW1 4938   0.355   4.212   5.076
 1638SOL    HW2 4939   0.357   4.245   4.916
 1639SOL     OW 4940   1.424   3.938   4.836
 1639SOL    HW1 4941   1.476   3.873   4.891
 1639SOL    HW2 4942   1.375   4.001   4.897
 1640SOL     OW 4943   1.001   3.758   4.878
 1640SOL    HW1 4944   0.938   3.686   4.847
 1640SOL    HW2 4945   1.094   3.722   4.878
 1641SOL     OW 4946   0.770   5.054   4.025
 1641SOL    HW1 4947   0.724   4.967   4.042
 1641SOL    HW2 4948   0.861   5.051   4.066
 1642SOL     OW 4949   1.352   3.776   3.892
 1642SOL    HW1 4950   1.387   3.735   3.808
 1642SOL    HW2 4951   1.262   3.738   3.912
 1643SOL     OW 4952   1.300   4.177   4.415
 1643SOL    HW1 4953   1.241   4.257   4.419
 1643SOL    HW2 4954   1.315   4.142   4.508
 1644SOL     OW 4955   1.593   3.945   4.606
 1644SOL    HW1 4956   1.509   3.944   4.660
 1644SOL    HW2 4957   1.595   4.028   4.550
 1645SOL     OW 4958   0.039   4.801   4.024
 1645SOL    HW1 4959   0.138   4.790   4.015
 1645SOL    HW2 4960  -0.001   4.715   4.056
 1646SOL     OW 4961   2.092   0.628   0.113
 1646SOL    HW1 4962   1.999   0.626   0.150
 1646SOL    HW2 4963   2.093   0.589   0.021
 1647SOL     OW 4964   2.087   0.275   0.996
 1647SOL    HW1 4965   2.122   0.258   1.088
 1647SOL    HW2 4966   1.999   0.230   0.984
 1648SOL     OW 4967   1.881   0.368   0.647
 1648SOL    HW1 4968   1.799   0.411   0.686
 1648SOL    HW2 4969   1.853   0.295   0.584
 1649SOL     OW 4970   2.431   1.275   1.165
 1649SOL    HW1 4971   2.338   1.268   1.128
 1649SOL    HW2 4972   2.442   1.364   1.209
 1650SOL     OW 4973   3.417   1.511   0.703
 1650SOL    HW1 4974   3.360   1.495   0.784
 1650SOL    HW2 4975   3.358   1.521   0.623
 1651SOL     OW 4976   2.997   0.703   0.717
 1651SOL    HW1 4977   3.054   0.781   0.692
 1651SOL    HW2 4978   2.937   0.729   0.793
 1652SOL     OW 4979   3.617   0.607   0.231
 1652SOL    HW1 4980   3.605   0.594   0.132
 1652SOL    HW2 4981   3.587   0.526   0.280
 1653SOL     OW 4982   2.630   1.144   1.023
 1653SOL    HW1 4983   2.552   1.161   1.083
 1653SOL    HW2 4984   2.664   1.231   0.987
 1654SOL     OW 4985   2.712   0.798   1.823
 1654SOL    HW1 4986   2.708   0.874   1.888
 1654SOL    HW2 4987   2.734   0.834   1.732
 1655SOL     OW 4988   2.547   1.012   0.665
 1655SOL    HW1 4989   2.616   0.996   0.735
 1655SOL    HW2 4990   2.474   1.069   0.703
 1656SOL     OW 4991   2.548   1.161   1.803
 1656SOL    HW1 4992   2.608   1.240   1.817
 1656SOL    HW2 4993   2.462   1.192   1.762
 1657SOL     OW 4994   2.197   1.435   1.061
 1657SOL    HW1 4995   2.119   1.404   1.008
 1657SOL    HW2 4996   2.255   1.493   1.004
 1658SOL     OW 4997   3.322   1.505   1.339
 1658SOL    HW1 4998   3.346   1.599   1.365
 1658SOL    HW2 4999   3.306   1.451   1.421
 1659SOL     OW 5000   2.300   0.392   1.499
 1659SOL    HW1 5001   2.382   0.336   1.508
 1659SOL    HW2 5002   2.219   0.334   1.503
 1660SOL     OW 5003   3.465   0.447   0.737
 1660SOL    HW1 5004   3.391   0.493   0.687
 1660SOL    HW2 5005   3.516   0.515   0.790
 1661SOL     OW 5006   2.093   1.713   0.483
 1661SOL    HW1 5007   2.127   1.790   0.537
 1661SOL    HW2 5008   2.137   1.713   0.393
 1662SOL     OW 5009   2.989   1.341   1.690
 1662SOL    HW1 5010   3.036   1.341   1.778
 1662SOL    HW2 5011   2.941   1.254   1.679
 1663SOL     OW 5012   2.092   1.434   0.538
 1663SOL    HW1 5013   2.066   1.530   0.538
 1663SOL    HW2 5014   2.021   1.380   0.583
 1664SOL     OW 5015   2.102   1.091   0.886
 1664SOL    HW1 5016   2.116   1.007   0.938
 1664SOL    HW2 5017   2.047   1.155   0.941
 1665SOL     OW 5018   2.482   1.786   1.439
 1665SOL    HW1 5019   2.390   1.769   1.474
 1665SOL    HW2 5020   2.510   1.878   1.465
 1666SOL     OW 5021   2.468   0.964   0.123
 1666SOL    HW1 5022   2.475   1.048   0.069
 1666SOL    HW2 5023   2.514   0.977   0.211
 1667SOL     OW 5024   3.456   0.114   1.480
 1667SOL    HW1 5025   3.438   0.181   1.408
 1667SOL    HW2 5026   3.453   0.160   1.569
 1668SOL     OW 5027   1.984   0.643   0.563
 1668SOL    HW1 5028   1.939   0.555   0.580
 1668SOL    HW2 5029   1.983   0.697   0.647
 1669SOL     OW 5030   3.704   1.767   0.359
 1669SOL    HW1 5031   3.758   1.738   0.439
 1669SOL    HW2 5032   3.734   1.857   0.330
 1670SOL     OW 5033   1.889   1.596   0.117
 1670SOL    HW1 5034   1.870   1.500   0.138
 1670SOL    HW2 5035   1.856   1.654   0.192
 1671SOL     OW 5036   3.551   0.922   0.612
 1671SOL    HW1 5037   3.646   0.893   0.620
 1671SOL    HW2 5038   3.543   0.987   0.537
 1672SOL     OW 5039   3.503   1.108   0.432
 1672SOL    HW1 5040   3.589   1.110   0.380
 1672SOL    HW2 5041   3.517   1.155   0.520
 1673SOL     OW 5042   1.975   0.737   1.597
 1673SOL    HW1 5043   2.063   0.724   1.642
 1673SOL    HW2 5044   1.962   0.834   1.575
 1674SOL     OW 5045   2.475   1.365   0.726
 1674SOL    HW1 5046   2.426   1.278   0.735
 1674SOL    HW2 5047   2.452   1.408   0.639
 1675SOL     OW 5048   3.155   1.228   1.423
 1675SOL    HW1 5049   3.192   1.155   1.365
 1675SOL    HW2 5050   3.207   1.233   1.508
 1676SOL     OW 5051   2.671   0.004   0.502
 1676SOL    HW1 5052   2.711   0.095   0.493
 1676SOL    HW2 5053   2.571   0.012   0.508
 1677SOL     OW 5054   2.059   0.976   1.264
 1677SOL    HW1 5055   2.148   0.931   1.250
 1677SOL    HW2 5056   1.986   0.911   1.245
 1678SOL     OW 5057   3.387   0.999   0.190
 1678SOL    HW1 5058   3.324   0.923   0.203
 1678SOL    HW2 5059   3.435   1.017   0.276
 1679SOL     OW 5060   3.049   1.792   1.616
 1679SOL    HW1 5061   3.073   1.852   1.540
 1679SOL    HW2 5062   3.056   1.697   1.586
 1680SOL     OW 5063   2.179   0.251   1.801
 1680SOL    HW1 5064   2.250   0.322   1.807
 1680SOL    HW2 5065   2.091   0.290   1.829
 1681SOL     OW 5066   3.328   1.417   0.953
 1681SOL    HW1 5067   3.269   1.423   1.033
 1681SOL    HW2 5068   3.313   1.329   0.907
 1682SOL     OW 5069   3.529   1.714   0.572
 1682SOL    HW1 5070   3.488   1.691   0.484
 1682SOL    HW2 5071   3.511   1.640   0.637
 1683SOL     OW 5072   2.460   0.729   0.270
 1683SOL    HW1 5073   2.484   0.798   0.202
 1683SOL    HW2 5074   2.382   0.762   0.324
 1684SOL     OW 5075   3.143   0.345   0.944
 1684SOL    HW1 5076   3.057   0.295   0.931
 1684SOL    HW2 5077   3.205   0.291   1.000
 1685SOL     OW 5078   3.438   1.662   0.307
 1685SOL    HW1 5079   3.527   1.708   0.310
 1685SOL    HW2 5080   3.417   1.638   0.212
 1686SOL     OW 5081   2.669   0.605   1.465
 1686SOL    HW1 5082   2.622   0.602   1.554
 1686SOL    HW2 5083   2.618   0.550   1.399
 1687SOL     OW 5084   3.256   0.469   1.674
 1687SOL    HW1 5085   3.236   0.512   1.762
 1687SOL    HW2 5086   3.334   0.407   1.683
 1688SOL     OW 5087   2.835   0.890   1.572
 1688SOL    HW1 5088   2.881   0.806   1.543
 1688SOL    HW2 5089   2.779   0.924   1.497
 1689SOL     OW 5090   2.853   0.410   1.242
 1689SOL    HW1 5091   2.776   0.444   1.296
 1689SOL    HW2 5092   2.819   0.359   1.163
 1690SOL     OW 5093   2.903   0.701   0.429
 1690SOL    HW1 5094   2.929   0.697   0.525
 1690SOL    HW2 5095   2.818   0.650   0.415
 1691SOL     OW 5096   1.938   0.811   0.789
 1691SOL    HW1 5097   2.037   0.799   0.798
 1691SOL    HW2 5098   1.914   0.906   0.810
 1692SOL     OW 5099   1.992   1.821   1.571
 1692SOL    HW1 5100   1.982   1.806   1.670
 1692SOL    HW2 5101   1.906   1.857   1.535
 1693SOL     OW 5102   2.727   0.348   0.195
 1693SOL    HW1 5103   2.786   0.411   0.146
 1693SOL    HW2 5104   2.746   0.254   0.166
 1694SOL     OW 5105   3.581   0.585   1.831
 1694SOL    HW1 5106   3.555   0.674   1.795
 1694SOL    HW2 5107   3.579   0.517   1.758
 1695SOL     OW 5108   3.224   1.144   0.545
 1695SOL    HW1 5109   3.307   1.115   0.497
 1695SOL    HW2 5110   3.175   1.211   0.489
 1696SOL     OW 5111   2.412   0.196   0.885
 1696SOL    HW1 5112   2.407   0.191   0.985
 1696SOL    HW2 5113   2.414   0.292   0.856
 1697SOL     OW 5114   2.870   1.456   0.477
 1697SOL    HW1 5115   2.824   1.528   0.425
 1697SOL    HW2 5116   2.866   1.476   0.575
 1698SOL     OW 5117   2.213   1.801   0.853
 1698SOL    HW1 5118   2.263   1.715   0.859
 1698SOL    HW2 5119   2.278   1.878   0.850
 1699SOL     OW 5120   3.657   1.066   0.873
 1699SOL    HW1 5121   3.595   1.051   0.797
 1699SOL    HW2 5122   3.605   1.077   0.958
 1700SOL     OW 5123   3.089   1.550   1.506
 1700SOL    HW1 5124   3.095   1.473   1.570
 1700SOL    HW2 5125   3.037   1.524   1.426
 1701SOL     OW 5126   2.183   0.943   0.242
 1701SOL    HW1 5127   2.265   0.982   0.200
 1701SOL    HW2 5128   2.156   0.861   0.193
 1702SOL     OW 5129   3.320   0.735   0.728
 1702SOL    HW1 5130   3.315   0.670   0.803
 1702SOL    HW2 5131   3.400   0.794   0.741
 1703SOL     OW 5132   2.323   1.266   1.727
 1703SOL    HW1 5133   2.273   1.267   1.641
 1703SOL    HW2 5134   2.260   1.248   1.803
 1704SOL     OW 5135   2.973   1.776   0.237
 1704SOL    HW1 5136   2.913   1.714   0.287
 1704SOL    HW2 5137   3.004   1.732   0.152
 1705SOL     OW 5138   2.064   0.285   1.498
 1705SOL    HW1 5139   1.984   0.345   1.485
 1705SOL    HW2 5140   2.054   0.236   1.584
 1706SOL     OW 5141   3.494   1.377   0.081
 1706SOL    HW1 5142   3.462   1.471   0.071
 1706SOL    HW2 5143   3.418   1.314   0.069
 1707SOL     OW 5144   2.326   1.743   0.323
 1707SOL    HW1 5145   2.359   1.782   0.409
 1707SOL    HW2 5146   2.402   1.736   0.258
 1708SOL     OW 5147   3.262   0.107   0.426
 1708SOL    HW1 5148   3.238   0.070   0.336
 1708SOL    HW2 5149   3.361   0.123   0.430
 1709SOL     OW 5150   2.111   1.785   1.241
 1709SOL    HW1 5151   2.168   1.720   1.291
 1709SOL    HW2 5152   2.095   1.752   1.148
 1710SOL     OW 5153   2.802   1.698   0.904
 1710SOL    HW1 5154   2.882   1.641   0.925
 1710SOL    HW2 5155   2.753   1.658   0.827
 1711SOL     OW 5156   2.244   0.700   0.480
 1711SOL    HW1 5157   2.289   0.610   0.477
 1711SOL    HW2 5158   2.150   0.689   0.513
 1712SOL     OW 5159   3.409   0.222   1.729
 1712SOL    HW1 5160   3.404   0.259   1.821
 1712SOL    HW2 5161   3.337   0.153   1.717
 1713SOL     OW 5162   2.476   0.122   0.117
 1713SOL    HW1 5163   2.574   0.100   0.124
 1713SOL    HW2 5164   2.445   0.105   0.024
 1714SOL     OW 5165   2.643   0.264   1.749
 1714SOL    HW1 5166   2.710   0.203   1.792
 1714SOL    HW2 5167   2.570   0.283   1.814
 1715SOL     OW 5168   2.750   1.514   1.195
 1715SOL    HW1 5169   2.727   1.489   1.101
 1715SOL    HW2 5170   2.811   1.445   1.234
 1716SOL     OW 5171   3.213   0.590   1.433
 1716SOL    HW1 5172   3.241   0.547   1.518
 1716SOL    HW2 5173   3.238   0.686   1.434
 1717SOL     OW 5174   2.665   1.402   0.924
 1717SOL    HW1 5175   2.755   1.416   0.882
 1717SOL    HW2 5176   2.594   1.404   0.853
 1718SOL     OW 5177   2.784   0.503   0.899
 1718SOL    HW1 5178   2.759   0.494   0.803
 1718SOL    HW2 5179   2.832   0.421   0.930
 1719SOL     OW 5180   2.401   0.064   0.512
 1719SOL    HW1 5181   2.320   0.065   0.570
 1719SOL    HW2 5182   2.404   0.147   0.457
 1720SOL     OW 5183   3.296   1.188   0.041
 1720SOL    HW1 5184   3.328   1.112   0.098
 1720SOL    HW2 5185   3.204   1.215   0.071
 1721SOL     OW 5186   2.159   0.035   0.171
 1721SOL    HW1 5187   2.208   0.119   0.150
 1721SOL    HW2 5188   2.221  -0.030   0.216
 1722SOL     OW 5189   2.797   0.236   0.480
 1722SOL    HW1 5190   2.749   0.277   0.402
 1722SOL    HW2 5191   2.896   0.234   0.461
 1723SOL     OW 5192   2.938   0.683   1.464
 1723SOL    HW1 5193   2.858   0.622   1.467
 1723SOL    HW2 5194   3.019   0.630   1.440
 1724SOL     OW 5195   3.089   1.570   0.793
 1724SOL    HW1 5196   3.110   1.644   0.728
 1724SOL    HW2 5197   3.157   1.570   0.866
 1725SOL     OW 5198   2.321   1.152   0.741
 1725SOL    HW1 5199   2.250   1.125   0.806
 1725SOL    HW2 5200   2.295   1.124   0.648
 1726SOL     OW 5201   3.133   1.797   0.591
 1726SOL    HW1 5202   3.177   1.861   0.527
 1726SOL    HW2 5203   3.083   1.849   0.661
 1727SOL     OW 5204   2.894   0.549   0.016
 1727SOL    HW1 5205   2.853   0.631  -0.023
 1727SOL    HW2 5206   2.958   0.575   0.089
 1728SOL     OW 5207   1.940   0.556   1.386
 1728SOL    HW1 5208   2.032   0.555   1.345
 1728SOL    HW2 5209   1.934   0.630   1.453
 1729SOL     OW 5210   2.423   0.222   1.147
 1729SOL    HW1 5211   2.461   0.138   1.184
 1729SOL    HW2 5212   2.335   0.241   1.191
 1730SOL     OW 5213   2.728   0.454   0.642
 1730SOL    HW1 5214   2.696   0.526   0.580
 1730SOL    HW2 5215   2.752   0.373   0.589
 1731SOL     OW 5216   2.879   0.039   0.753
 1731SOL    HW1 5217   2.807   0.044   0.684
 1731SOL    HW2 5218   2.855  -0.030   0.822
 1732SOL     OW 5219   3.291   1.173   0.867
 1732SOL    HW1 5220   3.236   1.089   0.860
 1732SOL    HW2 5221   3.317   1.202   0.775
 1733SOL     OW 5222   3.328   0.590   0.992
 1733SOL    HW1 5223   3.298   0.495   0.999
 1733SOL    HW2 5224   3.401   0.606   1.058
 1734SOL     OW 5225   3.719   0.833   0.377
 1734SOL    HW1 5226   3.761   0.769   0.441
 1734SOL    HW2 5227   3.681   0.782   0.299
 1735SOL     OW 5228   2.350   1.385   0.174
 1735SOL    HW1 5229   2.263   1.370   0.221
 1735SOL    HW2 5230   2.333   1.411   0.079
 1736SOL     OW 5231   3.526   1.280   0.657
 1736SOL    HW1 5232   3.625   1.288   0.671
 1736SOL    HW2 5233   3.481   1.364   0.688
 1737SOL     OW 5234   3.252   0.575   0.078
 1737SOL    HW1 5235   3.198   0.554   0.159
 1737SOL    HW2 5236   3.343   0.534   0.087
 1738SOL     OW 5237   2.389   0.256   0.328
 1738SOL    HW1 5238   2.416   0.197   0.253
 1738SOL    HW2 5239   2.389   0.351   0.297
 1739SOL     OW 5240   3.616   1.223   1.588
 1739SOL    HW1 5241   3.707   1.184   1.575
 1739SOL    HW2 5242   3.624   1.319   1.612
 1740SOL     OW 5243   2.926   1.347   1.340
 1740SOL    HW1 5244   2.846   1.324   1.395
 1740SOL    HW2 5245   3.009   1.321   1.389
 1741SOL     OW 5246   3.454   1.629   1.625
 1741SOL    HW1 5247   3.481   1.663   1.535
 1741SOL    HW2 5248   3.533   1.591   1.671
 1742SOL     OW 5249   2.973   1.195   1.100
 1742SOL    HW1 5250   2.933   1.239   1.181
 1742SOL    HW2 5251   2.932   1.232   1.017
 1743SOL     OW 5252   3.500   1.099   1.079
 1743SOL    HW1 5253   3.505   1.180   1.138
 1743SOL    HW2 5254   3.414   1.101   1.028
 1744SOL     OW 5255   2.777   0.089   1.402
 1744SOL    HW1 5256   2.802   0.069   1.307
 1744SOL    HW2 5257   2.849   0.145   1.444
 1745SOL     OW 5258   2.842   1.116   1.719
 1745SOL    HW1 5259   2.743   1.122   1.729
 1745SOL    HW2 5260   2.865   1.036   1.663
 1746SOL     OW 5261   2.567   1.050   0.368
 1746SOL    HW1 5262   2.553   1.057   0.467
 1746SOL    HW2 5263   2.651   0.999   0.350
 1747SOL     OW 5264   2.272   0.813   1.251
 1747SOL    HW1 5265   2.358   0.825   1.301
 1747SOL    HW2 5266   2.230   0.726   1.278
 1748SOL     OW 5267   3.136   0.386   1.262
 1748SOL    HW1 5268   3.157   0.460   1.326
 1748SOL    HW2 5269   3.047   0.403   1.219
 1749SOL     OW 5270   1.926   1.564   1.331
 1749SOL    HW1 5271   1.880   1.646   1.297
 1749SOL    HW2 5272   2.024   1.583   1.340
 1750SOL     OW 5273   2.229   1.100   0.501
 1750SOL    HW1 5274   2.222   1.183   0.445
 1750SOL    HW2 5275   2.233   1.020   0.441
 1751SOL     OW 5276   2.428   0.537   0.865
 1751SOL    HW1 5277   2.440   0.603   0.791
 1751SOL    HW2 5278   2.474   0.571   0.948
 1752SOL     OW 5279   3.114   1.348   0.388
 1752SOL    HW1 5280   3.164   1.425   0.428
 1752SOL    HW2 5281   3.019   1.350   0.420
 1753SOL     OW 5282   3.134   1.445   1.142
 1753SOL    HW1 5283   3.181   1.458   1.229
 1753SOL    HW2 5284   3.068   1.371   1.151
 1754SOL     OW 5285   3.444   0.639   0.472
 1754SOL    HW1 5286   3.413   0.700   0.545
 1754SOL    HW2 5287   3.494   0.691   0.403
 1755SOL     OW 5288   2.216   1.510   1.329
 1755SOL    HW1 5289   2.195   1.466   1.242
 1755SOL    HW2 5290   2.313   1.536   1.332
 1756SOL     OW 5291   2.264   0.751   1.598
 1756SOL    HW1 5292   2.332   0.806   1.551
 1756SOL    HW2 5293   2.304   0.663   1.625
 1757SOL     OW 5294   3.449   0.779   1.670
 1757SOL    HW1 5295   3.357   0.817   1.665
 1757SOL    HW2 5296   3.509   0.826   1.605
 1758SOL     OW 5297   2.875   0.105   1.770
 1758SOL    HW1 5298   2.881   0.190   1.718
 1758SOL    HW2 5299   2.907   0.029   1.713
 1759SOL     OW 5300   2.366   0.050   1.740
 1759SOL    HW1 5301   2.324  -0.007   1.670
 1759SOL    HW2 5302   2.300   0.119   1.772
 1760SOL     OW 5303   2.435   0.870   1.029
 1760SOL    HW1 5304   2.479   0.959   1.020
 1760SOL    HW2 5305   2.372   0.870   1.106
 1761SOL     OW 5306   3.222   0.862   1.045
 1761SOL    HW1 5307   3.147   0.862   0.979
 1761SOL    HW2 5308   3.259   0.770   1.054
 1762SOL     OW 5309   3.071   0.525   0.275
 1762SOL    HW1 5310   3.084   0.441   0.329
 1762SOL    HW2 5311   3.042   0.599   0.335
 1763SOL     OW 5312   2.169   0.213   1.231
 1763SOL    HW1 5313   2.146   0.250   1.321
 1763SOL    HW2 5314   2.139   0.118   1.225
 1764SOL     OW 5315   1.899   1.310   1.282
 1764SOL    HW1 5316   1.952   1.261   1.350
 1764SOL    HW2 5317   1.921   1.408   1.287
 1765SOL     OW 5318   2.594   0.634   1.064
 1765SOL    HW1 5319   2.653   0.608   0.988
 1765SOL    HW2 5320   2.566   0.730   1.053
 1766SOL     OW 5321   3.590   0.935   1.854
 1766SOL    HW1 5322   3.544   0.928   1.765
 1766SOL    HW2 5323   3.528   0.979   1.920
 1767SOL     OW 5324   2.169   0.063   0.618
 1767SOL    HW1 5325   2.158   0.157   0.651
 1767SOL    HW2 5326   2.164   0.000   0.695
 1768SOL     OW 5327   3.484   0.367   0.374
 1768SOL    HW1 5328   3.486   0.291   0.438
 1768SOL    HW2 5329   3.436   0.444   0.414
 1769SOL     OW 5330   2.885   0.766   0.966
 1769SOL    HW1 5331   2.900   0.787   1.062
 1769SOL    HW2 5332   2.855   0.671   0.957
 1770SOL     OW 5333   2.842   1.573   1.700
 1770SOL    HW1 5334   2.822   1.617   1.612
 1770SOL    HW2 5335   2.881   1.482   1.684
 1771SOL     OW 5336   3.721   1.518   1.605
 1771SOL    HW1 5337   3.735   1.545   1.510
 1771SOL    HW2 5338   3.804   1.540   1.658
 1772SOL     OW 5339   2.212   0.898   1.804
 1772SOL    HW1 5340   2.288   0.942   1.852
 1772SOL    HW2 5341   2.247   0.851   1.722
 1773SOL     OW 5342   3.402   0.274   0.125
 1773SOL    HW1 5343   3.341   0.199   0.148
 1773SOL    HW2 5344   3.424   0.326   0.208
 1774SOL     OW 5345   3.165   0.838   0.042
 1774SOL    HW1 5346   3.199   0.745   0.057
 1774SOL    HW2 5347   3.183   0.865  -0.053
 1775SOL     OW 5348   2.930   1.333   0.849
 1775SOL    HW1 5349   2.937   1.249   0.794
 1775SOL    HW2 5350   2.992   1.402   0.813
 1776SOL     OW 5351   2.181   0.810   0.949
 1776SOL    HW1 5352   2.274   0.846   0.954
 1776SOL    HW2 5353   2.175   0.725   1.001
 1777SOL     OW 5354   2.201   0.509   1.006
 1777SOL    HW1 5355   2.149   0.426   0.989
 1777SOL    HW2 5356   2.278   0.514   0.942
 1778SOL     OW 5357   3.000   0.380   1.678
 1778SOL    HW1 5358   2.955   0.443   1.742
 1778SOL    HW2 5359   3.093   0.411   1.661
 1779SOL     OW 5360   3.022   0.207   1.477
 1779SOL    HW1 5361   3.022   0.271   1.554
 1779SOL    HW2 5362   3.050   0.255   1.394
 1780SOL     OW 5363   1.950   1.801   0.927
 1780SOL    HW1 5364   1.908   1.715   0.900
 1780SOL    HW2 5365   2.044   1.804   0.893
 1781SOL     OW 5366   2.366   1.568   0.910
 1781SOL    HW1 5367   2.432   1.642   0.919
 1781SOL    HW2 5368   2.410   1.489   0.868
 1782SOL     OW 5369   2.864   0.796   1.238
 1782SOL    HW1 5370   2.905   0.764   1.324
 1782SOL    HW2 5371   2.768   0.769   1.235
 1783SOL     OW 5372   1.902   0.544   1.114
 1783SOL    HW1 5373   1.987   0.511   1.073
 1783SOL    HW2 5374   1.915   0.559   1.212
 1784SOL     OW 5375   2.051   0.520   1.722
 1784SOL    HW1 5376   2.110   0.480   1.652
 1784SOL    HW2 5377   1.993   0.591   1.681
 1785SOL     OW 5378   3.231   0.950   1.660
 1785SOL    HW1 5379   3.270   1.039   1.680
 1785SOL    HW2 5380   3.241   0.930   1.563
 1786SOL     OW 5381   2.677   0.572   0.325
 1786SOL    HW1 5382   2.684   0.483   0.279
 1786SOL    HW2 5383   2.583   0.606   0.317
 1787SOL     OW 5384   3.519   0.604   1.206
 1787SOL    HW1 5385   3.481   0.535   1.268
 1787SOL    HW2 5386   3.601   0.568   1.162
 1788SOL     OW 5387   2.114   1.564   1.744
 1788SOL    HW1 5388   2.084   1.621   1.820
 1788SOL    HW2 5389   2.107   1.467   1.770
 1789SOL     OW 5390   2.533   0.464   1.269
 1789SOL    HW1 5391   2.499   0.375   1.239
 1789SOL    HW2 5392   2.559   0.518   1.189
 1790SOL     OW 5393   2.792   1.678   1.465
 1790SOL    HW1 5394   2.768   1.660   1.370
 1790SOL    HW2 5395   2.822   1.772   1.475
 1791SOL     OW 5396   2.335   0.500   0.191
 1791SOL    HW1 5397   2.396   0.580   0.195
 1791SOL    HW2 5398   2.240   0.531   0.198
 1792SOL     OW 5399   2.021   1.137   1.466
 1792SOL    HW1 5400   2.043   1.076   1.542
 1792SOL    HW2 5401   2.031   1.088   1.380
 1793SOL     OW 5402   3.209   1.059   1.234
 1793SOL    HW1 5403   3.233   0.996   1.160
 1793SOL    HW2 5404   3.119   1.099   1.216
 1794SOL     OW 5405   3.164   0.855   0.309
 1794SOL    HW1 5406   3.078   0.824   0.351
 1794SOL    HW2 5407   3.160   0.841   0.210
 1795SOL     OW 5408   3.621   1.747   1.154
 1795SOL    HW1 5409   3.682   1.777   1.081
 1795SOL    HW2 5410   3.583   1.658   1.132
 1796SOL     OW 5411   3.114   1.731   1.128
 1796SOL    HW1 5412   3.198   1.736   1.074
 1796SOL    HW2 5413   3.091   1.635   1.146
 1797SOL     OW 5414   1.945   1.258   1.022
 1797SOL    HW1 5415   1.940   1.257   1.122
 1797SOL    HW2 5416   1.862   1.217   0.984
 1798SOL     OW 5417   2.550   1.662   1.716
 1798SOL    HW1 5418   2.494   1.743   1.725
 1798SOL    HW2 5419   2.602   1.666   1.630
 1799SOL     OW 5420   2.765   0.086   0.133
 1799SOL    HW1 5421   2.816   0.087   0.047
 1799SOL    HW2 5422   2.821   0.044   0.204
 1800SOL     OW 5423   3.588   0.135   0.523
 1800SOL    HW1 5424   3.661   0.118   0.456
 1800SOL    HW2 5425   3.557   0.048   0.561
 1801SOL     OW 5426   3.250   1.573   0.477
 1801SOL    HW1 5427   3.317   1.585   0.403
 1801SOL    HW2 5428   3.210   1.662   0.500
 1802SOL     OW 5429   1.992   1.794   1.851
 1802SOL    HW1 5430   1.951   1.720   1.904
 1802SOL    HW2 5431   2.056   1.845   1.909
 1803SOL     OW 5432   3.142   0.927   0.672
 1803SOL    HW1 5433   3.202   0.846   0.674
 1803SOL    HW2 5434   3.182   0.996   0.612
 1804SOL     OW 5435   2.692   1.273   1.422
 1804SOL    HW1 5436   2.687   1.306   1.517
 1804SOL    HW2 5437   2.606   1.292   1.376
 1805SOL     OW 5438   2.534   1.616   0.154
 1805SOL    HW1 5439   2.543   1.626   0.055
 1805SOL    HW2 5440   2.494   1.527   0.175
 1806SOL     OW 5441   3.512   1.720   1.394
 1806SOL    HW1 5442   3.565   1.730   1.310
 1806SOL    HW2 5443   3.485   1.810   1.428
 1807SOL     OW 5444   3.703   0.175   0.963
 1807SOL    HW1 5445   3.742   0.090   0.927
 1807SOL    HW2 5446   3.605   0.177   0.944
 1808SOL     OW 5447   2.125   0.326   0.720
 1808SOL    HW1 5448   2.046   0.377   0.686
 1808SOL    HW2 5449   2.116   0.311   0.818
 1809SOL     OW 5450   3.056   1.612   0.031
 1809SOL    HW1 5451   3.062   1.519   0.068
 1809SOL    HW2 5452   2.997   1.612  -0.049
 1810SOL     OW 5453   2.684   1.002   1.372
 1810SOL    HW1 5454   2.724   1.001   1.280
 1810SOL    HW2 5455   2.694   1.094   1.412
 1811SOL     OW 5456   2.778   0.910   0.291
 1811SOL    HW1 5457   2.841   0.948   0.223
 1811SOL    HW2 5458   2.818   0.827   0.330
 1812SOL     OW 5459   3.366   1.607   0.044
 1812SOL    HW1 5460   3.274   1.644   0.051
 1812SOL    HW2 5461   3.404   1.627  -0.046
 1813SOL     OW 5462   2.234   1.288   1.490
 1813SOL    HW1 5463   2.221   1.381   1.456
 1813SOL    HW2 5464   2.150   1.236   1.477
 1814SOL     OW 5465   3.476   1.292   1.289
 1814SOL    HW1 5466   3.536   1.295   1.369
 1814SOL    HW2 5467   3.401   1.356   1.302
 1815SOL     OW 5468   2.901   1.098   0.696
 1815SOL    HW1 5469   2.831   1.051   0.750
 1815SOL    HW2 5470   2.960   1.030   0.653
 1816SOL     OW 5471   2.876   0.236   0.971
 1816SOL    HW1 5472   2.868   0.200   0.878
 1816SOL    HW2 5473   2.874   0.160   1.036
 1817SOL     OW 5474   2.452   1.487   0.491
 1817SOL    HW1 5475   2.494   1.429   0.421
 1817SOL    HW2 5476   2.408   1.566   0.447
 1818SOL     OW 5477   3.571   0.385   1.381
 1818SOL    HW1 5478   3.644   0.454   1.385
 1818SOL    HW2 5479   3.599   0.310   1.322
 1819SOL     OW 5480   2.117   1.348   0.290
 1819SOL    HW1 5481   2.021   1.349   0.263
 1819SOL    HW2 5482   2.129   1.401   0.374
 1820SOL     OW 5483   1.967   1.013   1.726
 1820SOL    HW1 5484   1.890   0.980   1.780
 1820SOL    HW2 5485   2.052   0.983   1.768
 1821SOL     OW 5486   2.534   0.203   1.489
 1821SOL    HW1 5487   2.624   0.187   1.449
 1821SOL    HW2 5488   2.542   0.208   1.588
 1822SOL     OW 5489   1.937   0.345   0.033
 1822SOL    HW1 5490   1.845   0.317   0.004
 1822SOL    HW2 5491   1.968   0.422  -0.023
 1823SOL     OW 5492   3.302   0.856   1.398
 1823SOL    HW1 5493   3.245   0.908   1.335
 1823SOL    HW2 5494   3.398   0.868   1.374
 1824SOL     OW 5495   1.934   0.166   0.318
 1824SOL    HW1 5496   1.917   0.249   0.264
 1824SOL    HW2 5497   2.024   0.129   0.296
 1825SOL     OW 5498   3.045   1.335   0.119
 1825SOL    HW1 5499   2.946   1.324   0.121
 1825SOL    HW2 5500   3.079   1.350   0.212
 1826SOL     OW 5501   2.475   0.842   1.431
 1826SOL    HW1 5502   2.531   0.923   1.414
 1826SOL    HW2 5503   2.534   0.762   1.434
 1827SOL     OW 5504   3.355   1.767   0.959
 1827SOL    HW1 5505   3.388   1.831   0.890
 1827SOL    HW2 5506   3.421   1.761   1.034
 1828SOL     OW 5507   2.578   0.565   1.708
 1828SOL    HW1 5508   2.597   0.630   1.782
 1828SOL    HW2 5509   2.638   0.485   1.717
 1829SOL     OW 5510   3.312   1.220   1.633
 1829SOL    HW1 5511   3.303   1.210   1.732
 1829SOL    HW2 5512   3.408   1.213   1.607
 1830SOL     OW 5513   2.252   1.741   1.560
 1830SOL    HW1 5514   2.161   1.782   1.558
 1830SOL    HW2 5515   2.245   1.647   1.592
 1831SOL     OW 5516   3.536   0.883   1.254
 1831SOL    HW1 5517   3.509   0.794   1.217
 1831SOL    HW2 5518   3.537   0.951   1.181
 1832SOL     OW 5519   3.087   0.325   0.449
 1832SOL    HW1 5520   3.152   0.251   0.438
 1832SOL    HW2 5521   3.107   0.375   0.533
 1833SOL     OW 5522   2.456   0.745   0.652
 1833SOL    HW1 5523   2.506   0.830   0.633
 1833SOL    HW2 5524   2.368   0.747   0.604
 1834SOL     OW 5525   3.639   0.342   1.642
 1834SOL    HW1 5526   3.622   0.373   1.548
 1834SOL    HW2 5527   3.555   0.305   1.680
 1835SOL     OW 5528   3.592   0.934   1.517
 1835SOL    HW1 5529   3.630   1.025   1.532
 1835SOL    HW2 5530   3.584   0.917   1.418
 1836SOL     OW 5531   2.721   1.374   0.016
 1836SOL    HW1 5532   2.675   1.389   0.104
 1836SOL    HW2 5533   2.765   1.459  -0.014
 1837SOL     OW 5534   2.523   1.790   0.953
 1837SOL    HW1 5535   2.477   1.878   0.940
 1837SOL    HW2 5536   2.622   1.802   0.946
 1838SOL     OW 5537   2.721   0.956   0.861
 1838SOL    HW1 5538   2.775   0.887   0.909
 1838SOL    HW2 5539   2.689   1.025   0.927
 1839SOL     OW 5540   2.945   0.984   0.087
 1839SOL    HW1 5541   2.922   1.037   0.005
 1839SOL    HW2 5542   3.026   0.928   0.068
 1840SOL     OW 5543   3.723   1.569   0.851
 1840SOL    HW1 5544   3.652   1.557   0.781
 1840SOL    HW2 5545   3.724   1.490   0.911
 1841SOL     OW 5546   2.083   1.314   1.844
 1841SOL    HW1 5547   2.018   1.241   1.823
 1841SOL    HW2 5548   2.087   1.328   1.942
 1842SOL     OW 5549   1.941   1.240   0.653
 1842SOL    HW1 5550   1.940   1.193   0.741
 1842SOL    HW2 5551   2.023   1.212   0.602
 1843SOL     OW 5552   2.534   1.391   1.624
 1843SOL    HW1 5553   2.456   1.341   1.662
 1843SOL    HW2 5554   2.531   1.486   1.655
 1844SOL     OW 5555   3.686   0.192   1.227
 1844SOL    HW1 5556   3.682   0.102   1.271
 1844SOL    HW2 5557   3.689   0.181   1.128
 1845SOL     OW 5558   2.290   0.424   0.520
 1845SOL    HW1 5559   2.320   0.352   0.458
 1845SOL    HW2 5560   2.251   0.384   0.603
 1846SOL     OW 5561   3.567   1.487   1.104
 1846SOL    HW1 5562   3.474   1.462   1.077
 1846SOL    HW2 5563   3.593   1.437   1.186
 1847SOL     OW 5564   2.179   0.547   1.280
 1847SOL    HW1 5565   2.217   0.488   1.352
 1847SOL    HW2 5566   2.219   0.521   1.192
 1848SOL     OW 5567   2.674   1.586   0.687
 1848SOL    HW1 5568   2.706   1.596   0.593
 1848SOL    HW2 5569   2.595   1.524   0.689
 1849SOL     OW 5570   3.286   0.214   1.112
 1849SOL    HW1 5571   3.338   0.149   1.167
 1849SOL    HW2 5572   3.237   0.277   1.173
 1850SOL     OW 5573   2.863   0.034   1.154
 1850SOL    HW1 5574   2.800  -0.038   1.123
 1850SOL    HW2 5575   2.956  -0.002   1.154
 1851SOL     OW 5576   2.632   1.330   0.301
 1851SOL    HW1 5577   2.586   1.243   0.318
 1851SOL    HW2 5578   2.723   1.327   0.342
 1852SOL     OW 5579   2.480   1.567   1.284
 1852SOL    HW1 5580   2.475   1.649   1.341
 1852SOL    HW2 5581   2.569   1.564   1.239
 1853SOL     OW 5582   3.214   0.052   0.168
 1853SOL    HW1 5583   3.249   0.011   0.084
 1853SOL    HW2 5584   3.124   0.014   0.188
 1854SOL     OW 5585   3.162   0.453   0.691
 1854SOL    HW1 5586   3.103   0.533   0.695
 1854SOL    HW2 5587   3.177   0.418   0.784
 1855SOL     OW 5588   3.455   0.221   0.882
 1855SOL    HW1 5589   3.371   0.220   0.936
 1855SOL    HW2 5590   3.457   0.304   0.826
 1856SOL     OW 5591   1.901   1.077   0.300
 1856SOL    HW1 5592   2.000   1.066   0.291
 1856SOL    HW2 5593   1.861   0.991   0.332
 1857SOL     OW 5594   2.737   1.646   0.337
 1857SOL    HW1 5595   2.660   1.611   0.283
 1857SOL    HW2 5596   2.705   1.717   0.399
 1858SOL     OW 5597   2.092   0.628   1.975
 1858SOL    HW1 5598   1.999   0.626   2.012
 1858SOL    HW2 5599   2.093   0.589   1.883
 1859SOL     OW 5600   2.087   0.275   2.858
 1859SOL    HW1 5601   2.122   0.258   2.950
 1859SOL    HW2 5602   1.999   0.230   2.846
 1860SOL     OW 5603   1.881   0.368   2.509
 1860SOL    HW1 5604   1.799   0.411   2.548
 1860SOL    HW2 5605   1.853   0.295   2.446
 1861SOL     OW 5606   2.431   1.275   3.027
 1861SOL    HW1 5607   2.338   1.268   2.990
 1861SOL    HW2 5608   2.442   1.364   3.071
 1862SOL     OW 5609   3.417   1.511   2.565
 1862SOL    HW1 5610   3.360   1.495   2.646
 1862SOL    HW2 5611   3.358   1.521   2.485
 1863SOL     OW 5612   2.997   0.703   2.579
 1863SOL    HW1 5613   3.054   0.781   2.554
 1863SOL    HW2 5614   2.937   0.729   2.655
 1864SOL     OW 5615   3.617   0.607   2.093
 1864SOL    HW1 5616   3.605   0.594   1.994
 1864SOL    HW2 5617   3.587   0.526   2.142
 1865SOL     OW 5618   2.630   1.144   2.885
 1865SOL    HW1 5619   2.552   1.161   2.945
 1865SOL    HW2 5620   2.664   1.231   2.849
 1866SOL     OW 5621   2.712   0.798   3.685
 1866SOL    HW1 5622   2.708   0.874   3.750
 1866SOL    HW2 5623   2.734   0.834   3.594
 1867SOL     OW 5624   2.547   1.012   2.527
 1867SOL    HW1 5625   2.616   0.996   2.597
 1867SOL    HW2 5626   2.474   1.069   2.565
 1868SOL     OW 5627   2.548   1.161   3.665
 1868SOL    HW1 5628   2.608   1.240   3.679
 1868SOL    HW2 5629   2.462   1.192   3.624
 1869SOL     OW 5630   2.197   1.435   2.923
 1869SOL    HW1 5631   2.119   1.404   2.870
 1869SOL    HW2 5632   2.255   1.493   2.866
 1870SOL     OW 5633   3.322   1.505   3.201
 1870SOL    HW1 5634   3.346   1.599   3.227
 1870SOL    HW2 5635   3.306   1.451   3.283
 1871SOL     OW 5636   2.300   0.392   3.361
 1871SOL    HW1 5637   2.382   0.336   3.370
 1871SOL    HW2 5638   2.219   0.334   3.365
 1872SOL     OW 5639   3.465   0.447   2.599
 1872SOL    HW1 5640   3.391   0.493   2.549
 1872SOL    HW2 5641   3.516   0.515   2.652
 1873SOL     OW 5642   2.093   1.713   2.345
 1873SOL    HW1 5643   2.127   1.790   2.399
 1873SOL    HW2 5644   2.137   1.713   2.255
 1874SOL     OW 5645   2.989   1.341   3.552
 1874SOL    HW1 5646   3.036   1.341   3.640
 1874SOL    HW2 5647   2.941   1.254   3.541
 1875SOL     OW 5648   2.092   1.434   2.400
 1875SOL    HW1 5649   2.066   1.530   2.400
 1875SOL    HW2 5650   2.021   1.380   2.445
 1876SOL     OW 5651   2.102   1.091   2.748
 1876SOL    HW1 5652   2.116   1.007   2.800
 1876SOL    HW2 5653   2.047   1.155   2.803
 1877SOL     OW 5654   2.482   1.786   3.301
 1877SOL    HW1 5655   2.390   1.769   3.336
 1877SOL    HW2 5656   2.510   1.878   3.327
 1878SOL     OW 5657   2.468   0.964   1.985
 1878SOL    HW1 5658   2.475   1.048   1.931
 1878SOL    HW2 5659   2.514   0.977   2.073
 1879SOL     OW 5660   3.456   0.114   3.342
 1879SOL    HW1 5661   3.438   0.181   3.270
 1879SOL    HW2 5662   3.453   0.160   3.431
 1880SOL     OW 5663   1.984   0.643   2.425
 1880SOL    HW1 5664   1.939   0.555   2.442
 1880SOL    HW2 5665   1.983   0.697   2.509
 1881SOL     OW 5666   3.704   1.767   2.221
 1881SOL    HW1 5667   3.758   1.738   2.301
 1881SOL    HW2 5668   3.734   1.857   2.192
 1882SOL     OW 5669   1.889   1.596   1.979
 1882SOL    HW1 5670   1.870   1.500   2.000
 1882SOL    HW2 5671   1.856   1.654   2.054
 1883SOL     OW 5672   3.551   0.922   2.474
 1883SOL    HW1 5673   3.646   0.893   2.482
 1883SOL    HW2 5674   3.543   0.987   2.399
 1884SOL     OW 5675   3.503   1.108   2.294
 1884SOL    HW1 5676   3.589   1.110   2.242
 1884SOL    HW2 5677   3.517   1.155   2.382
 1885SOL     OW 5678   1.975   0.737   3.459
 1885SOL    HW1 5679   2.063   0.724   3.504
 1885SOL    HW2 5680   1.962   0.834   3.437
 1886SOL     OW 5681   2.475   1.365   2.588
 1886SOL    HW1 5682   2.426   1.278   2.597
 1886SOL    HW2 5683   2.452   1.408   2.501
 1887SOL     OW 5684   3.155   1.228   3.285
 1887SOL    HW1 5685   3.192   1.155   3.227
 1887SOL    HW2 5686   3.207   1.233   3.370
 1888SOL     OW 5687   2.671   0.004   2.364
 1888SOL    HW1 5688   2.711   0.095   2.355
 1888SOL    HW2 5689   2.571   0.012   2.370
 1889SOL     OW 5690   2.059   0.976   3.126
 1889SOL    HW1 5691   2.148   0.931   3.112
 1889SOL    HW2 5692   1.986   0.911   3.107
 1890SOL     OW 5693   3.387   0.999   2.052
 1890SOL    HW1 5694   3.324   0.923   2.065
 1890SOL    HW2 5695   3.435   1.017   2.138
 1891SOL     OW 5696   3.049   1.792   3.478
 1891SOL    HW1 5697   3.073   1.852   3.402
 1891SOL    HW2 5698   3.056   1.697   3.448
 1892SOL     OW 5699   2.179   0.251   3.663
 1892SOL    HW1 5700   2.250   0.322   3.669
 1892SOL    HW2 5701   2.091   0.290   3.691
 1893SOL     OW 5702   3.328   1.417   2.815
 1893SOL    HW1 5703   3.269   1.423   2.895
 1893SOL    HW2 5704   3.313   1.329   2.769
 1894SOL     OW 5705   3.529   1.714   2.434
 1894SOL    HW1 5706   3.488   1.691   2.346
 1894SOL    HW2 5707   3.511   1.640   2.499
 1895SOL     OW 5708   2.460   0.729   2.132
 1895SOL    HW1 5709   2.484   0.798   2.064
 1895SOL    HW2 5710   2.382   0.762   2.186
 1896SOL     OW 5711   3.143   0.345   2.806
 1896SOL    HW1 5712   3.057   0.295   2.793
 1896SOL    HW2 5713   3.205   0.291   2.862
 1897SOL     OW 5714   3.438   1.662   2.169
 1897SOL    HW1 5715   3.527   1.708   2.172
 1897SOL    HW2 5716   3.417   1.638   2.074
 1898SOL     OW 5717   2.669   0.605   3.327
 1898SOL    HW1 5718   2.622   0.602   3.416
 1898SOL    HW2 5719   2.618   0.550   3.261
 1899SOL     OW 5720   3.256   0.469   3.536
 1899SOL    HW1 5721   3.236   0.512   3.624
 1899SOL    HW2 5722   3.334   0.407   3.545
 1900SOL     OW 5723   2.835   0.890   3.434
 1900SOL    HW1 5724   2.881   0.806   3.405
 1900SOL    HW2 5725   2.779   0.924   3.359
 1901SOL     OW 5726   2.853   0.410   3.104
 1901SOL    HW1 5727   2.776   0.444   3.158
 1901SOL    HW2 5728   2.819   0.359   3.025
 1902SOL     OW 5729   2.903   0.701   2.291
 1902SOL    HW1 5730   2.929   0.697   2.387
 1902SOL    HW2 5731   2.818   0.650   2.277
 1903SOL     OW 5732   1.938   0.811   2.651
 1903SOL    HW1 5733   2.037   0.799   2.660
 1903SOL    HW2 5734   1.914   0.906   2.672
 1904SOL     OW 5735   1.992   1.821   3.433
 1904SOL    HW1 5736   1.982   1.806   3.532
 1904SOL    HW2 5737   1.906   1.857   3.397
 1905SOL     OW 5738   2.727   0.348   2.057
 1905SOL    HW1 5739   2.786   0.411   2.008
 1905SOL    HW2 5740   2.746   0.254   2.028
 1906SOL     OW 5741   3.581   0.585   3.693
 1906SOL    HW1 5742   3.555   0.674   3.657
 1906SOL    HW2 5743   3.579   0.517   3.620
 1907SOL     OW 5744   3.224   1.144   2.407
 1907SOL    HW1 5745   3.307   1.115   2.359
 1907SOL    HW2 5746   3.175   1.211   2.351
 1908SOL     OW 5747   2.412   0.196   2.747
 1908SOL    HW1 5748   2.407   0.191   2.847
 1908SOL    HW2 5749   2.414   0.292   2.718
 1909SOL     OW 5750   2.870   1.456   2.339
 1909SOL    HW1 5751   2.824   1.528   2.287
 1909SOL    HW2 5752   2.866   1.476   2.437
 1910SOL     OW 5753   2.213   1.801   2.715
 1910SOL    HW1 5754   2.263   1.715   2.721
 1910SOL    HW2 5755   2.278   1.878   2.712
 1911SOL     OW 5756   3.657   1.066   2.735
 1911SOL    HW1 5757   3.595   1.051   2.659
 1911SOL    HW2 5758   3.605   1.077   2.820
 1912SOL     OW 5759   3.089   1.550   3.368
 1912SOL    HW1 5760   3.095   1.473   3.432
 1912SOL    HW2 5761   3.037   1.524   3.288
 1913SOL     OW 5762   2.183   0.943   2.104
 1913SOL    HW1 5763   2.265   0.982   2.062
 1913SOL    HW2 5764   2.156   0.861   2.055
 1914SOL     OW 5765   3.320   0.735   2.590
 1914SOL    HW1 5766   3.315   0.670   2.665
 1914SOL    HW2 5767   3.400   0.794   2.603
 1915SOL     OW 5768   2.323   1.266   3.589
 1915SOL    HW1 5769   2.273   1.267   3.503
 1915SOL    HW2 5770   2.260   1.248   3.665
 1916SOL     OW 5771   2.973   1.776   2.099
 1916SOL    HW1 5772   2.913   1.714   2.149
 1916SOL    HW2 5773   3.004   1.732   2.014
 1917SOL     OW 5774   2.064   0.285   3.360
 1917SOL    HW1 5775   1.984   0.345   3.347
 1917SOL    HW2 5776   2.054   0.236   3.446
 1918SOL     OW 5777   3.494   1.377   1.943
 1918SOL    HW1 5778   3.462   1.471   1.933
 1918SOL    HW2 5779   3.418   1.314   1.931
 1919SOL     OW 5780   2.326   1.743   2.185
 1919SOL    HW1 5781   2.359   1.782   2.271
 1919SOL    HW2 5782   2.402   1.736   2.120
 1920SOL     OW 5783   3.262   0.107   2.288
 1920SOL    HW1 5784   3.238   0.070   2.198
 1920SOL    HW2 5785   3.361   0.123   2.292
 1921SOL     OW 5786   2.111   1.785   3.103
 1921SOL    HW1 5787   2.168   1.720   3.153
 1921SOL    HW2 5788   2.095   1.752   3.010
 1922SOL     OW 5789   2.802   1.698   2.766
 1922SOL    HW1 5790   2.882   1.641   2.787
 1922SOL    HW2 5791   2.753   1.658   2.689
 1923SOL     OW 5792   2.244   0.700   2.342
 1923SOL    HW1 5793   2.289   0.610   2.339
 1923SOL    HW2 5794   2.150   0.689   2.375
 1924SOL     OW 5795   3.409   0.222   3.591
 1924SOL    HW1 5796   3.404   0.259   3.683
 1924SOL    HW2 5797   3.337   0.153   3.579
 1925SOL     OW 5798   2.476   0.122   1.979
 1925SOL    HW1 5799   2.574   0.100   1.986
 1925SOL    HW2 5800   2.445   0.105   1.886
 1926SOL     OW 5801   2.643   0.264   3.611
 1926SOL    HW1 5802   2.710   0.203   3.654
 1926SOL    HW2 5803   2.570   0.283   3.676
 1927SOL     OW 5804   2.750   1.514   3.057
 1927SOL    HW1 5805   2.727   1.489   2.963
 1927SOL    HW2 5806   2.811   1.445   3.096
 1928SOL     OW 5807   3.213   0.590   3.295
 1928SOL    HW1 5808   3.241   0.547   3.380
 1928SOL    HW2 5809   3.238   0.686   3.296
 1929SOL     OW 5810   2.665   1.402   2.786
 1929SOL    HW1 5811   2.755   1.416   2.744
 1929SOL    HW2 5812   2.594   1.404   2.715
 1930SOL     OW 5813   2.784   0.503   2.761
 1930SOL    HW1 5814   2.759   0.494   2.665
 1930SOL    HW2 5815   2.832   0.421   2.792
 1931SOL     OW 5816   2.401   0.064   2.374
 1931SOL    HW1 5817   2.320   0.065   2.432
 1931SOL    HW2 5818   2.404   0.147   2.319
 1932SOL     OW 5819   3.296   1.188   1.903
 1932SOL    HW1 5820   3.328   1.112   1.960
 1932SOL    HW2 5821   3.204   1.215   1.933
 1933SOL     OW 5822   2.159   0.035   2.033
 1933SOL    HW1 5823   2.208   0.119   2.012
 1933SOL    HW2 5824   2.221  -0.030   2.078
 1934SOL     OW 5825   2.797   0.236   2.342
 1934SOL    HW1 5826   2.749   0.277   2.264
 1934SOL    HW2 5827   2.896   0.234   2.323
 1935SOL     OW 5828   2.938   0.683   3.326
 1935SOL    HW1 5829   2.858   0.622   3.329
 1935SOL    HW2 5830   3.019   0.630   3.302
 1936SOL     OW 5831   3.089   1.570   2.655
 1936SOL    HW1 5832   3.110   1.644   2.590
 1936SOL    HW2 5833   3.157   1.570   2.728
 1937SOL     OW 5834   2.321   1.152   2.603
 1937SOL    HW1 5835   2.250   1.125   2.668
 1937SOL    HW2 5836   2.295   1.124   2.510
 1938SOL     OW 5837   3.133   1.797   2.453
 1938SOL    HW1 5838   3.177   1.861   2.389
 1938SOL    HW2 5839   3.083   1.849   2.523
 1939SOL     OW 5840   2.894   0.549   1.878
 1939SOL    HW1 5841   2.853   0.631   1.839
 1939SOL    HW2 5842   2.958   0.575   1.951
 1940SOL     OW 5843   1.940   0.556   3.248
 1940SOL    HW1 5844   2.032   0.555   3.207
 1940SOL    HW2 5845   1.934   0.630   3.315
 1941SOL     OW 5846   2.423   0.222   3.009
 1941SOL    HW1 5847   2.461   0.138   3.046
 1941SOL    HW2 5848   2.335   0.241   3.053
 1942SOL     OW 5849   2.728   0.454   2.504
 1942SOL    HW1 5850   2.696   0.526   2.442
 1942SOL    HW2 5851   2.752   0.373   2.451
 1943SOL     OW 5852   2.879   0.039   2.615
 1943SOL    HW1 5853   2.807   0.044   2.546
 1943SOL    HW2 5854   2.855  -0.030   2.684
 1944SOL     OW 5855   3.291   1.173   2.729
 1944SOL    HW1 5856   3.236   1.089   2.722
 1944SOL    HW2 5857   3.317   1.202   2.637
 1945SOL     OW 5858   3.328   0.590   2.854
 1945SOL    HW1 5859   3.298   0.495   2.861
 1945SOL    HW2 5860   3.401   0.606   2.920
 1946SOL     OW 5861   3.719   0.833   2.239
 1946SOL    HW1 5862   3.761   0.769   2.303
 1946SOL    HW2 5863   3.681   0.782   2.161
 1947SOL     OW 5864   2.350   1.385   2.036
 1947SOL    HW1 5865   2.263   1.370   2.083
 1947SOL    HW2 5866   2.333   1.411   1.941
 1948SOL     OW 5867   3.526   1.280   2.519
 1948SOL    HW1 5868   3.625   1.288   2.533
 1948SOL    HW2 5869   3.481   1.364   2.550
 1949SOL     OW 5870   3.252   0.575   1.940
 1949SOL    HW1 5871   3.198   0.554   2.021
 1949SOL    HW2 5872   3.343   0.534   1.949
 1950SOL     OW 5873   2.389   0.256   2.190
 1950SOL    HW1 5874   2.416   0.197   2.115
 1950SOL    HW2 5875   2.389   0.351   2.159
 1951SOL     OW 5876   3.616   1.223   3.450
 1951SOL    HW1 5877   3.707   1.184   3.437
 1951SOL    HW2 5878   3.624   1.319   3.474
 1952SOL     OW 5879   2.926   1.347   3.202
 1952SOL    HW1 5880   2.846   1.324   3.257
 1952SOL    HW2 5881   3.009   1.321   3.251
 1953SOL     OW 5882   3.454   1.629   3.487
 1953SOL    HW1 5883   3.481   1.663   3.397
 1953SOL    HW2 5884   3.533   1.591   3.533
 1954SOL     OW 5885   2.973   1.195   2.962
 1954SOL    HW1 5886   2.933   1.239   3.043
 1954SOL    HW2 5887   2.932   1.232   2.879
 1955SOL     OW 5888   3.500   1.099   2.941
 1955SOL    HW1 5889   3.505   1.180   3.000
 1955SOL    HW2 5890   3.414   1.101   2.890
 1956SOL     OW 5891   2.777   0.089   3.264
 1956SOL    HW1 5892   2.802   0.069   3.169
 1956SOL    HW2 5893   2.849   0.145   3.306
 1957SOL     OW 5894   2.842   1.116   3.581
 1957SOL    HW1 5895   2.743   1.122   3.591
 1957SOL    HW2 5896   2.865   1.036   3.525
 1958SOL     OW 5897   2.567   1.050   2.230
 1958SOL    HW1 5898   2.553   1.057   2.329
 1958SOL    HW2 5899   2.651   0.999   2.212
 1959SOL     OW 5900   2.272   0.813   3.113
 1959SOL    HW1 5901   2.358   0.825   3.163
 1959SOL    HW2 5902   2.230   0.726   3.140
 1960SOL     OW 5903   3.136   0.386   3.124
 1960SOL    HW1 5904   3.157   0.460   3.188
 1960SOL    HW2 5905   3.047   0.403   3.081
 1961SOL     OW 5906   1.926   1.564   3.193
 1961SOL    HW1 5907   1.880   1.646   3.159
 1961SOL    HW2 5908   2.024   1.583   3.202
 1962SOL     OW 5909   2.229   1.100   2.363
 1962SOL    HW1 5910   2.222   1.183   2.307
 1962SOL    HW2 5911   2.233   1.020   2.303
 1963SOL     OW 5912   2.428   0.537   2.727
 1963SOL    HW1 5913   2.440   0.603   2.653
 1963SOL    HW2 5914   2.474   0.571   2.810
 1964SOL     OW 5915   3.114   1.348   2.250
 1964SOL    HW1 5916   3.164   1.425   2.290
 1964SOL    HW2 5917   3.019   1.350   2.282
 1965SOL     OW 5918   3.134   1.445   3.004
 1965SOL    HW1 5919   3.181   1.458   3.091
 1965SOL    HW2 5920   3.068   1.371   3.013
 1966SOL     OW 5921   3.444   0.639   2.334
 1966SOL    HW1 5922   3.413   0.700   2.407
 1966SOL    HW2 5923   3.494   0.691   2.265
 1967SOL     OW 5924   2.216   1.510   3.191
 1967SOL    HW1 5925   2.195   1.466   3.104
 1967SOL    HW2 5926   2.313   1.536   3.194
 1968SOL     OW 5927   2.264   0.751   3.460
 1968SOL    HW1 5928   2.332   0.806   3.413
 1968SOL    HW2 5929   2.304   0.663   3.487
 1969SOL     OW 5930   3.449   0.779   3.532
 1969SOL    HW1 5931   3.357   0.817   3.527
 1969SOL    HW2 5932   3.509   0.826   3.467
 1970SOL     OW 5933   2.875   0.105   3.632
 1970SOL    HW1 5934   2.881   0.190   3.580
 1970SOL    HW2 5935   2.907   0.029   3.575
 1971SOL     OW 5936   2.366   0.050   3.602
 1971SOL    HW1 5937   2.324  -0.007   3.532
 1971SOL    HW2 5938   2.300   0.119   3.634
 1972SOL     OW 5939   2.435   0.870   2.891
 1972SOL    HW1 5940   2.479   0.959   2.882
 1972SOL    HW2 5941   2.372   0.870   2.968
 1973SOL     OW 5942   3.222   0.862   2.907
 1973SOL    HW1 5943   3.147   0.862   2.841
 1973SOL    HW2 5944   3.259   0.770   2.916
 1974SOL     OW 5945   3.071   0.525   2.137
 1974SOL    HW1 5946   3.084   0.441   2.191
 1974SOL    HW2 5947   3.042   0.599   2.197
 1975SOL     OW 5948   2.169   0.213   3.093
 1975SOL    HW1 5949   2.146   0.250   3.183
 1975SOL    HW2 5950   2.139   0.118   3.087
 1976SOL     OW 5951   1.899   1.310   3.144
 1976SOL    HW1 5952   1.952   1.261   3.212
 1976SOL    HW2 5953   1.921   1.408   3.149
 1977SOL     OW 5954   2.594   0.634   2.926
 1977SOL    HW1 5955   2.653   0.608   2.850
 1977SOL    HW2 5956   2.566   0.730   2.915
 1978SOL     OW 5957   3.590   0.935   3.716
 1978SOL    HW1 5958   3.544   0.928   3.627
 1978SOL    HW2 5959   3.528   0.979   3.782
 1979SOL     OW 5960   2.169   0.063   2.480
 1979SOL    HW1 5961   2.158   0.157   2.513
 1979SOL    HW2 5962   2.164   0.000   2.557
 1980SOL     OW 5963   3.484   0.367   2.236
 1980SOL    HW1 5964   3.486   0.291   2.300
 1980SOL    HW2 5965   3.436   0.444   2.276
 1981SOL     OW 5966   2.885   0.766   2.828
 1981SOL    HW1 5967   2.900   0.787   2.924
 1981SOL    HW2 5968   2.855   0.671   2.819
 1982SOL     OW 5969   2.842   1.573   3.562
 1982SOL    HW1 5970   2.822   1.617   3.474
 1982SOL    HW2 5971   2.881   1.482   3.546
 1983SOL     OW 5972   3.721   1.518   3.467
 1983SOL    HW1 5973   3.735   1.545   3.372
 1983SOL    HW2 5974   3.804   1.540   3.520
 1984SOL     OW 5975   2.212   0.898   3.666
 1984SOL    HW1 5976   2.288   0.942   3.714
 1984SOL    HW2 5977   2.247   0.851   3.584
 1985SOL     OW 5978   3.402   0.274   1.987
 1985SOL    HW1 5979   3.341   0.199   2.010
 1985SOL    HW2 5980   3.424   0.326   2.070
 1986SOL     OW 5981   3.165   0.838   1.904
 1986SOL    HW1 5982   3.199   0.745   1.919
 1986SOL    HW2 5983   3.183   0.865   1.809
 1987SOL     OW 5984   2.930   1.333   2.711
 1987SOL    HW1 5985   2.937   1.249   2.656
 1987SOL    HW2 5986   2.992   1.402   2.675
 1988SOL     OW 5987   2.181   0.810   2.811
 1988SOL    HW1 5988   2.274   0.846   2.816
 1988SOL    HW2 5989   2.175   0.725   2.863
 1989SOL     OW 5990   2.201   0.509   2.868
 1989SOL    HW1 5991   2.149   0.426   2.851
 1989SOL    HW2 5992   2.278   0.514   2.804
 1990SOL     OW 5993   3.000   0.380   3.540
 1990SOL    HW1 5994   2.955   0.443   3.604
 1990SOL    HW2 5995   3.093   0.411   3.523
 1991SOL     OW 5996   3.022   0.207   3.339
 1991SOL    HW1 5997   3.022   0.271   3.416
 1991SOL    HW2 5998   3.050   0.255   3.256
 1992SOL     OW 5999   1.870   1.326   2.062
 1992SOL    HW1 6000   1.777   1.347   2.031
 1992SOL    HW2 6001   1.880   1.227   2.075
 1993SOL     OW 6002   1.950   1.801   2.789
 1993SOL    HW1 6003   1.908   1.715   2.762
 1993SOL    HW2 6004   2.044   1.804   2.755
 1994SOL     OW 6005   2.366   1.568   2.772
 1994SOL    HW1 6006   2.432   1.642   2.781
 1994SOL    HW2 6007   2.410   1.489   2.730
 1995SOL     OW 6008   2.864   0.796   3.100
 1995SOL    HW1 6009   2.905   0.764   3.186
 1995SOL    HW2 6010   2.768   0.769   3.097
 1996SOL     OW 6011   1.902   0.544   2.976
 1996SOL    HW1 6012   1.987   0.511   2.935
 1996SOL    HW2 6013   1.915   0.559   3.074
 1997SOL     OW 6014   2.051   0.520   3.584
 1997SOL    HW1 6015   2.110   0.480   3.514
 1997SOL    HW2 6016   1.993   0.591   3.543
 1998SOL     OW 6017   3.231   0.950   3.522
 1998SOL    HW1 6018   3.270   1.039   3.542
 1998SOL    HW2 6019   3.241   0.930   3.425
 1999SOL     OW 6020   2.677   0.572   2.187
 1999SOL    HW1 6021   2.684   0.483   2.141
 1999SOL    HW2 6022   2.583   0.606   2.179
 2000SOL     OW 6023   3.519   0.604   3.068
 2000SOL    HW1 6024   3.481   0.535   3.130
 2000SOL    HW2 6025   3.601   0.568   3.024
 2001SOL     OW 6026   2.114   1.564   3.606
 2001SOL    HW1 6027   2.084   1.621   3.682
 2001SOL    HW2 6028   2.107   1.467   3.632
 2002SOL     OW 6029   2.533   0.464   3.131
 2002SOL    HW1 6030   2.499   0.375   3.101
 2002SOL    HW2 6031   2.559   0.518   3.051
 2003SOL     OW 6032   2.792   1.678   3.327
 2003SOL    HW1 6033   2.768   1.660   3.232
 2003SOL    HW2 6034   2.822   1.772   3.337
 2004SOL     OW 6035   2.335   0.500   2.053
 2004SOL    HW1 6036   2.396   0.580   2.057
 2004SOL    HW2 6037   2.240   0.531   2.060
 2005SOL     OW 6038   2.021   1.137   3.328
 2005SOL    HW1 6039   2.043   1.076   3.404
 2005SOL    HW2 6040   2.031   1.088   3.242
 2006SOL     OW 6041   3.209   1.059   3.096
 2006SOL    HW1 6042   3.233   0.996   3.022
 2006SOL    HW2 6043   3.119   1.099   3.078
 2007SOL     OW 6044   3.164   0.855   2.171
 2007SOL    HW1 6045   3.078   0.824   2.213
 2007SOL    HW2 6046   3.160   0.841   2.072
 2008SOL     OW 6047   3.621   1.747   3.016
 2008SOL    HW1 6048   3.682   1.777   2.943
 2008SOL    HW2 6049   3.583   1.658   2.994
 2009SOL     OW 6050   3.114   1.731   2.990
 2009SOL    HW1 6051   3.198   1.736   2.936
 2009SOL    HW2 6052   3.091   1.635   3.008
 2010SOL     OW 6053   1.945   1.258   2.884
 2010SOL    HW1 6054   1.940   1.257   2.984
 2010SOL    HW2 6055   1.862   1.217   2.846
 2011SOL     OW 6056   2.550   1.662   3.578
 2011SOL    HW1 6057   2.494   1.743   3.587
 2011SOL    HW2 6058   2.602   1.666   3.492
 2012SOL     OW 6059   3.588   0.135   2.385
 2012SOL    HW1 6060   3.661   0.118   2.318
 2012SOL    HW2 6061   3.557   0.048   2.423
 2013SOL     OW 6062   3.250   1.573   2.339
 2013SOL    HW1 6063   3.317   1.585   2.265
 2013SOL    HW2 6064   3.210   1.662   2.362
 2014SOL     OW 6065   1.992   1.794   3.713
 2014SOL    HW1 6066   1.951   1.720   3.766
 2014SOL    HW2 6067   2.056   1.845   3.771
 2015SOL     OW 6068   3.142   0.927   2.534
 2015SOL    HW1 6069   3.202   0.846   2.536
 2015SOL    HW2 6070   3.182   0.996   2.474
 2016SOL     OW 6071   2.692   1.273   3.284
 2016SOL    HW1 6072   2.687   1.306   3.379
 2016SOL    HW2 6073   2.606   1.292   3.238
 2017SOL     OW 6074   2.534   1.616   2.016
 2017SOL    HW1 6075   2.543   1.626   1.917
 2017SOL    HW2 6076   2.494   1.527   2.037
 2018SOL     OW 6077   3.512   1.720   3.256
 2018SOL    HW1 6078   3.565   1.730   3.172
 2018SOL    HW2 6079   3.485   1.810   3.290
 2019SOL     OW 6080   3.703   0.175   2.825
 2019SOL    HW1 6081   3.742   0.090   2.789
 2019SOL    HW2 6082   3.605   0.177   2.806
 2020SOL     OW 6083   2.125   0.326   2.582
 2020SOL    HW1 6084   2.046   0.377   2.548
 2020SOL    HW2 6085   2.116   0.311   2.680
 2021SOL     OW 6086   3.056   1.612   1.893
 2021SOL    HW1 6087   3.062   1.519   1.930
 2021SOL    HW2 6088   2.997   1.612   1.813
 2022SOL     OW 6089   2.684   1.002   3.234
 2022SOL    HW1 6090   2.724   1.001   3.142
 2022SOL    HW2 6091   2.694   1.094   3.274
 2023SOL     OW 6092   2.778   0.910   2.153
 2023SOL    HW1 6093   2.841   0.948   2.085
 2023SOL    HW2 6094   2.818   0.827   2.192
 2024SOL     OW 6095   3.366   1.607   1.906
 2024SOL    HW1 6096   3.274   1.644   1.913
 2024SOL    HW2 6097   3.404   1.627   1.816
 2025SOL     OW 6098   2.234   1.288   3.352
 2025SOL    HW1 6099   2.221   1.381   3.318
 2025SOL    HW2 6100   2.150   1.236   3.339
 2026SOL     OW 6101   3.476   1.292   3.151
 2026SOL    HW1 6102   3.536   1.295   3.231
 2026SOL    HW2 6103   3.401   1.356   3.164
 2027SOL     OW 6104   2.901   1.098   2.558
 2027SOL    HW1 6105   2.831   1.051   2.612
 2027SOL    HW2 6106   2.960   1.030   2.515
 2028SOL     OW 6107   2.876   0.236   2.833
 2028SOL    HW1 6108   2.868   0.200   2.740
 2028SOL    HW2 6109   2.874   0.160   2.898
 2029SOL     OW 6110   2.452   1.487   2.353
 2029SOL    HW1 6111   2.494   1.429   2.283
 2029SOL    HW2 6112   2.408   1.566   2.309
 2030SOL     OW 6113   3.571   0.385   3.243
 2030SOL    HW1 6114   3.644   0.454   3.247
 2030SOL    HW2 6115   3.599   0.310   3.184
 2031SOL     OW 6116   2.117   1.348   2.152
 2031SOL    HW1 6117   2.021   1.349   2.125
 2031SOL    HW2 6118   2.129   1.401   2.236
 2032SOL     OW 6119   1.967   1.013   3.588
 2032SOL    HW1 6120   1.890   0.980   3.642
 2032SOL    HW2 6121   2.052   0.983   3.630
 2033SOL     OW 6122   2.534   0.203   3.351
 2033SOL    HW1 6123   2.624   0.187   3.311
 2033SOL    HW2 6124   2.542   0.208   3.450
 2034SOL     OW 6125   1.937   0.345   1.895
 2034SOL    HW1 6126   1.845   0.317   1.866
 2034SOL    HW2 6127   1.968   0.422   1.839
 2035SOL     OW 6128   3.302   0.856   3.260
 2035SOL    HW1 6129   3.245   0.908   3.197
 2035SOL    HW2 6130   3.398   0.868   3.236
 2036SOL     OW 6131   1.934   0.166   2.180
 2036SOL    HW1 6132   1.917   0.249   2.126
 2036SOL    HW2 6133   2.024   0.129   2.158
 2037SOL     OW 6134   3.045   1.335   1.981
 2037SOL    HW1 6135   2.946   1.324   1.983
 2037SOL    HW2 6136   3.079   1.350   2.074
 2038SOL     OW 6137   2.475   0.842   3.293
 2038SOL    HW1 6138   2.531   0.923   3.276
 2038SOL    HW2 6139   2.534   0.762   3.296
 2039SOL     OW 6140   3.355   1.767   2.821
 2039SOL    HW1 6141   3.388   1.831   2.752
 2039SOL    HW2 6142   3.421   1.761   2.896
 2040SOL     OW 6143   2.578   0.565   3.570
 2040SOL    HW1 6144   2.597   0.630   3.644
 2040SOL    HW2 6145   2.638   0.485   3.579
 2041SOL     OW 6146   3.312   1.220   3.495
 2041SOL    HW1 6147   3.303   1.210   3.594
 2041SOL    HW2 6148   3.408   1.213   3.469
 2042SOL     OW 6149   2.252   1.741   3.422
 2042SOL    HW1 6150   2.161   1.782   3.420
 2042SOL    HW2 6151   2.245   1.647   3.454
 2043SOL     OW 6152   3.536   0.883   3.116
 2043SOL    HW1 6153   3.509   0.794   3.079
 2043SOL    HW2 6154   3.537   0.951   3.043
 2044SOL     OW 6155   3.087   0.325   2.311
 2044SOL    HW1 6156   3.152   0.251   2.300
 2044SOL    HW2 6157   3.107   0.375   2.395
 2045SOL     OW 6158   2.456   0.745   2.514
 2045SOL    HW1 6159   2.506   0.830   2.495
 2045SOL    HW2 6160   2.368   0.747   2.466
 2046SOL     OW 6161   3.639   0.342   3.504
 2046SOL    HW1 6162   3.622   0.373   3.410
 2046SOL    HW2 6163   3.555   0.305   3.542
 2047SOL     OW 6164   3.592   0.934   3.379
 2047SOL    HW1 6165   3.630   1.025   3.394
 2047SOL    HW2 6166   3.584   0.917   3.280
 2048SOL     OW 6167   2.721   1.374   1.878
 2048SOL    HW1 6168   2.675   1.389   1.966
 2048SOL    HW2 6169   2.765   1.459   1.848
 2049SOL     OW 6170   2.523   1.790   2.815
 2049SOL    HW1 6171   2.477   1.878   2.802
 2049SOL    HW2 6172   2.622   1.802   2.808
 2050SOL     OW 6173   2.721   0.956   2.723
 2050SOL    HW1 6174   2.775   0.887   2.771
 2050SOL    HW2 6175   2.689   1.025   2.789
 2051SOL     OW 6176   2.945   0.984   1.949
 2051SOL    HW1 6177   2.922   1.037   1.867
 2051SOL    HW2 6178   3.026   0.928   1.930
 2052SOL     OW 6179   3.723   1.569   2.713
 2052SOL    HW1 6180   3.652   1.557   2.643
 2052SOL    HW2 6181   3.724   1.490   2.773
 2053SOL     OW 6182   2.083   1.314   3.706
 2053SOL    HW1 6183   2.018   1.241   3.685
 2053SOL    HW2 6184   2.087   1.328   3.804
 2054SOL     OW 6185   1.941   1.240   2.515
 2054SOL    HW1 6186   1.940   1.193   2.603
 2054SOL    HW2 6187   2.023   1.212   2.464
 2055SOL     OW 6188   2.534   1.391   3.486
 2055SOL    HW1 6189   2.456   1.341   3.524
 2055SOL    HW2 6190   2.531   1.486   3.517
 2056SOL     OW 6191   3.686   0.192   3.089
 2056SOL    HW1 6192   3.682   0.102   3.133
 2056SOL    HW2 6193   3.689   0.181   2.990
 2057SOL     OW 6194   2.290   0.424   2.382
 2057SOL    HW1 6195   2.320   0.352   2.320
 2057SOL    HW2 6196   2.251   0.384   2.465
 2058SOL     OW 6197   3.567   1.487   2.966
 2058SOL    HW1 6198   3.474   1.462   2.939
 2058SOL    HW2 6199   3.593   1.437   3.048
 2059SOL     OW 6200   2.179   0.547   3.142
 2059SOL    HW1 6201   2.217   0.488   3.214
 2059SOL    HW2 6202   2.219   0.521   3.054
 2060SOL     OW 6203   2.674   1.586   2.549
 2060SOL    HW1 6204   2.706   1.596   2.455
 2060SOL    HW2 6205   2.595   1.524   2.551
 2061SOL     OW 6206   3.286   0.214   2.974
 2061SOL    HW1 6207   3.338   0.149   3.029
 2061SOL    HW2 6208   3.237   0.277   3.035
 2062SOL     OW 6209   2.863   0.034   3.016
 2062SOL    HW1 6210   2.800  -0.038   2.985
 2062SOL    HW2 6211   2.956  -0.002   3.016
 2063SOL     OW 6212   2.632   1.330   2.163
 2063SOL    HW1 6213   2.586   1.243   2.180
 2063SOL    HW2 6214   2.723   1.327   2.204
 2064SOL     OW 6215   2.480   1.567   3.146
 2064SOL    HW1 6216   2.475   1.649   3.203
 2064SOL    HW2 6217   2.569   1.564   3.101
 2065SOL     OW 6218   3.214   0.052   2.030
 2065SOL    HW1 6219   3.249   0.011   1.946
 2065SOL    HW2 6220   3.124   0.014   2.050
 2066SOL     OW 6221   3.162   0.453   2.553
 2066SOL    HW1 6222   3.103   0.533   2.557
 2066SOL    HW2 6223   3.177   0.418   2.646
 2067SOL     OW 6224   3.455   0.221   2.744
 2067SOL    HW1 6225   3.371   0.220   2.798
 2067SOL    HW2 6226   3.457   0.304   2.688
 2068SOL     OW 6227   1.901   1.077   2.162
 2068SOL    HW1 6228   2.000   1.066   2.153
 2068SOL    HW2 6229   1.861   0.991   2.194
 2069SOL     OW 6230   2.737   1.646   2.199
 2069SOL    HW1 6231   2.660   1.611   2.145
 2069SOL    HW2 6232   2.705   1.717   2.261
 2070SOL     OW 6233   2.092   0.628   3.837
 2070SOL    HW1 6234   1.999   0.626   3.874
 2070SOL    HW2 6235   2.093   0.589   3.745
 2071SOL     OW 6236   2.087   0.275   4.720
 2071SOL    HW1 6237   2.122   0.258   4.812
 2071SOL    HW2 6238   1.999   0.230   4.708
 2072SOL     OW 6239   1.881   0.368   4.371
 2072SOL    HW1 6240   1.799   0.411   4.410
 2072SOL    HW2 6241   1.853   0.295   4.308
 2073SOL     OW 6242   2.431   1.275   4.889
 2073SOL    HW1 6243   2.338   1.268   4.852
 2073SOL    HW2 6244   2.442   1.364   4.933
 2074SOL     OW 6245   3.417   1.511   4.427
 2074SOL    HW1 6246   3.360   1.495   4.508
 2074SOL    HW2 6247   3.358   1.521   4.347
 2075SOL     OW 6248   2.997   0.703   4.441
 2075SOL    HW1 6249   3.054   0.781   4.416
 2075SOL    HW2 6250   2.937   0.729   4.517
 2076SOL     OW 6251   3.617   0.607   3.955
 2076SOL    HW1 6252   3.605   0.594   3.856
 2076SOL    HW2 6253   3.587   0.526   4.004
 2077SOL     OW 6254   2.630   1.144   4.747
 2077SOL    HW1 6255   2.552   1.161   4.807
 2077SOL    HW2 6256   2.664   1.231   4.711
 2078SOL     OW 6257   2.547   1.012   4.389
 2078SOL    HW1 6258   2.616   0.996   4.459
 2078SOL    HW2 6259   2.474   1.069   4.427
 2079SOL     OW 6260   2.197   1.435   4.785
 2079SOL    HW1 6261   2.119   1.404   4.732
 2079SOL    HW2 6262   2.255   1.493   4.728
 2080SOL     OW 6263   2.300   0.392   5.223
 2080SOL    HW1 6264   2.382   0.336   5.232
 2080SOL    HW2 6265   2.219   0.334   5.227
 2081SOL     OW 6266   3.465   0.447   4.461
 2081SOL    HW1 6267   3.391   0.493   4.411
 2081SOL    HW2 6268   3.516   0.515   4.514
 2082SOL     OW 6269   2.093   1.713   4.207
 2082SOL    HW1 6270   2.127   1.790   4.261
 2082SOL    HW2 6271   2.137   1.713   4.117
 2083SOL     OW 6272   2.092   1.434   4.262
 2083SOL    HW1 6273   2.066   1.530   4.262
 2083SOL    HW2 6274   2.021   1.380   4.307
 2084SOL     OW 6275   2.102   1.091   4.610
 2084SOL    HW1 6276   2.116   1.007   4.662
 2084SOL    HW2 6277   2.047   1.155   4.665
 2085SOL     OW 6278   2.482   1.786   5.163
 2085SOL    HW1 6279   2.390   1.769   5.198
 2085SOL    HW2 6280   2.510   1.878   5.189
 2086SOL     OW 6281   2.468   0.964   3.847
 2086SOL    HW1 6282   2.475   1.048   3.793
 2086SOL    HW2 6283   2.514   0.977   3.935
 2087SOL     OW 6284   1.984   0.643   4.287
 2087SOL    HW1 6285   1.939   0.555   4.304
 2087SOL    HW2 6286   1.983   0.697   4.371
 2088SOL     OW 6287   3.704   1.767   4.083
 2088SOL    HW1 6288   3.758   1.738   4.163
 2088SOL    HW2 6289   3.734   1.857   4.054
 2089SOL     OW 6290   1.889   1.596   3.841
 2089SOL    HW1 6291   1.870   1.500   3.862
 2089SOL    HW2 6292   1.856   1.654   3.916
 2090SOL     OW 6293   3.551   0.922   4.336
 2090SOL    HW1 6294   3.646   0.893   4.344
 2090SOL    HW2 6295   3.543   0.987   4.261
 2091SOL     OW 6296   3.503   1.108   4.156
 2091SOL    HW1 6297   3.589   1.110   4.104
 2091SOL    HW2 6298   3.517   1.155   4.244
 2092SOL     OW 6299   2.475   1.365   4.450
 2092SOL    HW1 6300   2.426   1.278   4.459
 2092SOL    HW2 6301   2.452   1.408   4.363
 2093SOL     OW 6302   2.671   0.004   4.226
 2093SOL    HW1 6303   2.711   0.095   4.217
 2093SOL    HW2 6304   2.571   0.012   4.232
 2094SOL     OW 6305   2.059   0.976   4.988
 2094SOL    HW1 6306   2.148   0.931   4.974
 2094SOL    HW2 6307   1.986   0.911   4.969
 2095SOL     OW 6308   3.387   0.999   3.914
 2095SOL    HW1 6309   3.324   0.923   3.927
 2095SOL    HW2 6310   3.435   1.017   4.000
 2096SOL     OW 6311   3.328   1.417   4.677
 2096SOL    HW1 6312   3.269   1.423   4.757
 2096SOL    HW2 6313   3.313   1.329   4.631
 2097SOL     OW 6314   3.529   1.714   4.296
 2097SOL    HW1 6315   3.488   1.691   4.208
 2097SOL    HW2 6316   3.511   1.640   4.361
 2098SOL     OW 6317   2.460   0.729   3.994
 2098SOL    HW1 6318   2.484   0.798   3.926
 2098SOL    HW2 6319   2.382   0.762   4.048
 2099SOL     OW 6320   3.143   0.345   4.668
 2099SOL    HW1 6321   3.057   0.295   4.655
 2099SOL    HW2 6322   3.205   0.291   4.724
 2100SOL     OW 6323   3.438   1.662   4.031
 2100SOL    HW1 6324   3.527   1.708   4.034
 2100SOL    HW2 6325   3.417   1.638   3.936
 2101SOL     OW 6326   2.669   0.605   5.189
 2101SOL    HW1 6327   2.622   0.602   5.278
 2101SOL    HW2 6328   2.618   0.550   5.123
 2102SOL     OW 6329   2.853   0.410   4.966
 2102SOL    HW1 6330   2.776   0.444   5.020
 2102SOL    HW2 6331   2.819   0.359   4.887
 2103SOL     OW 6332   2.903   0.701   4.153
 2103SOL    HW1 6333   2.929   0.697   4.249
 2103SOL    HW2 6334   2.818   0.650   4.139
 2104SOL     OW 6335   1.938   0.811   4.513
 2104SOL    HW1 6336   2.037   0.799   4.522
 2104SOL    HW2 6337   1.914   0.906   4.534
 2105SOL     OW 6338   1.992   1.821   5.295
 2105SOL    HW1 6339   1.982   1.806   5.394
 2105SOL    HW2 6340   1.906   1.857   5.259
 2106SOL     OW 6341   2.727   0.348   3.919
 2106SOL    HW1 6342   2.786   0.411   3.870
 2106SOL    HW2 6343   2.746   0.254   3.890
 2107SOL     OW 6344   3.224   1.144   4.269
 2107SOL    HW1 6345   3.307   1.115   4.221
 2107SOL    HW2 6346   3.175   1.211   4.213
 2108SOL     OW 6347   2.412   0.196   4.609
 2108SOL    HW1 6348   2.407   0.191   4.709
 2108SOL    HW2 6349   2.414   0.292   4.580
 2109SOL     OW 6350   2.870   1.456   4.201
 2109SOL    HW1 6351   2.824   1.528   4.149
 2109SOL    HW2 6352   2.866   1.476   4.299
 2110SOL     OW 6353   2.213   1.801   4.577
 2110SOL    HW1 6354   2.263   1.715   4.583
 2110SOL    HW2 6355   2.278   1.878   4.574
 2111SOL     OW 6356   3.657   1.066   4.597
 2111SOL    HW1 6357   3.595   1.051   4.521
 2111SOL    HW2 6358   3.605   1.077   4.682
 2112SOL     OW 6359   2.183   0.943   3.966
 2112SOL    HW1 6360   2.265   0.982   3.924
 2112SOL    HW2 6361   2.156   0.861   3.917
 2113SOL     OW 6362   3.320   0.735   4.452
 2113SOL    HW1 6363   3.315   0.670   4.527
 2113SOL    HW2 6364   3.400   0.794   4.465
 2114SOL     OW 6365   2.973   1.776   3.961
 2114SOL    HW1 6366   2.913   1.714   4.011
 2114SOL    HW2 6367   3.004   1.732   3.876
 2115SOL     OW 6368   3.494   1.377   3.805
 2115SOL    HW1 6369   3.462   1.471   3.795
 2115SOL    HW2 6370   3.418   1.314   3.793
 2116SOL     OW 6371   2.326   1.743   4.047
 2116SOL    HW1 6372   2.359   1.782   4.133
 2116SOL    HW2 6373   2.402   1.736   3.982
 2117SOL     OW 6374   3.262   0.107   4.150
 2117SOL    HW1 6375   3.238   0.070   4.060
 2117SOL    HW2 6376   3.361   0.123   4.154
 2118SOL     OW 6377   2.111   1.785   4.965
 2118SOL    HW1 6378   2.168   1.720   5.015
 2118SOL    HW2 6379   2.095   1.752   4.872
 2119SOL     OW 6380   2.802   1.698   4.628
 2119SOL    HW1 6381   2.882   1.641   4.649
 2119SOL    HW2 6382   2.753   1.658   4.551
 2120SOL     OW 6383   2.244   0.700   4.204
 2120SOL    HW1 6384   2.289   0.610   4.201
 2120SOL    HW2 6385   2.150   0.689   4.237
 2121SOL     OW 6386   2.476   0.122   3.841
 2121SOL    HW1 6387   2.574   0.100   3.848
 2121SOL    HW2 6388   2.445   0.105   3.748
 2122SOL     OW 6389   2.750   1.514   4.919
 2122SOL    HW1 6390   2.727   1.489   4.825
 2122SOL    HW2 6391   2.811   1.445   4.958
 2123SOL     OW 6392   2.665   1.402   4.648
 2123SOL    HW1 6393   2.755   1.416   4.606
 2123SOL    HW2 6394   2.594   1.404   4.577
 2124SOL     OW 6395   2.784   0.503   4.623
 2124SOL    HW1 6396   2.759   0.494   4.527
 2124SOL    HW2 6397   2.832   0.421   4.654
 2125SOL     OW 6398   2.401   0.064   4.236
 2125SOL    HW1 6399   2.320   0.065   4.294
 2125SOL    HW2 6400   2.404   0.147   4.181
 2126SOL     OW 6401   3.296   1.188   3.765
 2126SOL    HW1 6402   3.328   1.112   3.822
 2126SOL    HW2 6403   3.204   1.215   3.795
 2127SOL     OW 6404   2.159   0.035   3.895
 2127SOL    HW1 6405   2.208   0.119   3.874
 2127SOL    HW2 6406   2.221  -0.030   3.940
 2128SOL     OW 6407   2.797   0.236   4.204
 2128SOL    HW1 6408   2.749   0.277   4.126
 2128SOL    HW2 6409   2.896   0.234   4.185
 2129SOL     OW 6410   3.089   1.570   4.517
 2129SOL    HW1 6411   3.110   1.644   4.452
 2129SOL    HW2 6412   3.157   1.570   4.590
 2130SOL     OW 6413   2.321   1.152   4.465
 2130SOL    HW1 6414   2.250   1.125   4.530
 2130SOL    HW2 6415   2.295   1.124   4.372
 2131SOL     OW 6416   3.133   1.797   4.315
 2131SOL    HW1 6417   3.177   1.861   4.251
 2131SOL    HW2 6418   3.083   1.849   4.385
 2132SOL     OW 6419   2.894   0.549   3.740
 2132SOL    HW1 6420   2.853   0.631   3.701
 2132SOL    HW2 6421   2.958   0.575   3.813
 2133SOL     OW 6422   2.423   0.222   4.871
 2133SOL    HW1 6423   2.461   0.138   4.908
 2133SOL    HW2 6424   2.335   0.241   4.915
 2134SOL     OW 6425   2.728   0.454   4.366
 2134SOL    HW1 6426   2.696   0.526   4.304
 2134SOL    HW2 6427   2.752   0.373   4.313
 2135SOL     OW 6428   2.879   0.039   4.477
 2135SOL    HW1 6429   2.807   0.044   4.408
 2135SOL    HW2 6430   2.855  -0.030   4.546
 2136SOL     OW 6431   3.291   1.173   4.591
 2136SOL    HW1 6432   3.236   1.089   4.584
 2136SOL    HW2 6433   3.317   1.202   4.499
 2137SOL     OW 6434   3.328   0.590   4.716
 2137SOL    HW1 6435   3.298   0.495   4.723
 2137SOL    HW2 6436   3.401   0.606   4.782
 2138SOL     OW 6437   3.719   0.833   4.101
 2138SOL    HW1 6438   3.761   0.769   4.165
 2138SOL    HW2 6439   3.681   0.782   4.023
 2139SOL     OW 6440   2.350   1.385   3.898
 2139SOL    HW1 6441   2.263   1.370   3.945
 2139SOL    HW2 6442   2.333   1.411   3.803
 2140SOL     OW 6443   3.526   1.280   4.381
 2140SOL    HW1 6444   3.625   1.288   4.395
 2140SOL    HW2 6445   3.481   1.364   4.412
 2141SOL     OW 6446   3.252   0.575   3.802
 2141SOL    HW1 6447   3.198   0.554   3.883
 2141SOL    HW2 6448   3.343   0.534   3.811
 2142SOL     OW 6449   2.389   0.256   4.052
 2142SOL    HW1 6450   2.416   0.197   3.977
 2142SOL    HW2 6451   2.389   0.351   4.021
 2143SOL     OW 6452   3.616   1.223   5.312
 2143SOL    HW1 6453   3.707   1.184   5.299
 2143SOL    HW2 6454   3.624   1.319   5.336
 2144SOL     OW 6455   2.926   1.347   5.064
 2144SOL    HW1 6456   2.846   1.324   5.119
 2144SOL    HW2 6457   3.009   1.321   5.113
 2145SOL     OW 6458   2.973   1.195   4.824
 2145SOL    HW1 6459   2.933   1.239   4.905
 2145SOL    HW2 6460   2.932   1.232   4.741
 2146SOL     OW 6461   3.500   1.099   4.803
 2146SOL    HW1 6462   3.505   1.180   4.862
 2146SOL    HW2 6463   3.414   1.101   4.752
 2147SOL     OW 6464   2.567   1.050   4.092
 2147SOL    HW1 6465   2.553   1.057   4.191
 2147SOL    HW2 6466   2.651   0.999   4.074
 2148SOL     OW 6467   2.272   0.813   4.975
 2148SOL    HW1 6468   2.358   0.825   5.025
 2148SOL    HW2 6469   2.230   0.726   5.002
 2149SOL     OW 6470   3.136   0.386   4.986
 2149SOL    HW1 6471   3.157   0.460   5.050
 2149SOL    HW2 6472   3.047   0.403   4.943
 2150SOL     OW 6473   1.926   1.564   5.055
 2150SOL    HW1 6474   1.880   1.646   5.021
 2150SOL    HW2 6475   2.024   1.583   5.064
 2151SOL     OW 6476   2.229   1.100   4.225
 2151SOL    HW1 6477   2.222   1.183   4.169
 2151SOL    HW2 6478   2.233   1.020   4.165
 2152SOL     OW 6479   2.428   0.537   4.589
 2152SOL    HW1 6480   2.440   0.603   4.515
 2152SOL    HW2 6481   2.474   0.571   4.672
 2153SOL     OW 6482   3.114   1.348   4.112
 2153SOL    HW1 6483   3.164   1.425   4.152
 2153SOL    HW2 6484   3.019   1.350   4.144
 2154SOL     OW 6485   3.134   1.445   4.866
 2154SOL    HW1 6486   3.181   1.458   4.953
 2154SOL    HW2 6487   3.068   1.371   4.875
 2155SOL     OW 6488   3.444   0.639   4.196
 2155SOL    HW1 6489   3.413   0.700   4.269
 2155SOL    HW2 6490   3.494   0.691   4.127
 2156SOL     OW 6491   2.216   1.510   5.053
 2156SOL    HW1 6492   2.195   1.466   4.966
 2156SOL    HW2 6493   2.313   1.536   5.056
 2157SOL     OW 6494   2.435   0.870   4.753
 2157SOL    HW1 6495   2.479   0.959   4.744
 2157SOL    HW2 6496   2.372   0.870   4.830
 2158SOL     OW 6497   3.222   0.862   4.769
 2158SOL    HW1 6498   3.147   0.862   4.703
 2158SOL    HW2 6499   3.259   0.770   4.778
 2159SOL     OW 6500   3.071   0.525   3.999
 2159SOL    HW1 6501   3.084   0.441   4.053
 2159SOL    HW2 6502   3.042   0.599   4.059
 2160SOL     OW 6503   2.169   0.213   4.955
 2160SOL    HW1 6504   2.146   0.250   5.045
 2160SOL    HW2 6505   2.139   0.118   4.949
 2161SOL     OW 6506   1.899   1.310   5.006
 2161SOL    HW1 6507   1.952   1.261   5.074
 2161SOL    HW2 6508   1.921   1.408   5.011
 2162SOL     OW 6509   2.594   0.634   4.788
 2162SOL    HW1 6510   2.653   0.608   4.712
 2162SOL    HW2 6511   2.566   0.730   4.777
 2163SOL     OW 6512   2.169   0.063   4.342
 2163SOL    HW1 6513   2.158   0.157   4.375
 2163SOL    HW2 6514   2.164   0.000   4.419
 2164SOL     OW 6515   3.484   0.367   4.098
 2164SOL    HW1 6516   3.486   0.291   4.162
 2164SOL    HW2 6517   3.436   0.444   4.138
 2165SOL     OW 6518   2.885   0.766   4.690
 2165SOL    HW1 6519   2.900   0.787   4.786
 2165SOL    HW2 6520   2.855   0.671   4.681
 2166SOL     OW 6521   3.402   0.274   3.849
 2166SOL    HW1 6522   3.341   0.199   3.872
 2166SOL    HW2 6523   3.424   0.326   3.932
 2167SOL     OW 6524   3.165   0.838   3.766
 2167SOL    HW1 6525   3.199   0.745   3.781
 2167SOL    HW2 6526   3.183   0.865   3.671
 2168SOL     OW 6527   2.930   1.333   4.573
 2168SOL    HW1 6528   2.937   1.249   4.518
 2168SOL    HW2 6529   2.992   1.402   4.537
 2169SOL     OW 6530   2.181   0.810   4.673
 2169SOL    HW1 6531   2.274   0.846   4.678
 2169SOL    HW2 6532   2.175   0.725   4.725
 2170SOL     OW 6533   2.201   0.509   4.730
 2170SOL    HW1 6534   2.149   0.426   4.713
 2170SOL    HW2 6535   2.278   0.514   4.666
 2171SOL     OW 6536   3.022   0.207   5.201
 2171SOL    HW1 6537   3.022   0.271   5.278
 2171SOL    HW2 6538   3.050   0.255   5.118
 2172SOL     OW 6539   1.870   1.326   3.924
 2172SOL    HW1 6540   1.777   1.347   3.893
 2172SOL    HW2 6541   1.880   1.227   3.937
 2173SOL     OW 6542   1.950   1.801   4.651
 2173SOL    HW1 6543   1.908   1.715   4.624
 2173SOL    HW2 6544   2.044   1.804   4.617
 2174SOL     OW 6545   2.366   1.568   4.634
 2174SOL    HW1 6546   2.432   1.642   4.643
 2174SOL    HW2 6547   2.410   1.489   4.592
 2175SOL     OW 6548   2.864   0.796   4.962
 2175SOL    HW1 6549   2.905   0.764   5.048
 2175SOL    HW2 6550   2.768   0.769   4.959
 2176SOL     OW 6551   1.902   0.544   4.838
 2176SOL    HW1 6552   1.987   0.511   4.797
 2176SOL    HW2 6553   1.915   0.559   4.936
 2177SOL     OW 6554   2.677   0.572   4.049
 2177SOL    HW1 6555   2.684   0.483   4.003
 2177SOL    HW2 6556   2.583   0.606   4.041
 2178SOL     OW 6557   3.519   0.604   4.930
 2178SOL    HW1 6558   3.481   0.535   4.992
 2178SOL    HW2 6559   3.601   0.568   4.886
 2179SOL     OW 6560   2.533   0.464   4.993
 2179SOL    HW1 6561   2.499   0.375   4.963
 2179SOL    HW2 6562   2.559   0.518   4.913
 2180SOL     OW 6563   2.792   1.678   5.189
 2180SOL    HW1 6564   2.768   1.660   5.094
 2180SOL    HW2 6565   2.822   1.772   5.199
 2181SOL     OW 6566   2.335   0.500   3.915
 2181SOL    HW1 6567   2.396   0.580   3.919
 2181SOL    HW2 6568   2.240   0.531   3.922
 2182SOL     OW 6569   2.021   1.137   5.190
 2182SOL    HW1 6570   2.043   1.076   5.266
 2182SOL    HW2 6571   2.031   1.088   5.104
 2183SOL     OW 6572   3.209   1.059   4.958
 2183SOL    HW1 6573   3.233   0.996   4.884
 2183SOL    HW2 6574   3.119   1.099   4.940
 2184SOL     OW 6575   3.164   0.855   4.033
 2184SOL    HW1 6576   3.078   0.824   4.075
 2184SOL    HW2 6577   3.160   0.841   3.934
 2185SOL     OW 6578   3.621   1.747   4.878
 2185SOL    HW1 6579   3.682   1.777   4.805
 2185SOL    HW2 6580   3.583   1.658   4.856
 2186SOL     OW 6581   3.114   1.731   4.852
 2186SOL    HW1 6582   3.198   1.736   4.798
 2186SOL    HW2 6583   3.091   1.635   4.870
 2187SOL     OW 6584   1.945   1.258   4.746
 2187SOL    HW1 6585   1.940   1.257   4.846
 2187SOL    HW2 6586   1.862   1.217   4.708
 2188SOL     OW 6587   3.588   0.135   4.247
 2188SOL    HW1 6588   3.661   0.118   4.180
 2188SOL    HW2 6589   3.557   0.048   4.285
 2189SOL     OW 6590   3.250   1.573   4.201
 2189SOL    HW1 6591   3.317   1.585   4.127
 2189SOL    HW2 6592   3.210   1.662   4.224
 2190SOL     OW 6593   3.142   0.927   4.396
 2190SOL    HW1 6594   3.202   0.846   4.398
 2190SOL    HW2 6595   3.182   0.996   4.336
 2191SOL     OW 6596   2.534   1.616   3.878
 2191SOL    HW1 6597   2.543   1.626   3.779
 2191SOL    HW2 6598   2.494   1.527   3.899
 2192SOL     OW 6599   3.703   0.175   4.687
 2192SOL    HW1 6600   3.742   0.090   4.651
 2192SOL    HW2 6601   3.605   0.177   4.668
 2193SOL     OW 6602   2.125   0.326   4.444
 2193SOL    HW1 6603   2.046   0.377   4.410
 2193SOL    HW2 6604   2.116   0.311   4.542
 2194SOL     OW 6605   3.056   1.612   3.755
 2194SOL    HW1 6606   3.062   1.519   3.792
 2194SOL    HW2 6607   2.997   1.612   3.675
 2195SOL     OW 6608   2.684   1.002   5.096
 2195SOL    HW1 6609   2.724   1.001   5.004
 2195SOL    HW2 6610   2.694   1.094   5.136
 2196SOL     OW 6611   2.778   0.910   4.015
 2196SOL    HW1 6612   2.841   0.948   3.947
 2196SOL    HW2 6613   2.818   0.827   4.054
 2197SOL     OW 6614   3.366   1.607   3.768
 2197SOL    HW1 6615   3.274   1.644   3.775
 2197SOL    HW2 6616   3.404   1.627   3.678
 2198SOL     OW 6617   2.234   1.288   5.214
 2198SOL    HW1 6618   2.221   1.381   5.180
 2198SOL    HW2 6619   2.150   1.236   5.201
 2199SOL     OW 6620   3.476   1.292   5.013
 2199SOL    HW1 6621   3.536   1.295   5.093
 2199SOL    HW2 6622   3.401   1.356   5.026
 2200SOL     OW 6623   2.901   1.098   4.420
 2200SOL    HW1 6624   2.831   1.051   4.474
 2200SOL    HW2 6625   2.960   1.030   4.377
 2201SOL     OW 6626   2.876   0.236   4.695
 2201SOL    HW1 6627   2.868   0.200   4.602
 2201SOL    HW2 6628   2.874   0.160   4.760
 2202SOL     OW 6629   2.452   1.487   4.215
 2202SOL    HW1 6630   2.494   1.429   4.145
 2202SOL    HW2 6631   2.408   1.566   4.171
 2203SOL     OW 6632   3.571   0.385   5.105
 2203SOL    HW1 6633   3.644   0.454   5.109
 2203SOL    HW2 6634   3.599   0.310   5.046
 2204SOL     OW 6635   2.117   1.348   4.014
 2204SOL    HW1 6636   2.021   1.349   3.987
 2204SOL    HW2 6637   2.129   1.401   4.098
 2205SOL     OW 6638   1.937   0.345   3.757
 2205SOL    HW1 6639   1.845   0.317   3.728
 2205SOL    HW2 6640   1.968   0.422   3.701
 2206SOL     OW 6641   1.934   0.166   4.042
 2206SOL    HW1 6642   1.917   0.249   3.988
 2206SOL    HW2 6643   2.024   0.129   4.020
 2207SOL     OW 6644   3.045   1.335   3.843
 2207SOL    HW1 6645   2.946   1.324   3.845
 2207SOL    HW2 6646   3.079   1.350   3.936
 2208SOL     OW 6647   2.475   0.842   5.155
 2208SOL    HW1 6648   2.531   0.923   5.138
 2208SOL    HW2 6649   2.534   0.762   5.158
 2209SOL     OW 6650   3.355   1.767   4.683
 2209SOL    HW1 6651   3.388   1.831   4.614
 2209SOL    HW2 6652   3.421   1.761   4.758
 2210SOL     OW 6653   2.252   1.741   5.284
 2210SOL    HW1 6654   2.161   1.782   5.282
 2210SOL    HW2 6655   2.245   1.647   5.316
 2211SOL     OW 6656   3.536   0.883   4.978
 2211SOL    HW1 6657   3.509   0.794   4.941
 2211SOL    HW2 6658   3.537   0.951   4.905
 2212SOL     OW 6659   3.087   0.325   4.173
 2212SOL    HW1 6660   3.152   0.251   4.162
 2212SOL    HW2 6661   3.107   0.375   4.257
 2213SOL     OW 6662   2.456   0.745   4.376
 2213SOL    HW1 6663   2.506   0.830   4.357
 2213SOL    HW2 6664   2.368   0.747   4.328
 2214SOL     OW 6665   3.592   0.934   5.241
 2214SOL    HW1 6666   3.630   1.025   5.256
 2214SOL    HW2 6667   3.584   0.917   5.142
 2215SOL     OW 6668   2.721   1.374   3.740
 2215SOL    HW1 6669   2.675   1.389   3.828
 2215SOL    HW2 6670   2.765   1.459   3.710
 2216SOL     OW 6671   2.523   1.790   4.677
 2216SOL    HW1 6672   2.477   1.878   4.664
 2216SOL    HW2 6673   2.622   1.802   4.670
 2217SOL     OW 6674   2.721   0.956   4.585
 2217SOL    HW1 6675   2.775   0.887   4.633
 2217SOL    HW2 6676   2.689   1.025   4.651
 2218SOL     OW 6677   2.945   0.984   3.811
 2218SOL    HW1 6678   2.922   1.037   3.729
 2218SOL    HW2 6679   3.026   0.928   3.792
 2219SOL     OW 6680   3.723   1.569   4.575
 2219SOL    HW1 6681   3.652   1.557   4.505
 2219SOL    HW2 6682   3.724   1.490   4.635
 2220SOL     OW 6683   1.941   1.240   4.377
 2220SOL    HW1 6684   1.940   1.193   4.465
 2220SOL    HW2 6685   2.023   1.212   4.326
 2221SOL     OW 6686   3.686   0.192   4.951
 2221SOL    HW1 6687   3.682   0.102   4.995
 2221SOL    HW2 6688   3.689   0.181   4.852
 2222SOL     OW 6689   2.290   0.424   4.244
 2222SOL    HW1 6690   2.320   0.352   4.182
 2222SOL    HW2 6691   2.251   0.384   4.327
 2223SOL     OW 6692   3.567   1.487   4.828
 2223SOL    HW1 6693   3.474   1.462   4.801
 2223SOL    HW2 6694   3.593   1.437   4.910
 2224SOL     OW 6695   2.179   0.547   5.004
 2224SOL    HW1 6696   2.217   0.488   5.076
 2224SOL    HW2 6697   2.219   0.521   4.916
 2225SOL     OW 6698   2.674   1.586   4.411
 2225SOL    HW1 6699   2.706   1.596   4.317
 2225SOL    HW2 6700   2.595   1.524   4.413
 2226SOL     OW 6701   3.286   0.214   4.836
 2226SOL    HW1 6702   3.338   0.149   4.891
 2226SOL    HW2 6703   3.237   0.277   4.897
 2227SOL     OW 6704   2.863   0.034   4.878
 2227SOL    HW1 6705   2.800  -0.038   4.847
 2227SOL    HW2 6706   2.956  -0.002   4.878
 2228SOL     OW 6707   2.632   1.330   4.025
 2228SOL    HW1 6708   2.586   1.243   4.042
 2228SOL    HW2 6709   2.723   1.327   4.066
 2229SOL     OW 6710   2.480   1.567   5.008
 2229SOL    HW1 6711   2.475   1.649   5.065
 2229SOL    HW2 6712   2.569   1.564   4.963
 2230SOL     OW 6713   3.214   0.052   3.892
 2230SOL    HW1 6714   3.249   0.011   3.808
 2230SOL    HW2 6715   3.124   0.014   3.912
 2231SOL     OW 6716   3.162   0.453   4.415
 2231SOL    HW1 6717   3.103   0.533   4.419
 2231SOL    HW2 6718   3.177   0.418   4.508
 2232SOL     OW 6719   3.455   0.221   4.606
 2232SOL    HW1 6720   3.371   0.220   4.660
 2232SOL    HW2 6721   3.457   0.304   4.550
 2233SOL     OW 6722   1.901   1.077   4.024
 2233SOL    HW1 6723   2.000   1.066   4.015
 2233SOL    HW2 6724   1.861   0.991   4.056
 2234SOL     OW 6725   2.737   1.646   4.061
 2234SOL    HW1 6726   2.660   1.611   4.007
 2234SOL    HW2 6727   2.705   1.717   4.123
 2235SOL     OW 6728   2.092   2.490   0.113
 2235SOL    HW1 6729   1.999   2.488   0.150
 2235SOL    HW2 6730   2.093   2.451   0.021
 2236SOL     OW 6731   2.087   2.137   0.996
 2236SOL    HW1 6732   2.122   2.120   1.088
 2236SOL    HW2 6733   1.999   2.092   0.984
 2237SOL     OW 6734   1.881   2.230   0.647
 2237SOL    HW1 6735   1.799   2.273   0.686
 2237SOL    HW2 6736   1.853   2.157   0.584
 2238SOL     OW 6737   2.431   3.137   1.165
 2238SOL    HW1 6738   2.338   3.130   1.128
 2238SOL    HW2 6739   2.442   3.226   1.209
 2239SOL     OW 6740   3.417   3.373   0.703
 2239SOL    HW1 6741   3.360   3.357   0.784
 2239SOL    HW2 6742   3.358   3.383   0.623
 2240SOL     OW 6743   2.997   2.565   0.717
 2240SOL    HW1 6744   3.054   2.643   0.692
 2240SOL    HW2 6745   2.937   2.591   0.793
 2241SOL     OW 6746   3.617   2.469   0.231
 2241SOL    HW1 6747   3.605   2.456   0.132
 2241SOL    HW2 6748   3.587   2.388   0.280
 2242SOL     OW 6749   2.630   3.006   1.023
 2242SOL    HW1 6750   2.552   3.023   1.083
 2242SOL    HW2 6751   2.664   3.093   0.987
 2243SOL     OW 6752   2.712   2.660   1.823
 2243SOL    HW1 6753   2.708   2.736   1.888
 2243SOL    HW2 6754   2.734   2.696   1.732
 2244SOL     OW 6755   2.547   2.874   0.665
 2244SOL    HW1 6756   2.616   2.858   0.735
 2244SOL    HW2 6757   2.474   2.931   0.703
 2245SOL     OW 6758   2.548   3.023   1.803
 2245SOL    HW1 6759   2.608   3.102   1.817
 2245SOL    HW2 6760   2.462   3.054   1.762
 2246SOL     OW 6761   2.197   3.297   1.061
 2246SOL    HW1 6762   2.119   3.266   1.008
 2246SOL    HW2 6763   2.255   3.355   1.004
 2247SOL     OW 6764   3.322   3.367   1.339
 2247SOL    HW1 6765   3.346   3.461   1.365
 2247SOL    HW2 6766   3.306   3.313   1.421
 2248SOL     OW 6767   2.300   2.254   1.499
 2248SOL    HW1 6768   2.382   2.198   1.508
 2248SOL    HW2 6769   2.219   2.196   1.503
 2249SOL     OW 6770   3.465   2.309   0.737
 2249SOL    HW1 6771   3.391   2.355   0.687
 2249SOL    HW2 6772   3.516   2.377   0.790
 2250SOL     OW 6773   2.093   3.575   0.483
 2250SOL    HW1 6774   2.127   3.652   0.537
 2250SOL    HW2 6775   2.137   3.575   0.393
 2251SOL     OW 6776   2.989   3.203   1.690
 2251SOL    HW1 6777   3.036   3.203   1.778
 2251SOL    HW2 6778   2.941   3.116   1.679
 2252SOL     OW 6779   2.092   3.296   0.538
 2252SOL    HW1 6780   2.066   3.392   0.538
 2252SOL    HW2 6781   2.021   3.242   0.583
 2253SOL     OW 6782   2.102   2.953   0.886
 2253SOL    HW1 6783   2.116   2.869   0.938
 2253SOL    HW2 6784   2.047   3.017   0.941
 2254SOL     OW 6785   2.482   3.648   1.439
 2254SOL    HW1 6786   2.390   3.631   1.474
 2254SOL    HW2 6787   2.510   3.740   1.465
 2255SOL     OW 6788   2.468   2.826   0.123
 2255SOL    HW1 6789   2.475   2.910   0.069
 2255SOL    HW2 6790   2.514   2.839   0.211
 2256SOL     OW 6791   3.456   1.976   1.480
 2256SOL    HW1 6792   3.438   2.043   1.408
 2256SOL    HW2 6793   3.453   2.022   1.569
 2257SOL     OW 6794   1.984   2.505   0.563
 2257SOL    HW1 6795   1.939   2.417   0.580
 2257SOL    HW2 6796   1.983   2.559   0.647
 2258SOL     OW 6797   3.704   3.629   0.359
 2258SOL    HW1 6798   3.758   3.600   0.439
 2258SOL    HW2 6799   3.734   3.719   0.330
 2259SOL     OW 6800   1.889   3.458   0.117
 2259SOL    HW1 6801   1.870   3.362   0.138
 2259SOL    HW2 6802   1.856   3.516   0.192
 2260SOL     OW 6803   3.551   2.784   0.612
 2260SOL    HW1 6804   3.646   2.755   0.620
 2260SOL    HW2 6805   3.543   2.849   0.537
 2261SOL     OW 6806   3.503   2.970   0.432
 2261SOL    HW1 6807   3.589   2.972   0.380
 2261SOL    HW2 6808   3.517   3.017   0.520
 2262SOL     OW 6809   1.975   2.599   1.597
 2262SOL    HW1 6810   2.063   2.586   1.642
 2262SOL    HW2 6811   1.962   2.696   1.575
 2263SOL     OW 6812   2.475   3.227   0.726
 2263SOL    HW1 6813   2.426   3.140   0.735
 2263SOL    HW2 6814   2.452   3.270   0.639
 2264SOL     OW 6815   3.155   3.090   1.423
 2264SOL    HW1 6816   3.192   3.017   1.365
 2264SOL    HW2 6817   3.207   3.095   1.508
 2265SOL     OW 6818   2.671   1.866   0.502
 2265SOL    HW1 6819   2.711   1.957   0.493
 2265SOL    HW2 6820   2.571   1.874   0.508
 2266SOL     OW 6821   2.059   2.838   1.264
 2266SOL    HW1 6822   2.148   2.793   1.250
 2266SOL    HW2 6823   1.986   2.773   1.245
 2267SOL     OW 6824   3.387   2.861   0.190
 2267SOL    HW1 6825   3.324   2.785   0.203
 2267SOL    HW2 6826   3.435   2.879   0.276
 2268SOL     OW 6827   3.049   3.654   1.616
 2268SOL    HW1 6828   3.073   3.714   1.540
 2268SOL    HW2 6829   3.056   3.559   1.586
 2269SOL     OW 6830   2.179   2.113   1.801
 2269SOL    HW1 6831   2.250   2.184   1.807
 2269SOL    HW2 6832   2.091   2.152   1.829
 2270SOL     OW 6833   3.328   3.279   0.953
 2270SOL    HW1 6834   3.269   3.285   1.033
 2270SOL    HW2 6835   3.313   3.191   0.907
 2271SOL     OW 6836   3.529   3.576   0.572
 2271SOL    HW1 6837   3.488   3.553   0.484
 2271SOL    HW2 6838   3.511   3.502   0.637
 2272SOL     OW 6839   2.460   2.591   0.270
 2272SOL    HW1 6840   2.484   2.660   0.202
 2272SOL    HW2 6841   2.382   2.624   0.324
 2273SOL     OW 6842   3.143   2.207   0.944
 2273SOL    HW1 6843   3.057   2.157   0.931
 2273SOL    HW2 6844   3.205   2.153   1.000
 2274SOL     OW 6845   3.438   3.524   0.307
 2274SOL    HW1 6846   3.527   3.570   0.310
 2274SOL    HW2 6847   3.417   3.500   0.212
 2275SOL     OW 6848   2.669   2.467   1.465
 2275SOL    HW1 6849   2.622   2.464   1.554
 2275SOL    HW2 6850   2.618   2.412   1.399
 2276SOL     OW 6851   3.256   2.331   1.674
 2276SOL    HW1 6852   3.236   2.374   1.762
 2276SOL    HW2 6853   3.334   2.269   1.683
 2277SOL     OW 6854   2.835   2.752   1.572
 2277SOL    HW1 6855   2.881   2.668   1.543
 2277SOL    HW2 6856   2.779   2.786   1.497
 2278SOL     OW 6857   2.853   2.272   1.242
 2278SOL    HW1 6858   2.776   2.306   1.296
 2278SOL    HW2 6859   2.819   2.221   1.163
 2279SOL     OW 6860   2.903   2.563   0.429
 2279SOL    HW1 6861   2.929   2.559   0.525
 2279SOL    HW2 6862   2.818   2.512   0.415
 2280SOL     OW 6863   1.938   2.673   0.789
 2280SOL    HW1 6864   2.037   2.661   0.798
 2280SOL    HW2 6865   1.914   2.768   0.810
 2281SOL     OW 6866   1.992   3.683   1.571
 2281SOL    HW1 6867   1.982   3.668   1.670
 2281SOL    HW2 6868   1.906   3.719   1.535
 2282SOL     OW 6869   2.727   2.210   0.195
 2282SOL    HW1 6870   2.786   2.273   0.146
 2282SOL    HW2 6871   2.746   2.116   0.166
 2283SOL     OW 6872   3.581   2.447   1.831
 2283SOL    HW1 6873   3.555   2.536   1.795
 2283SOL    HW2 6874   3.579   2.379   1.758
 2284SOL     OW 6875   3.224   3.006   0.545
 2284SOL    HW1 6876   3.307   2.977   0.497
 2284SOL    HW2 6877   3.175   3.073   0.489
 2285SOL     OW 6878   2.412   2.058   0.885
 2285SOL    HW1 6879   2.407   2.053   0.985
 2285SOL    HW2 6880   2.414   2.154   0.856
 2286SOL     OW 6881   2.870   3.318   0.477
 2286SOL    HW1 6882   2.824   3.390   0.425
 2286SOL    HW2 6883   2.866   3.338   0.575
 2287SOL     OW 6884   2.213   3.663   0.853
 2287SOL    HW1 6885   2.263   3.577   0.859
 2287SOL    HW2 6886   2.278   3.740   0.850
 2288SOL     OW 6887   3.657   2.928   0.873
 2288SOL    HW1 6888   3.595   2.913   0.797
 2288SOL    HW2 6889   3.605   2.939   0.958
 2289SOL     OW 6890   3.089   3.412   1.506
 2289SOL    HW1 6891   3.095   3.335   1.570
 2289SOL    HW2 6892   3.037   3.386   1.426
 2290SOL     OW 6893   2.183   2.805   0.242
 2290SOL    HW1 6894   2.265   2.844   0.200
 2290SOL    HW2 6895   2.156   2.723   0.193
 2291SOL     OW 6896   3.320   2.597   0.728
 2291SOL    HW1 6897   3.315   2.532   0.803
 2291SOL    HW2 6898   3.400   2.656   0.741
 2292SOL     OW 6899   2.323   3.128   1.727
 2292SOL    HW1 6900   2.273   3.129   1.641
 2292SOL    HW2 6901   2.260   3.110   1.803
 2293SOL     OW 6902   2.973   3.638   0.237
 2293SOL    HW1 6903   2.913   3.576   0.287
 2293SOL    HW2 6904   3.004   3.594   0.152
 2294SOL     OW 6905   2.064   2.147   1.498
 2294SOL    HW1 6906   1.984   2.207   1.485
 2294SOL    HW2 6907   2.054   2.098   1.584
 2295SOL     OW 6908   3.494   3.239   0.081
 2295SOL    HW1 6909   3.462   3.333   0.071
 2295SOL    HW2 6910   3.418   3.176   0.069
 2296SOL     OW 6911   2.326   3.605   0.323
 2296SOL    HW1 6912   2.359   3.644   0.409
 2296SOL    HW2 6913   2.402   3.598   0.258
 2297SOL     OW 6914   3.262   1.969   0.426
 2297SOL    HW1 6915   3.238   1.932   0.336
 2297SOL    HW2 6916   3.361   1.985   0.430
 2298SOL     OW 6917   2.111   3.647   1.241
 2298SOL    HW1 6918   2.168   3.582   1.291
 2298SOL    HW2 6919   2.095   3.614   1.148
 2299SOL     OW 6920   2.802   3.560   0.904
 2299SOL    HW1 6921   2.882   3.503   0.925
 2299SOL    HW2 6922   2.753   3.520   0.827
 2300SOL     OW 6923   2.244   2.562   0.480
 2300SOL    HW1 6924   2.289   2.472   0.477
 2300SOL    HW2 6925   2.150   2.551   0.513
 2301SOL     OW 6926   3.409   2.084   1.729
 2301SOL    HW1 6927   3.404   2.121   1.821
 2301SOL    HW2 6928   3.337   2.015   1.717
 2302SOL     OW 6929   2.643   2.126   1.749
 2302SOL    HW1 6930   2.710   2.065   1.792
 2302SOL    HW2 6931   2.570   2.145   1.814
 2303SOL     OW 6932   2.750   3.376   1.195
 2303SOL    HW1 6933   2.727   3.351   1.101
 2303SOL    HW2 6934   2.811   3.307   1.234
 2304SOL     OW 6935   3.213   2.452   1.433
 2304SOL    HW1 6936   3.241   2.409   1.518
 2304SOL    HW2 6937   3.238   2.548   1.434
 2305SOL     OW 6938   2.665   3.264   0.924
 2305SOL    HW1 6939   2.755   3.278   0.882
 2305SOL    HW2 6940   2.594   3.266   0.853
 2306SOL     OW 6941   2.784   2.365   0.899
 2306SOL    HW1 6942   2.759   2.356   0.803
 2306SOL    HW2 6943   2.832   2.283   0.930
 2307SOL     OW 6944   2.401   1.926   0.512
 2307SOL    HW1 6945   2.320   1.927   0.570
 2307SOL    HW2 6946   2.404   2.009   0.457
 2308SOL     OW 6947   3.296   3.050   0.041
 2308SOL    HW1 6948   3.328   2.974   0.098
 2308SOL    HW2 6949   3.204   3.077   0.071
 2309SOL     OW 6950   2.797   2.098   0.480
 2309SOL    HW1 6951   2.749   2.139   0.402
 2309SOL    HW2 6952   2.896   2.096   0.461
 2310SOL     OW 6953   2.938   2.545   1.464
 2310SOL    HW1 6954   2.858   2.484   1.467
 2310SOL    HW2 6955   3.019   2.492   1.440
 2311SOL     OW 6956   3.089   3.432   0.793
 2311SOL    HW1 6957   3.110   3.506   0.728
 2311SOL    HW2 6958   3.157   3.432   0.866
 2312SOL     OW 6959   2.321   3.014   0.741
 2312SOL    HW1 6960   2.250   2.987   0.806
 2312SOL    HW2 6961   2.295   2.986   0.648
 2313SOL     OW 6962   3.133   3.659   0.591
 2313SOL    HW1 6963   3.177   3.723   0.527
 2313SOL    HW2 6964   3.083   3.711   0.661
 2314SOL     OW 6965   2.894   2.411   0.016
 2314SOL    HW1 6966   2.853   2.493  -0.023
 2314SOL    HW2 6967   2.958   2.437   0.089
 2315SOL     OW 6968   1.940   2.418   1.386
 2315SOL    HW1 6969   2.032   2.417   1.345
 2315SOL    HW2 6970   1.934   2.492   1.453
 2316SOL     OW 6971   2.423   2.084   1.147
 2316SOL    HW1 6972   2.461   2.000   1.184
 2316SOL    HW2 6973   2.335   2.103   1.191
 2317SOL     OW 6974   2.728   2.316   0.642
 2317SOL    HW1 6975   2.696   2.388   0.580
 2317SOL    HW2 6976   2.752   2.235   0.589
 2318SOL     OW 6977   2.879   1.901   0.753
 2318SOL    HW1 6978   2.807   1.906   0.684
 2318SOL    HW2 6979   2.855   1.832   0.822
 2319SOL     OW 6980   3.291   3.035   0.867
 2319SOL    HW1 6981   3.236   2.951   0.860
 2319SOL    HW2 6982   3.317   3.064   0.775
 2320SOL     OW 6983   3.328   2.452   0.992
 2320SOL    HW1 6984   3.298   2.357   0.999
 2320SOL    HW2 6985   3.401   2.468   1.058
 2321SOL     OW 6986   3.719   2.695   0.377
 2321SOL    HW1 6987   3.761   2.631   0.441
 2321SOL    HW2 6988   3.681   2.644   0.299
 2322SOL     OW 6989   2.350   3.247   0.174
 2322SOL    HW1 6990   2.263   3.232   0.221
 2322SOL    HW2 6991   2.333   3.273   0.079
 2323SOL     OW 6992   3.526   3.142   0.657
 2323SOL    HW1 6993   3.625   3.150   0.671
 2323SOL    HW2 6994   3.481   3.226   0.688
 2324SOL     OW 6995   3.252   2.437   0.078
 2324SOL    HW1 6996   3.198   2.416   0.159
 2324SOL    HW2 6997   3.343   2.396   0.087
 2325SOL     OW 6998   2.389   2.118   0.328
 2325SOL    HW1 6999   2.416   2.059   0.253
 2325SOL    HW2 7000   2.389   2.213   0.297
 2326SOL     OW 7001   3.616   3.085   1.588
 2326SOL    HW1 7002   3.707   3.046   1.575
 2326SOL    HW2 7003   3.624   3.181   1.612
 2327SOL     OW 7004   2.926   3.209   1.340
 2327SOL    HW1 7005   2.846   3.186   1.395
 2327SOL    HW2 7006   3.009   3.183   1.389
 2328SOL     OW 7007   3.454   3.491   1.625
 2328SOL    HW1 7008   3.481   3.525   1.535
 2328SOL    HW2 7009   3.533   3.453   1.671
 2329SOL     OW 7010   2.973   3.057   1.100
 2329SOL    HW1 7011   2.933   3.101   1.181
 2329SOL    HW2 7012   2.932   3.094   1.017
 2330SOL     OW 7013   3.500   2.961   1.079
 2330SOL    HW1 7014   3.505   3.042   1.138
 2330SOL    HW2 7015   3.414   2.963   1.028
 2331SOL     OW 7016   2.777   1.951   1.402
 2331SOL    HW1 7017   2.802   1.931   1.307
 2331SOL    HW2 7018   2.849   2.007   1.444
 2332SOL     OW 7019   2.842   2.978   1.719
 2332SOL    HW1 7020   2.743   2.984   1.729
 2332SOL    HW2 7021   2.865   2.898   1.663
 2333SOL     OW 7022   2.567   2.912   0.368
 2333SOL    HW1 7023   2.553   2.919   0.467
 2333SOL    HW2 7024   2.651   2.861   0.350
 2334SOL     OW 7025   2.272   2.675   1.251
 2334SOL    HW1 7026   2.358   2.687   1.301
 2334SOL    HW2 7027   2.230   2.588   1.278
 2335SOL     OW 7028   3.136   2.248   1.262
 2335SOL    HW1 7029   3.157   2.322   1.326
 2335SOL    HW2 7030   3.047   2.265   1.219
 2336SOL     OW 7031   1.926   3.426   1.331
 2336SOL    HW1 7032   1.880   3.508   1.297
 2336SOL    HW2 7033   2.024   3.445   1.340
 2337SOL     OW 7034   2.229   2.962   0.501
 2337SOL    HW1 7035   2.222   3.045   0.445
 2337SOL    HW2 7036   2.233   2.882   0.441
 2338SOL     OW 7037   2.428   2.399   0.865
 2338SOL    HW1 7038   2.440   2.465   0.791
 2338SOL    HW2 7039   2.474   2.433   0.948
 2339SOL     OW 7040   3.114   3.210   0.388
 2339SOL    HW1 7041   3.164   3.287   0.428
 2339SOL    HW2 7042   3.019   3.212   0.420
 2340SOL     OW 7043   3.134   3.307   1.142
 2340SOL    HW1 7044   3.181   3.320   1.229
 2340SOL    HW2 7045   3.068   3.233   1.151
 2341SOL     OW 7046   3.444   2.501   0.472
 2341SOL    HW1 7047   3.413   2.562   0.545
 2341SOL    HW2 7048   3.494   2.553   0.403
 2342SOL     OW 7049   2.216   3.372   1.329
 2342SOL    HW1 7050   2.195   3.328   1.242
 2342SOL    HW2 7051   2.313   3.398   1.332
 2343SOL     OW 7052   2.264   2.613   1.598
 2343SOL    HW1 7053   2.332   2.668   1.551
 2343SOL    HW2 7054   2.304   2.525   1.625
 2344SOL     OW 7055   3.449   2.641   1.670
 2344SOL    HW1 7056   3.357   2.679   1.665
 2344SOL    HW2 7057   3.509   2.688   1.605
 2345SOL     OW 7058   2.875   1.967   1.770
 2345SOL    HW1 7059   2.881   2.052   1.718
 2345SOL    HW2 7060   2.907   1.891   1.713
 2346SOL     OW 7061   2.366   1.912   1.740
 2346SOL    HW1 7062   2.324   1.855   1.670
 2346SOL    HW2 7063   2.300   1.981   1.772
 2347SOL     OW 7064   2.435   2.732   1.029
 2347SOL    HW1 7065   2.479   2.821   1.020
 2347SOL    HW2 7066   2.372   2.732   1.106
 2348SOL     OW 7067   3.222   2.724   1.045
 2348SOL    HW1 7068   3.147   2.724   0.979
 2348SOL    HW2 7069   3.259   2.632   1.054
 2349SOL     OW 7070   3.071   2.387   0.275
 2349SOL    HW1 7071   3.084   2.303   0.329
 2349SOL    HW2 7072   3.042   2.461   0.335
 2350SOL     OW 7073   2.169   2.075   1.231
 2350SOL    HW1 7074   2.146   2.112   1.321
 2350SOL    HW2 7075   2.139   1.980   1.225
 2351SOL     OW 7076   1.899   3.172   1.282
 2351SOL    HW1 7077   1.952   3.123   1.350
 2351SOL    HW2 7078   1.921   3.270   1.287
 2352SOL     OW 7079   2.594   2.496   1.064
 2352SOL    HW1 7080   2.653   2.470   0.988
 2352SOL    HW2 7081   2.566   2.592   1.053
 2353SOL     OW 7082   3.590   2.797   1.854
 2353SOL    HW1 7083   3.544   2.790   1.765
 2353SOL    HW2 7084   3.528   2.841   1.920
 2354SOL     OW 7085   2.169   1.925   0.618
 2354SOL    HW1 7086   2.158   2.019   0.651
 2354SOL    HW2 7087   2.164   1.862   0.695
 2355SOL     OW 7088   3.484   2.229   0.374
 2355SOL    HW1 7089   3.486   2.153   0.438
 2355SOL    HW2 7090   3.436   2.306   0.414
 2356SOL     OW 7091   2.885   2.628   0.966
 2356SOL    HW1 7092   2.900   2.649   1.062
 2356SOL    HW2 7093   2.855   2.533   0.957
 2357SOL     OW 7094   2.842   3.435   1.700
 2357SOL    HW1 7095   2.822   3.479   1.612
 2357SOL    HW2 7096   2.881   3.344   1.684
 2358SOL     OW 7097   3.721   3.380   1.605
 2358SOL    HW1 7098   3.735   3.407   1.510
 2358SOL    HW2 7099   3.804   3.402   1.658
 2359SOL     OW 7100   2.212   2.760   1.804
 2359SOL    HW1 7101   2.288   2.804   1.852
 2359SOL    HW2 7102   2.247   2.713   1.722
 2360SOL     OW 7103   3.402   2.136   0.125
 2360SOL    HW1 7104   3.341   2.061   0.148
 2360SOL    HW2 7105   3.424   2.188   0.208
 2361SOL     OW 7106   3.165   2.700   0.042
 2361SOL    HW1 7107   3.199   2.607   0.057
 2361SOL    HW2 7108   3.183   2.727  -0.053
 2362SOL     OW 7109   2.930   3.195   0.849
 2362SOL    HW1 7110   2.937   3.111   0.794
 2362SOL    HW2 7111   2.992   3.264   0.813
 2363SOL     OW 7112   2.181   2.672   0.949
 2363SOL    HW1 7113   2.274   2.708   0.954
 2363SOL    HW2 7114   2.175   2.587   1.001
 2364SOL     OW 7115   2.201   2.371   1.006
 2364SOL    HW1 7116   2.149   2.288   0.989
 2364SOL    HW2 7117   2.278   2.376   0.942
 2365SOL     OW 7118   3.000   2.242   1.678
 2365SOL    HW1 7119   2.955   2.305   1.742
 2365SOL    HW2 7120   3.093   2.273   1.661
 2366SOL     OW 7121   3.022   2.069   1.477
 2366SOL    HW1 7122   3.022   2.133   1.554
 2366SOL    HW2 7123   3.050   2.117   1.394
 2367SOL     OW 7124   1.950   3.663   0.927
 2367SOL    HW1 7125   1.908   3.577   0.900
 2367SOL    HW2 7126   2.044   3.666   0.893
 2368SOL     OW 7127   2.366   3.430   0.910
 2368SOL    HW1 7128   2.432   3.504   0.919
 2368SOL    HW2 7129   2.410   3.351   0.868
 2369SOL     OW 7130   2.864   2.658   1.238
 2369SOL    HW1 7131   2.905   2.626   1.324
 2369SOL    HW2 7132   2.768   2.631   1.235
 2370SOL     OW 7133   1.902   2.406   1.114
 2370SOL    HW1 7134   1.987   2.373   1.073
 2370SOL    HW2 7135   1.915   2.421   1.212
 2371SOL     OW 7136   2.051   2.382   1.722
 2371SOL    HW1 7137   2.110   2.342   1.652
 2371SOL    HW2 7138   1.993   2.453   1.681
 2372SOL     OW 7139   3.231   2.812   1.660
 2372SOL    HW1 7140   3.270   2.901   1.680
 2372SOL    HW2 7141   3.241   2.792   1.563
 2373SOL     OW 7142   2.677   2.434   0.325
 2373SOL    HW1 7143   2.684   2.345   0.279
 2373SOL    HW2 7144   2.583   2.468   0.317
 2374SOL     OW 7145   3.519   2.466   1.206
 2374SOL    HW1 7146   3.481   2.397   1.268
 2374SOL    HW2 7147   3.601   2.430   1.162
 2375SOL     OW 7148   2.114   3.426   1.744
 2375SOL    HW1 7149   2.084   3.483   1.820
 2375SOL    HW2 7150   2.107   3.329   1.770
 2376SOL     OW 7151   2.533   2.326   1.269
 2376SOL    HW1 7152   2.499   2.237   1.239
 2376SOL    HW2 7153   2.559   2.380   1.189
 2377SOL     OW 7154   2.792   3.540   1.465
 2377SOL    HW1 7155   2.768   3.522   1.370
 2377SOL    HW2 7156   2.822   3.634   1.475
 2378SOL     OW 7157   2.335   2.362   0.191
 2378SOL    HW1 7158   2.396   2.442   0.195
 2378SOL    HW2 7159   2.240   2.393   0.198
 2379SOL     OW 7160   2.021   2.999   1.466
 2379SOL    HW1 7161   2.043   2.938   1.542
 2379SOL    HW2 7162   2.031   2.950   1.380
 2380SOL     OW 7163   3.209   2.921   1.234
 2380SOL    HW1 7164   3.233   2.858   1.160
 2380SOL    HW2 7165   3.119   2.961   1.216
 2381SOL     OW 7166   3.164   2.717   0.309
 2381SOL    HW1 7167   3.078   2.686   0.351
 2381SOL    HW2 7168   3.160   2.703   0.210
 2382SOL     OW 7169   3.621   3.609   1.154
 2382SOL    HW1 7170   3.682   3.639   1.081
 2382SOL    HW2 7171   3.583   3.520   1.132
 2383SOL     OW 7172   3.114   3.593   1.128
 2383SOL    HW1 7173   3.198   3.598   1.074
 2383SOL    HW2 7174   3.091   3.497   1.146
 2384SOL     OW 7175   1.945   3.120   1.022
 2384SOL    HW1 7176   1.940   3.119   1.122
 2384SOL    HW2 7177   1.862   3.079   0.984
 2385SOL     OW 7178   2.550   3.524   1.716
 2385SOL    HW1 7179   2.494   3.605   1.725
 2385SOL    HW2 7180   2.602   3.528   1.630
 2386SOL     OW 7181   2.765   1.948   0.133
 2386SOL    HW1 7182   2.816   1.949   0.047
 2386SOL    HW2 7183   2.821   1.906   0.204
 2387SOL     OW 7184   3.588   1.997   0.523
 2387SOL    HW1 7185   3.661   1.980   0.456
 2387SOL    HW2 7186   3.557   1.910   0.561
 2388SOL     OW 7187   3.250   3.435   0.477
 2388SOL    HW1 7188   3.317   3.447   0.403
 2388SOL    HW2 7189   3.210   3.524   0.500
 2389SOL     OW 7190   1.992   3.656   1.851
 2389SOL    HW1 7191   1.951   3.582   1.904
 2389SOL    HW2 7192   2.056   3.707   1.909
 2390SOL     OW 7193   3.142   2.789   0.672
 2390SOL    HW1 7194   3.202   2.708   0.674
 2390SOL    HW2 7195   3.182   2.858   0.612
 2391SOL     OW 7196   2.692   3.135   1.422
 2391SOL    HW1 7197   2.687   3.168   1.517
 2391SOL    HW2 7198   2.606   3.154   1.376
 2392SOL     OW 7199   2.534   3.478   0.154
 2392SOL    HW1 7200   2.543   3.488   0.055
 2392SOL    HW2 7201   2.494   3.389   0.175
 2393SOL     OW 7202   3.512   3.582   1.394
 2393SOL    HW1 7203   3.565   3.592   1.310
 2393SOL    HW2 7204   3.485   3.672   1.428
 2394SOL     OW 7205   3.703   2.037   0.963
 2394SOL    HW1 7206   3.742   1.952   0.927
 2394SOL    HW2 7207   3.605   2.039   0.944
 2395SOL     OW 7208   2.125   2.188   0.720
 2395SOL    HW1 7209   2.046   2.239   0.686
 2395SOL    HW2 7210   2.116   2.173   0.818
 2396SOL     OW 7211   3.056   3.474   0.031
 2396SOL    HW1 7212   3.062   3.381   0.068
 2396SOL    HW2 7213   2.997   3.474  -0.049
 2397SOL     OW 7214   2.684   2.864   1.372
 2397SOL    HW1 7215   2.724   2.863   1.280
 2397SOL    HW2 7216   2.694   2.956   1.412
 2398SOL     OW 7217   2.778   2.772   0.291
 2398SOL    HW1 7218   2.841   2.810   0.223
 2398SOL    HW2 7219   2.818   2.689   0.330
 2399SOL     OW 7220   3.366   3.469   0.044
 2399SOL    HW1 7221   3.274   3.506   0.051
 2399SOL    HW2 7222   3.404   3.489  -0.046
 2400SOL     OW 7223   2.234   3.150   1.490
 2400SOL    HW1 7224   2.221   3.243   1.456
 2400SOL    HW2 7225   2.150   3.098   1.477
 2401SOL     OW 7226   3.476   3.154   1.289
 2401SOL    HW1 7227   3.536   3.157   1.369
 2401SOL    HW2 7228   3.401   3.218   1.302
 2402SOL     OW 7229   2.901   2.960   0.696
 2402SOL    HW1 7230   2.831   2.913   0.750
 2402SOL    HW2 7231   2.960   2.892   0.653
 2403SOL     OW 7232   2.876   2.098   0.971
 2403SOL    HW1 7233   2.868   2.062   0.878
 2403SOL    HW2 7234   2.874   2.022   1.036
 2404SOL     OW 7235   2.452   3.349   0.491
 2404SOL    HW1 7236   2.494   3.291   0.421
 2404SOL    HW2 7237   2.408   3.428   0.447
 2405SOL     OW 7238   3.571   2.247   1.381
 2405SOL    HW1 7239   3.644   2.316   1.385
 2405SOL    HW2 7240   3.599   2.172   1.322
 2406SOL     OW 7241   2.117   3.210   0.290
 2406SOL    HW1 7242   2.021   3.211   0.263
 2406SOL    HW2 7243   2.129   3.263   0.374
 2407SOL     OW 7244   1.967   2.875   1.726
 2407SOL    HW1 7245   1.890   2.842   1.780
 2407SOL    HW2 7246   2.052   2.845   1.768
 2408SOL     OW 7247   2.534   2.065   1.489
 2408SOL    HW1 7248   2.624   2.049   1.449
 2408SOL    HW2 7249   2.542   2.070   1.588
 2409SOL     OW 7250   1.937   2.207   0.033
 2409SOL    HW1 7251   1.845   2.179   0.004
 2409SOL    HW2 7252   1.968   2.284  -0.023
 2410SOL     OW 7253   3.302   2.718   1.398
 2410SOL    HW1 7254   3.245   2.770   1.335
 2410SOL    HW2 7255   3.398   2.730   1.374
 2411SOL     OW 7256   1.934   2.028   0.318
 2411SOL    HW1 7257   1.917   2.111   0.264
 2411SOL    HW2 7258   2.024   1.991   0.296
 2412SOL     OW 7259   3.045   3.197   0.119
 2412SOL    HW1 7260   2.946   3.186   0.121
 2412SOL    HW2 7261   3.079   3.212   0.212
 2413SOL     OW 7262   2.475   2.704   1.431
 2413SOL    HW1 7263   2.531   2.785   1.414
 2413SOL    HW2 7264   2.534   2.624   1.434
 2414SOL     OW 7265   3.355   3.629   0.959
 2414SOL    HW1 7266   3.388   3.693   0.890
 2414SOL    HW2 7267   3.421   3.623   1.034
 2415SOL     OW 7268   2.578   2.427   1.708
 2415SOL    HW1 7269   2.597   2.492   1.782
 2415SOL    HW2 7270   2.638   2.347   1.717
 2416SOL     OW 7271   3.312   3.082   1.633
 2416SOL    HW1 7272   3.303   3.072   1.732
 2416SOL    HW2 7273   3.408   3.075   1.607
 2417SOL     OW 7274   2.252   3.603   1.560
 2417SOL    HW1 7275   2.161   3.644   1.558
 2417SOL    HW2 7276   2.245   3.509   1.592
 2418SOL     OW 7277   3.536   2.745   1.254
 2418SOL    HW1 7278   3.509   2.656   1.217
 2418SOL    HW2 7279   3.537   2.813   1.181
 2419SOL     OW 7280   3.087   2.187   0.449
 2419SOL    HW1 7281   3.152   2.113   0.438
 2419SOL    HW2 7282   3.107   2.237   0.533
 2420SOL     OW 7283   2.456   2.607   0.652
 2420SOL    HW1 7284   2.506   2.692   0.633
 2420SOL    HW2 7285   2.368   2.609   0.604
 2421SOL     OW 7286   3.639   2.204   1.642
 2421SOL    HW1 7287   3.622   2.235   1.548
 2421SOL    HW2 7288   3.555   2.167   1.680
 2422SOL     OW 7289   3.592   2.796   1.517
 2422SOL    HW1 7290   3.630   2.887   1.532
 2422SOL    HW2 7291   3.584   2.779   1.418
 2423SOL     OW 7292   2.721   3.236   0.016
 2423SOL    HW1 7293   2.675   3.251   0.104
 2423SOL    HW2 7294   2.765   3.321  -0.014
 2424SOL     OW 7295   2.523   3.652   0.953
 2424SOL    HW1 7296   2.477   3.740   0.940
 2424SOL    HW2 7297   2.622   3.664   0.946
 2425SOL     OW 7298   2.721   2.818   0.861
 2425SOL    HW1 7299   2.775   2.749   0.909
 2425SOL    HW2 7300   2.689   2.887   0.927
 2426SOL     OW 7301   2.945   2.846   0.087
 2426SOL    HW1 7302   2.922   2.899   0.005
 2426SOL    HW2 7303   3.026   2.790   0.068
 2427SOL     OW 7304   3.723   3.431   0.851
 2427SOL    HW1 7305   3.652   3.419   0.781
 2427SOL    HW2 7306   3.724   3.352   0.911
 2428SOL     OW 7307   2.083   3.176   1.844
 2428SOL    HW1 7308   2.018   3.103   1.823
 2428SOL    HW2 7309   2.087   3.190   1.942
 2429SOL     OW 7310   1.941   3.102   0.653
 2429SOL    HW1 7311   1.940   3.055   0.741
 2429SOL    HW2 7312   2.023   3.074   0.602
 2430SOL     OW 7313   2.534   3.253   1.624
 2430SOL    HW1 7314   2.456   3.203   1.662
 2430SOL    HW2 7315   2.531   3.348   1.655
 2431SOL     OW 7316   3.686   2.054   1.227
 2431SOL    HW1 7317   3.682   1.964   1.271
 2431SOL    HW2 7318   3.689   2.043   1.128
 2432SOL     OW 7319   2.290   2.286   0.520
 2432SOL    HW1 7320   2.320   2.214   0.458
 2432SOL    HW2 7321   2.251   2.246   0.603
 2433SOL     OW 7322   3.567   3.349   1.104
 2433SOL    HW1 7323   3.474   3.324   1.077
 2433SOL    HW2 7324   3.593   3.299   1.186
 2434SOL     OW 7325   2.179   2.409   1.280
 2434SOL    HW1 7326   2.217   2.350   1.352
 2434SOL    HW2 7327   2.219   2.383   1.192
 2435SOL     OW 7328   2.674   3.448   0.687
 2435SOL    HW1 7329   2.706   3.458   0.593
 2435SOL    HW2 7330   2.595   3.386   0.689
 2436SOL     OW 7331   3.286   2.076   1.112
 2436SOL    HW1 7332   3.338   2.011   1.167
 2436SOL    HW2 7333   3.237   2.139   1.173
 2437SOL     OW 7334   2.863   1.896   1.154
 2437SOL    HW1 7335   2.800   1.824   1.123
 2437SOL    HW2 7336   2.956   1.860   1.154
 2438SOL     OW 7337   2.632   3.192   0.301
 2438SOL    HW1 7338   2.586   3.105   0.318
 2438SOL    HW2 7339   2.723   3.189   0.342
 2439SOL     OW 7340   2.480   3.429   1.284
 2439SOL    HW1 7341   2.475   3.511   1.341
 2439SOL    HW2 7342   2.569   3.426   1.239
 2440SOL     OW 7343   3.214   1.914   0.168
 2440SOL    HW1 7344   3.249   1.873   0.084
 2440SOL    HW2 7345   3.124   1.876   0.188
 2441SOL     OW 7346   3.162   2.315   0.691
 2441SOL    HW1 7347   3.103   2.395   0.695
 2441SOL    HW2 7348   3.177   2.280   0.784
 2442SOL     OW 7349   3.455   2.083   0.882
 2442SOL    HW1 7350   3.371   2.082   0.936
 2442SOL    HW2 7351   3.457   2.166   0.826
 2443SOL     OW 7352   1.901   2.939   0.300
 2443SOL    HW1 7353   2.000   2.928   0.291
 2443SOL    HW2 7354   1.861   2.853   0.332
 2444SOL     OW 7355   2.737   3.508   0.337
 2444SOL    HW1 7356   2.660   3.473   0.283
 2444SOL    HW2 7357   2.705   3.579   0.399
 2445SOL     OW 7358   2.092   2.490   1.975
 2445SOL    HW1 7359   1.999   2.488   2.012
 2445SOL    HW2 7360   2.093   2.451   1.883
 2446SOL     OW 7361   2.087   2.137   2.858
 2446SOL    HW1 7362   2.122   2.120   2.950
 2446SOL    HW2 7363   1.999   2.092   2.846
 2447SOL     OW 7364   1.881   2.230   2.509
 2447SOL    HW1 7365   1.799   2.273   2.548
 2447SOL    HW2 7366   1.853   2.157   2.446
 2448SOL     OW 7367   2.431   3.137   3.027
 2448SOL    HW1 7368   2.338   3.130   2.990
 2448SOL    HW2 7369   2.442   3.226   3.071
 2449SOL     OW 7370   3.417   3.373   2.565
 2449SOL    HW1 7371   3.360   3.357   2.646
 2449SOL    HW2 7372   3.358   3.383   2.485
 2450SOL     OW 7373   2.997   2.565   2.579
 2450SOL    HW1 7374   3.054   2.643   2.554
 2450SOL    HW2 7375   2.937   2.591   2.655
 2451SOL     OW 7376   3.617   2.469   2.093
 2451SOL    HW1 7377   3.605   2.456   1.994
 2451SOL    HW2 7378   3.587   2.388   2.142
 2452SOL     OW 7379   2.712   2.660   3.685
 2452SOL    HW1 7380   2.708   2.736   3.750
 2452SOL    HW2 7381   2.734   2.696   3.594
 2453SOL     OW 7382   2.548   3.023   3.665
 2453SOL    HW1 7383   2.608   3.102   3.679
 2453SOL    HW2 7384   2.462   3.054   3.624
 2454SOL     OW 7385   2.197   3.297   2.923
 2454SOL    HW1 7386   2.119   3.266   2.870
 2454SOL    HW2 7387   2.255   3.355   2.866
 2455SOL     OW 7388   3.322   3.367   3.201
 2455SOL    HW1 7389   3.346   3.461   3.227
 2455SOL    HW2 7390   3.306   3.313   3.283
 2456SOL     OW 7391   2.300   2.254   3.361
 2456SOL    HW1 7392   2.382   2.198   3.370
 2456SOL    HW2 7393   2.219   2.196   3.365
 2457SOL     OW 7394   3.465   2.309   2.599
 2457SOL    HW1 7395   3.391   2.355   2.549
 2457SOL    HW2 7396   3.516   2.377   2.652
 2458SOL     OW 7397   2.093   3.575   2.345
 2458SOL    HW1 7398   2.127   3.652   2.399
 2458SOL    HW2 7399   2.137   3.575   2.255
 2459SOL     OW 7400   2.989   3.203   3.552
 2459SOL    HW1 7401   3.036   3.203   3.640
 2459SOL    HW2 7402   2.941   3.116   3.541
 2460SOL     OW 7403   2.092   3.296   2.400
 2460SOL    HW1 7404   2.066   3.392   2.400
 2460SOL    HW2 7405   2.021   3.242   2.445
 2461SOL     OW 7406   2.102   2.953   2.748
 2461SOL    HW1 7407   2.116   2.869   2.800
 2461SOL    HW2 7408   2.047   3.017   2.803
 2462SOL     OW 7409   2.482   3.648   3.301
 2462SOL    HW1 7410   2.390   3.631   3.336
 2462SOL    HW2 7411   2.510   3.740   3.327
 2463SOL     OW 7412   2.468   2.826   1.985
 2463SOL    HW1 7413   2.475   2.910   1.931
 2463SOL    HW2 7414   2.514   2.839   2.073
 2464SOL     OW 7415   3.456   1.976   3.342
 2464SOL    HW1 7416   3.438   2.043   3.270
 2464SOL    HW2 7417   3.453   2.022   3.431
 2465SOL     OW 7418   1.984   2.505   2.425
 2465SOL    HW1 7419   1.939   2.417   2.442
 2465SOL    HW2 7420   1.983   2.559   2.509
 2466SOL     OW 7421   3.704   3.629   2.221
 2466SOL    HW1 7422   3.758   3.600   2.301
 2466SOL    HW2 7423   3.734   3.719   2.192
 2467SOL     OW 7424   1.889   3.458   1.979
 2467SOL    HW1 7425   1.870   3.362   2.000
 2467SOL    HW2 7426   1.856   3.516   2.054
 2468SOL     OW 7427   3.551   2.784   2.474
 2468SOL    HW1 7428   3.646   2.755   2.482
 2468SOL    HW2 7429   3.543   2.849   2.399
 2469SOL     OW 7430   3.503   2.970   2.294
 2469SOL    HW1 7431   3.589   2.972   2.242
 2469SOL    HW2 7432   3.517   3.017   2.382
 2470SOL     OW 7433   1.975   2.599   3.459
 2470SOL    HW1 7434   2.063   2.586   3.504
 2470SOL    HW2 7435   1.962   2.696   3.437
 2471SOL     OW 7436   2.475   3.227   2.588
 2471SOL    HW1 7437   2.426   3.140   2.597
 2471SOL    HW2 7438   2.452   3.270   2.501
 2472SOL     OW 7439   3.155   3.090   3.285
 2472SOL    HW1 7440   3.192   3.017   3.227
 2472SOL    HW2 7441   3.207   3.095   3.370
 2473SOL     OW 7442   2.671   1.866   2.364
 2473SOL    HW1 7443   2.711   1.957   2.355
 2473SOL    HW2 7444   2.571   1.874   2.370
 2474SOL     OW 7445   2.059   2.838   3.126
 2474SOL    HW1 7446   2.148   2.793   3.112
 2474SOL    HW2 7447   1.986   2.773   3.107
 2475SOL     OW 7448   3.387   2.861   2.052
 2475SOL    HW1 7449   3.324   2.785   2.065
 2475SOL    HW2 7450   3.435   2.879   2.138
 2476SOL     OW 7451   3.049   3.654   3.478
 2476SOL    HW1 7452   3.073   3.714   3.402
 2476SOL    HW2 7453   3.056   3.559   3.448
 2477SOL     OW 7454   2.179   2.113   3.663
 2477SOL    HW1 7455   2.250   2.184   3.669
 2477SOL    HW2 7456   2.091   2.152   3.691
 2478SOL     OW 7457   3.328   3.279   2.815
 2478SOL    HW1 7458   3.269   3.285   2.895
 2478SOL    HW2 7459   3.313   3.191   2.769
 2479SOL     OW 7460   3.529   3.576   2.434
 2479SOL    HW1 7461   3.488   3.553   2.346
 2479SOL    HW2 7462   3.511   3.502   2.499
 2480SOL     OW 7463   2.460   2.591   2.132
 2480SOL    HW1 7464   2.484   2.660   2.064
 2480SOL    HW2 7465   2.382   2.624   2.186
 2481SOL     OW 7466   3.143   2.207   2.806
 2481SOL    HW1 7467   3.057   2.157   2.793
 2481SOL    HW2 7468   3.205   2.153   2.862
 2482SOL     OW 7469   3.438   3.524   2.169
 2482SOL    HW1 7470   3.527   3.570   2.172
 2482SOL    HW2 7471   3.417   3.500   2.074
 2483SOL     OW 7472   2.669   2.467   3.327
 2483SOL    HW1 7473   2.622   2.464   3.416
 2483SOL    HW2 7474   2.618   2.412   3.261
 2484SOL     OW 7475   3.256   2.331   3.536
 2484SOL    HW1 7476   3.236   2.374   3.624
 2484SOL    HW2 7477   3.334   2.269   3.545
 2485SOL     OW 7478   2.835   2.752   3.434
 2485SOL    HW1 7479   2.881   2.668   3.405
 2485SOL    HW2 7480   2.779   2.786   3.359
 2486SOL     OW 7481   2.853   2.272   3.104
 2486SOL    HW1 7482   2.776   2.306   3.158
 2486SOL    HW2 7483   2.819   2.221   3.025
 2487SOL     OW 7484   2.903   2.563   2.291
 2487SOL    HW1 7485   2.929   2.559   2.387
 2487SOL    HW2 7486   2.818   2.512   2.277
 2488SOL     OW 7487   1.938   2.673   2.651
 2488SOL    HW1 7488   2.037   2.661   2.660
 2488SOL    HW2 7489   1.914   2.768   2.672
 2489SOL     OW 7490   1.992   3.683   3.433
 2489SOL    HW1 7491   1.982   3.668   3.532
 2489SOL    HW2 7492   1.906   3.719   3.397
 2490SOL     OW 7493   2.727   2.210   2.057
 2490SOL    HW1 7494   2.786   2.273   2.008
 2490SOL    HW2 7495   2.746   2.116   2.028
 2491SOL     OW 7496   3.581   2.447   3.693
 2491SOL    HW1 7497   3.555   2.536   3.657
 2491SOL    HW2 7498   3.579   2.379   3.620
 2492SOL     OW 7499   3.224   3.006   2.407
 2492SOL    HW1 7500   3.307   2.977   2.359
 2492SOL    HW2 7501   3.175   3.073   2.351
 2493SOL     OW 7502   2.412   2.058   2.747
 2493SOL    HW1 7503   2.407   2.053   2.847
 2493SOL    HW2 7504   2.414   2.154   2.718
 2494SOL     OW 7505   2.870   3.318   2.339
 2494SOL    HW1 7506   2.824   3.390   2.287
 2494SOL    HW2 7507   2.866   3.338   2.437
 2495SOL     OW 7508   2.213   3.663   2.715
 2495SOL    HW1 7509   2.263   3.577   2.721
 2495SOL    HW2 7510   2.278   3.740   2.712
 2496SOL     OW 7511   3.657   2.928   2.735
 2496SOL    HW1 7512   3.595   2.913   2.659
 2496SOL    HW2 7513   3.605   2.939   2.820
 2497SOL     OW 7514   3.089   3.412   3.368
 2497SOL    HW1 7515   3.095   3.335   3.432
 2497SOL    HW2 7516   3.037   3.386   3.288
 2498SOL     OW 7517   2.183   2.805   2.104
 2498SOL    HW1 7518   2.265   2.844   2.062
 2498SOL    HW2 7519   2.156   2.723   2.055
 2499SOL     OW 7520   3.320   2.597   2.590
 2499SOL    HW1 7521   3.315   2.532   2.665
 2499SOL    HW2 7522   3.400   2.656   2.603
 2500SOL     OW 7523   2.323   3.128   3.589
 2500SOL    HW1 7524   2.273   3.129   3.503
 2500SOL    HW2 7525   2.260   3.110   3.665
 2501SOL     OW 7526   2.973   3.638   2.099
 2501SOL    HW1 7527   2.913   3.576   2.149
 2501SOL    HW2 7528   3.004   3.594   2.014
 2502SOL     OW 7529   2.064   2.147   3.360
 2502SOL    HW1 7530   1.984   2.207   3.347
 2502SOL    HW2 7531   2.054   2.098   3.446
 2503SOL     OW 7532   3.494   3.239   1.943
 2503SOL    HW1 7533   3.462   3.333   1.933
 2503SOL    HW2 7534   3.418   3.176   1.931
 2504SOL     OW 7535   2.326   3.605   2.185
 2504SOL    HW1 7536   2.359   3.644   2.271
 2504SOL    HW2 7537   2.402   3.598   2.120
 2505SOL     OW 7538   3.262   1.969   2.288
 2505SOL    HW1 7539   3.238   1.932   2.198
 2505SOL    HW2 7540   3.361   1.985   2.292
 2506SOL     OW 7541   2.111   3.647   3.103
 2506SOL    HW1 7542   2.168   3.582   3.153
 2506SOL    HW2 7543   2.095   3.614   3.010
 2507SOL     OW 7544   2.802   3.560   2.766
 2507SOL    HW1 7545   2.882   3.503   2.787
 2507SOL    HW2 7546   2.753   3.520   2.689
 2508SOL     OW 7547   2.244   2.562   2.342
 2508SOL    HW1 7548   2.289   2.472   2.339
 2508SOL    HW2 7549   2.150   2.551   2.375
 2509SOL     OW 7550   3.409   2.084   3.591
 2509SOL    HW1 7551   3.404   2.121   3.683
 2509SOL    HW2 7552   3.337   2.015   3.579
 2510SOL     OW 7553   2.476   1.984   1.979
 2510SOL    HW1 7554   2.574   1.962   1.986
 2510SOL    HW2 7555   2.445   1.967   1.886
 2511SOL     OW 7556   2.643   2.126   3.611
 2511SOL    HW1 7557   2.710   2.065   3.654
 2511SOL    HW2 7558   2.570   2.145   3.676
 2512SOL     OW 7559   2.750   3.376   3.057
 2512SOL    HW1 7560   2.727   3.351   2.963
 2512SOL    HW2 7561   2.811   3.307   3.096
 2513SOL     OW 7562   3.213   2.452   3.295
 2513SOL    HW1 7563   3.241   2.409   3.380
 2513SOL    HW2 7564   3.238   2.548   3.296
 2514SOL     OW 7565   2.665   3.264   2.786
 2514SOL    HW1 7566   2.755   3.278   2.744
 2514SOL    HW2 7567   2.594   3.266   2.715
 2515SOL     OW 7568   2.784   2.365   2.761
 2515SOL    HW1 7569   2.759   2.356   2.665
 2515SOL    HW2 7570   2.832   2.283   2.792
 2516SOL     OW 7571   2.401   1.926   2.374
 2516SOL    HW1 7572   2.320   1.927   2.432
 2516SOL    HW2 7573   2.404   2.009   2.319
 2517SOL     OW 7574   3.296   3.050   1.903
 2517SOL    HW1 7575   3.328   2.974   1.960
 2517SOL    HW2 7576   3.204   3.077   1.933
 2518SOL     OW 7577   2.159   1.897   2.033
 2518SOL    HW1 7578   2.208   1.981   2.012
 2518SOL    HW2 7579   2.221   1.832   2.078
 2519SOL     OW 7580   2.938   2.545   3.326
 2519SOL    HW1 7581   2.858   2.484   3.329
 2519SOL    HW2 7582   3.019   2.492   3.302
 2520SOL     OW 7583   3.089   3.432   2.655
 2520SOL    HW1 7584   3.110   3.506   2.590
 2520SOL    HW2 7585   3.157   3.432   2.728
 2521SOL     OW 7586   2.321   3.014   2.603
 2521SOL    HW1 7587   2.250   2.987   2.668
 2521SOL    HW2 7588   2.295   2.986   2.510
 2522SOL     OW 7589   3.133   3.659   2.453
 2522SOL    HW1 7590   3.177   3.723   2.389
 2522SOL    HW2 7591   3.083   3.711   2.523
 2523SOL     OW 7592   2.894   2.411   1.878
 2523SOL    HW1 7593   2.853   2.493   1.839
 2523SOL    HW2 7594   2.958   2.437   1.951
 2524SOL     OW 7595   1.940   2.418   3.248
 2524SOL    HW1 7596   2.032   2.417   3.207
 2524SOL    HW2 7597   1.934   2.492   3.315
 2525SOL     OW 7598   2.423   2.084   3.009
 2525SOL    HW1 7599   2.461   2.000   3.046
 2525SOL    HW2 7600   2.335   2.103   3.053
 2526SOL     OW 7601   2.879   1.901   2.615
 2526SOL    HW1 7602   2.807   1.906   2.546
 2526SOL    HW2 7603   2.855   1.832   2.684
 2527SOL     OW 7604   3.291   3.035   2.729
 2527SOL    HW1 7605   3.236   2.951   2.722
 2527SOL    HW2 7606   3.317   3.064   2.637
 2528SOL     OW 7607   3.328   2.452   2.854
 2528SOL    HW1 7608   3.298   2.357   2.861
 2528SOL    HW2 7609   3.401   2.468   2.920
 2529SOL     OW 7610   3.719   2.695   2.239
 2529SOL    HW1 7611   3.761   2.631   2.303
 2529SOL    HW2 7612   3.681   2.644   2.161
 2530SOL     OW 7613   2.350   3.247   2.036
 2530SOL    HW1 7614   2.263   3.232   2.083
 2530SOL    HW2 7615   2.333   3.273   1.941
 2531SOL     OW 7616   3.526   3.142   2.519
 2531SOL    HW1 7617   3.625   3.150   2.533
 2531SOL    HW2 7618   3.481   3.226   2.550
 2532SOL     OW 7619   3.252   2.437   1.940
 2532SOL    HW1 7620   3.198   2.416   2.021
 2532SOL    HW2 7621   3.343   2.396   1.949
 2533SOL     OW 7622   3.616   3.085   3.450
 2533SOL    HW1 7623   3.707   3.046   3.437
 2533SOL    HW2 7624   3.624   3.181   3.474
 2534SOL     OW 7625   2.926   3.209   3.202
 2534SOL    HW1 7626   2.846   3.186   3.257
 2534SOL    HW2 7627   3.009   3.183   3.251
 2535SOL     OW 7628   3.454   3.491   3.487
 2535SOL    HW1 7629   3.481   3.525   3.397
 2535SOL    HW2 7630   3.533   3.453   3.533
 2536SOL     OW 7631   2.973   3.057   2.962
 2536SOL    HW1 7632   2.933   3.101   3.043
 2536SOL    HW2 7633   2.932   3.094   2.879
 2537SOL     OW 7634   3.500   2.961   2.941
 2537SOL    HW1 7635   3.505   3.042   3.000
 2537SOL    HW2 7636   3.414   2.963   2.890
 2538SOL     OW 7637   2.777   1.951   3.264
 2538SOL    HW1 7638   2.802   1.931   3.169
 2538SOL    HW2 7639   2.849   2.007   3.306
 2539SOL     OW 7640   2.842   2.978   3.581
 2539SOL    HW1 7641   2.743   2.984   3.591
 2539SOL    HW2 7642   2.865   2.898   3.525
 2540SOL     OW 7643   2.567   2.912   2.230
 2540SOL    HW1 7644   2.553   2.919   2.329
 2540SOL    HW2 7645   2.651   2.861   2.212
 2541SOL     OW 7646   2.272   2.675   3.113
 2541SOL    HW1 7647   2.358   2.687   3.163
 2541SOL    HW2 7648   2.230   2.588   3.140
 2542SOL     OW 7649   3.136   2.248   3.124
 2542SOL    HW1 7650   3.157   2.322   3.188
 2542SOL    HW2 7651   3.047   2.265   3.081
 2543SOL     OW 7652   1.926   3.426   3.193
 2543SOL    HW1 7653   1.880   3.508   3.159
 2543SOL    HW2 7654   2.024   3.445   3.202
 2544SOL     OW 7655   2.229   2.962   2.363
 2544SOL    HW1 7656   2.222   3.045   2.307
 2544SOL    HW2 7657   2.233   2.882   2.303
 2545SOL     OW 7658   3.114   3.210   2.250
 2545SOL    HW1 7659   3.164   3.287   2.290
 2545SOL    HW2 7660   3.019   3.212   2.282
 2546SOL     OW 7661   3.134   3.307   3.004
 2546SOL    HW1 7662   3.181   3.320   3.091
 2546SOL    HW2 7663   3.068   3.233   3.013
 2547SOL     OW 7664   3.444   2.501   2.334
 2547SOL    HW1 7665   3.413   2.562   2.407
 2547SOL    HW2 7666   3.494   2.553   2.265
 2548SOL     OW 7667   2.216   3.372   3.191
 2548SOL    HW1 7668   2.195   3.328   3.104
 2548SOL    HW2 7669   2.313   3.398   3.194
 2549SOL     OW 7670   2.264   2.613   3.460
 2549SOL    HW1 7671   2.332   2.668   3.413
 2549SOL    HW2 7672   2.304   2.525   3.487
 2550SOL     OW 7673   3.449   2.641   3.532
 2550SOL    HW1 7674   3.357   2.679   3.527
 2550SOL    HW2 7675   3.509   2.688   3.467
 2551SOL     OW 7676   2.875   1.967   3.632
 2551SOL    HW1 7677   2.881   2.052   3.580
 2551SOL    HW2 7678   2.907   1.891   3.575
 2552SOL     OW 7679   2.366   1.912   3.602
 2552SOL    HW1 7680   2.324   1.855   3.532
 2552SOL    HW2 7681   2.300   1.981   3.634
 2553SOL     OW 7682   3.222   2.724   2.907
 2553SOL    HW1 7683   3.147   2.724   2.841
 2553SOL    HW2 7684   3.259   2.632   2.916
 2554SOL     OW 7685   3.071   2.387   2.137
 2554SOL    HW1 7686   3.084   2.303   2.191
 2554SOL    HW2 7687   3.042   2.461   2.197
 2555SOL     OW 7688   2.169   2.075   3.093
 2555SOL    HW1 7689   2.146   2.112   3.183
 2555SOL    HW2 7690   2.139   1.980   3.087
 2556SOL     OW 7691   1.899   3.172   3.144
 2556SOL    HW1 7692   1.952   3.123   3.212
 2556SOL    HW2 7693   1.921   3.270   3.149
 2557SOL     OW 7694   2.594   2.496   2.926
 2557SOL    HW1 7695   2.653   2.470   2.850
 2557SOL    HW2 7696   2.566   2.592   2.915
 2558SOL     OW 7697   3.590   2.797   3.716
 2558SOL    HW1 7698   3.544   2.790   3.627
 2558SOL    HW2 7699   3.528   2.841   3.782
 2559SOL     OW 7700   2.169   1.925   2.480
 2559SOL    HW1 7701   2.158   2.019   2.513
 2559SOL    HW2 7702   2.164   1.862   2.557
 2560SOL     OW 7703   3.484   2.229   2.236
 2560SOL    HW1 7704   3.486   2.153   2.300
 2560SOL    HW2 7705   3.436   2.306   2.276
 2561SOL     OW 7706   2.885   2.628   2.828
 2561SOL    HW1 7707   2.900   2.649   2.924
 2561SOL    HW2 7708   2.855   2.533   2.819
 2562SOL     OW 7709   2.842   3.435   3.562
 2562SOL    HW1 7710   2.822   3.479   3.474
 2562SOL    HW2 7711   2.881   3.344   3.546
 2563SOL     OW 7712   3.721   3.380   3.467
 2563SOL    HW1 7713   3.735   3.407   3.372
 2563SOL    HW2 7714   3.804   3.402   3.520
 2564SOL     OW 7715   2.212   2.760   3.666
 2564SOL    HW1 7716   2.288   2.804   3.714
 2564SOL    HW2 7717   2.247   2.713   3.584
 2565SOL     OW 7718   3.402   2.136   1.987
 2565SOL    HW1 7719   3.341   2.061   2.010
 2565SOL    HW2 7720   3.424   2.188   2.070
 2566SOL     OW 7721   3.165   2.700   1.904
 2566SOL    HW1 7722   3.199   2.607   1.919
 2566SOL    HW2 7723   3.183   2.727   1.809
 2567SOL     OW 7724   2.930   3.195   2.711
 2567SOL    HW1 7725   2.937   3.111   2.656
 2567SOL    HW2 7726   2.992   3.264   2.675
 2568SOL     OW 7727   2.181   2.672   2.811
 2568SOL    HW1 7728   2.274   2.708   2.816
 2568SOL    HW2 7729   2.175   2.587   2.863
 2569SOL     OW 7730   2.201   2.371   2.868
 2569SOL    HW1 7731   2.149   2.288   2.851
 2569SOL    HW2 7732   2.278   2.376   2.804
 2570SOL     OW 7733   3.000   2.242   3.540
 2570SOL    HW1 7734   2.955   2.305   3.604
 2570SOL    HW2 7735   3.093   2.273   3.523
 2571SOL     OW 7736   3.022   2.069   3.339
 2571SOL    HW1 7737   3.022   2.133   3.416
 2571SOL    HW2 7738   3.050   2.117   3.256
 2572SOL     OW 7739   1.870   3.188   2.062
 2572SOL    HW1 7740   1.777   3.209   2.031
 2572SOL    HW2 7741   1.880   3.089   2.075
 2573SOL     OW 7742   1.950   3.663   2.789
 2573SOL    HW1 7743   1.908   3.577   2.762
 2573SOL    HW2 7744   2.044   3.666   2.755
 2574SOL     OW 7745   2.366   3.430   2.772
 2574SOL    HW1 7746   2.432   3.504   2.781
 2574SOL    HW2 7747   2.410   3.351   2.730
 2575SOL     OW 7748   2.864   2.658   3.100
 2575SOL    HW1 7749   2.905   2.626   3.186
 2575SOL    HW2 7750   2.768   2.631   3.097
 2576SOL     OW 7751   1.902   2.406   2.976
 2576SOL    HW1 7752   1.987   2.373   2.935
 2576SOL    HW2 7753   1.915   2.421   3.074
 2577SOL     OW 7754   2.051   2.382   3.584
 2577SOL    HW1 7755   2.110   2.342   3.514
 2577SOL    HW2 7756   1.993   2.453   3.543
 2578SOL     OW 7757   3.231   2.812   3.522
 2578SOL    HW1 7758   3.270   2.901   3.542
 2578SOL    HW2 7759   3.241   2.792   3.425
 2579SOL     OW 7760   2.677   2.434   2.187
 2579SOL    HW1 7761   2.684   2.345   2.141
 2579SOL    HW2 7762   2.583   2.468   2.179
 2580SOL     OW 7763   3.519   2.466   3.068
 2580SOL    HW1 7764   3.481   2.397   3.130
 2580SOL    HW2 7765   3.601   2.430   3.024
 2581SOL     OW 7766   2.114   3.426   3.606
 2581SOL    HW1 7767   2.084   3.483   3.682
 2581SOL    HW2 7768   2.107   3.329   3.632
 2582SOL     OW 7769   2.533   2.326   3.131
 2582SOL    HW1 7770   2.499   2.237   3.101
 2582SOL    HW2 7771   2.559   2.380   3.051
 2583SOL     OW 7772   2.792   3.540   3.327
 2583SOL    HW1 7773   2.768   3.522   3.232
 2583SOL    HW2 7774   2.822   3.634   3.337
 2584SOL     OW 7775   2.335   2.362   2.053
 2584SOL    HW1 7776   2.396   2.442   2.057
 2584SOL    HW2 7777   2.240   2.393   2.060
 2585SOL     OW 7778   2.021   2.999   3.328
 2585SOL    HW1 7779   2.043   2.938   3.404
 2585SOL    HW2 7780   2.031   2.950   3.242
 2586SOL     OW 7781   3.209   2.921   3.096
 2586SOL    HW1 7782   3.233   2.858   3.022
 2586SOL    HW2 7783   3.119   2.961   3.078
 2587SOL     OW 7784   3.164   2.717   2.171
 2587SOL    HW1 7785   3.078   2.686   2.213
 2587SOL    HW2 7786   3.160   2.703   2.072
 2588SOL     OW 7787   3.621   3.609   3.016
 2588SOL    HW1 7788   3.682   3.639   2.943
 2588SOL    HW2 7789   3.583   3.520   2.994
 2589SOL     OW 7790   3.114   3.593   2.990
 2589SOL    HW1 7791   3.198   3.598   2.936
 2589SOL    HW2 7792   3.091   3.497   3.008
 2590SOL     OW 7793   1.945   3.120   2.884
 2590SOL    HW1 7794   1.940   3.119   2.984
 2590SOL    HW2 7795   1.862   3.079   2.846
 2591SOL     OW 7796   2.550   3.524   3.578
 2591SOL    HW1 7797   2.494   3.605   3.587
 2591SOL    HW2 7798   2.602   3.528   3.492
 2592SOL     OW 7799   3.588   1.997   2.385
 2592SOL    HW1 7800   3.661   1.980   2.318
 2592SOL    HW2 7801   3.557   1.910   2.423
 2593SOL     OW 7802   3.250   3.435   2.339
 2593SOL    HW1 7803   3.317   3.447   2.265
 2593SOL    HW2 7804   3.210   3.524   2.362
 2594SOL     OW 7805   1.992   3.656   3.713
 2594SOL    HW1 7806   1.951   3.582   3.766
 2594SOL    HW2 7807   2.056   3.707   3.771
 2595SOL     OW 7808   3.142   2.789   2.534
 2595SOL    HW1 7809   3.202   2.708   2.536
 2595SOL    HW2 7810   3.182   2.858   2.474
 2596SOL     OW 7811   2.692   3.135   3.284
 2596SOL    HW1 7812   2.687   3.168   3.379
 2596SOL    HW2 7813   2.606   3.154   3.238
 2597SOL     OW 7814   2.534   3.478   2.016
 2597SOL    HW1 7815   2.543   3.488   1.917
 2597SOL    HW2 7816   2.494   3.389   2.037
 2598SOL     OW 7817   3.512   3.582   3.256
 2598SOL    HW1 7818   3.565   3.592   3.172
 2598SOL    HW2 7819   3.485   3.672   3.290
 2599SOL     OW 7820   3.703   2.037   2.825
 2599SOL    HW1 7821   3.742   1.952   2.789
 2599SOL    HW2 7822   3.605   2.039   2.806
 2600SOL     OW 7823   2.125   2.188   2.582
 2600SOL    HW1 7824   2.046   2.239   2.548
 2600SOL    HW2 7825   2.116   2.173   2.680
 2601SOL     OW 7826   3.056   3.474   1.893
 2601SOL    HW1 7827   3.062   3.381   1.930
 2601SOL    HW2 7828   2.997   3.474   1.813
 2602SOL     OW 7829   2.684   2.864   3.234
 2602SOL    HW1 7830   2.724   2.863   3.142
 2602SOL    HW2 7831   2.694   2.956   3.274
 2603SOL     OW 7832   2.778   2.772   2.153
 2603SOL    HW1 7833   2.841   2.810   2.085
 2603SOL    HW2 7834   2.818   2.689   2.192
 2604SOL     OW 7835   3.366   3.469   1.906
 2604SOL    HW1 7836   3.274   3.506   1.913
 2604SOL    HW2 7837   3.404   3.489   1.816
 2605SOL     OW 7838   2.234   3.150   3.352
 2605SOL    HW1 7839   2.221   3.243   3.318
 2605SOL    HW2 7840   2.150   3.098   3.339
 2606SOL     OW 7841   3.476   3.154   3.151
 2606SOL    HW1 7842   3.536   3.157   3.231
 2606SOL    HW2 7843   3.401   3.218   3.164
 2607SOL     OW 7844   2.901   2.960   2.558
 2607SOL    HW1 7845   2.831   2.913   2.612
 2607SOL    HW2 7846   2.960   2.892   2.515
 2608SOL     OW 7847   2.876   2.098   2.833
 2608SOL    HW1 7848   2.868   2.062   2.740
 2608SOL    HW2 7849   2.874   2.022   2.898
 2609SOL     OW 7850   2.452   3.349   2.353
 2609SOL    HW1 7851   2.494   3.291   2.283
 2609SOL    HW2 7852   2.408   3.428   2.309
 2610SOL     OW 7853   3.571   2.247   3.243
 2610SOL    HW1 7854   3.644   2.316   3.247
 2610SOL    HW2 7855   3.599   2.172   3.184
 2611SOL     OW 7856   2.117   3.210   2.152
 2611SOL    HW1 7857   2.021   3.211   2.125
 2611SOL    HW2 7858   2.129   3.263   2.236
 2612SOL     OW 7859   1.967   2.875   3.588
 2612SOL    HW1 7860   1.890   2.842   3.642
 2612SOL    HW2 7861   2.052   2.845   3.630
 2613SOL     OW 7862   2.534   2.065   3.351
 2613SOL    HW1 7863   2.624   2.049   3.311
 2613SOL    HW2 7864   2.542   2.070   3.450
 2614SOL     OW 7865   1.937   2.207   1.895
 2614SOL    HW1 7866   1.845   2.179   1.866
 2614SOL    HW2 7867   1.968   2.284   1.839
 2615SOL     OW 7868   3.302   2.718   3.260
 2615SOL    HW1 7869   3.245   2.770   3.197
 2615SOL    HW2 7870   3.398   2.730   3.236
 2616SOL     OW 7871   1.934   2.028   2.180
 2616SOL    HW1 7872   1.917   2.111   2.126
 2616SOL    HW2 7873   2.024   1.991   2.158
 2617SOL     OW 7874   3.045   3.197   1.981
 2617SOL    HW1 7875   2.946   3.186   1.983
 2617SOL    HW2 7876   3.079   3.212   2.074
 2618SOL     OW 7877   2.475   2.704   3.293
 2618SOL    HW1 7878   2.531   2.785   3.276
 2618SOL    HW2 7879   2.534   2.624   3.296
 2619SOL     OW 7880   3.355   3.629   2.821
 2619SOL    HW1 7881   3.388   3.693   2.752
 2619SOL    HW2 7882   3.421   3.623   2.896
 2620SOL     OW 7883   2.578   2.427   3.570
 2620SOL    HW1 7884   2.597   2.492   3.644
 2620SOL    HW2 7885   2.638   2.347   3.579
 2621SOL     OW 7886   3.312   3.082   3.495
 2621SOL    HW1 7887   3.303   3.072   3.594
 2621SOL    HW2 7888   3.408   3.075   3.469
 2622SOL     OW 7889   2.252   3.603   3.422
 2622SOL    HW1 7890   2.161   3.644   3.420
 2622SOL    HW2 7891   2.245   3.509   3.454
 2623SOL     OW 7892   3.536   2.745   3.116
 2623SOL    HW1 7893   3.509   2.656   3.079
 2623SOL    HW2 7894   3.537   2.813   3.043
 2624SOL     OW 7895   3.087   2.187   2.311
 2624SOL    HW1 7896   3.152   2.113   2.300
 2624SOL    HW2 7897   3.107   2.237   2.395
 2625SOL     OW 7898   3.639   2.204   3.504
 2625SOL    HW1 7899   3.622   2.235   3.410
 2625SOL    HW2 7900   3.555   2.167   3.542
 2626SOL     OW 7901   3.592   2.796   3.379
 2626SOL    HW1 7902   3.630   2.887   3.394
 2626SOL    HW2 7903   3.584   2.779   3.280
 2627SOL     OW 7904   2.721   3.236   1.878
 2627SOL    HW1 7905   2.675   3.251   1.966
 2627SOL    HW2 7906   2.765   3.321   1.848
 2628SOL     OW 7907   2.523   3.652   2.815
 2628SOL    HW1 7908   2.477   3.740   2.802
 2628SOL    HW2 7909   2.622   3.664   2.808
 2629SOL     OW 7910   2.945   2.846   1.949
 2629SOL    HW1 7911   2.922   2.899   1.867
 2629SOL    HW2 7912   3.026   2.790   1.930
 2630SOL     OW 7913   3.723   3.431   2.713
 2630SOL    HW1 7914   3.652   3.419   2.643
 2630SOL    HW2 7915   3.724   3.352   2.773
 2631SOL     OW 7916   2.083   3.176   3.706
 2631SOL    HW1 7917   2.018   3.103   3.685
 2631SOL    HW2 7918   2.087   3.190   3.804
 2632SOL     OW 7919   1.941   3.102   2.515
 2632SOL    HW1 7920   1.940   3.055   2.603
 2632SOL    HW2 7921   2.023   3.074   2.464
 2633SOL     OW 7922   2.534   3.253   3.486
 2633SOL    HW1 7923   2.456   3.203   3.524
 2633SOL    HW2 7924   2.531   3.348   3.517
 2634SOL     OW 7925   3.686   2.054   3.089
 2634SOL    HW1 7926   3.682   1.964   3.133
 2634SOL    HW2 7927   3.689   2.043   2.990
 2635SOL     OW 7928   2.290   2.286   2.382
 2635SOL    HW1 7929   2.320   2.214   2.320
 2635SOL    HW2 7930   2.251   2.246   2.465
 2636SOL     OW 7931   3.567   3.349   2.966
 2636SOL    HW1 7932   3.474   3.324   2.939
 2636SOL    HW2 7933   3.593   3.299   3.048
 2637SOL     OW 7934   2.179   2.409   3.142
 2637SOL    HW1 7935   2.217   2.350   3.214
 2637SOL    HW2 7936   2.219   2.383   3.054
 2638SOL     OW 7937   2.674   3.448   2.549
 2638SOL    HW1 7938   2.706   3.458   2.455
 2638SOL    HW2 7939   2.595   3.386   2.551
 2639SOL     OW 7940   3.286   2.076   2.974
 2639SOL    HW1 7941   3.338   2.011   3.029
 2639SOL    HW2 7942   3.237   2.139   3.035
 2640SOL     OW 7943   2.863   1.896   3.016
 2640SOL    HW1 7944   2.800   1.824   2.985
 2640SOL    HW2 7945   2.956   1.860   3.016
 2641SOL     OW 7946   2.632   3.192   2.163
 2641SOL    HW1 7947   2.586   3.105   2.180
 2641SOL    HW2 7948   2.723   3.189   2.204
 2642SOL     OW 7949   2.480   3.429   3.146
 2642SOL    HW1 7950   2.475   3.511   3.203
 2642SOL    HW2 7951   2.569   3.426   3.101
 2643SOL     OW 7952   3.214   1.914   2.030
 2643SOL    HW1 7953   3.249   1.873   1.946
 2643SOL    HW2 7954   3.124   1.876   2.050
 2644SOL     OW 7955   3.162   2.315   2.553
 2644SOL    HW1 7956   3.103   2.395   2.557
 2644SOL    HW2 7957   3.177   2.280   2.646
 2645SOL     OW 7958   3.455   2.083   2.744
 2645SOL    HW1 7959   3.371   2.082   2.798
 2645SOL    HW2 7960   3.457   2.166   2.688
 2646SOL     OW 7961   1.901   2.939   2.162
 2646SOL    HW1 7962   2.000   2.928   2.153
 2646SOL    HW2 7963   1.861   2.853   2.194
 2647SOL     OW 7964   2.737   3.508   2.199
 2647SOL    HW1 7965   2.660   3.473   2.145
 2647SOL    HW2 7966   2.705   3.579   2.261
 2648SOL     OW 7967   2.092   2.490   3.837
 2648SOL    HW1 7968   1.999   2.488   3.874
 2648SOL    HW2 7969   2.093   2.451   3.745
 2649SOL     OW 7970   2.087   2.137   4.720
 2649SOL    HW1 7971   2.122   2.120   4.812
 2649SOL    HW2 7972   1.999   2.092   4.708
 2650SOL     OW 7973   1.881   2.230   4.371
 2650SOL    HW1 7974   1.799   2.273   4.410
 2650SOL    HW2 7975   1.853   2.157   4.308
 2651SOL     OW 7976   2.431   3.137   4.889
 2651SOL    HW1 7977   2.338   3.130   4.852
 2651SOL    HW2 7978   2.442   3.226   4.933
 2652SOL     OW 7979   3.417   3.373   4.427
 2652SOL    HW1 7980   3.360   3.357   4.508
 2652SOL    HW2 7981   3.358   3.383   4.347
 2653SOL     OW 7982   2.997   2.565   4.441
 2653SOL    HW1 7983   3.054   2.643   4.416
 2653SOL    HW2 7984   2.937   2.591   4.517
 2654SOL     OW 7985   3.617   2.469   3.955
 2654SOL    HW1 7986   3.605   2.456   3.856
 2654SOL    HW2 7987   3.587   2.388   4.004
 2655SOL     OW 7988   2.630   3.006   4.747
 2655SOL    HW1 7989   2.552   3.023   4.807
 2655SOL    HW2 7990   2.664   3.093   4.711
 2656SOL     OW 7991   2.547   2.874   4.389
 2656SOL    HW1 7992   2.616   2.858   4.459
 2656SOL    HW2 7993   2.474   2.931   4.427
 2657SOL     OW 7994   2.197   3.297   4.785
 2657SOL    HW1 7995   2.119   3.266   4.732
 2657SOL    HW2 7996   2.255   3.355   4.728
 2658SOL     OW 7997   2.300   2.254   5.223
 2658SOL    HW1 7998   2.382   2.198   5.232
 2658SOL    HW2 7999   2.219   2.196   5.227
 2659SOL     OW 8000   3.465   2.309   4.461
 2659SOL    HW1 8001   3.391   2.355   4.411
 2659SOL    HW2 8002   3.516   2.377   4.514
 2660SOL     OW 8003   2.093   3.575   4.207
 2660SOL    HW1 8004   2.127   3.652   4.261
 2660SOL    HW2 8005   2.137   3.575   4.117
 2661SOL     OW 8006   2.092   3.296   4.262
 2661SOL    HW1 8007   2.066   3.392   4.262
 2661SOL    HW2 8008   2.021   3.242   4.307
 2662SOL     OW 8009   2.102   2.953   4.610
 2662SOL    HW1 8010   2.116   2.869   4.662
 2662SOL    HW2 8011   2.047   3.017   4.665
 2663SOL     OW 8012   2.482   3.648   5.163
 2663SOL    HW1 8013   2.390   3.631   5.198
 2663SOL    HW2 8014   2.510   3.740   5.189
 2664SOL     OW 8015   2.468   2.826   3.847
 2664SOL    HW1 8016   2.475   2.910   3.793
 2664SOL    HW2 8017   2.514   2.839   3.935
 2665SOL     OW 8018   1.984   2.505   4.287
 2665SOL    HW1 8019   1.939   2.417   4.304
 2665SOL    HW2 8020   1.983   2.559   4.371
 2666SOL     OW 8021   3.704   3.629   4.083
 2666SOL    HW1 8022   3.758   3.600   4.163
 2666SOL    HW2 8023   3.734   3.719   4.054
 2667SOL     OW 8024   1.889   3.458   3.841
 2667SOL    HW1 8025   1.870   3.362   3.862
 2667SOL    HW2 8026   1.856   3.516   3.916
 2668SOL     OW 8027   3.551   2.784   4.336
 2668SOL    HW1 8028   3.646   2.755   4.344
 2668SOL    HW2 8029   3.543   2.849   4.261
 2669SOL     OW 8030   3.503   2.970   4.156
 2669SOL    HW1 8031   3.589   2.972   4.104
 2669SOL    HW2 8032   3.517   3.017   4.244
 2670SOL     OW 8033   2.475   3.227   4.450
 2670SOL    HW1 8034   2.426   3.140   4.459
 2670SOL    HW2 8035   2.452   3.270   4.363
 2671SOL     OW 8036   2.671   1.866   4.226
 2671SOL    HW1 8037   2.711   1.957   4.217
 2671SOL    HW2 8038   2.571   1.874   4.232
 2672SOL     OW 8039   2.059   2.838   4.988
 2672SOL    HW1 8040   2.148   2.793   4.974
 2672SOL    HW2 8041   1.986   2.773   4.969
 2673SOL     OW 8042   3.387   2.861   3.914
 2673SOL    HW1 8043   3.324   2.785   3.927
 2673SOL    HW2 8044   3.435   2.879   4.000
 2674SOL     OW 8045   3.328   3.279   4.677
 2674SOL    HW1 8046   3.269   3.285   4.757
 2674SOL    HW2 8047   3.313   3.191   4.631
 2675SOL     OW 8048   3.529   3.576   4.296
 2675SOL    HW1 8049   3.488   3.553   4.208
 2675SOL    HW2 8050   3.511   3.502   4.361
 2676SOL     OW 8051   2.460   2.591   3.994
 2676SOL    HW1 8052   2.484   2.660   3.926
 2676SOL    HW2 8053   2.382   2.624   4.048
 2677SOL     OW 8054   3.143   2.207   4.668
 2677SOL    HW1 8055   3.057   2.157   4.655
 2677SOL    HW2 8056   3.205   2.153   4.724
 2678SOL     OW 8057   3.438   3.524   4.031
 2678SOL    HW1 8058   3.527   3.570   4.034
 2678SOL    HW2 8059   3.417   3.500   3.936
 2679SOL     OW 8060   2.669   2.467   5.189
 2679SOL    HW1 8061   2.622   2.464   5.278
 2679SOL    HW2 8062   2.618   2.412   5.123
 2680SOL     OW 8063   2.853   2.272   4.966
 2680SOL    HW1 8064   2.776   2.306   5.020
 2680SOL    HW2 8065   2.819   2.221   4.887
 2681SOL     OW 8066   2.903   2.563   4.153
 2681SOL    HW1 8067   2.929   2.559   4.249
 2681SOL    HW2 8068   2.818   2.512   4.139
 2682SOL     OW 8069   1.938   2.673   4.513
 2682SOL    HW1 8070   2.037   2.661   4.522
 2682SOL    HW2 8071   1.914   2.768   4.534
 2683SOL     OW 8072   1.992   3.683   5.295
 2683SOL    HW1 8073   1.982   3.668   5.394
 2683SOL    HW2 8074   1.906   3.719   5.259
 2684SOL     OW 8075   2.727   2.210   3.919
 2684SOL    HW1 8076   2.786   2.273   3.870
 2684SOL    HW2 8077   2.746   2.116   3.890
 2685SOL     OW 8078   3.224   3.006   4.269
 2685SOL    HW1 8079   3.307   2.977   4.221
 2685SOL    HW2 8080   3.175   3.073   4.213
 2686SOL     OW 8081   2.412   2.058   4.609
 2686SOL    HW1 8082   2.407   2.053   4.709
 2686SOL    HW2 8083   2.414   2.154   4.580
 2687SOL     OW 8084   2.870   3.318   4.201
 2687SOL    HW1 8085   2.824   3.390   4.149
 2687SOL    HW2 8086   2.866   3.338   4.299
 2688SOL     OW 8087   2.213   3.663   4.577
 2688SOL    HW1 8088   2.263   3.577   4.583
 2688SOL    HW2 8089   2.278   3.740   4.574
 2689SOL     OW 8090   3.657   2.928   4.597
 2689SOL    HW1 8091   3.595   2.913   4.521
 2689SOL    HW2 8092   3.605   2.939   4.682
 2690SOL     OW 8093   2.183   2.805   3.966
 2690SOL    HW1 8094   2.265   2.844   3.924
 2690SOL    HW2 8095   2.156   2.723   3.917
 2691SOL     OW 8096   3.320   2.597   4.452
 2691SOL    HW1 8097   3.315   2.532   4.527
 2691SOL    HW2 8098   3.400   2.656   4.465
 2692SOL     OW 8099   2.973   3.638   3.961
 2692SOL    HW1 8100   2.913   3.576   4.011
 2692SOL    HW2 8101   3.004   3.594   3.876
 2693SOL     OW 8102   3.494   3.239   3.805
 2693SOL    HW1 8103   3.462   3.333   3.795
 2693SOL    HW2 8104   3.418   3.176   3.793
 2694SOL     OW 8105   2.326   3.605   4.047
 2694SOL    HW1 8106   2.359   3.644   4.133
 2694SOL    HW2 8107   2.402   3.598   3.982
 2695SOL     OW 8108   3.262   1.969   4.150
 2695SOL    HW1 8109   3.238   1.932   4.060
 2695SOL    HW2 8110   3.361   1.985   4.154
 2696SOL     OW 8111   2.111   3.647   4.965
 2696SOL    HW1 8112   2.168   3.582   5.015
 2696SOL    HW2 8113   2.095   3.614   4.872
 2697SOL     OW 8114   2.802   3.560   4.628
 2697SOL    HW1 8115   2.882   3.503   4.649
 2697SOL    HW2 8116   2.753   3.520   4.551
 2698SOL     OW 8117   2.244   2.562   4.204
 2698SOL    HW1 8118   2.289   2.472   4.201
 2698SOL    HW2 8119   2.150   2.551   4.237
 2699SOL     OW 8120   2.476   1.984   3.841
 2699SOL    HW1 8121   2.574   1.962   3.848
 2699SOL    HW2 8122   2.445   1.967   3.748
 2700SOL     OW 8123   2.750   3.376   4.919
 2700SOL    HW1 8124   2.727   3.351   4.825
 2700SOL    HW2 8125   2.811   3.307   4.958
 2701SOL     OW 8126   2.665   3.264   4.648
 2701SOL    HW1 8127   2.755   3.278   4.606
 2701SOL    HW2 8128   2.594   3.266   4.577
 2702SOL     OW 8129   2.784   2.365   4.623
 2702SOL    HW1 8130   2.759   2.356   4.527
 2702SOL    HW2 8131   2.832   2.283   4.654
 2703SOL     OW 8132   2.401   1.926   4.236
 2703SOL    HW1 8133   2.320   1.927   4.294
 2703SOL    HW2 8134   2.404   2.009   4.181
 2704SOL     OW 8135   3.296   3.050   3.765
 2704SOL    HW1 8136   3.328   2.974   3.822
 2704SOL    HW2 8137   3.204   3.077   3.795
 2705SOL     OW 8138   2.159   1.897   3.895
 2705SOL    HW1 8139   2.208   1.981   3.874
 2705SOL    HW2 8140   2.221   1.832   3.940
 2706SOL     OW 8141   2.797   2.098   4.204
 2706SOL    HW1 8142   2.749   2.139   4.126
 2706SOL    HW2 8143   2.896   2.096   4.185
 2707SOL     OW 8144   3.089   3.432   4.517
 2707SOL    HW1 8145   3.110   3.506   4.452
 2707SOL    HW2 8146   3.157   3.432   4.590
 2708SOL     OW 8147   2.321   3.014   4.465
 2708SOL    HW1 8148   2.250   2.987   4.530
 2708SOL    HW2 8149   2.295   2.986   4.372
 2709SOL     OW 8150   3.133   3.659   4.315
 2709SOL    HW1 8151   3.177   3.723   4.251
 2709SOL    HW2 8152   3.083   3.711   4.385
 2710SOL     OW 8153   2.894   2.411   3.740
 2710SOL    HW1 8154   2.853   2.493   3.701
 2710SOL    HW2 8155   2.958   2.437   3.813
 2711SOL     OW 8156   2.423   2.084   4.871
 2711SOL    HW1 8157   2.461   2.000   4.908
 2711SOL    HW2 8158   2.335   2.103   4.915
 2712SOL     OW 8159   2.728   2.316   4.366
 2712SOL    HW1 8160   2.696   2.388   4.304
 2712SOL    HW2 8161   2.752   2.235   4.313
 2713SOL     OW 8162   2.879   1.901   4.477
 2713SOL    HW1 8163   2.807   1.906   4.408
 2713SOL    HW2 8164   2.855   1.832   4.546
 2714SOL     OW 8165   3.291   3.035   4.591
 2714SOL    HW1 8166   3.236   2.951   4.584
 2714SOL    HW2 8167   3.317   3.064   4.499
 2715SOL     OW 8168   3.328   2.452   4.716
 2715SOL    HW1 8169   3.298   2.357   4.723
 2715SOL    HW2 8170   3.401   2.468   4.782
 2716SOL     OW 8171   3.719   2.695   4.101
 2716SOL    HW1 8172   3.761   2.631   4.165
 2716SOL    HW2 8173   3.681   2.644   4.023
 2717SOL     OW 8174   2.350   3.247   3.898
 2717SOL    HW1 8175   2.263   3.232   3.945
 2717SOL    HW2 8176   2.333   3.273   3.803
 2718SOL     OW 8177   3.526   3.142   4.381
 2718SOL    HW1 8178   3.625   3.150   4.395
 2718SOL    HW2 8179   3.481   3.226   4.412
 2719SOL     OW 8180   3.252   2.437   3.802
 2719SOL    HW1 8181   3.198   2.416   3.883
 2719SOL    HW2 8182   3.343   2.396   3.811
 2720SOL     OW 8183   2.389   2.118   4.052
 2720SOL    HW1 8184   2.416   2.059   3.977
 2720SOL    HW2 8185   2.389   2.213   4.021
 2721SOL     OW 8186   3.616   3.085   5.312
 2721SOL    HW1 8187   3.707   3.046   5.299
 2721SOL    HW2 8188   3.624   3.181   5.336
 2722SOL     OW 8189   2.926   3.209   5.064
 2722SOL    HW1 8190   2.846   3.186   5.119
 2722SOL    HW2 8191   3.009   3.183   5.113
 2723SOL     OW 8192   2.973   3.057   4.824
 2723SOL    HW1 8193   2.933   3.101   4.905
 2723SOL    HW2 8194   2.932   3.094   4.741
 2724SOL     OW 8195   3.500   2.961   4.803
 2724SOL    HW1 8196   3.505   3.042   4.862
 2724SOL    HW2 8197   3.414   2.963   4.752
 2725SOL     OW 8198   2.567   2.912   4.092
 2725SOL    HW1 8199   2.553   2.919   4.191
 2725SOL    HW2 8200   2.651   2.861   4.074
 2726SOL     OW 8201   2.272   2.675   4.975
 2726SOL    HW1 8202   2.358   2.687   5.025
 2726SOL    HW2 8203   2.230   2.588   5.002
 2727SOL     OW 8204   3.136   2.248   4.986
 2727SOL    HW1 8205   3.157   2.322   5.050
 2727SOL    HW2 8206   3.047   2.265   4.943
 2728SOL     OW 8207   1.926   3.426   5.055
 2728SOL    HW1 8208   1.880   3.508   5.021
 2728SOL    HW2 8209   2.024   3.445   5.064
 2729SOL     OW 8210   2.229   2.962   4.225
 2729SOL    HW1 8211   2.222   3.045   4.169
 2729SOL    HW2 8212   2.233   2.882   4.165
 2730SOL     OW 8213   2.428   2.399   4.589
 2730SOL    HW1 8214   2.440   2.465   4.515
 2730SOL    HW2 8215   2.474   2.433   4.672
 2731SOL     OW 8216   3.114   3.210   4.112
 2731SOL    HW1 8217   3.164   3.287   4.152
 2731SOL    HW2 8218   3.019   3.212   4.144
 2732SOL     OW 8219   3.134   3.307   4.866
 2732SOL    HW1 8220   3.181   3.320   4.953
 2732SOL    HW2 8221   3.068   3.233   4.875
 2733SOL     OW 8222   3.444   2.501   4.196
 2733SOL    HW1 8223   3.413   2.562   4.269
 2733SOL    HW2 8224   3.494   2.553   4.127
 2734SOL     OW 8225   2.216   3.372   5.053
 2734SOL    HW1 8226   2.195   3.328   4.966
 2734SOL    HW2 8227   2.313   3.398   5.056
 2735SOL     OW 8228   2.366   1.912   5.464
 2735SOL    HW1 8229   2.324   1.855   5.394
 2735SOL    HW2 8230   2.300   1.981   5.496
 2736SOL     OW 8231   2.435   2.732   4.753
 2736SOL    HW1 8232   2.479   2.821   4.744
 2736SOL    HW2 8233   2.372   2.732   4.830
 2737SOL     OW 8234   3.222   2.724   4.769
 2737SOL    HW1 8235   3.147   2.724   4.703
 2737SOL    HW2 8236   3.259   2.632   4.778
 2738SOL     OW 8237   3.071   2.387   3.999
 2738SOL    HW1 8238   3.084   2.303   4.053
 2738SOL    HW2 8239   3.042   2.461   4.059
 2739SOL     OW 8240   2.169   2.075   4.955
 2739SOL    HW1 8241   2.146   2.112   5.045
 2739SOL    HW2 8242   2.139   1.980   4.949
 2740SOL     OW 8243   1.899   3.172   5.006
 2740SOL    HW1 8244   1.952   3.123   5.074
 2740SOL    HW2 8245   1.921   3.270   5.011
 2741SOL     OW 8246   2.594   2.496   4.788
 2741SOL    HW1 8247   2.653   2.470   4.712
 2741SOL    HW2 8248   2.566   2.592   4.777
 2742SOL     OW 8249   2.169   1.925   4.342
 2742SOL    HW1 8250   2.158   2.019   4.375
 2742SOL    HW2 8251   2.164   1.862   4.419
 2743SOL     OW 8252   3.484   2.229   4.098
 2743SOL    HW1 8253   3.486   2.153   4.162
 2743SOL    HW2 8254   3.436   2.306   4.138
 2744SOL     OW 8255   2.885   2.628   4.690
 2744SOL    HW1 8256   2.900   2.649   4.786
 2744SOL    HW2 8257   2.855   2.533   4.681
 2745SOL     OW 8258   3.402   2.136   3.849
 2745SOL    HW1 8259   3.341   2.061   3.872
 2745SOL    HW2 8260   3.424   2.188   3.932
 2746SOL     OW 8261   3.165   2.700   3.766
 2746SOL    HW1 8262   3.199   2.607   3.781
 2746SOL    HW2 8263   3.183   2.727   3.671
 2747SOL     OW 8264   2.930   3.195   4.573
 2747SOL    HW1 8265   2.937   3.111   4.518
 2747SOL    HW2 8266   2.992   3.264   4.537
 2748SOL     OW 8267   2.181   2.672   4.673
 2748SOL    HW1 8268   2.274   2.708   4.678
 2748SOL    HW2 8269   2.175   2.587   4.725
 2749SOL     OW 8270   2.201   2.371   4.730
 2749SOL    HW1 8271   2.149   2.288   4.713
 2749SOL    HW2 8272   2.278   2.376   4.666
 2750SOL     OW 8273   3.022   2.069   5.201
 2750SOL    HW1 8274   3.022   2.133   5.278
 2750SOL    HW2 8275   3.050   2.117   5.118
 2751SOL     OW 8276   1.870   3.188   3.924
 2751SOL    HW1 8277   1.777   3.209   3.893
 2751SOL    HW2 8278   1.880   3.089   3.937
 2752SOL     OW 8279   1.950   3.663   4.651
 2752SOL    HW1 8280   1.908   3.577   4.624
 2752SOL    HW2 8281   2.044   3.666   4.617
 2753SOL     OW 8282   2.366   3.430   4.634
 2753SOL    HW1 8283   2.432   3.504   4.643
 2753SOL    HW2 8284   2.410   3.351   4.592
 2754SOL     OW 8285   2.864   2.658   4.962
 2754SOL    HW1 8286   2.905   2.626   5.048
 2754SOL    HW2 8287   2.768   2.631   4.959
 2755SOL     OW 8288   1.902   2.406   4.838
 2755SOL    HW1 8289   1.987   2.373   4.797
 2755SOL    HW2 8290   1.915   2.421   4.936
 2756SOL     OW 8291   2.677   2.434   4.049
 2756SOL    HW1 8292   2.684   2.345   4.003
 2756SOL    HW2 8293   2.583   2.468   4.041
 2757SOL     OW 8294   3.519   2.466   4.930
 2757SOL    HW1 8295   3.481   2.397   4.992
 2757SOL    HW2 8296   3.601   2.430   4.886
 2758SOL     OW 8297   2.533   2.326   4.993
 2758SOL    HW1 8298   2.499   2.237   4.963
 2758SOL    HW2 8299   2.559   2.380   4.913
 2759SOL     OW 8300   2.792   3.540   5.189
 2759SOL    HW1 8301   2.768   3.522   5.094
 2759SOL    HW2 8302   2.822   3.634   5.199
 2760SOL     OW 8303   2.335   2.362   3.915
 2760SOL    HW1 8304   2.396   2.442   3.919
 2760SOL    HW2 8305   2.240   2.393   3.922
 2761SOL     OW 8306   2.021   2.999   5.190
 2761SOL    HW1 8307   2.043   2.938   5.266
 2761SOL    HW2 8308   2.031   2.950   5.104
 2762SOL     OW 8309   3.209   2.921   4.958
 2762SOL    HW1 8310   3.233   2.858   4.884
 2762SOL    HW2 8311   3.119   2.961   4.940
 2763SOL     OW 8312   3.164   2.717   4.033
 2763SOL    HW1 8313   3.078   2.686   4.075
 2763SOL    HW2 8314   3.160   2.703   3.934
 2764SOL     OW 8315   3.621   3.609   4.878
 2764SOL    HW1 8316   3.682   3.639   4.805
 2764SOL    HW2 8317   3.583   3.520   4.856
 2765SOL     OW 8318   3.114   3.593   4.852
 2765SOL    HW1 8319   3.198   3.598   4.798
 2765SOL    HW2 8320   3.091   3.497   4.870
 2766SOL     OW 8321   1.945   3.120   4.746
 2766SOL    HW1 8322   1.940   3.119   4.846
 2766SOL    HW2 8323   1.862   3.079   4.708
 2767SOL     OW 8324   3.588   1.997   4.247
 2767SOL    HW1 8325   3.661   1.980   4.180
 2767SOL    HW2 8326   3.557   1.910   4.285
 2768SOL     OW 8327   3.250   3.435   4.201
 2768SOL    HW1 8328   3.317   3.447   4.127
 2768SOL    HW2 8329   3.210   3.524   4.224
 2769SOL     OW 8330   3.142   2.789   4.396
 2769SOL    HW1 8331   3.202   2.708   4.398
 2769SOL    HW2 8332   3.182   2.858   4.336
 2770SOL     OW 8333   2.534   3.478   3.878
 2770SOL    HW1 8334   2.543   3.488   3.779
 2770SOL    HW2 8335   2.494   3.389   3.899
 2771SOL     OW 8336   3.703   2.037   4.687
 2771SOL    HW1 8337   3.742   1.952   4.651
 2771SOL    HW2 8338   3.605   2.039   4.668
 2772SOL     OW 8339   2.125   2.188   4.444
 2772SOL    HW1 8340   2.046   2.239   4.410
 2772SOL    HW2 8341   2.116   2.173   4.542
 2773SOL     OW 8342   3.056   3.474   3.755
 2773SOL    HW1 8343   3.062   3.381   3.792
 2773SOL    HW2 8344   2.997   3.474   3.675
 2774SOL     OW 8345   2.684   2.864   5.096
 2774SOL    HW1 8346   2.724   2.863   5.004
 2774SOL    HW2 8347   2.694   2.956   5.136
 2775SOL     OW 8348   2.778   2.772   4.015
 2775SOL    HW1 8349   2.841   2.810   3.947
 2775SOL    HW2 8350   2.818   2.689   4.054
 2776SOL     OW 8351   3.366   3.469   3.768
 2776SOL    HW1 8352   3.274   3.506   3.775
 2776SOL    HW2 8353   3.404   3.489   3.678
 2777SOL     OW 8354   2.234   3.150   5.214
 2777SOL    HW1 8355   2.221   3.243   5.180
 2777SOL    HW2 8356   2.150   3.098   5.201
 2778SOL     OW 8357   3.476   3.154   5.013
 2778SOL    HW1 8358   3.536   3.157   5.093
 2778SOL    HW2 8359   3.401   3.218   5.026
 2779SOL     OW 8360   2.901   2.960   4.420
 2779SOL    HW1 8361   2.831   2.913   4.474
 2779SOL    HW2 8362   2.960   2.892   4.377
 2780SOL     OW 8363   2.876   2.098   4.695
 2780SOL    HW1 8364   2.868   2.062   4.602
 2780SOL    HW2 8365   2.874   2.022   4.760
 2781SOL     OW 8366   2.452   3.349   4.215
 2781SOL    HW1 8367   2.494   3.291   4.145
 2781SOL    HW2 8368   2.408   3.428   4.171
 2782SOL     OW 8369   3.571   2.247   5.105
 2782SOL    HW1 8370   3.644   2.316   5.109
 2782SOL    HW2 8371   3.599   2.172   5.046
 2783SOL     OW 8372   2.117   3.210   4.014
 2783SOL    HW1 8373   2.021   3.211   3.987
 2783SOL    HW2 8374   2.129   3.263   4.098
 2784SOL     OW 8375   2.534   2.065   5.213
 2784SOL    HW1 8376   2.624   2.049   5.173
 2784SOL    HW2 8377   2.542   2.070   5.312
 2785SOL     OW 8378   1.937   2.207   3.757
 2785SOL    HW1 8379   1.845   2.179   3.728
 2785SOL    HW2 8380   1.968   2.284   3.701
 2786SOL     OW 8381   1.934   2.028   4.042
 2786SOL    HW1 8382   1.917   2.111   3.988
 2786SOL    HW2 8383   2.024   1.991   4.020
 2787SOL     OW 8384   3.045   3.197   3.843
 2787SOL    HW1 8385   2.946   3.186   3.845
 2787SOL    HW2 8386   3.079   3.212   3.936
 2788SOL     OW 8387   2.475   2.704   5.155
 2788SOL    HW1 8388   2.531   2.785   5.138
 2788SOL    HW2 8389   2.534   2.624   5.158
 2789SOL     OW 8390   3.355   3.629   4.683
 2789SOL    HW1 8391   3.388   3.693   4.614
 2789SOL    HW2 8392   3.421   3.623   4.758
 2790SOL     OW 8393   2.252   3.603   5.284
 2790SOL    HW1 8394   2.161   3.644   5.282
 2790SOL    HW2 8395   2.245   3.509   5.316
 2791SOL     OW 8396   3.536   2.745   4.978
 2791SOL    HW1 8397   3.509   2.656   4.941
 2791SOL    HW2 8398   3.537   2.813   4.905
 2792SOL     OW 8399   3.087   2.187   4.173
 2792SOL    HW1 8400   3.152   2.113   4.162
 2792SOL    HW2 8401   3.107   2.237   4.257
 2793SOL     OW 8402   2.456   2.607   4.376
 2793SOL    HW1 8403   2.506   2.692   4.357
 2793SOL    HW2 8404   2.368   2.609   4.328
 2794SOL     OW 8405   3.592   2.796   5.241
 2794SOL    HW1 8406   3.630   2.887   5.256
 2794SOL    HW2 8407   3.584   2.779   5.142
 2795SOL     OW 8408   2.721   3.236   3.740
 2795SOL    HW1 8409   2.675   3.251   3.828
 2795SOL    HW2 8410   2.765   3.321   3.710
 2796SOL     OW 8411   2.523   3.652   4.677
 2796SOL    HW1 8412   2.477   3.740   4.664
 2796SOL    HW2 8413   2.622   3.664   4.670
 2797SOL     OW 8414   2.721   2.818   4.585
 2797SOL    HW1 8415   2.775   2.749   4.633
 2797SOL    HW2 8416   2.689   2.887   4.651
 2798SOL     OW 8417   2.945   2.846   3.811
 2798SOL    HW1 8418   2.922   2.899   3.729
 2798SOL    HW2 8419   3.026   2.790   3.792
 2799SOL     OW 8420   3.723   3.431   4.575
 2799SOL    HW1 8421   3.652   3.419   4.505
 2799SOL    HW2 8422   3.724   3.352   4.635
 2800SOL     OW 8423   1.941   3.102   4.377
 2800SOL    HW1 8424   1.940   3.055   4.465
 2800SOL    HW2 8425   2.023   3.074   4.326
 2801SOL     OW 8426   3.686   2.054   4.951
 2801SOL    HW1 8427   3.682   1.964   4.995
 2801SOL    HW2 8428   3.689   2.043   4.852
 2802SOL     OW 8429   2.290   2.286   4.244
 2802SOL    HW1 8430   2.320   2.214   4.182
 2802SOL    HW2 8431   2.251   2.246   4.327
 2803SOL     OW 8432   3.567   3.349   4.828
 2803SOL    HW1 8433   3.474   3.324   4.801
 2803SOL    HW2 8434   3.593   3.299   4.910
 2804SOL     OW 8435   2.179   2.409   5.004
 2804SOL    HW1 8436   2.217   2.350   5.076
 2804SOL    HW2 8437   2.219   2.383   4.916
 2805SOL     OW 8438   2.674   3.448   4.411
 2805SOL    HW1 8439   2.706   3.458   4.317
 2805SOL    HW2 8440   2.595   3.386   4.413
 2806SOL     OW 8441   3.286   2.076   4.836
 2806SOL    HW1 8442   3.338   2.011   4.891
 2806SOL    HW2 8443   3.237   2.139   4.897
 2807SOL     OW 8444   2.863   1.896   4.878
 2807SOL    HW1 8445   2.800   1.824   4.847
 2807SOL    HW2 8446   2.956   1.860   4.878
 2808SOL     OW 8447   2.632   3.192   4.025
 2808SOL    HW1 8448   2.586   3.105   4.042
 2808SOL    HW2 8449   2.723   3.189   4.066
 2809SOL     OW 8450   2.480   3.429   5.008
 2809SOL    HW1 8451   2.475   3.511   5.065
 2809SOL    HW2 8452   2.569   3.426   4.963
 2810SOL     OW 8453   3.214   1.914   3.892
 2810SOL    HW1 8454   3.249   1.873   3.808
 2810SOL    HW2 8455   3.124   1.876   3.912
 2811SOL     OW 8456   3.162   2.315   4.415
 2811SOL    HW1 8457   3.103   2.395   4.419
 2811SOL    HW2 8458   3.177   2.280   4.508
 2812SOL     OW 8459   3.455   2.083   4.606
 2812SOL    HW1 8460   3.371   2.082   4.660
 2812SOL    HW2 8461   3.457   2.166   4.550
 2813SOL     OW 8462   1.901   2.939   4.024
 2813SOL    HW1 8463   2.000   2.928   4.015
 2813SOL    HW2 8464   1.861   2.853   4.056
 2814SOL     OW 8465   2.737   3.508   4.061
 2814SOL    HW1 8466   2.660   3.473   4.007
 2814SOL    HW2 8467   2.705   3.579   4.123
 2815SOL     OW 8468   2.092   4.352   0.113
 2815SOL    HW1 8469   1.999   4.350   0.150
 2815SOL    HW2 8470   2.093   4.313   0.021
 2816SOL     OW 8471   2.087   3.999   0.996
 2816SOL    HW1 8472   2.122   3.982   1.088
 2816SOL    HW2 8473   1.999   3.954   0.984
 2817SOL     OW 8474   1.881   4.092   0.647
 2817SOL    HW1 8475   1.799   4.135   0.686
 2817SOL    HW2 8476   1.853   4.019   0.584
 2818SOL     OW 8477   2.431   4.999   1.165
 2818SOL    HW1 8478   2.338   4.992   1.128
 2818SOL    HW2 8479   2.442   5.088   1.209
 2819SOL     OW 8480   3.417   5.235   0.703
 2819SOL    HW1 8481   3.360   5.219   0.784
 2819SOL    HW2 8482   3.358   5.245   0.623
 2820SOL     OW 8483   2.997   4.427   0.717
 2820SOL    HW1 8484   3.054   4.505   0.692
 2820SOL    HW2 8485   2.937   4.453   0.793
 2821SOL     OW 8486   3.617   4.331   0.231
 2821SOL    HW1 8487   3.605   4.318   0.132
 2821SOL    HW2 8488   3.587   4.250   0.280
 2822SOL     OW 8489   2.630   4.868   1.023
 2822SOL    HW1 8490   2.552   4.885   1.083
 2822SOL    HW2 8491   2.664   4.955   0.987
 2823SOL     OW 8492   2.712   4.522   1.823
 2823SOL    HW1 8493   2.708   4.598   1.888
 2823SOL    HW2 8494   2.734   4.558   1.732
 2824SOL     OW 8495   2.547   4.736   0.665
 2824SOL    HW1 8496   2.616   4.720   0.735
 2824SOL    HW2 8497   2.474   4.793   0.703
 2825SOL     OW 8498   2.548   4.885   1.803
 2825SOL    HW1 8499   2.608   4.964   1.817
 2825SOL    HW2 8500   2.462   4.916   1.762
 2826SOL     OW 8501   2.197   5.159   1.061
 2826SOL    HW1 8502   2.119   5.128   1.008
 2826SOL    HW2 8503   2.255   5.217   1.004
 2827SOL     OW 8504   2.300   4.116   1.499
 2827SOL    HW1 8505   2.382   4.060   1.508
 2827SOL    HW2 8506   2.219   4.058   1.503
 2828SOL     OW 8507   3.465   4.171   0.737
 2828SOL    HW1 8508   3.391   4.217   0.687
 2828SOL    HW2 8509   3.516   4.239   0.790
 2829SOL     OW 8510   2.093   5.437   0.483
 2829SOL    HW1 8511   2.127   5.514   0.537
 2829SOL    HW2 8512   2.137   5.437   0.393
 2830SOL     OW 8513   2.989   5.065   1.690
 2830SOL    HW1 8514   3.036   5.065   1.778
 2830SOL    HW2 8515   2.941   4.978   1.679
 2831SOL     OW 8516   2.102   4.815   0.886
 2831SOL    HW1 8517   2.116   4.731   0.938
 2831SOL    HW2 8518   2.047   4.879   0.941
 2832SOL     OW 8519   2.468   4.688   0.123
 2832SOL    HW1 8520   2.475   4.772   0.069
 2832SOL    HW2 8521   2.514   4.701   0.211
 2833SOL     OW 8522   3.456   3.838   1.480
 2833SOL    HW1 8523   3.438   3.905   1.408
 2833SOL    HW2 8524   3.453   3.884   1.569
 2834SOL     OW 8525   1.984   4.367   0.563
 2834SOL    HW1 8526   1.939   4.279   0.580
 2834SOL    HW2 8527   1.983   4.421   0.647
 2835SOL     OW 8528   3.551   4.646   0.612
 2835SOL    HW1 8529   3.646   4.617   0.620
 2835SOL    HW2 8530   3.543   4.711   0.537
 2836SOL     OW 8531   3.503   4.832   0.432
 2836SOL    HW1 8532   3.589   4.834   0.380
 2836SOL    HW2 8533   3.517   4.879   0.520
 2837SOL     OW 8534   1.975   4.461   1.597
 2837SOL    HW1 8535   2.063   4.448   1.642
 2837SOL    HW2 8536   1.962   4.558   1.575
 2838SOL     OW 8537   2.475   5.089   0.726
 2838SOL    HW1 8538   2.426   5.002   0.735
 2838SOL    HW2 8539   2.452   5.132   0.639
 2839SOL     OW 8540   3.155   4.952   1.423
 2839SOL    HW1 8541   3.192   4.879   1.365
 2839SOL    HW2 8542   3.207   4.957   1.508
 2840SOL     OW 8543   2.671   3.728   0.502
 2840SOL    HW1 8544   2.711   3.819   0.493
 2840SOL    HW2 8545   2.571   3.736   0.508
 2841SOL     OW 8546   2.059   4.700   1.264
 2841SOL    HW1 8547   2.148   4.655   1.250
 2841SOL    HW2 8548   1.986   4.635   1.245
 2842SOL     OW 8549   3.387   4.723   0.190
 2842SOL    HW1 8550   3.324   4.647   0.203
 2842SOL    HW2 8551   3.435   4.741   0.276
 2843SOL     OW 8552   2.179   3.975   1.801
 2843SOL    HW1 8553   2.250   4.046   1.807
 2843SOL    HW2 8554   2.091   4.014   1.829
 2844SOL     OW 8555   3.328   5.141   0.953
 2844SOL    HW1 8556   3.269   5.147   1.033
 2844SOL    HW2 8557   3.313   5.053   0.907
 2845SOL     OW 8558   2.460   4.453   0.270
 2845SOL    HW1 8559   2.484   4.522   0.202
 2845SOL    HW2 8560   2.382   4.486   0.324
 2846SOL     OW 8561   3.143   4.069   0.944
 2846SOL    HW1 8562   3.057   4.019   0.931
 2846SOL    HW2 8563   3.205   4.015   1.000
 2847SOL     OW 8564   2.669   4.329   1.465
 2847SOL    HW1 8565   2.622   4.326   1.554
 2847SOL    HW2 8566   2.618   4.274   1.399
 2848SOL     OW 8567   3.256   4.193   1.674
 2848SOL    HW1 8568   3.236   4.236   1.762
 2848SOL    HW2 8569   3.334   4.131   1.683
 2849SOL     OW 8570   2.835   4.614   1.572
 2849SOL    HW1 8571   2.881   4.530   1.543
 2849SOL    HW2 8572   2.779   4.648   1.497
 2850SOL     OW 8573   2.853   4.134   1.242
 2850SOL    HW1 8574   2.776   4.168   1.296
 2850SOL    HW2 8575   2.819   4.083   1.163
 2851SOL     OW 8576   2.903   4.425   0.429
 2851SOL    HW1 8577   2.929   4.421   0.525
 2851SOL    HW2 8578   2.818   4.374   0.415
 2852SOL     OW 8579   1.938   4.535   0.789
 2852SOL    HW1 8580   2.037   4.523   0.798
 2852SOL    HW2 8581   1.914   4.630   0.810
 2853SOL     OW 8582   2.727   4.072   0.195
 2853SOL    HW1 8583   2.786   4.135   0.146
 2853SOL    HW2 8584   2.746   3.978   0.166
 2854SOL     OW 8585   3.581   4.309   1.831
 2854SOL    HW1 8586   3.555   4.398   1.795
 2854SOL    HW2 8587   3.579   4.241   1.758
 2855SOL     OW 8588   3.224   4.868   0.545
 2855SOL    HW1 8589   3.307   4.839   0.497
 2855SOL    HW2 8590   3.175   4.935   0.489
 2856SOL     OW 8591   2.412   3.920   0.885
 2856SOL    HW1 8592   2.407   3.915   0.985
 2856SOL    HW2 8593   2.414   4.016   0.856
 2857SOL     OW 8594   3.657   4.790   0.873
 2857SOL    HW1 8595   3.595   4.775   0.797
 2857SOL    HW2 8596   3.605   4.801   0.958
 2858SOL     OW 8597   2.183   4.667   0.242
 2858SOL    HW1 8598   2.265   4.706   0.200
 2858SOL    HW2 8599   2.156   4.585   0.193
 2859SOL     OW 8600   3.320   4.459   0.728
 2859SOL    HW1 8601   3.315   4.394   0.803
 2859SOL    HW2 8602   3.400   4.518   0.741
 2860SOL     OW 8603   2.323   4.990   1.727
 2860SOL    HW1 8604   2.273   4.991   1.641
 2860SOL    HW2 8605   2.260   4.972   1.803
 2861SOL     OW 8606   2.064   4.009   1.498
 2861SOL    HW1 8607   1.984   4.069   1.485
 2861SOL    HW2 8608   2.054   3.960   1.584
 2862SOL     OW 8609   3.494   5.101   0.081
 2862SOL    HW1 8610   3.462   5.195   0.071
 2862SOL    HW2 8611   3.418   5.038   0.069
 2863SOL     OW 8612   3.262   3.831   0.426
 2863SOL    HW1 8613   3.238   3.794   0.336
 2863SOL    HW2 8614   3.361   3.847   0.430
 2864SOL     OW 8615   2.244   4.424   0.480
 2864SOL    HW1 8616   2.289   4.334   0.477
 2864SOL    HW2 8617   2.150   4.413   0.513
 2865SOL     OW 8618   3.409   3.946   1.729
 2865SOL    HW1 8619   3.404   3.983   1.821
 2865SOL    HW2 8620   3.337   3.877   1.717
 2866SOL     OW 8621   2.643   3.988   1.749
 2866SOL    HW1 8622   2.710   3.927   1.792
 2866SOL    HW2 8623   2.570   4.007   1.814
 2867SOL     OW 8624   3.213   4.314   1.433
 2867SOL    HW1 8625   3.241   4.271   1.518
 2867SOL    HW2 8626   3.238   4.410   1.434
 2868SOL     OW 8627   2.784   4.227   0.899
 2868SOL    HW1 8628   2.759   4.218   0.803
 2868SOL    HW2 8629   2.832   4.145   0.930
 2869SOL     OW 8630   2.401   3.788   0.512
 2869SOL    HW1 8631   2.320   3.789   0.570
 2869SOL    HW2 8632   2.404   3.871   0.457
 2870SOL     OW 8633   3.296   4.912   0.041
 2870SOL    HW1 8634   3.328   4.836   0.098
 2870SOL    HW2 8635   3.204   4.939   0.071
 2871SOL     OW 8636   2.797   3.960   0.480
 2871SOL    HW1 8637   2.749   4.001   0.402
 2871SOL    HW2 8638   2.896   3.958   0.461
 2872SOL     OW 8639   2.938   4.407   1.464
 2872SOL    HW1 8640   2.858   4.346   1.467
 2872SOL    HW2 8641   3.019   4.354   1.440
 2873SOL     OW 8642   3.089   5.294   0.793
 2873SOL    HW1 8643   3.110   5.368   0.728
 2873SOL    HW2 8644   3.157   5.294   0.866
 2874SOL     OW 8645   2.321   4.876   0.741
 2874SOL    HW1 8646   2.250   4.849   0.806
 2874SOL    HW2 8647   2.295   4.848   0.648
 2875SOL     OW 8648   2.894   4.273   0.016
 2875SOL    HW1 8649   2.853   4.355  -0.023
 2875SOL    HW2 8650   2.958   4.299   0.089
 2876SOL     OW 8651   1.940   4.280   1.386
 2876SOL    HW1 8652   2.032   4.279   1.345
 2876SOL    HW2 8653   1.934   4.354   1.453
 2877SOL     OW 8654   2.423   3.946   1.147
 2877SOL    HW1 8655   2.461   3.862   1.184
 2877SOL    HW2 8656   2.335   3.965   1.191
 2878SOL     OW 8657   2.728   4.178   0.642
 2878SOL    HW1 8658   2.696   4.250   0.580
 2878SOL    HW2 8659   2.752   4.097   0.589
 2879SOL     OW 8660   2.879   3.763   0.753
 2879SOL    HW1 8661   2.807   3.768   0.684
 2879SOL    HW2 8662   2.855   3.694   0.822
 2880SOL     OW 8663   3.291   4.897   0.867
 2880SOL    HW1 8664   3.236   4.813   0.860
 2880SOL    HW2 8665   3.317   4.926   0.775
 2881SOL     OW 8666   3.328   4.314   0.992
 2881SOL    HW1 8667   3.298   4.219   0.999
 2881SOL    HW2 8668   3.401   4.330   1.058
 2882SOL     OW 8669   3.719   4.557   0.377
 2882SOL    HW1 8670   3.761   4.493   0.441
 2882SOL    HW2 8671   3.681   4.506   0.299
 2883SOL     OW 8672   3.526   5.004   0.657
 2883SOL    HW1 8673   3.625   5.012   0.671
 2883SOL    HW2 8674   3.481   5.088   0.688
 2884SOL     OW 8675   3.252   4.299   0.078
 2884SOL    HW1 8676   3.198   4.278   0.159
 2884SOL    HW2 8677   3.343   4.258   0.087
 2885SOL     OW 8678   2.389   3.980   0.328
 2885SOL    HW1 8679   2.416   3.921   0.253
 2885SOL    HW2 8680   2.389   4.075   0.297
 2886SOL     OW 8681   3.616   4.947   1.588
 2886SOL    HW1 8682   3.707   4.908   1.575
 2886SOL    HW2 8683   3.624   5.043   1.612
 2887SOL     OW 8684   2.926   5.071   1.340
 2887SOL    HW1 8685   2.846   5.048   1.395
 2887SOL    HW2 8686   3.009   5.045   1.389
 2888SOL     OW 8687   2.973   4.919   1.100
 2888SOL    HW1 8688   2.933   4.963   1.181
 2888SOL    HW2 8689   2.932   4.956   1.017
 2889SOL     OW 8690   3.500   4.823   1.079
 2889SOL    HW1 8691   3.505   4.904   1.138
 2889SOL    HW2 8692   3.414   4.825   1.028
 2890SOL     OW 8693   2.777   3.813   1.402
 2890SOL    HW1 8694   2.802   3.793   1.307
 2890SOL    HW2 8695   2.849   3.869   1.444
 2891SOL     OW 8696   2.842   4.840   1.719
 2891SOL    HW1 8697   2.743   4.846   1.729
 2891SOL    HW2 8698   2.865   4.760   1.663
 2892SOL     OW 8699   2.567   4.774   0.368
 2892SOL    HW1 8700   2.553   4.781   0.467
 2892SOL    HW2 8701   2.651   4.723   0.350
 2893SOL     OW 8702   2.272   4.537   1.251
 2893SOL    HW1 8703   2.358   4.549   1.301
 2893SOL    HW2 8704   2.230   4.450   1.278
 2894SOL     OW 8705   3.136   4.110   1.262
 2894SOL    HW1 8706   3.157   4.184   1.326
 2894SOL    HW2 8707   3.047   4.127   1.219
 2895SOL     OW 8708   2.229   4.824   0.501
 2895SOL    HW1 8709   2.222   4.907   0.445
 2895SOL    HW2 8710   2.233   4.744   0.441
 2896SOL     OW 8711   2.428   4.261   0.865
 2896SOL    HW1 8712   2.440   4.327   0.791
 2896SOL    HW2 8713   2.474   4.295   0.948
 2897SOL     OW 8714   3.114   5.072   0.388
 2897SOL    HW1 8715   3.164   5.149   0.428
 2897SOL    HW2 8716   3.019   5.074   0.420
 2898SOL     OW 8717   3.134   5.169   1.142
 2898SOL    HW1 8718   3.181   5.182   1.229
 2898SOL    HW2 8719   3.068   5.095   1.151
 2899SOL     OW 8720   3.444   4.363   0.472
 2899SOL    HW1 8721   3.413   4.424   0.545
 2899SOL    HW2 8722   3.494   4.415   0.403
 2900SOL     OW 8723   2.264   4.475   1.598
 2900SOL    HW1 8724   2.332   4.530   1.551
 2900SOL    HW2 8725   2.304   4.387   1.625
 2901SOL     OW 8726   3.449   4.503   1.670
 2901SOL    HW1 8727   3.357   4.541   1.665
 2901SOL    HW2 8728   3.509   4.550   1.605
 2902SOL     OW 8729   2.875   3.829   1.770
 2902SOL    HW1 8730   2.881   3.914   1.718
 2902SOL    HW2 8731   2.907   3.753   1.713
 2903SOL     OW 8732   2.366   3.774   1.740
 2903SOL    HW1 8733   2.324   3.717   1.670
 2903SOL    HW2 8734   2.300   3.843   1.772
 2904SOL     OW 8735   2.435   4.594   1.029
 2904SOL    HW1 8736   2.479   4.683   1.020
 2904SOL    HW2 8737   2.372   4.594   1.106
 2905SOL     OW 8738   3.222   4.586   1.045
 2905SOL    HW1 8739   3.147   4.586   0.979
 2905SOL    HW2 8740   3.259   4.494   1.054
 2906SOL     OW 8741   3.071   4.249   0.275
 2906SOL    HW1 8742   3.084   4.165   0.329
 2906SOL    HW2 8743   3.042   4.323   0.335
 2907SOL     OW 8744   2.169   3.937   1.231
 2907SOL    HW1 8745   2.146   3.974   1.321
 2907SOL    HW2 8746   2.139   3.842   1.225
 2908SOL     OW 8747   1.899   5.034   1.282
 2908SOL    HW1 8748   1.952   4.985   1.350
 2908SOL    HW2 8749   1.921   5.132   1.287
 2909SOL     OW 8750   2.594   4.358   1.064
 2909SOL    HW1 8751   2.653   4.332   0.988
 2909SOL    HW2 8752   2.566   4.454   1.053
 2910SOL     OW 8753   3.590   4.659   1.854
 2910SOL    HW1 8754   3.544   4.652   1.765
 2910SOL    HW2 8755   3.528   4.703   1.920
 2911SOL     OW 8756   2.169   3.787   0.618
 2911SOL    HW1 8757   2.158   3.881   0.651
 2911SOL    HW2 8758   2.164   3.724   0.695
 2912SOL     OW 8759   3.484   4.091   0.374
 2912SOL    HW1 8760   3.486   4.015   0.438
 2912SOL    HW2 8761   3.436   4.168   0.414
 2913SOL     OW 8762   2.885   4.490   0.966
 2913SOL    HW1 8763   2.900   4.511   1.062
 2913SOL    HW2 8764   2.855   4.395   0.957
 2914SOL     OW 8765   3.721   5.242   1.605
 2914SOL    HW1 8766   3.735   5.269   1.510
 2914SOL    HW2 8767   3.804   5.264   1.658
 2915SOL     OW 8768   2.212   4.622   1.804
 2915SOL    HW1 8769   2.288   4.666   1.852
 2915SOL    HW2 8770   2.247   4.575   1.722
 2916SOL     OW 8771   3.402   3.998   0.125
 2916SOL    HW1 8772   3.341   3.923   0.148
 2916SOL    HW2 8773   3.424   4.050   0.208
 2917SOL     OW 8774   3.165   4.562   0.042
 2917SOL    HW1 8775   3.199   4.469   0.057
 2917SOL    HW2 8776   3.183   4.589  -0.053
 2918SOL     OW 8777   2.181   4.534   0.949
 2918SOL    HW1 8778   2.274   4.570   0.954
 2918SOL    HW2 8779   2.175   4.449   1.001
 2919SOL     OW 8780   2.201   4.233   1.006
 2919SOL    HW1 8781   2.149   4.150   0.989
 2919SOL    HW2 8782   2.278   4.238   0.942
 2920SOL     OW 8783   3.000   4.104   1.678
 2920SOL    HW1 8784   2.955   4.167   1.742
 2920SOL    HW2 8785   3.093   4.135   1.661
 2921SOL     OW 8786   3.022   3.931   1.477
 2921SOL    HW1 8787   3.022   3.995   1.554
 2921SOL    HW2 8788   3.050   3.979   1.394
 2922SOL     OW 8789   2.864   4.520   1.238
 2922SOL    HW1 8790   2.905   4.488   1.324
 2922SOL    HW2 8791   2.768   4.493   1.235
 2923SOL     OW 8792   1.902   4.268   1.114
 2923SOL    HW1 8793   1.987   4.235   1.073
 2923SOL    HW2 8794   1.915   4.283   1.212
 2924SOL     OW 8795   2.051   4.244   1.722
 2924SOL    HW1 8796   2.110   4.204   1.652
 2924SOL    HW2 8797   1.993   4.315   1.681
 2925SOL     OW 8798   3.231   4.674   1.660
 2925SOL    HW1 8799   3.270   4.763   1.680
 2925SOL    HW2 8800   3.241   4.654   1.563
 2926SOL     OW 8801   2.677   4.296   0.325
 2926SOL    HW1 8802   2.684   4.207   0.279
 2926SOL    HW2 8803   2.583   4.330   0.317
 2927SOL     OW 8804   3.519   4.328   1.206
 2927SOL    HW1 8805   3.481   4.259   1.268
 2927SOL    HW2 8806   3.601   4.292   1.162
 2928SOL     OW 8807   2.533   4.188   1.269
 2928SOL    HW1 8808   2.499   4.099   1.239
 2928SOL    HW2 8809   2.559   4.242   1.189
 2929SOL     OW 8810   2.335   4.224   0.191
 2929SOL    HW1 8811   2.396   4.304   0.195
 2929SOL    HW2 8812   2.240   4.255   0.198
 2930SOL     OW 8813   2.021   4.861   1.466
 2930SOL    HW1 8814   2.043   4.800   1.542
 2930SOL    HW2 8815   2.031   4.812   1.380
 2931SOL     OW 8816   3.209   4.783   1.234
 2931SOL    HW1 8817   3.233   4.720   1.160
 2931SOL    HW2 8818   3.119   4.823   1.216
 2932SOL     OW 8819   3.164   4.579   0.309
 2932SOL    HW1 8820   3.078   4.548   0.351
 2932SOL    HW2 8821   3.160   4.565   0.210
 2933SOL     OW 8822   1.945   4.982   1.022
 2933SOL    HW1 8823   1.940   4.981   1.122
 2933SOL    HW2 8824   1.862   4.941   0.984
 2934SOL     OW 8825   2.765   3.810   0.133
 2934SOL    HW1 8826   2.816   3.811   0.047
 2934SOL    HW2 8827   2.821   3.768   0.204
 2935SOL     OW 8828   3.588   3.859   0.523
 2935SOL    HW1 8829   3.661   3.842   0.456
 2935SOL    HW2 8830   3.557   3.772   0.561
 2936SOL     OW 8831   3.142   4.651   0.672
 2936SOL    HW1 8832   3.202   4.570   0.674
 2936SOL    HW2 8833   3.182   4.720   0.612
 2937SOL     OW 8834   2.692   4.997   1.422
 2937SOL    HW1 8835   2.687   5.030   1.517
 2937SOL    HW2 8836   2.606   5.016   1.376
 2938SOL     OW 8837   3.703   3.899   0.963
 2938SOL    HW1 8838   3.742   3.814   0.927
 2938SOL    HW2 8839   3.605   3.901   0.944
 2939SOL     OW 8840   2.125   4.050   0.720
 2939SOL    HW1 8841   2.046   4.101   0.686
 2939SOL    HW2 8842   2.116   4.035   0.818
 2940SOL     OW 8843   2.684   4.726   1.372
 2940SOL    HW1 8844   2.724   4.725   1.280
 2940SOL    HW2 8845   2.694   4.818   1.412
 2941SOL     OW 8846   2.778   4.634   0.291
 2941SOL    HW1 8847   2.841   4.672   0.223
 2941SOL    HW2 8848   2.818   4.551   0.330
 2942SOL     OW 8849   2.234   5.012   1.490
 2942SOL    HW1 8850   2.221   5.105   1.456
 2942SOL    HW2 8851   2.150   4.960   1.477
 2943SOL     OW 8852   3.476   5.016   1.289
 2943SOL    HW1 8853   3.536   5.019   1.369
 2943SOL    HW2 8854   3.401   5.080   1.302
 2944SOL     OW 8855   2.901   4.822   0.696
 2944SOL    HW1 8856   2.831   4.775   0.750
 2944SOL    HW2 8857   2.960   4.754   0.653
 2945SOL     OW 8858   2.876   3.960   0.971
 2945SOL    HW1 8859   2.868   3.924   0.878
 2945SOL    HW2 8860   2.874   3.884   1.036
 2946SOL     OW 8861   3.571   4.109   1.381
 2946SOL    HW1 8862   3.644   4.178   1.385
 2946SOL    HW2 8863   3.599   4.034   1.322
 2947SOL     OW 8864   1.967   4.737   1.726
 2947SOL    HW1 8865   1.890   4.704   1.780
 2947SOL    HW2 8866   2.052   4.707   1.768
 2948SOL     OW 8867   2.534   3.927   1.489
 2948SOL    HW1 8868   2.624   3.911   1.449
 2948SOL    HW2 8869   2.542   3.932   1.588
 2949SOL     OW 8870   1.937   4.069   0.033
 2949SOL    HW1 8871   1.845   4.041   0.004
 2949SOL    HW2 8872   1.968   4.146  -0.023
 2950SOL     OW 8873   3.302   4.580   1.398
 2950SOL    HW1 8874   3.245   4.632   1.335
 2950SOL    HW2 8875   3.398   4.592   1.374
 2951SOL     OW 8876   1.934   3.890   0.318
 2951SOL    HW1 8877   1.917   3.973   0.264
 2951SOL    HW2 8878   2.024   3.853   0.296
 2952SOL     OW 8879   3.045   5.059   0.119
 2952SOL    HW1 8880   2.946   5.048   0.121
 2952SOL    HW2 8881   3.079   5.074   0.212
 2953SOL     OW 8882   2.475   4.566   1.431
 2953SOL    HW1 8883   2.531   4.647   1.414
 2953SOL    HW2 8884   2.534   4.486   1.434
 2954SOL     OW 8885   2.578   4.289   1.708
 2954SOL    HW1 8886   2.597   4.354   1.782
 2954SOL    HW2 8887   2.638   4.209   1.717
 2955SOL     OW 8888   3.312   4.944   1.633
 2955SOL    HW1 8889   3.303   4.934   1.732
 2955SOL    HW2 8890   3.408   4.937   1.607
 2956SOL     OW 8891   3.536   4.607   1.254
 2956SOL    HW1 8892   3.509   4.518   1.217
 2956SOL    HW2 8893   3.537   4.675   1.181
 2957SOL     OW 8894   3.087   4.049   0.449
 2957SOL    HW1 8895   3.152   3.975   0.438
 2957SOL    HW2 8896   3.107   4.099   0.533
 2958SOL     OW 8897   2.456   4.469   0.652
 2958SOL    HW1 8898   2.506   4.554   0.633
 2958SOL    HW2 8899   2.368   4.471   0.604
 2959SOL     OW 8900   3.639   4.066   1.642
 2959SOL    HW1 8901   3.622   4.097   1.548
 2959SOL    HW2 8902   3.555   4.029   1.680
 2960SOL     OW 8903   3.592   4.658   1.517
 2960SOL    HW1 8904   3.630   4.749   1.532
 2960SOL    HW2 8905   3.584   4.641   1.418
 2961SOL     OW 8906   2.721   4.680   0.861
 2961SOL    HW1 8907   2.775   4.611   0.909
 2961SOL    HW2 8908   2.689   4.749   0.927
 2962SOL     OW 8909   2.945   4.708   0.087
 2962SOL    HW1 8910   2.922   4.761   0.005
 2962SOL    HW2 8911   3.026   4.652   0.068
 2963SOL     OW 8912   2.083   5.038   1.844
 2963SOL    HW1 8913   2.018   4.965   1.823
 2963SOL    HW2 8914   2.087   5.052   1.942
 2964SOL     OW 8915   1.941   4.964   0.653
 2964SOL    HW1 8916   1.940   4.917   0.741
 2964SOL    HW2 8917   2.023   4.936   0.602
 2965SOL     OW 8918   2.534   5.115   1.624
 2965SOL    HW1 8919   2.456   5.065   1.662
 2965SOL    HW2 8920   2.531   5.210   1.655
 2966SOL     OW 8921   3.686   3.916   1.227
 2966SOL    HW1 8922   3.682   3.826   1.271
 2966SOL    HW2 8923   3.689   3.905   1.128
 2967SOL     OW 8924   2.290   4.148   0.520
 2967SOL    HW1 8925   2.320   4.076   0.458
 2967SOL    HW2 8926   2.251   4.108   0.603
 2968SOL     OW 8927   3.567   5.211   1.104
 2968SOL    HW1 8928   3.474   5.186   1.077
 2968SOL    HW2 8929   3.593   5.161   1.186
 2969SOL     OW 8930   2.179   4.271   1.280
 2969SOL    HW1 8931   2.217   4.212   1.352
 2969SOL    HW2 8932   2.219   4.245   1.192
 2970SOL     OW 8933   3.286   3.938   1.112
 2970SOL    HW1 8934   3.338   3.873   1.167
 2970SOL    HW2 8935   3.237   4.001   1.173
 2971SOL     OW 8936   2.863   3.758   1.154
 2971SOL    HW1 8937   2.800   3.686   1.123
 2971SOL    HW2 8938   2.956   3.722   1.154
 2972SOL     OW 8939   2.632   5.054   0.301
 2972SOL    HW1 8940   2.586   4.967   0.318
 2972SOL    HW2 8941   2.723   5.051   0.342
 2973SOL     OW 8942   3.214   3.776   0.168
 2973SOL    HW1 8943   3.249   3.735   0.084
 2973SOL    HW2 8944   3.124   3.738   0.188
 2974SOL     OW 8945   3.162   4.177   0.691
 2974SOL    HW1 8946   3.103   4.257   0.695
 2974SOL    HW2 8947   3.177   4.142   0.784
 2975SOL     OW 8948   3.455   3.945   0.882
 2975SOL    HW1 8949   3.371   3.944   0.936
 2975SOL    HW2 8950   3.457   4.028   0.826
 2976SOL     OW 8951   1.901   4.801   0.300
 2976SOL    HW1 8952   2.000   4.790   0.291
 2976SOL    HW2 8953   1.861   4.715   0.332
 2977SOL     OW 8954   2.092   4.352   1.975
 2977SOL    HW1 8955   1.999   4.350   2.012
 2977SOL    HW2 8956   2.093   4.313   1.883
 2978SOL     OW 8957   2.087   3.999   2.858
 2978SOL    HW1 8958   2.122   3.982   2.950
 2978SOL    HW2 8959   1.999   3.954   2.846
 2979SOL     OW 8960   1.881   4.092   2.509
 2979SOL    HW1 8961   1.799   4.135   2.548
 2979SOL    HW2 8962   1.853   4.019   2.446
 2980SOL     OW 8963   2.431   4.999   3.027
 2980SOL    HW1 8964   2.338   4.992   2.990
 2980SOL    HW2 8965   2.442   5.088   3.071
 2981SOL     OW 8966   3.417   5.235   2.565
 2981SOL    HW1 8967   3.360   5.219   2.646
 2981SOL    HW2 8968   3.358   5.245   2.485
 2982SOL     OW 8969   2.997   4.427   2.579
 2982SOL    HW1 8970   3.054   4.505   2.554
 2982SOL    HW2 8971   2.937   4.453   2.655
 2983SOL     OW 8972   3.617   4.331   2.093
 2983SOL    HW1 8973   3.605   4.318   1.994
 2983SOL    HW2 8974   3.587   4.250   2.142
 2984SOL     OW 8975   2.630   4.868   2.885
 2984SOL    HW1 8976   2.552   4.885   2.945
 2984SOL    HW2 8977   2.664   4.955   2.849
 2985SOL     OW 8978   2.712   4.522   3.685
 2985SOL    HW1 8979   2.708   4.598   3.750
 2985SOL    HW2 8980   2.734   4.558   3.594
 2986SOL     OW 8981   2.547   4.736   2.527
 2986SOL    HW1 8982   2.616   4.720   2.597
 2986SOL    HW2 8983   2.474   4.793   2.565
 2987SOL     OW 8984   2.548   4.885   3.665
 2987SOL    HW1 8985   2.608   4.964   3.679
 2987SOL    HW2 8986   2.462   4.916   3.624
 2988SOL     OW 8987   2.197   5.159   2.923
 2988SOL    HW1 8988   2.119   5.128   2.870
 2988SOL    HW2 8989   2.255   5.217   2.866
 2989SOL     OW 8990   2.300   4.116   3.361
 2989SOL    HW1 8991   2.382   4.060   3.370
 2989SOL    HW2 8992   2.219   4.058   3.365
 2990SOL     OW 8993   3.465   4.171   2.599
 2990SOL    HW1 8994   3.391   4.217   2.549
 2990SOL    HW2 8995   3.516   4.239   2.652
 2991SOL     OW 8996   2.093   5.437   2.345
 2991SOL    HW1 8997   2.127   5.514   2.399
 2991SOL    HW2 8998   2.137   5.437   2.255
 2992SOL     OW 8999   2.989   5.065   3.552
 2992SOL    HW1 9000   3.036   5.065   3.640
 2992SOL    HW2 9001   2.941   4.978   3.541
 2993SOL     OW 9002   2.102   4.815   2.748
 2993SOL    HW1 9003   2.116   4.731   2.800
 2993SOL    HW2 9004   2.047   4.879   2.803
 2994SOL     OW 9005   2.468   4.688   1.985
 2994SOL    HW1 9006   2.475   4.772   1.931
 2994SOL    HW2 9007   2.514   4.701   2.073
 2995SOL     OW 9008   3.456   3.838   3.342
 2995SOL    HW1 9009   3.438   3.905   3.270
 2995SOL    HW2 9010   3.453   3.884   3.431
 2996SOL     OW 9011   1.984   4.367   2.425
 2996SOL    HW1 9012   1.939   4.279   2.442
 2996SOL    HW2 9013   1.983   4.421   2.509
 2997SOL     OW 9014   3.551   4.646   2.474
 2997SOL    HW1 9015   3.646   4.617   2.482
 2997SOL    HW2 9016   3.543   4.711   2.399
 2998SOL     OW 9017   3.503   4.832   2.294
 2998SOL    HW1 9018   3.589   4.834   2.242
 2998SOL    HW2 9019   3.517   4.879   2.382
 2999SOL     OW 9020   1.975   4.461   3.459
 2999SOL    HW1 9021   2.063   4.448   3.504
 2999SOL    HW2 9022   1.962   4.558   3.437
 3000SOL     OW 9023   2.475   5.089   2.588
 3000SOL    HW1 9024   2.426   5.002   2.597
 3000SOL    HW2 9025   2.452   5.132   2.501
 3001SOL     OW 9026   3.155   4.952   3.285
 3001SOL    HW1 9027   3.192   4.879   3.227
 3001SOL    HW2 9028   3.207   4.957   3.370
 3002SOL     OW 9029   2.671   3.728   2.364
 3002SOL    HW1 9030   2.711   3.819   2.355
 3002SOL    HW2 9031   2.571   3.736   2.370
 3003SOL     OW 9032   2.059   4.700   3.126
 3003SOL    HW1 9033   2.148   4.655   3.112
 3003SOL    HW2 9034   1.986   4.635   3.107
 3004SOL     OW 9035   3.387   4.723   2.052
 3004SOL    HW1 9036   3.324   4.647   2.065
 3004SOL    HW2 9037   3.435   4.741   2.138
 3005SOL     OW 9038   2.179   3.975   3.663
 3005SOL    HW1 9039   2.250   4.046   3.669
 3005SOL    HW2 9040   2.091   4.014   3.691
 3006SOL     OW 9041   3.328   5.141   2.815
 3006SOL    HW1 9042   3.269   5.147   2.895
 3006SOL    HW2 9043   3.313   5.053   2.769
 3007SOL     OW 9044   2.460   4.453   2.132
 3007SOL    HW1 9045   2.484   4.522   2.064
 3007SOL    HW2 9046   2.382   4.486   2.186
 3008SOL     OW 9047   3.143   4.069   2.806
 3008SOL    HW1 9048   3.057   4.019   2.793
 3008SOL    HW2 9049   3.205   4.015   2.862
 3009SOL     OW 9050   2.669   4.329   3.327
 3009SOL    HW1 9051   2.622   4.326   3.416
 3009SOL    HW2 9052   2.618   4.274   3.261
 3010SOL     OW 9053   3.256   4.193   3.536
 3010SOL    HW1 9054   3.236   4.236   3.624
 3010SOL    HW2 9055   3.334   4.131   3.545
 3011SOL     OW 9056   2.835   4.614   3.434
 3011SOL    HW1 9057   2.881   4.530   3.405
 3011SOL    HW2 9058   2.779   4.648   3.359
 3012SOL     OW 9059   2.853   4.134   3.104
 3012SOL    HW1 9060   2.776   4.168   3.158
 3012SOL    HW2 9061   2.819   4.083   3.025
 3013SOL     OW 9062   2.903   4.425   2.291
 3013SOL    HW1 9063   2.929   4.421   2.387
 3013SOL    HW2 9064   2.818   4.374   2.277
 3014SOL     OW 9065   1.938   4.535   2.651
 3014SOL    HW1 9066   2.037   4.523   2.660
 3014SOL    HW2 9067   1.914   4.630   2.672
 3015SOL     OW 9068   2.727   4.072   2.057
 3015SOL    HW1 9069   2.786   4.135   2.008
 3015SOL    HW2 9070   2.746   3.978   2.028
 3016SOL     OW 9071   3.581   4.309   3.693
 3016SOL    HW1 9072   3.555   4.398   3.657
 3016SOL    HW2 9073   3.579   4.241   3.620
 3017SOL     OW 9074   3.224   4.868   2.407
 3017SOL    HW1 9075   3.307   4.839   2.359
 3017SOL    HW2 9076   3.175   4.935   2.351
 3018SOL     OW 9077   2.412   3.920   2.747
 3018SOL    HW1 9078   2.407   3.915   2.847
 3018SOL    HW2 9079   2.414   4.016   2.718
 3019SOL     OW 9080   3.657   4.790   2.735
 3019SOL    HW1 9081   3.595   4.775   2.659
 3019SOL    HW2 9082   3.605   4.801   2.820
 3020SOL     OW 9083   2.183   4.667   2.104
 3020SOL    HW1 9084   2.265   4.706   2.062
 3020SOL    HW2 9085   2.156   4.585   2.055
 3021SOL     OW 9086   3.320   4.459   2.590
 3021SOL    HW1 9087   3.315   4.394   2.665
 3021SOL    HW2 9088   3.400   4.518   2.603
 3022SOL     OW 9089   2.323   4.990   3.589
 3022SOL    HW1 9090   2.273   4.991   3.503
 3022SOL    HW2 9091   2.260   4.972   3.665
 3023SOL     OW 9092   2.973   5.500   2.099
 3023SOL    HW1 9093   2.913   5.438   2.149
 3023SOL    HW2 9094   3.004   5.456   2.014
 3024SOL     OW 9095   2.064   4.009   3.360
 3024SOL    HW1 9096   1.984   4.069   3.347
 3024SOL    HW2 9097   2.054   3.960   3.446
 3025SOL     OW 9098   3.494   5.101   1.943
 3025SOL    HW1 9099   3.462   5.195   1.933
 3025SOL    HW2 9100   3.418   5.038   1.931
 3026SOL     OW 9101   3.262   3.831   2.288
 3026SOL    HW1 9102   3.238   3.794   2.198
 3026SOL    HW2 9103   3.361   3.847   2.292
 3027SOL     OW 9104   2.244   4.424   2.342
 3027SOL    HW1 9105   2.289   4.334   2.339
 3027SOL    HW2 9106   2.150   4.413   2.375
 3028SOL     OW 9107   3.409   3.946   3.591
 3028SOL    HW1 9108   3.404   3.983   3.683
 3028SOL    HW2 9109   3.337   3.877   3.579
 3029SOL     OW 9110   2.476   3.846   1.979
 3029SOL    HW1 9111   2.574   3.824   1.986
 3029SOL    HW2 9112   2.445   3.829   1.886
 3030SOL     OW 9113   2.643   3.988   3.611
 3030SOL    HW1 9114   2.710   3.927   3.654
 3030SOL    HW2 9115   2.570   4.007   3.676
 3031SOL     OW 9116   3.213   4.314   3.295
 3031SOL    HW1 9117   3.241   4.271   3.380
 3031SOL    HW2 9118   3.238   4.410   3.296
 3032SOL     OW 9119   2.784   4.227   2.761
 3032SOL    HW1 9120   2.759   4.218   2.665
 3032SOL    HW2 9121   2.832   4.145   2.792
 3033SOL     OW 9122   2.401   3.788   2.374
 3033SOL    HW1 9123   2.320   3.789   2.432
 3033SOL    HW2 9124   2.404   3.871   2.319
 3034SOL     OW 9125   3.296   4.912   1.903
 3034SOL    HW1 9126   3.328   4.836   1.960
 3034SOL    HW2 9127   3.204   4.939   1.933
 3035SOL     OW 9128   2.159   3.759   2.033
 3035SOL    HW1 9129   2.208   3.843   2.012
 3035SOL    HW2 9130   2.221   3.694   2.078
 3036SOL     OW 9131   2.797   3.960   2.342
 3036SOL    HW1 9132   2.749   4.001   2.264
 3036SOL    HW2 9133   2.896   3.958   2.323
 3037SOL     OW 9134   2.938   4.407   3.326
 3037SOL    HW1 9135   2.858   4.346   3.329
 3037SOL    HW2 9136   3.019   4.354   3.302
 3038SOL     OW 9137   3.089   5.294   2.655
 3038SOL    HW1 9138   3.110   5.368   2.590
 3038SOL    HW2 9139   3.157   5.294   2.728
 3039SOL     OW 9140   2.321   4.876   2.603
 3039SOL    HW1 9141   2.250   4.849   2.668
 3039SOL    HW2 9142   2.295   4.848   2.510
 3040SOL     OW 9143   2.894   4.273   1.878
 3040SOL    HW1 9144   2.853   4.355   1.839
 3040SOL    HW2 9145   2.958   4.299   1.951
 3041SOL     OW 9146   1.940   4.280   3.248
 3041SOL    HW1 9147   2.032   4.279   3.207
 3041SOL    HW2 9148   1.934   4.354   3.315
 3042SOL     OW 9149   2.423   3.946   3.009
 3042SOL    HW1 9150   2.461   3.862   3.046
 3042SOL    HW2 9151   2.335   3.965   3.053
 3043SOL     OW 9152   2.728   4.178   2.504
 3043SOL    HW1 9153   2.696   4.250   2.442
 3043SOL    HW2 9154   2.752   4.097   2.451
 3044SOL     OW 9155   2.879   3.763   2.615
 3044SOL    HW1 9156   2.807   3.768   2.546
 3044SOL    HW2 9157   2.855   3.694   2.684
 3045SOL     OW 9158   3.291   4.897   2.729
 3045SOL    HW1 9159   3.236   4.813   2.722
 3045SOL    HW2 9160   3.317   4.926   2.637
 3046SOL     OW 9161   3.328   4.314   2.854
 3046SOL    HW1 9162   3.298   4.219   2.861
 3046SOL    HW2 9163   3.401   4.330   2.920
 3047SOL     OW 9164   3.719   4.557   2.239
 3047SOL    HW1 9165   3.761   4.493   2.303
 3047SOL    HW2 9166   3.681   4.506   2.161
 3048SOL     OW 9167   3.526   5.004   2.519
 3048SOL    HW1 9168   3.625   5.012   2.533
 3048SOL    HW2 9169   3.481   5.088   2.550
 3049SOL     OW 9170   3.252   4.299   1.940
 3049SOL    HW1 9171   3.198   4.278   2.021
 3049SOL    HW2 9172   3.343   4.258   1.949
 3050SOL     OW 9173   2.389   3.980   2.190
 3050SOL    HW1 9174   2.416   3.921   2.115
 3050SOL    HW2 9175   2.389   4.075   2.159
 3051SOL     OW 9176   3.616   4.947   3.450
 3051SOL    HW1 9177   3.707   4.908   3.437
 3051SOL    HW2 9178   3.624   5.043   3.474
 3052SOL     OW 9179   2.926   5.071   3.202
 3052SOL    HW1 9180   2.846   5.048   3.257
 3052SOL    HW2 9181   3.009   5.045   3.251
 3053SOL     OW 9182   2.973   4.919   2.962
 3053SOL    HW1 9183   2.933   4.963   3.043
 3053SOL    HW2 9184   2.932   4.956   2.879
 3054SOL     OW 9185   3.500   4.823   2.941
 3054SOL    HW1 9186   3.505   4.904   3.000
 3054SOL    HW2 9187   3.414   4.825   2.890
 3055SOL     OW 9188   2.777   3.813   3.264
 3055SOL    HW1 9189   2.802   3.793   3.169
 3055SOL    HW2 9190   2.849   3.869   3.306
 3056SOL     OW 9191   2.842   4.840   3.581
 3056SOL    HW1 9192   2.743   4.846   3.591
 3056SOL    HW2 9193   2.865   4.760   3.525
 3057SOL     OW 9194   2.567   4.774   2.230
 3057SOL    HW1 9195   2.553   4.781   2.329
 3057SOL    HW2 9196   2.651   4.723   2.212
 3058SOL     OW 9197   2.272   4.537   3.113
 3058SOL    HW1 9198   2.358   4.549   3.163
 3058SOL    HW2 9199   2.230   4.450   3.140
 3059SOL     OW 9200   3.136   4.110   3.124
 3059SOL    HW1 9201   3.157   4.184   3.188
 3059SOL    HW2 9202   3.047   4.127   3.081
 3060SOL     OW 9203   2.229   4.824   2.363
 3060SOL    HW1 9204   2.222   4.907   2.307
 3060SOL    HW2 9205   2.233   4.744   2.303
 3061SOL     OW 9206   2.428   4.261   2.727
 3061SOL    HW1 9207   2.440   4.327   2.653
 3061SOL    HW2 9208   2.474   4.295   2.810
 3062SOL     OW 9209   3.114   5.072   2.250
 3062SOL    HW1 9210   3.164   5.149   2.290
 3062SOL    HW2 9211   3.019   5.074   2.282
 3063SOL     OW 9212   3.134   5.169   3.004
 3063SOL    HW1 9213   3.181   5.182   3.091
 3063SOL    HW2 9214   3.068   5.095   3.013
 3064SOL     OW 9215   3.444   4.363   2.334
 3064SOL    HW1 9216   3.413   4.424   2.407
 3064SOL    HW2 9217   3.494   4.415   2.265
 3065SOL     OW 9218   2.264   4.475   3.460
 3065SOL    HW1 9219   2.332   4.530   3.413
 3065SOL    HW2 9220   2.304   4.387   3.487
 3066SOL     OW 9221   3.449   4.503   3.532
 3066SOL    HW1 9222   3.357   4.541   3.527
 3066SOL    HW2 9223   3.509   4.550   3.467
 3067SOL     OW 9224   2.875   3.829   3.632
 3067SOL    HW1 9225   2.881   3.914   3.580
 3067SOL    HW2 9226   2.907   3.753   3.575
 3068SOL     OW 9227   2.366   3.774   3.602
 3068SOL    HW1 9228   2.324   3.717   3.532
 3068SOL    HW2 9229   2.300   3.843   3.634
 3069SOL     OW 9230   2.435   4.594   2.891
 3069SOL    HW1 9231   2.479   4.683   2.882
 3069SOL    HW2 9232   2.372   4.594   2.968
 3070SOL     OW 9233   3.222   4.586   2.907
 3070SOL    HW1 9234   3.147   4.586   2.841
 3070SOL    HW2 9235   3.259   4.494   2.916
 3071SOL     OW 9236   3.071   4.249   2.137
 3071SOL    HW1 9237   3.084   4.165   2.191
 3071SOL    HW2 9238   3.042   4.323   2.197
 3072SOL     OW 9239   2.169   3.937   3.093
 3072SOL    HW1 9240   2.146   3.974   3.183
 3072SOL    HW2 9241   2.139   3.842   3.087
 3073SOL     OW 9242   1.899   5.034   3.144
 3073SOL    HW1 9243   1.952   4.985   3.212
 3073SOL    HW2 9244   1.921   5.132   3.149
 3074SOL     OW 9245   2.594   4.358   2.926
 3074SOL    HW1 9246   2.653   4.332   2.850
 3074SOL    HW2 9247   2.566   4.454   2.915
 3075SOL     OW 9248   3.590   4.659   3.716
 3075SOL    HW1 9249   3.544   4.652   3.627
 3075SOL    HW2 9250   3.528   4.703   3.782
 3076SOL     OW 9251   2.169   3.787   2.480
 3076SOL    HW1 9252   2.158   3.881   2.513
 3076SOL    HW2 9253   2.164   3.724   2.557
 3077SOL     OW 9254   3.484   4.091   2.236
 3077SOL    HW1 9255   3.486   4.015   2.300
 3077SOL    HW2 9256   3.436   4.168   2.276
 3078SOL     OW 9257   2.885   4.490   2.828
 3078SOL    HW1 9258   2.900   4.511   2.924
 3078SOL    HW2 9259   2.855   4.395   2.819
 3079SOL     OW 9260   3.721   5.242   3.467
 3079SOL    HW1 9261   3.735   5.269   3.372
 3079SOL    HW2 9262   3.804   5.264   3.520
 3080SOL     OW 9263   2.212   4.622   3.666
 3080SOL    HW1 9264   2.288   4.666   3.714
 3080SOL    HW2 9265   2.247   4.575   3.584
 3081SOL     OW 9266   3.402   3.998   1.987
 3081SOL    HW1 9267   3.341   3.923   2.010
 3081SOL    HW2 9268   3.424   4.050   2.070
 3082SOL     OW 9269   3.165   4.562   1.904
 3082SOL    HW1 9270   3.199   4.469   1.919
 3082SOL    HW2 9271   3.183   4.589   1.809
 3083SOL     OW 9272   2.181   4.534   2.811
 3083SOL    HW1 9273   2.274   4.570   2.816
 3083SOL    HW2 9274   2.175   4.449   2.863
 3084SOL     OW 9275   2.201   4.233   2.868
 3084SOL    HW1 9276   2.149   4.150   2.851
 3084SOL    HW2 9277   2.278   4.238   2.804
 3085SOL     OW 9278   3.000   4.104   3.540
 3085SOL    HW1 9279   2.955   4.167   3.604
 3085SOL    HW2 9280   3.093   4.135   3.523
 3086SOL     OW 9281   3.022   3.931   3.339
 3086SOL    HW1 9282   3.022   3.995   3.416
 3086SOL    HW2 9283   3.050   3.979   3.256
 3087SOL     OW 9284   1.870   5.050   2.062
 3087SOL    HW1 9285   1.777   5.071   2.031
 3087SOL    HW2 9286   1.880   4.951   2.075
 3088SOL     OW 9287   2.864   4.520   3.100
 3088SOL    HW1 9288   2.905   4.488   3.186
 3088SOL    HW2 9289   2.768   4.493   3.097
 3089SOL     OW 9290   1.902   4.268   2.976
 3089SOL    HW1 9291   1.987   4.235   2.935
 3089SOL    HW2 9292   1.915   4.283   3.074
 3090SOL     OW 9293   2.051   4.244   3.584
 3090SOL    HW1 9294   2.110   4.204   3.514
 3090SOL    HW2 9295   1.993   4.315   3.543
 3091SOL     OW 9296   3.231   4.674   3.522
 3091SOL    HW1 9297   3.270   4.763   3.542
 3091SOL    HW2 9298   3.241   4.654   3.425
 3092SOL     OW 9299   2.677   4.296   2.187
 3092SOL    HW1 9300   2.684   4.207   2.141
 3092SOL    HW2 9301   2.583   4.330   2.179
 3093SOL     OW 9302   3.519   4.328   3.068
 3093SOL    HW1 9303   3.481   4.259   3.130
 3093SOL    HW2 9304   3.601   4.292   3.024
 3094SOL     OW 9305   2.533   4.188   3.131
 3094SOL    HW1 9306   2.499   4.099   3.101
 3094SOL    HW2 9307   2.559   4.242   3.051
 3095SOL     OW 9308   2.335   4.224   2.053
 3095SOL    HW1 9309   2.396   4.304   2.057
 3095SOL    HW2 9310   2.240   4.255   2.060
 3096SOL     OW 9311   2.021   4.861   3.328
 3096SOL    HW1 9312   2.043   4.800   3.404
 3096SOL    HW2 9313   2.031   4.812   3.242
 3097SOL     OW 9314   3.209   4.783   3.096
 3097SOL    HW1 9315   3.233   4.720   3.022
 3097SOL    HW2 9316   3.119   4.823   3.078
 3098SOL     OW 9317   3.164   4.579   2.171
 3098SOL    HW1 9318   3.078   4.548   2.213
 3098SOL    HW2 9319   3.160   4.565   2.072
 3099SOL     OW 9320   1.945   4.982   2.884
 3099SOL    HW1 9321   1.940   4.981   2.984
 3099SOL    HW2 9322   1.862   4.941   2.846
 3100SOL     OW 9323   3.588   3.859   2.385
 3100SOL    HW1 9324   3.661   3.842   2.318
 3100SOL    HW2 9325   3.557   3.772   2.423
 3101SOL     OW 9326   3.142   4.651   2.534
 3101SOL    HW1 9327   3.202   4.570   2.536
 3101SOL    HW2 9328   3.182   4.720   2.474
 3102SOL     OW 9329   2.692   4.997   3.284
 3102SOL    HW1 9330   2.687   5.030   3.379
 3102SOL    HW2 9331   2.606   5.016   3.238
 3103SOL     OW 9332   3.703   3.899   2.825
 3103SOL    HW1 9333   3.742   3.814   2.789
 3103SOL    HW2 9334   3.605   3.901   2.806
 3104SOL     OW 9335   2.125   4.050   2.582
 3104SOL    HW1 9336   2.046   4.101   2.548
 3104SOL    HW2 9337   2.116   4.035   2.680
 3105SOL     OW 9338   2.684   4.726   3.234
 3105SOL    HW1 9339   2.724   4.725   3.142
 3105SOL    HW2 9340   2.694   4.818   3.274
 3106SOL     OW 9341   2.778   4.634   2.153
 3106SOL    HW1 9342   2.841   4.672   2.085
 3106SOL    HW2 9343   2.818   4.551   2.192
 3107SOL     OW 9344   2.234   5.012   3.352
 3107SOL    HW1 9345   2.221   5.105   3.318
 3107SOL    HW2 9346   2.150   4.960   3.339
 3108SOL     OW 9347   3.476   5.016   3.151
 3108SOL    HW1 9348   3.536   5.019   3.231
 3108SOL    HW2 9349   3.401   5.080   3.164
 3109SOL     OW 9350   2.901   4.822   2.558
 3109SOL    HW1 9351   2.831   4.775   2.612
 3109SOL    HW2 9352   2.960   4.754   2.515
 3110SOL     OW 9353   2.876   3.960   2.833
 3110SOL    HW1 9354   2.868   3.924   2.740
 3110SOL    HW2 9355   2.874   3.884   2.898
 3111SOL     OW 9356   3.571   4.109   3.243
 3111SOL    HW1 9357   3.644   4.178   3.247
 3111SOL    HW2 9358   3.599   4.034   3.184
 3112SOL     OW 9359   1.967   4.737   3.588
 3112SOL    HW1 9360   1.890   4.704   3.642
 3112SOL    HW2 9361   2.052   4.707   3.630
 3113SOL     OW 9362   2.534   3.927   3.351
 3113SOL    HW1 9363   2.624   3.911   3.311
 3113SOL    HW2 9364   2.542   3.932   3.450
 3114SOL     OW 9365   1.937   4.069   1.895
 3114SOL    HW1 9366   1.845   4.041   1.866
 3114SOL    HW2 9367   1.968   4.146   1.839
 3115SOL     OW 9368   3.302   4.580   3.260
 3115SOL    HW1 9369   3.245   4.632   3.197
 3115SOL    HW2 9370   3.398   4.592   3.236
 3116SOL     OW 9371   1.934   3.890   2.180
 3116SOL    HW1 9372   1.917   3.973   2.126
 3116SOL    HW2 9373   2.024   3.853   2.158
 3117SOL     OW 9374   3.045   5.059   1.981
 3117SOL    HW1 9375   2.946   5.048   1.983
 3117SOL    HW2 9376   3.079   5.074   2.074
 3118SOL     OW 9377   2.475   4.566   3.293
 3118SOL    HW1 9378   2.531   4.647   3.276
 3118SOL    HW2 9379   2.534   4.486   3.296
 3119SOL     OW 9380   2.578   4.289   3.570
 3119SOL    HW1 9381   2.597   4.354   3.644
 3119SOL    HW2 9382   2.638   4.209   3.579
 3120SOL     OW 9383   3.312   4.944   3.495
 3120SOL    HW1 9384   3.303   4.934   3.594
 3120SOL    HW2 9385   3.408   4.937   3.469
 3121SOL     OW 9386   3.536   4.607   3.116
 3121SOL    HW1 9387   3.509   4.518   3.079
 3121SOL    HW2 9388   3.537   4.675   3.043
 3122SOL     OW 9389   3.087   4.049   2.311
 3122SOL    HW1 9390   3.152   3.975   2.300
 3122SOL    HW2 9391   3.107   4.099   2.395
 3123SOL     OW 9392   2.456   4.469   2.514
 3123SOL    HW1 9393   2.506   4.554   2.495
 3123SOL    HW2 9394   2.368   4.471   2.466
 3124SOL     OW 9395   3.639   4.066   3.504
 3124SOL    HW1 9396   3.622   4.097   3.410
 3124SOL    HW2 9397   3.555   4.029   3.542
 3125SOL     OW 9398   3.592   4.658   3.379
 3125SOL    HW1 9399   3.630   4.749   3.394
 3125SOL    HW2 9400   3.584   4.641   3.280
 3126SOL     OW 9401   2.721   5.098   1.878
 3126SOL    HW1 9402   2.675   5.113   1.966
 3126SOL    HW2 9403   2.765   5.183   1.848
 3127SOL     OW 9404   2.721   4.680   2.723
 3127SOL    HW1 9405   2.775   4.611   2.771
 3127SOL    HW2 9406   2.689   4.749   2.789
 3128SOL     OW 9407   2.945   4.708   1.949
 3128SOL    HW1 9408   2.922   4.761   1.867
 3128SOL    HW2 9409   3.026   4.652   1.930
 3129SOL     OW 9410   2.083   5.038   3.706
 3129SOL    HW1 9411   2.018   4.965   3.685
 3129SOL    HW2 9412   2.087   5.052   3.804
 3130SOL     OW 9413   1.941   4.964   2.515
 3130SOL    HW1 9414   1.940   4.917   2.603
 3130SOL    HW2 9415   2.023   4.936   2.464
 3131SOL     OW 9416   2.534   5.115   3.486
 3131SOL    HW1 9417   2.456   5.065   3.524
 3131SOL    HW2 9418   2.531   5.210   3.517
 3132SOL     OW 9419   3.686   3.916   3.089
 3132SOL    HW1 9420   3.682   3.826   3.133
 3132SOL    HW2 9421   3.689   3.905   2.990
 3133SOL     OW 9422   2.290   4.148   2.382
 3133SOL    HW1 9423   2.320   4.076   2.320
 3133SOL    HW2 9424   2.251   4.108   2.465
 3134SOL     OW 9425   3.567   5.211   2.966
 3134SOL    HW1 9426   3.474   5.186   2.939
 3134SOL    HW2 9427   3.593   5.161   3.048
 3135SOL     OW 9428   2.179   4.271   3.142
 3135SOL    HW1 9429   2.217   4.212   3.214
 3135SOL    HW2 9430   2.219   4.245   3.054
 3136SOL     OW 9431   3.286   3.938   2.974
 3136SOL    HW1 9432   3.338   3.873   3.029
 3136SOL    HW2 9433   3.237   4.001   3.035
 3137SOL     OW 9434   2.863   3.758   3.016
 3137SOL    HW1 9435   2.800   3.686   2.985
 3137SOL    HW2 9436   2.956   3.722   3.016
 3138SOL     OW 9437   2.632   5.054   2.163
 3138SOL    HW1 9438   2.586   4.967   2.180
 3138SOL    HW2 9439   2.723   5.051   2.204
 3139SOL     OW 9440   3.214   3.776   2.030
 3139SOL    HW1 9441   3.249   3.735   1.946
 3139SOL    HW2 9442   3.124   3.738   2.050
 3140SOL     OW 9443   3.162   4.177   2.553
 3140SOL    HW1 9444   3.103   4.257   2.557
 3140SOL    HW2 9445   3.177   4.142   2.646
 3141SOL     OW 9446   3.455   3.945   2.744
 3141SOL    HW1 9447   3.371   3.944   2.798
 3141SOL    HW2 9448   3.457   4.028   2.688
 3142SOL     OW 9449   1.901   4.801   2.162
 3142SOL    HW1 9450   2.000   4.790   2.153
 3142SOL    HW2 9451   1.861   4.715   2.194
 3143SOL     OW 9452   2.092   4.352   3.837
 3143SOL    HW1 9453   1.999   4.350   3.874
 3143SOL    HW2 9454   2.093   4.313   3.745
 3144SOL     OW 9455   2.087   3.999   4.720
 3144SOL    HW1 9456   2.122   3.982   4.812
 3144SOL    HW2 9457   1.999   3.954   4.708
 3145SOL     OW 9458   1.881   4.092   4.371
 3145SOL    HW1 9459   1.799   4.135   4.410
 3145SOL    HW2 9460   1.853   4.019   4.308
 3146SOL     OW 9461   2.431   4.999   4.889
 3146SOL    HW1 9462   2.338   4.992   4.852
 3146SOL    HW2 9463   2.442   5.088   4.933
 3147SOL     OW 9464   3.417   5.235   4.427
 3147SOL    HW1 9465   3.360   5.219   4.508
 3147SOL    HW2 9466   3.358   5.245   4.347
 3148SOL     OW 9467   2.997   4.427   4.441
 3148SOL    HW1 9468   3.054   4.505   4.416
 3148SOL    HW2 9469   2.937   4.453   4.517
 3149SOL     OW 9470   3.617   4.331   3.955
 3149SOL    HW1 9471   3.605   4.318   3.856
 3149SOL    HW2 9472   3.587   4.250   4.004
 3150SOL     OW 9473   2.630   4.868   4.747
 3150SOL    HW1 9474   2.552   4.885   4.807
 3150SOL    HW2 9475   2.664   4.955   4.711
 3151SOL     OW 9476   2.547   4.736   4.389
 3151SOL    HW1 9477   2.616   4.720   4.459
 3151SOL    HW2 9478   2.474   4.793   4.427
 3152SOL     OW 9479   2.197   5.159   4.785
 3152SOL    HW1 9480   2.119   5.128   4.732
 3152SOL    HW2 9481   2.255   5.217   4.728
 3153SOL     OW 9482   3.322   5.229   5.063
 3153SOL    HW1 9483   3.346   5.323   5.089
 3153SOL    HW2 9484   3.306   5.175   5.145
 3154SOL     OW 9485   2.300   4.116   5.223
 3154SOL    HW1 9486   2.382   4.060   5.232
 3154SOL    HW2 9487   2.219   4.058   5.227
 3155SOL     OW 9488   3.465   4.171   4.461
 3155SOL    HW1 9489   3.391   4.217   4.411
 3155SOL    HW2 9490   3.516   4.239   4.514
 3156SOL     OW 9491   2.093   5.437   4.207
 3156SOL    HW1 9492   2.127   5.514   4.261
 3156SOL    HW2 9493   2.137   5.437   4.117
 3157SOL     OW 9494   2.102   4.815   4.610
 3157SOL    HW1 9495   2.116   4.731   4.662
 3157SOL    HW2 9496   2.047   4.879   4.665
 3158SOL     OW 9497   2.468   4.688   3.847
 3158SOL    HW1 9498   2.475   4.772   3.793
 3158SOL    HW2 9499   2.514   4.701   3.935
 3159SOL     OW 9500   1.984   4.367   4.287
 3159SOL    HW1 9501   1.939   4.279   4.304
 3159SOL    HW2 9502   1.983   4.421   4.371
 3160SOL     OW 9503   3.551   4.646   4.336
 3160SOL    HW1 9504   3.646   4.617   4.344
 3160SOL    HW2 9505   3.543   4.711   4.261
 3161SOL     OW 9506   3.503   4.832   4.156
 3161SOL    HW1 9507   3.589   4.834   4.104
 3161SOL    HW2 9508   3.517   4.879   4.244
 3162SOL     OW 9509   2.475   5.089   4.450
 3162SOL    HW1 9510   2.426   5.002   4.459
 3162SOL    HW2 9511   2.452   5.132   4.363
 3163SOL     OW 9512   2.671   3.728   4.226
 3163SOL    HW1 9513   2.711   3.819   4.217
 3163SOL    HW2 9514   2.571   3.736   4.232
 3164SOL     OW 9515   2.059   4.700   4.988
 3164SOL    HW1 9516   2.148   4.655   4.974
 3164SOL    HW2 9517   1.986   4.635   4.969
 3165SOL     OW 9518   3.387   4.723   3.914
 3165SOL    HW1 9519   3.324   4.647   3.927
 3165SOL    HW2 9520   3.435   4.741   4.000
 3166SOL     OW 9521   3.328   5.141   4.677
 3166SOL    HW1 9522   3.269   5.147   4.757
 3166SOL    HW2 9523   3.313   5.053   4.631
 3167SOL     OW 9524   2.460   4.453   3.994
 3167SOL    HW1 9525   2.484   4.522   3.926
 3167SOL    HW2 9526   2.382   4.486   4.048
 3168SOL     OW 9527   3.143   4.069   4.668
 3168SOL    HW1 9528   3.057   4.019   4.655
 3168SOL    HW2 9529   3.205   4.015   4.724
 3169SOL     OW 9530   2.669   4.329   5.189
 3169SOL    HW1 9531   2.622   4.326   5.278
 3169SOL    HW2 9532   2.618   4.274   5.123
 3170SOL     OW 9533   2.853   4.134   4.966
 3170SOL    HW1 9534   2.776   4.168   5.020
 3170SOL    HW2 9535   2.819   4.083   4.887
 3171SOL     OW 9536   2.903   4.425   4.153
 3171SOL    HW1 9537   2.929   4.421   4.249
 3171SOL    HW2 9538   2.818   4.374   4.139
 3172SOL     OW 9539   1.938   4.535   4.513
 3172SOL    HW1 9540   2.037   4.523   4.522
 3172SOL    HW2 9541   1.914   4.630   4.534
 3173SOL     OW 9542   2.727   4.072   3.919
 3173SOL    HW1 9543   2.786   4.135   3.870
 3173SOL    HW2 9544   2.746   3.978   3.890
 3174SOL     OW 9545   3.224   4.868   4.269
 3174SOL    HW1 9546   3.307   4.839   4.221
 3174SOL    HW2 9547   3.175   4.935   4.213
 3175SOL     OW 9548   2.412   3.920   4.609
 3175SOL    HW1 9549   2.407   3.915   4.709
 3175SOL    HW2 9550   2.414   4.016   4.580
 3176SOL     OW 9551   3.657   4.790   4.597
 3176SOL    HW1 9552   3.595   4.775   4.521
 3176SOL    HW2 9553   3.605   4.801   4.682
 3177SOL     OW 9554   2.183   4.667   3.966
 3177SOL    HW1 9555   2.265   4.706   3.924
 3177SOL    HW2 9556   2.156   4.585   3.917
 3178SOL     OW 9557   3.320   4.459   4.452
 3178SOL    HW1 9558   3.315   4.394   4.527
 3178SOL    HW2 9559   3.400   4.518   4.465
 3179SOL     OW 9560   2.973   5.500   3.961
 3179SOL    HW1 9561   2.913   5.438   4.011
 3179SOL    HW2 9562   3.004   5.456   3.876
 3180SOL     OW 9563   3.494   5.101   3.805
 3180SOL    HW1 9564   3.462   5.195   3.795
 3180SOL    HW2 9565   3.418   5.038   3.793
 3181SOL     OW 9566   3.262   3.831   4.150
 3181SOL    HW1 9567   3.238   3.794   4.060
 3181SOL    HW2 9568   3.361   3.847   4.154
 3182SOL     OW 9569   2.244   4.424   4.204
 3182SOL    HW1 9570   2.289   4.334   4.201
 3182SOL    HW2 9571   2.150   4.413   4.237
 3183SOL     OW 9572   2.476   3.846   3.841
 3183SOL    HW1 9573   2.574   3.824   3.848
 3183SOL    HW2 9574   2.445   3.829   3.748
 3184SOL     OW 9575   2.784   4.227   4.623
 3184SOL    HW1 9576   2.759   4.218   4.527
 3184SOL    HW2 9577   2.832   4.145   4.654
 3185SOL     OW 9578   2.401   3.788   4.236
 3185SOL    HW1 9579   2.320   3.789   4.294
 3185SOL    HW2 9580   2.404   3.871   4.181
 3186SOL     OW 9581   3.296   4.912   3.765
 3186SOL    HW1 9582   3.328   4.836   3.822
 3186SOL    HW2 9583   3.204   4.939   3.795
 3187SOL     OW 9584   2.159   3.759   3.895
 3187SOL    HW1 9585   2.208   3.843   3.874
 3187SOL    HW2 9586   2.221   3.694   3.940
 3188SOL     OW 9587   2.797   3.960   4.204
 3188SOL    HW1 9588   2.749   4.001   4.126
 3188SOL    HW2 9589   2.896   3.958   4.185
 3189SOL     OW 9590   3.089   5.294   4.517
 3189SOL    HW1 9591   3.110   5.368   4.452
 3189SOL    HW2 9592   3.157   5.294   4.590
 3190SOL     OW 9593   2.321   4.876   4.465
 3190SOL    HW1 9594   2.250   4.849   4.530
 3190SOL    HW2 9595   2.295   4.848   4.372
 3191SOL     OW 9596   2.894   4.273   3.740
 3191SOL    HW1 9597   2.853   4.355   3.701
 3191SOL    HW2 9598   2.958   4.299   3.813
 3192SOL     OW 9599   2.423   3.946   4.871
 3192SOL    HW1 9600   2.461   3.862   4.908
 3192SOL    HW2 9601   2.335   3.965   4.915
 3193SOL     OW 9602   2.728   4.178   4.366
 3193SOL    HW1 9603   2.696   4.250   4.304
 3193SOL    HW2 9604   2.752   4.097   4.313
 3194SOL     OW 9605   2.879   3.763   4.477
 3194SOL    HW1 9606   2.807   3.768   4.408
 3194SOL    HW2 9607   2.855   3.694   4.546
 3195SOL     OW 9608   3.291   4.897   4.591
 3195SOL    HW1 9609   3.236   4.813   4.584
 3195SOL    HW2 9610   3.317   4.926   4.499
 3196SOL     OW 9611   3.328   4.314   4.716
 3196SOL    HW1 9612   3.298   4.219   4.723
 3196SOL    HW2 9613   3.401   4.330   4.782
 3197SOL     OW 9614   3.719   4.557   4.101
 3197SOL    HW1 9615   3.761   4.493   4.165
 3197SOL    HW2 9616   3.681   4.506   4.023
 3198SOL     OW 9617   3.526   5.004   4.381
 3198SOL    HW1 9618   3.625   5.012   4.395
 3198SOL    HW2 9619   3.481   5.088   4.412
 3199SOL     OW 9620   3.252   4.299   3.802
 3199SOL    HW1 9621   3.198   4.278   3.883
 3199SOL    HW2 9622   3.343   4.258   3.811
 3200SOL     OW 9623   2.389   3.980   4.052
 3200SOL    HW1 9624   2.416   3.921   3.977
 3200SOL    HW2 9625   2.389   4.075   4.021
 3201SOL     OW 9626   3.616   4.947   5.312
 3201SOL    HW1 9627   3.707   4.908   5.299
 3201SOL    HW2 9628   3.624   5.043   5.336
 3202SOL     OW 9629   2.926   5.071   5.064
 3202SOL    HW1 9630   2.846   5.048   5.119
 3202SOL    HW2 9631   3.009   5.045   5.113
 3203SOL     OW 9632   2.973   4.919   4.824
 3203SOL    HW1 9633   2.933   4.963   4.905
 3203SOL    HW2 9634   2.932   4.956   4.741
 3204SOL     OW 9635   3.500   4.823   4.803
 3204SOL    HW1 9636   3.505   4.904   4.862
 3204SOL    HW2 9637   3.414   4.825   4.752
 3205SOL     OW 9638   2.567   4.774   4.092
 3205SOL    HW1 9639   2.553   4.781   4.191
 3205SOL    HW2 9640   2.651   4.723   4.074
 3206SOL     OW 9641   2.272   4.537   4.975
 3206SOL    HW1 9642   2.358   4.549   5.025
 3206SOL    HW2 9643   2.230   4.450   5.002
 3207SOL     OW 9644   3.136   4.110   4.986
 3207SOL    HW1 9645   3.157   4.184   5.050
 3207SOL    HW2 9646   3.047   4.127   4.943
 3208SOL     OW 9647   2.229   4.824   4.225
 3208SOL    HW1 9648   2.222   4.907   4.169
 3208SOL    HW2 9649   2.233   4.744   4.165
 3209SOL     OW 9650   2.428   4.261   4.589
 3209SOL    HW1 9651   2.440   4.327   4.515
 3209SOL    HW2 9652   2.474   4.295   4.672
 3210SOL     OW 9653   3.114   5.072   4.112
 3210SOL    HW1 9654   3.164   5.149   4.152
 3210SOL    HW2 9655   3.019   5.074   4.144
 3211SOL     OW 9656   3.134   5.169   4.866
 3211SOL    HW1 9657   3.181   5.182   4.953
 3211SOL    HW2 9658   3.068   5.095   4.875
 3212SOL     OW 9659   3.444   4.363   4.196
 3212SOL    HW1 9660   3.413   4.424   4.269
 3212SOL    HW2 9661   3.494   4.415   4.127
 3213SOL     OW 9662   2.366   3.774   5.464
 3213SOL    HW1 9663   2.324   3.717   5.394
 3213SOL    HW2 9664   2.300   3.843   5.496
 3214SOL     OW 9665   2.435   4.594   4.753
 3214SOL    HW1 9666   2.479   4.683   4.744
 3214SOL    HW2 9667   2.372   4.594   4.830
 3215SOL     OW 9668   3.222   4.586   4.769
 3215SOL    HW1 9669   3.147   4.586   4.703
 3215SOL    HW2 9670   3.259   4.494   4.778
 3216SOL     OW 9671   3.071   4.249   3.999
 3216SOL    HW1 9672   3.084   4.165   4.053
 3216SOL    HW2 9673   3.042   4.323   4.059
 3217SOL     OW 9674   2.169   3.937   4.955
 3217SOL    HW1 9675   2.146   3.974   5.045
 3217SOL    HW2 9676   2.139   3.842   4.949
 3218SOL     OW 9677   1.899   5.034   5.006
 3218SOL    HW1 9678   1.952   4.985   5.074
 3218SOL    HW2 9679   1.921   5.132   5.011
 3219SOL     OW 9680   2.594   4.358   4.788
 3219SOL    HW1 9681   2.653   4.332   4.712
 3219SOL    HW2 9682   2.566   4.454   4.777
 3220SOL     OW 9683   2.169   3.787   4.342
 3220SOL    HW1 9684   2.158   3.881   4.375
 3220SOL    HW2 9685   2.164   3.724   4.419
 3221SOL     OW 9686   3.484   4.091   4.098
 3221SOL    HW1 9687   3.486   4.015   4.162
 3221SOL    HW2 9688   3.436   4.168   4.138
 3222SOL     OW 9689   2.885   4.490   4.690
 3222SOL    HW1 9690   2.900   4.511   4.786
 3222SOL    HW2 9691   2.855   4.395   4.681
 3223SOL     OW 9692   3.402   3.998   3.849
 3223SOL    HW1 9693   3.341   3.923   3.872
 3223SOL    HW2 9694   3.424   4.050   3.932
 3224SOL     OW 9695   3.165   4.562   3.766
 3224SOL    HW1 9696   3.199   4.469   3.781
 3224SOL    HW2 9697   3.183   4.589   3.671
 3225SOL     OW 9698   2.181   4.534   4.673
 3225SOL    HW1 9699   2.274   4.570   4.678
 3225SOL    HW2 9700   2.175   4.449   4.725
 3226SOL     OW 9701   2.201   4.233   4.730
 3226SOL    HW1 9702   2.149   4.150   4.713
 3226SOL    HW2 9703   2.278   4.238   4.666
 3227SOL     OW 9704   3.022   3.931   5.201
 3227SOL    HW1 9705   3.022   3.995   5.278
 3227SOL    HW2 9706   3.050   3.979   5.118
 3228SOL     OW 9707   1.870   5.050   3.924
 3228SOL    HW1 9708   1.777   5.071   3.893
 3228SOL    HW2 9709   1.880   4.951   3.937
 3229SOL     OW 9710   2.864   4.520   4.962
 3229SOL    HW1 9711   2.905   4.488   5.048
 3229SOL    HW2 9712   2.768   4.493   4.959
 3230SOL     OW 9713   1.902   4.268   4.838
 3230SOL    HW1 9714   1.987   4.235   4.797
 3230SOL    HW2 9715   1.915   4.283   4.936
 3231SOL     OW 9716   2.677   4.296   4.049
 3231SOL    HW1 9717   2.684   4.207   4.003
 3231SOL    HW2 9718   2.583   4.330   4.041
 3232SOL     OW 9719   3.519   4.328   4.930
 3232SOL    HW1 9720   3.481   4.259   4.992
 3232SOL    HW2 9721   3.601   4.292   4.886
 3233SOL     OW 9722   2.533   4.188   4.993
 3233SOL    HW1 9723   2.499   4.099   4.963
 3233SOL    HW2 9724   2.559   4.242   4.913
 3234SOL     OW 9725   2.335   4.224   3.915
 3234SOL    HW1 9726   2.396   4.304   3.919
 3234SOL    HW2 9727   2.240   4.255   3.922
 3235SOL     OW 9728   2.021   4.861   5.190
 3235SOL    HW1 9729   2.043   4.800   5.266
 3235SOL    HW2 9730   2.031   4.812   5.104
 3236SOL     OW 9731   3.209   4.783   4.958
 3236SOL    HW1 9732   3.233   4.720   4.884
 3236SOL    HW2 9733   3.119   4.823   4.940
 3237SOL     OW 9734   3.164   4.579   4.033
 3237SOL    HW1 9735   3.078   4.548   4.075
 3237SOL    HW2 9736   3.160   4.565   3.934
 3238SOL     OW 9737   1.945   4.982   4.746
 3238SOL    HW1 9738   1.940   4.981   4.846
 3238SOL    HW2 9739   1.862   4.941   4.708
 3239SOL     OW 9740   3.588   3.859   4.247
 3239SOL    HW1 9741   3.661   3.842   4.180
 3239SOL    HW2 9742   3.557   3.772   4.285
 3240SOL     OW 9743   3.142   4.651   4.396
 3240SOL    HW1 9744   3.202   4.570   4.398
 3240SOL    HW2 9745   3.182   4.720   4.336
 3241SOL     OW 9746   2.692   4.997   5.146
 3241SOL    HW1 9747   2.687   5.030   5.241
 3241SOL    HW2 9748   2.606   5.016   5.100
 3242SOL     OW 9749   3.703   3.899   4.687
 3242SOL    HW1 9750   3.742   3.814   4.651
 3242SOL    HW2 9751   3.605   3.901   4.668
 3243SOL     OW 9752   2.125   4.050   4.444
 3243SOL    HW1 9753   2.046   4.101   4.410
 3243SOL    HW2 9754   2.116   4.035   4.542
 3244SOL     OW 9755   2.684   4.726   5.096
 3244SOL    HW1 9756   2.724   4.725   5.004
 3244SOL    HW2 9757   2.694   4.818   5.136
 3245SOL     OW 9758   2.778   4.634   4.015
 3245SOL    HW1 9759   2.841   4.672   3.947
 3245SOL    HW2 9760   2.818   4.551   4.054
 3246SOL     OW 9761   2.234   5.012   5.214
 3246SOL    HW1 9762   2.221   5.105   5.180
 3246SOL    HW2 9763   2.150   4.960   5.201
 3247SOL     OW 9764   3.476   5.016   5.013
 3247SOL    HW1 9765   3.536   5.019   5.093
 3247SOL    HW2 9766   3.401   5.080   5.026
 3248SOL     OW 9767   2.901   4.822   4.420
 3248SOL    HW1 9768   2.831   4.775   4.474
 3248SOL    HW2 9769   2.960   4.754   4.377
 3249SOL     OW 9770   2.876   3.960   4.695
 3249SOL    HW1 9771   2.868   3.924   4.602
 3249SOL    HW2 9772   2.874   3.884   4.760
 3250SOL     OW 9773   3.571   4.109   5.105
 3250SOL    HW1 9774   3.644   4.178   5.109
 3250SOL    HW2 9775   3.599   4.034   5.046
 3251SOL     OW 9776   2.534   3.927   5.213
 3251SOL    HW1 9777   2.624   3.911   5.173
 3251SOL    HW2 9778   2.542   3.932   5.312
 3252SOL     OW 9779   1.937   4.069   3.757
 3252SOL    HW1 9780   1.845   4.041   3.728
 3252SOL    HW2 9781   1.968   4.146   3.701
 3253SOL     OW 9782   1.934   3.890   4.042
 3253SOL    HW1 9783   1.917   3.973   3.988
 3253SOL    HW2 9784   2.024   3.853   4.020
 3254SOL     OW 9785   3.045   5.059   3.843
 3254SOL    HW1 9786   2.946   5.048   3.845
 3254SOL    HW2 9787   3.079   5.074   3.936
 3255SOL     OW 9788   2.475   4.566   5.155
 3255SOL    HW1 9789   2.531   4.647   5.138
 3255SOL    HW2 9790   2.534   4.486   5.158
 3256SOL     OW 9791   3.536   4.607   4.978
 3256SOL    HW1 9792   3.509   4.518   4.941
 3256SOL    HW2 9793   3.537   4.675   4.905
 3257SOL     OW 9794   3.087   4.049   4.173
 3257SOL    HW1 9795   3.152   3.975   4.162
 3257SOL    HW2 9796   3.107   4.099   4.257
 3258SOL     OW 9797   2.456   4.469   4.376
 3258SOL    HW1 9798   2.506   4.554   4.357
 3258SOL    HW2 9799   2.368   4.471   4.328
 3259SOL     OW 9800   3.592   4.658   5.241
 3259SOL    HW1 9801   3.630   4.749   5.256
 3259SOL    HW2 9802   3.584   4.641   5.142
 3260SOL     OW 9803   2.721   5.098   3.740
 3260SOL    HW1 9804   2.675   5.113   3.828
 3260SOL    HW2 9805   2.765   5.183   3.710
 3261SOL     OW 9806   2.721   4.680   4.585
 3261SOL    HW1 9807   2.775   4.611   4.633
 3261SOL    HW2 9808   2.689   4.749   4.651
 3262SOL     OW 9809   2.945   4.708   3.811
 3262SOL    HW1 9810   2.922   4.761   3.729
 3262SOL    HW2 9811   3.026   4.652   3.792
 3263SOL     OW 9812   1.941   4.964   4.377
 3263SOL    HW1 9813   1.940   4.917   4.465
 3263SOL    HW2 9814   2.023   4.936   4.326
 3264SOL     OW 9815   3.686   3.916   4.951
 3264SOL    HW1 9816   3.682   3.826   4.995
 3264SOL    HW2 9817   3.689   3.905   4.852
 3265SOL     OW 9818   2.290   4.148   4.244
 3265SOL    HW1 9819   2.320   4.076   4.182
 3265SOL    HW2 9820   2.251   4.108   4.327
 3266SOL     OW 9821   3.567   5.211   4.828
 3266SOL    HW1 9822   3.474   5.186   4.801
 3266SOL    HW2 9823   3.593   5.161   4.910
 3267SOL     OW 9824   2.179   4.271   5.004
 3267SOL    HW1 9825   2.217   4.212   5.076
 3267SOL    HW2 9826   2.219   4.245   4.916
 3268SOL     OW 9827   3.286   3.938   4.836
 3268SOL    HW1 9828   3.338   3.873   4.891
 3268SOL    HW2 9829   3.237   4.001   4.897
 3269SOL     OW 9830   2.863   3.758   4.878
 3269SOL    HW1 9831   2.800   3.686   4.847
 3269SOL    HW2 9832   2.956   3.722   4.878
 3270SOL     OW 9833   2.632   5.054   4.025
 3270SOL    HW1 9834   2.586   4.967   4.042
 3270SOL    HW2 9835   2.723   5.051   4.066
 3271SOL     OW 9836   3.214   3.776   3.892
 3271SOL    HW1 9837   3.249   3.735   3.808
 3271SOL    HW2 9838   3.124   3.738   3.912
 3272SOL     OW 9839   3.162   4.177   4.415
 3272SOL    HW1 9840   3.103   4.257   4.419
 3272SOL    HW2 9841   3.177   4.142   4.508
 3273SOL     OW 9842   3.455   3.945   4.606
 3273SOL    HW1 9843   3.371   3.944   4.660
 3273SOL    HW2 9844   3.457   4.028   4.550
 3274SOL     OW 9845   1.901   4.801   4.024
 3274SOL    HW1 9846   2.000   4.790   4.015
 3274SOL    HW2 9847   1.861   4.715   4.056
 3275SOL     OW 9848   3.954   0.628   0.113
 3275SOL    HW1 9849   3.861   0.626   0.150
 3275SOL    HW2 9850   3.955   0.589   0.021
 3276SOL     OW 9851   3.949   0.275   0.996
 3276SOL    HW1 9852   3.984   0.258   1.088
 3276SOL    HW2 9853   3.861   0.230   0.984
 3277SOL     OW 9854   3.743   0.368   0.647
 3277SOL    HW1 9855   3.661   0.411   0.686
 3277SOL    HW2 9856   3.715   0.295   0.584
 3278SOL     OW 9857   4.293   1.275   1.165
 3278SOL    HW1 9858   4.200   1.268   1.128
 3278SOL    HW2 9859   4.304   1.364   1.209
 3279SOL     OW 9860   5.279   1.511   0.703
 3279SOL    HW1 9861   5.222   1.495   0.784
 3279SOL    HW2 9862   5.220   1.521   0.623
 3280SOL     OW 9863   4.859   0.703   0.717
 3280SOL    HW1 9864   4.916   0.781   0.692
 3280SOL    HW2 9865   4.799   0.729   0.793
 3281SOL     OW 9866   4.492   1.144   1.023
 3281SOL    HW1 9867   4.414   1.161   1.083
 3281SOL    HW2 9868   4.526   1.231   0.987
 3282SOL     OW 9869   4.574   0.798   1.823
 3282SOL    HW1 9870   4.570   0.874   1.888
 3282SOL    HW2 9871   4.596   0.834   1.732
 3283SOL     OW 9872   4.409   1.012   0.665
 3283SOL    HW1 9873   4.478   0.996   0.735
 3283SOL    HW2 9874   4.336   1.069   0.703
 3284SOL     OW 9875   4.410   1.161   1.803
 3284SOL    HW1 9876   4.470   1.240   1.817
 3284SOL    HW2 9877   4.324   1.192   1.762
 3285SOL     OW 9878   4.059   1.435   1.061
 3285SOL    HW1 9879   3.981   1.404   1.008
 3285SOL    HW2 9880   4.117   1.493   1.004
 3286SOL     OW 9881   4.162   0.392   1.499
 3286SOL    HW1 9882   4.244   0.336   1.508
 3286SOL    HW2 9883   4.081   0.334   1.503
 3287SOL     OW 9884   3.955   1.713   0.483
 3287SOL    HW1 9885   3.989   1.790   0.537
 3287SOL    HW2 9886   3.999   1.713   0.393
 3288SOL     OW 9887   4.851   1.341   1.690
 3288SOL    HW1 9888   4.898   1.341   1.778
 3288SOL    HW2 9889   4.803   1.254   1.679
 3289SOL     OW 9890   3.954   1.434   0.538
 3289SOL    HW1 9891   3.928   1.530   0.538
 3289SOL    HW2 9892   3.883   1.380   0.583
 3290SOL     OW 9893   3.964   1.091   0.886
 3290SOL    HW1 9894   3.978   1.007   0.938
 3290SOL    HW2 9895   3.909   1.155   0.941
 3291SOL     OW 9896   4.344   1.786   1.439
 3291SOL    HW1 9897   4.252   1.769   1.474
 3291SOL    HW2 9898   4.372   1.878   1.465
 3292SOL     OW 9899   4.330   0.964   0.123
 3292SOL    HW1 9900   4.337   1.048   0.069
 3292SOL    HW2 9901   4.376   0.977   0.211
 3293SOL     OW 9902   3.846   0.643   0.563
 3293SOL    HW1 9903   3.801   0.555   0.580
 3293SOL    HW2 9904   3.845   0.697   0.647
 3294SOL     OW 9905   3.751   1.596   0.117
 3294SOL    HW1 9906   3.732   1.500   0.138
 3294SOL    HW2 9907   3.718   1.654   0.192
 3295SOL     OW 9908   5.413   0.922   0.612
 3295SOL    HW1 9909   5.508   0.893   0.620
 3295SOL    HW2 9910   5.405   0.987   0.537
 3296SOL     OW 9911   3.837   0.737   1.597
 3296SOL    HW1 9912   3.925   0.724   1.642
 3296SOL    HW2 9913   3.824   0.834   1.575
 3297SOL     OW 9914   4.337   1.365   0.726
 3297SOL    HW1 9915   4.288   1.278   0.735
 3297SOL    HW2 9916   4.314   1.408   0.639
 3298SOL     OW 9917   5.017   1.228   1.423
 3298SOL    HW1 9918   5.054   1.155   1.365
 3298SOL    HW2 9919   5.069   1.233   1.508
 3299SOL     OW 9920   4.533   0.004   0.502
 3299SOL    HW1 9921   4.573   0.095   0.493
 3299SOL    HW2 9922   4.433   0.012   0.508
 3300SOL     OW 9923   3.921   0.976   1.264
 3300SOL    HW1 9924   4.010   0.931   1.250
 3300SOL    HW2 9925   3.848   0.911   1.245
 3301SOL     OW 9926   4.911   1.792   1.616
 3301SOL    HW1 9927   4.935   1.852   1.540
 3301SOL    HW2 9928   4.918   1.697   1.586
 3302SOL     OW 9929   4.041   0.251   1.801
 3302SOL    HW1 9930   4.112   0.322   1.807
 3302SOL    HW2 9931   3.953   0.290   1.829
 3303SOL     OW 9932   4.322   0.729   0.270
 3303SOL    HW1 9933   4.346   0.798   0.202
 3303SOL    HW2 9934   4.244   0.762   0.324
 3304SOL     OW 9935   5.005   0.345   0.944
 3304SOL    HW1 9936   4.919   0.295   0.931
 3304SOL    HW2 9937   5.067   0.291   1.000
 3305SOL     OW 9938   4.531   0.605   1.465
 3305SOL    HW1 9939   4.484   0.602   1.554
 3305SOL    HW2 9940   4.480   0.550   1.399
 3306SOL     OW 9941   5.118   0.469   1.674
 3306SOL    HW1 9942   5.098   0.512   1.762
 3306SOL    HW2 9943   5.196   0.407   1.683
 3307SOL     OW 9944   4.697   0.890   1.572
 3307SOL    HW1 9945   4.743   0.806   1.543
 3307SOL    HW2 9946   4.641   0.924   1.497
 3308SOL     OW 9947   4.715   0.410   1.242
 3308SOL    HW1 9948   4.638   0.444   1.296
 3308SOL    HW2 9949   4.681   0.359   1.163
 3309SOL     OW 9950   4.765   0.701   0.429
 3309SOL    HW1 9951   4.791   0.697   0.525
 3309SOL    HW2 9952   4.680   0.650   0.415
 3310SOL     OW 9953   3.800   0.811   0.789
 3310SOL    HW1 9954   3.899   0.799   0.798
 3310SOL    HW2 9955   3.776   0.906   0.810
 3311SOL     OW 9956   3.854   1.821   1.571
 3311SOL    HW1 9957   3.844   1.806   1.670
 3311SOL    HW2 9958   3.768   1.857   1.535
 3312SOL     OW 9959   4.589   0.348   0.195
 3312SOL    HW1 9960   4.648   0.411   0.146
 3312SOL    HW2 9961   4.608   0.254   0.166
 3313SOL     OW 9962   5.086   1.144   0.545
 3313SOL    HW1 9963   5.169   1.115   0.497
 3313SOL    HW2 9964   5.037   1.211   0.489
 3314SOL     OW 9965   4.274   0.196   0.885
 3314SOL    HW1 9966   4.269   0.191   0.985
 3314SOL    HW2 9967   4.276   0.292   0.856
 3315SOL     OW 9968   4.732   1.456   0.477
 3315SOL    HW1 9969   4.686   1.528   0.425
 3315SOL    HW2 9970   4.728   1.476   0.575
 3316SOL     OW 9971   4.075   1.801   0.853
 3316SOL    HW1 9972   4.125   1.715   0.859
 3316SOL    HW2 9973   4.140   1.878   0.850
 3317SOL     OW 9974   4.951   1.550   1.506
 3317SOL    HW1 9975   4.957   1.473   1.570
 3317SOL    HW2 9976   4.899   1.524   1.426
 3318SOL     OW 9977   4.045   0.943   0.242
 3318SOL    HW1 9978   4.127   0.982   0.200
 3318SOL    HW2 9979   4.018   0.861   0.193
 3319SOL     OW 9980   4.185   1.266   1.727
 3319SOL    HW1 9981   4.135   1.267   1.641
 3319SOL    HW2 9982   4.122   1.248   1.803
 3320SOL     OW 9983   4.835   1.776   0.237
 3320SOL    HW1 9984   4.775   1.714   0.287
 3320SOL    HW2 9985   4.866   1.732   0.152
 3321SOL     OW 9986   3.926   0.285   1.498
 3321SOL    HW1 9987   3.846   0.345   1.485
 3321SOL    HW2 9988   3.916   0.236   1.584
 3322SOL     OW 9989   5.356   1.377   0.081
 3322SOL    HW1 9990   5.324   1.471   0.071
 3322SOL    HW2 9991   5.280   1.314   0.069
 3323SOL     OW 9992   4.188   1.743   0.323
 3323SOL    HW1 9993   4.221   1.782   0.409
 3323SOL    HW2 9994   4.264   1.736   0.258
 3324SOL     OW 9995   3.973   1.785   1.241
 3324SOL    HW1 9996   4.030   1.720   1.291
 3324SOL    HW2 9997   3.957   1.752   1.148
 3325SOL     OW 9998   4.664   1.698   0.904
 3325SOL    HW1 9999   4.744   1.641   0.925
 3325SOL    HW210000   4.615   1.658   0.827
 3326SOL     OW10001   4.106   0.700   0.480
 3326SOL    HW110002   4.151   0.610   0.477
 3326SOL    HW210003   4.012   0.689   0.513
 3327SOL     OW10004   4.338   0.122   0.117
 3327SOL    HW110005   4.436   0.100   0.124
 3327SOL    HW210006   4.307   0.105   0.024
 3328SOL     OW10007   4.505   0.264   1.749
 3328SOL    HW110008   4.572   0.203   1.792
 3328SOL    HW210009   4.432   0.283   1.814
 3329SOL     OW10010   4.612   1.514   1.195
 3329SOL    HW110011   4.589   1.489   1.101
 3329SOL    HW210012   4.673   1.445   1.234
 3330SOL     OW10013   5.075   0.590   1.433
 3330SOL    HW110014   5.103   0.547   1.518
 3330SOL    HW210015   5.100   0.686   1.434
 3331SOL     OW10016   4.527   1.402   0.924
 3331SOL    HW110017   4.617   1.416   0.882
 3331SOL    HW210018   4.456   1.404   0.853
 3332SOL     OW10019   4.646   0.503   0.899
 3332SOL    HW110020   4.621   0.494   0.803
 3332SOL    HW210021   4.694   0.421   0.930
 3333SOL     OW10022   4.263   0.064   0.512
 3333SOL    HW110023   4.182   0.065   0.570
 3333SOL    HW210024   4.266   0.147   0.457
 3334SOL     OW10025   5.158   1.188   0.041
 3334SOL    HW110026   5.190   1.112   0.098
 3334SOL    HW210027   5.066   1.215   0.071
 3335SOL     OW10028   4.021   0.035   0.171
 3335SOL    HW110029   4.070   0.119   0.150
 3335SOL    HW210030   4.083  -0.030   0.216
 3336SOL     OW10031   4.659   0.236   0.480
 3336SOL    HW110032   4.611   0.277   0.402
 3336SOL    HW210033   4.758   0.234   0.461
 3337SOL     OW10034   4.800   0.683   1.464
 3337SOL    HW110035   4.720   0.622   1.467
 3337SOL    HW210036   4.881   0.630   1.440
 3338SOL     OW10037   4.951   1.570   0.793
 3338SOL    HW110038   4.972   1.644   0.728
 3338SOL    HW210039   5.019   1.570   0.866
 3339SOL     OW10040   4.183   1.152   0.741
 3339SOL    HW110041   4.112   1.125   0.806
 3339SOL    HW210042   4.157   1.124   0.648
 3340SOL     OW10043   4.995   1.797   0.591
 3340SOL    HW110044   5.039   1.861   0.527
 3340SOL    HW210045   4.945   1.849   0.661
 3341SOL     OW10046   4.756   0.549   0.016
 3341SOL    HW110047   4.715   0.631  -0.023
 3341SOL    HW210048   4.820   0.575   0.089
 3342SOL     OW10049   3.802   0.556   1.386
 3342SOL    HW110050   3.894   0.555   1.345
 3342SOL    HW210051   3.796   0.630   1.453
 3343SOL     OW10052   4.285   0.222   1.147
 3343SOL    HW110053   4.323   0.138   1.184
 3343SOL    HW210054   4.197   0.241   1.191
 3344SOL     OW10055   4.590   0.454   0.642
 3344SOL    HW110056   4.558   0.526   0.580
 3344SOL    HW210057   4.614   0.373   0.589
 3345SOL     OW10058   4.741   0.039   0.753
 3345SOL    HW110059   4.669   0.044   0.684
 3345SOL    HW210060   4.717  -0.030   0.822
 3346SOL     OW10061   4.212   1.385   0.174
 3346SOL    HW110062   4.125   1.370   0.221
 3346SOL    HW210063   4.195   1.411   0.079
 3347SOL     OW10064   5.114   0.575   0.078
 3347SOL    HW110065   5.060   0.554   0.159
 3347SOL    HW210066   5.205   0.534   0.087
 3348SOL     OW10067   4.251   0.256   0.328
 3348SOL    HW110068   4.278   0.197   0.253
 3348SOL    HW210069   4.251   0.351   0.297
 3349SOL     OW10070   4.788   1.347   1.340
 3349SOL    HW110071   4.708   1.324   1.395
 3349SOL    HW210072   4.871   1.321   1.389
 3350SOL     OW10073   4.835   1.195   1.100
 3350SOL    HW110074   4.795   1.239   1.181
 3350SOL    HW210075   4.794   1.232   1.017
 3351SOL     OW10076   4.639   0.089   1.402
 3351SOL    HW110077   4.664   0.069   1.307
 3351SOL    HW210078   4.711   0.145   1.444
 3352SOL     OW10079   4.704   1.116   1.719
 3352SOL    HW110080   4.605   1.122   1.729
 3352SOL    HW210081   4.727   1.036   1.663
 3353SOL     OW10082   4.429   1.050   0.368
 3353SOL    HW110083   4.415   1.057   0.467
 3353SOL    HW210084   4.513   0.999   0.350
 3354SOL     OW10085   4.134   0.813   1.251
 3354SOL    HW110086   4.220   0.825   1.301
 3354SOL    HW210087   4.092   0.726   1.278
 3355SOL     OW10088   4.998   0.386   1.262
 3355SOL    HW110089   5.019   0.460   1.326
 3355SOL    HW210090   4.909   0.403   1.219
 3356SOL     OW10091   3.788   1.564   1.331
 3356SOL    HW110092   3.742   1.646   1.297
 3356SOL    HW210093   3.886   1.583   1.340
 3357SOL     OW10094   4.091   1.100   0.501
 3357SOL    HW110095   4.084   1.183   0.445
 3357SOL    HW210096   4.095   1.020   0.441
 3358SOL     OW10097   4.290   0.537   0.865
 3358SOL    HW110098   4.302   0.603   0.791
 3358SOL    HW210099   4.336   0.571   0.948
 3359SOL     OW10100   4.976   1.348   0.388
 3359SOL    HW110101   5.026   1.425   0.428
 3359SOL    HW210102   4.881   1.350   0.420
 3360SOL     OW10103   4.996   1.445   1.142
 3360SOL    HW110104   5.043   1.458   1.229
 3360SOL    HW210105   4.930   1.371   1.151
 3361SOL     OW10106   4.078   1.510   1.329
 3361SOL    HW110107   4.057   1.466   1.242
 3361SOL    HW210108   4.175   1.536   1.332
 3362SOL     OW10109   4.126   0.751   1.598
 3362SOL    HW110110   4.194   0.806   1.551
 3362SOL    HW210111   4.166   0.663   1.625
 3363SOL     OW10112   4.737   0.105   1.770
 3363SOL    HW110113   4.743   0.190   1.718
 3363SOL    HW210114   4.769   0.029   1.713
 3364SOL     OW10115   4.228   0.050   1.740
 3364SOL    HW110116   4.186  -0.007   1.670
 3364SOL    HW210117   4.162   0.119   1.772
 3365SOL     OW10118   4.297   0.870   1.029
 3365SOL    HW110119   4.341   0.959   1.020
 3365SOL    HW210120   4.234   0.870   1.106
 3366SOL     OW10121   5.084   0.862   1.045
 3366SOL    HW110122   5.009   0.862   0.979
 3366SOL    HW210123   5.121   0.770   1.054
 3367SOL     OW10124   4.933   0.525   0.275
 3367SOL    HW110125   4.946   0.441   0.329
 3367SOL    HW210126   4.904   0.599   0.335
 3368SOL     OW10127   4.031   0.213   1.231
 3368SOL    HW110128   4.008   0.250   1.321
 3368SOL    HW210129   4.001   0.118   1.225
 3369SOL     OW10130   3.761   1.310   1.282
 3369SOL    HW110131   3.814   1.261   1.350
 3369SOL    HW210132   3.783   1.408   1.287
 3370SOL     OW10133   4.456   0.634   1.064
 3370SOL    HW110134   4.515   0.608   0.988
 3370SOL    HW210135   4.428   0.730   1.053
 3371SOL     OW10136   4.031   0.063   0.618
 3371SOL    HW110137   4.020   0.157   0.651
 3371SOL    HW210138   4.026   0.000   0.695
 3372SOL     OW10139   4.747   0.766   0.966
 3372SOL    HW110140   4.762   0.787   1.062
 3372SOL    HW210141   4.717   0.671   0.957
 3373SOL     OW10142   4.704   1.573   1.700
 3373SOL    HW110143   4.684   1.617   1.612
 3373SOL    HW210144   4.743   1.482   1.684
 3374SOL     OW10145   4.074   0.898   1.804
 3374SOL    HW110146   4.150   0.942   1.852
 3374SOL    HW210147   4.109   0.851   1.722
 3375SOL     OW10148   5.027   0.838   0.042
 3375SOL    HW110149   5.061   0.745   0.057
 3375SOL    HW210150   5.045   0.865  -0.053
 3376SOL     OW10151   4.792   1.333   0.849
 3376SOL    HW110152   4.799   1.249   0.794
 3376SOL    HW210153   4.854   1.402   0.813
 3377SOL     OW10154   4.043   0.810   0.949
 3377SOL    HW110155   4.136   0.846   0.954
 3377SOL    HW210156   4.037   0.725   1.001
 3378SOL     OW10157   4.063   0.509   1.006
 3378SOL    HW110158   4.011   0.426   0.989
 3378SOL    HW210159   4.140   0.514   0.942
 3379SOL     OW10160   4.862   0.380   1.678
 3379SOL    HW110161   4.817   0.443   1.742
 3379SOL    HW210162   4.955   0.411   1.661
 3380SOL     OW10163   4.884   0.207   1.477
 3380SOL    HW110164   4.884   0.271   1.554
 3380SOL    HW210165   4.912   0.255   1.394
 3381SOL     OW10166   3.812   1.801   0.927
 3381SOL    HW110167   3.770   1.715   0.900
 3381SOL    HW210168   3.906   1.804   0.893
 3382SOL     OW10169   4.228   1.568   0.910
 3382SOL    HW110170   4.294   1.642   0.919
 3382SOL    HW210171   4.272   1.489   0.868
 3383SOL     OW10172   4.726   0.796   1.238
 3383SOL    HW110173   4.767   0.764   1.324
 3383SOL    HW210174   4.630   0.769   1.235
 3384SOL     OW10175   3.764   0.544   1.114
 3384SOL    HW110176   3.849   0.511   1.073
 3384SOL    HW210177   3.777   0.559   1.212
 3385SOL     OW10178   3.913   0.520   1.722
 3385SOL    HW110179   3.972   0.480   1.652
 3385SOL    HW210180   3.855   0.591   1.681
 3386SOL     OW10181   5.093   0.950   1.660
 3386SOL    HW110182   5.132   1.039   1.680
 3386SOL    HW210183   5.103   0.930   1.563
 3387SOL     OW10184   4.539   0.572   0.325
 3387SOL    HW110185   4.546   0.483   0.279
 3387SOL    HW210186   4.445   0.606   0.317
 3388SOL     OW10187   3.976   1.564   1.744
 3388SOL    HW110188   3.946   1.621   1.820
 3388SOL    HW210189   3.969   1.467   1.770
 3389SOL     OW10190   4.395   0.464   1.269
 3389SOL    HW110191   4.361   0.375   1.239
 3389SOL    HW210192   4.421   0.518   1.189
 3390SOL     OW10193   4.654   1.678   1.465
 3390SOL    HW110194   4.630   1.660   1.370
 3390SOL    HW210195   4.684   1.772   1.475
 3391SOL     OW10196   4.197   0.500   0.191
 3391SOL    HW110197   4.258   0.580   0.195
 3391SOL    HW210198   4.102   0.531   0.198
 3392SOL     OW10199   3.883   1.137   1.466
 3392SOL    HW110200   3.905   1.076   1.542
 3392SOL    HW210201   3.893   1.088   1.380
 3393SOL     OW10202   5.071   1.059   1.234
 3393SOL    HW110203   5.095   0.996   1.160
 3393SOL    HW210204   4.981   1.099   1.216
 3394SOL     OW10205   5.026   0.855   0.309
 3394SOL    HW110206   4.940   0.824   0.351
 3394SOL    HW210207   5.022   0.841   0.210
 3395SOL     OW10208   4.976   1.731   1.128
 3395SOL    HW110209   5.060   1.736   1.074
 3395SOL    HW210210   4.953   1.635   1.146
 3396SOL     OW10211   3.807   1.258   1.022
 3396SOL    HW110212   3.802   1.257   1.122
 3396SOL    HW210213   3.724   1.217   0.984
 3397SOL     OW10214   4.412   1.662   1.716
 3397SOL    HW110215   4.356   1.743   1.725
 3397SOL    HW210216   4.464   1.666   1.630
 3398SOL     OW10217   4.627   0.086   0.133
 3398SOL    HW110218   4.678   0.087   0.047
 3398SOL    HW210219   4.683   0.044   0.204
 3399SOL     OW10220   5.112   1.573   0.477
 3399SOL    HW110221   5.179   1.585   0.403
 3399SOL    HW210222   5.072   1.662   0.500
 3400SOL     OW10223   3.854   1.794   1.851
 3400SOL    HW110224   3.813   1.720   1.904
 3400SOL    HW210225   3.918   1.845   1.909
 3401SOL     OW10226   5.004   0.927   0.672
 3401SOL    HW110227   5.064   0.846   0.674
 3401SOL    HW210228   5.044   0.996   0.612
 3402SOL     OW10229   4.554   1.273   1.422
 3402SOL    HW110230   4.549   1.306   1.517
 3402SOL    HW210231   4.468   1.292   1.376
 3403SOL     OW10232   4.396   1.616   0.154
 3403SOL    HW110233   4.405   1.626   0.055
 3403SOL    HW210234   4.356   1.527   0.175
 3404SOL     OW10235   3.987   0.326   0.720
 3404SOL    HW110236   3.908   0.377   0.686
 3404SOL    HW210237   3.978   0.311   0.818
 3405SOL     OW10238   4.918   1.612   0.031
 3405SOL    HW110239   4.924   1.519   0.068
 3405SOL    HW210240   4.859   1.612  -0.049
 3406SOL     OW10241   4.546   1.002   1.372
 3406SOL    HW110242   4.586   1.001   1.280
 3406SOL    HW210243   4.556   1.094   1.412
 3407SOL     OW10244   4.640   0.910   0.291
 3407SOL    HW110245   4.703   0.948   0.223
 3407SOL    HW210246   4.680   0.827   0.330
 3408SOL     OW10247   4.096   1.288   1.490
 3408SOL    HW110248   4.083   1.381   1.456
 3408SOL    HW210249   4.012   1.236   1.477
 3409SOL     OW10250   4.763   1.098   0.696
 3409SOL    HW110251   4.693   1.051   0.750
 3409SOL    HW210252   4.822   1.030   0.653
 3410SOL     OW10253   4.738   0.236   0.971
 3410SOL    HW110254   4.730   0.200   0.878
 3410SOL    HW210255   4.736   0.160   1.036
 3411SOL     OW10256   4.314   1.487   0.491
 3411SOL    HW110257   4.356   1.429   0.421
 3411SOL    HW210258   4.270   1.566   0.447
 3412SOL     OW10259   3.979   1.348   0.290
 3412SOL    HW110260   3.883   1.349   0.263
 3412SOL    HW210261   3.991   1.401   0.374
 3413SOL     OW10262   3.829   1.013   1.726
 3413SOL    HW110263   3.752   0.980   1.780
 3413SOL    HW210264   3.914   0.983   1.768
 3414SOL     OW10265   4.396   0.203   1.489
 3414SOL    HW110266   4.486   0.187   1.449
 3414SOL    HW210267   4.404   0.208   1.588
 3415SOL     OW10268   3.799   0.345   0.033
 3415SOL    HW110269   3.707   0.317   0.004
 3415SOL    HW210270   3.830   0.422  -0.023
 3416SOL     OW10271   5.164   0.856   1.398
 3416SOL    HW110272   5.107   0.908   1.335
 3416SOL    HW210273   5.260   0.868   1.374
 3417SOL     OW10274   3.796   0.166   0.318
 3417SOL    HW110275   3.779   0.249   0.264
 3417SOL    HW210276   3.886   0.129   0.296
 3418SOL     OW10277   4.907   1.335   0.119
 3418SOL    HW110278   4.808   1.324   0.121
 3418SOL    HW210279   4.941   1.350   0.212
 3419SOL     OW10280   4.337   0.842   1.431
 3419SOL    HW110281   4.393   0.923   1.414
 3419SOL    HW210282   4.396   0.762   1.434
 3420SOL     OW10283   4.440   0.565   1.708
 3420SOL    HW110284   4.459   0.630   1.782
 3420SOL    HW210285   4.500   0.485   1.717
 3421SOL     OW10286   5.174   1.220   1.633
 3421SOL    HW110287   5.165   1.210   1.732
 3421SOL    HW210288   5.270   1.213   1.607
 3422SOL     OW10289   4.114   1.741   1.560
 3422SOL    HW110290   4.023   1.782   1.558
 3422SOL    HW210291   4.107   1.647   1.592
 3423SOL     OW10292   4.949   0.325   0.449
 3423SOL    HW110293   5.014   0.251   0.438
 3423SOL    HW210294   4.969   0.375   0.533
 3424SOL     OW10295   4.318   0.745   0.652
 3424SOL    HW110296   4.368   0.830   0.633
 3424SOL    HW210297   4.230   0.747   0.604
 3425SOL     OW10298   4.583   1.374   0.016
 3425SOL    HW110299   4.537   1.389   0.104
 3425SOL    HW210300   4.627   1.459  -0.014
 3426SOL     OW10301   4.385   1.790   0.953
 3426SOL    HW110302   4.339   1.878   0.940
 3426SOL    HW210303   4.484   1.802   0.946
 3427SOL     OW10304   4.583   0.956   0.861
 3427SOL    HW110305   4.637   0.887   0.909
 3427SOL    HW210306   4.551   1.025   0.927
 3428SOL     OW10307   4.807   0.984   0.087
 3428SOL    HW110308   4.784   1.037   0.005
 3428SOL    HW210309   4.888   0.928   0.068
 3429SOL     OW10310   3.945   1.314   1.844
 3429SOL    HW110311   3.880   1.241   1.823
 3429SOL    HW210312   3.949   1.328   1.942
 3430SOL     OW10313   3.803   1.240   0.653
 3430SOL    HW110314   3.802   1.193   0.741
 3430SOL    HW210315   3.885   1.212   0.602
 3431SOL     OW10316   4.396   1.391   1.624
 3431SOL    HW110317   4.318   1.341   1.662
 3431SOL    HW210318   4.393   1.486   1.655
 3432SOL     OW10319   4.152   0.424   0.520
 3432SOL    HW110320   4.182   0.352   0.458
 3432SOL    HW210321   4.113   0.384   0.603
 3433SOL     OW10322   4.041   0.547   1.280
 3433SOL    HW110323   4.079   0.488   1.352
 3433SOL    HW210324   4.081   0.521   1.192
 3434SOL     OW10325   4.536   1.586   0.687
 3434SOL    HW110326   4.568   1.596   0.593
 3434SOL    HW210327   4.457   1.524   0.689
 3435SOL     OW10328   4.725   0.034   1.154
 3435SOL    HW110329   4.662  -0.038   1.123
 3435SOL    HW210330   4.818  -0.002   1.154
 3436SOL     OW10331   4.494   1.330   0.301
 3436SOL    HW110332   4.448   1.243   0.318
 3436SOL    HW210333   4.585   1.327   0.342
 3437SOL     OW10334   4.342   1.567   1.284
 3437SOL    HW110335   4.337   1.649   1.341
 3437SOL    HW210336   4.431   1.564   1.239
 3438SOL     OW10337   5.076   0.052   0.168
 3438SOL    HW110338   5.111   0.011   0.084
 3438SOL    HW210339   4.986   0.014   0.188
 3439SOL     OW10340   3.763   1.077   0.300
 3439SOL    HW110341   3.862   1.066   0.291
 3439SOL    HW210342   3.723   0.991   0.332
 3440SOL     OW10343   4.599   1.646   0.337
 3440SOL    HW110344   4.522   1.611   0.283
 3440SOL    HW210345   4.567   1.717   0.399
 3441SOL     OW10346   3.954   0.628   1.975
 3441SOL    HW110347   3.861   0.626   2.012
 3441SOL    HW210348   3.955   0.589   1.883
 3442SOL     OW10349   3.949   0.275   2.858
 3442SOL    HW110350   3.984   0.258   2.950
 3442SOL    HW210351   3.861   0.230   2.846
 3443SOL     OW10352   3.743   0.368   2.509
 3443SOL    HW110353   3.661   0.411   2.548
 3443SOL    HW210354   3.715   0.295   2.446
 3444SOL     OW10355   4.293   1.275   3.027
 3444SOL    HW110356   4.200   1.268   2.990
 3444SOL    HW210357   4.304   1.364   3.071
 3445SOL     OW10358   5.279   1.511   2.565
 3445SOL    HW110359   5.222   1.495   2.646
 3445SOL    HW210360   5.220   1.521   2.485
 3446SOL     OW10361   4.859   0.703   2.579
 3446SOL    HW110362   4.916   0.781   2.554
 3446SOL    HW210363   4.799   0.729   2.655
 3447SOL     OW10364   4.492   1.144   2.885
 3447SOL    HW110365   4.414   1.161   2.945
 3447SOL    HW210366   4.526   1.231   2.849
 3448SOL     OW10367   4.574   0.798   3.685
 3448SOL    HW110368   4.570   0.874   3.750
 3448SOL    HW210369   4.596   0.834   3.594
 3449SOL     OW10370   4.409   1.012   2.527
 3449SOL    HW110371   4.478   0.996   2.597
 3449SOL    HW210372   4.336   1.069   2.565
 3450SOL     OW10373   4.410   1.161   3.665
 3450SOL    HW110374   4.470   1.240   3.679
 3450SOL    HW210375   4.324   1.192   3.624
 3451SOL     OW10376   4.059   1.435   2.923
 3451SOL    HW110377   3.981   1.404   2.870
 3451SOL    HW210378   4.117   1.493   2.866
 3452SOL     OW10379   4.162   0.392   3.361
 3452SOL    HW110380   4.244   0.336   3.370
 3452SOL    HW210381   4.081   0.334   3.365
 3453SOL     OW10382   3.955   1.713   2.345
 3453SOL    HW110383   3.989   1.790   2.399
 3453SOL    HW210384   3.999   1.713   2.255
 3454SOL     OW10385   4.851   1.341   3.552
 3454SOL    HW110386   4.898   1.341   3.640
 3454SOL    HW210387   4.803   1.254   3.541
 3455SOL     OW10388   3.954   1.434   2.400
 3455SOL    HW110389   3.928   1.530   2.400
 3455SOL    HW210390   3.883   1.380   2.445
 3456SOL     OW10391   3.964   1.091   2.748
 3456SOL    HW110392   3.978   1.007   2.800
 3456SOL    HW210393   3.909   1.155   2.803
 3457SOL     OW10394   4.344   1.786   3.301
 3457SOL    HW110395   4.252   1.769   3.336
 3457SOL    HW210396   4.372   1.878   3.327
 3458SOL     OW10397   4.330   0.964   1.985
 3458SOL    HW110398   4.337   1.048   1.931
 3458SOL    HW210399   4.376   0.977   2.073
 3459SOL     OW10400   3.846   0.643   2.425
 3459SOL    HW110401   3.801   0.555   2.442
 3459SOL    HW210402   3.845   0.697   2.509
 3460SOL     OW10403   3.751   1.596   1.979
 3460SOL    HW110404   3.732   1.500   2.000
 3460SOL    HW210405   3.718   1.654   2.054
 3461SOL     OW10406   5.413   0.922   2.474
 3461SOL    HW110407   5.508   0.893   2.482
 3461SOL    HW210408   5.405   0.987   2.399
 3462SOL     OW10409   3.837   0.737   3.459
 3462SOL    HW110410   3.925   0.724   3.504
 3462SOL    HW210411   3.824   0.834   3.437
 3463SOL     OW10412   4.337   1.365   2.588
 3463SOL    HW110413   4.288   1.278   2.597
 3463SOL    HW210414   4.314   1.408   2.501
 3464SOL     OW10415   5.017   1.228   3.285
 3464SOL    HW110416   5.054   1.155   3.227
 3464SOL    HW210417   5.069   1.233   3.370
 3465SOL     OW10418   4.533   0.004   2.364
 3465SOL    HW110419   4.573   0.095   2.355
 3465SOL    HW210420   4.433   0.012   2.370
 3466SOL     OW10421   3.921   0.976   3.126
 3466SOL    HW110422   4.010   0.931   3.112
 3466SOL    HW210423   3.848   0.911   3.107
 3467SOL     OW10424   4.911   1.792   3.478
 3467SOL    HW110425   4.935   1.852   3.402
 3467SOL    HW210426   4.918   1.697   3.448
 3468SOL     OW10427   4.041   0.251   3.663
 3468SOL    HW110428   4.112   0.322   3.669
 3468SOL    HW210429   3.953   0.290   3.691
 3469SOL     OW10430   4.322   0.729   2.132
 3469SOL    HW110431   4.346   0.798   2.064
 3469SOL    HW210432   4.244   0.762   2.186
 3470SOL     OW10433   5.005   0.345   2.806
 3470SOL    HW110434   4.919   0.295   2.793
 3470SOL    HW210435   5.067   0.291   2.862
 3471SOL     OW10436   4.531   0.605   3.327
 3471SOL    HW110437   4.484   0.602   3.416
 3471SOL    HW210438   4.480   0.550   3.261
 3472SOL     OW10439   5.118   0.469   3.536
 3472SOL    HW110440   5.098   0.512   3.624
 3472SOL    HW210441   5.196   0.407   3.545
 3473SOL     OW10442   4.697   0.890   3.434
 3473SOL    HW110443   4.743   0.806   3.405
 3473SOL    HW210444   4.641   0.924   3.359
 3474SOL     OW10445   4.715   0.410   3.104
 3474SOL    HW110446   4.638   0.444   3.158
 3474SOL    HW210447   4.681   0.359   3.025
 3475SOL     OW10448   4.765   0.701   2.291
 3475SOL    HW110449   4.791   0.697   2.387
 3475SOL    HW210450   4.680   0.650   2.277
 3476SOL     OW10451   3.800   0.811   2.651
 3476SOL    HW110452   3.899   0.799   2.660
 3476SOL    HW210453   3.776   0.906   2.672
 3477SOL     OW10454   3.854   1.821   3.433
 3477SOL    HW110455   3.844   1.806   3.532
 3477SOL    HW210456   3.768   1.857   3.397
 3478SOL     OW10457   4.589   0.348   2.057
 3478SOL    HW110458   4.648   0.411   2.008
 3478SOL    HW210459   4.608   0.254   2.028
 3479SOL     OW10460   5.086   1.144   2.407
 3479SOL    HW110461   5.169   1.115   2.359
 3479SOL    HW210462   5.037   1.211   2.351
 3480SOL     OW10463   4.274   0.196   2.747
 3480SOL    HW110464   4.269   0.191   2.847
 3480SOL    HW210465   4.276   0.292   2.718
 3481SOL     OW10466   4.732   1.456   2.339
 3481SOL    HW110467   4.686   1.528   2.287
 3481SOL    HW210468   4.728   1.476   2.437
 3482SOL     OW10469   4.075   1.801   2.715
 3482SOL    HW110470   4.125   1.715   2.721
 3482SOL    HW210471   4.140   1.878   2.712
 3483SOL     OW10472   4.951   1.550   3.368
 3483SOL    HW110473   4.957   1.473   3.432
 3483SOL    HW210474   4.899   1.524   3.288
 3484SOL     OW10475   4.045   0.943   2.104
 3484SOL    HW110476   4.127   0.982   2.062
 3484SOL    HW210477   4.018   0.861   2.055
 3485SOL     OW10478   4.185   1.266   3.589
 3485SOL    HW110479   4.135   1.267   3.503
 3485SOL    HW210480   4.122   1.248   3.665
 3486SOL     OW10481   4.835   1.776   2.099
 3486SOL    HW110482   4.775   1.714   2.149
 3486SOL    HW210483   4.866   1.732   2.014
 3487SOL     OW10484   3.926   0.285   3.360
 3487SOL    HW110485   3.846   0.345   3.347
 3487SOL    HW210486   3.916   0.236   3.446
 3488SOL     OW10487   4.188   1.743   2.185
 3488SOL    HW110488   4.221   1.782   2.271
 3488SOL    HW210489   4.264   1.736   2.120
 3489SOL     OW10490   3.973   1.785   3.103
 3489SOL    HW110491   4.030   1.720   3.153
 3489SOL    HW210492   3.957   1.752   3.010
 3490SOL     OW10493   4.664   1.698   2.766
 3490SOL    HW110494   4.744   1.641   2.787
 3490SOL    HW210495   4.615   1.658   2.689
 3491SOL     OW10496   4.106   0.700   2.342
 3491SOL    HW110497   4.151   0.610   2.339
 3491SOL    HW210498   4.012   0.689   2.375
 3492SOL     OW10499   4.338   0.122   1.979
 3492SOL    HW110500   4.436   0.100   1.986
 3492SOL    HW210501   4.307   0.105   1.886
 3493SOL     OW10502   4.505   0.264   3.611
 3493SOL    HW110503   4.572   0.203   3.654
 3493SOL    HW210504   4.432   0.283   3.676
 3494SOL     OW10505   4.612   1.514   3.057
 3494SOL    HW110506   4.589   1.489   2.963
 3494SOL    HW210507   4.673   1.445   3.096
 3495SOL     OW10508   5.075   0.590   3.295
 3495SOL    HW110509   5.103   0.547   3.380
 3495SOL    HW210510   5.100   0.686   3.296
 3496SOL     OW10511   4.527   1.402   2.786
 3496SOL    HW110512   4.617   1.416   2.744
 3496SOL    HW210513   4.456   1.404   2.715
 3497SOL     OW10514   4.646   0.503   2.761
 3497SOL    HW110515   4.621   0.494   2.665
 3497SOL    HW210516   4.694   0.421   2.792
 3498SOL     OW10517   4.263   0.064   2.374
 3498SOL    HW110518   4.182   0.065   2.432
 3498SOL    HW210519   4.266   0.147   2.319
 3499SOL     OW10520   5.158   1.188   1.903
 3499SOL    HW110521   5.190   1.112   1.960
 3499SOL    HW210522   5.066   1.215   1.933
 3500SOL     OW10523   4.021   0.035   2.033
 3500SOL    HW110524   4.070   0.119   2.012
 3500SOL    HW210525   4.083  -0.030   2.078
 3501SOL     OW10526   4.659   0.236   2.342
 3501SOL    HW110527   4.611   0.277   2.264
 3501SOL    HW210528   4.758   0.234   2.323
 3502SOL     OW10529   4.800   0.683   3.326
 3502SOL    HW110530   4.720   0.622   3.329
 3502SOL    HW210531   4.881   0.630   3.302
 3503SOL     OW10532   4.951   1.570   2.655
 3503SOL    HW110533   4.972   1.644   2.590
 3503SOL    HW210534   5.019   1.570   2.728
 3504SOL     OW10535   4.183   1.152   2.603
 3504SOL    HW110536   4.112   1.125   2.668
 3504SOL    HW210537   4.157   1.124   2.510
 3505SOL     OW10538   4.995   1.797   2.453
 3505SOL    HW110539   5.039   1.861   2.389
 3505SOL    HW210540   4.945   1.849   2.523
 3506SOL     OW10541   4.756   0.549   1.878
 3506SOL    HW110542   4.715   0.631   1.839
 3506SOL    HW210543   4.820   0.575   1.951
 3507SOL     OW10544   3.802   0.556   3.248
 3507SOL    HW110545   3.894   0.555   3.207
 3507SOL    HW210546   3.796   0.630   3.315
 3508SOL     OW10547   4.285   0.222   3.009
 3508SOL    HW110548   4.323   0.138   3.046
 3508SOL    HW210549   4.197   0.241   3.053
 3509SOL     OW10550   4.590   0.454   2.504
 3509SOL    HW110551   4.558   0.526   2.442
 3509SOL    HW210552   4.614   0.373   2.451
 3510SOL     OW10553   4.741   0.039   2.615
 3510SOL    HW110554   4.669   0.044   2.546
 3510SOL    HW210555   4.717  -0.030   2.684
 3511SOL     OW10556   4.212   1.385   2.036
 3511SOL    HW110557   4.125   1.370   2.083
 3511SOL    HW210558   4.195   1.411   1.941
 3512SOL     OW10559   5.114   0.575   1.940
 3512SOL    HW110560   5.060   0.554   2.021
 3512SOL    HW210561   5.205   0.534   1.949
 3513SOL     OW10562   4.251   0.256   2.190
 3513SOL    HW110563   4.278   0.197   2.115
 3513SOL    HW210564   4.251   0.351   2.159
 3514SOL     OW10565   4.788   1.347   3.202
 3514SOL    HW110566   4.708   1.324   3.257
 3514SOL    HW210567   4.871   1.321   3.251
 3515SOL     OW10568   4.835   1.195   2.962
 3515SOL    HW110569   4.795   1.239   3.043
 3515SOL    HW210570   4.794   1.232   2.879
 3516SOL     OW10571   4.639   0.089   3.264
 3516SOL    HW110572   4.664   0.069   3.169
 3516SOL    HW210573   4.711   0.145   3.306
 3517SOL     OW10574   4.704   1.116   3.581
 3517SOL    HW110575   4.605   1.122   3.591
 3517SOL    HW210576   4.727   1.036   3.525
 3518SOL     OW10577   4.429   1.050   2.230
 3518SOL    HW110578   4.415   1.057   2.329
 3518SOL    HW210579   4.513   0.999   2.212
 3519SOL     OW10580   4.134   0.813   3.113
 3519SOL    HW110581   4.220   0.825   3.163
 3519SOL    HW210582   4.092   0.726   3.140
 3520SOL     OW10583   4.998   0.386   3.124
 3520SOL    HW110584   5.019   0.460   3.188
 3520SOL    HW210585   4.909   0.403   3.081
 3521SOL     OW10586   3.788   1.564   3.193
 3521SOL    HW110587   3.742   1.646   3.159
 3521SOL    HW210588   3.886   1.583   3.202
 3522SOL     OW10589   4.091   1.100   2.363
 3522SOL    HW110590   4.084   1.183   2.307
 3522SOL    HW210591   4.095   1.020   2.303
 3523SOL     OW10592   4.290   0.537   2.727
 3523SOL    HW110593   4.302   0.603   2.653
 3523SOL    HW210594   4.336   0.571   2.810
 3524SOL     OW10595   4.976   1.348   2.250
 3524SOL    HW110596   5.026   1.425   2.290
 3524SOL    HW210597   4.881   1.350   2.282
 3525SOL     OW10598   4.996   1.445   3.004
 3525SOL    HW110599   5.043   1.458   3.091
 3525SOL    HW210600   4.930   1.371   3.013
 3526SOL     OW10601   4.078   1.510   3.191
 3526SOL    HW110602   4.057   1.466   3.104
 3526SOL    HW210603   4.175   1.536   3.194
 3527SOL     OW10604   4.126   0.751   3.460
 3527SOL    HW110605   4.194   0.806   3.413
 3527SOL    HW210606   4.166   0.663   3.487
 3528SOL     OW10607   4.737   0.105   3.632
 3528SOL    HW110608   4.743   0.190   3.580
 3528SOL    HW210609   4.769   0.029   3.575
 3529SOL     OW10610   4.228   0.050   3.602
 3529SOL    HW110611   4.186  -0.007   3.532
 3529SOL    HW210612   4.162   0.119   3.634
 3530SOL     OW10613   4.297   0.870   2.891
 3530SOL    HW110614   4.341   0.959   2.882
 3530SOL    HW210615   4.234   0.870   2.968
 3531SOL     OW10616   5.084   0.862   2.907
 3531SOL    HW110617   5.009   0.862   2.841
 3531SOL    HW210618   5.121   0.770   2.916
 3532SOL     OW10619   4.933   0.525   2.137
 3532SOL    HW110620   4.946   0.441   2.191
 3532SOL    HW210621   4.904   0.599   2.197
 3533SOL     OW10622   4.031   0.213   3.093
 3533SOL    HW110623   4.008   0.250   3.183
 3533SOL    HW210624   4.001   0.118   3.087
 3534SOL     OW10625   3.761   1.310   3.144
 3534SOL    HW110626   3.814   1.261   3.212
 3534SOL    HW210627   3.783   1.408   3.149
 3535SOL     OW10628   4.456   0.634   2.926
 3535SOL    HW110629   4.515   0.608   2.850
 3535SOL    HW210630   4.428   0.730   2.915
 3536SOL     OW10631   4.031   0.063   2.480
 3536SOL    HW110632   4.020   0.157   2.513
 3536SOL    HW210633   4.026   0.000   2.557
 3537SOL     OW10634   4.747   0.766   2.828
 3537SOL    HW110635   4.762   0.787   2.924
 3537SOL    HW210636   4.717   0.671   2.819
 3538SOL     OW10637   4.704   1.573   3.562
 3538SOL    HW110638   4.684   1.617   3.474
 3538SOL    HW210639   4.743   1.482   3.546
 3539SOL     OW10640   4.074   0.898   3.666
 3539SOL    HW110641   4.150   0.942   3.714
 3539SOL    HW210642   4.109   0.851   3.584
 3540SOL     OW10643   5.027   0.838   1.904
 3540SOL    HW110644   5.061   0.745   1.919
 3540SOL    HW210645   5.045   0.865   1.809
 3541SOL     OW10646   4.792   1.333   2.711
 3541SOL    HW110647   4.799   1.249   2.656
 3541SOL    HW210648   4.854   1.402   2.675
 3542SOL     OW10649   4.043   0.810   2.811
 3542SOL    HW110650   4.136   0.846   2.816
 3542SOL    HW210651   4.037   0.725   2.863
 3543SOL     OW10652   4.063   0.509   2.868
 3543SOL    HW110653   4.011   0.426   2.851
 3543SOL    HW210654   4.140   0.514   2.804
 3544SOL     OW10655   4.862   0.380   3.540
 3544SOL    HW110656   4.817   0.443   3.604
 3544SOL    HW210657   4.955   0.411   3.523
 3545SOL     OW10658   4.884   0.207   3.339
 3545SOL    HW110659   4.884   0.271   3.416
 3545SOL    HW210660   4.912   0.255   3.256
 3546SOL     OW10661   3.732   1.326   2.062
 3546SOL    HW110662   3.639   1.347   2.031
 3546SOL    HW210663   3.742   1.227   2.075
 3547SOL     OW10664   3.812   1.801   2.789
 3547SOL    HW110665   3.770   1.715   2.762
 3547SOL    HW210666   3.906   1.804   2.755
 3548SOL     OW10667   4.228   1.568   2.772
 3548SOL    HW110668   4.294   1.642   2.781
 3548SOL    HW210669   4.272   1.489   2.730
 3549SOL     OW10670   4.726   0.796   3.100
 3549SOL    HW110671   4.767   0.764   3.186
 3549SOL    HW210672   4.630   0.769   3.097
 3550SOL     OW10673   3.764   0.544   2.976
 3550SOL    HW110674   3.849   0.511   2.935
 3550SOL    HW210675   3.777   0.559   3.074
 3551SOL     OW10676   3.913   0.520   3.584
 3551SOL    HW110677   3.972   0.480   3.514
 3551SOL    HW210678   3.855   0.591   3.543
 3552SOL     OW10679   5.093   0.950   3.522
 3552SOL    HW110680   5.132   1.039   3.542
 3552SOL    HW210681   5.103   0.930   3.425
 3553SOL     OW10682   4.539   0.572   2.187
 3553SOL    HW110683   4.546   0.483   2.141
 3553SOL    HW210684   4.445   0.606   2.179
 3554SOL     OW10685   3.976   1.564   3.606
 3554SOL    HW110686   3.946   1.621   3.682
 3554SOL    HW210687   3.969   1.467   3.632
 3555SOL     OW10688   4.395   0.464   3.131
 3555SOL    HW110689   4.361   0.375   3.101
 3555SOL    HW210690   4.421   0.518   3.051
 3556SOL     OW10691   4.654   1.678   3.327
 3556SOL    HW110692   4.630   1.660   3.232
 3556SOL    HW210693   4.684   1.772   3.337
 3557SOL     OW10694   4.197   0.500   2.053
 3557SOL    HW110695   4.258   0.580   2.057
 3557SOL    HW210696   4.102   0.531   2.060
 3558SOL     OW10697   3.883   1.137   3.328
 3558SOL    HW110698   3.905   1.076   3.404
 3558SOL    HW210699   3.893   1.088   3.242
 3559SOL     OW10700   5.071   1.059   3.096
 3559SOL    HW110701   5.095   0.996   3.022
 3559SOL    HW210702   4.981   1.099   3.078
 3560SOL     OW10703   5.026   0.855   2.171
 3560SOL    HW110704   4.940   0.824   2.213
 3560SOL    HW210705   5.022   0.841   2.072
 3561SOL     OW10706   4.976   1.731   2.990
 3561SOL    HW110707   5.060   1.736   2.936
 3561SOL    HW210708   4.953   1.635   3.008
 3562SOL     OW10709   3.807   1.258   2.884
 3562SOL    HW110710   3.802   1.257   2.984
 3562SOL    HW210711   3.724   1.217   2.846
 3563SOL     OW10712   4.412   1.662   3.578
 3563SOL    HW110713   4.356   1.743   3.587
 3563SOL    HW210714   4.464   1.666   3.492
 3564SOL     OW10715   5.112   1.573   2.339
 3564SOL    HW110716   5.179   1.585   2.265
 3564SOL    HW210717   5.072   1.662   2.362
 3565SOL     OW10718   3.854   1.794   3.713
 3565SOL    HW110719   3.813   1.720   3.766
 3565SOL    HW210720   3.918   1.845   3.771
 3566SOL     OW10721   5.004   0.927   2.534
 3566SOL    HW110722   5.064   0.846   2.536
 3566SOL    HW210723   5.044   0.996   2.474
 3567SOL     OW10724   4.554   1.273   3.284
 3567SOL    HW110725   4.549   1.306   3.379
 3567SOL    HW210726   4.468   1.292   3.238
 3568SOL     OW10727   4.396   1.616   2.016
 3568SOL    HW110728   4.405   1.626   1.917
 3568SOL    HW210729   4.356   1.527   2.037
 3569SOL     OW10730   3.987   0.326   2.582
 3569SOL    HW110731   3.908   0.377   2.548
 3569SOL    HW210732   3.978   0.311   2.680
 3570SOL     OW10733   4.918   1.612   1.893
 3570SOL    HW110734   4.924   1.519   1.930
 3570SOL    HW210735   4.859   1.612   1.813
 3571SOL     OW10736   4.546   1.002   3.234
 3571SOL    HW110737   4.586   1.001   3.142
 3571SOL    HW210738   4.556   1.094   3.274
 3572SOL     OW10739   4.640   0.910   2.153
 3572SOL    HW110740   4.703   0.948   2.085
 3572SOL    HW210741   4.680   0.827   2.192
 3573SOL     OW10742   4.096   1.288   3.352
 3573SOL    HW110743   4.083   1.381   3.318
 3573SOL    HW210744   4.012   1.236   3.339
 3574SOL     OW10745   4.763   1.098   2.558
 3574SOL    HW110746   4.693   1.051   2.612
 3574SOL    HW210747   4.822   1.030   2.515
 3575SOL     OW10748   4.738   0.236   2.833
 3575SOL    HW110749   4.730   0.200   2.740
 3575SOL    HW210750   4.736   0.160   2.898
 3576SOL     OW10751   4.314   1.487   2.353
 3576SOL    HW110752   4.356   1.429   2.283
 3576SOL    HW210753   4.270   1.566   2.309
 3577SOL     OW10754   3.979   1.348   2.152
 3577SOL    HW110755   3.883   1.349   2.125
 3577SOL    HW210756   3.991   1.401   2.236
 3578SOL     OW10757   3.829   1.013   3.588
 3578SOL    HW110758   3.752   0.980   3.642
 3578SOL    HW210759   3.914   0.983   3.630
 3579SOL     OW10760   4.396   0.203   3.351
 3579SOL    HW110761   4.486   0.187   3.311
 3579SOL    HW210762   4.404   0.208   3.450
 3580SOL     OW10763   3.799   0.345   1.895
 3580SOL    HW110764   3.707   0.317   1.866
 3580SOL    HW210765   3.830   0.422   1.839
 3581SOL     OW10766   5.164   0.856   3.260
 3581SOL    HW110767   5.107   0.908   3.197
 3581SOL    HW210768   5.260   0.868   3.236
 3582SOL     OW10769   3.796   0.166   2.180
 3582SOL    HW110770   3.779   0.249   2.126
 3582SOL    HW210771   3.886   0.129   2.158
 3583SOL     OW10772   4.907   1.335   1.981
 3583SOL    HW110773   4.808   1.324   1.983
 3583SOL    HW210774   4.941   1.350   2.074
 3584SOL     OW10775   4.337   0.842   3.293
 3584SOL    HW110776   4.393   0.923   3.276
 3584SOL    HW210777   4.396   0.762   3.296
 3585SOL     OW10778   4.440   0.565   3.570
 3585SOL    HW110779   4.459   0.630   3.644
 3585SOL    HW210780   4.500   0.485   3.579
 3586SOL     OW10781   5.174   1.220   3.495
 3586SOL    HW110782   5.165   1.210   3.594
 3586SOL    HW210783   5.270   1.213   3.469
 3587SOL     OW10784   4.114   1.741   3.422
 3587SOL    HW110785   4.023   1.782   3.420
 3587SOL    HW210786   4.107   1.647   3.454
 3588SOL     OW10787   4.949   0.325   2.311
 3588SOL    HW110788   5.014   0.251   2.300
 3588SOL    HW210789   4.969   0.375   2.395
 3589SOL     OW10790   4.318   0.745   2.514
 3589SOL    HW110791   4.368   0.830   2.495
 3589SOL    HW210792   4.230   0.747   2.466
 3590SOL     OW10793   4.583   1.374   1.878
 3590SOL    HW110794   4.537   1.389   1.966
 3590SOL    HW210795   4.627   1.459   1.848
 3591SOL     OW10796   4.385   1.790   2.815
 3591SOL    HW110797   4.339   1.878   2.802
 3591SOL    HW210798   4.484   1.802   2.808
 3592SOL     OW10799   4.583   0.956   2.723
 3592SOL    HW110800   4.637   0.887   2.771
 3592SOL    HW210801   4.551   1.025   2.789
 3593SOL     OW10802   4.807   0.984   1.949
 3593SOL    HW110803   4.784   1.037   1.867
 3593SOL    HW210804   4.888   0.928   1.930
 3594SOL     OW10805   3.945   1.314   3.706
 3594SOL    HW110806   3.880   1.241   3.685
 3594SOL    HW210807   3.949   1.328   3.804
 3595SOL     OW10808   3.803   1.240   2.515
 3595SOL    HW110809   3.802   1.193   2.603
 3595SOL    HW210810   3.885   1.212   2.464
 3596SOL     OW10811   4.396   1.391   3.486
 3596SOL    HW110812   4.318   1.341   3.524
 3596SOL    HW210813   4.393   1.486   3.517
 3597SOL     OW10814   4.152   0.424   2.382
 3597SOL    HW110815   4.182   0.352   2.320
 3597SOL    HW210816   4.113   0.384   2.465
 3598SOL     OW10817   4.041   0.547   3.142
 3598SOL    HW110818   4.079   0.488   3.214
 3598SOL    HW210819   4.081   0.521   3.054
 3599SOL     OW10820   4.536   1.586   2.549
 3599SOL    HW110821   4.568   1.596   2.455
 3599SOL    HW210822   4.457   1.524   2.551
 3600SOL     OW10823   4.725   0.034   3.016
 3600SOL    HW110824   4.662  -0.038   2.985
 3600SOL    HW210825   4.818  -0.002   3.016
 3601SOL     OW10826   4.494   1.330   2.163
 3601SOL    HW110827   4.448   1.243   2.180
 3601SOL    HW210828   4.585   1.327   2.204
 3602SOL     OW10829   4.342   1.567   3.146
 3602SOL    HW110830   4.337   1.649   3.203
 3602SOL    HW210831   4.431   1.564   3.101
 3603SOL     OW10832   5.076   0.052   2.030
 3603SOL    HW110833   5.111   0.011   1.946
 3603SOL    HW210834   4.986   0.014   2.050
 3604SOL     OW10835   3.763   1.077   2.162
 3604SOL    HW110836   3.862   1.066   2.153
 3604SOL    HW210837   3.723   0.991   2.194
 3605SOL     OW10838   4.599   1.646   2.199
 3605SOL    HW110839   4.522   1.611   2.145
 3605SOL    HW210840   4.567   1.717   2.261
 3606SOL     OW10841   3.954   0.628   3.837
 3606SOL    HW110842   3.861   0.626   3.874
 3606SOL    HW210843   3.955   0.589   3.745
 3607SOL     OW10844   3.949   0.275   4.720
 3607SOL    HW110845   3.984   0.258   4.812
 3607SOL    HW210846   3.861   0.230   4.708
 3608SOL     OW10847   3.743   0.368   4.371
 3608SOL    HW110848   3.661   0.411   4.410
 3608SOL    HW210849   3.715   0.295   4.308
 3609SOL     OW10850   4.293   1.275   4.889
 3609SOL    HW110851   4.200   1.268   4.852
 3609SOL    HW210852   4.304   1.364   4.933
 3610SOL     OW10853   5.279   1.511   4.427
 3610SOL    HW110854   5.222   1.495   4.508
 3610SOL    HW210855   5.220   1.521   4.347
 3611SOL     OW10856   4.859   0.703   4.441
 3611SOL    HW110857   4.916   0.781   4.416
 3611SOL    HW210858   4.799   0.729   4.517
 3612SOL     OW10859   4.492   1.144   4.747
 3612SOL    HW110860   4.414   1.161   4.807
 3612SOL    HW210861   4.526   1.231   4.711
 3613SOL     OW10862   4.409   1.012   4.389
 3613SOL    HW110863   4.478   0.996   4.459
 3613SOL    HW210864   4.336   1.069   4.427
 3614SOL     OW10865   4.059   1.435   4.785
 3614SOL    HW110866   3.981   1.404   4.732
 3614SOL    HW210867   4.117   1.493   4.728
 3615SOL     OW10868   4.162   0.392   5.223
 3615SOL    HW110869   4.244   0.336   5.232
 3615SOL    HW210870   4.081   0.334   5.227
 3616SOL     OW10871   3.955   1.713   4.207
 3616SOL    HW110872   3.989   1.790   4.261
 3616SOL    HW210873   3.999   1.713   4.117
 3617SOL     OW10874   3.954   1.434   4.262
 3617SOL    HW110875   3.928   1.530   4.262
 3617SOL    HW210876   3.883   1.380   4.307
 3618SOL     OW10877   3.964   1.091   4.610
 3618SOL    HW110878   3.978   1.007   4.662
 3618SOL    HW210879   3.909   1.155   4.665
 3619SOL     OW10880   4.344   1.786   5.163
 3619SOL    HW110881   4.252   1.769   5.198
 3619SOL    HW210882   4.372   1.878   5.189
 3620SOL     OW10883   4.330   0.964   3.847
 3620SOL    HW110884   4.337   1.048   3.793
 3620SOL    HW210885   4.376   0.977   3.935
 3621SOL     OW10886   3.846   0.643   4.287
 3621SOL    HW110887   3.801   0.555   4.304
 3621SOL    HW210888   3.845   0.697   4.371
 3622SOL     OW10889   3.751   1.596   3.841
 3622SOL    HW110890   3.732   1.500   3.862
 3622SOL    HW210891   3.718   1.654   3.916
 3623SOL     OW10892   5.413   0.922   4.336
 3623SOL    HW110893   5.508   0.893   4.344
 3623SOL    HW210894   5.405   0.987   4.261
 3624SOL     OW10895   4.337   1.365   4.450
 3624SOL    HW110896   4.288   1.278   4.459
 3624SOL    HW210897   4.314   1.408   4.363
 3625SOL     OW10898   4.533   0.004   4.226
 3625SOL    HW110899   4.573   0.095   4.217
 3625SOL    HW210900   4.433   0.012   4.232
 3626SOL     OW10901   3.921   0.976   4.988
 3626SOL    HW110902   4.010   0.931   4.974
 3626SOL    HW210903   3.848   0.911   4.969
 3627SOL     OW10904   4.322   0.729   3.994
 3627SOL    HW110905   4.346   0.798   3.926
 3627SOL    HW210906   4.244   0.762   4.048
 3628SOL     OW10907   5.005   0.345   4.668
 3628SOL    HW110908   4.919   0.295   4.655
 3628SOL    HW210909   5.067   0.291   4.724
 3629SOL     OW10910   4.531   0.605   5.189
 3629SOL    HW110911   4.484   0.602   5.278
 3629SOL    HW210912   4.480   0.550   5.123
 3630SOL     OW10913   4.715   0.410   4.966
 3630SOL    HW110914   4.638   0.444   5.020
 3630SOL    HW210915   4.681   0.359   4.887
 3631SOL     OW10916   4.765   0.701   4.153
 3631SOL    HW110917   4.791   0.697   4.249
 3631SOL    HW210918   4.680   0.650   4.139
 3632SOL     OW10919   3.800   0.811   4.513
 3632SOL    HW110920   3.899   0.799   4.522
 3632SOL    HW210921   3.776   0.906   4.534
 3633SOL     OW10922   3.854   1.821   5.295
 3633SOL    HW110923   3.844   1.806   5.394
 3633SOL    HW210924   3.768   1.857   5.259
 3634SOL     OW10925   4.589   0.348   3.919
 3634SOL    HW110926   4.648   0.411   3.870
 3634SOL    HW210927   4.608   0.254   3.890
 3635SOL     OW10928   5.086   1.144   4.269
 3635SOL    HW110929   5.169   1.115   4.221
 3635SOL    HW210930   5.037   1.211   4.213
 3636SOL     OW10931   4.274   0.196   4.609
 3636SOL    HW110932   4.269   0.191   4.709
 3636SOL    HW210933   4.276   0.292   4.580
 3637SOL     OW10934   4.732   1.456   4.201
 3637SOL    HW110935   4.686   1.528   4.149
 3637SOL    HW210936   4.728   1.476   4.299
 3638SOL     OW10937   4.075   1.801   4.577
 3638SOL    HW110938   4.125   1.715   4.583
 3638SOL    HW210939   4.140   1.878   4.574
 3639SOL     OW10940   4.045   0.943   3.966
 3639SOL    HW110941   4.127   0.982   3.924
 3639SOL    HW210942   4.018   0.861   3.917
 3640SOL     OW10943   4.835   1.776   3.961
 3640SOL    HW110944   4.775   1.714   4.011
 3640SOL    HW210945   4.866   1.732   3.876
 3641SOL     OW10946   4.188   1.743   4.047
 3641SOL    HW110947   4.221   1.782   4.133
 3641SOL    HW210948   4.264   1.736   3.982
 3642SOL     OW10949   3.973   1.785   4.965
 3642SOL    HW110950   4.030   1.720   5.015
 3642SOL    HW210951   3.957   1.752   4.872
 3643SOL     OW10952   4.664   1.698   4.628
 3643SOL    HW110953   4.744   1.641   4.649
 3643SOL    HW210954   4.615   1.658   4.551
 3644SOL     OW10955   4.106   0.700   4.204
 3644SOL    HW110956   4.151   0.610   4.201
 3644SOL    HW210957   4.012   0.689   4.237
 3645SOL     OW10958   4.338   0.122   3.841
 3645SOL    HW110959   4.436   0.100   3.848
 3645SOL    HW210960   4.307   0.105   3.748
 3646SOL     OW10961   4.612   1.514   4.919
 3646SOL    HW110962   4.589   1.489   4.825
 3646SOL    HW210963   4.673   1.445   4.958
 3647SOL     OW10964   4.527   1.402   4.648
 3647SOL    HW110965   4.617   1.416   4.606
 3647SOL    HW210966   4.456   1.404   4.577
 3648SOL     OW10967   4.646   0.503   4.623
 3648SOL    HW110968   4.621   0.494   4.527
 3648SOL    HW210969   4.694   0.421   4.654
 3649SOL     OW10970   4.263   0.064   4.236
 3649SOL    HW110971   4.182   0.065   4.294
 3649SOL    HW210972   4.266   0.147   4.181
 3650SOL     OW10973   5.158   1.188   3.765
 3650SOL    HW110974   5.190   1.112   3.822
 3650SOL    HW210975   5.066   1.215   3.795
 3651SOL     OW10976   4.021   0.035   3.895
 3651SOL    HW110977   4.070   0.119   3.874
 3651SOL    HW210978   4.083  -0.030   3.940
 3652SOL     OW10979   4.659   0.236   4.204
 3652SOL    HW110980   4.611   0.277   4.126
 3652SOL    HW210981   4.758   0.234   4.185
 3653SOL     OW10982   4.951   1.570   4.517
 3653SOL    HW110983   4.972   1.644   4.452
 3653SOL    HW210984   5.019   1.570   4.590
 3654SOL     OW10985   4.183   1.152   4.465
 3654SOL    HW110986   4.112   1.125   4.530
 3654SOL    HW210987   4.157   1.124   4.372
 3655SOL     OW10988   4.995   1.797   4.315
 3655SOL    HW110989   5.039   1.861   4.251
 3655SOL    HW210990   4.945   1.849   4.385
 3656SOL     OW10991   4.756   0.549   3.740
 3656SOL    HW110992   4.715   0.631   3.701
 3656SOL    HW210993   4.820   0.575   3.813
 3657SOL     OW10994   4.285   0.222   4.871
 3657SOL    HW110995   4.323   0.138   4.908
 3657SOL    HW210996   4.197   0.241   4.915
 3658SOL     OW10997   4.590   0.454   4.366
 3658SOL    HW110998   4.558   0.526   4.304
 3658SOL    HW210999   4.614   0.373   4.313
 3659SOL     OW11000   4.741   0.039   4.477
 3659SOL    HW111001   4.669   0.044   4.408
 3659SOL    HW211002   4.717  -0.030   4.546
 3660SOL     OW11003   4.212   1.385   3.898
 3660SOL    HW111004   4.125   1.370   3.945
 3660SOL    HW211005   4.195   1.411   3.803
 3661SOL     OW11006   5.114   0.575   3.802
 3661SOL    HW111007   5.060   0.554   3.883
 3661SOL    HW211008   5.205   0.534   3.811
 3662SOL     OW11009   4.251   0.256   4.052
 3662SOL    HW111010   4.278   0.197   3.977
 3662SOL    HW211011   4.251   0.351   4.021
 3663SOL     OW11012   4.788   1.347   5.064
 3663SOL    HW111013   4.708   1.324   5.119
 3663SOL    HW211014   4.871   1.321   5.113
 3664SOL     OW11015   4.835   1.195   4.824
 3664SOL    HW111016   4.795   1.239   4.905
 3664SOL    HW211017   4.794   1.232   4.741
 3665SOL     OW11018   4.429   1.050   4.092
 3665SOL    HW111019   4.415   1.057   4.191
 3665SOL    HW211020   4.513   0.999   4.074
 3666SOL     OW11021   4.134   0.813   4.975
 3666SOL    HW111022   4.220   0.825   5.025
 3666SOL    HW211023   4.092   0.726   5.002
 3667SOL     OW11024   4.998   0.386   4.986
 3667SOL    HW111025   5.019   0.460   5.050
 3667SOL    HW211026   4.909   0.403   4.943
 3668SOL     OW11027   3.788   1.564   5.055
 3668SOL    HW111028   3.742   1.646   5.021
 3668SOL    HW211029   3.886   1.583   5.064
 3669SOL     OW11030   4.091   1.100   4.225
 3669SOL    HW111031   4.084   1.183   4.169
 3669SOL    HW211032   4.095   1.020   4.165
 3670SOL     OW11033   4.290   0.537   4.589
 3670SOL    HW111034   4.302   0.603   4.515
 3670SOL    HW211035   4.336   0.571   4.672
 3671SOL     OW11036   4.976   1.348   4.112
 3671SOL    HW111037   5.026   1.425   4.152
 3671SOL    HW211038   4.881   1.350   4.144
 3672SOL     OW11039   4.996   1.445   4.866
 3672SOL    HW111040   5.043   1.458   4.953
 3672SOL    HW211041   4.930   1.371   4.875
 3673SOL     OW11042   4.078   1.510   5.053
 3673SOL    HW111043   4.057   1.466   4.966
 3673SOL    HW211044   4.175   1.536   5.056
 3674SOL     OW11045   4.297   0.870   4.753
 3674SOL    HW111046   4.341   0.959   4.744
 3674SOL    HW211047   4.234   0.870   4.830
 3675SOL     OW11048   5.084   0.862   4.769
 3675SOL    HW111049   5.009   0.862   4.703
 3675SOL    HW211050   5.121   0.770   4.778
 3676SOL     OW11051   4.933   0.525   3.999
 3676SOL    HW111052   4.946   0.441   4.053
 3676SOL    HW211053   4.904   0.599   4.059
 3677SOL     OW11054   4.031   0.213   4.955
 3677SOL    HW111055   4.008   0.250   5.045
 3677SOL    HW211056   4.001   0.118   4.949
 3678SOL     OW11057   3.761   1.310   5.006
 3678SOL    HW111058   3.814   1.261   5.074
 3678SOL    HW211059   3.783   1.408   5.011
 3679SOL     OW11060   4.456   0.634   4.788
 3679SOL    HW111061   4.515   0.608   4.712
 3679SOL    HW211062   4.428   0.730   4.777
 3680SOL     OW11063   4.031   0.063   4.342
 3680SOL    HW111064   4.020   0.157   4.375
 3680SOL    HW211065   4.026   0.000   4.419
 3681SOL     OW11066   4.747   0.766   4.690
 3681SOL    HW111067   4.762   0.787   4.786
 3681SOL    HW211068   4.717   0.671   4.681
 3682SOL     OW11069   5.027   0.838   3.766
 3682SOL    HW111070   5.061   0.745   3.781
 3682SOL    HW211071   5.045   0.865   3.671
 3683SOL     OW11072   4.792   1.333   4.573
 3683SOL    HW111073   4.799   1.249   4.518
 3683SOL    HW211074   4.854   1.402   4.537
 3684SOL     OW11075   4.043   0.810   4.673
 3684SOL    HW111076   4.136   0.846   4.678
 3684SOL    HW211077   4.037   0.725   4.725
 3685SOL     OW11078   4.063   0.509   4.730
 3685SOL    HW111079   4.011   0.426   4.713
 3685SOL    HW211080   4.140   0.514   4.666
 3686SOL     OW11081   4.884   0.207   5.201
 3686SOL    HW111082   4.884   0.271   5.278
 3686SOL    HW211083   4.912   0.255   5.118
 3687SOL     OW11084   3.732   1.326   3.924
 3687SOL    HW111085   3.639   1.347   3.893
 3687SOL    HW211086   3.742   1.227   3.937
 3688SOL     OW11087   3.812   1.801   4.651
 3688SOL    HW111088   3.770   1.715   4.624
 3688SOL    HW211089   3.906   1.804   4.617
 3689SOL     OW11090   4.228   1.568   4.634
 3689SOL    HW111091   4.294   1.642   4.643
 3689SOL    HW211092   4.272   1.489   4.592
 3690SOL     OW11093   4.726   0.796   4.962
 3690SOL    HW111094   4.767   0.764   5.048
 3690SOL    HW211095   4.630   0.769   4.959
 3691SOL     OW11096   3.764   0.544   4.838
 3691SOL    HW111097   3.849   0.511   4.797
 3691SOL    HW211098   3.777   0.559   4.936
 3692SOL     OW11099   4.539   0.572   4.049
 3692SOL    HW111100   4.546   0.483   4.003
 3692SOL    HW211101   4.445   0.606   4.041
 3693SOL     OW11102   4.395   0.464   4.993
 3693SOL    HW111103   4.361   0.375   4.963
 3693SOL    HW211104   4.421   0.518   4.913
 3694SOL     OW11105   4.654   1.678   5.189
 3694SOL    HW111106   4.630   1.660   5.094
 3694SOL    HW211107   4.684   1.772   5.199
 3695SOL     OW11108   4.197   0.500   3.915
 3695SOL    HW111109   4.258   0.580   3.919
 3695SOL    HW211110   4.102   0.531   3.922
 3696SOL     OW11111   3.883   1.137   5.190
 3696SOL    HW111112   3.905   1.076   5.266
 3696SOL    HW211113   3.893   1.088   5.104
 3697SOL     OW11114   5.071   1.059   4.958
 3697SOL    HW111115   5.095   0.996   4.884
 3697SOL    HW211116   4.981   1.099   4.940
 3698SOL     OW11117   5.026   0.855   4.033
 3698SOL    HW111118   4.940   0.824   4.075
 3698SOL    HW211119   5.022   0.841   3.934
 3699SOL     OW11120   4.976   1.731   4.852
 3699SOL    HW111121   5.060   1.736   4.798
 3699SOL    HW211122   4.953   1.635   4.870
 3700SOL     OW11123   3.807   1.258   4.746
 3700SOL    HW111124   3.802   1.257   4.846
 3700SOL    HW211125   3.724   1.217   4.708
 3701SOL     OW11126   5.112   1.573   4.201
 3701SOL    HW111127   5.179   1.585   4.127
 3701SOL    HW211128   5.072   1.662   4.224
 3702SOL     OW11129   5.004   0.927   4.396
 3702SOL    HW111130   5.064   0.846   4.398
 3702SOL    HW211131   5.044   0.996   4.336
 3703SOL     OW11132   4.396   1.616   3.878
 3703SOL    HW111133   4.405   1.626   3.779
 3703SOL    HW211134   4.356   1.527   3.899
 3704SOL     OW11135   3.987   0.326   4.444
 3704SOL    HW111136   3.908   0.377   4.410
 3704SOL    HW211137   3.978   0.311   4.542
 3705SOL     OW11138   4.918   1.612   3.755
 3705SOL    HW111139   4.924   1.519   3.792
 3705SOL    HW211140   4.859   1.612   3.675
 3706SOL     OW11141   4.546   1.002   5.096
 3706SOL    HW111142   4.586   1.001   5.004
 3706SOL    HW211143   4.556   1.094   5.136
 3707SOL     OW11144   4.640   0.910   4.015
 3707SOL    HW111145   4.703   0.948   3.947
 3707SOL    HW211146   4.680   0.827   4.054
 3708SOL     OW11147   4.096   1.288   5.214
 3708SOL    HW111148   4.083   1.381   5.180
 3708SOL    HW211149   4.012   1.236   5.201
 3709SOL     OW11150   4.763   1.098   4.420
 3709SOL    HW111151   4.693   1.051   4.474
 3709SOL    HW211152   4.822   1.030   4.377
 3710SOL     OW11153   4.738   0.236   4.695
 3710SOL    HW111154   4.730   0.200   4.602
 3710SOL    HW211155   4.736   0.160   4.760
 3711SOL     OW11156   4.314   1.487   4.215
 3711SOL    HW111157   4.356   1.429   4.145
 3711SOL    HW211158   4.270   1.566   4.171
 3712SOL     OW11159   3.979   1.348   4.014
 3712SOL    HW111160   3.883   1.349   3.987
 3712SOL    HW211161   3.991   1.401   4.098
 3713SOL     OW11162   3.799   0.345   3.757
 3713SOL    HW111163   3.707   0.317   3.728
 3713SOL    HW211164   3.830   0.422   3.701
 3714SOL     OW11165   3.796   0.166   4.042
 3714SOL    HW111166   3.779   0.249   3.988
 3714SOL    HW211167   3.886   0.129   4.020
 3715SOL     OW11168   4.907   1.335   3.843
 3715SOL    HW111169   4.808   1.324   3.845
 3715SOL    HW211170   4.941   1.350   3.936
 3716SOL     OW11171   4.337   0.842   5.155
 3716SOL    HW111172   4.393   0.923   5.138
 3716SOL    HW211173   4.396   0.762   5.158
 3717SOL     OW11174   4.114   1.741   5.284
 3717SOL    HW111175   4.023   1.782   5.282
 3717SOL    HW211176   4.107   1.647   5.316
 3718SOL     OW11177   4.949   0.325   4.173
 3718SOL    HW111178   5.014   0.251   4.162
 3718SOL    HW211179   4.969   0.375   4.257
 3719SOL     OW11180   4.318   0.745   4.376
 3719SOL    HW111181   4.368   0.830   4.357
 3719SOL    HW211182   4.230   0.747   4.328
 3720SOL     OW11183   4.583   1.374   3.740
 3720SOL    HW111184   4.537   1.389   3.828
 3720SOL    HW211185   4.627   1.459   3.710
 3721SOL     OW11186   4.385   1.790   4.677
 3721SOL    HW111187   4.339   1.878   4.664
 3721SOL    HW211188   4.484   1.802   4.670
 3722SOL     OW11189   4.583   0.956   4.585
 3722SOL    HW111190   4.637   0.887   4.633
 3722SOL    HW211191   4.551   1.025   4.651
 3723SOL     OW11192   4.807   0.984   3.811
 3723SOL    HW111193   4.784   1.037   3.729
 3723SOL    HW211194   4.888   0.928   3.792
 3724SOL     OW11195   3.803   1.240   4.377
 3724SOL    HW111196   3.802   1.193   4.465
 3724SOL    HW211197   3.885   1.212   4.326
 3725SOL     OW11198   4.152   0.424   4.244
 3725SOL    HW111199   4.182   0.352   4.182
 3725SOL    HW211200   4.113   0.384   4.327
 3726SOL     OW11201   4.041   0.547   5.004
 3726SOL    HW111202   4.079   0.488   5.076
 3726SOL    HW211203   4.081   0.521   4.916
 3727SOL     OW11204   4.536   1.586   4.411
 3727SOL    HW111205   4.568   1.596   4.317
 3727SOL    HW211206   4.457   1.524   4.413
 3728SOL     OW11207   4.725   0.034   4.878
 3728SOL    HW111208   4.662  -0.038   4.847
 3728SOL    HW211209   4.818  -0.002   4.878
 3729SOL     OW11210   4.494   1.330   4.025
 3729SOL    HW111211   4.448   1.243   4.042
 3729SOL    HW211212   4.585   1.327   4.066
 3730SOL     OW11213   4.342   1.567   5.008
 3730SOL    HW111214   4.337   1.649   5.065
 3730SOL    HW211215   4.431   1.564   4.963
 3731SOL     OW11216   5.076   0.052   3.892
 3731SOL    HW111217   5.111   0.011   3.808
 3731SOL    HW211218   4.986   0.014   3.912
 3732SOL     OW11219   3.763   1.077   4.024
 3732SOL    HW111220   3.862   1.066   4.015
 3732SOL    HW211221   3.723   0.991   4.056
 3733SOL     OW11222   4.599   1.646   4.061
 3733SOL    HW111223   4.522   1.611   4.007
 3733SOL    HW211224   4.567   1.717   4.123
 3734SOL     OW11225   3.954   2.490   0.113
 3734SOL    HW111226   3.861   2.488   0.150
 3734SOL    HW211227   3.955   2.451   0.021
 3735SOL     OW11228   3.949   2.137   0.996
 3735SOL    HW111229   3.984   2.120   1.088
 3735SOL    HW211230   3.861   2.092   0.984
 3736SOL     OW11231   3.743   2.230   0.647
 3736SOL    HW111232   3.661   2.273   0.686
 3736SOL    HW211233   3.715   2.157   0.584
 3737SOL     OW11234   4.293   3.137   1.165
 3737SOL    HW111235   4.200   3.130   1.128
 3737SOL    HW211236   4.304   3.226   1.209
 3738SOL     OW11237   5.279   3.373   0.703
 3738SOL    HW111238   5.222   3.357   0.784
 3738SOL    HW211239   5.220   3.383   0.623
 3739SOL     OW11240   4.859   2.565   0.717
 3739SOL    HW111241   4.916   2.643   0.692
 3739SOL    HW211242   4.799   2.591   0.793
 3740SOL     OW11243   4.492   3.006   1.023
 3740SOL    HW111244   4.414   3.023   1.083
 3740SOL    HW211245   4.526   3.093   0.987
 3741SOL     OW11246   4.574   2.660   1.823
 3741SOL    HW111247   4.570   2.736   1.888
 3741SOL    HW211248   4.596   2.696   1.732
 3742SOL     OW11249   4.409   2.874   0.665
 3742SOL    HW111250   4.478   2.858   0.735
 3742SOL    HW211251   4.336   2.931   0.703
 3743SOL     OW11252   4.410   3.023   1.803
 3743SOL    HW111253   4.470   3.102   1.817
 3743SOL    HW211254   4.324   3.054   1.762
 3744SOL     OW11255   4.059   3.297   1.061
 3744SOL    HW111256   3.981   3.266   1.008
 3744SOL    HW211257   4.117   3.355   1.004
 3745SOL     OW11258   4.162   2.254   1.499
 3745SOL    HW111259   4.244   2.198   1.508
 3745SOL    HW211260   4.081   2.196   1.503
 3746SOL     OW11261   3.955   3.575   0.483
 3746SOL    HW111262   3.989   3.652   0.537
 3746SOL    HW211263   3.999   3.575   0.393
 3747SOL     OW11264   4.851   3.203   1.690
 3747SOL    HW111265   4.898   3.203   1.778
 3747SOL    HW211266   4.803   3.116   1.679
 3748SOL     OW11267   3.954   3.296   0.538
 3748SOL    HW111268   3.928   3.392   0.538
 3748SOL    HW211269   3.883   3.242   0.583
 3749SOL     OW11270   3.964   2.953   0.886
 3749SOL    HW111271   3.978   2.869   0.938
 3749SOL    HW211272   3.909   3.017   0.941
 3750SOL     OW11273   4.344   3.648   1.439
 3750SOL    HW111274   4.252   3.631   1.474
 3750SOL    HW211275   4.372   3.740   1.465
 3751SOL     OW11276   4.330   2.826   0.123
 3751SOL    HW111277   4.337   2.910   0.069
 3751SOL    HW211278   4.376   2.839   0.211
 3752SOL     OW11279   3.846   2.505   0.563
 3752SOL    HW111280   3.801   2.417   0.580
 3752SOL    HW211281   3.845   2.559   0.647
 3753SOL     OW11282   3.751   3.458   0.117
 3753SOL    HW111283   3.732   3.362   0.138
 3753SOL    HW211284   3.718   3.516   0.192
 3754SOL     OW11285   5.413   2.784   0.612
 3754SOL    HW111286   5.508   2.755   0.620
 3754SOL    HW211287   5.405   2.849   0.537
 3755SOL     OW11288   3.837   2.599   1.597
 3755SOL    HW111289   3.925   2.586   1.642
 3755SOL    HW211290   3.824   2.696   1.575
 3756SOL     OW11291   4.337   3.227   0.726
 3756SOL    HW111292   4.288   3.140   0.735
 3756SOL    HW211293   4.314   3.270   0.639
 3757SOL     OW11294   5.017   3.090   1.423
 3757SOL    HW111295   5.054   3.017   1.365
 3757SOL    HW211296   5.069   3.095   1.508
 3758SOL     OW11297   4.533   1.866   0.502
 3758SOL    HW111298   4.573   1.957   0.493
 3758SOL    HW211299   4.433   1.874   0.508
 3759SOL     OW11300   3.921   2.838   1.264
 3759SOL    HW111301   4.010   2.793   1.250
 3759SOL    HW211302   3.848   2.773   1.245
 3760SOL     OW11303   4.911   3.654   1.616
 3760SOL    HW111304   4.935   3.714   1.540
 3760SOL    HW211305   4.918   3.559   1.586
 3761SOL     OW11306   4.041   2.113   1.801
 3761SOL    HW111307   4.112   2.184   1.807
 3761SOL    HW211308   3.953   2.152   1.829
 3762SOL     OW11309   4.322   2.591   0.270
 3762SOL    HW111310   4.346   2.660   0.202
 3762SOL    HW211311   4.244   2.624   0.324
 3763SOL     OW11312   5.005   2.207   0.944
 3763SOL    HW111313   4.919   2.157   0.931
 3763SOL    HW211314   5.067   2.153   1.000
 3764SOL     OW11315   4.531   2.467   1.465
 3764SOL    HW111316   4.484   2.464   1.554
 3764SOL    HW211317   4.480   2.412   1.399
 3765SOL     OW11318   5.118   2.331   1.674
 3765SOL    HW111319   5.098   2.374   1.762
 3765SOL    HW211320   5.196   2.269   1.683
 3766SOL     OW11321   4.697   2.752   1.572
 3766SOL    HW111322   4.743   2.668   1.543
 3766SOL    HW211323   4.641   2.786   1.497
 3767SOL     OW11324   4.715   2.272   1.242
 3767SOL    HW111325   4.638   2.306   1.296
 3767SOL    HW211326   4.681   2.221   1.163
 3768SOL     OW11327   4.765   2.563   0.429
 3768SOL    HW111328   4.791   2.559   0.525
 3768SOL    HW211329   4.680   2.512   0.415
 3769SOL     OW11330   3.800   2.673   0.789
 3769SOL    HW111331   3.899   2.661   0.798
 3769SOL    HW211332   3.776   2.768   0.810
 3770SOL     OW11333   3.854   3.683   1.571
 3770SOL    HW111334   3.844   3.668   1.670
 3770SOL    HW211335   3.768   3.719   1.535
 3771SOL     OW11336   4.589   2.210   0.195
 3771SOL    HW111337   4.648   2.273   0.146
 3771SOL    HW211338   4.608   2.116   0.166
 3772SOL     OW11339   5.086   3.006   0.545
 3772SOL    HW111340   5.169   2.977   0.497
 3772SOL    HW211341   5.037   3.073   0.489
 3773SOL     OW11342   4.274   2.058   0.885
 3773SOL    HW111343   4.269   2.053   0.985
 3773SOL    HW211344   4.276   2.154   0.856
 3774SOL     OW11345   4.732   3.318   0.477
 3774SOL    HW111346   4.686   3.390   0.425
 3774SOL    HW211347   4.728   3.338   0.575
 3775SOL     OW11348   4.075   3.663   0.853
 3775SOL    HW111349   4.125   3.577   0.859
 3775SOL    HW211350   4.140   3.740   0.850
 3776SOL     OW11351   4.951   3.412   1.506
 3776SOL    HW111352   4.957   3.335   1.570
 3776SOL    HW211353   4.899   3.386   1.426
 3777SOL     OW11354   4.045   2.805   0.242
 3777SOL    HW111355   4.127   2.844   0.200
 3777SOL    HW211356   4.018   2.723   0.193
 3778SOL     OW11357   4.185   3.128   1.727
 3778SOL    HW111358   4.135   3.129   1.641
 3778SOL    HW211359   4.122   3.110   1.803
 3779SOL     OW11360   4.835   3.638   0.237
 3779SOL    HW111361   4.775   3.576   0.287
 3779SOL    HW211362   4.866   3.594   0.152
 3780SOL     OW11363   3.926   2.147   1.498
 3780SOL    HW111364   3.846   2.207   1.485
 3780SOL    HW211365   3.916   2.098   1.584
 3781SOL     OW11366   5.356   3.239   0.081
 3781SOL    HW111367   5.324   3.333   0.071
 3781SOL    HW211368   5.280   3.176   0.069
 3782SOL     OW11369   4.188   3.605   0.323
 3782SOL    HW111370   4.221   3.644   0.409
 3782SOL    HW211371   4.264   3.598   0.258
 3783SOL     OW11372   3.973   3.647   1.241
 3783SOL    HW111373   4.030   3.582   1.291
 3783SOL    HW211374   3.957   3.614   1.148
 3784SOL     OW11375   4.664   3.560   0.904
 3784SOL    HW111376   4.744   3.503   0.925
 3784SOL    HW211377   4.615   3.520   0.827
 3785SOL     OW11378   4.106   2.562   0.480
 3785SOL    HW111379   4.151   2.472   0.477
 3785SOL    HW211380   4.012   2.551   0.513
 3786SOL     OW11381   4.505   2.126   1.749
 3786SOL    HW111382   4.572   2.065   1.792
 3786SOL    HW211383   4.432   2.145   1.814
 3787SOL     OW11384   4.612   3.376   1.195
 3787SOL    HW111385   4.589   3.351   1.101
 3787SOL    HW211386   4.673   3.307   1.234
 3788SOL     OW11387   5.075   2.452   1.433
 3788SOL    HW111388   5.103   2.409   1.518
 3788SOL    HW211389   5.100   2.548   1.434
 3789SOL     OW11390   4.527   3.264   0.924
 3789SOL    HW111391   4.617   3.278   0.882
 3789SOL    HW211392   4.456   3.266   0.853
 3790SOL     OW11393   4.646   2.365   0.899
 3790SOL    HW111394   4.621   2.356   0.803
 3790SOL    HW211395   4.694   2.283   0.930
 3791SOL     OW11396   4.263   1.926   0.512
 3791SOL    HW111397   4.182   1.927   0.570
 3791SOL    HW211398   4.266   2.009   0.457
 3792SOL     OW11399   5.158   3.050   0.041
 3792SOL    HW111400   5.190   2.974   0.098
 3792SOL    HW211401   5.066   3.077   0.071
 3793SOL     OW11402   4.659   2.098   0.480
 3793SOL    HW111403   4.611   2.139   0.402
 3793SOL    HW211404   4.758   2.096   0.461
 3794SOL     OW11405   4.800   2.545   1.464
 3794SOL    HW111406   4.720   2.484   1.467
 3794SOL    HW211407   4.881   2.492   1.440
 3795SOL     OW11408   4.951   3.432   0.793
 3795SOL    HW111409   4.972   3.506   0.728
 3795SOL    HW211410   5.019   3.432   0.866
 3796SOL     OW11411   4.183   3.014   0.741
 3796SOL    HW111412   4.112   2.987   0.806
 3796SOL    HW211413   4.157   2.986   0.648
 3797SOL     OW11414   4.995   3.659   0.591
 3797SOL    HW111415   5.039   3.723   0.527
 3797SOL    HW211416   4.945   3.711   0.661
 3798SOL     OW11417   4.756   2.411   0.016
 3798SOL    HW111418   4.715   2.493  -0.023
 3798SOL    HW211419   4.820   2.437   0.089
 3799SOL     OW11420   3.802   2.418   1.386
 3799SOL    HW111421   3.894   2.417   1.345
 3799SOL    HW211422   3.796   2.492   1.453
 3800SOL     OW11423   4.285   2.084   1.147
 3800SOL    HW111424   4.323   2.000   1.184
 3800SOL    HW211425   4.197   2.103   1.191
 3801SOL     OW11426   4.590   2.316   0.642
 3801SOL    HW111427   4.558   2.388   0.580
 3801SOL    HW211428   4.614   2.235   0.589
 3802SOL     OW11429   4.741   1.901   0.753
 3802SOL    HW111430   4.669   1.906   0.684
 3802SOL    HW211431   4.717   1.832   0.822
 3803SOL     OW11432   4.212   3.247   0.174
 3803SOL    HW111433   4.125   3.232   0.221
 3803SOL    HW211434   4.195   3.273   0.079
 3804SOL     OW11435   5.114   2.437   0.078
 3804SOL    HW111436   5.060   2.416   0.159
 3804SOL    HW211437   5.205   2.396   0.087
 3805SOL     OW11438   4.251   2.118   0.328
 3805SOL    HW111439   4.278   2.059   0.253
 3805SOL    HW211440   4.251   2.213   0.297
 3806SOL     OW11441   4.788   3.209   1.340
 3806SOL    HW111442   4.708   3.186   1.395
 3806SOL    HW211443   4.871   3.183   1.389
 3807SOL     OW11444   4.835   3.057   1.100
 3807SOL    HW111445   4.795   3.101   1.181
 3807SOL    HW211446   4.794   3.094   1.017
 3808SOL     OW11447   4.639   1.951   1.402
 3808SOL    HW111448   4.664   1.931   1.307
 3808SOL    HW211449   4.711   2.007   1.444
 3809SOL     OW11450   4.704   2.978   1.719
 3809SOL    HW111451   4.605   2.984   1.729
 3809SOL    HW211452   4.727   2.898   1.663
 3810SOL     OW11453   4.429   2.912   0.368
 3810SOL    HW111454   4.415   2.919   0.467
 3810SOL    HW211455   4.513   2.861   0.350
 3811SOL     OW11456   4.134   2.675   1.251
 3811SOL    HW111457   4.220   2.687   1.301
 3811SOL    HW211458   4.092   2.588   1.278
 3812SOL     OW11459   4.998   2.248   1.262
 3812SOL    HW111460   5.019   2.322   1.326
 3812SOL    HW211461   4.909   2.265   1.219
 3813SOL     OW11462   3.788   3.426   1.331
 3813SOL    HW111463   3.742   3.508   1.297
 3813SOL    HW211464   3.886   3.445   1.340
 3814SOL     OW11465   4.091   2.962   0.501
 3814SOL    HW111466   4.084   3.045   0.445
 3814SOL    HW211467   4.095   2.882   0.441
 3815SOL     OW11468   4.290   2.399   0.865
 3815SOL    HW111469   4.302   2.465   0.791
 3815SOL    HW211470   4.336   2.433   0.948
 3816SOL     OW11471   4.976   3.210   0.388
 3816SOL    HW111472   5.026   3.287   0.428
 3816SOL    HW211473   4.881   3.212   0.420
 3817SOL     OW11474   4.996   3.307   1.142
 3817SOL    HW111475   5.043   3.320   1.229
 3817SOL    HW211476   4.930   3.233   1.151
 3818SOL     OW11477   4.078   3.372   1.329
 3818SOL    HW111478   4.057   3.328   1.242
 3818SOL    HW211479   4.175   3.398   1.332
 3819SOL     OW11480   4.126   2.613   1.598
 3819SOL    HW111481   4.194   2.668   1.551
 3819SOL    HW211482   4.166   2.525   1.625
 3820SOL     OW11483   4.737   1.967   1.770
 3820SOL    HW111484   4.743   2.052   1.718
 3820SOL    HW211485   4.769   1.891   1.713
 3821SOL     OW11486   4.228   1.912   1.740
 3821SOL    HW111487   4.186   1.855   1.670
 3821SOL    HW211488   4.162   1.981   1.772
 3822SOL     OW11489   4.297   2.732   1.029
 3822SOL    HW111490   4.341   2.821   1.020
 3822SOL    HW211491   4.234   2.732   1.106
 3823SOL     OW11492   5.084   2.724   1.045
 3823SOL    HW111493   5.009   2.724   0.979
 3823SOL    HW211494   5.121   2.632   1.054
 3824SOL     OW11495   4.933   2.387   0.275
 3824SOL    HW111496   4.946   2.303   0.329
 3824SOL    HW211497   4.904   2.461   0.335
 3825SOL     OW11498   4.031   2.075   1.231
 3825SOL    HW111499   4.008   2.112   1.321
 3825SOL    HW211500   4.001   1.980   1.225
 3826SOL     OW11501   3.761   3.172   1.282
 3826SOL    HW111502   3.814   3.123   1.350
 3826SOL    HW211503   3.783   3.270   1.287
 3827SOL     OW11504   4.456   2.496   1.064
 3827SOL    HW111505   4.515   2.470   0.988
 3827SOL    HW211506   4.428   2.592   1.053
 3828SOL     OW11507   4.031   1.925   0.618
 3828SOL    HW111508   4.020   2.019   0.651
 3828SOL    HW211509   4.026   1.862   0.695
 3829SOL     OW11510   5.346   2.229   0.374
 3829SOL    HW111511   5.348   2.153   0.438
 3829SOL    HW211512   5.298   2.306   0.414
 3830SOL     OW11513   4.747   2.628   0.966
 3830SOL    HW111514   4.762   2.649   1.062
 3830SOL    HW211515   4.717   2.533   0.957
 3831SOL     OW11516   4.704   3.435   1.700
 3831SOL    HW111517   4.684   3.479   1.612
 3831SOL    HW211518   4.743   3.344   1.684
 3832SOL     OW11519   4.074   2.760   1.804
 3832SOL    HW111520   4.150   2.804   1.852
 3832SOL    HW211521   4.109   2.713   1.722
 3833SOL     OW11522   5.027   2.700   0.042
 3833SOL    HW111523   5.061   2.607   0.057
 3833SOL    HW211524   5.045   2.727  -0.053
 3834SOL     OW11525   4.792   3.195   0.849
 3834SOL    HW111526   4.799   3.111   0.794
 3834SOL    HW211527   4.854   3.264   0.813
 3835SOL     OW11528   4.043   2.672   0.949
 3835SOL    HW111529   4.136   2.708   0.954
 3835SOL    HW211530   4.037   2.587   1.001
 3836SOL     OW11531   4.063   2.371   1.006
 3836SOL    HW111532   4.011   2.288   0.989
 3836SOL    HW211533   4.140   2.376   0.942
 3837SOL     OW11534   4.862   2.242   1.678
 3837SOL    HW111535   4.817   2.305   1.742
 3837SOL    HW211536   4.955   2.273   1.661
 3838SOL     OW11537   4.884   2.069   1.477
 3838SOL    HW111538   4.884   2.133   1.554
 3838SOL    HW211539   4.912   2.117   1.394
 3839SOL     OW11540   3.812   3.663   0.927
 3839SOL    HW111541   3.770   3.577   0.900
 3839SOL    HW211542   3.906   3.666   0.893
 3840SOL     OW11543   4.228   3.430   0.910
 3840SOL    HW111544   4.294   3.504   0.919
 3840SOL    HW211545   4.272   3.351   0.868
 3841SOL     OW11546   4.726   2.658   1.238
 3841SOL    HW111547   4.767   2.626   1.324
 3841SOL    HW211548   4.630   2.631   1.235
 3842SOL     OW11549   3.764   2.406   1.114
 3842SOL    HW111550   3.849   2.373   1.073
 3842SOL    HW211551   3.777   2.421   1.212
 3843SOL     OW11552   3.913   2.382   1.722
 3843SOL    HW111553   3.972   2.342   1.652
 3843SOL    HW211554   3.855   2.453   1.681
 3844SOL     OW11555   5.093   2.812   1.660
 3844SOL    HW111556   5.132   2.901   1.680
 3844SOL    HW211557   5.103   2.792   1.563
 3845SOL     OW11558   4.539   2.434   0.325
 3845SOL    HW111559   4.546   2.345   0.279
 3845SOL    HW211560   4.445   2.468   0.317
 3846SOL     OW11561   3.976   3.426   1.744
 3846SOL    HW111562   3.946   3.483   1.820
 3846SOL    HW211563   3.969   3.329   1.770
 3847SOL     OW11564   4.395   2.326   1.269
 3847SOL    HW111565   4.361   2.237   1.239
 3847SOL    HW211566   4.421   2.380   1.189
 3848SOL     OW11567   4.654   3.540   1.465
 3848SOL    HW111568   4.630   3.522   1.370
 3848SOL    HW211569   4.684   3.634   1.475
 3849SOL     OW11570   4.197   2.362   0.191
 3849SOL    HW111571   4.258   2.442   0.195
 3849SOL    HW211572   4.102   2.393   0.198
 3850SOL     OW11573   3.883   2.999   1.466
 3850SOL    HW111574   3.905   2.938   1.542
 3850SOL    HW211575   3.893   2.950   1.380
 3851SOL     OW11576   5.071   2.921   1.234
 3851SOL    HW111577   5.095   2.858   1.160
 3851SOL    HW211578   4.981   2.961   1.216
 3852SOL     OW11579   5.026   2.717   0.309
 3852SOL    HW111580   4.940   2.686   0.351
 3852SOL    HW211581   5.022   2.703   0.210
 3853SOL     OW11582   4.976   3.593   1.128
 3853SOL    HW111583   5.060   3.598   1.074
 3853SOL    HW211584   4.953   3.497   1.146
 3854SOL     OW11585   3.807   3.120   1.022
 3854SOL    HW111586   3.802   3.119   1.122
 3854SOL    HW211587   3.724   3.079   0.984
 3855SOL     OW11588   4.412   3.524   1.716
 3855SOL    HW111589   4.356   3.605   1.725
 3855SOL    HW211590   4.464   3.528   1.630
 3856SOL     OW11591   4.627   1.948   0.133
 3856SOL    HW111592   4.678   1.949   0.047
 3856SOL    HW211593   4.683   1.906   0.204
 3857SOL     OW11594   5.112   3.435   0.477
 3857SOL    HW111595   5.179   3.447   0.403
 3857SOL    HW211596   5.072   3.524   0.500
 3858SOL     OW11597   3.854   3.656   1.851
 3858SOL    HW111598   3.813   3.582   1.904
 3858SOL    HW211599   3.918   3.707   1.909
 3859SOL     OW11600   5.004   2.789   0.672
 3859SOL    HW111601   5.064   2.708   0.674
 3859SOL    HW211602   5.044   2.858   0.612
 3860SOL     OW11603   4.554   3.135   1.422
 3860SOL    HW111604   4.549   3.168   1.517
 3860SOL    HW211605   4.468   3.154   1.376
 3861SOL     OW11606   4.396   3.478   0.154
 3861SOL    HW111607   4.405   3.488   0.055
 3861SOL    HW211608   4.356   3.389   0.175
 3862SOL     OW11609   3.987   2.188   0.720
 3862SOL    HW111610   3.908   2.239   0.686
 3862SOL    HW211611   3.978   2.173   0.818
 3863SOL     OW11612   4.918   3.474   0.031
 3863SOL    HW111613   4.924   3.381   0.068
 3863SOL    HW211614   4.859   3.474  -0.049
 3864SOL     OW11615   4.546   2.864   1.372
 3864SOL    HW111616   4.586   2.863   1.280
 3864SOL    HW211617   4.556   2.956   1.412
 3865SOL     OW11618   4.640   2.772   0.291
 3865SOL    HW111619   4.703   2.810   0.223
 3865SOL    HW211620   4.680   2.689   0.330
 3866SOL     OW11621   4.096   3.150   1.490
 3866SOL    HW111622   4.083   3.243   1.456
 3866SOL    HW211623   4.012   3.098   1.477
 3867SOL     OW11624   4.763   2.960   0.696
 3867SOL    HW111625   4.693   2.913   0.750
 3867SOL    HW211626   4.822   2.892   0.653
 3868SOL     OW11627   4.738   2.098   0.971
 3868SOL    HW111628   4.730   2.062   0.878
 3868SOL    HW211629   4.736   2.022   1.036
 3869SOL     OW11630   4.314   3.349   0.491
 3869SOL    HW111631   4.356   3.291   0.421
 3869SOL    HW211632   4.270   3.428   0.447
 3870SOL     OW11633   3.979   3.210   0.290
 3870SOL    HW111634   3.883   3.211   0.263
 3870SOL    HW211635   3.991   3.263   0.374
 3871SOL     OW11636   3.829   2.875   1.726
 3871SOL    HW111637   3.752   2.842   1.780
 3871SOL    HW211638   3.914   2.845   1.768
 3872SOL     OW11639   4.396   2.065   1.489
 3872SOL    HW111640   4.486   2.049   1.449
 3872SOL    HW211641   4.404   2.070   1.588
 3873SOL     OW11642   3.799   2.207   0.033
 3873SOL    HW111643   3.707   2.179   0.004
 3873SOL    HW211644   3.830   2.284  -0.023
 3874SOL     OW11645   5.164   2.718   1.398
 3874SOL    HW111646   5.107   2.770   1.335
 3874SOL    HW211647   5.260   2.730   1.374
 3875SOL     OW11648   3.796   2.028   0.318
 3875SOL    HW111649   3.779   2.111   0.264
 3875SOL    HW211650   3.886   1.991   0.296
 3876SOL     OW11651   4.907   3.197   0.119
 3876SOL    HW111652   4.808   3.186   0.121
 3876SOL    HW211653   4.941   3.212   0.212
 3877SOL     OW11654   4.337   2.704   1.431
 3877SOL    HW111655   4.393   2.785   1.414
 3877SOL    HW211656   4.396   2.624   1.434
 3878SOL     OW11657   4.440   2.427   1.708
 3878SOL    HW111658   4.459   2.492   1.782
 3878SOL    HW211659   4.500   2.347   1.717
 3879SOL     OW11660   5.174   3.082   1.633
 3879SOL    HW111661   5.165   3.072   1.732
 3879SOL    HW211662   5.270   3.075   1.607
 3880SOL     OW11663   4.114   3.603   1.560
 3880SOL    HW111664   4.023   3.644   1.558
 3880SOL    HW211665   4.107   3.509   1.592
 3881SOL     OW11666   4.949   2.187   0.449
 3881SOL    HW111667   5.014   2.113   0.438
 3881SOL    HW211668   4.969   2.237   0.533
 3882SOL     OW11669   4.318   2.607   0.652
 3882SOL    HW111670   4.368   2.692   0.633
 3882SOL    HW211671   4.230   2.609   0.604
 3883SOL     OW11672   4.583   3.236   0.016
 3883SOL    HW111673   4.537   3.251   0.104
 3883SOL    HW211674   4.627   3.321  -0.014
 3884SOL     OW11675   4.385   3.652   0.953
 3884SOL    HW111676   4.339   3.740   0.940
 3884SOL    HW211677   4.484   3.664   0.946
 3885SOL     OW11678   4.583   2.818   0.861
 3885SOL    HW111679   4.637   2.749   0.909
 3885SOL    HW211680   4.551   2.887   0.927
 3886SOL     OW11681   4.807   2.846   0.087
 3886SOL    HW111682   4.784   2.899   0.005
 3886SOL    HW211683   4.888   2.790   0.068
 3887SOL     OW11684   3.945   3.176   1.844
 3887SOL    HW111685   3.880   3.103   1.823
 3887SOL    HW211686   3.949   3.190   1.942
 3888SOL     OW11687   3.803   3.102   0.653
 3888SOL    HW111688   3.802   3.055   0.741
 3888SOL    HW211689   3.885   3.074   0.602
 3889SOL     OW11690   4.396   3.253   1.624
 3889SOL    HW111691   4.318   3.203   1.662
 3889SOL    HW211692   4.393   3.348   1.655
 3890SOL     OW11693   4.152   2.286   0.520
 3890SOL    HW111694   4.182   2.214   0.458
 3890SOL    HW211695   4.113   2.246   0.603
 3891SOL     OW11696   4.041   2.409   1.280
 3891SOL    HW111697   4.079   2.350   1.352
 3891SOL    HW211698   4.081   2.383   1.192
 3892SOL     OW11699   4.536   3.448   0.687
 3892SOL    HW111700   4.568   3.458   0.593
 3892SOL    HW211701   4.457   3.386   0.689
 3893SOL     OW11702   5.148   2.076   1.112
 3893SOL    HW111703   5.200   2.011   1.167
 3893SOL    HW211704   5.099   2.139   1.173
 3894SOL     OW11705   4.725   1.896   1.154
 3894SOL    HW111706   4.662   1.824   1.123
 3894SOL    HW211707   4.818   1.860   1.154
 3895SOL     OW11708   4.494   3.192   0.301
 3895SOL    HW111709   4.448   3.105   0.318
 3895SOL    HW211710   4.585   3.189   0.342
 3896SOL     OW11711   4.342   3.429   1.284
 3896SOL    HW111712   4.337   3.511   1.341
 3896SOL    HW211713   4.431   3.426   1.239
 3897SOL     OW11714   3.763   2.939   0.300
 3897SOL    HW111715   3.862   2.928   0.291
 3897SOL    HW211716   3.723   2.853   0.332
 3898SOL     OW11717   4.599   3.508   0.337
 3898SOL    HW111718   4.522   3.473   0.283
 3898SOL    HW211719   4.567   3.579   0.399
 3899SOL     OW11720   3.954   2.490   1.975
 3899SOL    HW111721   3.861   2.488   2.012
 3899SOL    HW211722   3.955   2.451   1.883
 3900SOL     OW11723   3.949   2.137   2.858
 3900SOL    HW111724   3.984   2.120   2.950
 3900SOL    HW211725   3.861   2.092   2.846
 3901SOL     OW11726   3.743   2.230   2.509
 3901SOL    HW111727   3.661   2.273   2.548
 3901SOL    HW211728   3.715   2.157   2.446
 3902SOL     OW11729   4.293   3.137   3.027
 3902SOL    HW111730   4.200   3.130   2.990
 3902SOL    HW211731   4.304   3.226   3.071
 3903SOL     OW11732   5.279   3.373   2.565
 3903SOL    HW111733   5.222   3.357   2.646
 3903SOL    HW211734   5.220   3.383   2.485
 3904SOL     OW11735   4.859   2.565   2.579
 3904SOL    HW111736   4.916   2.643   2.554
 3904SOL    HW211737   4.799   2.591   2.655
 3905SOL     OW11738   4.492   3.006   2.885
 3905SOL    HW111739   4.414   3.023   2.945
 3905SOL    HW211740   4.526   3.093   2.849
 3906SOL     OW11741   4.574   2.660   3.685
 3906SOL    HW111742   4.570   2.736   3.750
 3906SOL    HW211743   4.596   2.696   3.594
 3907SOL     OW11744   4.409   2.874   2.527
 3907SOL    HW111745   4.478   2.858   2.597
 3907SOL    HW211746   4.336   2.931   2.565
 3908SOL     OW11747   4.410   3.023   3.665
 3908SOL    HW111748   4.470   3.102   3.679
 3908SOL    HW211749   4.324   3.054   3.624
 3909SOL     OW11750   4.059   3.297   2.923
 3909SOL    HW111751   3.981   3.266   2.870
 3909SOL    HW211752   4.117   3.355   2.866
 3910SOL     OW11753   4.162   2.254   3.361
 3910SOL    HW111754   4.244   2.198   3.370
 3910SOL    HW211755   4.081   2.196   3.365
 3911SOL     OW11756   3.955   3.575   2.345
 3911SOL    HW111757   3.989   3.652   2.399
 3911SOL    HW211758   3.999   3.575   2.255
 3912SOL     OW11759   4.851   3.203   3.552
 3912SOL    HW111760   4.898   3.203   3.640
 3912SOL    HW211761   4.803   3.116   3.541
 3913SOL     OW11762   3.954   3.296   2.400
 3913SOL    HW111763   3.928   3.392   2.400
 3913SOL    HW211764   3.883   3.242   2.445
 3914SOL     OW11765   3.964   2.953   2.748
 3914SOL    HW111766   3.978   2.869   2.800
 3914SOL    HW211767   3.909   3.017   2.803
 3915SOL     OW11768   4.344   3.648   3.301
 3915SOL    HW111769   4.252   3.631   3.336
 3915SOL    HW211770   4.372   3.740   3.327
 3916SOL     OW11771   4.330   2.826   1.985
 3916SOL    HW111772   4.337   2.910   1.931
 3916SOL    HW211773   4.376   2.839   2.073
 3917SOL     OW11774   3.846   2.505   2.425
 3917SOL    HW111775   3.801   2.417   2.442
 3917SOL    HW211776   3.845   2.559   2.509
 3918SOL     OW11777   3.751   3.458   1.979
 3918SOL    HW111778   3.732   3.362   2.000
 3918SOL    HW211779   3.718   3.516   2.054
 3919SOL     OW11780   5.413   2.784   2.474
 3919SOL    HW111781   5.508   2.755   2.482
 3919SOL    HW211782   5.405   2.849   2.399
 3920SOL     OW11783   3.837   2.599   3.459
 3920SOL    HW111784   3.925   2.586   3.504
 3920SOL    HW211785   3.824   2.696   3.437
 3921SOL     OW11786   4.337   3.227   2.588
 3921SOL    HW111787   4.288   3.140   2.597
 3921SOL    HW211788   4.314   3.270   2.501
 3922SOL     OW11789   5.017   3.090   3.285
 3922SOL    HW111790   5.054   3.017   3.227
 3922SOL    HW211791   5.069   3.095   3.370
 3923SOL     OW11792   4.533   1.866   2.364
 3923SOL    HW111793   4.573   1.957   2.355
 3923SOL    HW211794   4.433   1.874   2.370
 3924SOL     OW11795   3.921   2.838   3.126
 3924SOL    HW111796   4.010   2.793   3.112
 3924SOL    HW211797   3.848   2.773   3.107
 3925SOL     OW11798   4.911   3.654   3.478
 3925SOL    HW111799   4.935   3.714   3.402
 3925SOL    HW211800   4.918   3.559   3.448
 3926SOL     OW11801   4.041   2.113   3.663
 3926SOL    HW111802   4.112   2.184   3.669
 3926SOL    HW211803   3.953   2.152   3.691
 3927SOL     OW11804   4.322   2.591   2.132
 3927SOL    HW111805   4.346   2.660   2.064
 3927SOL    HW211806   4.244   2.624   2.186
 3928SOL     OW11807   5.005   2.207   2.806
 3928SOL    HW111808   4.919   2.157   2.793
 3928SOL    HW211809   5.067   2.153   2.862
 3929SOL     OW11810   4.531   2.467   3.327
 3929SOL    HW111811   4.484   2.464   3.416
 3929SOL    HW211812   4.480   2.412   3.261
 3930SOL     OW11813   5.118   2.331   3.536
 3930SOL    HW111814   5.098   2.374   3.624
 3930SOL    HW211815   5.196   2.269   3.545
 3931SOL     OW11816   4.697   2.752   3.434
 3931SOL    HW111817   4.743   2.668   3.405
 3931SOL    HW211818   4.641   2.786   3.359
 3932SOL     OW11819   4.715   2.272   3.104
 3932SOL    HW111820   4.638   2.306   3.158
 3932SOL    HW211821   4.681   2.221   3.025
 3933SOL     OW11822   4.765   2.563   2.291
 3933SOL    HW111823   4.791   2.559   2.387
 3933SOL    HW211824   4.680   2.512   2.277
 3934SOL     OW11825   3.800   2.673   2.651
 3934SOL    HW111826   3.899   2.661   2.660
 3934SOL    HW211827   3.776   2.768   2.672
 3935SOL     OW11828   3.854   3.683   3.433
 3935SOL    HW111829   3.844   3.668   3.532
 3935SOL    HW211830   3.768   3.719   3.397
 3936SOL     OW11831   4.589   2.210   2.057
 3936SOL    HW111832   4.648   2.273   2.008
 3936SOL    HW211833   4.608   2.116   2.028
 3937SOL     OW11834   5.086   3.006   2.407
 3937SOL    HW111835   5.169   2.977   2.359
 3937SOL    HW211836   5.037   3.073   2.351
 3938SOL     OW11837   4.274   2.058   2.747
 3938SOL    HW111838   4.269   2.053   2.847
 3938SOL    HW211839   4.276   2.154   2.718
 3939SOL     OW11840   4.732   3.318   2.339
 3939SOL    HW111841   4.686   3.390   2.287
 3939SOL    HW211842   4.728   3.338   2.437
 3940SOL     OW11843   4.075   3.663   2.715
 3940SOL    HW111844   4.125   3.577   2.721
 3940SOL    HW211845   4.140   3.740   2.712
 3941SOL     OW11846   4.951   3.412   3.368
 3941SOL    HW111847   4.957   3.335   3.432
 3941SOL    HW211848   4.899   3.386   3.288
 3942SOL     OW11849   4.045   2.805   2.104
 3942SOL    HW111850   4.127   2.844   2.062
 3942SOL    HW211851   4.018   2.723   2.055
 3943SOL     OW11852   4.185   3.128   3.589
 3943SOL    HW111853   4.135   3.129   3.503
 3943SOL    HW211854   4.122   3.110   3.665
 3944SOL     OW11855   4.835   3.638   2.099
 3944SOL    HW111856   4.775   3.576   2.149
 3944SOL    HW211857   4.866   3.594   2.014
 3945SOL     OW11858   3.926   2.147   3.360
 3945SOL    HW111859   3.846   2.207   3.347
 3945SOL    HW211860   3.916   2.098   3.446
 3946SOL     OW11861   4.188   3.605   2.185
 3946SOL    HW111862   4.221   3.644   2.271
 3946SOL    HW211863   4.264   3.598   2.120
 3947SOL     OW11864   3.973   3.647   3.103
 3947SOL    HW111865   4.030   3.582   3.153
 3947SOL    HW211866   3.957   3.614   3.010
 3948SOL     OW11867   4.664   3.560   2.766
 3948SOL    HW111868   4.744   3.503   2.787
 3948SOL    HW211869   4.615   3.520   2.689
 3949SOL     OW11870   4.106   2.562   2.342
 3949SOL    HW111871   4.151   2.472   2.339
 3949SOL    HW211872   4.012   2.551   2.375
 3950SOL     OW11873   4.338   1.984   1.979
 3950SOL    HW111874   4.436   1.962   1.986
 3950SOL    HW211875   4.307   1.967   1.886
 3951SOL     OW11876   4.505   2.126   3.611
 3951SOL    HW111877   4.572   2.065   3.654
 3951SOL    HW211878   4.432   2.145   3.676
 3952SOL     OW11879   4.612   3.376   3.057
 3952SOL    HW111880   4.589   3.351   2.963
 3952SOL    HW211881   4.673   3.307   3.096
 3953SOL     OW11882   5.075   2.452   3.295
 3953SOL    HW111883   5.103   2.409   3.380
 3953SOL    HW211884   5.100   2.548   3.296
 3954SOL     OW11885   4.527   3.264   2.786
 3954SOL    HW111886   4.617   3.278   2.744
 3954SOL    HW211887   4.456   3.266   2.715
 3955SOL     OW11888   4.646   2.365   2.761
 3955SOL    HW111889   4.621   2.356   2.665
 3955SOL    HW211890   4.694   2.283   2.792
 3956SOL     OW11891   4.263   1.926   2.374
 3956SOL    HW111892   4.182   1.927   2.432
 3956SOL    HW211893   4.266   2.009   2.319
 3957SOL     OW11894   5.158   3.050   1.903
 3957SOL    HW111895   5.190   2.974   1.960
 3957SOL    HW211896   5.066   3.077   1.933
 3958SOL     OW11897   4.021   1.897   2.033
 3958SOL    HW111898   4.070   1.981   2.012
 3958SOL    HW211899   4.083   1.832   2.078
 3959SOL     OW11900   4.659   2.098   2.342
 3959SOL    HW111901   4.611   2.139   2.264
 3959SOL    HW211902   4.758   2.096   2.323
 3960SOL     OW11903   4.800   2.545   3.326
 3960SOL    HW111904   4.720   2.484   3.329
 3960SOL    HW211905   4.881   2.492   3.302
 3961SOL     OW11906   4.951   3.432   2.655
 3961SOL    HW111907   4.972   3.506   2.590
 3961SOL    HW211908   5.019   3.432   2.728
 3962SOL     OW11909   4.183   3.014   2.603
 3962SOL    HW111910   4.112   2.987   2.668
 3962SOL    HW211911   4.157   2.986   2.510
 3963SOL     OW11912   4.995   3.659   2.453
 3963SOL    HW111913   5.039   3.723   2.389
 3963SOL    HW211914   4.945   3.711   2.523
 3964SOL     OW11915   4.756   2.411   1.878
 3964SOL    HW111916   4.715   2.493   1.839
 3964SOL    HW211917   4.820   2.437   1.951
 3965SOL     OW11918   3.802   2.418   3.248
 3965SOL    HW111919   3.894   2.417   3.207
 3965SOL    HW211920   3.796   2.492   3.315
 3966SOL     OW11921   4.285   2.084   3.009
 3966SOL    HW111922   4.323   2.000   3.046
 3966SOL    HW211923   4.197   2.103   3.053
 3967SOL     OW11924   4.590   2.316   2.504
 3967SOL    HW111925   4.558   2.388   2.442
 3967SOL    HW211926   4.614   2.235   2.451
 3968SOL     OW11927   4.741   1.901   2.615
 3968SOL    HW111928   4.669   1.906   2.546
 3968SOL    HW211929   4.717   1.832   2.684
 3969SOL     OW11930   4.212   3.247   2.036
 3969SOL    HW111931   4.125   3.232   2.083
 3969SOL    HW211932   4.195   3.273   1.941
 3970SOL     OW11933   5.114   2.437   1.940
 3970SOL    HW111934   5.060   2.416   2.021
 3970SOL    HW211935   5.205   2.396   1.949
 3971SOL     OW11936   4.251   2.118   2.190
 3971SOL    HW111937   4.278   2.059   2.115
 3971SOL    HW211938   4.251   2.213   2.159
 3972SOL     OW11939   4.788   3.209   3.202
 3972SOL    HW111940   4.708   3.186   3.257
 3972SOL    HW211941   4.871   3.183   3.251
 3973SOL     OW11942   4.835   3.057   2.962
 3973SOL    HW111943   4.795   3.101   3.043
 3973SOL    HW211944   4.794   3.094   2.879
 3974SOL     OW11945   4.639   1.951   3.264
 3974SOL    HW111946   4.664   1.931   3.169
 3974SOL    HW211947   4.711   2.007   3.306
 3975SOL     OW11948   4.704   2.978   3.581
 3975SOL    HW111949   4.605   2.984   3.591
 3975SOL    HW211950   4.727   2.898   3.525
 3976SOL     OW11951   4.429   2.912   2.230
 3976SOL    HW111952   4.415   2.919   2.329
 3976SOL    HW211953   4.513   2.861   2.212
 3977SOL     OW11954   4.134   2.675   3.113
 3977SOL    HW111955   4.220   2.687   3.163
 3977SOL    HW211956   4.092   2.588   3.140
 3978SOL     OW11957   4.998   2.248   3.124
 3978SOL    HW111958   5.019   2.322   3.188
 3978SOL    HW211959   4.909   2.265   3.081
 3979SOL     OW11960   3.788   3.426   3.193
 3979SOL    HW111961   3.742   3.508   3.159
 3979SOL    HW211962   3.886   3.445   3.202
 3980SOL     OW11963   4.091   2.962   2.363
 3980SOL    HW111964   4.084   3.045   2.307
 3980SOL    HW211965   4.095   2.882   2.303
 3981SOL     OW11966   4.290   2.399   2.727
 3981SOL    HW111967   4.302   2.465   2.653
 3981SOL    HW211968   4.336   2.433   2.810
 3982SOL     OW11969   4.976   3.210   2.250
 3982SOL    HW111970   5.026   3.287   2.290
 3982SOL    HW211971   4.881   3.212   2.282
 3983SOL     OW11972   4.996   3.307   3.004
 3983SOL    HW111973   5.043   3.320   3.091
 3983SOL    HW211974   4.930   3.233   3.013
 3984SOL     OW11975   4.078   3.372   3.191
 3984SOL    HW111976   4.057   3.328   3.104
 3984SOL    HW211977   4.175   3.398   3.194
 3985SOL     OW11978   4.126   2.613   3.460
 3985SOL    HW111979   4.194   2.668   3.413
 3985SOL    HW211980   4.166   2.525   3.487
 3986SOL     OW11981   4.737   1.967   3.632
 3986SOL    HW111982   4.743   2.052   3.580
 3986SOL    HW211983   4.769   1.891   3.575
 3987SOL     OW11984   4.228   1.912   3.602
 3987SOL    HW111985   4.186   1.855   3.532
 3987SOL    HW211986   4.162   1.981   3.634
 3988SOL     OW11987   4.297   2.732   2.891
 3988SOL    HW111988   4.341   2.821   2.882
 3988SOL    HW211989   4.234   2.732   2.968
 3989SOL     OW11990   5.084   2.724   2.907
 3989SOL    HW111991   5.009   2.724   2.841
 3989SOL    HW211992   5.121   2.632   2.916
 3990SOL     OW11993   4.933   2.387   2.137
 3990SOL    HW111994   4.946   2.303   2.191
 3990SOL    HW211995   4.904   2.461   2.197
 3991SOL     OW11996   4.031   2.075   3.093
 3991SOL    HW111997   4.008   2.112   3.183
 3991SOL    HW211998   4.001   1.980   3.087
 3992SOL     OW11999   3.761   3.172   3.144
 3992SOL    HW112000   3.814   3.123   3.212
 3992SOL    HW212001   3.783   3.270   3.149
 3993SOL     OW12002   4.456   2.496   2.926
 3993SOL    HW112003   4.515   2.470   2.850
 3993SOL    HW212004   4.428   2.592   2.915
 3994SOL     OW12005   4.031   1.925   2.480
 3994SOL    HW112006   4.020   2.019   2.513
 3994SOL    HW212007   4.026   1.862   2.557
 3995SOL     OW12008   5.346   2.229   2.236
 3995SOL    HW112009   5.348   2.153   2.300
 3995SOL    HW212010   5.298   2.306   2.276
 3996SOL     OW12011   4.747   2.628   2.828
 3996SOL    HW112012   4.762   2.649   2.924
 3996SOL    HW212013   4.717   2.533   2.819
 3997SOL     OW12014   4.704   3.435   3.562
 3997SOL    HW112015   4.684   3.479   3.474
 3997SOL    HW212016   4.743   3.344   3.546
 3998SOL     OW12017   4.074   2.760   3.666
 3998SOL    HW112018   4.150   2.804   3.714
 3998SOL    HW212019   4.109   2.713   3.584
 3999SOL     OW12020   5.027   2.700   1.904
 3999SOL    HW112021   5.061   2.607   1.919
 3999SOL    HW212022   5.045   2.727   1.809
 4000SOL     OW12023   4.792   3.195   2.711
 4000SOL    HW112024   4.799   3.111   2.656
 4000SOL    HW212025   4.854   3.264   2.675
 4001SOL     OW12026   4.043   2.672   2.811
 4001SOL    HW112027   4.136   2.708   2.816
 4001SOL    HW212028   4.037   2.587   2.863
 4002SOL     OW12029   4.063   2.371   2.868
 4002SOL    HW112030   4.011   2.288   2.851
 4002SOL    HW212031   4.140   2.376   2.804
 4003SOL     OW12032   4.862   2.242   3.540
 4003SOL    HW112033   4.817   2.305   3.604
 4003SOL    HW212034   4.955   2.273   3.523
 4004SOL     OW12035   4.884   2.069   3.339
 4004SOL    HW112036   4.884   2.133   3.416
 4004SOL    HW212037   4.912   2.117   3.256
 4005SOL     OW12038   3.732   3.188   2.062
 4005SOL    HW112039   3.639   3.209   2.031
 4005SOL    HW212040   3.742   3.089   2.075
 4006SOL     OW12041   3.812   3.663   2.789
 4006SOL    HW112042   3.770   3.577   2.762
 4006SOL    HW212043   3.906   3.666   2.755
 4007SOL     OW12044   4.228   3.430   2.772
 4007SOL    HW112045   4.294   3.504   2.781
 4007SOL    HW212046   4.272   3.351   2.730
 4008SOL     OW12047   4.726   2.658   3.100
 4008SOL    HW112048   4.767   2.626   3.186
 4008SOL    HW212049   4.630   2.631   3.097
 4009SOL     OW12050   3.764   2.406   2.976
 4009SOL    HW112051   3.849   2.373   2.935
 4009SOL    HW212052   3.777   2.421   3.074
 4010SOL     OW12053   3.913   2.382   3.584
 4010SOL    HW112054   3.972   2.342   3.514
 4010SOL    HW212055   3.855   2.453   3.543
 4011SOL     OW12056   5.093   2.812   3.522
 4011SOL    HW112057   5.132   2.901   3.542
 4011SOL    HW212058   5.103   2.792   3.425
 4012SOL     OW12059   4.539   2.434   2.187
 4012SOL    HW112060   4.546   2.345   2.141
 4012SOL    HW212061   4.445   2.468   2.179
 4013SOL     OW12062   3.976   3.426   3.606
 4013SOL    HW112063   3.946   3.483   3.682
 4013SOL    HW212064   3.969   3.329   3.632
 4014SOL     OW12065   4.395   2.326   3.131
 4014SOL    HW112066   4.361   2.237   3.101
 4014SOL    HW212067   4.421   2.380   3.051
 4015SOL     OW12068   4.654   3.540   3.327
 4015SOL    HW112069   4.630   3.522   3.232
 4015SOL    HW212070   4.684   3.634   3.337
 4016SOL     OW12071   4.197   2.362   2.053
 4016SOL    HW112072   4.258   2.442   2.057
 4016SOL    HW212073   4.102   2.393   2.060
 4017SOL     OW12074   3.883   2.999   3.328
 4017SOL    HW112075   3.905   2.938   3.404
 4017SOL    HW212076   3.893   2.950   3.242
 4018SOL     OW12077   5.071   2.921   3.096
 4018SOL    HW112078   5.095   2.858   3.022
 4018SOL    HW212079   4.981   2.961   3.078
 4019SOL     OW12080   5.026   2.717   2.171
 4019SOL    HW112081   4.940   2.686   2.213
 4019SOL    HW212082   5.022   2.703   2.072
 4020SOL     OW12083   4.976   3.593   2.990
 4020SOL    HW112084   5.060   3.598   2.936
 4020SOL    HW212085   4.953   3.497   3.008
 4021SOL     OW12086   3.807   3.120   2.884
 4021SOL    HW112087   3.802   3.119   2.984
 4021SOL    HW212088   3.724   3.079   2.846
 4022SOL     OW12089   4.412   3.524   3.578
 4022SOL    HW112090   4.356   3.605   3.587
 4022SOL    HW212091   4.464   3.528   3.492
 4023SOL     OW12092   5.112   3.435   2.339
 4023SOL    HW112093   5.179   3.447   2.265
 4023SOL    HW212094   5.072   3.524   2.362
 4024SOL     OW12095   3.854   3.656   3.713
 4024SOL    HW112096   3.813   3.582   3.766
 4024SOL    HW212097   3.918   3.707   3.771
 4025SOL     OW12098   5.004   2.789   2.534
 4025SOL    HW112099   5.064   2.708   2.536
 4025SOL    HW212100   5.044   2.858   2.474
 4026SOL     OW12101   4.554   3.135   3.284
 4026SOL    HW112102   4.549   3.168   3.379
 4026SOL    HW212103   4.468   3.154   3.238
 4027SOL     OW12104   4.396   3.478   2.016
 4027SOL    HW112105   4.405   3.488   1.917
 4027SOL    HW212106   4.356   3.389   2.037
 4028SOL     OW12107   3.987   2.188   2.582
 4028SOL    HW112108   3.908   2.239   2.548
 4028SOL    HW212109   3.978   2.173   2.680
 4029SOL     OW12110   4.918   3.474   1.893
 4029SOL    HW112111   4.924   3.381   1.930
 4029SOL    HW212112   4.859   3.474   1.813
 4030SOL     OW12113   4.546   2.864   3.234
 4030SOL    HW112114   4.586   2.863   3.142
 4030SOL    HW212115   4.556   2.956   3.274
 4031SOL     OW12116   4.640   2.772   2.153
 4031SOL    HW112117   4.703   2.810   2.085
 4031SOL    HW212118   4.680   2.689   2.192
 4032SOL     OW12119   4.096   3.150   3.352
 4032SOL    HW112120   4.083   3.243   3.318
 4032SOL    HW212121   4.012   3.098   3.339
 4033SOL     OW12122   4.763   2.960   2.558
 4033SOL    HW112123   4.693   2.913   2.612
 4033SOL    HW212124   4.822   2.892   2.515
 4034SOL     OW12125   4.738   2.098   2.833
 4034SOL    HW112126   4.730   2.062   2.740
 4034SOL    HW212127   4.736   2.022   2.898
 4035SOL     OW12128   4.314   3.349   2.353
 4035SOL    HW112129   4.356   3.291   2.283
 4035SOL    HW212130   4.270   3.428   2.309
 4036SOL     OW12131   3.979   3.210   2.152
 4036SOL    HW112132   3.883   3.211   2.125
 4036SOL    HW212133   3.991   3.263   2.236
 4037SOL     OW12134   3.829   2.875   3.588
 4037SOL    HW112135   3.752   2.842   3.642
 4037SOL    HW212136   3.914   2.845   3.630
 4038SOL     OW12137   4.396   2.065   3.351
 4038SOL    HW112138   4.486   2.049   3.311
 4038SOL    HW212139   4.404   2.070   3.450
 4039SOL     OW12140   3.799   2.207   1.895
 4039SOL    HW112141   3.707   2.179   1.866
 4039SOL    HW212142   3.830   2.284   1.839
 4040SOL     OW12143   5.164   2.718   3.260
 4040SOL    HW112144   5.107   2.770   3.197
 4040SOL    HW212145   5.260   2.730   3.236
 4041SOL     OW12146   3.796   2.028   2.180
 4041SOL    HW112147   3.779   2.111   2.126
 4041SOL    HW212148   3.886   1.991   2.158
 4042SOL     OW12149   4.907   3.197   1.981
 4042SOL    HW112150   4.808   3.186   1.983
 4042SOL    HW212151   4.941   3.212   2.074
 4043SOL     OW12152   4.337   2.704   3.293
 4043SOL    HW112153   4.393   2.785   3.276
 4043SOL    HW212154   4.396   2.624   3.296
 4044SOL     OW12155   4.440   2.427   3.570
 4044SOL    HW112156   4.459   2.492   3.644
 4044SOL    HW212157   4.500   2.347   3.579
 4045SOL     OW12158   5.174   3.082   3.495
 4045SOL    HW112159   5.165   3.072   3.594
 4045SOL    HW212160   5.270   3.075   3.469
 4046SOL     OW12161   4.114   3.603   3.422
 4046SOL    HW112162   4.023   3.644   3.420
 4046SOL    HW212163   4.107   3.509   3.454
 4047SOL     OW12164   4.949   2.187   2.311
 4047SOL    HW112165   5.014   2.113   2.300
 4047SOL    HW212166   4.969   2.237   2.395
 4048SOL     OW12167   4.318   2.607   2.514
 4048SOL    HW112168   4.368   2.692   2.495
 4048SOL    HW212169   4.230   2.609   2.466
 4049SOL     OW12170   4.583   3.236   1.878
 4049SOL    HW112171   4.537   3.251   1.966
 4049SOL    HW212172   4.627   3.321   1.848
 4050SOL     OW12173   4.385   3.652   2.815
 4050SOL    HW112174   4.339   3.740   2.802
 4050SOL    HW212175   4.484   3.664   2.808
 4051SOL     OW12176   4.583   2.818   2.723
 4051SOL    HW112177   4.637   2.749   2.771
 4051SOL    HW212178   4.551   2.887   2.789
 4052SOL     OW12179   4.807   2.846   1.949
 4052SOL    HW112180   4.784   2.899   1.867
 4052SOL    HW212181   4.888   2.790   1.930
 4053SOL     OW12182   3.945   3.176   3.706
 4053SOL    HW112183   3.880   3.103   3.685
 4053SOL    HW212184   3.949   3.190   3.804
 4054SOL     OW12185   3.803   3.102   2.515
 4054SOL    HW112186   3.802   3.055   2.603
 4054SOL    HW212187   3.885   3.074   2.464
 4055SOL     OW12188   4.396   3.253   3.486
 4055SOL    HW112189   4.318   3.203   3.524
 4055SOL    HW212190   4.393   3.348   3.517
 4056SOL     OW12191   4.152   2.286   2.382
 4056SOL    HW112192   4.182   2.214   2.320
 4056SOL    HW212193   4.113   2.246   2.465
 4057SOL     OW12194   4.041   2.409   3.142
 4057SOL    HW112195   4.079   2.350   3.214
 4057SOL    HW212196   4.081   2.383   3.054
 4058SOL     OW12197   4.536   3.448   2.549
 4058SOL    HW112198   4.568   3.458   2.455
 4058SOL    HW212199   4.457   3.386   2.551
 4059SOL     OW12200   5.148   2.076   2.974
 4059SOL    HW112201   5.200   2.011   3.029
 4059SOL    HW212202   5.099   2.139   3.035
 4060SOL     OW12203   4.725   1.896   3.016
 4060SOL    HW112204   4.662   1.824   2.985
 4060SOL    HW212205   4.818   1.860   3.016
 4061SOL     OW12206   4.494   3.192   2.163
 4061SOL    HW112207   4.448   3.105   2.180
 4061SOL    HW212208   4.585   3.189   2.204
 4062SOL     OW12209   4.342   3.429   3.146
 4062SOL    HW112210   4.337   3.511   3.203
 4062SOL    HW212211   4.431   3.426   3.101
 4063SOL     OW12212   5.076   1.914   2.030
 4063SOL    HW112213   5.111   1.873   1.946
 4063SOL    HW212214   4.986   1.876   2.050
 4064SOL     OW12215   3.763   2.939   2.162
 4064SOL    HW112216   3.862   2.928   2.153
 4064SOL    HW212217   3.723   2.853   2.194
 4065SOL     OW12218   4.599   3.508   2.199
 4065SOL    HW112219   4.522   3.473   2.145
 4065SOL    HW212220   4.567   3.579   2.261
 4066SOL     OW12221   3.954   2.490   3.837
 4066SOL    HW112222   3.861   2.488   3.874
 4066SOL    HW212223   3.955   2.451   3.745
 4067SOL     OW12224   3.949   2.137   4.720
 4067SOL    HW112225   3.984   2.120   4.812
 4067SOL    HW212226   3.861   2.092   4.708
 4068SOL     OW12227   3.743   2.230   4.371
 4068SOL    HW112228   3.661   2.273   4.410
 4068SOL    HW212229   3.715   2.157   4.308
 4069SOL     OW12230   4.293   3.137   4.889
 4069SOL    HW112231   4.200   3.130   4.852
 4069SOL    HW212232   4.304   3.226   4.933
 4070SOL     OW12233   5.279   3.373   4.427
 4070SOL    HW112234   5.222   3.357   4.508
 4070SOL    HW212235   5.220   3.383   4.347
 4071SOL     OW12236   4.859   2.565   4.441
 4071SOL    HW112237   4.916   2.643   4.416
 4071SOL    HW212238   4.799   2.591   4.517
 4072SOL     OW12239   4.492   3.006   4.747
 4072SOL    HW112240   4.414   3.023   4.807
 4072SOL    HW212241   4.526   3.093   4.711
 4073SOL     OW12242   4.409   2.874   4.389
 4073SOL    HW112243   4.478   2.858   4.459
 4073SOL    HW212244   4.336   2.931   4.427
 4074SOL     OW12245   4.059   3.297   4.785
 4074SOL    HW112246   3.981   3.266   4.732
 4074SOL    HW212247   4.117   3.355   4.728
 4075SOL     OW12248   4.162   2.254   5.223
 4075SOL    HW112249   4.244   2.198   5.232
 4075SOL    HW212250   4.081   2.196   5.227
 4076SOL     OW12251   3.955   3.575   4.207
 4076SOL    HW112252   3.989   3.652   4.261
 4076SOL    HW212253   3.999   3.575   4.117
 4077SOL     OW12254   3.954   3.296   4.262
 4077SOL    HW112255   3.928   3.392   4.262
 4077SOL    HW212256   3.883   3.242   4.307
 4078SOL     OW12257   3.964   2.953   4.610
 4078SOL    HW112258   3.978   2.869   4.662
 4078SOL    HW212259   3.909   3.017   4.665
 4079SOL     OW12260   4.344   3.648   5.163
 4079SOL    HW112261   4.252   3.631   5.198
 4079SOL    HW212262   4.372   3.740   5.189
 4080SOL     OW12263   4.330   2.826   3.847
 4080SOL    HW112264   4.337   2.910   3.793
 4080SOL    HW212265   4.376   2.839   3.935
 4081SOL     OW12266   5.318   1.976   5.204
 4081SOL    HW112267   5.300   2.043   5.132
 4081SOL    HW212268   5.315   2.022   5.293
 4082SOL     OW12269   3.846   2.505   4.287
 4082SOL    HW112270   3.801   2.417   4.304
 4082SOL    HW212271   3.845   2.559   4.371
 4083SOL     OW12272   3.751   3.458   3.841
 4083SOL    HW112273   3.732   3.362   3.862
 4083SOL    HW212274   3.718   3.516   3.916
 4084SOL     OW12275   5.413   2.784   4.336
 4084SOL    HW112276   5.508   2.755   4.344
 4084SOL    HW212277   5.405   2.849   4.261
 4085SOL     OW12278   4.337   3.227   4.450
 4085SOL    HW112279   4.288   3.140   4.459
 4085SOL    HW212280   4.314   3.270   4.363
 4086SOL     OW12281   4.533   1.866   4.226
 4086SOL    HW112282   4.573   1.957   4.217
 4086SOL    HW212283   4.433   1.874   4.232
 4087SOL     OW12284   3.921   2.838   4.988
 4087SOL    HW112285   4.010   2.793   4.974
 4087SOL    HW212286   3.848   2.773   4.969
 4088SOL     OW12287   4.322   2.591   3.994
 4088SOL    HW112288   4.346   2.660   3.926
 4088SOL    HW212289   4.244   2.624   4.048
 4089SOL     OW12290   5.005   2.207   4.668
 4089SOL    HW112291   4.919   2.157   4.655
 4089SOL    HW212292   5.067   2.153   4.724
 4090SOL     OW12293   4.531   2.467   5.189
 4090SOL    HW112294   4.484   2.464   5.278
 4090SOL    HW212295   4.480   2.412   5.123
 4091SOL     OW12296   4.715   2.272   4.966
 4091SOL    HW112297   4.638   2.306   5.020
 4091SOL    HW212298   4.681   2.221   4.887
 4092SOL     OW12299   4.765   2.563   4.153
 4092SOL    HW112300   4.791   2.559   4.249
 4092SOL    HW212301   4.680   2.512   4.139
 4093SOL     OW12302   3.800   2.673   4.513
 4093SOL    HW112303   3.899   2.661   4.522
 4093SOL    HW212304   3.776   2.768   4.534
 4094SOL     OW12305   3.854   3.683   5.295
 4094SOL    HW112306   3.844   3.668   5.394
 4094SOL    HW212307   3.768   3.719   5.259
 4095SOL     OW12308   4.589   2.210   3.919
 4095SOL    HW112309   4.648   2.273   3.870
 4095SOL    HW212310   4.608   2.116   3.890
 4096SOL     OW12311   5.086   3.006   4.269
 4096SOL    HW112312   5.169   2.977   4.221
 4096SOL    HW212313   5.037   3.073   4.213
 4097SOL     OW12314   4.274   2.058   4.609
 4097SOL    HW112315   4.269   2.053   4.709
 4097SOL    HW212316   4.276   2.154   4.580
 4098SOL     OW12317   4.732   3.318   4.201
 4098SOL    HW112318   4.686   3.390   4.149
 4098SOL    HW212319   4.728   3.338   4.299
 4099SOL     OW12320   4.075   3.663   4.577
 4099SOL    HW112321   4.125   3.577   4.583
 4099SOL    HW212322   4.140   3.740   4.574
 4100SOL     OW12323   4.045   2.805   3.966
 4100SOL    HW112324   4.127   2.844   3.924
 4100SOL    HW212325   4.018   2.723   3.917
 4101SOL     OW12326   4.835   3.638   3.961
 4101SOL    HW112327   4.775   3.576   4.011
 4101SOL    HW212328   4.866   3.594   3.876
 4102SOL     OW12329   4.188   3.605   4.047
 4102SOL    HW112330   4.221   3.644   4.133
 4102SOL    HW212331   4.264   3.598   3.982
 4103SOL     OW12332   3.973   3.647   4.965
 4103SOL    HW112333   4.030   3.582   5.015
 4103SOL    HW212334   3.957   3.614   4.872
 4104SOL     OW12335   4.664   3.560   4.628
 4104SOL    HW112336   4.744   3.503   4.649
 4104SOL    HW212337   4.615   3.520   4.551
 4105SOL     OW12338   4.106   2.562   4.204
 4105SOL    HW112339   4.151   2.472   4.201
 4105SOL    HW212340   4.012   2.551   4.237
 4106SOL     OW12341   4.338   1.984   3.841
 4106SOL    HW112342   4.436   1.962   3.848
 4106SOL    HW212343   4.307   1.967   3.748
 4107SOL     OW12344   4.612   3.376   4.919
 4107SOL    HW112345   4.589   3.351   4.825
 4107SOL    HW212346   4.673   3.307   4.958
 4108SOL     OW12347   4.527   3.264   4.648
 4108SOL    HW112348   4.617   3.278   4.606
 4108SOL    HW212349   4.456   3.266   4.577
 4109SOL     OW12350   4.646   2.365   4.623
 4109SOL    HW112351   4.621   2.356   4.527
 4109SOL    HW212352   4.694   2.283   4.654
 4110SOL     OW12353   4.263   1.926   4.236
 4110SOL    HW112354   4.182   1.927   4.294
 4110SOL    HW212355   4.266   2.009   4.181
 4111SOL     OW12356   5.158   3.050   3.765
 4111SOL    HW112357   5.190   2.974   3.822
 4111SOL    HW212358   5.066   3.077   3.795
 4112SOL     OW12359   4.021   1.897   3.895
 4112SOL    HW112360   4.070   1.981   3.874
 4112SOL    HW212361   4.083   1.832   3.940
 4113SOL     OW12362   4.659   2.098   4.204
 4113SOL    HW112363   4.611   2.139   4.126
 4113SOL    HW212364   4.758   2.096   4.185
 4114SOL     OW12365   4.951   3.432   4.517
 4114SOL    HW112366   4.972   3.506   4.452
 4114SOL    HW212367   5.019   3.432   4.590
 4115SOL     OW12368   4.183   3.014   4.465
 4115SOL    HW112369   4.112   2.987   4.530
 4115SOL    HW212370   4.157   2.986   4.372
 4116SOL     OW12371   4.995   3.659   4.315
 4116SOL    HW112372   5.039   3.723   4.251
 4116SOL    HW212373   4.945   3.711   4.385
 4117SOL     OW12374   4.756   2.411   3.740
 4117SOL    HW112375   4.715   2.493   3.701
 4117SOL    HW212376   4.820   2.437   3.813
 4118SOL     OW12377   4.285   2.084   4.871
 4118SOL    HW112378   4.323   2.000   4.908
 4118SOL    HW212379   4.197   2.103   4.915
 4119SOL     OW12380   4.590   2.316   4.366
 4119SOL    HW112381   4.558   2.388   4.304
 4119SOL    HW212382   4.614   2.235   4.313
 4120SOL     OW12383   4.741   1.901   4.477
 4120SOL    HW112384   4.669   1.906   4.408
 4120SOL    HW212385   4.717   1.832   4.546
 4121SOL     OW12386   4.212   3.247   3.898
 4121SOL    HW112387   4.125   3.232   3.945
 4121SOL    HW212388   4.195   3.273   3.803
 4122SOL     OW12389   5.114   2.437   3.802
 4122SOL    HW112390   5.060   2.416   3.883
 4122SOL    HW212391   5.205   2.396   3.811
 4123SOL     OW12392   4.251   2.118   4.052
 4123SOL    HW112393   4.278   2.059   3.977
 4123SOL    HW212394   4.251   2.213   4.021
 4124SOL     OW12395   4.788   3.209   5.064
 4124SOL    HW112396   4.708   3.186   5.119
 4124SOL    HW212397   4.871   3.183   5.113
 4125SOL     OW12398   4.835   3.057   4.824
 4125SOL    HW112399   4.795   3.101   4.905
 4125SOL    HW212400   4.794   3.094   4.741
 4126SOL     OW12401   4.429   2.912   4.092
 4126SOL    HW112402   4.415   2.919   4.191
 4126SOL    HW212403   4.513   2.861   4.074
 4127SOL     OW12404   4.134   2.675   4.975
 4127SOL    HW112405   4.220   2.687   5.025
 4127SOL    HW212406   4.092   2.588   5.002
 4128SOL     OW12407   4.998   2.248   4.986
 4128SOL    HW112408   5.019   2.322   5.050
 4128SOL    HW212409   4.909   2.265   4.943
 4129SOL     OW12410   3.788   3.426   5.055
 4129SOL    HW112411   3.742   3.508   5.021
 4129SOL    HW212412   3.886   3.445   5.064
 4130SOL     OW12413   4.091   2.962   4.225
 4130SOL    HW112414   4.084   3.045   4.169
 4130SOL    HW212415   4.095   2.882   4.165
 4131SOL     OW12416   4.290   2.399   4.589
 4131SOL    HW112417   4.302   2.465   4.515
 4131SOL    HW212418   4.336   2.433   4.672
 4132SOL     OW12419   4.976   3.210   4.112
 4132SOL    HW112420   5.026   3.287   4.152
 4132SOL    HW212421   4.881   3.212   4.144
 4133SOL     OW12422   4.996   3.307   4.866
 4133SOL    HW112423   5.043   3.320   4.953
 4133SOL    HW212424   4.930   3.233   4.875
 4134SOL     OW12425   4.078   3.372   5.053
 4134SOL    HW112426   4.057   3.328   4.966
 4134SOL    HW212427   4.175   3.398   5.056
 4135SOL     OW12428   4.228   1.912   5.464
 4135SOL    HW112429   4.186   1.855   5.394
 4135SOL    HW212430   4.162   1.981   5.496
 4136SOL     OW12431   4.297   2.732   4.753
 4136SOL    HW112432   4.341   2.821   4.744
 4136SOL    HW212433   4.234   2.732   4.830
 4137SOL     OW12434   5.084   2.724   4.769
 4137SOL    HW112435   5.009   2.724   4.703
 4137SOL    HW212436   5.121   2.632   4.778
 4138SOL     OW12437   4.933   2.387   3.999
 4138SOL    HW112438   4.946   2.303   4.053
 4138SOL    HW212439   4.904   2.461   4.059
 4139SOL     OW12440   4.031   2.075   4.955
 4139SOL    HW112441   4.008   2.112   5.045
 4139SOL    HW212442   4.001   1.980   4.949
 4140SOL     OW12443   3.761   3.172   5.006
 4140SOL    HW112444   3.814   3.123   5.074
 4140SOL    HW212445   3.783   3.270   5.011
 4141SOL     OW12446   4.456   2.496   4.788
 4141SOL    HW112447   4.515   2.470   4.712
 4141SOL    HW212448   4.428   2.592   4.777
 4142SOL     OW12449   4.031   1.925   4.342
 4142SOL    HW112450   4.020   2.019   4.375
 4142SOL    HW212451   4.026   1.862   4.419
 4143SOL     OW12452   5.346   2.229   4.098
 4143SOL    HW112453   5.348   2.153   4.162
 4143SOL    HW212454   5.298   2.306   4.138
 4144SOL     OW12455   4.747   2.628   4.690
 4144SOL    HW112456   4.762   2.649   4.786
 4144SOL    HW212457   4.717   2.533   4.681
 4145SOL     OW12458   5.027   2.700   3.766
 4145SOL    HW112459   5.061   2.607   3.781
 4145SOL    HW212460   5.045   2.727   3.671
 4146SOL     OW12461   4.792   3.195   4.573
 4146SOL    HW112462   4.799   3.111   4.518
 4146SOL    HW212463   4.854   3.264   4.537
 4147SOL     OW12464   4.043   2.672   4.673
 4147SOL    HW112465   4.136   2.708   4.678
 4147SOL    HW212466   4.037   2.587   4.725
 4148SOL     OW12467   4.063   2.371   4.730
 4148SOL    HW112468   4.011   2.288   4.713
 4148SOL    HW212469   4.140   2.376   4.666
 4149SOL     OW12470   4.884   2.069   5.201
 4149SOL    HW112471   4.884   2.133   5.278
 4149SOL    HW212472   4.912   2.117   5.118
 4150SOL     OW12473   3.732   3.188   3.924
 4150SOL    HW112474   3.639   3.209   3.893
 4150SOL    HW212475   3.742   3.089   3.937
 4151SOL     OW12476   3.812   3.663   4.651
 4151SOL    HW112477   3.770   3.577   4.624
 4151SOL    HW212478   3.906   3.666   4.617
 4152SOL     OW12479   4.228   3.430   4.634
 4152SOL    HW112480   4.294   3.504   4.643
 4152SOL    HW212481   4.272   3.351   4.592
 4153SOL     OW12482   4.726   2.658   4.962
 4153SOL    HW112483   4.767   2.626   5.048
 4153SOL    HW212484   4.630   2.631   4.959
 4154SOL     OW12485   3.764   2.406   4.838
 4154SOL    HW112486   3.849   2.373   4.797
 4154SOL    HW212487   3.777   2.421   4.936
 4155SOL     OW12488   4.539   2.434   4.049
 4155SOL    HW112489   4.546   2.345   4.003
 4155SOL    HW212490   4.445   2.468   4.041
 4156SOL     OW12491   4.395   2.326   4.993
 4156SOL    HW112492   4.361   2.237   4.963
 4156SOL    HW212493   4.421   2.380   4.913
 4157SOL     OW12494   4.654   3.540   5.189
 4157SOL    HW112495   4.630   3.522   5.094
 4157SOL    HW212496   4.684   3.634   5.199
 4158SOL     OW12497   4.197   2.362   3.915
 4158SOL    HW112498   4.258   2.442   3.919
 4158SOL    HW212499   4.102   2.393   3.922
 4159SOL     OW12500   3.883   2.999   5.190
 4159SOL    HW112501   3.905   2.938   5.266
 4159SOL    HW212502   3.893   2.950   5.104
 4160SOL     OW12503   5.071   2.921   4.958
 4160SOL    HW112504   5.095   2.858   4.884
 4160SOL    HW212505   4.981   2.961   4.940
 4161SOL     OW12506   5.026   2.717   4.033
 4161SOL    HW112507   4.940   2.686   4.075
 4161SOL    HW212508   5.022   2.703   3.934
 4162SOL     OW12509   4.976   3.593   4.852
 4162SOL    HW112510   5.060   3.598   4.798
 4162SOL    HW212511   4.953   3.497   4.870
 4163SOL     OW12512   3.807   3.120   4.746
 4163SOL    HW112513   3.802   3.119   4.846
 4163SOL    HW212514   3.724   3.079   4.708
 4164SOL     OW12515   5.112   3.435   4.201
 4164SOL    HW112516   5.179   3.447   4.127
 4164SOL    HW212517   5.072   3.524   4.224
 4165SOL     OW12518   5.004   2.789   4.396
 4165SOL    HW112519   5.064   2.708   4.398
 4165SOL    HW212520   5.044   2.858   4.336
 4166SOL     OW12521   4.396   3.478   3.878
 4166SOL    HW112522   4.405   3.488   3.779
 4166SOL    HW212523   4.356   3.389   3.899
 4167SOL     OW12524   3.987   2.188   4.444
 4167SOL    HW112525   3.908   2.239   4.410
 4167SOL    HW212526   3.978   2.173   4.542
 4168SOL     OW12527   4.918   3.474   3.755
 4168SOL    HW112528   4.924   3.381   3.792
 4168SOL    HW212529   4.859   3.474   3.675
 4169SOL     OW12530   4.546   2.864   5.096
 4169SOL    HW112531   4.586   2.863   5.004
 4169SOL    HW212532   4.556   2.956   5.136
 4170SOL     OW12533   4.640   2.772   4.015
 4170SOL    HW112534   4.703   2.810   3.947
 4170SOL    HW212535   4.680   2.689   4.054
 4171SOL     OW12536   4.096   3.150   5.214
 4171SOL    HW112537   4.083   3.243   5.180
 4171SOL    HW212538   4.012   3.098   5.201
 4172SOL     OW12539   4.763   2.960   4.420
 4172SOL    HW112540   4.693   2.913   4.474
 4172SOL    HW212541   4.822   2.892   4.377
 4173SOL     OW12542   4.738   2.098   4.695
 4173SOL    HW112543   4.730   2.062   4.602
 4173SOL    HW212544   4.736   2.022   4.760
 4174SOL     OW12545   4.314   3.349   4.215
 4174SOL    HW112546   4.356   3.291   4.145
 4174SOL    HW212547   4.270   3.428   4.171
 4175SOL     OW12548   3.979   3.210   4.014
 4175SOL    HW112549   3.883   3.211   3.987
 4175SOL    HW212550   3.991   3.263   4.098
 4176SOL     OW12551   4.396   2.065   5.213
 4176SOL    HW112552   4.486   2.049   5.173
 4176SOL    HW212553   4.404   2.070   5.312
 4177SOL     OW12554   3.799   2.207   3.757
 4177SOL    HW112555   3.707   2.179   3.728
 4177SOL    HW212556   3.830   2.284   3.701
 4178SOL     OW12557   3.796   2.028   4.042
 4178SOL    HW112558   3.779   2.111   3.988
 4178SOL    HW212559   3.886   1.991   4.020
 4179SOL     OW12560   4.907   3.197   3.843
 4179SOL    HW112561   4.808   3.186   3.845
 4179SOL    HW212562   4.941   3.212   3.936
 4180SOL     OW12563   4.337   2.704   5.155
 4180SOL    HW112564   4.393   2.785   5.138
 4180SOL    HW212565   4.396   2.624   5.158
 4181SOL     OW12566   4.114   3.603   5.284
 4181SOL    HW112567   4.023   3.644   5.282
 4181SOL    HW212568   4.107   3.509   5.316
 4182SOL     OW12569   4.949   2.187   4.173
 4182SOL    HW112570   5.014   2.113   4.162
 4182SOL    HW212571   4.969   2.237   4.257
 4183SOL     OW12572   4.318   2.607   4.376
 4183SOL    HW112573   4.368   2.692   4.357
 4183SOL    HW212574   4.230   2.609   4.328
 4184SOL     OW12575   4.583   3.236   3.740
 4184SOL    HW112576   4.537   3.251   3.828
 4184SOL    HW212577   4.627   3.321   3.710
 4185SOL     OW12578   4.385   3.652   4.677
 4185SOL    HW112579   4.339   3.740   4.664
 4185SOL    HW212580   4.484   3.664   4.670
 4186SOL     OW12581   4.583   2.818   4.585
 4186SOL    HW112582   4.637   2.749   4.633
 4186SOL    HW212583   4.551   2.887   4.651
 4187SOL     OW12584   4.807   2.846   3.811
 4187SOL    HW112585   4.784   2.899   3.729
 4187SOL    HW212586   4.888   2.790   3.792
 4188SOL     OW12587   3.803   3.102   4.377
 4188SOL    HW112588   3.802   3.055   4.465
 4188SOL    HW212589   3.885   3.074   4.326
 4189SOL     OW12590   4.152   2.286   4.244
 4189SOL    HW112591   4.182   2.214   4.182
 4189SOL    HW212592   4.113   2.246   4.327
 4190SOL     OW12593   4.041   2.409   5.004
 4190SOL    HW112594   4.079   2.350   5.076
 4190SOL    HW212595   4.081   2.383   4.916
 4191SOL     OW12596   4.536   3.448   4.411
 4191SOL    HW112597   4.568   3.458   4.317
 4191SOL    HW212598   4.457   3.386   4.413
 4192SOL     OW12599   5.148   2.076   4.836
 4192SOL    HW112600   5.200   2.011   4.891
 4192SOL    HW212601   5.099   2.139   4.897
 4193SOL     OW12602   4.725   1.896   4.878
 4193SOL    HW112603   4.662   1.824   4.847
 4193SOL    HW212604   4.818   1.860   4.878
 4194SOL     OW12605   4.494   3.192   4.025
 4194SOL    HW112606   4.448   3.105   4.042
 4194SOL    HW212607   4.585   3.189   4.066
 4195SOL     OW12608   4.342   3.429   5.008
 4195SOL    HW112609   4.337   3.511   5.065
 4195SOL    HW212610   4.431   3.426   4.963
 4196SOL     OW12611   5.076   1.914   3.892
 4196SOL    HW112612   5.111   1.873   3.808
 4196SOL    HW212613   4.986   1.876   3.912
 4197SOL     OW12614   3.763   2.939   4.024
 4197SOL    HW112615   3.862   2.928   4.015
 4197SOL    HW212616   3.723   2.853   4.056
 4198SOL     OW12617   4.599   3.508   4.061
 4198SOL    HW112618   4.522   3.473   4.007
 4198SOL    HW212619   4.567   3.579   4.123
 4199SOL     OW12620   3.954   4.352   0.113
 4199SOL    HW112621   3.861   4.350   0.150
 4199SOL    HW212622   3.955   4.313   0.021
 4200SOL     OW12623   3.949   3.999   0.996
 4200SOL    HW112624   3.984   3.982   1.088
 4200SOL    HW212625   3.861   3.954   0.984
 4201SOL     OW12626   3.743   4.092   0.647
 4201SOL    HW112627   3.661   4.135   0.686
 4201SOL    HW212628   3.715   4.019   0.584
 4202SOL     OW12629   4.293   4.999   1.165
 4202SOL    HW112630   4.200   4.992   1.128
 4202SOL    HW212631   4.304   5.088   1.209
 4203SOL     OW12632   5.279   5.235   0.703
 4203SOL    HW112633   5.222   5.219   0.784
 4203SOL    HW212634   5.220   5.245   0.623
 4204SOL     OW12635   4.859   4.427   0.717
 4204SOL    HW112636   4.916   4.505   0.692
 4204SOL    HW212637   4.799   4.453   0.793
 4205SOL     OW12638   4.492   4.868   1.023
 4205SOL    HW112639   4.414   4.885   1.083
 4205SOL    HW212640   4.526   4.955   0.987
 4206SOL     OW12641   4.574   4.522   1.823
 4206SOL    HW112642   4.570   4.598   1.888
 4206SOL    HW212643   4.596   4.558   1.732
 4207SOL     OW12644   4.409   4.736   0.665
 4207SOL    HW112645   4.478   4.720   0.735
 4207SOL    HW212646   4.336   4.793   0.703
 4208SOL     OW12647   4.410   4.885   1.803
 4208SOL    HW112648   4.470   4.964   1.817
 4208SOL    HW212649   4.324   4.916   1.762
 4209SOL     OW12650   4.059   5.159   1.061
 4209SOL    HW112651   3.981   5.128   1.008
 4209SOL    HW212652   4.117   5.217   1.004
 4210SOL     OW12653   4.162   4.116   1.499
 4210SOL    HW112654   4.244   4.060   1.508
 4210SOL    HW212655   4.081   4.058   1.503
 4211SOL     OW12656   3.955   5.437   0.483
 4211SOL    HW112657   3.989   5.514   0.537
 4211SOL    HW212658   3.999   5.437   0.393
 4212SOL     OW12659   4.851   5.065   1.690
 4212SOL    HW112660   4.898   5.065   1.778
 4212SOL    HW212661   4.803   4.978   1.679
 4213SOL     OW12662   3.964   4.815   0.886
 4213SOL    HW112663   3.978   4.731   0.938
 4213SOL    HW212664   3.909   4.879   0.941
 4214SOL     OW12665   4.330   4.688   0.123
 4214SOL    HW112666   4.337   4.772   0.069
 4214SOL    HW212667   4.376   4.701   0.211
 4215SOL     OW12668   3.846   4.367   0.563
 4215SOL    HW112669   3.801   4.279   0.580
 4215SOL    HW212670   3.845   4.421   0.647
 4216SOL     OW12671   5.413   4.646   0.612
 4216SOL    HW112672   5.508   4.617   0.620
 4216SOL    HW212673   5.405   4.711   0.537
 4217SOL     OW12674   3.837   4.461   1.597
 4217SOL    HW112675   3.925   4.448   1.642
 4217SOL    HW212676   3.824   4.558   1.575
 4218SOL     OW12677   4.337   5.089   0.726
 4218SOL    HW112678   4.288   5.002   0.735
 4218SOL    HW212679   4.314   5.132   0.639
 4219SOL     OW12680   5.017   4.952   1.423
 4219SOL    HW112681   5.054   4.879   1.365
 4219SOL    HW212682   5.069   4.957   1.508
 4220SOL     OW12683   4.533   3.728   0.502
 4220SOL    HW112684   4.573   3.819   0.493
 4220SOL    HW212685   4.433   3.736   0.508
 4221SOL     OW12686   3.921   4.700   1.264
 4221SOL    HW112687   4.010   4.655   1.250
 4221SOL    HW212688   3.848   4.635   1.245
 4222SOL     OW12689   4.041   3.975   1.801
 4222SOL    HW112690   4.112   4.046   1.807
 4222SOL    HW212691   3.953   4.014   1.829
 4223SOL     OW12692   4.322   4.453   0.270
 4223SOL    HW112693   4.346   4.522   0.202
 4223SOL    HW212694   4.244   4.486   0.324
 4224SOL     OW12695   5.005   4.069   0.944
 4224SOL    HW112696   4.919   4.019   0.931
 4224SOL    HW212697   5.067   4.015   1.000
 4225SOL     OW12698   4.531   4.329   1.465
 4225SOL    HW112699   4.484   4.326   1.554
 4225SOL    HW212700   4.480   4.274   1.399
 4226SOL     OW12701   5.118   4.193   1.674
 4226SOL    HW112702   5.098   4.236   1.762
 4226SOL    HW212703   5.196   4.131   1.683
 4227SOL     OW12704   4.697   4.614   1.572
 4227SOL    HW112705   4.743   4.530   1.543
 4227SOL    HW212706   4.641   4.648   1.497
 4228SOL     OW12707   4.715   4.134   1.242
 4228SOL    HW112708   4.638   4.168   1.296
 4228SOL    HW212709   4.681   4.083   1.163
 4229SOL     OW12710   4.765   4.425   0.429
 4229SOL    HW112711   4.791   4.421   0.525
 4229SOL    HW212712   4.680   4.374   0.415
 4230SOL     OW12713   3.800   4.535   0.789
 4230SOL    HW112714   3.899   4.523   0.798
 4230SOL    HW212715   3.776   4.630   0.810
 4231SOL     OW12716   4.589   4.072   0.195
 4231SOL    HW112717   4.648   4.135   0.146
 4231SOL    HW212718   4.608   3.978   0.166
 4232SOL     OW12719   5.086   4.868   0.545
 4232SOL    HW112720   5.169   4.839   0.497
 4232SOL    HW212721   5.037   4.935   0.489
 4233SOL     OW12722   4.274   3.920   0.885
 4233SOL    HW112723   4.269   3.915   0.985
 4233SOL    HW212724   4.276   4.016   0.856
 4234SOL     OW12725   4.045   4.667   0.242
 4234SOL    HW112726   4.127   4.706   0.200
 4234SOL    HW212727   4.018   4.585   0.193
 4235SOL     OW12728   4.185   4.990   1.727
 4235SOL    HW112729   4.135   4.991   1.641
 4235SOL    HW212730   4.122   4.972   1.803
 4236SOL     OW12731   3.926   4.009   1.498
 4236SOL    HW112732   3.846   4.069   1.485
 4236SOL    HW212733   3.916   3.960   1.584
 4237SOL     OW12734   5.356   5.101   0.081
 4237SOL    HW112735   5.324   5.195   0.071
 4237SOL    HW212736   5.280   5.038   0.069
 4238SOL     OW12737   4.106   4.424   0.480
 4238SOL    HW112738   4.151   4.334   0.477
 4238SOL    HW212739   4.012   4.413   0.513
 4239SOL     OW12740   4.505   3.988   1.749
 4239SOL    HW112741   4.572   3.927   1.792
 4239SOL    HW212742   4.432   4.007   1.814
 4240SOL     OW12743   5.075   4.314   1.433
 4240SOL    HW112744   5.103   4.271   1.518
 4240SOL    HW212745   5.100   4.410   1.434
 4241SOL     OW12746   4.646   4.227   0.899
 4241SOL    HW112747   4.621   4.218   0.803
 4241SOL    HW212748   4.694   4.145   0.930
 4242SOL     OW12749   4.263   3.788   0.512
 4242SOL    HW112750   4.182   3.789   0.570
 4242SOL    HW212751   4.266   3.871   0.457
 4243SOL     OW12752   5.158   4.912   0.041
 4243SOL    HW112753   5.190   4.836   0.098
 4243SOL    HW212754   5.066   4.939   0.071
 4244SOL     OW12755   4.659   3.960   0.480
 4244SOL    HW112756   4.611   4.001   0.402
 4244SOL    HW212757   4.758   3.958   0.461
 4245SOL     OW12758   4.800   4.407   1.464
 4245SOL    HW112759   4.720   4.346   1.467
 4245SOL    HW212760   4.881   4.354   1.440
 4246SOL     OW12761   4.951   5.294   0.793
 4246SOL    HW112762   4.972   5.368   0.728
 4246SOL    HW212763   5.019   5.294   0.866
 4247SOL     OW12764   4.183   4.876   0.741
 4247SOL    HW112765   4.112   4.849   0.806
 4247SOL    HW212766   4.157   4.848   0.648
 4248SOL     OW12767   4.756   4.273   0.016
 4248SOL    HW112768   4.715   4.355  -0.023
 4248SOL    HW212769   4.820   4.299   0.089
 4249SOL     OW12770   3.802   4.280   1.386
 4249SOL    HW112771   3.894   4.279   1.345
 4249SOL    HW212772   3.796   4.354   1.453
 4250SOL     OW12773   4.285   3.946   1.147
 4250SOL    HW112774   4.323   3.862   1.184
 4250SOL    HW212775   4.197   3.965   1.191
 4251SOL     OW12776   4.590   4.178   0.642
 4251SOL    HW112777   4.558   4.250   0.580
 4251SOL    HW212778   4.614   4.097   0.589
 4252SOL     OW12779   4.741   3.763   0.753
 4252SOL    HW112780   4.669   3.768   0.684
 4252SOL    HW212781   4.717   3.694   0.822
 4253SOL     OW12782   5.114   4.299   0.078
 4253SOL    HW112783   5.060   4.278   0.159
 4253SOL    HW212784   5.205   4.258   0.087
 4254SOL     OW12785   4.251   3.980   0.328
 4254SOL    HW112786   4.278   3.921   0.253
 4254SOL    HW212787   4.251   4.075   0.297
 4255SOL     OW12788   4.788   5.071   1.340
 4255SOL    HW112789   4.708   5.048   1.395
 4255SOL    HW212790   4.871   5.045   1.389
 4256SOL     OW12791   4.835   4.919   1.100
 4256SOL    HW112792   4.795   4.963   1.181
 4256SOL    HW212793   4.794   4.956   1.017
 4257SOL     OW12794   4.639   3.813   1.402
 4257SOL    HW112795   4.664   3.793   1.307
 4257SOL    HW212796   4.711   3.869   1.444
 4258SOL     OW12797   4.704   4.840   1.719
 4258SOL    HW112798   4.605   4.846   1.729
 4258SOL    HW212799   4.727   4.760   1.663
 4259SOL     OW12800   4.429   4.774   0.368
 4259SOL    HW112801   4.415   4.781   0.467
 4259SOL    HW212802   4.513   4.723   0.350
 4260SOL     OW12803   4.134   4.537   1.251
 4260SOL    HW112804   4.220   4.549   1.301
 4260SOL    HW212805   4.092   4.450   1.278
 4261SOL     OW12806   4.998   4.110   1.262
 4261SOL    HW112807   5.019   4.184   1.326
 4261SOL    HW212808   4.909   4.127   1.219
 4262SOL     OW12809   4.091   4.824   0.501
 4262SOL    HW112810   4.084   4.907   0.445
 4262SOL    HW212811   4.095   4.744   0.441
 4263SOL     OW12812   4.290   4.261   0.865
 4263SOL    HW112813   4.302   4.327   0.791
 4263SOL    HW212814   4.336   4.295   0.948
 4264SOL     OW12815   4.976   5.072   0.388
 4264SOL    HW112816   5.026   5.149   0.428
 4264SOL    HW212817   4.881   5.074   0.420
 4265SOL     OW12818   4.996   5.169   1.142
 4265SOL    HW112819   5.043   5.182   1.229
 4265SOL    HW212820   4.930   5.095   1.151
 4266SOL     OW12821   4.126   4.475   1.598
 4266SOL    HW112822   4.194   4.530   1.551
 4266SOL    HW212823   4.166   4.387   1.625
 4267SOL     OW12824   4.737   3.829   1.770
 4267SOL    HW112825   4.743   3.914   1.718
 4267SOL    HW212826   4.769   3.753   1.713
 4268SOL     OW12827   4.228   3.774   1.740
 4268SOL    HW112828   4.186   3.717   1.670
 4268SOL    HW212829   4.162   3.843   1.772
 4269SOL     OW12830   4.297   4.594   1.029
 4269SOL    HW112831   4.341   4.683   1.020
 4269SOL    HW212832   4.234   4.594   1.106
 4270SOL     OW12833   5.084   4.586   1.045
 4270SOL    HW112834   5.009   4.586   0.979
 4270SOL    HW212835   5.121   4.494   1.054
 4271SOL     OW12836   4.933   4.249   0.275
 4271SOL    HW112837   4.946   4.165   0.329
 4271SOL    HW212838   4.904   4.323   0.335
 4272SOL     OW12839   4.031   3.937   1.231
 4272SOL    HW112840   4.008   3.974   1.321
 4272SOL    HW212841   4.001   3.842   1.225
 4273SOL     OW12842   3.761   5.034   1.282
 4273SOL    HW112843   3.814   4.985   1.350
 4273SOL    HW212844   3.783   5.132   1.287
 4274SOL     OW12845   4.456   4.358   1.064
 4274SOL    HW112846   4.515   4.332   0.988
 4274SOL    HW212847   4.428   4.454   1.053
 4275SOL     OW12848   4.031   3.787   0.618
 4275SOL    HW112849   4.020   3.881   0.651
 4275SOL    HW212850   4.026   3.724   0.695
 4276SOL     OW12851   5.346   4.091   0.374
 4276SOL    HW112852   5.348   4.015   0.438
 4276SOL    HW212853   5.298   4.168   0.414
 4277SOL     OW12854   4.747   4.490   0.966
 4277SOL    HW112855   4.762   4.511   1.062
 4277SOL    HW212856   4.717   4.395   0.957
 4278SOL     OW12857   4.074   4.622   1.804
 4278SOL    HW112858   4.150   4.666   1.852
 4278SOL    HW212859   4.109   4.575   1.722
 4279SOL     OW12860   5.027   4.562   0.042
 4279SOL    HW112861   5.061   4.469   0.057
 4279SOL    HW212862   5.045   4.589  -0.053
 4280SOL     OW12863   4.043   4.534   0.949
 4280SOL    HW112864   4.136   4.570   0.954
 4280SOL    HW212865   4.037   4.449   1.001
 4281SOL     OW12866   4.063   4.233   1.006
 4281SOL    HW112867   4.011   4.150   0.989
 4281SOL    HW212868   4.140   4.238   0.942
 4282SOL     OW12869   4.862   4.104   1.678
 4282SOL    HW112870   4.817   4.167   1.742
 4282SOL    HW212871   4.955   4.135   1.661
 4283SOL     OW12872   4.884   3.931   1.477
 4283SOL    HW112873   4.884   3.995   1.554
 4283SOL    HW212874   4.912   3.979   1.394
 4284SOL     OW12875   4.726   4.520   1.238
 4284SOL    HW112876   4.767   4.488   1.324
 4284SOL    HW212877   4.630   4.493   1.235
 4285SOL     OW12878   3.764   4.268   1.114
 4285SOL    HW112879   3.849   4.235   1.073
 4285SOL    HW212880   3.777   4.283   1.212
 4286SOL     OW12881   3.913   4.244   1.722
 4286SOL    HW112882   3.972   4.204   1.652
 4286SOL    HW212883   3.855   4.315   1.681
 4287SOL     OW12884   5.093   4.674   1.660
 4287SOL    HW112885   5.132   4.763   1.680
 4287SOL    HW212886   5.103   4.654   1.563
 4288SOL     OW12887   4.539   4.296   0.325
 4288SOL    HW112888   4.546   4.207   0.279
 4288SOL    HW212889   4.445   4.330   0.317
 4289SOL     OW12890   4.395   4.188   1.269
 4289SOL    HW112891   4.361   4.099   1.239
 4289SOL    HW212892   4.421   4.242   1.189
 4290SOL     OW12893   4.197   4.224   0.191
 4290SOL    HW112894   4.258   4.304   0.195
 4290SOL    HW212895   4.102   4.255   0.198
 4291SOL     OW12896   3.883   4.861   1.466
 4291SOL    HW112897   3.905   4.800   1.542
 4291SOL    HW212898   3.893   4.812   1.380
 4292SOL     OW12899   5.071   4.783   1.234
 4292SOL    HW112900   5.095   4.720   1.160
 4292SOL    HW212901   4.981   4.823   1.216
 4293SOL     OW12902   5.026   4.579   0.309
 4293SOL    HW112903   4.940   4.548   0.351
 4293SOL    HW212904   5.022   4.565   0.210
 4294SOL     OW12905   3.807   4.982   1.022
 4294SOL    HW112906   3.802   4.981   1.122
 4294SOL    HW212907   3.724   4.941   0.984
 4295SOL     OW12908   4.627   3.810   0.133
 4295SOL    HW112909   4.678   3.811   0.047
 4295SOL    HW212910   4.683   3.768   0.204
 4296SOL     OW12911   5.004   4.651   0.672
 4296SOL    HW112912   5.064   4.570   0.674
 4296SOL    HW212913   5.044   4.720   0.612
 4297SOL     OW12914   4.554   4.997   1.422
 4297SOL    HW112915   4.549   5.030   1.517
 4297SOL    HW212916   4.468   5.016   1.376
 4298SOL     OW12917   3.987   4.050   0.720
 4298SOL    HW112918   3.908   4.101   0.686
 4298SOL    HW212919   3.978   4.035   0.818
 4299SOL     OW12920   4.546   4.726   1.372
 4299SOL    HW112921   4.586   4.725   1.280
 4299SOL    HW212922   4.556   4.818   1.412
 4300SOL     OW12923   4.640   4.634   0.291
 4300SOL    HW112924   4.703   4.672   0.223
 4300SOL    HW212925   4.680   4.551   0.330
 4301SOL     OW12926   4.096   5.012   1.490
 4301SOL    HW112927   4.083   5.105   1.456
 4301SOL    HW212928   4.012   4.960   1.477
 4302SOL     OW12929   4.763   4.822   0.696
 4302SOL    HW112930   4.693   4.775   0.750
 4302SOL    HW212931   4.822   4.754   0.653
 4303SOL     OW12932   4.738   3.960   0.971
 4303SOL    HW112933   4.730   3.924   0.878
 4303SOL    HW212934   4.736   3.884   1.036
 4304SOL     OW12935   3.829   4.737   1.726
 4304SOL    HW112936   3.752   4.704   1.780
 4304SOL    HW212937   3.914   4.707   1.768
 4305SOL     OW12938   4.396   3.927   1.489
 4305SOL    HW112939   4.486   3.911   1.449
 4305SOL    HW212940   4.404   3.932   1.588
 4306SOL     OW12941   3.799   4.069   0.033
 4306SOL    HW112942   3.707   4.041   0.004
 4306SOL    HW212943   3.830   4.146  -0.023
 4307SOL     OW12944   5.164   4.580   1.398
 4307SOL    HW112945   5.107   4.632   1.335
 4307SOL    HW212946   5.260   4.592   1.374
 4308SOL     OW12947   3.796   3.890   0.318
 4308SOL    HW112948   3.779   3.973   0.264
 4308SOL    HW212949   3.886   3.853   0.296
 4309SOL     OW12950   4.907   5.059   0.119
 4309SOL    HW112951   4.808   5.048   0.121
 4309SOL    HW212952   4.941   5.074   0.212
 4310SOL     OW12953   4.337   4.566   1.431
 4310SOL    HW112954   4.393   4.647   1.414
 4310SOL    HW212955   4.396   4.486   1.434
 4311SOL     OW12956   4.440   4.289   1.708
 4311SOL    HW112957   4.459   4.354   1.782
 4311SOL    HW212958   4.500   4.209   1.717
 4312SOL     OW12959   5.174   4.944   1.633
 4312SOL    HW112960   5.165   4.934   1.732
 4312SOL    HW212961   5.270   4.937   1.607
 4313SOL     OW12962   4.949   4.049   0.449
 4313SOL    HW112963   5.014   3.975   0.438
 4313SOL    HW212964   4.969   4.099   0.533
 4314SOL     OW12965   4.318   4.469   0.652
 4314SOL    HW112966   4.368   4.554   0.633
 4314SOL    HW212967   4.230   4.471   0.604
 4315SOL     OW12968   4.583   4.680   0.861
 4315SOL    HW112969   4.637   4.611   0.909
 4315SOL    HW212970   4.551   4.749   0.927
 4316SOL     OW12971   4.807   4.708   0.087
 4316SOL    HW112972   4.784   4.761   0.005
 4316SOL    HW212973   4.888   4.652   0.068
 4317SOL     OW12974   3.945   5.038   1.844
 4317SOL    HW112975   3.880   4.965   1.823
 4317SOL    HW212976   3.949   5.052   1.942
 4318SOL     OW12977   3.803   4.964   0.653
 4318SOL    HW112978   3.802   4.917   0.741
 4318SOL    HW212979   3.885   4.936   0.602
 4319SOL     OW12980   4.396   5.115   1.624
 4319SOL    HW112981   4.318   5.065   1.662
 4319SOL    HW212982   4.393   5.210   1.655
 4320SOL     OW12983   4.152   4.148   0.520
 4320SOL    HW112984   4.182   4.076   0.458
 4320SOL    HW212985   4.113   4.108   0.603
 4321SOL     OW12986   4.041   4.271   1.280
 4321SOL    HW112987   4.079   4.212   1.352
 4321SOL    HW212988   4.081   4.245   1.192
 4322SOL     OW12989   5.148   3.938   1.112
 4322SOL    HW112990   5.200   3.873   1.167
 4322SOL    HW212991   5.099   4.001   1.173
 4323SOL     OW12992   4.725   3.758   1.154
 4323SOL    HW112993   4.662   3.686   1.123
 4323SOL    HW212994   4.818   3.722   1.154
 4324SOL     OW12995   4.494   5.054   0.301
 4324SOL    HW112996   4.448   4.967   0.318
 4324SOL    HW212997   4.585   5.051   0.342
 4325SOL     OW12998   3.763   4.801   0.300
 4325SOL    HW112999   3.862   4.790   0.291
 4325SOL    HW213000   3.723   4.715   0.332
 4326SOL     OW13001   3.954   4.352   1.975
 4326SOL    HW113002   3.861   4.350   2.012
 4326SOL    HW213003   3.955   4.313   1.883
 4327SOL     OW13004   3.949   3.999   2.858
 4327SOL    HW113005   3.984   3.982   2.950
 4327SOL    HW213006   3.861   3.954   2.846
 4328SOL     OW13007   3.743   4.092   2.509
 4328SOL    HW113008   3.661   4.135   2.548
 4328SOL    HW213009   3.715   4.019   2.446
 4329SOL     OW13010   4.293   4.999   3.027
 4329SOL    HW113011   4.200   4.992   2.990
 4329SOL    HW213012   4.304   5.088   3.071
 4330SOL     OW13013   5.279   5.235   2.565
 4330SOL    HW113014   5.222   5.219   2.646
 4330SOL    HW213015   5.220   5.245   2.485
 4331SOL     OW13016   4.859   4.427   2.579
 4331SOL    HW113017   4.916   4.505   2.554
 4331SOL    HW213018   4.799   4.453   2.655
 4332SOL     OW13019   4.492   4.868   2.885
 4332SOL    HW113020   4.414   4.885   2.945
 4332SOL    HW213021   4.526   4.955   2.849
 4333SOL     OW13022   4.574   4.522   3.685
 4333SOL    HW113023   4.570   4.598   3.750
 4333SOL    HW213024   4.596   4.558   3.594
 4334SOL     OW13025   4.409   4.736   2.527
 4334SOL    HW113026   4.478   4.720   2.597
 4334SOL    HW213027   4.336   4.793   2.565
 4335SOL     OW13028   4.410   4.885   3.665
 4335SOL    HW113029   4.470   4.964   3.679
 4335SOL    HW213030   4.324   4.916   3.624
 4336SOL     OW13031   4.059   5.159   2.923
 4336SOL    HW113032   3.981   5.128   2.870
 4336SOL    HW213033   4.117   5.217   2.866
 4337SOL     OW13034   4.162   4.116   3.361
 4337SOL    HW113035   4.244   4.060   3.370
 4337SOL    HW213036   4.081   4.058   3.365
 4338SOL     OW13037   3.955   5.437   2.345
 4338SOL    HW113038   3.989   5.514   2.399
 4338SOL    HW213039   3.999   5.437   2.255
 4339SOL     OW13040   4.851   5.065   3.552
 4339SOL    HW113041   4.898   5.065   3.640
 4339SOL    HW213042   4.803   4.978   3.541
 4340SOL     OW13043   3.964   4.815   2.748
 4340SOL    HW113044   3.978   4.731   2.800
 4340SOL    HW213045   3.909   4.879   2.803
 4341SOL     OW13046   4.330   4.688   1.985
 4341SOL    HW113047   4.337   4.772   1.931
 4341SOL    HW213048   4.376   4.701   2.073
 4342SOL     OW13049   3.846   4.367   2.425
 4342SOL    HW113050   3.801   4.279   2.442
 4342SOL    HW213051   3.845   4.421   2.509
 4343SOL     OW13052   5.413   4.646   2.474
 4343SOL    HW113053   5.508   4.617   2.482
 4343SOL    HW213054   5.405   4.711   2.399
 4344SOL     OW13055   3.837   4.461   3.459
 4344SOL    HW113056   3.925   4.448   3.504
 4344SOL    HW213057   3.824   4.558   3.437
 4345SOL     OW13058   4.337   5.089   2.588
 4345SOL    HW113059   4.288   5.002   2.597
 4345SOL    HW213060   4.314   5.132   2.501
 4346SOL     OW13061   5.017   4.952   3.285
 4346SOL    HW113062   5.054   4.879   3.227
 4346SOL    HW213063   5.069   4.957   3.370
 4347SOL     OW13064   4.533   3.728   2.364
 4347SOL    HW113065   4.573   3.819   2.355
 4347SOL    HW213066   4.433   3.736   2.370
 4348SOL     OW13067   3.921   4.700   3.126
 4348SOL    HW113068   4.010   4.655   3.112
 4348SOL    HW213069   3.848   4.635   3.107
 4349SOL     OW13070   4.041   3.975   3.663
 4349SOL    HW113071   4.112   4.046   3.669
 4349SOL    HW213072   3.953   4.014   3.691
 4350SOL     OW13073   4.322   4.453   2.132
 4350SOL    HW113074   4.346   4.522   2.064
 4350SOL    HW213075   4.244   4.486   2.186
 4351SOL     OW13076   5.005   4.069   2.806
 4351SOL    HW113077   4.919   4.019   2.793
 4351SOL    HW213078   5.067   4.015   2.862
 4352SOL     OW13079   4.531   4.329   3.327
 4352SOL    HW113080   4.484   4.326   3.416
 4352SOL    HW213081   4.480   4.274   3.261
 4353SOL     OW13082   5.118   4.193   3.536
 4353SOL    HW113083   5.098   4.236   3.624
 4353SOL    HW213084   5.196   4.131   3.545
 4354SOL     OW13085   4.697   4.614   3.434
 4354SOL    HW113086   4.743   4.530   3.405
 4354SOL    HW213087   4.641   4.648   3.359
 4355SOL     OW13088   4.715   4.134   3.104
 4355SOL    HW113089   4.638   4.168   3.158
 4355SOL    HW213090   4.681   4.083   3.025
 4356SOL     OW13091   4.765   4.425   2.291
 4356SOL    HW113092   4.791   4.421   2.387
 4356SOL    HW213093   4.680   4.374   2.277
 4357SOL     OW13094   3.800   4.535   2.651
 4357SOL    HW113095   3.899   4.523   2.660
 4357SOL    HW213096   3.776   4.630   2.672
 4358SOL     OW13097   4.589   4.072   2.057
 4358SOL    HW113098   4.648   4.135   2.008
 4358SOL    HW213099   4.608   3.978   2.028
 4359SOL     OW13100   5.086   4.868   2.407
 4359SOL    HW113101   5.169   4.839   2.359
 4359SOL    HW213102   5.037   4.935   2.351
 4360SOL     OW13103   4.274   3.920   2.747
 4360SOL    HW113104   4.269   3.915   2.847
 4360SOL    HW213105   4.276   4.016   2.718
 4361SOL     OW13106   4.045   4.667   2.104
 4361SOL    HW113107   4.127   4.706   2.062
 4361SOL    HW213108   4.018   4.585   2.055
 4362SOL     OW13109   4.185   4.990   3.589
 4362SOL    HW113110   4.135   4.991   3.503
 4362SOL    HW213111   4.122   4.972   3.665
 4363SOL     OW13112   4.835   5.500   2.099
 4363SOL    HW113113   4.775   5.438   2.149
 4363SOL    HW213114   4.866   5.456   2.014
 4364SOL     OW13115   3.926   4.009   3.360
 4364SOL    HW113116   3.846   4.069   3.347
 4364SOL    HW213117   3.916   3.960   3.446
 4365SOL     OW13118   4.106   4.424   2.342
 4365SOL    HW113119   4.151   4.334   2.339
 4365SOL    HW213120   4.012   4.413   2.375
 4366SOL     OW13121   4.338   3.846   1.979
 4366SOL    HW113122   4.436   3.824   1.986
 4366SOL    HW213123   4.307   3.829   1.886
 4367SOL     OW13124   4.505   3.988   3.611
 4367SOL    HW113125   4.572   3.927   3.654
 4367SOL    HW213126   4.432   4.007   3.676
 4368SOL     OW13127   5.075   4.314   3.295
 4368SOL    HW113128   5.103   4.271   3.380
 4368SOL    HW213129   5.100   4.410   3.296
 4369SOL     OW13130   4.646   4.227   2.761
 4369SOL    HW113131   4.621   4.218   2.665
 4369SOL    HW213132   4.694   4.145   2.792
 4370SOL     OW13133   4.263   3.788   2.374
 4370SOL    HW113134   4.182   3.789   2.432
 4370SOL    HW213135   4.266   3.871   2.319
 4371SOL     OW13136   5.158   4.912   1.903
 4371SOL    HW113137   5.190   4.836   1.960
 4371SOL    HW213138   5.066   4.939   1.933
 4372SOL     OW13139   4.021   3.759   2.033
 4372SOL    HW113140   4.070   3.843   2.012
 4372SOL    HW213141   4.083   3.694   2.078
 4373SOL     OW13142   4.659   3.960   2.342
 4373SOL    HW113143   4.611   4.001   2.264
 4373SOL    HW213144   4.758   3.958   2.323
 4374SOL     OW13145   4.800   4.407   3.326
 4374SOL    HW113146   4.720   4.346   3.329
 4374SOL    HW213147   4.881   4.354   3.302
 4375SOL     OW13148   4.951   5.294   2.655
 4375SOL    HW113149   4.972   5.368   2.590
 4375SOL    HW213150   5.019   5.294   2.728
 4376SOL     OW13151   4.183   4.876   2.603
 4376SOL    HW113152   4.112   4.849   2.668
 4376SOL    HW213153   4.157   4.848   2.510
 4377SOL     OW13154   4.756   4.273   1.878
 4377SOL    HW113155   4.715   4.355   1.839
 4377SOL    HW213156   4.820   4.299   1.951
 4378SOL     OW13157   3.802   4.280   3.248
 4378SOL    HW113158   3.894   4.279   3.207
 4378SOL    HW213159   3.796   4.354   3.315
 4379SOL     OW13160   4.285   3.946   3.009
 4379SOL    HW113161   4.323   3.862   3.046
 4379SOL    HW213162   4.197   3.965   3.053
 4380SOL     OW13163   4.590   4.178   2.504
 4380SOL    HW113164   4.558   4.250   2.442
 4380SOL    HW213165   4.614   4.097   2.451
 4381SOL     OW13166   4.741   3.763   2.615
 4381SOL    HW113167   4.669   3.768   2.546
 4381SOL    HW213168   4.717   3.694   2.684
 4382SOL     OW13169   5.114   4.299   1.940
 4382SOL    HW113170   5.060   4.278   2.021
 4382SOL    HW213171   5.205   4.258   1.949
 4383SOL     OW13172   4.251   3.980   2.190
 4383SOL    HW113173   4.278   3.921   2.115
 4383SOL    HW213174   4.251   4.075   2.159
 4384SOL     OW13175   4.788   5.071   3.202
 4384SOL    HW113176   4.708   5.048   3.257
 4384SOL    HW213177   4.871   5.045   3.251
 4385SOL     OW13178   4.835   4.919   2.962
 4385SOL    HW113179   4.795   4.963   3.043
 4385SOL    HW213180   4.794   4.956   2.879
 4386SOL     OW13181   4.639   3.813   3.264
 4386SOL    HW113182   4.664   3.793   3.169
 4386SOL    HW213183   4.711   3.869   3.306
 4387SOL     OW13184   4.704   4.840   3.581
 4387SOL    HW113185   4.605   4.846   3.591
 4387SOL    HW213186   4.727   4.760   3.525
 4388SOL     OW13187   4.429   4.774   2.230
 4388SOL    HW113188   4.415   4.781   2.329
 4388SOL    HW213189   4.513   4.723   2.212
 4389SOL     OW13190   4.134   4.537   3.113
 4389SOL    HW113191   4.220   4.549   3.163
 4389SOL    HW213192   4.092   4.450   3.140
 4390SOL     OW13193   4.998   4.110   3.124
 4390SOL    HW113194   5.019   4.184   3.188
 4390SOL    HW213195   4.909   4.127   3.081
 4391SOL     OW13196   4.091   4.824   2.363
 4391SOL    HW113197   4.084   4.907   2.307
 4391SOL    HW213198   4.095   4.744   2.303
 4392SOL     OW13199   4.290   4.261   2.727
 4392SOL    HW113200   4.302   4.327   2.653
 4392SOL    HW213201   4.336   4.295   2.810
 4393SOL     OW13202   4.976   5.072   2.250
 4393SOL    HW113203   5.026   5.149   2.290
 4393SOL    HW213204   4.881   5.074   2.282
 4394SOL     OW13205   4.996   5.169   3.004
 4394SOL    HW113206   5.043   5.182   3.091
 4394SOL    HW213207   4.930   5.095   3.013
 4395SOL     OW13208   4.126   4.475   3.460
 4395SOL    HW113209   4.194   4.530   3.413
 4395SOL    HW213210   4.166   4.387   3.487
 4396SOL     OW13211   4.737   3.829   3.632
 4396SOL    HW113212   4.743   3.914   3.580
 4396SOL    HW213213   4.769   3.753   3.575
 4397SOL     OW13214   4.228   3.774   3.602
 4397SOL    HW113215   4.186   3.717   3.532
 4397SOL    HW213216   4.162   3.843   3.634
 4398SOL     OW13217   4.297   4.594   2.891
 4398SOL    HW113218   4.341   4.683   2.882
 4398SOL    HW213219   4.234   4.594   2.968
 4399SOL     OW13220   5.084   4.586   2.907
 4399SOL    HW113221   5.009   4.586   2.841
 4399SOL    HW213222   5.121   4.494   2.916
 4400SOL     OW13223   4.933   4.249   2.137
 4400SOL    HW113224   4.946   4.165   2.191
 4400SOL    HW213225   4.904   4.323   2.197
 4401SOL     OW13226   4.031   3.937   3.093
 4401SOL    HW113227   4.008   3.974   3.183
 4401SOL    HW213228   4.001   3.842   3.087
 4402SOL     OW13229   3.761   5.034   3.144
 4402SOL    HW113230   3.814   4.985   3.212
 4402SOL    HW213231   3.783   5.132   3.149
 4403SOL     OW13232   4.456   4.358   2.926
 4403SOL    HW113233   4.515   4.332   2.850
 4403SOL    HW213234   4.428   4.454   2.915
 4404SOL     OW13235   4.031   3.787   2.480
 4404SOL    HW113236   4.020   3.881   2.513
 4404SOL    HW213237   4.026   3.724   2.557
 4405SOL     OW13238   5.346   4.091   2.236
 4405SOL    HW113239   5.348   4.015   2.300
 4405SOL    HW213240   5.298   4.168   2.276
 4406SOL     OW13241   4.747   4.490   2.828
 4406SOL    HW113242   4.762   4.511   2.924
 4406SOL    HW213243   4.717   4.395   2.819
 4407SOL     OW13244   4.074   4.622   3.666
 4407SOL    HW113245   4.150   4.666   3.714
 4407SOL    HW213246   4.109   4.575   3.584
 4408SOL     OW13247   5.027   4.562   1.904
 4408SOL    HW113248   5.061   4.469   1.919
 4408SOL    HW213249   5.045   4.589   1.809
 4409SOL     OW13250   4.043   4.534   2.811
 4409SOL    HW113251   4.136   4.570   2.816
 4409SOL    HW213252   4.037   4.449   2.863
 4410SOL     OW13253   4.063   4.233   2.868
 4410SOL    HW113254   4.011   4.150   2.851
 4410SOL    HW213255   4.140   4.238   2.804
 4411SOL     OW13256   4.862   4.104   3.540
 4411SOL    HW113257   4.817   4.167   3.604
 4411SOL    HW213258   4.955   4.135   3.523
 4412SOL     OW13259   4.884   3.931   3.339
 4412SOL    HW113260   4.884   3.995   3.416
 4412SOL    HW213261   4.912   3.979   3.256
 4413SOL     OW13262   3.732   5.050   2.062
 4413SOL    HW113263   3.639   5.071   2.031
 4413SOL    HW213264   3.742   4.951   2.075
 4414SOL     OW13265   4.726   4.520   3.100
 4414SOL    HW113266   4.767   4.488   3.186
 4414SOL    HW213267   4.630   4.493   3.097
 4415SOL     OW13268   3.764   4.268   2.976
 4415SOL    HW113269   3.849   4.235   2.935
 4415SOL    HW213270   3.777   4.283   3.074
 4416SOL     OW13271   3.913   4.244   3.584
 4416SOL    HW113272   3.972   4.204   3.514
 4416SOL    HW213273   3.855   4.315   3.543
 4417SOL     OW13274   5.093   4.674   3.522
 4417SOL    HW113275   5.132   4.763   3.542
 4417SOL    HW213276   5.103   4.654   3.425
 4418SOL     OW13277   4.539   4.296   2.187
 4418SOL    HW113278   4.546   4.207   2.141
 4418SOL    HW213279   4.445   4.330   2.179
 4419SOL     OW13280   4.395   4.188   3.131
 4419SOL    HW113281   4.361   4.099   3.101
 4419SOL    HW213282   4.421   4.242   3.051
 4420SOL     OW13283   4.197   4.224   2.053
 4420SOL    HW113284   4.258   4.304   2.057
 4420SOL    HW213285   4.102   4.255   2.060
 4421SOL     OW13286   3.883   4.861   3.328
 4421SOL    HW113287   3.905   4.800   3.404
 4421SOL    HW213288   3.893   4.812   3.242
 4422SOL     OW13289   5.071   4.783   3.096
 4422SOL    HW113290   5.095   4.720   3.022
 4422SOL    HW213291   4.981   4.823   3.078
 4423SOL     OW13292   5.026   4.579   2.171
 4423SOL    HW113293   4.940   4.548   2.213
 4423SOL    HW213294   5.022   4.565   2.072
 4424SOL     OW13295   3.807   4.982   2.884
 4424SOL    HW113296   3.802   4.981   2.984
 4424SOL    HW213297   3.724   4.941   2.846
 4425SOL     OW13298   5.004   4.651   2.534
 4425SOL    HW113299   5.064   4.570   2.536
 4425SOL    HW213300   5.044   4.720   2.474
 4426SOL     OW13301   4.554   4.997   3.284
 4426SOL    HW113302   4.549   5.030   3.379
 4426SOL    HW213303   4.468   5.016   3.238
 4427SOL     OW13304   3.987   4.050   2.582
 4427SOL    HW113305   3.908   4.101   2.548
 4427SOL    HW213306   3.978   4.035   2.680
 4428SOL     OW13307   4.546   4.726   3.234
 4428SOL    HW113308   4.586   4.725   3.142
 4428SOL    HW213309   4.556   4.818   3.274
 4429SOL     OW13310   4.640   4.634   2.153
 4429SOL    HW113311   4.703   4.672   2.085
 4429SOL    HW213312   4.680   4.551   2.192
 4430SOL     OW13313   5.228   5.331   1.906
 4430SOL    HW113314   5.136   5.368   1.913
 4430SOL    HW213315   5.266   5.351   1.816
 4431SOL     OW13316   4.096   5.012   3.352
 4431SOL    HW113317   4.083   5.105   3.318
 4431SOL    HW213318   4.012   4.960   3.339
 4432SOL     OW13319   4.763   4.822   2.558
 4432SOL    HW113320   4.693   4.775   2.612
 4432SOL    HW213321   4.822   4.754   2.515
 4433SOL     OW13322   4.738   3.960   2.833
 4433SOL    HW113323   4.730   3.924   2.740
 4433SOL    HW213324   4.736   3.884   2.898
 4434SOL     OW13325   3.829   4.737   3.588
 4434SOL    HW113326   3.752   4.704   3.642
 4434SOL    HW213327   3.914   4.707   3.630
 4435SOL     OW13328   4.396   3.927   3.351
 4435SOL    HW113329   4.486   3.911   3.311
 4435SOL    HW213330   4.404   3.932   3.450
 4436SOL     OW13331   3.799   4.069   1.895
 4436SOL    HW113332   3.707   4.041   1.866
 4436SOL    HW213333   3.830   4.146   1.839
 4437SOL     OW13334   5.164   4.580   3.260
 4437SOL    HW113335   5.107   4.632   3.197
 4437SOL    HW213336   5.260   4.592   3.236
 4438SOL     OW13337   3.796   3.890   2.180
 4438SOL    HW113338   3.779   3.973   2.126
 4438SOL    HW213339   3.886   3.853   2.158
 4439SOL     OW13340   4.907   5.059   1.981
 4439SOL    HW113341   4.808   5.048   1.983
 4439SOL    HW213342   4.941   5.074   2.074
 4440SOL     OW13343   4.337   4.566   3.293
 4440SOL    HW113344   4.393   4.647   3.276
 4440SOL    HW213345   4.396   4.486   3.296
 4441SOL     OW13346   4.440   4.289   3.570
 4441SOL    HW113347   4.459   4.354   3.644
 4441SOL    HW213348   4.500   4.209   3.579
 4442SOL     OW13349   5.174   4.944   3.495
 4442SOL    HW113350   5.165   4.934   3.594
 4442SOL    HW213351   5.270   4.937   3.469
 4443SOL     OW13352   4.949   4.049   2.311
 4443SOL    HW113353   5.014   3.975   2.300
 4443SOL    HW213354   4.969   4.099   2.395
 4444SOL     OW13355   4.318   4.469   2.514
 4444SOL    HW113356   4.368   4.554   2.495
 4444SOL    HW213357   4.230   4.471   2.466
 4445SOL     OW13358   4.583   5.098   1.878
 4445SOL    HW113359   4.537   5.113   1.966
 4445SOL    HW213360   4.627   5.183   1.848
 4446SOL     OW13361   4.583   4.680   2.723
 4446SOL    HW113362   4.637   4.611   2.771
 4446SOL    HW213363   4.551   4.749   2.789
 4447SOL     OW13364   4.807   4.708   1.949
 4447SOL    HW113365   4.784   4.761   1.867
 4447SOL    HW213366   4.888   4.652   1.930
 4448SOL     OW13367   3.945   5.038   3.706
 4448SOL    HW113368   3.880   4.965   3.685
 4448SOL    HW213369   3.949   5.052   3.804
 4449SOL     OW13370   3.803   4.964   2.515
 4449SOL    HW113371   3.802   4.917   2.603
 4449SOL    HW213372   3.885   4.936   2.464
 4450SOL     OW13373   4.396   5.115   3.486
 4450SOL    HW113374   4.318   5.065   3.524
 4450SOL    HW213375   4.393   5.210   3.517
 4451SOL     OW13376   4.152   4.148   2.382
 4451SOL    HW113377   4.182   4.076   2.320
 4451SOL    HW213378   4.113   4.108   2.465
 4452SOL     OW13379   4.041   4.271   3.142
 4452SOL    HW113380   4.079   4.212   3.214
 4452SOL    HW213381   4.081   4.245   3.054
 4453SOL     OW13382   5.148   3.938   2.974
 4453SOL    HW113383   5.200   3.873   3.029
 4453SOL    HW213384   5.099   4.001   3.035
 4454SOL     OW13385   4.725   3.758   3.016
 4454SOL    HW113386   4.662   3.686   2.985
 4454SOL    HW213387   4.818   3.722   3.016
 4455SOL     OW13388   4.494   5.054   2.163
 4455SOL    HW113389   4.448   4.967   2.180
 4455SOL    HW213390   4.585   5.051   2.204
 4456SOL     OW13391   5.076   3.776   2.030
 4456SOL    HW113392   5.111   3.735   1.946
 4456SOL    HW213393   4.986   3.738   2.050
 4457SOL     OW13394   3.763   4.801   2.162
 4457SOL    HW113395   3.862   4.790   2.153
 4457SOL    HW213396   3.723   4.715   2.194
 4458SOL     OW13397   3.954   4.352   3.837
 4458SOL    HW113398   3.861   4.350   3.874
 4458SOL    HW213399   3.955   4.313   3.745
 4459SOL     OW13400   3.949   3.999   4.720
 4459SOL    HW113401   3.984   3.982   4.812
 4459SOL    HW213402   3.861   3.954   4.708
 4460SOL     OW13403   3.743   4.092   4.371
 4460SOL    HW113404   3.661   4.135   4.410
 4460SOL    HW213405   3.715   4.019   4.308
 4461SOL     OW13406   4.293   4.999   4.889
 4461SOL    HW113407   4.200   4.992   4.852
 4461SOL    HW213408   4.304   5.088   4.933
 4462SOL     OW13409   5.279   5.235   4.427
 4462SOL    HW113410   5.222   5.219   4.508
 4462SOL    HW213411   5.220   5.245   4.347
 4463SOL     OW13412   4.859   4.427   4.441
 4463SOL    HW113413   4.916   4.505   4.416
 4463SOL    HW213414   4.799   4.453   4.517
 4464SOL     OW13415   4.492   4.868   4.747
 4464SOL    HW113416   4.414   4.885   4.807
 4464SOL    HW213417   4.526   4.955   4.711
 4465SOL     OW13418   4.409   4.736   4.389
 4465SOL    HW113419   4.478   4.720   4.459
 4465SOL    HW213420   4.336   4.793   4.427
 4466SOL     OW13421   4.059   5.159   4.785
 4466SOL    HW113422   3.981   5.128   4.732
 4466SOL    HW213423   4.117   5.217   4.728
 4467SOL     OW13424   4.162   4.116   5.223
 4467SOL    HW113425   4.244   4.060   5.232
 4467SOL    HW213426   4.081   4.058   5.227
 4468SOL     OW13427   3.955   5.437   4.207
 4468SOL    HW113428   3.989   5.514   4.261
 4468SOL    HW213429   3.999   5.437   4.117
 4469SOL     OW13430   3.964   4.815   4.610
 4469SOL    HW113431   3.978   4.731   4.662
 4469SOL    HW213432   3.909   4.879   4.665
 4470SOL     OW13433   4.330   4.688   3.847
 4470SOL    HW113434   4.337   4.772   3.793
 4470SOL    HW213435   4.376   4.701   3.935
 4471SOL     OW13436   5.318   3.838   5.204
 4471SOL    HW113437   5.300   3.905   5.132
 4471SOL    HW213438   5.315   3.884   5.293
 4472SOL     OW13439   3.846   4.367   4.287
 4472SOL    HW113440   3.801   4.279   4.304
 4472SOL    HW213441   3.845   4.421   4.371
 4473SOL     OW13442   5.413   4.646   4.336
 4473SOL    HW113443   5.508   4.617   4.344
 4473SOL    HW213444   5.405   4.711   4.261
 4474SOL     OW13445   4.337   5.089   4.450
 4474SOL    HW113446   4.288   5.002   4.459
 4474SOL    HW213447   4.314   5.132   4.363
 4475SOL     OW13448   4.533   3.728   4.226
 4475SOL    HW113449   4.573   3.819   4.217
 4475SOL    HW213450   4.433   3.736   4.232
 4476SOL     OW13451   3.921   4.700   4.988
 4476SOL    HW113452   4.010   4.655   4.974
 4476SOL    HW213453   3.848   4.635   4.969
 4477SOL     OW13454   4.322   4.453   3.994
 4477SOL    HW113455   4.346   4.522   3.926
 4477SOL    HW213456   4.244   4.486   4.048
 4478SOL     OW13457   5.005   4.069   4.668
 4478SOL    HW113458   4.919   4.019   4.655
 4478SOL    HW213459   5.067   4.015   4.724
 4479SOL     OW13460   4.531   4.329   5.189
 4479SOL    HW113461   4.484   4.326   5.278
 4479SOL    HW213462   4.480   4.274   5.123
 4480SOL     OW13463   4.715   4.134   4.966
 4480SOL    HW113464   4.638   4.168   5.020
 4480SOL    HW213465   4.681   4.083   4.887
 4481SOL     OW13466   4.765   4.425   4.153
 4481SOL    HW113467   4.791   4.421   4.249
 4481SOL    HW213468   4.680   4.374   4.139
 4482SOL     OW13469   3.800   4.535   4.513
 4482SOL    HW113470   3.899   4.523   4.522
 4482SOL    HW213471   3.776   4.630   4.534
 4483SOL     OW13472   4.589   4.072   3.919
 4483SOL    HW113473   4.648   4.135   3.870
 4483SOL    HW213474   4.608   3.978   3.890
 4484SOL     OW13475   5.086   4.868   4.269
 4484SOL    HW113476   5.169   4.839   4.221
 4484SOL    HW213477   5.037   4.935   4.213
 4485SOL     OW13478   4.274   3.920   4.609
 4485SOL    HW113479   4.269   3.915   4.709
 4485SOL    HW213480   4.276   4.016   4.580
 4486SOL     OW13481   4.045   4.667   3.966
 4486SOL    HW113482   4.127   4.706   3.924
 4486SOL    HW213483   4.018   4.585   3.917
 4487SOL     OW13484   4.835   5.500   3.961
 4487SOL    HW113485   4.775   5.438   4.011
 4487SOL    HW213486   4.866   5.456   3.876
 4488SOL     OW13487   4.106   4.424   4.204
 4488SOL    HW113488   4.151   4.334   4.201
 4488SOL    HW213489   4.012   4.413   4.237
 4489SOL     OW13490   4.338   3.846   3.841
 4489SOL    HW113491   4.436   3.824   3.848
 4489SOL    HW213492   4.307   3.829   3.748
 4490SOL     OW13493   4.646   4.227   4.623
 4490SOL    HW113494   4.621   4.218   4.527
 4490SOL    HW213495   4.694   4.145   4.654
 4491SOL     OW13496   4.263   3.788   4.236
 4491SOL    HW113497   4.182   3.789   4.294
 4491SOL    HW213498   4.266   3.871   4.181
 4492SOL     OW13499   5.158   4.912   3.765
 4492SOL    HW113500   5.190   4.836   3.822
 4492SOL    HW213501   5.066   4.939   3.795
 4493SOL     OW13502   4.021   3.759   3.895
 4493SOL    HW113503   4.070   3.843   3.874
 4493SOL    HW213504   4.083   3.694   3.940
 4494SOL     OW13505   4.659   3.960   4.204
 4494SOL    HW113506   4.611   4.001   4.126
 4494SOL    HW213507   4.758   3.958   4.185
 4495SOL     OW13508   4.951   5.294   4.517
 4495SOL    HW113509   4.972   5.368   4.452
 4495SOL    HW213510   5.019   5.294   4.590
 4496SOL     OW13511   4.183   4.876   4.465
 4496SOL    HW113512   4.112   4.849   4.530
 4496SOL    HW213513   4.157   4.848   4.372
 4497SOL     OW13514   4.756   4.273   3.740
 4497SOL    HW113515   4.715   4.355   3.701
 4497SOL    HW213516   4.820   4.299   3.813
 4498SOL     OW13517   4.285   3.946   4.871
 4498SOL    HW113518   4.323   3.862   4.908
 4498SOL    HW213519   4.197   3.965   4.915
 4499SOL     OW13520   4.590   4.178   4.366
 4499SOL    HW113521   4.558   4.250   4.304
 4499SOL    HW213522   4.614   4.097   4.313
 4500SOL     OW13523   4.741   3.763   4.477
 4500SOL    HW113524   4.669   3.768   4.408
 4500SOL    HW213525   4.717   3.694   4.546
 4501SOL     OW13526   5.114   4.299   3.802
 4501SOL    HW113527   5.060   4.278   3.883
 4501SOL    HW213528   5.205   4.258   3.811
 4502SOL     OW13529   4.251   3.980   4.052
 4502SOL    HW113530   4.278   3.921   3.977
 4502SOL    HW213531   4.251   4.075   4.021
 4503SOL     OW13532   4.788   5.071   5.064
 4503SOL    HW113533   4.708   5.048   5.119
 4503SOL    HW213534   4.871   5.045   5.113
 4504SOL     OW13535   4.835   4.919   4.824
 4504SOL    HW113536   4.795   4.963   4.905
 4504SOL    HW213537   4.794   4.956   4.741
 4505SOL     OW13538   4.429   4.774   4.092
 4505SOL    HW113539   4.415   4.781   4.191
 4505SOL    HW213540   4.513   4.723   4.074
 4506SOL     OW13541   4.134   4.537   4.975
 4506SOL    HW113542   4.220   4.549   5.025
 4506SOL    HW213543   4.092   4.450   5.002
 4507SOL     OW13544   4.998   4.110   4.986
 4507SOL    HW113545   5.019   4.184   5.050
 4507SOL    HW213546   4.909   4.127   4.943
 4508SOL     OW13547   4.091   4.824   4.225
 4508SOL    HW113548   4.084   4.907   4.169
 4508SOL    HW213549   4.095   4.744   4.165
 4509SOL     OW13550   4.290   4.261   4.589
 4509SOL    HW113551   4.302   4.327   4.515
 4509SOL    HW213552   4.336   4.295   4.672
 4510SOL     OW13553   4.976   5.072   4.112
 4510SOL    HW113554   5.026   5.149   4.152
 4510SOL    HW213555   4.881   5.074   4.144
 4511SOL     OW13556   4.996   5.169   4.866
 4511SOL    HW113557   5.043   5.182   4.953
 4511SOL    HW213558   4.930   5.095   4.875
 4512SOL     OW13559   4.228   3.774   5.464
 4512SOL    HW113560   4.186   3.717   5.394
 4512SOL    HW213561   4.162   3.843   5.496
 4513SOL     OW13562   4.297   4.594   4.753
 4513SOL    HW113563   4.341   4.683   4.744
 4513SOL    HW213564   4.234   4.594   4.830
 4514SOL     OW13565   5.084   4.586   4.769
 4514SOL    HW113566   5.009   4.586   4.703
 4514SOL    HW213567   5.121   4.494   4.778
 4515SOL     OW13568   4.933   4.249   3.999
 4515SOL    HW113569   4.946   4.165   4.053
 4515SOL    HW213570   4.904   4.323   4.059
 4516SOL     OW13571   4.031   3.937   4.955
 4516SOL    HW113572   4.008   3.974   5.045
 4516SOL    HW213573   4.001   3.842   4.949
 4517SOL     OW13574   3.761   5.034   5.006
 4517SOL    HW113575   3.814   4.985   5.074
 4517SOL    HW213576   3.783   5.132   5.011
 4518SOL     OW13577   4.456   4.358   4.788
 4518SOL    HW113578   4.515   4.332   4.712
 4518SOL    HW213579   4.428   4.454   4.777
 4519SOL     OW13580   4.031   3.787   4.342
 4519SOL    HW113581   4.020   3.881   4.375
 4519SOL    HW213582   4.026   3.724   4.419
 4520SOL     OW13583   5.346   4.091   4.098
 4520SOL    HW113584   5.348   4.015   4.162
 4520SOL    HW213585   5.298   4.168   4.138
 4521SOL     OW13586   4.747   4.490   4.690
 4521SOL    HW113587   4.762   4.511   4.786
 4521SOL    HW213588   4.717   4.395   4.681
 4522SOL     OW13589   5.027   4.562   3.766
 4522SOL    HW113590   5.061   4.469   3.781
 4522SOL    HW213591   5.045   4.589   3.671
 4523SOL     OW13592   4.043   4.534   4.673
 4523SOL    HW113593   4.136   4.570   4.678
 4523SOL    HW213594   4.037   4.449   4.725
 4524SOL     OW13595   4.063   4.233   4.730
 4524SOL    HW113596   4.011   4.150   4.713
 4524SOL    HW213597   4.140   4.238   4.666
 4525SOL     OW13598   4.884   3.931   5.201
 4525SOL    HW113599   4.884   3.995   5.278
 4525SOL    HW213600   4.912   3.979   5.118
 4526SOL     OW13601   3.732   5.050   3.924
 4526SOL    HW113602   3.639   5.071   3.893
 4526SOL    HW213603   3.742   4.951   3.937
 4527SOL     OW13604   4.726   4.520   4.962
 4527SOL    HW113605   4.767   4.488   5.048
 4527SOL    HW213606   4.630   4.493   4.959
 4528SOL     OW13607   3.764   4.268   4.838
 4528SOL    HW113608   3.849   4.235   4.797
 4528SOL    HW213609   3.777   4.283   4.936
 4529SOL     OW13610   4.539   4.296   4.049
 4529SOL    HW113611   4.546   4.207   4.003
 4529SOL    HW213612   4.445   4.330   4.041
 4530SOL     OW13613   4.395   4.188   4.993
 4530SOL    HW113614   4.361   4.099   4.963
 4530SOL    HW213615   4.421   4.242   4.913
 4531SOL     OW13616   4.197   4.224   3.915
 4531SOL    HW113617   4.258   4.304   3.919
 4531SOL    HW213618   4.102   4.255   3.922
 4532SOL     OW13619   3.883   4.861   5.190
 4532SOL    HW113620   3.905   4.800   5.266
 4532SOL    HW213621   3.893   4.812   5.104
 4533SOL     OW13622   5.071   4.783   4.958
 4533SOL    HW113623   5.095   4.720   4.884
 4533SOL    HW213624   4.981   4.823   4.940
 4534SOL     OW13625   5.026   4.579   4.033
 4534SOL    HW113626   4.940   4.548   4.075
 4534SOL    HW213627   5.022   4.565   3.934
 4535SOL     OW13628   3.807   4.982   4.746
 4535SOL    HW113629   3.802   4.981   4.846
 4535SOL    HW213630   3.724   4.941   4.708
 4536SOL     OW13631   5.004   4.651   4.396
 4536SOL    HW113632   5.064   4.570   4.398
 4536SOL    HW213633   5.044   4.720   4.336
 4537SOL     OW13634   4.554   4.997   5.146
 4537SOL    HW113635   4.549   5.030   5.241
 4537SOL    HW213636   4.468   5.016   5.100
 4538SOL     OW13637   3.987   4.050   4.444
 4538SOL    HW113638   3.908   4.101   4.410
 4538SOL    HW213639   3.978   4.035   4.542
 4539SOL     OW13640   4.546   4.726   5.096
 4539SOL    HW113641   4.586   4.725   5.004
 4539SOL    HW213642   4.556   4.818   5.136
 4540SOL     OW13643   4.640   4.634   4.015
 4540SOL    HW113644   4.703   4.672   3.947
 4540SOL    HW213645   4.680   4.551   4.054
 4541SOL     OW13646   5.228   5.331   3.768
 4541SOL    HW113647   5.136   5.368   3.775
 4541SOL    HW213648   5.266   5.351   3.678
 4542SOL     OW13649   4.096   5.012   5.214
 4542SOL    HW113650   4.083   5.105   5.180
 4542SOL    HW213651   4.012   4.960   5.201
 4543SOL     OW13652   4.763   4.822   4.420
 4543SOL    HW113653   4.693   4.775   4.474
 4543SOL    HW213654   4.822   4.754   4.377
 4544SOL     OW13655   4.738   3.960   4.695
 4544SOL    HW113656   4.730   3.924   4.602
 4544SOL    HW213657   4.736   3.884   4.760
 4545SOL     OW13658   4.396   3.927   5.213
 4545SOL    HW113659   4.486   3.911   5.173
 4545SOL    HW213660   4.404   3.932   5.312
 4546SOL     OW13661   3.799   4.069   3.757
 4546SOL    HW113662   3.707   4.041   3.728
 4546SOL    HW213663   3.830   4.146   3.701
 4547SOL     OW13664   3.796   3.890   4.042
 4547SOL    HW113665   3.779   3.973   3.988
 4547SOL    HW213666   3.886   3.853   4.020
 4548SOL     OW13667   4.907   5.059   3.843
 4548SOL    HW113668   4.808   5.048   3.845
 4548SOL    HW213669   4.941   5.074   3.936
 4549SOL     OW13670   4.337   4.566   5.155
 4549SOL    HW113671   4.393   4.647   5.138
 4549SOL    HW213672   4.396   4.486   5.158
 4550SOL     OW13673   4.949   4.049   4.173
 4550SOL    HW113674   5.014   3.975   4.162
 4550SOL    HW213675   4.969   4.099   4.257
 4551SOL     OW13676   4.318   4.469   4.376
 4551SOL    HW113677   4.368   4.554   4.357
 4551SOL    HW213678   4.230   4.471   4.328
 4552SOL     OW13679   4.583   5.098   3.740
 4552SOL    HW113680   4.537   5.113   3.828
 4552SOL    HW213681   4.627   5.183   3.710
 4553SOL     OW13682   4.583   4.680   4.585
 4553SOL    HW113683   4.637   4.611   4.633
 4553SOL    HW213684   4.551   4.749   4.651
 4554SOL     OW13685   4.807   4.708   3.811
 4554SOL    HW113686   4.784   4.761   3.729
 4554SOL    HW213687   4.888   4.652   3.792
 4555SOL     OW13688   3.803   4.964   4.377
 4555SOL    HW113689   3.802   4.917   4.465
 4555SOL    HW213690   3.885   4.936   4.326
 4556SOL     OW13691   4.152   4.148   4.244
 4556SOL    HW113692   4.182   4.076   4.182
 4556SOL    HW213693   4.113   4.108   4.327
 4557SOL     OW13694   4.041   4.271   5.004
 4557SOL    HW113695   4.079   4.212   5.076
 4557SOL    HW213696   4.081   4.245   4.916
 4558SOL     OW13697   5.148   3.938   4.836
 4558SOL    HW113698   5.200   3.873   4.891
 4558SOL    HW213699   5.099   4.001   4.897
 4559SOL     OW13700   4.725   3.758   4.878
 4559SOL    HW113701   4.662   3.686   4.847
 4559SOL    HW213702   4.818   3.722   4.878
 4560SOL     OW13703   4.494   5.054   4.025
 4560SOL    HW113704   4.448   4.967   4.042
 4560SOL    HW213705   4.585   5.051   4.066
 4561SOL     OW13706   5.076   3.776   3.892
 4561SOL    HW113707   5.111   3.735   3.808
 4561SOL    HW213708   4.986   3.738   3.912
 4562SOL     OW13709   3.763   4.801   4.024
 4562SOL    HW113710   3.862   4.790   4.015
 4562SOL    HW213711   3.723   4.715   4.056
   5.18715   5.18715   5.18715
