mobley_6739648_GMX.gro created by acpype (v: 2023.10.27) on Wed May 20 23:50:52 2026
 8795
    1MOL     C1    1   2.230   2.296   2.113
    1MOL     C2    2   2.264   2.149   2.137
    1MOL     C3    3   2.218   2.333   2.345
    1MOL     C4    4   2.251   2.186   2.369
    1MOL     O1    5   2.278   2.375   2.222
    1MOL     O2    6   2.204   2.107   2.260
    1MOL     H1    7   2.279   2.331   2.021
    1MOL     H2    8   2.122   2.311   2.102
    1MOL     H3    9   2.224   2.087   2.057
    1MOL     H4   10   2.372   2.134   2.143
    1MOL     H5   11   2.110   2.348   2.339
    1MOL     H6   12   2.258   2.395   2.425
    1MOL     H7   13   2.360   2.171   2.380
    1MOL     H8   14   2.203   2.151   2.461
    2SOL     OW   15   0.230   0.628   0.113
    2SOL    HW1   16   0.137   0.626   0.150
    2SOL    HW2   17   0.231   0.589   0.021
    3SOL     OW   18   0.225   0.275   0.996
    3SOL    HW1   19   0.260   0.258   1.088
    3SOL    HW2   20   0.137   0.230   0.984
    4SOL     OW   21   0.019   0.368   0.647
    4SOL    HW1   22  -0.063   0.411   0.686
    4SOL    HW2   23  -0.009   0.295   0.584
    5SOL     OW   24   0.569   1.275   1.165
    5SOL    HW1   25   0.476   1.268   1.128
    5SOL    HW2   26   0.580   1.364   1.209
    6SOL     OW   27   1.555   1.511   0.703
    6SOL    HW1   28   1.498   1.495   0.784
    6SOL    HW2   29   1.496   1.521   0.623
    7SOL     OW   30   1.135   0.703   0.717
    7SOL    HW1   31   1.192   0.781   0.692
    7SOL    HW2   32   1.075   0.729   0.793
    8SOL     OW   33   1.755   0.607   0.231
    8SOL    HW1   34   1.743   0.594   0.132
    8SOL    HW2   35   1.725   0.526   0.280
    9SOL     OW   36   0.768   1.144   1.023
    9SOL    HW1   37   0.690   1.161   1.083
    9SOL    HW2   38   0.802   1.231   0.987
   10SOL     OW   39   0.850   0.798   1.823
   10SOL    HW1   40   0.846   0.874   1.888
   10SOL    HW2   41   0.872   0.834   1.732
   11SOL     OW   42   0.685   1.012   0.665
   11SOL    HW1   43   0.754   0.996   0.735
   11SOL    HW2   44   0.612   1.069   0.703
   12SOL     OW   45   0.686   1.161   1.803
   12SOL    HW1   46   0.746   1.240   1.817
   12SOL    HW2   47   0.600   1.192   1.762
   13SOL     OW   48   0.335   1.435   1.061
   13SOL    HW1   49   0.257   1.404   1.008
   13SOL    HW2   50   0.393   1.493   1.004
   14SOL     OW   51   1.460   1.505   1.339
   14SOL    HW1   52   1.484   1.599   1.365
   14SOL    HW2   53   1.444   1.451   1.421
   15SOL     OW   54   0.438   0.392   1.499
   15SOL    HW1   55   0.520   0.336   1.508
   15SOL    HW2   56   0.357   0.334   1.503
   16SOL     OW   57   1.603   0.447   0.737
   16SOL    HW1   58   1.529   0.493   0.687
   16SOL    HW2   59   1.654   0.515   0.790
   17SOL     OW   60   0.231   1.713   0.483
   17SOL    HW1   61   0.265   1.790   0.537
   17SOL    HW2   62   0.275   1.713   0.393
   18SOL     OW   63   1.127   1.341   1.690
   18SOL    HW1   64   1.174   1.341   1.778
   18SOL    HW2   65   1.079   1.254   1.679
   19SOL     OW   66   0.230   1.434   0.538
   19SOL    HW1   67   0.204   1.530   0.538
   19SOL    HW2   68   0.159   1.380   0.583
   20SOL     OW   69   0.240   1.091   0.886
   20SOL    HW1   70   0.254   1.007   0.938
   20SOL    HW2   71   0.185   1.155   0.941
   21SOL     OW   72   0.620   1.786   1.439
   21SOL    HW1   73   0.528   1.769   1.474
   21SOL    HW2   74   0.648   1.878   1.465
   22SOL     OW   75   0.606   0.964   0.123
   22SOL    HW1   76   0.613   1.048   0.069
   22SOL    HW2   77   0.652   0.977   0.211
   23SOL     OW   78   1.594   0.114   1.480
   23SOL    HW1   79   1.576   0.181   1.408
   23SOL    HW2   80   1.591   0.160   1.569
   24SOL     OW   81   0.122   0.643   0.563
   24SOL    HW1   82   0.077   0.555   0.580
   24SOL    HW2   83   0.121   0.697   0.647
   25SOL     OW   84   1.842   1.767   0.359
   25SOL    HW1   85   1.896   1.738   0.439
   25SOL    HW2   86   1.872   1.857   0.330
   26SOL     OW   87   0.027   1.596   0.117
   26SOL    HW1   88   0.008   1.500   0.138
   26SOL    HW2   89  -0.006   1.654   0.192
   27SOL     OW   90   1.689   0.922   0.612
   27SOL    HW1   91   1.784   0.893   0.620
   27SOL    HW2   92   1.681   0.987   0.537
   28SOL     OW   93   1.641   1.108   0.432
   28SOL    HW1   94   1.727   1.110   0.380
   28SOL    HW2   95   1.655   1.155   0.520
   29SOL     OW   96   0.113   0.737   1.597
   29SOL    HW1   97   0.201   0.724   1.642
   29SOL    HW2   98   0.100   0.834   1.575
   30SOL     OW   99   0.613   1.365   0.726
   30SOL    HW1  100   0.564   1.278   0.735
   30SOL    HW2  101   0.590   1.408   0.639
   31SOL     OW  102   1.293   1.228   1.423
   31SOL    HW1  103   1.330   1.155   1.365
   31SOL    HW2  104   1.345   1.233   1.508
   32SOL     OW  105   0.809   0.004   0.502
   32SOL    HW1  106   0.849   0.095   0.493
   32SOL    HW2  107   0.709   0.012   0.508
   33SOL     OW  108   0.197   0.976   1.264
   33SOL    HW1  109   0.286   0.931   1.250
   33SOL    HW2  110   0.124   0.911   1.245
   34SOL     OW  111   1.525   0.999   0.190
   34SOL    HW1  112   1.462   0.923   0.203
   34SOL    HW2  113   1.573   1.017   0.276
   35SOL     OW  114   1.187   1.792   1.616
   35SOL    HW1  115   1.211   1.852   1.540
   35SOL    HW2  116   1.194   1.697   1.586
   36SOL     OW  117   0.317   0.251   1.801
   36SOL    HW1  118   0.388   0.322   1.807
   36SOL    HW2  119   0.229   0.290   1.829
   37SOL     OW  120   1.466   1.417   0.953
   37SOL    HW1  121   1.407   1.423   1.033
   37SOL    HW2  122   1.451   1.329   0.907
   38SOL     OW  123   1.667   1.714   0.572
   38SOL    HW1  124   1.626   1.691   0.484
   38SOL    HW2  125   1.649   1.640   0.637
   39SOL     OW  126   0.598   0.729   0.270
   39SOL    HW1  127   0.622   0.798   0.202
   39SOL    HW2  128   0.520   0.762   0.324
   40SOL     OW  129   1.281   0.345   0.944
   40SOL    HW1  130   1.195   0.295   0.931
   40SOL    HW2  131   1.343   0.291   1.000
   41SOL     OW  132   1.576   1.662   0.307
   41SOL    HW1  133   1.665   1.708   0.310
   41SOL    HW2  134   1.555   1.638   0.212
   42SOL     OW  135   0.807   0.605   1.465
   42SOL    HW1  136   0.760   0.602   1.554
   42SOL    HW2  137   0.756   0.550   1.399
   43SOL     OW  138   1.394   0.469   1.674
   43SOL    HW1  139   1.374   0.512   1.762
   43SOL    HW2  140   1.472   0.407   1.683
   44SOL     OW  141   0.973   0.890   1.572
   44SOL    HW1  142   1.019   0.806   1.543
   44SOL    HW2  143   0.917   0.924   1.497
   45SOL     OW  144   0.991   0.410   1.242
   45SOL    HW1  145   0.914   0.444   1.296
   45SOL    HW2  146   0.957   0.359   1.163
   46SOL     OW  147   1.041   0.701   0.429
   46SOL    HW1  148   1.067   0.697   0.525
   46SOL    HW2  149   0.956   0.650   0.415
   47SOL     OW  150   0.076   0.811   0.789
   47SOL    HW1  151   0.175   0.799   0.798
   47SOL    HW2  152   0.052   0.906   0.810
   48SOL     OW  153   0.130   1.821   1.571
   48SOL    HW1  154   0.120   1.806   1.670
   48SOL    HW2  155   0.044   1.857   1.535
   49SOL     OW  156   0.865   0.348   0.195
   49SOL    HW1  157   0.924   0.411   0.146
   49SOL    HW2  158   0.884   0.254   0.166
   50SOL     OW  159   1.719   0.585   1.831
   50SOL    HW1  160   1.693   0.674   1.795
   50SOL    HW2  161   1.717   0.517   1.758
   51SOL     OW  162   1.362   1.144   0.545
   51SOL    HW1  163   1.445   1.115   0.497
   51SOL    HW2  164   1.313   1.211   0.489
   52SOL     OW  165   0.550   0.196   0.885
   52SOL    HW1  166   0.545   0.191   0.985
   52SOL    HW2  167   0.552   0.292   0.856
   53SOL     OW  168   1.008   1.456   0.477
   53SOL    HW1  169   0.962   1.528   0.425
   53SOL    HW2  170   1.004   1.476   0.575
   54SOL     OW  171   0.351   1.801   0.853
   54SOL    HW1  172   0.401   1.715   0.859
   54SOL    HW2  173   0.416   1.878   0.850
   55SOL     OW  174   1.795   1.066   0.873
   55SOL    HW1  175   1.733   1.051   0.797
   55SOL    HW2  176   1.743   1.077   0.958
   56SOL     OW  177   1.227   1.550   1.506
   56SOL    HW1  178   1.233   1.473   1.570
   56SOL    HW2  179   1.175   1.524   1.426
   57SOL     OW  180   0.321   0.943   0.242
   57SOL    HW1  181   0.403   0.982   0.200
   57SOL    HW2  182   0.294   0.861   0.193
   58SOL     OW  183   1.458   0.735   0.728
   58SOL    HW1  184   1.453   0.670   0.803
   58SOL    HW2  185   1.538   0.794   0.741
   59SOL     OW  186   0.461   1.266   1.727
   59SOL    HW1  187   0.411   1.267   1.641
   59SOL    HW2  188   0.398   1.248   1.803
   60SOL     OW  189   1.111   1.776   0.237
   60SOL    HW1  190   1.051   1.714   0.287
   60SOL    HW2  191   1.142   1.732   0.152
   61SOL     OW  192   0.202   0.285   1.498
   61SOL    HW1  193   0.122   0.345   1.485
   61SOL    HW2  194   0.192   0.236   1.584
   62SOL     OW  195   1.632   1.377   0.081
   62SOL    HW1  196   1.600   1.471   0.071
   62SOL    HW2  197   1.556   1.314   0.069
   63SOL     OW  198   0.464   1.743   0.323
   63SOL    HW1  199   0.497   1.782   0.409
   63SOL    HW2  200   0.540   1.736   0.258
   64SOL     OW  201   1.400   0.107   0.426
   64SOL    HW1  202   1.376   0.070   0.336
   64SOL    HW2  203   1.499   0.123   0.430
   65SOL     OW  204   0.249   1.785   1.241
   65SOL    HW1  205   0.306   1.720   1.291
   65SOL    HW2  206   0.233   1.752   1.148
   66SOL     OW  207   0.940   1.698   0.904
   66SOL    HW1  208   1.020   1.641   0.925
   66SOL    HW2  209   0.891   1.658   0.827
   67SOL     OW  210   0.382   0.700   0.480
   67SOL    HW1  211   0.427   0.610   0.477
   67SOL    HW2  212   0.288   0.689   0.513
   68SOL     OW  213   1.547   0.222   1.729
   68SOL    HW1  214   1.542   0.259   1.821
   68SOL    HW2  215   1.475   0.153   1.717
   69SOL     OW  216   0.614   0.122   0.117
   69SOL    HW1  217   0.712   0.100   0.124
   69SOL    HW2  218   0.583   0.105   0.024
   70SOL     OW  219   0.781   0.264   1.749
   70SOL    HW1  220   0.848   0.203   1.792
   70SOL    HW2  221   0.708   0.283   1.814
   71SOL     OW  222   0.888   1.514   1.195
   71SOL    HW1  223   0.865   1.489   1.101
   71SOL    HW2  224   0.949   1.445   1.234
   72SOL     OW  225   1.351   0.590   1.433
   72SOL    HW1  226   1.379   0.547   1.518
   72SOL    HW2  227   1.376   0.686   1.434
   73SOL     OW  228   0.803   1.402   0.924
   73SOL    HW1  229   0.893   1.416   0.882
   73SOL    HW2  230   0.732   1.404   0.853
   74SOL     OW  231   0.922   0.503   0.899
   74SOL    HW1  232   0.897   0.494   0.803
   74SOL    HW2  233   0.970   0.421   0.930
   75SOL     OW  234   0.539   0.064   0.512
   75SOL    HW1  235   0.458   0.065   0.570
   75SOL    HW2  236   0.542   0.147   0.457
   76SOL     OW  237   1.434   1.188   0.041
   76SOL    HW1  238   1.466   1.112   0.098
   76SOL    HW2  239   1.342   1.215   0.071
   77SOL     OW  240   0.297   0.035   0.171
   77SOL    HW1  241   0.346   0.119   0.150
   77SOL    HW2  242   0.359  -0.030   0.216
   78SOL     OW  243   0.935   0.236   0.480
   78SOL    HW1  244   0.887   0.277   0.402
   78SOL    HW2  245   1.034   0.234   0.461
   79SOL     OW  246   1.076   0.683   1.464
   79SOL    HW1  247   0.996   0.622   1.467
   79SOL    HW2  248   1.157   0.630   1.440
   80SOL     OW  249   1.227   1.570   0.793
   80SOL    HW1  250   1.248   1.644   0.728
   80SOL    HW2  251   1.295   1.570   0.866
   81SOL     OW  252   0.459   1.152   0.741
   81SOL    HW1  253   0.388   1.125   0.806
   81SOL    HW2  254   0.433   1.124   0.648
   82SOL     OW  255   1.271   1.797   0.591
   82SOL    HW1  256   1.315   1.861   0.527
   82SOL    HW2  257   1.221   1.849   0.661
   83SOL     OW  258   1.032   0.549   0.016
   83SOL    HW1  259   0.991   0.631  -0.023
   83SOL    HW2  260   1.096   0.575   0.089
   84SOL     OW  261   0.078   0.556   1.386
   84SOL    HW1  262   0.170   0.555   1.345
   84SOL    HW2  263   0.072   0.630   1.453
   85SOL     OW  264   0.561   0.222   1.147
   85SOL    HW1  265   0.599   0.138   1.184
   85SOL    HW2  266   0.473   0.241   1.191
   86SOL     OW  267   0.866   0.454   0.642
   86SOL    HW1  268   0.834   0.526   0.580
   86SOL    HW2  269   0.890   0.373   0.589
   87SOL     OW  270   1.017   0.039   0.753
   87SOL    HW1  271   0.945   0.044   0.684
   87SOL    HW2  272   0.993  -0.030   0.822
   88SOL     OW  273   1.429   1.173   0.867
   88SOL    HW1  274   1.374   1.089   0.860
   88SOL    HW2  275   1.455   1.202   0.775
   89SOL     OW  276   1.466   0.590   0.992
   89SOL    HW1  277   1.436   0.495   0.999
   89SOL    HW2  278   1.539   0.606   1.058
   90SOL     OW  279   1.857   0.833   0.377
   90SOL    HW1  280   1.899   0.769   0.441
   90SOL    HW2  281   1.819   0.782   0.299
   91SOL     OW  282   0.488   1.385   0.174
   91SOL    HW1  283   0.401   1.370   0.221
   91SOL    HW2  284   0.471   1.411   0.079
   92SOL     OW  285   1.664   1.280   0.657
   92SOL    HW1  286   1.763   1.288   0.671
   92SOL    HW2  287   1.619   1.364   0.688
   93SOL     OW  288   1.390   0.575   0.078
   93SOL    HW1  289   1.336   0.554   0.159
   93SOL    HW2  290   1.481   0.534   0.087
   94SOL     OW  291   0.527   0.256   0.328
   94SOL    HW1  292   0.554   0.197   0.253
   94SOL    HW2  293   0.527   0.351   0.297
   95SOL     OW  294   1.754   1.223   1.588
   95SOL    HW1  295   1.845   1.184   1.575
   95SOL    HW2  296   1.762   1.319   1.612
   96SOL     OW  297   1.064   1.347   1.340
   96SOL    HW1  298   0.984   1.324   1.395
   96SOL    HW2  299   1.147   1.321   1.389
   97SOL     OW  300   1.592   1.629   1.625
   97SOL    HW1  301   1.619   1.663   1.535
   97SOL    HW2  302   1.671   1.591   1.671
   98SOL     OW  303   1.111   1.195   1.100
   98SOL    HW1  304   1.071   1.239   1.181
   98SOL    HW2  305   1.070   1.232   1.017
   99SOL     OW  306   1.638   1.099   1.079
   99SOL    HW1  307   1.643   1.180   1.138
   99SOL    HW2  308   1.552   1.101   1.028
  100SOL     OW  309   0.915   0.089   1.402
  100SOL    HW1  310   0.940   0.069   1.307
  100SOL    HW2  311   0.987   0.145   1.444
  101SOL     OW  312   0.980   1.116   1.719
  101SOL    HW1  313   0.881   1.122   1.729
  101SOL    HW2  314   1.003   1.036   1.663
  102SOL     OW  315   0.705   1.050   0.368
  102SOL    HW1  316   0.691   1.057   0.467
  102SOL    HW2  317   0.789   0.999   0.350
  103SOL     OW  318   0.410   0.813   1.251
  103SOL    HW1  319   0.496   0.825   1.301
  103SOL    HW2  320   0.368   0.726   1.278
  104SOL     OW  321   1.274   0.386   1.262
  104SOL    HW1  322   1.295   0.460   1.326
  104SOL    HW2  323   1.185   0.403   1.219
  105SOL     OW  324   0.064   1.564   1.331
  105SOL    HW1  325   0.018   1.646   1.297
  105SOL    HW2  326   0.162   1.583   1.340
  106SOL     OW  327   0.367   1.100   0.501
  106SOL    HW1  328   0.360   1.183   0.445
  106SOL    HW2  329   0.371   1.020   0.441
  107SOL     OW  330   0.566   0.537   0.865
  107SOL    HW1  331   0.578   0.603   0.791
  107SOL    HW2  332   0.612   0.571   0.948
  108SOL     OW  333   1.252   1.348   0.388
  108SOL    HW1  334   1.302   1.425   0.428
  108SOL    HW2  335   1.157   1.350   0.420
  109SOL     OW  336   1.272   1.445   1.142
  109SOL    HW1  337   1.319   1.458   1.229
  109SOL    HW2  338   1.206   1.371   1.151
  110SOL     OW  339   1.582   0.639   0.472
  110SOL    HW1  340   1.551   0.700   0.545
  110SOL    HW2  341   1.632   0.691   0.403
  111SOL     OW  342   0.354   1.510   1.329
  111SOL    HW1  343   0.333   1.466   1.242
  111SOL    HW2  344   0.451   1.536   1.332
  112SOL     OW  345   0.402   0.751   1.598
  112SOL    HW1  346   0.470   0.806   1.551
  112SOL    HW2  347   0.442   0.663   1.625
  113SOL     OW  348   1.587   0.779   1.670
  113SOL    HW1  349   1.495   0.817   1.665
  113SOL    HW2  350   1.647   0.826   1.605
  114SOL     OW  351   1.013   0.105   1.770
  114SOL    HW1  352   1.019   0.190   1.718
  114SOL    HW2  353   1.045   0.029   1.713
  115SOL     OW  354   0.504   0.050   1.740
  115SOL    HW1  355   0.462  -0.007   1.670
  115SOL    HW2  356   0.438   0.119   1.772
  116SOL     OW  357   0.573   0.870   1.029
  116SOL    HW1  358   0.617   0.959   1.020
  116SOL    HW2  359   0.510   0.870   1.106
  117SOL     OW  360   1.360   0.862   1.045
  117SOL    HW1  361   1.285   0.862   0.979
  117SOL    HW2  362   1.397   0.770   1.054
  118SOL     OW  363   1.209   0.525   0.275
  118SOL    HW1  364   1.222   0.441   0.329
  118SOL    HW2  365   1.180   0.599   0.335
  119SOL     OW  366   0.307   0.213   1.231
  119SOL    HW1  367   0.284   0.250   1.321
  119SOL    HW2  368   0.277   0.118   1.225
  120SOL     OW  369   0.037   1.310   1.282
  120SOL    HW1  370   0.090   1.261   1.350
  120SOL    HW2  371   0.059   1.408   1.287
  121SOL     OW  372   0.732   0.634   1.064
  121SOL    HW1  373   0.791   0.608   0.988
  121SOL    HW2  374   0.704   0.730   1.053
  122SOL     OW  375   1.728   0.935   1.854
  122SOL    HW1  376   1.682   0.928   1.765
  122SOL    HW2  377   1.666   0.979   1.920
  123SOL     OW  378   0.307   0.063   0.618
  123SOL    HW1  379   0.296   0.157   0.651
  123SOL    HW2  380   0.302   0.000   0.695
  124SOL     OW  381   1.622   0.367   0.374
  124SOL    HW1  382   1.624   0.291   0.438
  124SOL    HW2  383   1.574   0.444   0.414
  125SOL     OW  384   1.023   0.766   0.966
  125SOL    HW1  385   1.038   0.787   1.062
  125SOL    HW2  386   0.993   0.671   0.957
  126SOL     OW  387   0.980   1.573   1.700
  126SOL    HW1  388   0.960   1.617   1.612
  126SOL    HW2  389   1.019   1.482   1.684
  127SOL     OW  390   1.859   1.518   1.605
  127SOL    HW1  391   1.873   1.545   1.510
  127SOL    HW2  392   1.942   1.540   1.658
  128SOL     OW  393   0.350   0.898   1.804
  128SOL    HW1  394   0.426   0.942   1.852
  128SOL    HW2  395   0.385   0.851   1.722
  129SOL     OW  396   1.540   0.274   0.125
  129SOL    HW1  397   1.479   0.199   0.148
  129SOL    HW2  398   1.562   0.326   0.208
  130SOL     OW  399   1.303   0.838   0.042
  130SOL    HW1  400   1.337   0.745   0.057
  130SOL    HW2  401   1.321   0.865  -0.053
  131SOL     OW  402   1.068   1.333   0.849
  131SOL    HW1  403   1.075   1.249   0.794
  131SOL    HW2  404   1.130   1.402   0.813
  132SOL     OW  405   0.319   0.810   0.949
  132SOL    HW1  406   0.412   0.846   0.954
  132SOL    HW2  407   0.313   0.725   1.001
  133SOL     OW  408   0.339   0.509   1.006
  133SOL    HW1  409   0.287   0.426   0.989
  133SOL    HW2  410   0.416   0.514   0.942
  134SOL     OW  411   1.138   0.380   1.678
  134SOL    HW1  412   1.093   0.443   1.742
  134SOL    HW2  413   1.231   0.411   1.661
  135SOL     OW  414   1.160   0.207   1.477
  135SOL    HW1  415   1.160   0.271   1.554
  135SOL    HW2  416   1.188   0.255   1.394
  136SOL     OW  417   0.008   1.326   0.200
  136SOL    HW1  418  -0.085   1.347   0.169
  136SOL    HW2  419   0.018   1.227   0.213
  137SOL     OW  420   0.088   1.801   0.927
  137SOL    HW1  421   0.046   1.715   0.900
  137SOL    HW2  422   0.182   1.804   0.893
  138SOL     OW  423   0.504   1.568   0.910
  138SOL    HW1  424   0.570   1.642   0.919
  138SOL    HW2  425   0.548   1.489   0.868
  139SOL     OW  426   1.002   0.796   1.238
  139SOL    HW1  427   1.043   0.764   1.324
  139SOL    HW2  428   0.906   0.769   1.235
  140SOL     OW  429   0.040   0.544   1.114
  140SOL    HW1  430   0.125   0.511   1.073
  140SOL    HW2  431   0.053   0.559   1.212
  141SOL     OW  432   0.189   0.520   1.722
  141SOL    HW1  433   0.248   0.480   1.652
  141SOL    HW2  434   0.131   0.591   1.681
  142SOL     OW  435   1.369   0.950   1.660
  142SOL    HW1  436   1.408   1.039   1.680
  142SOL    HW2  437   1.379   0.930   1.563
  143SOL     OW  438   0.815   0.572   0.325
  143SOL    HW1  439   0.822   0.483   0.279
  143SOL    HW2  440   0.721   0.606   0.317
  144SOL     OW  441   1.657   0.604   1.206
  144SOL    HW1  442   1.619   0.535   1.268
  144SOL    HW2  443   1.739   0.568   1.162
  145SOL     OW  444   0.252   1.564   1.744
  145SOL    HW1  445   0.222   1.621   1.820
  145SOL    HW2  446   0.245   1.467   1.770
  146SOL     OW  447   0.671   0.464   1.269
  146SOL    HW1  448   0.637   0.375   1.239
  146SOL    HW2  449   0.697   0.518   1.189
  147SOL     OW  450   0.930   1.678   1.465
  147SOL    HW1  451   0.906   1.660   1.370
  147SOL    HW2  452   0.960   1.772   1.475
  148SOL     OW  453   0.473   0.500   0.191
  148SOL    HW1  454   0.534   0.580   0.195
  148SOL    HW2  455   0.378   0.531   0.198
  149SOL     OW  456   0.159   1.137   1.466
  149SOL    HW1  457   0.181   1.076   1.542
  149SOL    HW2  458   0.169   1.088   1.380
  150SOL     OW  459   1.347   1.059   1.234
  150SOL    HW1  460   1.371   0.996   1.160
  150SOL    HW2  461   1.257   1.099   1.216
  151SOL     OW  462   1.302   0.855   0.309
  151SOL    HW1  463   1.216   0.824   0.351
  151SOL    HW2  464   1.298   0.841   0.210
  152SOL     OW  465   1.759   1.747   1.154
  152SOL    HW1  466   1.820   1.777   1.081
  152SOL    HW2  467   1.721   1.658   1.132
  153SOL     OW  468   1.252   1.731   1.128
  153SOL    HW1  469   1.336   1.736   1.074
  153SOL    HW2  470   1.229   1.635   1.146
  154SOL     OW  471   0.083   1.258   1.022
  154SOL    HW1  472   0.078   1.257   1.122
  154SOL    HW2  473   0.000   1.217   0.984
  155SOL     OW  474   0.688   1.662   1.716
  155SOL    HW1  475   0.632   1.743   1.725
  155SOL    HW2  476   0.740   1.666   1.630
  156SOL     OW  477   0.903   0.086   0.133
  156SOL    HW1  478   0.954   0.087   0.047
  156SOL    HW2  479   0.959   0.044   0.204
  157SOL     OW  480   1.726   0.135   0.523
  157SOL    HW1  481   1.799   0.118   0.456
  157SOL    HW2  482   1.695   0.048   0.561
  158SOL     OW  483   1.388   1.573   0.477
  158SOL    HW1  484   1.455   1.585   0.403
  158SOL    HW2  485   1.348   1.662   0.500
  159SOL     OW  486   0.130   1.794   1.851
  159SOL    HW1  487   0.089   1.720   1.904
  159SOL    HW2  488   0.194   1.845   1.909
  160SOL     OW  489   1.280   0.927   0.672
  160SOL    HW1  490   1.340   0.846   0.674
  160SOL    HW2  491   1.320   0.996   0.612
  161SOL     OW  492   0.830   1.273   1.422
  161SOL    HW1  493   0.825   1.306   1.517
  161SOL    HW2  494   0.744   1.292   1.376
  162SOL     OW  495   0.672   1.616   0.154
  162SOL    HW1  496   0.681   1.626   0.055
  162SOL    HW2  497   0.632   1.527   0.175
  163SOL     OW  498   1.650   1.720   1.394
  163SOL    HW1  499   1.703   1.730   1.310
  163SOL    HW2  500   1.623   1.810   1.428
  164SOL     OW  501   1.841   0.175   0.963
  164SOL    HW1  502   1.880   0.090   0.927
  164SOL    HW2  503   1.743   0.177   0.944
  165SOL     OW  504   0.263   0.326   0.720
  165SOL    HW1  505   0.184   0.377   0.686
  165SOL    HW2  506   0.254   0.311   0.818
  166SOL     OW  507   1.194   1.612   0.031
  166SOL    HW1  508   1.200   1.519   0.068
  166SOL    HW2  509   1.135   1.612  -0.049
  167SOL     OW  510   0.822   1.002   1.372
  167SOL    HW1  511   0.862   1.001   1.280
  167SOL    HW2  512   0.832   1.094   1.412
  168SOL     OW  513   0.916   0.910   0.291
  168SOL    HW1  514   0.979   0.948   0.223
  168SOL    HW2  515   0.956   0.827   0.330
  169SOL     OW  516   1.504   1.607   0.044
  169SOL    HW1  517   1.412   1.644   0.051
  169SOL    HW2  518   1.542   1.627  -0.046
  170SOL     OW  519   0.372   1.288   1.490
  170SOL    HW1  520   0.359   1.381   1.456
  170SOL    HW2  521   0.288   1.236   1.477
  171SOL     OW  522   1.614   1.292   1.289
  171SOL    HW1  523   1.674   1.295   1.369
  171SOL    HW2  524   1.539   1.356   1.302
  172SOL     OW  525   1.039   1.098   0.696
  172SOL    HW1  526   0.969   1.051   0.750
  172SOL    HW2  527   1.098   1.030   0.653
  173SOL     OW  528   1.014   0.236   0.971
  173SOL    HW1  529   1.006   0.200   0.878
  173SOL    HW2  530   1.012   0.160   1.036
  174SOL     OW  531   0.590   1.487   0.491
  174SOL    HW1  532   0.632   1.429   0.421
  174SOL    HW2  533   0.546   1.566   0.447
  175SOL     OW  534   1.709   0.385   1.381
  175SOL    HW1  535   1.782   0.454   1.385
  175SOL    HW2  536   1.737   0.310   1.322
  176SOL     OW  537   0.255   1.348   0.290
  176SOL    HW1  538   0.159   1.349   0.263
  176SOL    HW2  539   0.267   1.401   0.374
  177SOL     OW  540   0.105   1.013   1.726
  177SOL    HW1  541   0.028   0.980   1.780
  177SOL    HW2  542   0.190   0.983   1.768
  178SOL     OW  543   0.672   0.203   1.489
  178SOL    HW1  544   0.762   0.187   1.449
  178SOL    HW2  545   0.680   0.208   1.588
  179SOL     OW  546   0.075   0.345   0.033
  179SOL    HW1  547  -0.017   0.317   0.004
  179SOL    HW2  548   0.106   0.422  -0.023
  180SOL     OW  549   1.440   0.856   1.398
  180SOL    HW1  550   1.383   0.908   1.335
  180SOL    HW2  551   1.536   0.868   1.374
  181SOL     OW  552   0.072   0.166   0.318
  181SOL    HW1  553   0.055   0.249   0.264
  181SOL    HW2  554   0.162   0.129   0.296
  182SOL     OW  555   1.183   1.335   0.119
  182SOL    HW1  556   1.084   1.324   0.121
  182SOL    HW2  557   1.217   1.350   0.212
  183SOL     OW  558   0.613   0.842   1.431
  183SOL    HW1  559   0.669   0.923   1.414
  183SOL    HW2  560   0.672   0.762   1.434
  184SOL     OW  561   1.493   1.767   0.959
  184SOL    HW1  562   1.526   1.831   0.890
  184SOL    HW2  563   1.559   1.761   1.034
  185SOL     OW  564   0.716   0.565   1.708
  185SOL    HW1  565   0.735   0.630   1.782
  185SOL    HW2  566   0.776   0.485   1.717
  186SOL     OW  567   1.450   1.220   1.633
  186SOL    HW1  568   1.441   1.210   1.732
  186SOL    HW2  569   1.546   1.213   1.607
  187SOL     OW  570   0.390   1.741   1.560
  187SOL    HW1  571   0.299   1.782   1.558
  187SOL    HW2  572   0.383   1.647   1.592
  188SOL     OW  573   1.674   0.883   1.254
  188SOL    HW1  574   1.647   0.794   1.217
  188SOL    HW2  575   1.675   0.951   1.181
  189SOL     OW  576   1.225   0.325   0.449
  189SOL    HW1  577   1.290   0.251   0.438
  189SOL    HW2  578   1.245   0.375   0.533
  190SOL     OW  579   0.594   0.745   0.652
  190SOL    HW1  580   0.644   0.830   0.633
  190SOL    HW2  581   0.506   0.747   0.604
  191SOL     OW  582   1.777   0.342   1.642
  191SOL    HW1  583   1.760   0.373   1.548
  191SOL    HW2  584   1.693   0.305   1.680
  192SOL     OW  585   1.730   0.934   1.517
  192SOL    HW1  586   1.768   1.025   1.532
  192SOL    HW2  587   1.722   0.917   1.418
  193SOL     OW  588   0.859   1.374   0.016
  193SOL    HW1  589   0.813   1.389   0.104
  193SOL    HW2  590   0.903   1.459  -0.014
  194SOL     OW  591   0.661   1.790   0.953
  194SOL    HW1  592   0.615   1.878   0.940
  194SOL    HW2  593   0.760   1.802   0.946
  195SOL     OW  594   0.859   0.956   0.861
  195SOL    HW1  595   0.913   0.887   0.909
  195SOL    HW2  596   0.827   1.025   0.927
  196SOL     OW  597   1.083   0.984   0.087
  196SOL    HW1  598   1.060   1.037   0.005
  196SOL    HW2  599   1.164   0.928   0.068
  197SOL     OW  600   1.861   1.569   0.851
  197SOL    HW1  601   1.790   1.557   0.781
  197SOL    HW2  602   1.862   1.490   0.911
  198SOL     OW  603   0.221   1.314   1.844
  198SOL    HW1  604   0.156   1.241   1.823
  198SOL    HW2  605   0.225   1.328   1.942
  199SOL     OW  606   0.079   1.240   0.653
  199SOL    HW1  607   0.078   1.193   0.741
  199SOL    HW2  608   0.161   1.212   0.602
  200SOL     OW  609   0.672   1.391   1.624
  200SOL    HW1  610   0.594   1.341   1.662
  200SOL    HW2  611   0.669   1.486   1.655
  201SOL     OW  612   1.824   0.192   1.227
  201SOL    HW1  613   1.820   0.102   1.271
  201SOL    HW2  614   1.827   0.181   1.128
  202SOL     OW  615   0.428   0.424   0.520
  202SOL    HW1  616   0.458   0.352   0.458
  202SOL    HW2  617   0.389   0.384   0.603
  203SOL     OW  618   1.705   1.487   1.104
  203SOL    HW1  619   1.612   1.462   1.077
  203SOL    HW2  620   1.731   1.437   1.186
  204SOL     OW  621   0.317   0.547   1.280
  204SOL    HW1  622   0.355   0.488   1.352
  204SOL    HW2  623   0.357   0.521   1.192
  205SOL     OW  624   0.812   1.586   0.687
  205SOL    HW1  625   0.844   1.596   0.593
  205SOL    HW2  626   0.733   1.524   0.689
  206SOL     OW  627   1.424   0.214   1.112
  206SOL    HW1  628   1.476   0.149   1.167
  206SOL    HW2  629   1.375   0.277   1.173
  207SOL     OW  630   1.001   0.034   1.154
  207SOL    HW1  631   0.938  -0.038   1.123
  207SOL    HW2  632   1.094  -0.002   1.154
  208SOL     OW  633   0.770   1.330   0.301
  208SOL    HW1  634   0.724   1.243   0.318
  208SOL    HW2  635   0.861   1.327   0.342
  209SOL     OW  636   0.618   1.567   1.284
  209SOL    HW1  637   0.613   1.649   1.341
  209SOL    HW2  638   0.707   1.564   1.239
  210SOL     OW  639   1.352   0.052   0.168
  210SOL    HW1  640   1.387   0.011   0.084
  210SOL    HW2  641   1.262   0.014   0.188
  211SOL     OW  642   1.300   0.453   0.691
  211SOL    HW1  643   1.241   0.533   0.695
  211SOL    HW2  644   1.315   0.418   0.784
  212SOL     OW  645   1.593   0.221   0.882
  212SOL    HW1  646   1.509   0.220   0.936
  212SOL    HW2  647   1.595   0.304   0.826
  213SOL     OW  648   0.039   1.077   0.300
  213SOL    HW1  649   0.138   1.066   0.291
  213SOL    HW2  650  -0.001   0.991   0.332
  214SOL     OW  651   0.875   1.646   0.337
  214SOL    HW1  652   0.798   1.611   0.283
  214SOL    HW2  653   0.843   1.717   0.399
  215SOL     OW  654   0.230   0.628   1.975
  215SOL    HW1  655   0.137   0.626   2.012
  215SOL    HW2  656   0.231   0.589   1.883
  216SOL     OW  657   0.225   0.275   2.858
  216SOL    HW1  658   0.260   0.258   2.950
  216SOL    HW2  659   0.137   0.230   2.846
  217SOL     OW  660   0.019   0.368   2.509
  217SOL    HW1  661  -0.063   0.411   2.548
  217SOL    HW2  662  -0.009   0.295   2.446
  218SOL     OW  663   0.569   1.275   3.027
  218SOL    HW1  664   0.476   1.268   2.990
  218SOL    HW2  665   0.580   1.364   3.071
  219SOL     OW  666   1.555   1.511   2.565
  219SOL    HW1  667   1.498   1.495   2.646
  219SOL    HW2  668   1.496   1.521   2.485
  220SOL     OW  669   1.135   0.703   2.579
  220SOL    HW1  670   1.192   0.781   2.554
  220SOL    HW2  671   1.075   0.729   2.655
  221SOL     OW  672   1.755   0.607   2.093
  221SOL    HW1  673   1.743   0.594   1.994
  221SOL    HW2  674   1.725   0.526   2.142
  222SOL     OW  675   0.768   1.144   2.885
  222SOL    HW1  676   0.690   1.161   2.945
  222SOL    HW2  677   0.802   1.231   2.849
  223SOL     OW  678   0.850   0.798   3.685
  223SOL    HW1  679   0.846   0.874   3.750
  223SOL    HW2  680   0.872   0.834   3.594
  224SOL     OW  681   0.685   1.012   2.527
  224SOL    HW1  682   0.754   0.996   2.597
  224SOL    HW2  683   0.612   1.069   2.565
  225SOL     OW  684   0.686   1.161   3.665
  225SOL    HW1  685   0.746   1.240   3.679
  225SOL    HW2  686   0.600   1.192   3.624
  226SOL     OW  687   0.335   1.435   2.923
  226SOL    HW1  688   0.257   1.404   2.870
  226SOL    HW2  689   0.393   1.493   2.866
  227SOL     OW  690   1.460   1.505   3.201
  227SOL    HW1  691   1.484   1.599   3.227
  227SOL    HW2  692   1.444   1.451   3.283
  228SOL     OW  693   0.438   0.392   3.361
  228SOL    HW1  694   0.520   0.336   3.370
  228SOL    HW2  695   0.357   0.334   3.365
  229SOL     OW  696   1.603   0.447   2.599
  229SOL    HW1  697   1.529   0.493   2.549
  229SOL    HW2  698   1.654   0.515   2.652
  230SOL     OW  699   0.231   1.713   2.345
  230SOL    HW1  700   0.265   1.790   2.399
  230SOL    HW2  701   0.275   1.713   2.255
  231SOL     OW  702   1.127   1.341   3.552
  231SOL    HW1  703   1.174   1.341   3.640
  231SOL    HW2  704   1.079   1.254   3.541
  232SOL     OW  705   0.230   1.434   2.400
  232SOL    HW1  706   0.204   1.530   2.400
  232SOL    HW2  707   0.159   1.380   2.445
  233SOL     OW  708   0.240   1.091   2.748
  233SOL    HW1  709   0.254   1.007   2.800
  233SOL    HW2  710   0.185   1.155   2.803
  234SOL     OW  711   0.620   1.786   3.301
  234SOL    HW1  712   0.528   1.769   3.336
  234SOL    HW2  713   0.648   1.878   3.327
  235SOL     OW  714   0.606   0.964   1.985
  235SOL    HW1  715   0.613   1.048   1.931
  235SOL    HW2  716   0.652   0.977   2.073
  236SOL     OW  717   1.594   0.114   3.342
  236SOL    HW1  718   1.576   0.181   3.270
  236SOL    HW2  719   1.591   0.160   3.431
  237SOL     OW  720   0.122   0.643   2.425
  237SOL    HW1  721   0.077   0.555   2.442
  237SOL    HW2  722   0.121   0.697   2.509
  238SOL     OW  723   1.842   1.767   2.221
  238SOL    HW1  724   1.896   1.738   2.301
  238SOL    HW2  725   1.872   1.857   2.192
  239SOL     OW  726   0.027   1.596   1.979
  239SOL    HW1  727   0.008   1.500   2.000
  239SOL    HW2  728  -0.006   1.654   2.054
  240SOL     OW  729   1.689   0.922   2.474
  240SOL    HW1  730   1.784   0.893   2.482
  240SOL    HW2  731   1.681   0.987   2.399
  241SOL     OW  732   1.641   1.108   2.294
  241SOL    HW1  733   1.727   1.110   2.242
  241SOL    HW2  734   1.655   1.155   2.382
  242SOL     OW  735   0.113   0.737   3.459
  242SOL    HW1  736   0.201   0.724   3.504
  242SOL    HW2  737   0.100   0.834   3.437
  243SOL     OW  738   0.613   1.365   2.588
  243SOL    HW1  739   0.564   1.278   2.597
  243SOL    HW2  740   0.590   1.408   2.501
  244SOL     OW  741   1.293   1.228   3.285
  244SOL    HW1  742   1.330   1.155   3.227
  244SOL    HW2  743   1.345   1.233   3.370
  245SOL     OW  744   0.809   0.004   2.364
  245SOL    HW1  745   0.849   0.095   2.355
  245SOL    HW2  746   0.709   0.012   2.370
  246SOL     OW  747   0.197   0.976   3.126
  246SOL    HW1  748   0.286   0.931   3.112
  246SOL    HW2  749   0.124   0.911   3.107
  247SOL     OW  750   1.525   0.999   2.052
  247SOL    HW1  751   1.462   0.923   2.065
  247SOL    HW2  752   1.573   1.017   2.138
  248SOL     OW  753   1.187   1.792   3.478
  248SOL    HW1  754   1.211   1.852   3.402
  248SOL    HW2  755   1.194   1.697   3.448
  249SOL     OW  756   0.317   0.251   3.663
  249SOL    HW1  757   0.388   0.322   3.669
  249SOL    HW2  758   0.229   0.290   3.691
  250SOL     OW  759   1.466   1.417   2.815
  250SOL    HW1  760   1.407   1.423   2.895
  250SOL    HW2  761   1.451   1.329   2.769
  251SOL     OW  762   1.667   1.714   2.434
  251SOL    HW1  763   1.626   1.691   2.346
  251SOL    HW2  764   1.649   1.640   2.499
  252SOL     OW  765   0.598   0.729   2.132
  252SOL    HW1  766   0.622   0.798   2.064
  252SOL    HW2  767   0.520   0.762   2.186
  253SOL     OW  768   1.281   0.345   2.806
  253SOL    HW1  769   1.195   0.295   2.793
  253SOL    HW2  770   1.343   0.291   2.862
  254SOL     OW  771   1.576   1.662   2.169
  254SOL    HW1  772   1.665   1.708   2.172
  254SOL    HW2  773   1.555   1.638   2.074
  255SOL     OW  774   0.807   0.605   3.327
  255SOL    HW1  775   0.760   0.602   3.416
  255SOL    HW2  776   0.756   0.550   3.261
  256SOL     OW  777   1.394   0.469   3.536
  256SOL    HW1  778   1.374   0.512   3.624
  256SOL    HW2  779   1.472   0.407   3.545
  257SOL     OW  780   0.973   0.890   3.434
  257SOL    HW1  781   1.019   0.806   3.405
  257SOL    HW2  782   0.917   0.924   3.359
  258SOL     OW  783   0.991   0.410   3.104
  258SOL    HW1  784   0.914   0.444   3.158
  258SOL    HW2  785   0.957   0.359   3.025
  259SOL     OW  786   1.041   0.701   2.291
  259SOL    HW1  787   1.067   0.697   2.387
  259SOL    HW2  788   0.956   0.650   2.277
  260SOL     OW  789   0.076   0.811   2.651
  260SOL    HW1  790   0.175   0.799   2.660
  260SOL    HW2  791   0.052   0.906   2.672
  261SOL     OW  792   0.130   1.821   3.433
  261SOL    HW1  793   0.120   1.806   3.532
  261SOL    HW2  794   0.044   1.857   3.397
  262SOL     OW  795   0.865   0.348   2.057
  262SOL    HW1  796   0.924   0.411   2.008
  262SOL    HW2  797   0.884   0.254   2.028
  263SOL     OW  798   1.719   0.585   3.693
  263SOL    HW1  799   1.693   0.674   3.657
  263SOL    HW2  800   1.717   0.517   3.620
  264SOL     OW  801   1.362   1.144   2.407
  264SOL    HW1  802   1.445   1.115   2.359
  264SOL    HW2  803   1.313   1.211   2.351
  265SOL     OW  804   0.550   0.196   2.747
  265SOL    HW1  805   0.545   0.191   2.847
  265SOL    HW2  806   0.552   0.292   2.718
  266SOL     OW  807   1.008   1.456   2.339
  266SOL    HW1  808   0.962   1.528   2.287
  266SOL    HW2  809   1.004   1.476   2.437
  267SOL     OW  810   0.351   1.801   2.715
  267SOL    HW1  811   0.401   1.715   2.721
  267SOL    HW2  812   0.416   1.878   2.712
  268SOL     OW  813   1.795   1.066   2.735
  268SOL    HW1  814   1.733   1.051   2.659
  268SOL    HW2  815   1.743   1.077   2.820
  269SOL     OW  816   1.227   1.550   3.368
  269SOL    HW1  817   1.233   1.473   3.432
  269SOL    HW2  818   1.175   1.524   3.288
  270SOL     OW  819   0.321   0.943   2.104
  270SOL    HW1  820   0.403   0.982   2.062
  270SOL    HW2  821   0.294   0.861   2.055
  271SOL     OW  822   1.458   0.735   2.590
  271SOL    HW1  823   1.453   0.670   2.665
  271SOL    HW2  824   1.538   0.794   2.603
  272SOL     OW  825   0.461   1.266   3.589
  272SOL    HW1  826   0.411   1.267   3.503
  272SOL    HW2  827   0.398   1.248   3.665
  273SOL     OW  828   1.111   1.776   2.099
  273SOL    HW1  829   1.051   1.714   2.149
  273SOL    HW2  830   1.142   1.732   2.014
  274SOL     OW  831   0.202   0.285   3.360
  274SOL    HW1  832   0.122   0.345   3.347
  274SOL    HW2  833   0.192   0.236   3.446
  275SOL     OW  834   1.632   1.377   1.943
  275SOL    HW1  835   1.600   1.471   1.933
  275SOL    HW2  836   1.556   1.314   1.931
  276SOL     OW  837   0.464   1.743   2.185
  276SOL    HW1  838   0.497   1.782   2.271
  276SOL    HW2  839   0.540   1.736   2.120
  277SOL     OW  840   1.400   0.107   2.288
  277SOL    HW1  841   1.376   0.070   2.198
  277SOL    HW2  842   1.499   0.123   2.292
  278SOL     OW  843   0.249   1.785   3.103
  278SOL    HW1  844   0.306   1.720   3.153
  278SOL    HW2  845   0.233   1.752   3.010
  279SOL     OW  846   0.940   1.698   2.766
  279SOL    HW1  847   1.020   1.641   2.787
  279SOL    HW2  848   0.891   1.658   2.689
  280SOL     OW  849   0.382   0.700   2.342
  280SOL    HW1  850   0.427   0.610   2.339
  280SOL    HW2  851   0.288   0.689   2.375
  281SOL     OW  852   1.547   0.222   3.591
  281SOL    HW1  853   1.542   0.259   3.683
  281SOL    HW2  854   1.475   0.153   3.579
  282SOL     OW  855   0.614   0.122   1.979
  282SOL    HW1  856   0.712   0.100   1.986
  282SOL    HW2  857   0.583   0.105   1.886
  283SOL     OW  858   0.781   0.264   3.611
  283SOL    HW1  859   0.848   0.203   3.654
  283SOL    HW2  860   0.708   0.283   3.676
  284SOL     OW  861   0.888   1.514   3.057
  284SOL    HW1  862   0.865   1.489   2.963
  284SOL    HW2  863   0.949   1.445   3.096
  285SOL     OW  864   1.351   0.590   3.295
  285SOL    HW1  865   1.379   0.547   3.380
  285SOL    HW2  866   1.376   0.686   3.296
  286SOL     OW  867   0.803   1.402   2.786
  286SOL    HW1  868   0.893   1.416   2.744
  286SOL    HW2  869   0.732   1.404   2.715
  287SOL     OW  870   0.922   0.503   2.761
  287SOL    HW1  871   0.897   0.494   2.665
  287SOL    HW2  872   0.970   0.421   2.792
  288SOL     OW  873   0.539   0.064   2.374
  288SOL    HW1  874   0.458   0.065   2.432
  288SOL    HW2  875   0.542   0.147   2.319
  289SOL     OW  876   1.434   1.188   1.903
  289SOL    HW1  877   1.466   1.112   1.960
  289SOL    HW2  878   1.342   1.215   1.933
  290SOL     OW  879   0.297   0.035   2.033
  290SOL    HW1  880   0.346   0.119   2.012
  290SOL    HW2  881   0.359  -0.030   2.078
  291SOL     OW  882   0.935   0.236   2.342
  291SOL    HW1  883   0.887   0.277   2.264
  291SOL    HW2  884   1.034   0.234   2.323
  292SOL     OW  885   1.076   0.683   3.326
  292SOL    HW1  886   0.996   0.622   3.329
  292SOL    HW2  887   1.157   0.630   3.302
  293SOL     OW  888   1.227   1.570   2.655
  293SOL    HW1  889   1.248   1.644   2.590
  293SOL    HW2  890   1.295   1.570   2.728
  294SOL     OW  891   0.459   1.152   2.603
  294SOL    HW1  892   0.388   1.125   2.668
  294SOL    HW2  893   0.433   1.124   2.510
  295SOL     OW  894   1.271   1.797   2.453
  295SOL    HW1  895   1.315   1.861   2.389
  295SOL    HW2  896   1.221   1.849   2.523
  296SOL     OW  897   1.032   0.549   1.878
  296SOL    HW1  898   0.991   0.631   1.839
  296SOL    HW2  899   1.096   0.575   1.951
  297SOL     OW  900   0.078   0.556   3.248
  297SOL    HW1  901   0.170   0.555   3.207
  297SOL    HW2  902   0.072   0.630   3.315
  298SOL     OW  903   0.561   0.222   3.009
  298SOL    HW1  904   0.599   0.138   3.046
  298SOL    HW2  905   0.473   0.241   3.053
  299SOL     OW  906   0.866   0.454   2.504
  299SOL    HW1  907   0.834   0.526   2.442
  299SOL    HW2  908   0.890   0.373   2.451
  300SOL     OW  909   1.017   0.039   2.615
  300SOL    HW1  910   0.945   0.044   2.546
  300SOL    HW2  911   0.993  -0.030   2.684
  301SOL     OW  912   1.429   1.173   2.729
  301SOL    HW1  913   1.374   1.089   2.722
  301SOL    HW2  914   1.455   1.202   2.637
  302SOL     OW  915   1.466   0.590   2.854
  302SOL    HW1  916   1.436   0.495   2.861
  302SOL    HW2  917   1.539   0.606   2.920
  303SOL     OW  918   1.857   0.833   2.239
  303SOL    HW1  919   1.899   0.769   2.303
  303SOL    HW2  920   1.819   0.782   2.161
  304SOL     OW  921   0.488   1.385   2.036
  304SOL    HW1  922   0.401   1.370   2.083
  304SOL    HW2  923   0.471   1.411   1.941
  305SOL     OW  924   1.664   1.280   2.519
  305SOL    HW1  925   1.763   1.288   2.533
  305SOL    HW2  926   1.619   1.364   2.550
  306SOL     OW  927   1.390   0.575   1.940
  306SOL    HW1  928   1.336   0.554   2.021
  306SOL    HW2  929   1.481   0.534   1.949
  307SOL     OW  930   0.527   0.256   2.190
  307SOL    HW1  931   0.554   0.197   2.115
  307SOL    HW2  932   0.527   0.351   2.159
  308SOL     OW  933   1.754   1.223   3.450
  308SOL    HW1  934   1.845   1.184   3.437
  308SOL    HW2  935   1.762   1.319   3.474
  309SOL     OW  936   1.064   1.347   3.202
  309SOL    HW1  937   0.984   1.324   3.257
  309SOL    HW2  938   1.147   1.321   3.251
  310SOL     OW  939   1.592   1.629   3.487
  310SOL    HW1  940   1.619   1.663   3.397
  310SOL    HW2  941   1.671   1.591   3.533
  311SOL     OW  942   1.111   1.195   2.962
  311SOL    HW1  943   1.071   1.239   3.043
  311SOL    HW2  944   1.070   1.232   2.879
  312SOL     OW  945   1.638   1.099   2.941
  312SOL    HW1  946   1.643   1.180   3.000
  312SOL    HW2  947   1.552   1.101   2.890
  313SOL     OW  948   0.915   0.089   3.264
  313SOL    HW1  949   0.940   0.069   3.169
  313SOL    HW2  950   0.987   0.145   3.306
  314SOL     OW  951   0.980   1.116   3.581
  314SOL    HW1  952   0.881   1.122   3.591
  314SOL    HW2  953   1.003   1.036   3.525
  315SOL     OW  954   0.705   1.050   2.230
  315SOL    HW1  955   0.691   1.057   2.329
  315SOL    HW2  956   0.789   0.999   2.212
  316SOL     OW  957   0.410   0.813   3.113
  316SOL    HW1  958   0.496   0.825   3.163
  316SOL    HW2  959   0.368   0.726   3.140
  317SOL     OW  960   1.274   0.386   3.124
  317SOL    HW1  961   1.295   0.460   3.188
  317SOL    HW2  962   1.185   0.403   3.081
  318SOL     OW  963   0.064   1.564   3.193
  318SOL    HW1  964   0.018   1.646   3.159
  318SOL    HW2  965   0.162   1.583   3.202
  319SOL     OW  966   0.367   1.100   2.363
  319SOL    HW1  967   0.360   1.183   2.307
  319SOL    HW2  968   0.371   1.020   2.303
  320SOL     OW  969   0.566   0.537   2.727
  320SOL    HW1  970   0.578   0.603   2.653
  320SOL    HW2  971   0.612   0.571   2.810
  321SOL     OW  972   1.252   1.348   2.250
  321SOL    HW1  973   1.302   1.425   2.290
  321SOL    HW2  974   1.157   1.350   2.282
  322SOL     OW  975   1.272   1.445   3.004
  322SOL    HW1  976   1.319   1.458   3.091
  322SOL    HW2  977   1.206   1.371   3.013
  323SOL     OW  978   1.582   0.639   2.334
  323SOL    HW1  979   1.551   0.700   2.407
  323SOL    HW2  980   1.632   0.691   2.265
  324SOL     OW  981   0.354   1.510   3.191
  324SOL    HW1  982   0.333   1.466   3.104
  324SOL    HW2  983   0.451   1.536   3.194
  325SOL     OW  984   0.402   0.751   3.460
  325SOL    HW1  985   0.470   0.806   3.413
  325SOL    HW2  986   0.442   0.663   3.487
  326SOL     OW  987   1.587   0.779   3.532
  326SOL    HW1  988   1.495   0.817   3.527
  326SOL    HW2  989   1.647   0.826   3.467
  327SOL     OW  990   1.013   0.105   3.632
  327SOL    HW1  991   1.019   0.190   3.580
  327SOL    HW2  992   1.045   0.029   3.575
  328SOL     OW  993   0.504   0.050   3.602
  328SOL    HW1  994   0.462  -0.007   3.532
  328SOL    HW2  995   0.438   0.119   3.634
  329SOL     OW  996   0.573   0.870   2.891
  329SOL    HW1  997   0.617   0.959   2.882
  329SOL    HW2  998   0.510   0.870   2.968
  330SOL     OW  999   1.360   0.862   2.907
  330SOL    HW1 1000   1.285   0.862   2.841
  330SOL    HW2 1001   1.397   0.770   2.916
  331SOL     OW 1002   1.209   0.525   2.137
  331SOL    HW1 1003   1.222   0.441   2.191
  331SOL    HW2 1004   1.180   0.599   2.197
  332SOL     OW 1005   0.307   0.213   3.093
  332SOL    HW1 1006   0.284   0.250   3.183
  332SOL    HW2 1007   0.277   0.118   3.087
  333SOL     OW 1008   0.037   1.310   3.144
  333SOL    HW1 1009   0.090   1.261   3.212
  333SOL    HW2 1010   0.059   1.408   3.149
  334SOL     OW 1011   0.732   0.634   2.926
  334SOL    HW1 1012   0.791   0.608   2.850
  334SOL    HW2 1013   0.704   0.730   2.915
  335SOL     OW 1014   1.728   0.935   3.716
  335SOL    HW1 1015   1.682   0.928   3.627
  335SOL    HW2 1016   1.666   0.979   3.782
  336SOL     OW 1017   0.307   0.063   2.480
  336SOL    HW1 1018   0.296   0.157   2.513
  336SOL    HW2 1019   0.302   0.000   2.557
  337SOL     OW 1020   1.622   0.367   2.236
  337SOL    HW1 1021   1.624   0.291   2.300
  337SOL    HW2 1022   1.574   0.444   2.276
  338SOL     OW 1023   1.023   0.766   2.828
  338SOL    HW1 1024   1.038   0.787   2.924
  338SOL    HW2 1025   0.993   0.671   2.819
  339SOL     OW 1026   0.980   1.573   3.562
  339SOL    HW1 1027   0.960   1.617   3.474
  339SOL    HW2 1028   1.019   1.482   3.546
  340SOL     OW 1029   1.859   1.518   3.467
  340SOL    HW1 1030   1.873   1.545   3.372
  340SOL    HW2 1031   1.942   1.540   3.520
  341SOL     OW 1032   0.350   0.898   3.666
  341SOL    HW1 1033   0.426   0.942   3.714
  341SOL    HW2 1034   0.385   0.851   3.584
  342SOL     OW 1035   1.540   0.274   1.987
  342SOL    HW1 1036   1.479   0.199   2.010
  342SOL    HW2 1037   1.562   0.326   2.070
  343SOL     OW 1038   1.303   0.838   1.904
  343SOL    HW1 1039   1.337   0.745   1.919
  343SOL    HW2 1040   1.321   0.865   1.809
  344SOL     OW 1041   1.068   1.333   2.711
  344SOL    HW1 1042   1.075   1.249   2.656
  344SOL    HW2 1043   1.130   1.402   2.675
  345SOL     OW 1044   0.319   0.810   2.811
  345SOL    HW1 1045   0.412   0.846   2.816
  345SOL    HW2 1046   0.313   0.725   2.863
  346SOL     OW 1047   0.339   0.509   2.868
  346SOL    HW1 1048   0.287   0.426   2.851
  346SOL    HW2 1049   0.416   0.514   2.804
  347SOL     OW 1050   1.138   0.380   3.540
  347SOL    HW1 1051   1.093   0.443   3.604
  347SOL    HW2 1052   1.231   0.411   3.523
  348SOL     OW 1053   1.160   0.207   3.339
  348SOL    HW1 1054   1.160   0.271   3.416
  348SOL    HW2 1055   1.188   0.255   3.256
  349SOL     OW 1056   0.008   1.326   2.062
  349SOL    HW1 1057  -0.085   1.347   2.031
  349SOL    HW2 1058   0.018   1.227   2.075
  350SOL     OW 1059   0.088   1.801   2.789
  350SOL    HW1 1060   0.046   1.715   2.762
  350SOL    HW2 1061   0.182   1.804   2.755
  351SOL     OW 1062   0.504   1.568   2.772
  351SOL    HW1 1063   0.570   1.642   2.781
  351SOL    HW2 1064   0.548   1.489   2.730
  352SOL     OW 1065   1.002   0.796   3.100
  352SOL    HW1 1066   1.043   0.764   3.186
  352SOL    HW2 1067   0.906   0.769   3.097
  353SOL     OW 1068   0.040   0.544   2.976
  353SOL    HW1 1069   0.125   0.511   2.935
  353SOL    HW2 1070   0.053   0.559   3.074
  354SOL     OW 1071   0.189   0.520   3.584
  354SOL    HW1 1072   0.248   0.480   3.514
  354SOL    HW2 1073   0.131   0.591   3.543
  355SOL     OW 1074   1.369   0.950   3.522
  355SOL    HW1 1075   1.408   1.039   3.542
  355SOL    HW2 1076   1.379   0.930   3.425
  356SOL     OW 1077   0.815   0.572   2.187
  356SOL    HW1 1078   0.822   0.483   2.141
  356SOL    HW2 1079   0.721   0.606   2.179
  357SOL     OW 1080   1.657   0.604   3.068
  357SOL    HW1 1081   1.619   0.535   3.130
  357SOL    HW2 1082   1.739   0.568   3.024
  358SOL     OW 1083   0.252   1.564   3.606
  358SOL    HW1 1084   0.222   1.621   3.682
  358SOL    HW2 1085   0.245   1.467   3.632
  359SOL     OW 1086   0.671   0.464   3.131
  359SOL    HW1 1087   0.637   0.375   3.101
  359SOL    HW2 1088   0.697   0.518   3.051
  360SOL     OW 1089   0.930   1.678   3.327
  360SOL    HW1 1090   0.906   1.660   3.232
  360SOL    HW2 1091   0.960   1.772   3.337
  361SOL     OW 1092   0.473   0.500   2.053
  361SOL    HW1 1093   0.534   0.580   2.057
  361SOL    HW2 1094   0.378   0.531   2.060
  362SOL     OW 1095   0.159   1.137   3.328
  362SOL    HW1 1096   0.181   1.076   3.404
  362SOL    HW2 1097   0.169   1.088   3.242
  363SOL     OW 1098   1.347   1.059   3.096
  363SOL    HW1 1099   1.371   0.996   3.022
  363SOL    HW2 1100   1.257   1.099   3.078
  364SOL     OW 1101   1.302   0.855   2.171
  364SOL    HW1 1102   1.216   0.824   2.213
  364SOL    HW2 1103   1.298   0.841   2.072
  365SOL     OW 1104   1.759   1.747   3.016
  365SOL    HW1 1105   1.820   1.777   2.943
  365SOL    HW2 1106   1.721   1.658   2.994
  366SOL     OW 1107   1.252   1.731   2.990
  366SOL    HW1 1108   1.336   1.736   2.936
  366SOL    HW2 1109   1.229   1.635   3.008
  367SOL     OW 1110   0.083   1.258   2.884
  367SOL    HW1 1111   0.078   1.257   2.984
  367SOL    HW2 1112   0.000   1.217   2.846
  368SOL     OW 1113   0.688   1.662   3.578
  368SOL    HW1 1114   0.632   1.743   3.587
  368SOL    HW2 1115   0.740   1.666   3.492
  369SOL     OW 1116   1.726   0.135   2.385
  369SOL    HW1 1117   1.799   0.118   2.318
  369SOL    HW2 1118   1.695   0.048   2.423
  370SOL     OW 1119   1.388   1.573   2.339
  370SOL    HW1 1120   1.455   1.585   2.265
  370SOL    HW2 1121   1.348   1.662   2.362
  371SOL     OW 1122   0.130   1.794   3.713
  371SOL    HW1 1123   0.089   1.720   3.766
  371SOL    HW2 1124   0.194   1.845   3.771
  372SOL     OW 1125   1.280   0.927   2.534
  372SOL    HW1 1126   1.340   0.846   2.536
  372SOL    HW2 1127   1.320   0.996   2.474
  373SOL     OW 1128   0.830   1.273   3.284
  373SOL    HW1 1129   0.825   1.306   3.379
  373SOL    HW2 1130   0.744   1.292   3.238
  374SOL     OW 1131   0.672   1.616   2.016
  374SOL    HW1 1132   0.681   1.626   1.917
  374SOL    HW2 1133   0.632   1.527   2.037
  375SOL     OW 1134   1.650   1.720   3.256
  375SOL    HW1 1135   1.703   1.730   3.172
  375SOL    HW2 1136   1.623   1.810   3.290
  376SOL     OW 1137   1.841   0.175   2.825
  376SOL    HW1 1138   1.880   0.090   2.789
  376SOL    HW2 1139   1.743   0.177   2.806
  377SOL     OW 1140   0.263   0.326   2.582
  377SOL    HW1 1141   0.184   0.377   2.548
  377SOL    HW2 1142   0.254   0.311   2.680
  378SOL     OW 1143   1.194   1.612   1.893
  378SOL    HW1 1144   1.200   1.519   1.930
  378SOL    HW2 1145   1.135   1.612   1.813
  379SOL     OW 1146   0.822   1.002   3.234
  379SOL    HW1 1147   0.862   1.001   3.142
  379SOL    HW2 1148   0.832   1.094   3.274
  380SOL     OW 1149   0.916   0.910   2.153
  380SOL    HW1 1150   0.979   0.948   2.085
  380SOL    HW2 1151   0.956   0.827   2.192
  381SOL     OW 1152   1.504   1.607   1.906
  381SOL    HW1 1153   1.412   1.644   1.913
  381SOL    HW2 1154   1.542   1.627   1.816
  382SOL     OW 1155   0.372   1.288   3.352
  382SOL    HW1 1156   0.359   1.381   3.318
  382SOL    HW2 1157   0.288   1.236   3.339
  383SOL     OW 1158   1.614   1.292   3.151
  383SOL    HW1 1159   1.674   1.295   3.231
  383SOL    HW2 1160   1.539   1.356   3.164
  384SOL     OW 1161   1.039   1.098   2.558
  384SOL    HW1 1162   0.969   1.051   2.612
  384SOL    HW2 1163   1.098   1.030   2.515
  385SOL     OW 1164   1.014   0.236   2.833
  385SOL    HW1 1165   1.006   0.200   2.740
  385SOL    HW2 1166   1.012   0.160   2.898
  386SOL     OW 1167   0.590   1.487   2.353
  386SOL    HW1 1168   0.632   1.429   2.283
  386SOL    HW2 1169   0.546   1.566   2.309
  387SOL     OW 1170   1.709   0.385   3.243
  387SOL    HW1 1171   1.782   0.454   3.247
  387SOL    HW2 1172   1.737   0.310   3.184
  388SOL     OW 1173   0.255   1.348   2.152
  388SOL    HW1 1174   0.159   1.349   2.125
  388SOL    HW2 1175   0.267   1.401   2.236
  389SOL     OW 1176   0.105   1.013   3.588
  389SOL    HW1 1177   0.028   0.980   3.642
  389SOL    HW2 1178   0.190   0.983   3.630
  390SOL     OW 1179   0.672   0.203   3.351
  390SOL    HW1 1180   0.762   0.187   3.311
  390SOL    HW2 1181   0.680   0.208   3.450
  391SOL     OW 1182   0.075   0.345   1.895
  391SOL    HW1 1183  -0.017   0.317   1.866
  391SOL    HW2 1184   0.106   0.422   1.839
  392SOL     OW 1185   1.440   0.856   3.260
  392SOL    HW1 1186   1.383   0.908   3.197
  392SOL    HW2 1187   1.536   0.868   3.236
  393SOL     OW 1188   0.072   0.166   2.180
  393SOL    HW1 1189   0.055   0.249   2.126
  393SOL    HW2 1190   0.162   0.129   2.158
  394SOL     OW 1191   1.183   1.335   1.981
  394SOL    HW1 1192   1.084   1.324   1.983
  394SOL    HW2 1193   1.217   1.350   2.074
  395SOL     OW 1194   0.613   0.842   3.293
  395SOL    HW1 1195   0.669   0.923   3.276
  395SOL    HW2 1196   0.672   0.762   3.296
  396SOL     OW 1197   1.493   1.767   2.821
  396SOL    HW1 1198   1.526   1.831   2.752
  396SOL    HW2 1199   1.559   1.761   2.896
  397SOL     OW 1200   0.716   0.565   3.570
  397SOL    HW1 1201   0.735   0.630   3.644
  397SOL    HW2 1202   0.776   0.485   3.579
  398SOL     OW 1203   1.450   1.220   3.495
  398SOL    HW1 1204   1.441   1.210   3.594
  398SOL    HW2 1205   1.546   1.213   3.469
  399SOL     OW 1206   0.390   1.741   3.422
  399SOL    HW1 1207   0.299   1.782   3.420
  399SOL    HW2 1208   0.383   1.647   3.454
  400SOL     OW 1209   1.674   0.883   3.116
  400SOL    HW1 1210   1.647   0.794   3.079
  400SOL    HW2 1211   1.675   0.951   3.043
  401SOL     OW 1212   1.225   0.325   2.311
  401SOL    HW1 1213   1.290   0.251   2.300
  401SOL    HW2 1214   1.245   0.375   2.395
  402SOL     OW 1215   0.594   0.745   2.514
  402SOL    HW1 1216   0.644   0.830   2.495
  402SOL    HW2 1217   0.506   0.747   2.466
  403SOL     OW 1218   1.777   0.342   3.504
  403SOL    HW1 1219   1.760   0.373   3.410
  403SOL    HW2 1220   1.693   0.305   3.542
  404SOL     OW 1221   1.730   0.934   3.379
  404SOL    HW1 1222   1.768   1.025   3.394
  404SOL    HW2 1223   1.722   0.917   3.280
  405SOL     OW 1224   0.859   1.374   1.878
  405SOL    HW1 1225   0.813   1.389   1.966
  405SOL    HW2 1226   0.903   1.459   1.848
  406SOL     OW 1227   0.661   1.790   2.815
  406SOL    HW1 1228   0.615   1.878   2.802
  406SOL    HW2 1229   0.760   1.802   2.808
  407SOL     OW 1230   0.859   0.956   2.723
  407SOL    HW1 1231   0.913   0.887   2.771
  407SOL    HW2 1232   0.827   1.025   2.789
  408SOL     OW 1233   1.083   0.984   1.949
  408SOL    HW1 1234   1.060   1.037   1.867
  408SOL    HW2 1235   1.164   0.928   1.930
  409SOL     OW 1236   1.861   1.569   2.713
  409SOL    HW1 1237   1.790   1.557   2.643
  409SOL    HW2 1238   1.862   1.490   2.773
  410SOL     OW 1239   0.221   1.314   3.706
  410SOL    HW1 1240   0.156   1.241   3.685
  410SOL    HW2 1241   0.225   1.328   3.804
  411SOL     OW 1242   0.079   1.240   2.515
  411SOL    HW1 1243   0.078   1.193   2.603
  411SOL    HW2 1244   0.161   1.212   2.464
  412SOL     OW 1245   0.672   1.391   3.486
  412SOL    HW1 1246   0.594   1.341   3.524
  412SOL    HW2 1247   0.669   1.486   3.517
  413SOL     OW 1248   1.824   0.192   3.089
  413SOL    HW1 1249   1.820   0.102   3.133
  413SOL    HW2 1250   1.827   0.181   2.990
  414SOL     OW 1251   0.428   0.424   2.382
  414SOL    HW1 1252   0.458   0.352   2.320
  414SOL    HW2 1253   0.389   0.384   2.465
  415SOL     OW 1254   1.705   1.487   2.966
  415SOL    HW1 1255   1.612   1.462   2.939
  415SOL    HW2 1256   1.731   1.437   3.048
  416SOL     OW 1257   0.317   0.547   3.142
  416SOL    HW1 1258   0.355   0.488   3.214
  416SOL    HW2 1259   0.357   0.521   3.054
  417SOL     OW 1260   0.812   1.586   2.549
  417SOL    HW1 1261   0.844   1.596   2.455
  417SOL    HW2 1262   0.733   1.524   2.551
  418SOL     OW 1263   1.424   0.214   2.974
  418SOL    HW1 1264   1.476   0.149   3.029
  418SOL    HW2 1265   1.375   0.277   3.035
  419SOL     OW 1266   1.001   0.034   3.016
  419SOL    HW1 1267   0.938  -0.038   2.985
  419SOL    HW2 1268   1.094  -0.002   3.016
  420SOL     OW 1269   0.770   1.330   2.163
  420SOL    HW1 1270   0.724   1.243   2.180
  420SOL    HW2 1271   0.861   1.327   2.204
  421SOL     OW 1272   0.618   1.567   3.146
  421SOL    HW1 1273   0.613   1.649   3.203
  421SOL    HW2 1274   0.707   1.564   3.101
  422SOL     OW 1275   1.352   0.052   2.030
  422SOL    HW1 1276   1.387   0.011   1.946
  422SOL    HW2 1277   1.262   0.014   2.050
  423SOL     OW 1278   1.300   0.453   2.553
  423SOL    HW1 1279   1.241   0.533   2.557
  423SOL    HW2 1280   1.315   0.418   2.646
  424SOL     OW 1281   1.593   0.221   2.744
  424SOL    HW1 1282   1.509   0.220   2.798
  424SOL    HW2 1283   1.595   0.304   2.688
  425SOL     OW 1284   0.039   1.077   2.162
  425SOL    HW1 1285   0.138   1.066   2.153
  425SOL    HW2 1286  -0.001   0.991   2.194
  426SOL     OW 1287   0.875   1.646   2.199
  426SOL    HW1 1288   0.798   1.611   2.145
  426SOL    HW2 1289   0.843   1.717   2.261
  427SOL     OW 1290   0.230   0.628   3.837
  427SOL    HW1 1291   0.137   0.626   3.874
  427SOL    HW2 1292   0.231   0.589   3.745
  428SOL     OW 1293   1.135   0.703   4.441
  428SOL    HW1 1294   1.192   0.781   4.416
  428SOL    HW2 1295   1.075   0.729   4.517
  429SOL     OW 1296   1.755   0.607   3.955
  429SOL    HW1 1297   1.743   0.594   3.856
  429SOL    HW2 1298   1.725   0.526   4.004
  430SOL     OW 1299   1.603   0.447   4.461
  430SOL    HW1 1300   1.529   0.493   4.411
  430SOL    HW2 1301   1.654   0.515   4.514
  431SOL     OW 1302   0.231   1.713   4.207
  431SOL    HW1 1303   0.265   1.790   4.261
  431SOL    HW2 1304   0.275   1.713   4.117
  432SOL     OW 1305   0.230   1.434   4.262
  432SOL    HW1 1306   0.204   1.530   4.262
  432SOL    HW2 1307   0.159   1.380   4.307
  433SOL     OW 1308   0.606   0.964   3.847
  433SOL    HW1 1309   0.613   1.048   3.793
  433SOL    HW2 1310   0.652   0.977   3.935
  434SOL     OW 1311   0.122   0.643   4.287
  434SOL    HW1 1312   0.077   0.555   4.304
  434SOL    HW2 1313   0.121   0.697   4.371
  435SOL     OW 1314   1.842   1.767   4.083
  435SOL    HW1 1315   1.896   1.738   4.163
  435SOL    HW2 1316   1.872   1.857   4.054
  436SOL     OW 1317   0.027   1.596   3.841
  436SOL    HW1 1318   0.008   1.500   3.862
  436SOL    HW2 1319  -0.006   1.654   3.916
  437SOL     OW 1320   1.689   0.922   4.336
  437SOL    HW1 1321   1.784   0.893   4.344
  437SOL    HW2 1322   1.681   0.987   4.261
  438SOL     OW 1323   1.641   1.108   4.156
  438SOL    HW1 1324   1.727   1.110   4.104
  438SOL    HW2 1325   1.655   1.155   4.244
  439SOL     OW 1326   0.613   1.365   4.450
  439SOL    HW1 1327   0.564   1.278   4.459
  439SOL    HW2 1328   0.590   1.408   4.363
  440SOL     OW 1329   0.809   0.004   4.226
  440SOL    HW1 1330   0.849   0.095   4.217
  440SOL    HW2 1331   0.709   0.012   4.232
  441SOL     OW 1332   1.525   0.999   3.914
  441SOL    HW1 1333   1.462   0.923   3.927
  441SOL    HW2 1334   1.573   1.017   4.000
  442SOL     OW 1335   0.598   0.729   3.994
  442SOL    HW1 1336   0.622   0.798   3.926
  442SOL    HW2 1337   0.520   0.762   4.048
  443SOL     OW 1338   1.281   0.345   4.668
  443SOL    HW1 1339   1.195   0.295   4.655
  443SOL    HW2 1340   1.343   0.291   4.724
  444SOL     OW 1341   1.576   1.662   4.031
  444SOL    HW1 1342   1.665   1.708   4.034
  444SOL    HW2 1343   1.555   1.638   3.936
  445SOL     OW 1344   1.041   0.701   4.153
  445SOL    HW1 1345   1.067   0.697   4.249
  445SOL    HW2 1346   0.956   0.650   4.139
  446SOL     OW 1347   0.076   0.811   4.513
  446SOL    HW1 1348   0.175   0.799   4.522
  446SOL    HW2 1349   0.052   0.906   4.534
  447SOL     OW 1350   0.865   0.348   3.919
  447SOL    HW1 1351   0.924   0.411   3.870
  447SOL    HW2 1352   0.884   0.254   3.890
  448SOL     OW 1353   1.362   1.144   4.269
  448SOL    HW1 1354   1.445   1.115   4.221
  448SOL    HW2 1355   1.313   1.211   4.213
  449SOL     OW 1356   1.008   1.456   4.201
  449SOL    HW1 1357   0.962   1.528   4.149
  449SOL    HW2 1358   1.004   1.476   4.299
  450SOL     OW 1359   0.351   1.801   4.577
  450SOL    HW1 1360   0.401   1.715   4.583
  450SOL    HW2 1361   0.416   1.878   4.574
  451SOL     OW 1362   1.795   1.066   4.597
  451SOL    HW1 1363   1.733   1.051   4.521
  451SOL    HW2 1364   1.743   1.077   4.682
  452SOL     OW 1365   0.321   0.943   3.966
  452SOL    HW1 1366   0.403   0.982   3.924
  452SOL    HW2 1367   0.294   0.861   3.917
  453SOL     OW 1368   1.111   1.776   3.961
  453SOL    HW1 1369   1.051   1.714   4.011
  453SOL    HW2 1370   1.142   1.732   3.876
  454SOL     OW 1371   1.632   1.377   3.805
  454SOL    HW1 1372   1.600   1.471   3.795
  454SOL    HW2 1373   1.556   1.314   3.793
  455SOL     OW 1374   0.464   1.743   4.047
  455SOL    HW1 1375   0.497   1.782   4.133
  455SOL    HW2 1376   0.540   1.736   3.982
  456SOL     OW 1377   1.400   0.107   4.150
  456SOL    HW1 1378   1.376   0.070   4.060
  456SOL    HW2 1379   1.499   0.123   4.154
  457SOL     OW 1380   0.940   1.698   4.628
  457SOL    HW1 1381   1.020   1.641   4.649
  457SOL    HW2 1382   0.891   1.658   4.551
  458SOL     OW 1383   0.382   0.700   4.204
  458SOL    HW1 1384   0.427   0.610   4.201
  458SOL    HW2 1385   0.288   0.689   4.237
  459SOL     OW 1386   0.614   0.122   3.841
  459SOL    HW1 1387   0.712   0.100   3.848
  459SOL    HW2 1388   0.583   0.105   3.748
  460SOL     OW 1389   0.539   0.064   4.236
  460SOL    HW1 1390   0.458   0.065   4.294
  460SOL    HW2 1391   0.542   0.147   4.181
  461SOL     OW 1392   1.434   1.188   3.765
  461SOL    HW1 1393   1.466   1.112   3.822
  461SOL    HW2 1394   1.342   1.215   3.795
  462SOL     OW 1395   0.297   0.035   3.895
  462SOL    HW1 1396   0.346   0.119   3.874
  462SOL    HW2 1397   0.359  -0.030   3.940
  463SOL     OW 1398   0.935   0.236   4.204
  463SOL    HW1 1399   0.887   0.277   4.126
  463SOL    HW2 1400   1.034   0.234   4.185
  464SOL     OW 1401   0.459   1.152   4.465
  464SOL    HW1 1402   0.388   1.125   4.530
  464SOL    HW2 1403   0.433   1.124   4.372
  465SOL     OW 1404   1.271   1.797   4.315
  465SOL    HW1 1405   1.315   1.861   4.251
  465SOL    HW2 1406   1.221   1.849   4.385
  466SOL     OW 1407   1.032   0.549   3.740
  466SOL    HW1 1408   0.991   0.631   3.701
  466SOL    HW2 1409   1.096   0.575   3.813
  467SOL     OW 1410   0.866   0.454   4.366
  467SOL    HW1 1411   0.834   0.526   4.304
  467SOL    HW2 1412   0.890   0.373   4.313
  468SOL     OW 1413   1.857   0.833   4.101
  468SOL    HW1 1414   1.899   0.769   4.165
  468SOL    HW2 1415   1.819   0.782   4.023
  469SOL     OW 1416   0.488   1.385   3.898
  469SOL    HW1 1417   0.401   1.370   3.945
  469SOL    HW2 1418   0.471   1.411   3.803
  470SOL     OW 1419   1.390   0.575   3.802
  470SOL    HW1 1420   1.336   0.554   3.883
  470SOL    HW2 1421   1.481   0.534   3.811
  471SOL     OW 1422   0.527   0.256   4.052
  471SOL    HW1 1423   0.554   0.197   3.977
  471SOL    HW2 1424   0.527   0.351   4.021
  472SOL     OW 1425   1.111   1.195   4.824
  472SOL    HW1 1426   1.071   1.239   4.905
  472SOL    HW2 1427   1.070   1.232   4.741
  473SOL     OW 1428   0.705   1.050   4.092
  473SOL    HW1 1429   0.691   1.057   4.191
  473SOL    HW2 1430   0.789   0.999   4.074
  474SOL     OW 1431   0.367   1.100   4.225
  474SOL    HW1 1432   0.360   1.183   4.169
  474SOL    HW2 1433   0.371   1.020   4.165
  475SOL     OW 1434   1.252   1.348   4.112
  475SOL    HW1 1435   1.302   1.425   4.152
  475SOL    HW2 1436   1.157   1.350   4.144
  476SOL     OW 1437   1.582   0.639   4.196
  476SOL    HW1 1438   1.551   0.700   4.269
  476SOL    HW2 1439   1.632   0.691   4.127
  477SOL     OW 1440   1.209   0.525   3.999
  477SOL    HW1 1441   1.222   0.441   4.053
  477SOL    HW2 1442   1.180   0.599   4.059
  478SOL     OW 1443   0.307   0.063   4.342
  478SOL    HW1 1444   0.296   0.157   4.375
  478SOL    HW2 1445   0.302   0.000   4.419
  479SOL     OW 1446   1.622   0.367   4.098
  479SOL    HW1 1447   1.624   0.291   4.162
  479SOL    HW2 1448   1.574   0.444   4.138
  480SOL     OW 1449   1.540   0.274   3.849
  480SOL    HW1 1450   1.479   0.199   3.872
  480SOL    HW2 1451   1.562   0.326   3.932
  481SOL     OW 1452   1.303   0.838   3.766
  481SOL    HW1 1453   1.337   0.745   3.781
  481SOL    HW2 1454   1.321   0.865   3.671
  482SOL     OW 1455   0.008   1.326   3.924
  482SOL    HW1 1456  -0.085   1.347   3.893
  482SOL    HW2 1457   0.018   1.227   3.937
  483SOL     OW 1458   0.815   0.572   4.049
  483SOL    HW1 1459   0.822   0.483   4.003
  483SOL    HW2 1460   0.721   0.606   4.041
  484SOL     OW 1461   0.473   0.500   3.915
  484SOL    HW1 1462   0.534   0.580   3.919
  484SOL    HW2 1463   0.378   0.531   3.922
  485SOL     OW 1464   1.302   0.855   4.033
  485SOL    HW1 1465   1.216   0.824   4.075
  485SOL    HW2 1466   1.298   0.841   3.934
  486SOL     OW 1467   1.726   0.135   4.247
  486SOL    HW1 1468   1.799   0.118   4.180
  486SOL    HW2 1469   1.695   0.048   4.285
  487SOL     OW 1470   1.388   1.573   4.201
  487SOL    HW1 1471   1.455   1.585   4.127
  487SOL    HW2 1472   1.348   1.662   4.224
  488SOL     OW 1473   0.672   1.616   3.878
  488SOL    HW1 1474   0.681   1.626   3.779
  488SOL    HW2 1475   0.632   1.527   3.899
  489SOL     OW 1476   1.841   0.175   4.687
  489SOL    HW1 1477   1.880   0.090   4.651
  489SOL    HW2 1478   1.743   0.177   4.668
  490SOL     OW 1479   1.194   1.612   3.755
  490SOL    HW1 1480   1.200   1.519   3.792
  490SOL    HW2 1481   1.135   1.612   3.675
  491SOL     OW 1482   0.916   0.910   4.015
  491SOL    HW1 1483   0.979   0.948   3.947
  491SOL    HW2 1484   0.956   0.827   4.054
  492SOL     OW 1485   1.504   1.607   3.768
  492SOL    HW1 1486   1.412   1.644   3.775
  492SOL    HW2 1487   1.542   1.627   3.678
  493SOL     OW 1488   0.590   1.487   4.215
  493SOL    HW1 1489   0.632   1.429   4.145
  493SOL    HW2 1490   0.546   1.566   4.171
  494SOL     OW 1491   0.255   1.348   4.014
  494SOL    HW1 1492   0.159   1.349   3.987
  494SOL    HW2 1493   0.267   1.401   4.098
  495SOL     OW 1494   0.075   0.345   3.757
  495SOL    HW1 1495  -0.017   0.317   3.728
  495SOL    HW2 1496   0.106   0.422   3.701
  496SOL     OW 1497   0.072   0.166   4.042
  496SOL    HW1 1498   0.055   0.249   3.988
  496SOL    HW2 1499   0.162   0.129   4.020
  497SOL     OW 1500   1.183   1.335   3.843
  497SOL    HW1 1501   1.084   1.324   3.845
  497SOL    HW2 1502   1.217   1.350   3.936
  498SOL     OW 1503   1.225   0.325   4.173
  498SOL    HW1 1504   1.290   0.251   4.162
  498SOL    HW2 1505   1.245   0.375   4.257
  499SOL     OW 1506   0.594   0.745   4.376
  499SOL    HW1 1507   0.644   0.830   4.357
  499SOL    HW2 1508   0.506   0.747   4.328
  500SOL     OW 1509   0.859   1.374   3.740
  500SOL    HW1 1510   0.813   1.389   3.828
  500SOL    HW2 1511   0.903   1.459   3.710
  501SOL     OW 1512   1.083   0.984   3.811
  501SOL    HW1 1513   1.060   1.037   3.729
  501SOL    HW2 1514   1.164   0.928   3.792
  502SOL     OW 1515   0.079   1.240   4.377
  502SOL    HW1 1516   0.078   1.193   4.465
  502SOL    HW2 1517   0.161   1.212   4.326
  503SOL     OW 1518   0.428   0.424   4.244
  503SOL    HW1 1519   0.458   0.352   4.182
  503SOL    HW2 1520   0.389   0.384   4.327
  504SOL     OW 1521   0.812   1.586   4.411
  504SOL    HW1 1522   0.844   1.596   4.317
  504SOL    HW2 1523   0.733   1.524   4.413
  505SOL     OW 1524   0.770   1.330   4.025
  505SOL    HW1 1525   0.724   1.243   4.042
  505SOL    HW2 1526   0.861   1.327   4.066
  506SOL     OW 1527   1.352   0.052   3.892
  506SOL    HW1 1528   1.387   0.011   3.808
  506SOL    HW2 1529   1.262   0.014   3.912
  507SOL     OW 1530   1.300   0.453   4.415
  507SOL    HW1 1531   1.241   0.533   4.419
  507SOL    HW2 1532   1.315   0.418   4.508
  508SOL     OW 1533   0.039   1.077   4.024
  508SOL    HW1 1534   0.138   1.066   4.015
  508SOL    HW2 1535  -0.001   0.991   4.056
  509SOL     OW 1536   0.875   1.646   4.061
  509SOL    HW1 1537   0.798   1.611   4.007
  509SOL    HW2 1538   0.843   1.717   4.123
  510SOL     OW 1539   0.230   2.490   0.113
  510SOL    HW1 1540   0.137   2.488   0.150
  510SOL    HW2 1541   0.231   2.451   0.021
  511SOL     OW 1542   0.225   2.137   0.996
  511SOL    HW1 1543   0.260   2.120   1.088
  511SOL    HW2 1544   0.137   2.092   0.984
  512SOL     OW 1545   0.019   2.230   0.647
  512SOL    HW1 1546  -0.063   2.273   0.686
  512SOL    HW2 1547  -0.009   2.157   0.584
  513SOL     OW 1548   0.569   3.137   1.165
  513SOL    HW1 1549   0.476   3.130   1.128
  513SOL    HW2 1550   0.580   3.226   1.209
  514SOL     OW 1551   1.555   3.373   0.703
  514SOL    HW1 1552   1.498   3.357   0.784
  514SOL    HW2 1553   1.496   3.383   0.623
  515SOL     OW 1554   1.135   2.565   0.717
  515SOL    HW1 1555   1.192   2.643   0.692
  515SOL    HW2 1556   1.075   2.591   0.793
  516SOL     OW 1557   1.755   2.469   0.231
  516SOL    HW1 1558   1.743   2.456   0.132
  516SOL    HW2 1559   1.725   2.388   0.280
  517SOL     OW 1560   0.768   3.006   1.023
  517SOL    HW1 1561   0.690   3.023   1.083
  517SOL    HW2 1562   0.802   3.093   0.987
  518SOL     OW 1563   0.850   2.660   1.823
  518SOL    HW1 1564   0.846   2.736   1.888
  518SOL    HW2 1565   0.872   2.696   1.732
  519SOL     OW 1566   0.685   2.874   0.665
  519SOL    HW1 1567   0.754   2.858   0.735
  519SOL    HW2 1568   0.612   2.931   0.703
  520SOL     OW 1569   0.686   3.023   1.803
  520SOL    HW1 1570   0.746   3.102   1.817
  520SOL    HW2 1571   0.600   3.054   1.762
  521SOL     OW 1572   0.335   3.297   1.061
  521SOL    HW1 1573   0.257   3.266   1.008
  521SOL    HW2 1574   0.393   3.355   1.004
  522SOL     OW 1575   1.460   3.367   1.339
  522SOL    HW1 1576   1.484   3.461   1.365
  522SOL    HW2 1577   1.444   3.313   1.421
  523SOL     OW 1578   0.438   2.254   1.499
  523SOL    HW1 1579   0.520   2.198   1.508
  523SOL    HW2 1580   0.357   2.196   1.503
  524SOL     OW 1581   1.603   2.309   0.737
  524SOL    HW1 1582   1.529   2.355   0.687
  524SOL    HW2 1583   1.654   2.377   0.790
  525SOL     OW 1584   0.231   3.575   0.483
  525SOL    HW1 1585   0.265   3.652   0.537
  525SOL    HW2 1586   0.275   3.575   0.393
  526SOL     OW 1587   1.127   3.203   1.690
  526SOL    HW1 1588   1.174   3.203   1.778
  526SOL    HW2 1589   1.079   3.116   1.679
  527SOL     OW 1590   0.230   3.296   0.538
  527SOL    HW1 1591   0.204   3.392   0.538
  527SOL    HW2 1592   0.159   3.242   0.583
  528SOL     OW 1593   0.240   2.953   0.886
  528SOL    HW1 1594   0.254   2.869   0.938
  528SOL    HW2 1595   0.185   3.017   0.941
  529SOL     OW 1596   0.620   3.648   1.439
  529SOL    HW1 1597   0.528   3.631   1.474
  529SOL    HW2 1598   0.648   3.740   1.465
  530SOL     OW 1599   0.606   2.826   0.123
  530SOL    HW1 1600   0.613   2.910   0.069
  530SOL    HW2 1601   0.652   2.839   0.211
  531SOL     OW 1602   1.594   1.976   1.480
  531SOL    HW1 1603   1.576   2.043   1.408
  531SOL    HW2 1604   1.591   2.022   1.569
  532SOL     OW 1605   0.122   2.505   0.563
  532SOL    HW1 1606   0.077   2.417   0.580
  532SOL    HW2 1607   0.121   2.559   0.647
  533SOL     OW 1608   1.842   3.629   0.359
  533SOL    HW1 1609   1.896   3.600   0.439
  533SOL    HW2 1610   1.872   3.719   0.330
  534SOL     OW 1611   0.027   3.458   0.117
  534SOL    HW1 1612   0.008   3.362   0.138
  534SOL    HW2 1613  -0.006   3.516   0.192
  535SOL     OW 1614   1.689   2.784   0.612
  535SOL    HW1 1615   1.784   2.755   0.620
  535SOL    HW2 1616   1.681   2.849   0.537
  536SOL     OW 1617   1.641   2.970   0.432
  536SOL    HW1 1618   1.727   2.972   0.380
  536SOL    HW2 1619   1.655   3.017   0.520
  537SOL     OW 1620   0.113   2.599   1.597
  537SOL    HW1 1621   0.201   2.586   1.642
  537SOL    HW2 1622   0.100   2.696   1.575
  538SOL     OW 1623   0.613   3.227   0.726
  538SOL    HW1 1624   0.564   3.140   0.735
  538SOL    HW2 1625   0.590   3.270   0.639
  539SOL     OW 1626   1.293   3.090   1.423
  539SOL    HW1 1627   1.330   3.017   1.365
  539SOL    HW2 1628   1.345   3.095   1.508
  540SOL     OW 1629   0.809   1.866   0.502
  540SOL    HW1 1630   0.849   1.957   0.493
  540SOL    HW2 1631   0.709   1.874   0.508
  541SOL     OW 1632   0.197   2.838   1.264
  541SOL    HW1 1633   0.286   2.793   1.250
  541SOL    HW2 1634   0.124   2.773   1.245
  542SOL     OW 1635   1.525   2.861   0.190
  542SOL    HW1 1636   1.462   2.785   0.203
  542SOL    HW2 1637   1.573   2.879   0.276
  543SOL     OW 1638   1.187   3.654   1.616
  543SOL    HW1 1639   1.211   3.714   1.540
  543SOL    HW2 1640   1.194   3.559   1.586
  544SOL     OW 1641   0.317   2.113   1.801
  544SOL    HW1 1642   0.388   2.184   1.807
  544SOL    HW2 1643   0.229   2.152   1.829
  545SOL     OW 1644   1.466   3.279   0.953
  545SOL    HW1 1645   1.407   3.285   1.033
  545SOL    HW2 1646   1.451   3.191   0.907
  546SOL     OW 1647   1.667   3.576   0.572
  546SOL    HW1 1648   1.626   3.553   0.484
  546SOL    HW2 1649   1.649   3.502   0.637
  547SOL     OW 1650   0.598   2.591   0.270
  547SOL    HW1 1651   0.622   2.660   0.202
  547SOL    HW2 1652   0.520   2.624   0.324
  548SOL     OW 1653   1.281   2.207   0.944
  548SOL    HW1 1654   1.195   2.157   0.931
  548SOL    HW2 1655   1.343   2.153   1.000
  549SOL     OW 1656   1.576   3.524   0.307
  549SOL    HW1 1657   1.665   3.570   0.310
  549SOL    HW2 1658   1.555   3.500   0.212
  550SOL     OW 1659   0.807   2.467   1.465
  550SOL    HW1 1660   0.760   2.464   1.554
  550SOL    HW2 1661   0.756   2.412   1.399
  551SOL     OW 1662   1.394   2.331   1.674
  551SOL    HW1 1663   1.374   2.374   1.762
  551SOL    HW2 1664   1.472   2.269   1.683
  552SOL     OW 1665   0.973   2.752   1.572
  552SOL    HW1 1666   1.019   2.668   1.543
  552SOL    HW2 1667   0.917   2.786   1.497
  553SOL     OW 1668   0.991   2.272   1.242
  553SOL    HW1 1669   0.914   2.306   1.296
  553SOL    HW2 1670   0.957   2.221   1.163
  554SOL     OW 1671   1.041   2.563   0.429
  554SOL    HW1 1672   1.067   2.559   0.525
  554SOL    HW2 1673   0.956   2.512   0.415
  555SOL     OW 1674   0.076   2.673   0.789
  555SOL    HW1 1675   0.175   2.661   0.798
  555SOL    HW2 1676   0.052   2.768   0.810
  556SOL     OW 1677   0.130   3.683   1.571
  556SOL    HW1 1678   0.120   3.668   1.670
  556SOL    HW2 1679   0.044   3.719   1.535
  557SOL     OW 1680   0.865   2.210   0.195
  557SOL    HW1 1681   0.924   2.273   0.146
  557SOL    HW2 1682   0.884   2.116   0.166
  558SOL     OW 1683   1.719   2.447   1.831
  558SOL    HW1 1684   1.693   2.536   1.795
  558SOL    HW2 1685   1.717   2.379   1.758
  559SOL     OW 1686   1.362   3.006   0.545
  559SOL    HW1 1687   1.445   2.977   0.497
  559SOL    HW2 1688   1.313   3.073   0.489
  560SOL     OW 1689   0.550   2.058   0.885
  560SOL    HW1 1690   0.545   2.053   0.985
  560SOL    HW2 1691   0.552   2.154   0.856
  561SOL     OW 1692   1.008   3.318   0.477
  561SOL    HW1 1693   0.962   3.390   0.425
  561SOL    HW2 1694   1.004   3.338   0.575
  562SOL     OW 1695   0.351   3.663   0.853
  562SOL    HW1 1696   0.401   3.577   0.859
  562SOL    HW2 1697   0.416   3.740   0.850
  563SOL     OW 1698   1.795   2.928   0.873
  563SOL    HW1 1699   1.733   2.913   0.797
  563SOL    HW2 1700   1.743   2.939   0.958
  564SOL     OW 1701   1.227   3.412   1.506
  564SOL    HW1 1702   1.233   3.335   1.570
  564SOL    HW2 1703   1.175   3.386   1.426
  565SOL     OW 1704   0.321   2.805   0.242
  565SOL    HW1 1705   0.403   2.844   0.200
  565SOL    HW2 1706   0.294   2.723   0.193
  566SOL     OW 1707   1.458   2.597   0.728
  566SOL    HW1 1708   1.453   2.532   0.803
  566SOL    HW2 1709   1.538   2.656   0.741
  567SOL     OW 1710   0.461   3.128   1.727
  567SOL    HW1 1711   0.411   3.129   1.641
  567SOL    HW2 1712   0.398   3.110   1.803
  568SOL     OW 1713   1.111   3.638   0.237
  568SOL    HW1 1714   1.051   3.576   0.287
  568SOL    HW2 1715   1.142   3.594   0.152
  569SOL     OW 1716   0.202   2.147   1.498
  569SOL    HW1 1717   0.122   2.207   1.485
  569SOL    HW2 1718   0.192   2.098   1.584
  570SOL     OW 1719   1.632   3.239   0.081
  570SOL    HW1 1720   1.600   3.333   0.071
  570SOL    HW2 1721   1.556   3.176   0.069
  571SOL     OW 1722   0.464   3.605   0.323
  571SOL    HW1 1723   0.497   3.644   0.409
  571SOL    HW2 1724   0.540   3.598   0.258
  572SOL     OW 1725   1.400   1.969   0.426
  572SOL    HW1 1726   1.376   1.932   0.336
  572SOL    HW2 1727   1.499   1.985   0.430
  573SOL     OW 1728   0.249   3.647   1.241
  573SOL    HW1 1729   0.306   3.582   1.291
  573SOL    HW2 1730   0.233   3.614   1.148
  574SOL     OW 1731   0.940   3.560   0.904
  574SOL    HW1 1732   1.020   3.503   0.925
  574SOL    HW2 1733   0.891   3.520   0.827
  575SOL     OW 1734   0.382   2.562   0.480
  575SOL    HW1 1735   0.427   2.472   0.477
  575SOL    HW2 1736   0.288   2.551   0.513
  576SOL     OW 1737   1.547   2.084   1.729
  576SOL    HW1 1738   1.542   2.121   1.821
  576SOL    HW2 1739   1.475   2.015   1.717
  577SOL     OW 1740   0.614   1.984   0.117
  577SOL    HW1 1741   0.712   1.962   0.124
  577SOL    HW2 1742   0.583   1.967   0.024
  578SOL     OW 1743   0.781   2.126   1.749
  578SOL    HW1 1744   0.848   2.065   1.792
  578SOL    HW2 1745   0.708   2.145   1.814
  579SOL     OW 1746   0.888   3.376   1.195
  579SOL    HW1 1747   0.865   3.351   1.101
  579SOL    HW2 1748   0.949   3.307   1.234
  580SOL     OW 1749   1.351   2.452   1.433
  580SOL    HW1 1750   1.379   2.409   1.518
  580SOL    HW2 1751   1.376   2.548   1.434
  581SOL     OW 1752   0.803   3.264   0.924
  581SOL    HW1 1753   0.893   3.278   0.882
  581SOL    HW2 1754   0.732   3.266   0.853
  582SOL     OW 1755   0.922   2.365   0.899
  582SOL    HW1 1756   0.897   2.356   0.803
  582SOL    HW2 1757   0.970   2.283   0.930
  583SOL     OW 1758   0.539   1.926   0.512
  583SOL    HW1 1759   0.458   1.927   0.570
  583SOL    HW2 1760   0.542   2.009   0.457
  584SOL     OW 1761   1.434   3.050   0.041
  584SOL    HW1 1762   1.466   2.974   0.098
  584SOL    HW2 1763   1.342   3.077   0.071
  585SOL     OW 1764   0.935   2.098   0.480
  585SOL    HW1 1765   0.887   2.139   0.402
  585SOL    HW2 1766   1.034   2.096   0.461
  586SOL     OW 1767   1.076   2.545   1.464
  586SOL    HW1 1768   0.996   2.484   1.467
  586SOL    HW2 1769   1.157   2.492   1.440
  587SOL     OW 1770   1.227   3.432   0.793
  587SOL    HW1 1771   1.248   3.506   0.728
  587SOL    HW2 1772   1.295   3.432   0.866
  588SOL     OW 1773   0.459   3.014   0.741
  588SOL    HW1 1774   0.388   2.987   0.806
  588SOL    HW2 1775   0.433   2.986   0.648
  589SOL     OW 1776   1.271   3.659   0.591
  589SOL    HW1 1777   1.315   3.723   0.527
  589SOL    HW2 1778   1.221   3.711   0.661
  590SOL     OW 1779   1.032   2.411   0.016
  590SOL    HW1 1780   0.991   2.493  -0.023
  590SOL    HW2 1781   1.096   2.437   0.089
  591SOL     OW 1782   0.078   2.418   1.386
  591SOL    HW1 1783   0.170   2.417   1.345
  591SOL    HW2 1784   0.072   2.492   1.453
  592SOL     OW 1785   0.561   2.084   1.147
  592SOL    HW1 1786   0.599   2.000   1.184
  592SOL    HW2 1787   0.473   2.103   1.191
  593SOL     OW 1788   0.866   2.316   0.642
  593SOL    HW1 1789   0.834   2.388   0.580
  593SOL    HW2 1790   0.890   2.235   0.589
  594SOL     OW 1791   1.017   1.901   0.753
  594SOL    HW1 1792   0.945   1.906   0.684
  594SOL    HW2 1793   0.993   1.832   0.822
  595SOL     OW 1794   1.429   3.035   0.867
  595SOL    HW1 1795   1.374   2.951   0.860
  595SOL    HW2 1796   1.455   3.064   0.775
  596SOL     OW 1797   1.466   2.452   0.992
  596SOL    HW1 1798   1.436   2.357   0.999
  596SOL    HW2 1799   1.539   2.468   1.058
  597SOL     OW 1800   1.857   2.695   0.377
  597SOL    HW1 1801   1.899   2.631   0.441
  597SOL    HW2 1802   1.819   2.644   0.299
  598SOL     OW 1803   0.488   3.247   0.174
  598SOL    HW1 1804   0.401   3.232   0.221
  598SOL    HW2 1805   0.471   3.273   0.079
  599SOL     OW 1806   1.664   3.142   0.657
  599SOL    HW1 1807   1.763   3.150   0.671
  599SOL    HW2 1808   1.619   3.226   0.688
  600SOL     OW 1809   1.390   2.437   0.078
  600SOL    HW1 1810   1.336   2.416   0.159
  600SOL    HW2 1811   1.481   2.396   0.087
  601SOL     OW 1812   0.527   2.118   0.328
  601SOL    HW1 1813   0.554   2.059   0.253
  601SOL    HW2 1814   0.527   2.213   0.297
  602SOL     OW 1815   1.754   3.085   1.588
  602SOL    HW1 1816   1.845   3.046   1.575
  602SOL    HW2 1817   1.762   3.181   1.612
  603SOL     OW 1818   1.064   3.209   1.340
  603SOL    HW1 1819   0.984   3.186   1.395
  603SOL    HW2 1820   1.147   3.183   1.389
  604SOL     OW 1821   1.592   3.491   1.625
  604SOL    HW1 1822   1.619   3.525   1.535
  604SOL    HW2 1823   1.671   3.453   1.671
  605SOL     OW 1824   1.111   3.057   1.100
  605SOL    HW1 1825   1.071   3.101   1.181
  605SOL    HW2 1826   1.070   3.094   1.017
  606SOL     OW 1827   1.638   2.961   1.079
  606SOL    HW1 1828   1.643   3.042   1.138
  606SOL    HW2 1829   1.552   2.963   1.028
  607SOL     OW 1830   0.915   1.951   1.402
  607SOL    HW1 1831   0.940   1.931   1.307
  607SOL    HW2 1832   0.987   2.007   1.444
  608SOL     OW 1833   0.980   2.978   1.719
  608SOL    HW1 1834   0.881   2.984   1.729
  608SOL    HW2 1835   1.003   2.898   1.663
  609SOL     OW 1836   0.705   2.912   0.368
  609SOL    HW1 1837   0.691   2.919   0.467
  609SOL    HW2 1838   0.789   2.861   0.350
  610SOL     OW 1839   0.410   2.675   1.251
  610SOL    HW1 1840   0.496   2.687   1.301
  610SOL    HW2 1841   0.368   2.588   1.278
  611SOL     OW 1842   1.274   2.248   1.262
  611SOL    HW1 1843   1.295   2.322   1.326
  611SOL    HW2 1844   1.185   2.265   1.219
  612SOL     OW 1845   0.064   3.426   1.331
  612SOL    HW1 1846   0.018   3.508   1.297
  612SOL    HW2 1847   0.162   3.445   1.340
  613SOL     OW 1848   0.367   2.962   0.501
  613SOL    HW1 1849   0.360   3.045   0.445
  613SOL    HW2 1850   0.371   2.882   0.441
  614SOL     OW 1851   0.566   2.399   0.865
  614SOL    HW1 1852   0.578   2.465   0.791
  614SOL    HW2 1853   0.612   2.433   0.948
  615SOL     OW 1854   1.252   3.210   0.388
  615SOL    HW1 1855   1.302   3.287   0.428
  615SOL    HW2 1856   1.157   3.212   0.420
  616SOL     OW 1857   1.272   3.307   1.142
  616SOL    HW1 1858   1.319   3.320   1.229
  616SOL    HW2 1859   1.206   3.233   1.151
  617SOL     OW 1860   1.582   2.501   0.472
  617SOL    HW1 1861   1.551   2.562   0.545
  617SOL    HW2 1862   1.632   2.553   0.403
  618SOL     OW 1863   0.354   3.372   1.329
  618SOL    HW1 1864   0.333   3.328   1.242
  618SOL    HW2 1865   0.451   3.398   1.332
  619SOL     OW 1866   0.402   2.613   1.598
  619SOL    HW1 1867   0.470   2.668   1.551
  619SOL    HW2 1868   0.442   2.525   1.625
  620SOL     OW 1869   1.587   2.641   1.670
  620SOL    HW1 1870   1.495   2.679   1.665
  620SOL    HW2 1871   1.647   2.688   1.605
  621SOL     OW 1872   1.013   1.967   1.770
  621SOL    HW1 1873   1.019   2.052   1.718
  621SOL    HW2 1874   1.045   1.891   1.713
  622SOL     OW 1875   0.504   1.912   1.740
  622SOL    HW1 1876   0.462   1.855   1.670
  622SOL    HW2 1877   0.438   1.981   1.772
  623SOL     OW 1878   0.573   2.732   1.029
  623SOL    HW1 1879   0.617   2.821   1.020
  623SOL    HW2 1880   0.510   2.732   1.106
  624SOL     OW 1881   1.360   2.724   1.045
  624SOL    HW1 1882   1.285   2.724   0.979
  624SOL    HW2 1883   1.397   2.632   1.054
  625SOL     OW 1884   1.209   2.387   0.275
  625SOL    HW1 1885   1.222   2.303   0.329
  625SOL    HW2 1886   1.180   2.461   0.335
  626SOL     OW 1887   0.307   2.075   1.231
  626SOL    HW1 1888   0.284   2.112   1.321
  626SOL    HW2 1889   0.277   1.980   1.225
  627SOL     OW 1890   0.037   3.172   1.282
  627SOL    HW1 1891   0.090   3.123   1.350
  627SOL    HW2 1892   0.059   3.270   1.287
  628SOL     OW 1893   0.732   2.496   1.064
  628SOL    HW1 1894   0.791   2.470   0.988
  628SOL    HW2 1895   0.704   2.592   1.053
  629SOL     OW 1896   1.728   2.797   1.854
  629SOL    HW1 1897   1.682   2.790   1.765
  629SOL    HW2 1898   1.666   2.841   1.920
  630SOL     OW 1899   0.307   1.925   0.618
  630SOL    HW1 1900   0.296   2.019   0.651
  630SOL    HW2 1901   0.302   1.862   0.695
  631SOL     OW 1902   1.622   2.229   0.374
  631SOL    HW1 1903   1.624   2.153   0.438
  631SOL    HW2 1904   1.574   2.306   0.414
  632SOL     OW 1905   1.023   2.628   0.966
  632SOL    HW1 1906   1.038   2.649   1.062
  632SOL    HW2 1907   0.993   2.533   0.957
  633SOL     OW 1908   0.980   3.435   1.700
  633SOL    HW1 1909   0.960   3.479   1.612
  633SOL    HW2 1910   1.019   3.344   1.684
  634SOL     OW 1911   1.859   3.380   1.605
  634SOL    HW1 1912   1.873   3.407   1.510
  634SOL    HW2 1913   1.942   3.402   1.658
  635SOL     OW 1914   0.350   2.760   1.804
  635SOL    HW1 1915   0.426   2.804   1.852
  635SOL    HW2 1916   0.385   2.713   1.722
  636SOL     OW 1917   1.540   2.136   0.125
  636SOL    HW1 1918   1.479   2.061   0.148
  636SOL    HW2 1919   1.562   2.188   0.208
  637SOL     OW 1920   1.303   2.700   0.042
  637SOL    HW1 1921   1.337   2.607   0.057
  637SOL    HW2 1922   1.321   2.727  -0.053
  638SOL     OW 1923   1.068   3.195   0.849
  638SOL    HW1 1924   1.075   3.111   0.794
  638SOL    HW2 1925   1.130   3.264   0.813
  639SOL     OW 1926   0.319   2.672   0.949
  639SOL    HW1 1927   0.412   2.708   0.954
  639SOL    HW2 1928   0.313   2.587   1.001
  640SOL     OW 1929   0.339   2.371   1.006
  640SOL    HW1 1930   0.287   2.288   0.989
  640SOL    HW2 1931   0.416   2.376   0.942
  641SOL     OW 1932   1.138   2.242   1.678
  641SOL    HW1 1933   1.093   2.305   1.742
  641SOL    HW2 1934   1.231   2.273   1.661
  642SOL     OW 1935   1.160   2.069   1.477
  642SOL    HW1 1936   1.160   2.133   1.554
  642SOL    HW2 1937   1.188   2.117   1.394
  643SOL     OW 1938   0.008   3.188   0.200
  643SOL    HW1 1939  -0.085   3.209   0.169
  643SOL    HW2 1940   0.018   3.089   0.213
  644SOL     OW 1941   0.088   3.663   0.927
  644SOL    HW1 1942   0.046   3.577   0.900
  644SOL    HW2 1943   0.182   3.666   0.893
  645SOL     OW 1944   0.504   3.430   0.910
  645SOL    HW1 1945   0.570   3.504   0.919
  645SOL    HW2 1946   0.548   3.351   0.868
  646SOL     OW 1947   1.002   2.658   1.238
  646SOL    HW1 1948   1.043   2.626   1.324
  646SOL    HW2 1949   0.906   2.631   1.235
  647SOL     OW 1950   0.040   2.406   1.114
  647SOL    HW1 1951   0.125   2.373   1.073
  647SOL    HW2 1952   0.053   2.421   1.212
  648SOL     OW 1953   0.189   2.382   1.722
  648SOL    HW1 1954   0.248   2.342   1.652
  648SOL    HW2 1955   0.131   2.453   1.681
  649SOL     OW 1956   1.369   2.812   1.660
  649SOL    HW1 1957   1.408   2.901   1.680
  649SOL    HW2 1958   1.379   2.792   1.563
  650SOL     OW 1959   0.815   2.434   0.325
  650SOL    HW1 1960   0.822   2.345   0.279
  650SOL    HW2 1961   0.721   2.468   0.317
  651SOL     OW 1962   1.657   2.466   1.206
  651SOL    HW1 1963   1.619   2.397   1.268
  651SOL    HW2 1964   1.739   2.430   1.162
  652SOL     OW 1965   0.252   3.426   1.744
  652SOL    HW1 1966   0.222   3.483   1.820
  652SOL    HW2 1967   0.245   3.329   1.770
  653SOL     OW 1968   0.671   2.326   1.269
  653SOL    HW1 1969   0.637   2.237   1.239
  653SOL    HW2 1970   0.697   2.380   1.189
  654SOL     OW 1971   0.930   3.540   1.465
  654SOL    HW1 1972   0.906   3.522   1.370
  654SOL    HW2 1973   0.960   3.634   1.475
  655SOL     OW 1974   0.473   2.362   0.191
  655SOL    HW1 1975   0.534   2.442   0.195
  655SOL    HW2 1976   0.378   2.393   0.198
  656SOL     OW 1977   0.159   2.999   1.466
  656SOL    HW1 1978   0.181   2.938   1.542
  656SOL    HW2 1979   0.169   2.950   1.380
  657SOL     OW 1980   1.347   2.921   1.234
  657SOL    HW1 1981   1.371   2.858   1.160
  657SOL    HW2 1982   1.257   2.961   1.216
  658SOL     OW 1983   1.302   2.717   0.309
  658SOL    HW1 1984   1.216   2.686   0.351
  658SOL    HW2 1985   1.298   2.703   0.210
  659SOL     OW 1986   1.759   3.609   1.154
  659SOL    HW1 1987   1.820   3.639   1.081
  659SOL    HW2 1988   1.721   3.520   1.132
  660SOL     OW 1989   1.252   3.593   1.128
  660SOL    HW1 1990   1.336   3.598   1.074
  660SOL    HW2 1991   1.229   3.497   1.146
  661SOL     OW 1992   0.083   3.120   1.022
  661SOL    HW1 1993   0.078   3.119   1.122
  661SOL    HW2 1994   0.000   3.079   0.984
  662SOL     OW 1995   0.688   3.524   1.716
  662SOL    HW1 1996   0.632   3.605   1.725
  662SOL    HW2 1997   0.740   3.528   1.630
  663SOL     OW 1998   0.903   1.948   0.133
  663SOL    HW1 1999   0.954   1.949   0.047
  663SOL    HW2 2000   0.959   1.906   0.204
  664SOL     OW 2001   1.726   1.997   0.523
  664SOL    HW1 2002   1.799   1.980   0.456
  664SOL    HW2 2003   1.695   1.910   0.561
  665SOL     OW 2004   1.388   3.435   0.477
  665SOL    HW1 2005   1.455   3.447   0.403
  665SOL    HW2 2006   1.348   3.524   0.500
  666SOL     OW 2007   0.130   3.656   1.851
  666SOL    HW1 2008   0.089   3.582   1.904
  666SOL    HW2 2009   0.194   3.707   1.909
  667SOL     OW 2010   1.280   2.789   0.672
  667SOL    HW1 2011   1.340   2.708   0.674
  667SOL    HW2 2012   1.320   2.858   0.612
  668SOL     OW 2013   0.830   3.135   1.422
  668SOL    HW1 2014   0.825   3.168   1.517
  668SOL    HW2 2015   0.744   3.154   1.376
  669SOL     OW 2016   0.672   3.478   0.154
  669SOL    HW1 2017   0.681   3.488   0.055
  669SOL    HW2 2018   0.632   3.389   0.175
  670SOL     OW 2019   1.650   3.582   1.394
  670SOL    HW1 2020   1.703   3.592   1.310
  670SOL    HW2 2021   1.623   3.672   1.428
  671SOL     OW 2022   1.841   2.037   0.963
  671SOL    HW1 2023   1.880   1.952   0.927
  671SOL    HW2 2024   1.743   2.039   0.944
  672SOL     OW 2025   0.263   2.188   0.720
  672SOL    HW1 2026   0.184   2.239   0.686
  672SOL    HW2 2027   0.254   2.173   0.818
  673SOL     OW 2028   1.194   3.474   0.031
  673SOL    HW1 2029   1.200   3.381   0.068
  673SOL    HW2 2030   1.135   3.474  -0.049
  674SOL     OW 2031   0.822   2.864   1.372
  674SOL    HW1 2032   0.862   2.863   1.280
  674SOL    HW2 2033   0.832   2.956   1.412
  675SOL     OW 2034   0.916   2.772   0.291
  675SOL    HW1 2035   0.979   2.810   0.223
  675SOL    HW2 2036   0.956   2.689   0.330
  676SOL     OW 2037   1.504   3.469   0.044
  676SOL    HW1 2038   1.412   3.506   0.051
  676SOL    HW2 2039   1.542   3.489  -0.046
  677SOL     OW 2040   0.372   3.150   1.490
  677SOL    HW1 2041   0.359   3.243   1.456
  677SOL    HW2 2042   0.288   3.098   1.477
  678SOL     OW 2043   1.614   3.154   1.289
  678SOL    HW1 2044   1.674   3.157   1.369
  678SOL    HW2 2045   1.539   3.218   1.302
  679SOL     OW 2046   1.039   2.960   0.696
  679SOL    HW1 2047   0.969   2.913   0.750
  679SOL    HW2 2048   1.098   2.892   0.653
  680SOL     OW 2049   1.014   2.098   0.971
  680SOL    HW1 2050   1.006   2.062   0.878
  680SOL    HW2 2051   1.012   2.022   1.036
  681SOL     OW 2052   0.590   3.349   0.491
  681SOL    HW1 2053   0.632   3.291   0.421
  681SOL    HW2 2054   0.546   3.428   0.447
  682SOL     OW 2055   1.709   2.247   1.381
  682SOL    HW1 2056   1.782   2.316   1.385
  682SOL    HW2 2057   1.737   2.172   1.322
  683SOL     OW 2058   0.255   3.210   0.290
  683SOL    HW1 2059   0.159   3.211   0.263
  683SOL    HW2 2060   0.267   3.263   0.374
  684SOL     OW 2061   0.105   2.875   1.726
  684SOL    HW1 2062   0.028   2.842   1.780
  684SOL    HW2 2063   0.190   2.845   1.768
  685SOL     OW 2064   0.672   2.065   1.489
  685SOL    HW1 2065   0.762   2.049   1.449
  685SOL    HW2 2066   0.680   2.070   1.588
  686SOL     OW 2067   0.075   2.207   0.033
  686SOL    HW1 2068  -0.017   2.179   0.004
  686SOL    HW2 2069   0.106   2.284  -0.023
  687SOL     OW 2070   1.440   2.718   1.398
  687SOL    HW1 2071   1.383   2.770   1.335
  687SOL    HW2 2072   1.536   2.730   1.374
  688SOL     OW 2073   0.072   2.028   0.318
  688SOL    HW1 2074   0.055   2.111   0.264
  688SOL    HW2 2075   0.162   1.991   0.296
  689SOL     OW 2076   1.183   3.197   0.119
  689SOL    HW1 2077   1.084   3.186   0.121
  689SOL    HW2 2078   1.217   3.212   0.212
  690SOL     OW 2079   0.613   2.704   1.431
  690SOL    HW1 2080   0.669   2.785   1.414
  690SOL    HW2 2081   0.672   2.624   1.434
  691SOL     OW 2082   1.493   3.629   0.959
  691SOL    HW1 2083   1.526   3.693   0.890
  691SOL    HW2 2084   1.559   3.623   1.034
  692SOL     OW 2085   0.716   2.427   1.708
  692SOL    HW1 2086   0.735   2.492   1.782
  692SOL    HW2 2087   0.776   2.347   1.717
  693SOL     OW 2088   1.450   3.082   1.633
  693SOL    HW1 2089   1.441   3.072   1.732
  693SOL    HW2 2090   1.546   3.075   1.607
  694SOL     OW 2091   0.390   3.603   1.560
  694SOL    HW1 2092   0.299   3.644   1.558
  694SOL    HW2 2093   0.383   3.509   1.592
  695SOL     OW 2094   1.674   2.745   1.254
  695SOL    HW1 2095   1.647   2.656   1.217
  695SOL    HW2 2096   1.675   2.813   1.181
  696SOL     OW 2097   1.225   2.187   0.449
  696SOL    HW1 2098   1.290   2.113   0.438
  696SOL    HW2 2099   1.245   2.237   0.533
  697SOL     OW 2100   0.594   2.607   0.652
  697SOL    HW1 2101   0.644   2.692   0.633
  697SOL    HW2 2102   0.506   2.609   0.604
  698SOL     OW 2103   1.777   2.204   1.642
  698SOL    HW1 2104   1.760   2.235   1.548
  698SOL    HW2 2105   1.693   2.167   1.680
  699SOL     OW 2106   1.730   2.796   1.517
  699SOL    HW1 2107   1.768   2.887   1.532
  699SOL    HW2 2108   1.722   2.779   1.418
  700SOL     OW 2109   0.859   3.236   0.016
  700SOL    HW1 2110   0.813   3.251   0.104
  700SOL    HW2 2111   0.903   3.321  -0.014
  701SOL     OW 2112   0.661   3.652   0.953
  701SOL    HW1 2113   0.615   3.740   0.940
  701SOL    HW2 2114   0.760   3.664   0.946
  702SOL     OW 2115   0.859   2.818   0.861
  702SOL    HW1 2116   0.913   2.749   0.909
  702SOL    HW2 2117   0.827   2.887   0.927
  703SOL     OW 2118   1.083   2.846   0.087
  703SOL    HW1 2119   1.060   2.899   0.005
  703SOL    HW2 2120   1.164   2.790   0.068
  704SOL     OW 2121   1.861   3.431   0.851
  704SOL    HW1 2122   1.790   3.419   0.781
  704SOL    HW2 2123   1.862   3.352   0.911
  705SOL     OW 2124   0.221   3.176   1.844
  705SOL    HW1 2125   0.156   3.103   1.823
  705SOL    HW2 2126   0.225   3.190   1.942
  706SOL     OW 2127   0.079   3.102   0.653
  706SOL    HW1 2128   0.078   3.055   0.741
  706SOL    HW2 2129   0.161   3.074   0.602
  707SOL     OW 2130   0.672   3.253   1.624
  707SOL    HW1 2131   0.594   3.203   1.662
  707SOL    HW2 2132   0.669   3.348   1.655
  708SOL     OW 2133   1.824   2.054   1.227
  708SOL    HW1 2134   1.820   1.964   1.271
  708SOL    HW2 2135   1.827   2.043   1.128
  709SOL     OW 2136   0.428   2.286   0.520
  709SOL    HW1 2137   0.458   2.214   0.458
  709SOL    HW2 2138   0.389   2.246   0.603
  710SOL     OW 2139   1.705   3.349   1.104
  710SOL    HW1 2140   1.612   3.324   1.077
  710SOL    HW2 2141   1.731   3.299   1.186
  711SOL     OW 2142   0.317   2.409   1.280
  711SOL    HW1 2143   0.355   2.350   1.352
  711SOL    HW2 2144   0.357   2.383   1.192
  712SOL     OW 2145   0.812   3.448   0.687
  712SOL    HW1 2146   0.844   3.458   0.593
  712SOL    HW2 2147   0.733   3.386   0.689
  713SOL     OW 2148   1.424   2.076   1.112
  713SOL    HW1 2149   1.476   2.011   1.167
  713SOL    HW2 2150   1.375   2.139   1.173
  714SOL     OW 2151   1.001   1.896   1.154
  714SOL    HW1 2152   0.938   1.824   1.123
  714SOL    HW2 2153   1.094   1.860   1.154
  715SOL     OW 2154   0.770   3.192   0.301
  715SOL    HW1 2155   0.724   3.105   0.318
  715SOL    HW2 2156   0.861   3.189   0.342
  716SOL     OW 2157   0.618   3.429   1.284
  716SOL    HW1 2158   0.613   3.511   1.341
  716SOL    HW2 2159   0.707   3.426   1.239
  717SOL     OW 2160   1.352   1.914   0.168
  717SOL    HW1 2161   1.387   1.873   0.084
  717SOL    HW2 2162   1.262   1.876   0.188
  718SOL     OW 2163   1.300   2.315   0.691
  718SOL    HW1 2164   1.241   2.395   0.695
  718SOL    HW2 2165   1.315   2.280   0.784
  719SOL     OW 2166   1.593   2.083   0.882
  719SOL    HW1 2167   1.509   2.082   0.936
  719SOL    HW2 2168   1.595   2.166   0.826
  720SOL     OW 2169   0.039   2.939   0.300
  720SOL    HW1 2170   0.138   2.928   0.291
  720SOL    HW2 2171  -0.001   2.853   0.332
  721SOL     OW 2172   0.875   3.508   0.337
  721SOL    HW1 2173   0.798   3.473   0.283
  721SOL    HW2 2174   0.843   3.579   0.399
  722SOL     OW 2175   0.230   2.490   1.975
  722SOL    HW1 2176   0.137   2.488   2.012
  722SOL    HW2 2177   0.231   2.451   1.883
  723SOL     OW 2178   0.225   2.137   2.858
  723SOL    HW1 2179   0.260   2.120   2.950
  723SOL    HW2 2180   0.137   2.092   2.846
  724SOL     OW 2181   0.019   2.230   2.509
  724SOL    HW1 2182  -0.063   2.273   2.548
  724SOL    HW2 2183  -0.009   2.157   2.446
  725SOL     OW 2184   0.569   3.137   3.027
  725SOL    HW1 2185   0.476   3.130   2.990
  725SOL    HW2 2186   0.580   3.226   3.071
  726SOL     OW 2187   1.555   3.373   2.565
  726SOL    HW1 2188   1.498   3.357   2.646
  726SOL    HW2 2189   1.496   3.383   2.485
  727SOL     OW 2190   1.135   2.565   2.579
  727SOL    HW1 2191   1.192   2.643   2.554
  727SOL    HW2 2192   1.075   2.591   2.655
  728SOL     OW 2193   1.755   2.469   2.093
  728SOL    HW1 2194   1.743   2.456   1.994
  728SOL    HW2 2195   1.725   2.388   2.142
  729SOL     OW 2196   0.768   3.006   2.885
  729SOL    HW1 2197   0.690   3.023   2.945
  729SOL    HW2 2198   0.802   3.093   2.849
  730SOL     OW 2199   0.850   2.660   3.685
  730SOL    HW1 2200   0.846   2.736   3.750
  730SOL    HW2 2201   0.872   2.696   3.594
  731SOL     OW 2202   0.685   2.874   2.527
  731SOL    HW1 2203   0.754   2.858   2.597
  731SOL    HW2 2204   0.612   2.931   2.565
  732SOL     OW 2205   0.686   3.023   3.665
  732SOL    HW1 2206   0.746   3.102   3.679
  732SOL    HW2 2207   0.600   3.054   3.624
  733SOL     OW 2208   0.335   3.297   2.923
  733SOL    HW1 2209   0.257   3.266   2.870
  733SOL    HW2 2210   0.393   3.355   2.866
  734SOL     OW 2211   1.460   3.367   3.201
  734SOL    HW1 2212   1.484   3.461   3.227
  734SOL    HW2 2213   1.444   3.313   3.283
  735SOL     OW 2214   0.438   2.254   3.361
  735SOL    HW1 2215   0.520   2.198   3.370
  735SOL    HW2 2216   0.357   2.196   3.365
  736SOL     OW 2217   1.603   2.309   2.599
  736SOL    HW1 2218   1.529   2.355   2.549
  736SOL    HW2 2219   1.654   2.377   2.652
  737SOL     OW 2220   0.231   3.575   2.345
  737SOL    HW1 2221   0.265   3.652   2.399
  737SOL    HW2 2222   0.275   3.575   2.255
  738SOL     OW 2223   1.127   3.203   3.552
  738SOL    HW1 2224   1.174   3.203   3.640
  738SOL    HW2 2225   1.079   3.116   3.541
  739SOL     OW 2226   0.230   3.296   2.400
  739SOL    HW1 2227   0.204   3.392   2.400
  739SOL    HW2 2228   0.159   3.242   2.445
  740SOL     OW 2229   0.240   2.953   2.748
  740SOL    HW1 2230   0.254   2.869   2.800
  740SOL    HW2 2231   0.185   3.017   2.803
  741SOL     OW 2232   0.620   3.648   3.301
  741SOL    HW1 2233   0.528   3.631   3.336
  741SOL    HW2 2234   0.648   3.740   3.327
  742SOL     OW 2235   0.606   2.826   1.985
  742SOL    HW1 2236   0.613   2.910   1.931
  742SOL    HW2 2237   0.652   2.839   2.073
  743SOL     OW 2238   1.594   1.976   3.342
  743SOL    HW1 2239   1.576   2.043   3.270
  743SOL    HW2 2240   1.591   2.022   3.431
  744SOL     OW 2241   0.122   2.505   2.425
  744SOL    HW1 2242   0.077   2.417   2.442
  744SOL    HW2 2243   0.121   2.559   2.509
  745SOL     OW 2244   1.842   3.629   2.221
  745SOL    HW1 2245   1.896   3.600   2.301
  745SOL    HW2 2246   1.872   3.719   2.192
  746SOL     OW 2247   0.027   3.458   1.979
  746SOL    HW1 2248   0.008   3.362   2.000
  746SOL    HW2 2249  -0.006   3.516   2.054
  747SOL     OW 2250   1.689   2.784   2.474
  747SOL    HW1 2251   1.784   2.755   2.482
  747SOL    HW2 2252   1.681   2.849   2.399
  748SOL     OW 2253   1.641   2.970   2.294
  748SOL    HW1 2254   1.727   2.972   2.242
  748SOL    HW2 2255   1.655   3.017   2.382
  749SOL     OW 2256   0.113   2.599   3.459
  749SOL    HW1 2257   0.201   2.586   3.504
  749SOL    HW2 2258   0.100   2.696   3.437
  750SOL     OW 2259   0.613   3.227   2.588
  750SOL    HW1 2260   0.564   3.140   2.597
  750SOL    HW2 2261   0.590   3.270   2.501
  751SOL     OW 2262   1.293   3.090   3.285
  751SOL    HW1 2263   1.330   3.017   3.227
  751SOL    HW2 2264   1.345   3.095   3.370
  752SOL     OW 2265   0.809   1.866   2.364
  752SOL    HW1 2266   0.849   1.957   2.355
  752SOL    HW2 2267   0.709   1.874   2.370
  753SOL     OW 2268   0.197   2.838   3.126
  753SOL    HW1 2269   0.286   2.793   3.112
  753SOL    HW2 2270   0.124   2.773   3.107
  754SOL     OW 2271   1.525   2.861   2.052
  754SOL    HW1 2272   1.462   2.785   2.065
  754SOL    HW2 2273   1.573   2.879   2.138
  755SOL     OW 2274   1.187   3.654   3.478
  755SOL    HW1 2275   1.211   3.714   3.402
  755SOL    HW2 2276   1.194   3.559   3.448
  756SOL     OW 2277   0.317   2.113   3.663
  756SOL    HW1 2278   0.388   2.184   3.669
  756SOL    HW2 2279   0.229   2.152   3.691
  757SOL     OW 2280   1.466   3.279   2.815
  757SOL    HW1 2281   1.407   3.285   2.895
  757SOL    HW2 2282   1.451   3.191   2.769
  758SOL     OW 2283   1.667   3.576   2.434
  758SOL    HW1 2284   1.626   3.553   2.346
  758SOL    HW2 2285   1.649   3.502   2.499
  759SOL     OW 2286   0.598   2.591   2.132
  759SOL    HW1 2287   0.622   2.660   2.064
  759SOL    HW2 2288   0.520   2.624   2.186
  760SOL     OW 2289   1.281   2.207   2.806
  760SOL    HW1 2290   1.195   2.157   2.793
  760SOL    HW2 2291   1.343   2.153   2.862
  761SOL     OW 2292   1.576   3.524   2.169
  761SOL    HW1 2293   1.665   3.570   2.172
  761SOL    HW2 2294   1.555   3.500   2.074
  762SOL     OW 2295   0.807   2.467   3.327
  762SOL    HW1 2296   0.760   2.464   3.416
  762SOL    HW2 2297   0.756   2.412   3.261
  763SOL     OW 2298   1.394   2.331   3.536
  763SOL    HW1 2299   1.374   2.374   3.624
  763SOL    HW2 2300   1.472   2.269   3.545
  764SOL     OW 2301   0.973   2.752   3.434
  764SOL    HW1 2302   1.019   2.668   3.405
  764SOL    HW2 2303   0.917   2.786   3.359
  765SOL     OW 2304   0.991   2.272   3.104
  765SOL    HW1 2305   0.914   2.306   3.158
  765SOL    HW2 2306   0.957   2.221   3.025
  766SOL     OW 2307   1.041   2.563   2.291
  766SOL    HW1 2308   1.067   2.559   2.387
  766SOL    HW2 2309   0.956   2.512   2.277
  767SOL     OW 2310   0.076   2.673   2.651
  767SOL    HW1 2311   0.175   2.661   2.660
  767SOL    HW2 2312   0.052   2.768   2.672
  768SOL     OW 2313   0.130   3.683   3.433
  768SOL    HW1 2314   0.120   3.668   3.532
  768SOL    HW2 2315   0.044   3.719   3.397
  769SOL     OW 2316   0.865   2.210   2.057
  769SOL    HW1 2317   0.924   2.273   2.008
  769SOL    HW2 2318   0.884   2.116   2.028
  770SOL     OW 2319   1.719   2.447   3.693
  770SOL    HW1 2320   1.693   2.536   3.657
  770SOL    HW2 2321   1.717   2.379   3.620
  771SOL     OW 2322   1.362   3.006   2.407
  771SOL    HW1 2323   1.445   2.977   2.359
  771SOL    HW2 2324   1.313   3.073   2.351
  772SOL     OW 2325   0.550   2.058   2.747
  772SOL    HW1 2326   0.545   2.053   2.847
  772SOL    HW2 2327   0.552   2.154   2.718
  773SOL     OW 2328   1.008   3.318   2.339
  773SOL    HW1 2329   0.962   3.390   2.287
  773SOL    HW2 2330   1.004   3.338   2.437
  774SOL     OW 2331   0.351   3.663   2.715
  774SOL    HW1 2332   0.401   3.577   2.721
  774SOL    HW2 2333   0.416   3.740   2.712
  775SOL     OW 2334   1.795   2.928   2.735
  775SOL    HW1 2335   1.733   2.913   2.659
  775SOL    HW2 2336   1.743   2.939   2.820
  776SOL     OW 2337   1.227   3.412   3.368
  776SOL    HW1 2338   1.233   3.335   3.432
  776SOL    HW2 2339   1.175   3.386   3.288
  777SOL     OW 2340   0.321   2.805   2.104
  777SOL    HW1 2341   0.403   2.844   2.062
  777SOL    HW2 2342   0.294   2.723   2.055
  778SOL     OW 2343   1.458   2.597   2.590
  778SOL    HW1 2344   1.453   2.532   2.665
  778SOL    HW2 2345   1.538   2.656   2.603
  779SOL     OW 2346   0.461   3.128   3.589
  779SOL    HW1 2347   0.411   3.129   3.503
  779SOL    HW2 2348   0.398   3.110   3.665
  780SOL     OW 2349   1.111   3.638   2.099
  780SOL    HW1 2350   1.051   3.576   2.149
  780SOL    HW2 2351   1.142   3.594   2.014
  781SOL     OW 2352   0.202   2.147   3.360
  781SOL    HW1 2353   0.122   2.207   3.347
  781SOL    HW2 2354   0.192   2.098   3.446
  782SOL     OW 2355   1.632   3.239   1.943
  782SOL    HW1 2356   1.600   3.333   1.933
  782SOL    HW2 2357   1.556   3.176   1.931
  783SOL     OW 2358   0.464   3.605   2.185
  783SOL    HW1 2359   0.497   3.644   2.271
  783SOL    HW2 2360   0.540   3.598   2.120
  784SOL     OW 2361   1.400   1.969   2.288
  784SOL    HW1 2362   1.376   1.932   2.198
  784SOL    HW2 2363   1.499   1.985   2.292
  785SOL     OW 2364   0.249   3.647   3.103
  785SOL    HW1 2365   0.306   3.582   3.153
  785SOL    HW2 2366   0.233   3.614   3.010
  786SOL     OW 2367   0.940   3.560   2.766
  786SOL    HW1 2368   1.020   3.503   2.787
  786SOL    HW2 2369   0.891   3.520   2.689
  787SOL     OW 2370   0.382   2.562   2.342
  787SOL    HW1 2371   0.427   2.472   2.339
  787SOL    HW2 2372   0.288   2.551   2.375
  788SOL     OW 2373   1.547   2.084   3.591
  788SOL    HW1 2374   1.542   2.121   3.683
  788SOL    HW2 2375   1.475   2.015   3.579
  789SOL     OW 2376   0.614   1.984   1.979
  789SOL    HW1 2377   0.712   1.962   1.986
  789SOL    HW2 2378   0.583   1.967   1.886
  790SOL     OW 2379   0.781   2.126   3.611
  790SOL    HW1 2380   0.848   2.065   3.654
  790SOL    HW2 2381   0.708   2.145   3.676
  791SOL     OW 2382   0.888   3.376   3.057
  791SOL    HW1 2383   0.865   3.351   2.963
  791SOL    HW2 2384   0.949   3.307   3.096
  792SOL     OW 2385   1.351   2.452   3.295
  792SOL    HW1 2386   1.379   2.409   3.380
  792SOL    HW2 2387   1.376   2.548   3.296
  793SOL     OW 2388   0.803   3.264   2.786
  793SOL    HW1 2389   0.893   3.278   2.744
  793SOL    HW2 2390   0.732   3.266   2.715
  794SOL     OW 2391   0.922   2.365   2.761
  794SOL    HW1 2392   0.897   2.356   2.665
  794SOL    HW2 2393   0.970   2.283   2.792
  795SOL     OW 2394   0.539   1.926   2.374
  795SOL    HW1 2395   0.458   1.927   2.432
  795SOL    HW2 2396   0.542   2.009   2.319
  796SOL     OW 2397   1.434   3.050   1.903
  796SOL    HW1 2398   1.466   2.974   1.960
  796SOL    HW2 2399   1.342   3.077   1.933
  797SOL     OW 2400   0.297   1.897   2.033
  797SOL    HW1 2401   0.346   1.981   2.012
  797SOL    HW2 2402   0.359   1.832   2.078
  798SOL     OW 2403   0.935   2.098   2.342
  798SOL    HW1 2404   0.887   2.139   2.264
  798SOL    HW2 2405   1.034   2.096   2.323
  799SOL     OW 2406   1.076   2.545   3.326
  799SOL    HW1 2407   0.996   2.484   3.329
  799SOL    HW2 2408   1.157   2.492   3.302
  800SOL     OW 2409   1.227   3.432   2.655
  800SOL    HW1 2410   1.248   3.506   2.590
  800SOL    HW2 2411   1.295   3.432   2.728
  801SOL     OW 2412   0.459   3.014   2.603
  801SOL    HW1 2413   0.388   2.987   2.668
  801SOL    HW2 2414   0.433   2.986   2.510
  802SOL     OW 2415   1.271   3.659   2.453
  802SOL    HW1 2416   1.315   3.723   2.389
  802SOL    HW2 2417   1.221   3.711   2.523
  803SOL     OW 2418   1.032   2.411   1.878
  803SOL    HW1 2419   0.991   2.493   1.839
  803SOL    HW2 2420   1.096   2.437   1.951
  804SOL     OW 2421   0.078   2.418   3.248
  804SOL    HW1 2422   0.170   2.417   3.207
  804SOL    HW2 2423   0.072   2.492   3.315
  805SOL     OW 2424   0.561   2.084   3.009
  805SOL    HW1 2425   0.599   2.000   3.046
  805SOL    HW2 2426   0.473   2.103   3.053
  806SOL     OW 2427   0.866   2.316   2.504
  806SOL    HW1 2428   0.834   2.388   2.442
  806SOL    HW2 2429   0.890   2.235   2.451
  807SOL     OW 2430   1.017   1.901   2.615
  807SOL    HW1 2431   0.945   1.906   2.546
  807SOL    HW2 2432   0.993   1.832   2.684
  808SOL     OW 2433   1.429   3.035   2.729
  808SOL    HW1 2434   1.374   2.951   2.722
  808SOL    HW2 2435   1.455   3.064   2.637
  809SOL     OW 2436   1.466   2.452   2.854
  809SOL    HW1 2437   1.436   2.357   2.861
  809SOL    HW2 2438   1.539   2.468   2.920
  810SOL     OW 2439   1.857   2.695   2.239
  810SOL    HW1 2440   1.899   2.631   2.303
  810SOL    HW2 2441   1.819   2.644   2.161
  811SOL     OW 2442   0.488   3.247   2.036
  811SOL    HW1 2443   0.401   3.232   2.083
  811SOL    HW2 2444   0.471   3.273   1.941
  812SOL     OW 2445   1.664   3.142   2.519
  812SOL    HW1 2446   1.763   3.150   2.533
  812SOL    HW2 2447   1.619   3.226   2.550
  813SOL     OW 2448   1.390   2.437   1.940
  813SOL    HW1 2449   1.336   2.416   2.021
  813SOL    HW2 2450   1.481   2.396   1.949
  814SOL     OW 2451   0.527   2.118   2.190
  814SOL    HW1 2452   0.554   2.059   2.115
  814SOL    HW2 2453   0.527   2.213   2.159
  815SOL     OW 2454   1.754   3.085   3.450
  815SOL    HW1 2455   1.845   3.046   3.437
  815SOL    HW2 2456   1.762   3.181   3.474
  816SOL     OW 2457   1.064   3.209   3.202
  816SOL    HW1 2458   0.984   3.186   3.257
  816SOL    HW2 2459   1.147   3.183   3.251
  817SOL     OW 2460   1.592   3.491   3.487
  817SOL    HW1 2461   1.619   3.525   3.397
  817SOL    HW2 2462   1.671   3.453   3.533
  818SOL     OW 2463   1.111   3.057   2.962
  818SOL    HW1 2464   1.071   3.101   3.043
  818SOL    HW2 2465   1.070   3.094   2.879
  819SOL     OW 2466   1.638   2.961   2.941
  819SOL    HW1 2467   1.643   3.042   3.000
  819SOL    HW2 2468   1.552   2.963   2.890
  820SOL     OW 2469   0.915   1.951   3.264
  820SOL    HW1 2470   0.940   1.931   3.169
  820SOL    HW2 2471   0.987   2.007   3.306
  821SOL     OW 2472   0.980   2.978   3.581
  821SOL    HW1 2473   0.881   2.984   3.591
  821SOL    HW2 2474   1.003   2.898   3.525
  822SOL     OW 2475   0.705   2.912   2.230
  822SOL    HW1 2476   0.691   2.919   2.329
  822SOL    HW2 2477   0.789   2.861   2.212
  823SOL     OW 2478   0.410   2.675   3.113
  823SOL    HW1 2479   0.496   2.687   3.163
  823SOL    HW2 2480   0.368   2.588   3.140
  824SOL     OW 2481   1.274   2.248   3.124
  824SOL    HW1 2482   1.295   2.322   3.188
  824SOL    HW2 2483   1.185   2.265   3.081
  825SOL     OW 2484   0.064   3.426   3.193
  825SOL    HW1 2485   0.018   3.508   3.159
  825SOL    HW2 2486   0.162   3.445   3.202
  826SOL     OW 2487   0.367   2.962   2.363
  826SOL    HW1 2488   0.360   3.045   2.307
  826SOL    HW2 2489   0.371   2.882   2.303
  827SOL     OW 2490   0.566   2.399   2.727
  827SOL    HW1 2491   0.578   2.465   2.653
  827SOL    HW2 2492   0.612   2.433   2.810
  828SOL     OW 2493   1.252   3.210   2.250
  828SOL    HW1 2494   1.302   3.287   2.290
  828SOL    HW2 2495   1.157   3.212   2.282
  829SOL     OW 2496   1.272   3.307   3.004
  829SOL    HW1 2497   1.319   3.320   3.091
  829SOL    HW2 2498   1.206   3.233   3.013
  830SOL     OW 2499   1.582   2.501   2.334
  830SOL    HW1 2500   1.551   2.562   2.407
  830SOL    HW2 2501   1.632   2.553   2.265
  831SOL     OW 2502   0.354   3.372   3.191
  831SOL    HW1 2503   0.333   3.328   3.104
  831SOL    HW2 2504   0.451   3.398   3.194
  832SOL     OW 2505   0.402   2.613   3.460
  832SOL    HW1 2506   0.470   2.668   3.413
  832SOL    HW2 2507   0.442   2.525   3.487
  833SOL     OW 2508   1.587   2.641   3.532
  833SOL    HW1 2509   1.495   2.679   3.527
  833SOL    HW2 2510   1.647   2.688   3.467
  834SOL     OW 2511   1.013   1.967   3.632
  834SOL    HW1 2512   1.019   2.052   3.580
  834SOL    HW2 2513   1.045   1.891   3.575
  835SOL     OW 2514   0.504   1.912   3.602
  835SOL    HW1 2515   0.462   1.855   3.532
  835SOL    HW2 2516   0.438   1.981   3.634
  836SOL     OW 2517   0.573   2.732   2.891
  836SOL    HW1 2518   0.617   2.821   2.882
  836SOL    HW2 2519   0.510   2.732   2.968
  837SOL     OW 2520   1.360   2.724   2.907
  837SOL    HW1 2521   1.285   2.724   2.841
  837SOL    HW2 2522   1.397   2.632   2.916
  838SOL     OW 2523   1.209   2.387   2.137
  838SOL    HW1 2524   1.222   2.303   2.191
  838SOL    HW2 2525   1.180   2.461   2.197
  839SOL     OW 2526   0.307   2.075   3.093
  839SOL    HW1 2527   0.284   2.112   3.183
  839SOL    HW2 2528   0.277   1.980   3.087
  840SOL     OW 2529   0.037   3.172   3.144
  840SOL    HW1 2530   0.090   3.123   3.212
  840SOL    HW2 2531   0.059   3.270   3.149
  841SOL     OW 2532   0.732   2.496   2.926
  841SOL    HW1 2533   0.791   2.470   2.850
  841SOL    HW2 2534   0.704   2.592   2.915
  842SOL     OW 2535   1.728   2.797   3.716
  842SOL    HW1 2536   1.682   2.790   3.627
  842SOL    HW2 2537   1.666   2.841   3.782
  843SOL     OW 2538   0.307   1.925   2.480
  843SOL    HW1 2539   0.296   2.019   2.513
  843SOL    HW2 2540   0.302   1.862   2.557
  844SOL     OW 2541   1.622   2.229   2.236
  844SOL    HW1 2542   1.624   2.153   2.300
  844SOL    HW2 2543   1.574   2.306   2.276
  845SOL     OW 2544   1.023   2.628   2.828
  845SOL    HW1 2545   1.038   2.649   2.924
  845SOL    HW2 2546   0.993   2.533   2.819
  846SOL     OW 2547   0.980   3.435   3.562
  846SOL    HW1 2548   0.960   3.479   3.474
  846SOL    HW2 2549   1.019   3.344   3.546
  847SOL     OW 2550   1.859   3.380   3.467
  847SOL    HW1 2551   1.873   3.407   3.372
  847SOL    HW2 2552   1.942   3.402   3.520
  848SOL     OW 2553   0.350   2.760   3.666
  848SOL    HW1 2554   0.426   2.804   3.714
  848SOL    HW2 2555   0.385   2.713   3.584
  849SOL     OW 2556   1.540   2.136   1.987
  849SOL    HW1 2557   1.479   2.061   2.010
  849SOL    HW2 2558   1.562   2.188   2.070
  850SOL     OW 2559   1.303   2.700   1.904
  850SOL    HW1 2560   1.337   2.607   1.919
  850SOL    HW2 2561   1.321   2.727   1.809
  851SOL     OW 2562   1.068   3.195   2.711
  851SOL    HW1 2563   1.075   3.111   2.656
  851SOL    HW2 2564   1.130   3.264   2.675
  852SOL     OW 2565   0.319   2.672   2.811
  852SOL    HW1 2566   0.412   2.708   2.816
  852SOL    HW2 2567   0.313   2.587   2.863
  853SOL     OW 2568   0.339   2.371   2.868
  853SOL    HW1 2569   0.287   2.288   2.851
  853SOL    HW2 2570   0.416   2.376   2.804
  854SOL     OW 2571   1.138   2.242   3.540
  854SOL    HW1 2572   1.093   2.305   3.604
  854SOL    HW2 2573   1.231   2.273   3.523
  855SOL     OW 2574   1.160   2.069   3.339
  855SOL    HW1 2575   1.160   2.133   3.416
  855SOL    HW2 2576   1.188   2.117   3.256
  856SOL     OW 2577   0.008   3.188   2.062
  856SOL    HW1 2578  -0.085   3.209   2.031
  856SOL    HW2 2579   0.018   3.089   2.075
  857SOL     OW 2580   0.088   3.663   2.789
  857SOL    HW1 2581   0.046   3.577   2.762
  857SOL    HW2 2582   0.182   3.666   2.755
  858SOL     OW 2583   0.504   3.430   2.772
  858SOL    HW1 2584   0.570   3.504   2.781
  858SOL    HW2 2585   0.548   3.351   2.730
  859SOL     OW 2586   1.002   2.658   3.100
  859SOL    HW1 2587   1.043   2.626   3.186
  859SOL    HW2 2588   0.906   2.631   3.097
  860SOL     OW 2589   0.040   2.406   2.976
  860SOL    HW1 2590   0.125   2.373   2.935
  860SOL    HW2 2591   0.053   2.421   3.074
  861SOL     OW 2592   0.189   2.382   3.584
  861SOL    HW1 2593   0.248   2.342   3.514
  861SOL    HW2 2594   0.131   2.453   3.543
  862SOL     OW 2595   1.369   2.812   3.522
  862SOL    HW1 2596   1.408   2.901   3.542
  862SOL    HW2 2597   1.379   2.792   3.425
  863SOL     OW 2598   0.815   2.434   2.187
  863SOL    HW1 2599   0.822   2.345   2.141
  863SOL    HW2 2600   0.721   2.468   2.179
  864SOL     OW 2601   1.657   2.466   3.068
  864SOL    HW1 2602   1.619   2.397   3.130
  864SOL    HW2 2603   1.739   2.430   3.024
  865SOL     OW 2604   0.252   3.426   3.606
  865SOL    HW1 2605   0.222   3.483   3.682
  865SOL    HW2 2606   0.245   3.329   3.632
  866SOL     OW 2607   0.671   2.326   3.131
  866SOL    HW1 2608   0.637   2.237   3.101
  866SOL    HW2 2609   0.697   2.380   3.051
  867SOL     OW 2610   0.930   3.540   3.327
  867SOL    HW1 2611   0.906   3.522   3.232
  867SOL    HW2 2612   0.960   3.634   3.337
  868SOL     OW 2613   0.473   2.362   2.053
  868SOL    HW1 2614   0.534   2.442   2.057
  868SOL    HW2 2615   0.378   2.393   2.060
  869SOL     OW 2616   0.159   2.999   3.328
  869SOL    HW1 2617   0.181   2.938   3.404
  869SOL    HW2 2618   0.169   2.950   3.242
  870SOL     OW 2619   1.347   2.921   3.096
  870SOL    HW1 2620   1.371   2.858   3.022
  870SOL    HW2 2621   1.257   2.961   3.078
  871SOL     OW 2622   1.302   2.717   2.171
  871SOL    HW1 2623   1.216   2.686   2.213
  871SOL    HW2 2624   1.298   2.703   2.072
  872SOL     OW 2625   1.759   3.609   3.016
  872SOL    HW1 2626   1.820   3.639   2.943
  872SOL    HW2 2627   1.721   3.520   2.994
  873SOL     OW 2628   1.252   3.593   2.990
  873SOL    HW1 2629   1.336   3.598   2.936
  873SOL    HW2 2630   1.229   3.497   3.008
  874SOL     OW 2631   0.083   3.120   2.884
  874SOL    HW1 2632   0.078   3.119   2.984
  874SOL    HW2 2633   0.000   3.079   2.846
  875SOL     OW 2634   0.688   3.524   3.578
  875SOL    HW1 2635   0.632   3.605   3.587
  875SOL    HW2 2636   0.740   3.528   3.492
  876SOL     OW 2637   1.726   1.997   2.385
  876SOL    HW1 2638   1.799   1.980   2.318
  876SOL    HW2 2639   1.695   1.910   2.423
  877SOL     OW 2640   1.388   3.435   2.339
  877SOL    HW1 2641   1.455   3.447   2.265
  877SOL    HW2 2642   1.348   3.524   2.362
  878SOL     OW 2643   0.130   3.656   3.713
  878SOL    HW1 2644   0.089   3.582   3.766
  878SOL    HW2 2645   0.194   3.707   3.771
  879SOL     OW 2646   1.280   2.789   2.534
  879SOL    HW1 2647   1.340   2.708   2.536
  879SOL    HW2 2648   1.320   2.858   2.474
  880SOL     OW 2649   0.830   3.135   3.284
  880SOL    HW1 2650   0.825   3.168   3.379
  880SOL    HW2 2651   0.744   3.154   3.238
  881SOL     OW 2652   0.672   3.478   2.016
  881SOL    HW1 2653   0.681   3.488   1.917
  881SOL    HW2 2654   0.632   3.389   2.037
  882SOL     OW 2655   1.650   3.582   3.256
  882SOL    HW1 2656   1.703   3.592   3.172
  882SOL    HW2 2657   1.623   3.672   3.290
  883SOL     OW 2658   1.841   2.037   2.825
  883SOL    HW1 2659   1.880   1.952   2.789
  883SOL    HW2 2660   1.743   2.039   2.806
  884SOL     OW 2661   0.263   2.188   2.582
  884SOL    HW1 2662   0.184   2.239   2.548
  884SOL    HW2 2663   0.254   2.173   2.680
  885SOL     OW 2664   1.194   3.474   1.893
  885SOL    HW1 2665   1.200   3.381   1.930
  885SOL    HW2 2666   1.135   3.474   1.813
  886SOL     OW 2667   0.822   2.864   3.234
  886SOL    HW1 2668   0.862   2.863   3.142
  886SOL    HW2 2669   0.832   2.956   3.274
  887SOL     OW 2670   0.916   2.772   2.153
  887SOL    HW1 2671   0.979   2.810   2.085
  887SOL    HW2 2672   0.956   2.689   2.192
  888SOL     OW 2673   1.504   3.469   1.906
  888SOL    HW1 2674   1.412   3.506   1.913
  888SOL    HW2 2675   1.542   3.489   1.816
  889SOL     OW 2676   0.372   3.150   3.352
  889SOL    HW1 2677   0.359   3.243   3.318
  889SOL    HW2 2678   0.288   3.098   3.339
  890SOL     OW 2679   1.614   3.154   3.151
  890SOL    HW1 2680   1.674   3.157   3.231
  890SOL    HW2 2681   1.539   3.218   3.164
  891SOL     OW 2682   1.039   2.960   2.558
  891SOL    HW1 2683   0.969   2.913   2.612
  891SOL    HW2 2684   1.098   2.892   2.515
  892SOL     OW 2685   1.014   2.098   2.833
  892SOL    HW1 2686   1.006   2.062   2.740
  892SOL    HW2 2687   1.012   2.022   2.898
  893SOL     OW 2688   0.590   3.349   2.353
  893SOL    HW1 2689   0.632   3.291   2.283
  893SOL    HW2 2690   0.546   3.428   2.309
  894SOL     OW 2691   1.709   2.247   3.243
  894SOL    HW1 2692   1.782   2.316   3.247
  894SOL    HW2 2693   1.737   2.172   3.184
  895SOL     OW 2694   0.255   3.210   2.152
  895SOL    HW1 2695   0.159   3.211   2.125
  895SOL    HW2 2696   0.267   3.263   2.236
  896SOL     OW 2697   0.105   2.875   3.588
  896SOL    HW1 2698   0.028   2.842   3.642
  896SOL    HW2 2699   0.190   2.845   3.630
  897SOL     OW 2700   0.672   2.065   3.351
  897SOL    HW1 2701   0.762   2.049   3.311
  897SOL    HW2 2702   0.680   2.070   3.450
  898SOL     OW 2703   0.075   2.207   1.895
  898SOL    HW1 2704  -0.017   2.179   1.866
  898SOL    HW2 2705   0.106   2.284   1.839
  899SOL     OW 2706   1.440   2.718   3.260
  899SOL    HW1 2707   1.383   2.770   3.197
  899SOL    HW2 2708   1.536   2.730   3.236
  900SOL     OW 2709   0.072   2.028   2.180
  900SOL    HW1 2710   0.055   2.111   2.126
  900SOL    HW2 2711   0.162   1.991   2.158
  901SOL     OW 2712   1.183   3.197   1.981
  901SOL    HW1 2713   1.084   3.186   1.983
  901SOL    HW2 2714   1.217   3.212   2.074
  902SOL     OW 2715   0.613   2.704   3.293
  902SOL    HW1 2716   0.669   2.785   3.276
  902SOL    HW2 2717   0.672   2.624   3.296
  903SOL     OW 2718   1.493   3.629   2.821
  903SOL    HW1 2719   1.526   3.693   2.752
  903SOL    HW2 2720   1.559   3.623   2.896
  904SOL     OW 2721   0.716   2.427   3.570
  904SOL    HW1 2722   0.735   2.492   3.644
  904SOL    HW2 2723   0.776   2.347   3.579
  905SOL     OW 2724   1.450   3.082   3.495
  905SOL    HW1 2725   1.441   3.072   3.594
  905SOL    HW2 2726   1.546   3.075   3.469
  906SOL     OW 2727   0.390   3.603   3.422
  906SOL    HW1 2728   0.299   3.644   3.420
  906SOL    HW2 2729   0.383   3.509   3.454
  907SOL     OW 2730   1.674   2.745   3.116
  907SOL    HW1 2731   1.647   2.656   3.079
  907SOL    HW2 2732   1.675   2.813   3.043
  908SOL     OW 2733   1.225   2.187   2.311
  908SOL    HW1 2734   1.290   2.113   2.300
  908SOL    HW2 2735   1.245   2.237   2.395
  909SOL     OW 2736   0.594   2.607   2.514
  909SOL    HW1 2737   0.644   2.692   2.495
  909SOL    HW2 2738   0.506   2.609   2.466
  910SOL     OW 2739   1.777   2.204   3.504
  910SOL    HW1 2740   1.760   2.235   3.410
  910SOL    HW2 2741   1.693   2.167   3.542
  911SOL     OW 2742   1.730   2.796   3.379
  911SOL    HW1 2743   1.768   2.887   3.394
  911SOL    HW2 2744   1.722   2.779   3.280
  912SOL     OW 2745   0.859   3.236   1.878
  912SOL    HW1 2746   0.813   3.251   1.966
  912SOL    HW2 2747   0.903   3.321   1.848
  913SOL     OW 2748   0.661   3.652   2.815
  913SOL    HW1 2749   0.615   3.740   2.802
  913SOL    HW2 2750   0.760   3.664   2.808
  914SOL     OW 2751   0.859   2.818   2.723
  914SOL    HW1 2752   0.913   2.749   2.771
  914SOL    HW2 2753   0.827   2.887   2.789
  915SOL     OW 2754   1.083   2.846   1.949
  915SOL    HW1 2755   1.060   2.899   1.867
  915SOL    HW2 2756   1.164   2.790   1.930
  916SOL     OW 2757   1.861   3.431   2.713
  916SOL    HW1 2758   1.790   3.419   2.643
  916SOL    HW2 2759   1.862   3.352   2.773
  917SOL     OW 2760   0.221   3.176   3.706
  917SOL    HW1 2761   0.156   3.103   3.685
  917SOL    HW2 2762   0.225   3.190   3.804
  918SOL     OW 2763   0.079   3.102   2.515
  918SOL    HW1 2764   0.078   3.055   2.603
  918SOL    HW2 2765   0.161   3.074   2.464
  919SOL     OW 2766   0.672   3.253   3.486
  919SOL    HW1 2767   0.594   3.203   3.524
  919SOL    HW2 2768   0.669   3.348   3.517
  920SOL     OW 2769   1.824   2.054   3.089
  920SOL    HW1 2770   1.820   1.964   3.133
  920SOL    HW2 2771   1.827   2.043   2.990
  921SOL     OW 2772   0.428   2.286   2.382
  921SOL    HW1 2773   0.458   2.214   2.320
  921SOL    HW2 2774   0.389   2.246   2.465
  922SOL     OW 2775   1.705   3.349   2.966
  922SOL    HW1 2776   1.612   3.324   2.939
  922SOL    HW2 2777   1.731   3.299   3.048
  923SOL     OW 2778   0.317   2.409   3.142
  923SOL    HW1 2779   0.355   2.350   3.214
  923SOL    HW2 2780   0.357   2.383   3.054
  924SOL     OW 2781   0.812   3.448   2.549
  924SOL    HW1 2782   0.844   3.458   2.455
  924SOL    HW2 2783   0.733   3.386   2.551
  925SOL     OW 2784   1.424   2.076   2.974
  925SOL    HW1 2785   1.476   2.011   3.029
  925SOL    HW2 2786   1.375   2.139   3.035
  926SOL     OW 2787   1.001   1.896   3.016
  926SOL    HW1 2788   0.938   1.824   2.985
  926SOL    HW2 2789   1.094   1.860   3.016
  927SOL     OW 2790   0.770   3.192   2.163
  927SOL    HW1 2791   0.724   3.105   2.180
  927SOL    HW2 2792   0.861   3.189   2.204
  928SOL     OW 2793   0.618   3.429   3.146
  928SOL    HW1 2794   0.613   3.511   3.203
  928SOL    HW2 2795   0.707   3.426   3.101
  929SOL     OW 2796   1.352   1.914   2.030
  929SOL    HW1 2797   1.387   1.873   1.946
  929SOL    HW2 2798   1.262   1.876   2.050
  930SOL     OW 2799   1.300   2.315   2.553
  930SOL    HW1 2800   1.241   2.395   2.557
  930SOL    HW2 2801   1.315   2.280   2.646
  931SOL     OW 2802   1.593   2.083   2.744
  931SOL    HW1 2803   1.509   2.082   2.798
  931SOL    HW2 2804   1.595   2.166   2.688
  932SOL     OW 2805   0.039   2.939   2.162
  932SOL    HW1 2806   0.138   2.928   2.153
  932SOL    HW2 2807  -0.001   2.853   2.194
  933SOL     OW 2808   0.875   3.508   2.199
  933SOL    HW1 2809   0.798   3.473   2.145
  933SOL    HW2 2810   0.843   3.579   2.261
  934SOL     OW 2811   0.230   2.490   3.837
  934SOL    HW1 2812   0.137   2.488   3.874
  934SOL    HW2 2813   0.231   2.451   3.745
  935SOL     OW 2814   1.135   2.565   4.441
  935SOL    HW1 2815   1.192   2.643   4.416
  935SOL    HW2 2816   1.075   2.591   4.517
  936SOL     OW 2817   1.755   2.469   3.955
  936SOL    HW1 2818   1.743   2.456   3.856
  936SOL    HW2 2819   1.725   2.388   4.004
  937SOL     OW 2820   1.603   2.309   4.461
  937SOL    HW1 2821   1.529   2.355   4.411
  937SOL    HW2 2822   1.654   2.377   4.514
  938SOL     OW 2823   0.231   3.575   4.207
  938SOL    HW1 2824   0.265   3.652   4.261
  938SOL    HW2 2825   0.275   3.575   4.117
  939SOL     OW 2826   0.230   3.296   4.262
  939SOL    HW1 2827   0.204   3.392   4.262
  939SOL    HW2 2828   0.159   3.242   4.307
  940SOL     OW 2829   0.606   2.826   3.847
  940SOL    HW1 2830   0.613   2.910   3.793
  940SOL    HW2 2831   0.652   2.839   3.935
  941SOL     OW 2832   0.122   2.505   4.287
  941SOL    HW1 2833   0.077   2.417   4.304
  941SOL    HW2 2834   0.121   2.559   4.371
  942SOL     OW 2835   1.842   3.629   4.083
  942SOL    HW1 2836   1.896   3.600   4.163
  942SOL    HW2 2837   1.872   3.719   4.054
  943SOL     OW 2838   0.027   3.458   3.841
  943SOL    HW1 2839   0.008   3.362   3.862
  943SOL    HW2 2840  -0.006   3.516   3.916
  944SOL     OW 2841   1.689   2.784   4.336
  944SOL    HW1 2842   1.784   2.755   4.344
  944SOL    HW2 2843   1.681   2.849   4.261
  945SOL     OW 2844   1.641   2.970   4.156
  945SOL    HW1 2845   1.727   2.972   4.104
  945SOL    HW2 2846   1.655   3.017   4.244
  946SOL     OW 2847   0.613   3.227   4.450
  946SOL    HW1 2848   0.564   3.140   4.459
  946SOL    HW2 2849   0.590   3.270   4.363
  947SOL     OW 2850   0.809   1.866   4.226
  947SOL    HW1 2851   0.849   1.957   4.217
  947SOL    HW2 2852   0.709   1.874   4.232
  948SOL     OW 2853   1.525   2.861   3.914
  948SOL    HW1 2854   1.462   2.785   3.927
  948SOL    HW2 2855   1.573   2.879   4.000
  949SOL     OW 2856   0.598   2.591   3.994
  949SOL    HW1 2857   0.622   2.660   3.926
  949SOL    HW2 2858   0.520   2.624   4.048
  950SOL     OW 2859   1.281   2.207   4.668
  950SOL    HW1 2860   1.195   2.157   4.655
  950SOL    HW2 2861   1.343   2.153   4.724
  951SOL     OW 2862   1.576   3.524   4.031
  951SOL    HW1 2863   1.665   3.570   4.034
  951SOL    HW2 2864   1.555   3.500   3.936
  952SOL     OW 2865   1.041   2.563   4.153
  952SOL    HW1 2866   1.067   2.559   4.249
  952SOL    HW2 2867   0.956   2.512   4.139
  953SOL     OW 2868   0.076   2.673   4.513
  953SOL    HW1 2869   0.175   2.661   4.522
  953SOL    HW2 2870   0.052   2.768   4.534
  954SOL     OW 2871   0.865   2.210   3.919
  954SOL    HW1 2872   0.924   2.273   3.870
  954SOL    HW2 2873   0.884   2.116   3.890
  955SOL     OW 2874   1.362   3.006   4.269
  955SOL    HW1 2875   1.445   2.977   4.221
  955SOL    HW2 2876   1.313   3.073   4.213
  956SOL     OW 2877   1.008   3.318   4.201
  956SOL    HW1 2878   0.962   3.390   4.149
  956SOL    HW2 2879   1.004   3.338   4.299
  957SOL     OW 2880   0.351   3.663   4.577
  957SOL    HW1 2881   0.401   3.577   4.583
  957SOL    HW2 2882   0.416   3.740   4.574
  958SOL     OW 2883   1.795   2.928   4.597
  958SOL    HW1 2884   1.733   2.913   4.521
  958SOL    HW2 2885   1.743   2.939   4.682
  959SOL     OW 2886   0.321   2.805   3.966
  959SOL    HW1 2887   0.403   2.844   3.924
  959SOL    HW2 2888   0.294   2.723   3.917
  960SOL     OW 2889   1.111   3.638   3.961
  960SOL    HW1 2890   1.051   3.576   4.011
  960SOL    HW2 2891   1.142   3.594   3.876
  961SOL     OW 2892   1.632   3.239   3.805
  961SOL    HW1 2893   1.600   3.333   3.795
  961SOL    HW2 2894   1.556   3.176   3.793
  962SOL     OW 2895   0.464   3.605   4.047
  962SOL    HW1 2896   0.497   3.644   4.133
  962SOL    HW2 2897   0.540   3.598   3.982
  963SOL     OW 2898   1.400   1.969   4.150
  963SOL    HW1 2899   1.376   1.932   4.060
  963SOL    HW2 2900   1.499   1.985   4.154
  964SOL     OW 2901   0.940   3.560   4.628
  964SOL    HW1 2902   1.020   3.503   4.649
  964SOL    HW2 2903   0.891   3.520   4.551
  965SOL     OW 2904   0.382   2.562   4.204
  965SOL    HW1 2905   0.427   2.472   4.201
  965SOL    HW2 2906   0.288   2.551   4.237
  966SOL     OW 2907   0.614   1.984   3.841
  966SOL    HW1 2908   0.712   1.962   3.848
  966SOL    HW2 2909   0.583   1.967   3.748
  967SOL     OW 2910   0.539   1.926   4.236
  967SOL    HW1 2911   0.458   1.927   4.294
  967SOL    HW2 2912   0.542   2.009   4.181
  968SOL     OW 2913   1.434   3.050   3.765
  968SOL    HW1 2914   1.466   2.974   3.822
  968SOL    HW2 2915   1.342   3.077   3.795
  969SOL     OW 2916   0.297   1.897   3.895
  969SOL    HW1 2917   0.346   1.981   3.874
  969SOL    HW2 2918   0.359   1.832   3.940
  970SOL     OW 2919   0.935   2.098   4.204
  970SOL    HW1 2920   0.887   2.139   4.126
  970SOL    HW2 2921   1.034   2.096   4.185
  971SOL     OW 2922   0.459   3.014   4.465
  971SOL    HW1 2923   0.388   2.987   4.530
  971SOL    HW2 2924   0.433   2.986   4.372
  972SOL     OW 2925   1.271   3.659   4.315
  972SOL    HW1 2926   1.315   3.723   4.251
  972SOL    HW2 2927   1.221   3.711   4.385
  973SOL     OW 2928   1.032   2.411   3.740
  973SOL    HW1 2929   0.991   2.493   3.701
  973SOL    HW2 2930   1.096   2.437   3.813
  974SOL     OW 2931   0.866   2.316   4.366
  974SOL    HW1 2932   0.834   2.388   4.304
  974SOL    HW2 2933   0.890   2.235   4.313
  975SOL     OW 2934   1.857   2.695   4.101
  975SOL    HW1 2935   1.899   2.631   4.165
  975SOL    HW2 2936   1.819   2.644   4.023
  976SOL     OW 2937   0.488   3.247   3.898
  976SOL    HW1 2938   0.401   3.232   3.945
  976SOL    HW2 2939   0.471   3.273   3.803
  977SOL     OW 2940   1.390   2.437   3.802
  977SOL    HW1 2941   1.336   2.416   3.883
  977SOL    HW2 2942   1.481   2.396   3.811
  978SOL     OW 2943   0.527   2.118   4.052
  978SOL    HW1 2944   0.554   2.059   3.977
  978SOL    HW2 2945   0.527   2.213   4.021
  979SOL     OW 2946   1.111   3.057   4.824
  979SOL    HW1 2947   1.071   3.101   4.905
  979SOL    HW2 2948   1.070   3.094   4.741
  980SOL     OW 2949   0.705   2.912   4.092
  980SOL    HW1 2950   0.691   2.919   4.191
  980SOL    HW2 2951   0.789   2.861   4.074
  981SOL     OW 2952   0.367   2.962   4.225
  981SOL    HW1 2953   0.360   3.045   4.169
  981SOL    HW2 2954   0.371   2.882   4.165
  982SOL     OW 2955   1.252   3.210   4.112
  982SOL    HW1 2956   1.302   3.287   4.152
  982SOL    HW2 2957   1.157   3.212   4.144
  983SOL     OW 2958   1.582   2.501   4.196
  983SOL    HW1 2959   1.551   2.562   4.269
  983SOL    HW2 2960   1.632   2.553   4.127
  984SOL     OW 2961   1.209   2.387   3.999
  984SOL    HW1 2962   1.222   2.303   4.053
  984SOL    HW2 2963   1.180   2.461   4.059
  985SOL     OW 2964   0.307   1.925   4.342
  985SOL    HW1 2965   0.296   2.019   4.375
  985SOL    HW2 2966   0.302   1.862   4.419
  986SOL     OW 2967   1.622   2.229   4.098
  986SOL    HW1 2968   1.624   2.153   4.162
  986SOL    HW2 2969   1.574   2.306   4.138
  987SOL     OW 2970   1.540   2.136   3.849
  987SOL    HW1 2971   1.479   2.061   3.872
  987SOL    HW2 2972   1.562   2.188   3.932
  988SOL     OW 2973   1.303   2.700   3.766
  988SOL    HW1 2974   1.337   2.607   3.781
  988SOL    HW2 2975   1.321   2.727   3.671
  989SOL     OW 2976   0.008   3.188   3.924
  989SOL    HW1 2977  -0.085   3.209   3.893
  989SOL    HW2 2978   0.018   3.089   3.937
  990SOL     OW 2979   0.815   2.434   4.049
  990SOL    HW1 2980   0.822   2.345   4.003
  990SOL    HW2 2981   0.721   2.468   4.041
  991SOL     OW 2982   0.473   2.362   3.915
  991SOL    HW1 2983   0.534   2.442   3.919
  991SOL    HW2 2984   0.378   2.393   3.922
  992SOL     OW 2985   1.302   2.717   4.033
  992SOL    HW1 2986   1.216   2.686   4.075
  992SOL    HW2 2987   1.298   2.703   3.934
  993SOL     OW 2988   1.726   1.997   4.247
  993SOL    HW1 2989   1.799   1.980   4.180
  993SOL    HW2 2990   1.695   1.910   4.285
  994SOL     OW 2991   1.388   3.435   4.201
  994SOL    HW1 2992   1.455   3.447   4.127
  994SOL    HW2 2993   1.348   3.524   4.224
  995SOL     OW 2994   0.672   3.478   3.878
  995SOL    HW1 2995   0.681   3.488   3.779
  995SOL    HW2 2996   0.632   3.389   3.899
  996SOL     OW 2997   1.841   2.037   4.687
  996SOL    HW1 2998   1.880   1.952   4.651
  996SOL    HW2 2999   1.743   2.039   4.668
  997SOL     OW 3000   1.194   3.474   3.755
  997SOL    HW1 3001   1.200   3.381   3.792
  997SOL    HW2 3002   1.135   3.474   3.675
  998SOL     OW 3003   0.916   2.772   4.015
  998SOL    HW1 3004   0.979   2.810   3.947
  998SOL    HW2 3005   0.956   2.689   4.054
  999SOL     OW 3006   1.504   3.469   3.768
  999SOL    HW1 3007   1.412   3.506   3.775
  999SOL    HW2 3008   1.542   3.489   3.678
 1000SOL     OW 3009   0.590   3.349   4.215
 1000SOL    HW1 3010   0.632   3.291   4.145
 1000SOL    HW2 3011   0.546   3.428   4.171
 1001SOL     OW 3012   0.255   3.210   4.014
 1001SOL    HW1 3013   0.159   3.211   3.987
 1001SOL    HW2 3014   0.267   3.263   4.098
 1002SOL     OW 3015   0.075   2.207   3.757
 1002SOL    HW1 3016  -0.017   2.179   3.728
 1002SOL    HW2 3017   0.106   2.284   3.701
 1003SOL     OW 3018   0.072   2.028   4.042
 1003SOL    HW1 3019   0.055   2.111   3.988
 1003SOL    HW2 3020   0.162   1.991   4.020
 1004SOL     OW 3021   1.183   3.197   3.843
 1004SOL    HW1 3022   1.084   3.186   3.845
 1004SOL    HW2 3023   1.217   3.212   3.936
 1005SOL     OW 3024   1.225   2.187   4.173
 1005SOL    HW1 3025   1.290   2.113   4.162
 1005SOL    HW2 3026   1.245   2.237   4.257
 1006SOL     OW 3027   0.594   2.607   4.376
 1006SOL    HW1 3028   0.644   2.692   4.357
 1006SOL    HW2 3029   0.506   2.609   4.328
 1007SOL     OW 3030   0.859   3.236   3.740
 1007SOL    HW1 3031   0.813   3.251   3.828
 1007SOL    HW2 3032   0.903   3.321   3.710
 1008SOL     OW 3033   1.083   2.846   3.811
 1008SOL    HW1 3034   1.060   2.899   3.729
 1008SOL    HW2 3035   1.164   2.790   3.792
 1009SOL     OW 3036   0.079   3.102   4.377
 1009SOL    HW1 3037   0.078   3.055   4.465
 1009SOL    HW2 3038   0.161   3.074   4.326
 1010SOL     OW 3039   0.428   2.286   4.244
 1010SOL    HW1 3040   0.458   2.214   4.182
 1010SOL    HW2 3041   0.389   2.246   4.327
 1011SOL     OW 3042   0.812   3.448   4.411
 1011SOL    HW1 3043   0.844   3.458   4.317
 1011SOL    HW2 3044   0.733   3.386   4.413
 1012SOL     OW 3045   0.770   3.192   4.025
 1012SOL    HW1 3046   0.724   3.105   4.042
 1012SOL    HW2 3047   0.861   3.189   4.066
 1013SOL     OW 3048   1.352   1.914   3.892
 1013SOL    HW1 3049   1.387   1.873   3.808
 1013SOL    HW2 3050   1.262   1.876   3.912
 1014SOL     OW 3051   1.300   2.315   4.415
 1014SOL    HW1 3052   1.241   2.395   4.419
 1014SOL    HW2 3053   1.315   2.280   4.508
 1015SOL     OW 3054   0.039   2.939   4.024
 1015SOL    HW1 3055   0.138   2.928   4.015
 1015SOL    HW2 3056  -0.001   2.853   4.056
 1016SOL     OW 3057   0.875   3.508   4.061
 1016SOL    HW1 3058   0.798   3.473   4.007
 1016SOL    HW2 3059   0.843   3.579   4.123
 1017SOL     OW 3060   0.230   4.352   0.113
 1017SOL    HW1 3061   0.137   4.350   0.150
 1017SOL    HW2 3062   0.231   4.313   0.021
 1018SOL     OW 3063   0.225   3.999   0.996
 1018SOL    HW1 3064   0.260   3.982   1.088
 1018SOL    HW2 3065   0.137   3.954   0.984
 1019SOL     OW 3066   0.019   4.092   0.647
 1019SOL    HW1 3067  -0.063   4.135   0.686
 1019SOL    HW2 3068  -0.009   4.019   0.584
 1020SOL     OW 3069   1.755   4.331   0.231
 1020SOL    HW1 3070   1.743   4.318   0.132
 1020SOL    HW2 3071   1.725   4.250   0.280
 1021SOL     OW 3072   0.685   4.736   0.665
 1021SOL    HW1 3073   0.754   4.720   0.735
 1021SOL    HW2 3074   0.612   4.793   0.703
 1022SOL     OW 3075   0.438   4.116   1.499
 1022SOL    HW1 3076   0.520   4.060   1.508
 1022SOL    HW2 3077   0.357   4.058   1.503
 1023SOL     OW 3078   1.603   4.171   0.737
 1023SOL    HW1 3079   1.529   4.217   0.687
 1023SOL    HW2 3080   1.654   4.239   0.790
 1024SOL     OW 3081   1.594   3.838   1.480
 1024SOL    HW1 3082   1.576   3.905   1.408
 1024SOL    HW2 3083   1.591   3.884   1.569
 1025SOL     OW 3084   0.122   4.367   0.563
 1025SOL    HW1 3085   0.077   4.279   0.580
 1025SOL    HW2 3086   0.121   4.421   0.647
 1026SOL     OW 3087   0.113   4.461   1.597
 1026SOL    HW1 3088   0.201   4.448   1.642
 1026SOL    HW2 3089   0.100   4.558   1.575
 1027SOL     OW 3090   0.809   3.728   0.502
 1027SOL    HW1 3091   0.849   3.819   0.493
 1027SOL    HW2 3092   0.709   3.736   0.508
 1028SOL     OW 3093   0.317   3.975   1.801
 1028SOL    HW1 3094   0.388   4.046   1.807
 1028SOL    HW2 3095   0.229   4.014   1.829
 1029SOL     OW 3096   1.281   4.069   0.944
 1029SOL    HW1 3097   1.195   4.019   0.931
 1029SOL    HW2 3098   1.343   4.015   1.000
 1030SOL     OW 3099   0.807   4.329   1.465
 1030SOL    HW1 3100   0.760   4.326   1.554
 1030SOL    HW2 3101   0.756   4.274   1.399
 1031SOL     OW 3102   1.394   4.193   1.674
 1031SOL    HW1 3103   1.374   4.236   1.762
 1031SOL    HW2 3104   1.472   4.131   1.683
 1032SOL     OW 3105   0.991   4.134   1.242
 1032SOL    HW1 3106   0.914   4.168   1.296
 1032SOL    HW2 3107   0.957   4.083   1.163
 1033SOL     OW 3108   1.041   4.425   0.429
 1033SOL    HW1 3109   1.067   4.421   0.525
 1033SOL    HW2 3110   0.956   4.374   0.415
 1034SOL     OW 3111   0.076   4.535   0.789
 1034SOL    HW1 3112   0.175   4.523   0.798
 1034SOL    HW2 3113   0.052   4.630   0.810
 1035SOL     OW 3114   0.865   4.072   0.195
 1035SOL    HW1 3115   0.924   4.135   0.146
 1035SOL    HW2 3116   0.884   3.978   0.166
 1036SOL     OW 3117   1.719   4.309   1.831
 1036SOL    HW1 3118   1.693   4.398   1.795
 1036SOL    HW2 3119   1.717   4.241   1.758
 1037SOL     OW 3120   0.550   3.920   0.885
 1037SOL    HW1 3121   0.545   3.915   0.985
 1037SOL    HW2 3122   0.552   4.016   0.856
 1038SOL     OW 3123   1.458   4.459   0.728
 1038SOL    HW1 3124   1.453   4.394   0.803
 1038SOL    HW2 3125   1.538   4.518   0.741
 1039SOL     OW 3126   0.202   4.009   1.498
 1039SOL    HW1 3127   0.122   4.069   1.485
 1039SOL    HW2 3128   0.192   3.960   1.584
 1040SOL     OW 3129   1.400   3.831   0.426
 1040SOL    HW1 3130   1.376   3.794   0.336
 1040SOL    HW2 3131   1.499   3.847   0.430
 1041SOL     OW 3132   0.382   4.424   0.480
 1041SOL    HW1 3133   0.427   4.334   0.477
 1041SOL    HW2 3134   0.288   4.413   0.513
 1042SOL     OW 3135   1.547   3.946   1.729
 1042SOL    HW1 3136   1.542   3.983   1.821
 1042SOL    HW2 3137   1.475   3.877   1.717
 1043SOL     OW 3138   0.614   3.846   0.117
 1043SOL    HW1 3139   0.712   3.824   0.124
 1043SOL    HW2 3140   0.583   3.829   0.024
 1044SOL     OW 3141   0.781   3.988   1.749
 1044SOL    HW1 3142   0.848   3.927   1.792
 1044SOL    HW2 3143   0.708   4.007   1.814
 1045SOL     OW 3144   1.351   4.314   1.433
 1045SOL    HW1 3145   1.379   4.271   1.518
 1045SOL    HW2 3146   1.376   4.410   1.434
 1046SOL     OW 3147   0.922   4.227   0.899
 1046SOL    HW1 3148   0.897   4.218   0.803
 1046SOL    HW2 3149   0.970   4.145   0.930
 1047SOL     OW 3150   0.539   3.788   0.512
 1047SOL    HW1 3151   0.458   3.789   0.570
 1047SOL    HW2 3152   0.542   3.871   0.457
 1048SOL     OW 3153   0.935   3.960   0.480
 1048SOL    HW1 3154   0.887   4.001   0.402
 1048SOL    HW2 3155   1.034   3.958   0.461
 1049SOL     OW 3156   1.076   4.407   1.464
 1049SOL    HW1 3157   0.996   4.346   1.467
 1049SOL    HW2 3158   1.157   4.354   1.440
 1050SOL     OW 3159   1.032   4.273   0.016
 1050SOL    HW1 3160   0.991   4.355  -0.023
 1050SOL    HW2 3161   1.096   4.299   0.089
 1051SOL     OW 3162   0.078   4.280   1.386
 1051SOL    HW1 3163   0.170   4.279   1.345
 1051SOL    HW2 3164   0.072   4.354   1.453
 1052SOL     OW 3165   0.561   3.946   1.147
 1052SOL    HW1 3166   0.599   3.862   1.184
 1052SOL    HW2 3167   0.473   3.965   1.191
 1053SOL     OW 3168   0.866   4.178   0.642
 1053SOL    HW1 3169   0.834   4.250   0.580
 1053SOL    HW2 3170   0.890   4.097   0.589
 1054SOL     OW 3171   1.017   3.763   0.753
 1054SOL    HW1 3172   0.945   3.768   0.684
 1054SOL    HW2 3173   0.993   3.694   0.822
 1055SOL     OW 3174   1.466   4.314   0.992
 1055SOL    HW1 3175   1.436   4.219   0.999
 1055SOL    HW2 3176   1.539   4.330   1.058
 1056SOL     OW 3177   1.390   4.299   0.078
 1056SOL    HW1 3178   1.336   4.278   0.159
 1056SOL    HW2 3179   1.481   4.258   0.087
 1057SOL     OW 3180   0.527   3.980   0.328
 1057SOL    HW1 3181   0.554   3.921   0.253
 1057SOL    HW2 3182   0.527   4.075   0.297
 1058SOL     OW 3183   0.915   3.813   1.402
 1058SOL    HW1 3184   0.940   3.793   1.307
 1058SOL    HW2 3185   0.987   3.869   1.444
 1059SOL     OW 3186   1.274   4.110   1.262
 1059SOL    HW1 3187   1.295   4.184   1.326
 1059SOL    HW2 3188   1.185   4.127   1.219
 1060SOL     OW 3189   0.566   4.261   0.865
 1060SOL    HW1 3190   0.578   4.327   0.791
 1060SOL    HW2 3191   0.612   4.295   0.948
 1061SOL     OW 3192   1.582   4.363   0.472
 1061SOL    HW1 3193   1.551   4.424   0.545
 1061SOL    HW2 3194   1.632   4.415   0.403
 1062SOL     OW 3195   1.013   3.829   1.770
 1062SOL    HW1 3196   1.019   3.914   1.718
 1062SOL    HW2 3197   1.045   3.753   1.713
 1063SOL     OW 3198   0.504   3.774   1.740
 1063SOL    HW1 3199   0.462   3.717   1.670
 1063SOL    HW2 3200   0.438   3.843   1.772
 1064SOL     OW 3201   1.209   4.249   0.275
 1064SOL    HW1 3202   1.222   4.165   0.329
 1064SOL    HW2 3203   1.180   4.323   0.335
 1065SOL     OW 3204   0.307   3.937   1.231
 1065SOL    HW1 3205   0.284   3.974   1.321
 1065SOL    HW2 3206   0.277   3.842   1.225
 1066SOL     OW 3207   0.732   4.358   1.064
 1066SOL    HW1 3208   0.791   4.332   0.988
 1066SOL    HW2 3209   0.704   4.454   1.053
 1067SOL     OW 3210   0.307   3.787   0.618
 1067SOL    HW1 3211   0.296   3.881   0.651
 1067SOL    HW2 3212   0.302   3.724   0.695
 1068SOL     OW 3213   1.622   4.091   0.374
 1068SOL    HW1 3214   1.624   4.015   0.438
 1068SOL    HW2 3215   1.574   4.168   0.414
 1069SOL     OW 3216   1.540   3.998   0.125
 1069SOL    HW1 3217   1.479   3.923   0.148
 1069SOL    HW2 3218   1.562   4.050   0.208
 1070SOL     OW 3219   0.319   4.534   0.949
 1070SOL    HW1 3220   0.412   4.570   0.954
 1070SOL    HW2 3221   0.313   4.449   1.001
 1071SOL     OW 3222   0.339   4.233   1.006
 1071SOL    HW1 3223   0.287   4.150   0.989
 1071SOL    HW2 3224   0.416   4.238   0.942
 1072SOL     OW 3225   1.138   4.104   1.678
 1072SOL    HW1 3226   1.093   4.167   1.742
 1072SOL    HW2 3227   1.231   4.135   1.661
 1073SOL     OW 3228   1.160   3.931   1.477
 1073SOL    HW1 3229   1.160   3.995   1.554
 1073SOL    HW2 3230   1.188   3.979   1.394
 1074SOL     OW 3231   0.040   4.268   1.114
 1074SOL    HW1 3232   0.125   4.235   1.073
 1074SOL    HW2 3233   0.053   4.283   1.212
 1075SOL     OW 3234   0.189   4.244   1.722
 1075SOL    HW1 3235   0.248   4.204   1.652
 1075SOL    HW2 3236   0.131   4.315   1.681
 1076SOL     OW 3237   0.815   4.296   0.325
 1076SOL    HW1 3238   0.822   4.207   0.279
 1076SOL    HW2 3239   0.721   4.330   0.317
 1077SOL     OW 3240   1.657   4.328   1.206
 1077SOL    HW1 3241   1.619   4.259   1.268
 1077SOL    HW2 3242   1.739   4.292   1.162
 1078SOL     OW 3243   0.671   4.188   1.269
 1078SOL    HW1 3244   0.637   4.099   1.239
 1078SOL    HW2 3245   0.697   4.242   1.189
 1079SOL     OW 3246   0.473   4.224   0.191
 1079SOL    HW1 3247   0.534   4.304   0.195
 1079SOL    HW2 3248   0.378   4.255   0.198
 1080SOL     OW 3249   0.903   3.810   0.133
 1080SOL    HW1 3250   0.954   3.811   0.047
 1080SOL    HW2 3251   0.959   3.768   0.204
 1081SOL     OW 3252   1.726   3.859   0.523
 1081SOL    HW1 3253   1.799   3.842   0.456
 1081SOL    HW2 3254   1.695   3.772   0.561
 1082SOL     OW 3255   1.280   4.651   0.672
 1082SOL    HW1 3256   1.340   4.570   0.674
 1082SOL    HW2 3257   1.320   4.720   0.612
 1083SOL     OW 3258   1.841   3.899   0.963
 1083SOL    HW1 3259   1.880   3.814   0.927
 1083SOL    HW2 3260   1.743   3.901   0.944
 1084SOL     OW 3261   0.263   4.050   0.720
 1084SOL    HW1 3262   0.184   4.101   0.686
 1084SOL    HW2 3263   0.254   4.035   0.818
 1085SOL     OW 3264   1.014   3.960   0.971
 1085SOL    HW1 3265   1.006   3.924   0.878
 1085SOL    HW2 3266   1.012   3.884   1.036
 1086SOL     OW 3267   1.709   4.109   1.381
 1086SOL    HW1 3268   1.782   4.178   1.385
 1086SOL    HW2 3269   1.737   4.034   1.322
 1087SOL     OW 3270   0.672   3.927   1.489
 1087SOL    HW1 3271   0.762   3.911   1.449
 1087SOL    HW2 3272   0.680   3.932   1.588
 1088SOL     OW 3273   0.075   4.069   0.033
 1088SOL    HW1 3274  -0.017   4.041   0.004
 1088SOL    HW2 3275   0.106   4.146  -0.023
 1089SOL     OW 3276   0.072   3.890   0.318
 1089SOL    HW1 3277   0.055   3.973   0.264
 1089SOL    HW2 3278   0.162   3.853   0.296
 1090SOL     OW 3279   0.716   4.289   1.708
 1090SOL    HW1 3280   0.735   4.354   1.782
 1090SOL    HW2 3281   0.776   4.209   1.717
 1091SOL     OW 3282   1.225   4.049   0.449
 1091SOL    HW1 3283   1.290   3.975   0.438
 1091SOL    HW2 3284   1.245   4.099   0.533
 1092SOL     OW 3285   1.777   4.066   1.642
 1092SOL    HW1 3286   1.760   4.097   1.548
 1092SOL    HW2 3287   1.693   4.029   1.680
 1093SOL     OW 3288   1.083   4.708   0.087
 1093SOL    HW1 3289   1.060   4.761   0.005
 1093SOL    HW2 3290   1.164   4.652   0.068
 1094SOL     OW 3291   1.824   3.916   1.227
 1094SOL    HW1 3292   1.820   3.826   1.271
 1094SOL    HW2 3293   1.827   3.905   1.128
 1095SOL     OW 3294   0.428   4.148   0.520
 1095SOL    HW1 3295   0.458   4.076   0.458
 1095SOL    HW2 3296   0.389   4.108   0.603
 1096SOL     OW 3297   0.317   4.271   1.280
 1096SOL    HW1 3298   0.355   4.212   1.352
 1096SOL    HW2 3299   0.357   4.245   1.192
 1097SOL     OW 3300   1.424   3.938   1.112
 1097SOL    HW1 3301   1.476   3.873   1.167
 1097SOL    HW2 3302   1.375   4.001   1.173
 1098SOL     OW 3303   1.001   3.758   1.154
 1098SOL    HW1 3304   0.938   3.686   1.123
 1098SOL    HW2 3305   1.094   3.722   1.154
 1099SOL     OW 3306   1.352   3.776   0.168
 1099SOL    HW1 3307   1.387   3.735   0.084
 1099SOL    HW2 3308   1.262   3.738   0.188
 1100SOL     OW 3309   1.300   4.177   0.691
 1100SOL    HW1 3310   1.241   4.257   0.695
 1100SOL    HW2 3311   1.315   4.142   0.784
 1101SOL     OW 3312   1.593   3.945   0.882
 1101SOL    HW1 3313   1.509   3.944   0.936
 1101SOL    HW2 3314   1.595   4.028   0.826
 1102SOL     OW 3315   0.230   4.352   1.975
 1102SOL    HW1 3316   0.137   4.350   2.012
 1102SOL    HW2 3317   0.231   4.313   1.883
 1103SOL     OW 3318   0.225   3.999   2.858
 1103SOL    HW1 3319   0.260   3.982   2.950
 1103SOL    HW2 3320   0.137   3.954   2.846
 1104SOL     OW 3321   0.019   4.092   2.509
 1104SOL    HW1 3322  -0.063   4.135   2.548
 1104SOL    HW2 3323  -0.009   4.019   2.446
 1105SOL     OW 3324   1.755   4.331   2.093
 1105SOL    HW1 3325   1.743   4.318   1.994
 1105SOL    HW2 3326   1.725   4.250   2.142
 1106SOL     OW 3327   0.685   4.736   2.527
 1106SOL    HW1 3328   0.754   4.720   2.597
 1106SOL    HW2 3329   0.612   4.793   2.565
 1107SOL     OW 3330   0.438   4.116   3.361
 1107SOL    HW1 3331   0.520   4.060   3.370
 1107SOL    HW2 3332   0.357   4.058   3.365
 1108SOL     OW 3333   1.603   4.171   2.599
 1108SOL    HW1 3334   1.529   4.217   2.549
 1108SOL    HW2 3335   1.654   4.239   2.652
 1109SOL     OW 3336   1.594   3.838   3.342
 1109SOL    HW1 3337   1.576   3.905   3.270
 1109SOL    HW2 3338   1.591   3.884   3.431
 1110SOL     OW 3339   0.122   4.367   2.425
 1110SOL    HW1 3340   0.077   4.279   2.442
 1110SOL    HW2 3341   0.121   4.421   2.509
 1111SOL     OW 3342   0.113   4.461   3.459
 1111SOL    HW1 3343   0.201   4.448   3.504
 1111SOL    HW2 3344   0.100   4.558   3.437
 1112SOL     OW 3345   0.809   3.728   2.364
 1112SOL    HW1 3346   0.849   3.819   2.355
 1112SOL    HW2 3347   0.709   3.736   2.370
 1113SOL     OW 3348   0.317   3.975   3.663
 1113SOL    HW1 3349   0.388   4.046   3.669
 1113SOL    HW2 3350   0.229   4.014   3.691
 1114SOL     OW 3351   1.281   4.069   2.806
 1114SOL    HW1 3352   1.195   4.019   2.793
 1114SOL    HW2 3353   1.343   4.015   2.862
 1115SOL     OW 3354   0.807   4.329   3.327
 1115SOL    HW1 3355   0.760   4.326   3.416
 1115SOL    HW2 3356   0.756   4.274   3.261
 1116SOL     OW 3357   1.394   4.193   3.536
 1116SOL    HW1 3358   1.374   4.236   3.624
 1116SOL    HW2 3359   1.472   4.131   3.545
 1117SOL     OW 3360   0.991   4.134   3.104
 1117SOL    HW1 3361   0.914   4.168   3.158
 1117SOL    HW2 3362   0.957   4.083   3.025
 1118SOL     OW 3363   1.041   4.425   2.291
 1118SOL    HW1 3364   1.067   4.421   2.387
 1118SOL    HW2 3365   0.956   4.374   2.277
 1119SOL     OW 3366   0.076   4.535   2.651
 1119SOL    HW1 3367   0.175   4.523   2.660
 1119SOL    HW2 3368   0.052   4.630   2.672
 1120SOL     OW 3369   0.865   4.072   2.057
 1120SOL    HW1 3370   0.924   4.135   2.008
 1120SOL    HW2 3371   0.884   3.978   2.028
 1121SOL     OW 3372   1.719   4.309   3.693
 1121SOL    HW1 3373   1.693   4.398   3.657
 1121SOL    HW2 3374   1.717   4.241   3.620
 1122SOL     OW 3375   0.550   3.920   2.747
 1122SOL    HW1 3376   0.545   3.915   2.847
 1122SOL    HW2 3377   0.552   4.016   2.718
 1123SOL     OW 3378   1.458   4.459   2.590
 1123SOL    HW1 3379   1.453   4.394   2.665
 1123SOL    HW2 3380   1.538   4.518   2.603
 1124SOL     OW 3381   0.202   4.009   3.360
 1124SOL    HW1 3382   0.122   4.069   3.347
 1124SOL    HW2 3383   0.192   3.960   3.446
 1125SOL     OW 3384   1.400   3.831   2.288
 1125SOL    HW1 3385   1.376   3.794   2.198
 1125SOL    HW2 3386   1.499   3.847   2.292
 1126SOL     OW 3387   0.382   4.424   2.342
 1126SOL    HW1 3388   0.427   4.334   2.339
 1126SOL    HW2 3389   0.288   4.413   2.375
 1127SOL     OW 3390   1.547   3.946   3.591
 1127SOL    HW1 3391   1.542   3.983   3.683
 1127SOL    HW2 3392   1.475   3.877   3.579
 1128SOL     OW 3393   0.614   3.846   1.979
 1128SOL    HW1 3394   0.712   3.824   1.986
 1128SOL    HW2 3395   0.583   3.829   1.886
 1129SOL     OW 3396   0.781   3.988   3.611
 1129SOL    HW1 3397   0.848   3.927   3.654
 1129SOL    HW2 3398   0.708   4.007   3.676
 1130SOL     OW 3399   1.351   4.314   3.295
 1130SOL    HW1 3400   1.379   4.271   3.380
 1130SOL    HW2 3401   1.376   4.410   3.296
 1131SOL     OW 3402   0.922   4.227   2.761
 1131SOL    HW1 3403   0.897   4.218   2.665
 1131SOL    HW2 3404   0.970   4.145   2.792
 1132SOL     OW 3405   0.539   3.788   2.374
 1132SOL    HW1 3406   0.458   3.789   2.432
 1132SOL    HW2 3407   0.542   3.871   2.319
 1133SOL     OW 3408   0.297   3.759   2.033
 1133SOL    HW1 3409   0.346   3.843   2.012
 1133SOL    HW2 3410   0.359   3.694   2.078
 1134SOL     OW 3411   0.935   3.960   2.342
 1134SOL    HW1 3412   0.887   4.001   2.264
 1134SOL    HW2 3413   1.034   3.958   2.323
 1135SOL     OW 3414   1.076   4.407   3.326
 1135SOL    HW1 3415   0.996   4.346   3.329
 1135SOL    HW2 3416   1.157   4.354   3.302
 1136SOL     OW 3417   1.032   4.273   1.878
 1136SOL    HW1 3418   0.991   4.355   1.839
 1136SOL    HW2 3419   1.096   4.299   1.951
 1137SOL     OW 3420   0.078   4.280   3.248
 1137SOL    HW1 3421   0.170   4.279   3.207
 1137SOL    HW2 3422   0.072   4.354   3.315
 1138SOL     OW 3423   0.561   3.946   3.009
 1138SOL    HW1 3424   0.599   3.862   3.046
 1138SOL    HW2 3425   0.473   3.965   3.053
 1139SOL     OW 3426   0.866   4.178   2.504
 1139SOL    HW1 3427   0.834   4.250   2.442
 1139SOL    HW2 3428   0.890   4.097   2.451
 1140SOL     OW 3429   1.017   3.763   2.615
 1140SOL    HW1 3430   0.945   3.768   2.546
 1140SOL    HW2 3431   0.993   3.694   2.684
 1141SOL     OW 3432   1.466   4.314   2.854
 1141SOL    HW1 3433   1.436   4.219   2.861
 1141SOL    HW2 3434   1.539   4.330   2.920
 1142SOL     OW 3435   1.390   4.299   1.940
 1142SOL    HW1 3436   1.336   4.278   2.021
 1142SOL    HW2 3437   1.481   4.258   1.949
 1143SOL     OW 3438   0.527   3.980   2.190
 1143SOL    HW1 3439   0.554   3.921   2.115
 1143SOL    HW2 3440   0.527   4.075   2.159
 1144SOL     OW 3441   0.915   3.813   3.264
 1144SOL    HW1 3442   0.940   3.793   3.169
 1144SOL    HW2 3443   0.987   3.869   3.306
 1145SOL     OW 3444   1.274   4.110   3.124
 1145SOL    HW1 3445   1.295   4.184   3.188
 1145SOL    HW2 3446   1.185   4.127   3.081
 1146SOL     OW 3447   0.566   4.261   2.727
 1146SOL    HW1 3448   0.578   4.327   2.653
 1146SOL    HW2 3449   0.612   4.295   2.810
 1147SOL     OW 3450   1.582   4.363   2.334
 1147SOL    HW1 3451   1.551   4.424   2.407
 1147SOL    HW2 3452   1.632   4.415   2.265
 1148SOL     OW 3453   1.013   3.829   3.632
 1148SOL    HW1 3454   1.019   3.914   3.580
 1148SOL    HW2 3455   1.045   3.753   3.575
 1149SOL     OW 3456   0.504   3.774   3.602
 1149SOL    HW1 3457   0.462   3.717   3.532
 1149SOL    HW2 3458   0.438   3.843   3.634
 1150SOL     OW 3459   1.209   4.249   2.137
 1150SOL    HW1 3460   1.222   4.165   2.191
 1150SOL    HW2 3461   1.180   4.323   2.197
 1151SOL     OW 3462   0.307   3.937   3.093
 1151SOL    HW1 3463   0.284   3.974   3.183
 1151SOL    HW2 3464   0.277   3.842   3.087
 1152SOL     OW 3465   0.732   4.358   2.926
 1152SOL    HW1 3466   0.791   4.332   2.850
 1152SOL    HW2 3467   0.704   4.454   2.915
 1153SOL     OW 3468   0.307   3.787   2.480
 1153SOL    HW1 3469   0.296   3.881   2.513
 1153SOL    HW2 3470   0.302   3.724   2.557
 1154SOL     OW 3471   1.622   4.091   2.236
 1154SOL    HW1 3472   1.624   4.015   2.300
 1154SOL    HW2 3473   1.574   4.168   2.276
 1155SOL     OW 3474   1.540   3.998   1.987
 1155SOL    HW1 3475   1.479   3.923   2.010
 1155SOL    HW2 3476   1.562   4.050   2.070
 1156SOL     OW 3477   0.319   4.534   2.811
 1156SOL    HW1 3478   0.412   4.570   2.816
 1156SOL    HW2 3479   0.313   4.449   2.863
 1157SOL     OW 3480   0.339   4.233   2.868
 1157SOL    HW1 3481   0.287   4.150   2.851
 1157SOL    HW2 3482   0.416   4.238   2.804
 1158SOL     OW 3483   1.138   4.104   3.540
 1158SOL    HW1 3484   1.093   4.167   3.604
 1158SOL    HW2 3485   1.231   4.135   3.523
 1159SOL     OW 3486   1.160   3.931   3.339
 1159SOL    HW1 3487   1.160   3.995   3.416
 1159SOL    HW2 3488   1.188   3.979   3.256
 1160SOL     OW 3489   0.040   4.268   2.976
 1160SOL    HW1 3490   0.125   4.235   2.935
 1160SOL    HW2 3491   0.053   4.283   3.074
 1161SOL     OW 3492   0.189   4.244   3.584
 1161SOL    HW1 3493   0.248   4.204   3.514
 1161SOL    HW2 3494   0.131   4.315   3.543
 1162SOL     OW 3495   0.815   4.296   2.187
 1162SOL    HW1 3496   0.822   4.207   2.141
 1162SOL    HW2 3497   0.721   4.330   2.179
 1163SOL     OW 3498   1.657   4.328   3.068
 1163SOL    HW1 3499   1.619   4.259   3.130
 1163SOL    HW2 3500   1.739   4.292   3.024
 1164SOL     OW 3501   0.671   4.188   3.131
 1164SOL    HW1 3502   0.637   4.099   3.101
 1164SOL    HW2 3503   0.697   4.242   3.051
 1165SOL     OW 3504   0.473   4.224   2.053
 1165SOL    HW1 3505   0.534   4.304   2.057
 1165SOL    HW2 3506   0.378   4.255   2.060
 1166SOL     OW 3507   1.726   3.859   2.385
 1166SOL    HW1 3508   1.799   3.842   2.318
 1166SOL    HW2 3509   1.695   3.772   2.423
 1167SOL     OW 3510   1.280   4.651   2.534
 1167SOL    HW1 3511   1.340   4.570   2.536
 1167SOL    HW2 3512   1.320   4.720   2.474
 1168SOL     OW 3513   1.841   3.899   2.825
 1168SOL    HW1 3514   1.880   3.814   2.789
 1168SOL    HW2 3515   1.743   3.901   2.806
 1169SOL     OW 3516   0.263   4.050   2.582
 1169SOL    HW1 3517   0.184   4.101   2.548
 1169SOL    HW2 3518   0.254   4.035   2.680
 1170SOL     OW 3519   1.014   3.960   2.833
 1170SOL    HW1 3520   1.006   3.924   2.740
 1170SOL    HW2 3521   1.012   3.884   2.898
 1171SOL     OW 3522   1.709   4.109   3.243
 1171SOL    HW1 3523   1.782   4.178   3.247
 1171SOL    HW2 3524   1.737   4.034   3.184
 1172SOL     OW 3525   0.672   3.927   3.351
 1172SOL    HW1 3526   0.762   3.911   3.311
 1172SOL    HW2 3527   0.680   3.932   3.450
 1173SOL     OW 3528   0.075   4.069   1.895
 1173SOL    HW1 3529  -0.017   4.041   1.866
 1173SOL    HW2 3530   0.106   4.146   1.839
 1174SOL     OW 3531   0.072   3.890   2.180
 1174SOL    HW1 3532   0.055   3.973   2.126
 1174SOL    HW2 3533   0.162   3.853   2.158
 1175SOL     OW 3534   0.716   4.289   3.570
 1175SOL    HW1 3535   0.735   4.354   3.644
 1175SOL    HW2 3536   0.776   4.209   3.579
 1176SOL     OW 3537   1.225   4.049   2.311
 1176SOL    HW1 3538   1.290   3.975   2.300
 1176SOL    HW2 3539   1.245   4.099   2.395
 1177SOL     OW 3540   1.777   4.066   3.504
 1177SOL    HW1 3541   1.760   4.097   3.410
 1177SOL    HW2 3542   1.693   4.029   3.542
 1178SOL     OW 3543   1.083   4.708   1.949
 1178SOL    HW1 3544   1.060   4.761   1.867
 1178SOL    HW2 3545   1.164   4.652   1.930
 1179SOL     OW 3546   1.824   3.916   3.089
 1179SOL    HW1 3547   1.820   3.826   3.133
 1179SOL    HW2 3548   1.827   3.905   2.990
 1180SOL     OW 3549   0.428   4.148   2.382
 1180SOL    HW1 3550   0.458   4.076   2.320
 1180SOL    HW2 3551   0.389   4.108   2.465
 1181SOL     OW 3552   0.317   4.271   3.142
 1181SOL    HW1 3553   0.355   4.212   3.214
 1181SOL    HW2 3554   0.357   4.245   3.054
 1182SOL     OW 3555   1.424   3.938   2.974
 1182SOL    HW1 3556   1.476   3.873   3.029
 1182SOL    HW2 3557   1.375   4.001   3.035
 1183SOL     OW 3558   1.001   3.758   3.016
 1183SOL    HW1 3559   0.938   3.686   2.985
 1183SOL    HW2 3560   1.094   3.722   3.016
 1184SOL     OW 3561   1.352   3.776   2.030
 1184SOL    HW1 3562   1.387   3.735   1.946
 1184SOL    HW2 3563   1.262   3.738   2.050
 1185SOL     OW 3564   1.300   4.177   2.553
 1185SOL    HW1 3565   1.241   4.257   2.557
 1185SOL    HW2 3566   1.315   4.142   2.646
 1186SOL     OW 3567   1.593   3.945   2.744
 1186SOL    HW1 3568   1.509   3.944   2.798
 1186SOL    HW2 3569   1.595   4.028   2.688
 1187SOL     OW 3570   0.230   4.352   3.837
 1187SOL    HW1 3571   0.137   4.350   3.874
 1187SOL    HW2 3572   0.231   4.313   3.745
 1188SOL     OW 3573   1.135   4.427   4.441
 1188SOL    HW1 3574   1.192   4.505   4.416
 1188SOL    HW2 3575   1.075   4.453   4.517
 1189SOL     OW 3576   1.755   4.331   3.955
 1189SOL    HW1 3577   1.743   4.318   3.856
 1189SOL    HW2 3578   1.725   4.250   4.004
 1190SOL     OW 3579   0.685   4.736   4.389
 1190SOL    HW1 3580   0.754   4.720   4.459
 1190SOL    HW2 3581   0.612   4.793   4.427
 1191SOL     OW 3582   1.603   4.171   4.461
 1191SOL    HW1 3583   1.529   4.217   4.411
 1191SOL    HW2 3584   1.654   4.239   4.514
 1192SOL     OW 3585   0.240   4.815   4.610
 1192SOL    HW1 3586   0.254   4.731   4.662
 1192SOL    HW2 3587   0.185   4.879   4.665
 1193SOL     OW 3588   0.122   4.367   4.287
 1193SOL    HW1 3589   0.077   4.279   4.304
 1193SOL    HW2 3590   0.121   4.421   4.371
 1194SOL     OW 3591   0.809   3.728   4.226
 1194SOL    HW1 3592   0.849   3.819   4.217
 1194SOL    HW2 3593   0.709   3.736   4.232
 1195SOL     OW 3594   1.281   4.069   4.668
 1195SOL    HW1 3595   1.195   4.019   4.655
 1195SOL    HW2 3596   1.343   4.015   4.724
 1196SOL     OW 3597   1.041   4.425   4.153
 1196SOL    HW1 3598   1.067   4.421   4.249
 1196SOL    HW2 3599   0.956   4.374   4.139
 1197SOL     OW 3600   0.076   4.535   4.513
 1197SOL    HW1 3601   0.175   4.523   4.522
 1197SOL    HW2 3602   0.052   4.630   4.534
 1198SOL     OW 3603   0.865   4.072   3.919
 1198SOL    HW1 3604   0.924   4.135   3.870
 1198SOL    HW2 3605   0.884   3.978   3.890
 1199SOL     OW 3606   1.400   3.831   4.150
 1199SOL    HW1 3607   1.376   3.794   4.060
 1199SOL    HW2 3608   1.499   3.847   4.154
 1200SOL     OW 3609   0.382   4.424   4.204
 1200SOL    HW1 3610   0.427   4.334   4.201
 1200SOL    HW2 3611   0.288   4.413   4.237
 1201SOL     OW 3612   0.614   3.846   3.841
 1201SOL    HW1 3613   0.712   3.824   3.848
 1201SOL    HW2 3614   0.583   3.829   3.748
 1202SOL     OW 3615   0.539   3.788   4.236
 1202SOL    HW1 3616   0.458   3.789   4.294
 1202SOL    HW2 3617   0.542   3.871   4.181
 1203SOL     OW 3618   0.297   3.759   3.895
 1203SOL    HW1 3619   0.346   3.843   3.874
 1203SOL    HW2 3620   0.359   3.694   3.940
 1204SOL     OW 3621   0.935   3.960   4.204
 1204SOL    HW1 3622   0.887   4.001   4.126
 1204SOL    HW2 3623   1.034   3.958   4.185
 1205SOL     OW 3624   1.032   4.273   3.740
 1205SOL    HW1 3625   0.991   4.355   3.701
 1205SOL    HW2 3626   1.096   4.299   3.813
 1206SOL     OW 3627   0.866   4.178   4.366
 1206SOL    HW1 3628   0.834   4.250   4.304
 1206SOL    HW2 3629   0.890   4.097   4.313
 1207SOL     OW 3630   1.390   4.299   3.802
 1207SOL    HW1 3631   1.336   4.278   3.883
 1207SOL    HW2 3632   1.481   4.258   3.811
 1208SOL     OW 3633   0.527   3.980   4.052
 1208SOL    HW1 3634   0.554   3.921   3.977
 1208SOL    HW2 3635   0.527   4.075   4.021
 1209SOL     OW 3636   1.582   4.363   4.196
 1209SOL    HW1 3637   1.551   4.424   4.269
 1209SOL    HW2 3638   1.632   4.415   4.127
 1210SOL     OW 3639   1.209   4.249   3.999
 1210SOL    HW1 3640   1.222   4.165   4.053
 1210SOL    HW2 3641   1.180   4.323   4.059
 1211SOL     OW 3642   0.307   3.787   4.342
 1211SOL    HW1 3643   0.296   3.881   4.375
 1211SOL    HW2 3644   0.302   3.724   4.419
 1212SOL     OW 3645   1.622   4.091   4.098
 1212SOL    HW1 3646   1.624   4.015   4.162
 1212SOL    HW2 3647   1.574   4.168   4.138
 1213SOL     OW 3648   1.540   3.998   3.849
 1213SOL    HW1 3649   1.479   3.923   3.872
 1213SOL    HW2 3650   1.562   4.050   3.932
 1214SOL     OW 3651   0.815   4.296   4.049
 1214SOL    HW1 3652   0.822   4.207   4.003
 1214SOL    HW2 3653   0.721   4.330   4.041
 1215SOL     OW 3654   0.473   4.224   3.915
 1215SOL    HW1 3655   0.534   4.304   3.919
 1215SOL    HW2 3656   0.378   4.255   3.922
 1216SOL     OW 3657   1.726   3.859   4.247
 1216SOL    HW1 3658   1.799   3.842   4.180
 1216SOL    HW2 3659   1.695   3.772   4.285
 1217SOL     OW 3660   1.280   4.651   4.396
 1217SOL    HW1 3661   1.340   4.570   4.398
 1217SOL    HW2 3662   1.320   4.720   4.336
 1218SOL     OW 3663   1.841   3.899   4.687
 1218SOL    HW1 3664   1.880   3.814   4.651
 1218SOL    HW2 3665   1.743   3.901   4.668
 1219SOL     OW 3666   0.075   4.069   3.757
 1219SOL    HW1 3667  -0.017   4.041   3.728
 1219SOL    HW2 3668   0.106   4.146   3.701
 1220SOL     OW 3669   0.072   3.890   4.042
 1220SOL    HW1 3670   0.055   3.973   3.988
 1220SOL    HW2 3671   0.162   3.853   4.020
 1221SOL     OW 3672   1.225   4.049   4.173
 1221SOL    HW1 3673   1.290   3.975   4.162
 1221SOL    HW2 3674   1.245   4.099   4.257
 1222SOL     OW 3675   1.083   4.708   3.811
 1222SOL    HW1 3676   1.060   4.761   3.729
 1222SOL    HW2 3677   1.164   4.652   3.792
 1223SOL     OW 3678   0.428   4.148   4.244
 1223SOL    HW1 3679   0.458   4.076   4.182
 1223SOL    HW2 3680   0.389   4.108   4.327
 1224SOL     OW 3681   1.352   3.776   3.892
 1224SOL    HW1 3682   1.387   3.735   3.808
 1224SOL    HW2 3683   1.262   3.738   3.912
 1225SOL     OW 3684   1.300   4.177   4.415
 1225SOL    HW1 3685   1.241   4.257   4.419
 1225SOL    HW2 3686   1.315   4.142   4.508
 1226SOL     OW 3687   2.092   0.628   0.113
 1226SOL    HW1 3688   1.999   0.626   0.150
 1226SOL    HW2 3689   2.093   0.589   0.021
 1227SOL     OW 3690   2.087   0.275   0.996
 1227SOL    HW1 3691   2.122   0.258   1.088
 1227SOL    HW2 3692   1.999   0.230   0.984
 1228SOL     OW 3693   1.881   0.368   0.647
 1228SOL    HW1 3694   1.799   0.411   0.686
 1228SOL    HW2 3695   1.853   0.295   0.584
 1229SOL     OW 3696   2.431   1.275   1.165
 1229SOL    HW1 3697   2.338   1.268   1.128
 1229SOL    HW2 3698   2.442   1.364   1.209
 1230SOL     OW 3699   3.417   1.511   0.703
 1230SOL    HW1 3700   3.360   1.495   0.784
 1230SOL    HW2 3701   3.358   1.521   0.623
 1231SOL     OW 3702   2.997   0.703   0.717
 1231SOL    HW1 3703   3.054   0.781   0.692
 1231SOL    HW2 3704   2.937   0.729   0.793
 1232SOL     OW 3705   3.617   0.607   0.231
 1232SOL    HW1 3706   3.605   0.594   0.132
 1232SOL    HW2 3707   3.587   0.526   0.280
 1233SOL     OW 3708   2.630   1.144   1.023
 1233SOL    HW1 3709   2.552   1.161   1.083
 1233SOL    HW2 3710   2.664   1.231   0.987
 1234SOL     OW 3711   2.712   0.798   1.823
 1234SOL    HW1 3712   2.708   0.874   1.888
 1234SOL    HW2 3713   2.734   0.834   1.732
 1235SOL     OW 3714   2.547   1.012   0.665
 1235SOL    HW1 3715   2.616   0.996   0.735
 1235SOL    HW2 3716   2.474   1.069   0.703
 1236SOL     OW 3717   2.548   1.161   1.803
 1236SOL    HW1 3718   2.608   1.240   1.817
 1236SOL    HW2 3719   2.462   1.192   1.762
 1237SOL     OW 3720   2.197   1.435   1.061
 1237SOL    HW1 3721   2.119   1.404   1.008
 1237SOL    HW2 3722   2.255   1.493   1.004
 1238SOL     OW 3723   3.322   1.505   1.339
 1238SOL    HW1 3724   3.346   1.599   1.365
 1238SOL    HW2 3725   3.306   1.451   1.421
 1239SOL     OW 3726   2.300   0.392   1.499
 1239SOL    HW1 3727   2.382   0.336   1.508
 1239SOL    HW2 3728   2.219   0.334   1.503
 1240SOL     OW 3729   3.465   0.447   0.737
 1240SOL    HW1 3730   3.391   0.493   0.687
 1240SOL    HW2 3731   3.516   0.515   0.790
 1241SOL     OW 3732   2.093   1.713   0.483
 1241SOL    HW1 3733   2.127   1.790   0.537
 1241SOL    HW2 3734   2.137   1.713   0.393
 1242SOL     OW 3735   2.989   1.341   1.690
 1242SOL    HW1 3736   3.036   1.341   1.778
 1242SOL    HW2 3737   2.941   1.254   1.679
 1243SOL     OW 3738   2.092   1.434   0.538
 1243SOL    HW1 3739   2.066   1.530   0.538
 1243SOL    HW2 3740   2.021   1.380   0.583
 1244SOL     OW 3741   2.102   1.091   0.886
 1244SOL    HW1 3742   2.116   1.007   0.938
 1244SOL    HW2 3743   2.047   1.155   0.941
 1245SOL     OW 3744   2.482   1.786   1.439
 1245SOL    HW1 3745   2.390   1.769   1.474
 1245SOL    HW2 3746   2.510   1.878   1.465
 1246SOL     OW 3747   2.468   0.964   0.123
 1246SOL    HW1 3748   2.475   1.048   0.069
 1246SOL    HW2 3749   2.514   0.977   0.211
 1247SOL     OW 3750   3.456   0.114   1.480
 1247SOL    HW1 3751   3.438   0.181   1.408
 1247SOL    HW2 3752   3.453   0.160   1.569
 1248SOL     OW 3753   1.984   0.643   0.563
 1248SOL    HW1 3754   1.939   0.555   0.580
 1248SOL    HW2 3755   1.983   0.697   0.647
 1249SOL     OW 3756   3.704   1.767   0.359
 1249SOL    HW1 3757   3.758   1.738   0.439
 1249SOL    HW2 3758   3.734   1.857   0.330
 1250SOL     OW 3759   1.889   1.596   0.117
 1250SOL    HW1 3760   1.870   1.500   0.138
 1250SOL    HW2 3761   1.856   1.654   0.192
 1251SOL     OW 3762   3.551   0.922   0.612
 1251SOL    HW1 3763   3.646   0.893   0.620
 1251SOL    HW2 3764   3.543   0.987   0.537
 1252SOL     OW 3765   3.503   1.108   0.432
 1252SOL    HW1 3766   3.589   1.110   0.380
 1252SOL    HW2 3767   3.517   1.155   0.520
 1253SOL     OW 3768   1.975   0.737   1.597
 1253SOL    HW1 3769   2.063   0.724   1.642
 1253SOL    HW2 3770   1.962   0.834   1.575
 1254SOL     OW 3771   2.475   1.365   0.726
 1254SOL    HW1 3772   2.426   1.278   0.735
 1254SOL    HW2 3773   2.452   1.408   0.639
 1255SOL     OW 3774   3.155   1.228   1.423
 1255SOL    HW1 3775   3.192   1.155   1.365
 1255SOL    HW2 3776   3.207   1.233   1.508
 1256SOL     OW 3777   2.671   0.004   0.502
 1256SOL    HW1 3778   2.711   0.095   0.493
 1256SOL    HW2 3779   2.571   0.012   0.508
 1257SOL     OW 3780   2.059   0.976   1.264
 1257SOL    HW1 3781   2.148   0.931   1.250
 1257SOL    HW2 3782   1.986   0.911   1.245
 1258SOL     OW 3783   3.387   0.999   0.190
 1258SOL    HW1 3784   3.324   0.923   0.203
 1258SOL    HW2 3785   3.435   1.017   0.276
 1259SOL     OW 3786   3.049   1.792   1.616
 1259SOL    HW1 3787   3.073   1.852   1.540
 1259SOL    HW2 3788   3.056   1.697   1.586
 1260SOL     OW 3789   2.179   0.251   1.801
 1260SOL    HW1 3790   2.250   0.322   1.807
 1260SOL    HW2 3791   2.091   0.290   1.829
 1261SOL     OW 3792   3.328   1.417   0.953
 1261SOL    HW1 3793   3.269   1.423   1.033
 1261SOL    HW2 3794   3.313   1.329   0.907
 1262SOL     OW 3795   3.529   1.714   0.572
 1262SOL    HW1 3796   3.488   1.691   0.484
 1262SOL    HW2 3797   3.511   1.640   0.637
 1263SOL     OW 3798   2.460   0.729   0.270
 1263SOL    HW1 3799   2.484   0.798   0.202
 1263SOL    HW2 3800   2.382   0.762   0.324
 1264SOL     OW 3801   3.143   0.345   0.944
 1264SOL    HW1 3802   3.057   0.295   0.931
 1264SOL    HW2 3803   3.205   0.291   1.000
 1265SOL     OW 3804   3.438   1.662   0.307
 1265SOL    HW1 3805   3.527   1.708   0.310
 1265SOL    HW2 3806   3.417   1.638   0.212
 1266SOL     OW 3807   2.669   0.605   1.465
 1266SOL    HW1 3808   2.622   0.602   1.554
 1266SOL    HW2 3809   2.618   0.550   1.399
 1267SOL     OW 3810   3.256   0.469   1.674
 1267SOL    HW1 3811   3.236   0.512   1.762
 1267SOL    HW2 3812   3.334   0.407   1.683
 1268SOL     OW 3813   2.835   0.890   1.572
 1268SOL    HW1 3814   2.881   0.806   1.543
 1268SOL    HW2 3815   2.779   0.924   1.497
 1269SOL     OW 3816   2.853   0.410   1.242
 1269SOL    HW1 3817   2.776   0.444   1.296
 1269SOL    HW2 3818   2.819   0.359   1.163
 1270SOL     OW 3819   2.903   0.701   0.429
 1270SOL    HW1 3820   2.929   0.697   0.525
 1270SOL    HW2 3821   2.818   0.650   0.415
 1271SOL     OW 3822   1.938   0.811   0.789
 1271SOL    HW1 3823   2.037   0.799   0.798
 1271SOL    HW2 3824   1.914   0.906   0.810
 1272SOL     OW 3825   1.992   1.821   1.571
 1272SOL    HW1 3826   1.982   1.806   1.670
 1272SOL    HW2 3827   1.906   1.857   1.535
 1273SOL     OW 3828   2.727   0.348   0.195
 1273SOL    HW1 3829   2.786   0.411   0.146
 1273SOL    HW2 3830   2.746   0.254   0.166
 1274SOL     OW 3831   3.581   0.585   1.831
 1274SOL    HW1 3832   3.555   0.674   1.795
 1274SOL    HW2 3833   3.579   0.517   1.758
 1275SOL     OW 3834   3.224   1.144   0.545
 1275SOL    HW1 3835   3.307   1.115   0.497
 1275SOL    HW2 3836   3.175   1.211   0.489
 1276SOL     OW 3837   2.412   0.196   0.885
 1276SOL    HW1 3838   2.407   0.191   0.985
 1276SOL    HW2 3839   2.414   0.292   0.856
 1277SOL     OW 3840   2.870   1.456   0.477
 1277SOL    HW1 3841   2.824   1.528   0.425
 1277SOL    HW2 3842   2.866   1.476   0.575
 1278SOL     OW 3843   2.213   1.801   0.853
 1278SOL    HW1 3844   2.263   1.715   0.859
 1278SOL    HW2 3845   2.278   1.878   0.850
 1279SOL     OW 3846   3.657   1.066   0.873
 1279SOL    HW1 3847   3.595   1.051   0.797
 1279SOL    HW2 3848   3.605   1.077   0.958
 1280SOL     OW 3849   3.089   1.550   1.506
 1280SOL    HW1 3850   3.095   1.473   1.570
 1280SOL    HW2 3851   3.037   1.524   1.426
 1281SOL     OW 3852   2.183   0.943   0.242
 1281SOL    HW1 3853   2.265   0.982   0.200
 1281SOL    HW2 3854   2.156   0.861   0.193
 1282SOL     OW 3855   3.320   0.735   0.728
 1282SOL    HW1 3856   3.315   0.670   0.803
 1282SOL    HW2 3857   3.400   0.794   0.741
 1283SOL     OW 3858   2.323   1.266   1.727
 1283SOL    HW1 3859   2.273   1.267   1.641
 1283SOL    HW2 3860   2.260   1.248   1.803
 1284SOL     OW 3861   2.973   1.776   0.237
 1284SOL    HW1 3862   2.913   1.714   0.287
 1284SOL    HW2 3863   3.004   1.732   0.152
 1285SOL     OW 3864   2.064   0.285   1.498
 1285SOL    HW1 3865   1.984   0.345   1.485
 1285SOL    HW2 3866   2.054   0.236   1.584
 1286SOL     OW 3867   3.494   1.377   0.081
 1286SOL    HW1 3868   3.462   1.471   0.071
 1286SOL    HW2 3869   3.418   1.314   0.069
 1287SOL     OW 3870   2.326   1.743   0.323
 1287SOL    HW1 3871   2.359   1.782   0.409
 1287SOL    HW2 3872   2.402   1.736   0.258
 1288SOL     OW 3873   3.262   0.107   0.426
 1288SOL    HW1 3874   3.238   0.070   0.336
 1288SOL    HW2 3875   3.361   0.123   0.430
 1289SOL     OW 3876   2.111   1.785   1.241
 1289SOL    HW1 3877   2.168   1.720   1.291
 1289SOL    HW2 3878   2.095   1.752   1.148
 1290SOL     OW 3879   2.802   1.698   0.904
 1290SOL    HW1 3880   2.882   1.641   0.925
 1290SOL    HW2 3881   2.753   1.658   0.827
 1291SOL     OW 3882   2.244   0.700   0.480
 1291SOL    HW1 3883   2.289   0.610   0.477
 1291SOL    HW2 3884   2.150   0.689   0.513
 1292SOL     OW 3885   3.409   0.222   1.729
 1292SOL    HW1 3886   3.404   0.259   1.821
 1292SOL    HW2 3887   3.337   0.153   1.717
 1293SOL     OW 3888   2.476   0.122   0.117
 1293SOL    HW1 3889   2.574   0.100   0.124
 1293SOL    HW2 3890   2.445   0.105   0.024
 1294SOL     OW 3891   2.643   0.264   1.749
 1294SOL    HW1 3892   2.710   0.203   1.792
 1294SOL    HW2 3893   2.570   0.283   1.814
 1295SOL     OW 3894   2.750   1.514   1.195
 1295SOL    HW1 3895   2.727   1.489   1.101
 1295SOL    HW2 3896   2.811   1.445   1.234
 1296SOL     OW 3897   3.213   0.590   1.433
 1296SOL    HW1 3898   3.241   0.547   1.518
 1296SOL    HW2 3899   3.238   0.686   1.434
 1297SOL     OW 3900   2.665   1.402   0.924
 1297SOL    HW1 3901   2.755   1.416   0.882
 1297SOL    HW2 3902   2.594   1.404   0.853
 1298SOL     OW 3903   2.784   0.503   0.899
 1298SOL    HW1 3904   2.759   0.494   0.803
 1298SOL    HW2 3905   2.832   0.421   0.930
 1299SOL     OW 3906   2.401   0.064   0.512
 1299SOL    HW1 3907   2.320   0.065   0.570
 1299SOL    HW2 3908   2.404   0.147   0.457
 1300SOL     OW 3909   3.296   1.188   0.041
 1300SOL    HW1 3910   3.328   1.112   0.098
 1300SOL    HW2 3911   3.204   1.215   0.071
 1301SOL     OW 3912   2.159   0.035   0.171
 1301SOL    HW1 3913   2.208   0.119   0.150
 1301SOL    HW2 3914   2.221  -0.030   0.216
 1302SOL     OW 3915   2.797   0.236   0.480
 1302SOL    HW1 3916   2.749   0.277   0.402
 1302SOL    HW2 3917   2.896   0.234   0.461
 1303SOL     OW 3918   2.938   0.683   1.464
 1303SOL    HW1 3919   2.858   0.622   1.467
 1303SOL    HW2 3920   3.019   0.630   1.440
 1304SOL     OW 3921   3.089   1.570   0.793
 1304SOL    HW1 3922   3.110   1.644   0.728
 1304SOL    HW2 3923   3.157   1.570   0.866
 1305SOL     OW 3924   2.321   1.152   0.741
 1305SOL    HW1 3925   2.250   1.125   0.806
 1305SOL    HW2 3926   2.295   1.124   0.648
 1306SOL     OW 3927   3.133   1.797   0.591
 1306SOL    HW1 3928   3.177   1.861   0.527
 1306SOL    HW2 3929   3.083   1.849   0.661
 1307SOL     OW 3930   2.894   0.549   0.016
 1307SOL    HW1 3931   2.853   0.631  -0.023
 1307SOL    HW2 3932   2.958   0.575   0.089
 1308SOL     OW 3933   1.940   0.556   1.386
 1308SOL    HW1 3934   2.032   0.555   1.345
 1308SOL    HW2 3935   1.934   0.630   1.453
 1309SOL     OW 3936   2.423   0.222   1.147
 1309SOL    HW1 3937   2.461   0.138   1.184
 1309SOL    HW2 3938   2.335   0.241   1.191
 1310SOL     OW 3939   2.728   0.454   0.642
 1310SOL    HW1 3940   2.696   0.526   0.580
 1310SOL    HW2 3941   2.752   0.373   0.589
 1311SOL     OW 3942   2.879   0.039   0.753
 1311SOL    HW1 3943   2.807   0.044   0.684
 1311SOL    HW2 3944   2.855  -0.030   0.822
 1312SOL     OW 3945   3.291   1.173   0.867
 1312SOL    HW1 3946   3.236   1.089   0.860
 1312SOL    HW2 3947   3.317   1.202   0.775
 1313SOL     OW 3948   3.328   0.590   0.992
 1313SOL    HW1 3949   3.298   0.495   0.999
 1313SOL    HW2 3950   3.401   0.606   1.058
 1314SOL     OW 3951   3.719   0.833   0.377
 1314SOL    HW1 3952   3.761   0.769   0.441
 1314SOL    HW2 3953   3.681   0.782   0.299
 1315SOL     OW 3954   2.350   1.385   0.174
 1315SOL    HW1 3955   2.263   1.370   0.221
 1315SOL    HW2 3956   2.333   1.411   0.079
 1316SOL     OW 3957   3.526   1.280   0.657
 1316SOL    HW1 3958   3.625   1.288   0.671
 1316SOL    HW2 3959   3.481   1.364   0.688
 1317SOL     OW 3960   3.252   0.575   0.078
 1317SOL    HW1 3961   3.198   0.554   0.159
 1317SOL    HW2 3962   3.343   0.534   0.087
 1318SOL     OW 3963   2.389   0.256   0.328
 1318SOL    HW1 3964   2.416   0.197   0.253
 1318SOL    HW2 3965   2.389   0.351   0.297
 1319SOL     OW 3966   3.616   1.223   1.588
 1319SOL    HW1 3967   3.707   1.184   1.575
 1319SOL    HW2 3968   3.624   1.319   1.612
 1320SOL     OW 3969   2.926   1.347   1.340
 1320SOL    HW1 3970   2.846   1.324   1.395
 1320SOL    HW2 3971   3.009   1.321   1.389
 1321SOL     OW 3972   3.454   1.629   1.625
 1321SOL    HW1 3973   3.481   1.663   1.535
 1321SOL    HW2 3974   3.533   1.591   1.671
 1322SOL     OW 3975   2.973   1.195   1.100
 1322SOL    HW1 3976   2.933   1.239   1.181
 1322SOL    HW2 3977   2.932   1.232   1.017
 1323SOL     OW 3978   3.500   1.099   1.079
 1323SOL    HW1 3979   3.505   1.180   1.138
 1323SOL    HW2 3980   3.414   1.101   1.028
 1324SOL     OW 3981   2.777   0.089   1.402
 1324SOL    HW1 3982   2.802   0.069   1.307
 1324SOL    HW2 3983   2.849   0.145   1.444
 1325SOL     OW 3984   2.842   1.116   1.719
 1325SOL    HW1 3985   2.743   1.122   1.729
 1325SOL    HW2 3986   2.865   1.036   1.663
 1326SOL     OW 3987   2.567   1.050   0.368
 1326SOL    HW1 3988   2.553   1.057   0.467
 1326SOL    HW2 3989   2.651   0.999   0.350
 1327SOL     OW 3990   2.272   0.813   1.251
 1327SOL    HW1 3991   2.358   0.825   1.301
 1327SOL    HW2 3992   2.230   0.726   1.278
 1328SOL     OW 3993   3.136   0.386   1.262
 1328SOL    HW1 3994   3.157   0.460   1.326
 1328SOL    HW2 3995   3.047   0.403   1.219
 1329SOL     OW 3996   1.926   1.564   1.331
 1329SOL    HW1 3997   1.880   1.646   1.297
 1329SOL    HW2 3998   2.024   1.583   1.340
 1330SOL     OW 3999   2.229   1.100   0.501
 1330SOL    HW1 4000   2.222   1.183   0.445
 1330SOL    HW2 4001   2.233   1.020   0.441
 1331SOL     OW 4002   2.428   0.537   0.865
 1331SOL    HW1 4003   2.440   0.603   0.791
 1331SOL    HW2 4004   2.474   0.571   0.948
 1332SOL     OW 4005   3.114   1.348   0.388
 1332SOL    HW1 4006   3.164   1.425   0.428
 1332SOL    HW2 4007   3.019   1.350   0.420
 1333SOL     OW 4008   3.134   1.445   1.142
 1333SOL    HW1 4009   3.181   1.458   1.229
 1333SOL    HW2 4010   3.068   1.371   1.151
 1334SOL     OW 4011   3.444   0.639   0.472
 1334SOL    HW1 4012   3.413   0.700   0.545
 1334SOL    HW2 4013   3.494   0.691   0.403
 1335SOL     OW 4014   2.216   1.510   1.329
 1335SOL    HW1 4015   2.195   1.466   1.242
 1335SOL    HW2 4016   2.313   1.536   1.332
 1336SOL     OW 4017   2.264   0.751   1.598
 1336SOL    HW1 4018   2.332   0.806   1.551
 1336SOL    HW2 4019   2.304   0.663   1.625
 1337SOL     OW 4020   3.449   0.779   1.670
 1337SOL    HW1 4021   3.357   0.817   1.665
 1337SOL    HW2 4022   3.509   0.826   1.605
 1338SOL     OW 4023   2.875   0.105   1.770
 1338SOL    HW1 4024   2.881   0.190   1.718
 1338SOL    HW2 4025   2.907   0.029   1.713
 1339SOL     OW 4026   2.366   0.050   1.740
 1339SOL    HW1 4027   2.324  -0.007   1.670
 1339SOL    HW2 4028   2.300   0.119   1.772
 1340SOL     OW 4029   2.435   0.870   1.029
 1340SOL    HW1 4030   2.479   0.959   1.020
 1340SOL    HW2 4031   2.372   0.870   1.106
 1341SOL     OW 4032   3.222   0.862   1.045
 1341SOL    HW1 4033   3.147   0.862   0.979
 1341SOL    HW2 4034   3.259   0.770   1.054
 1342SOL     OW 4035   3.071   0.525   0.275
 1342SOL    HW1 4036   3.084   0.441   0.329
 1342SOL    HW2 4037   3.042   0.599   0.335
 1343SOL     OW 4038   2.169   0.213   1.231
 1343SOL    HW1 4039   2.146   0.250   1.321
 1343SOL    HW2 4040   2.139   0.118   1.225
 1344SOL     OW 4041   1.899   1.310   1.282
 1344SOL    HW1 4042   1.952   1.261   1.350
 1344SOL    HW2 4043   1.921   1.408   1.287
 1345SOL     OW 4044   2.594   0.634   1.064
 1345SOL    HW1 4045   2.653   0.608   0.988
 1345SOL    HW2 4046   2.566   0.730   1.053
 1346SOL     OW 4047   3.590   0.935   1.854
 1346SOL    HW1 4048   3.544   0.928   1.765
 1346SOL    HW2 4049   3.528   0.979   1.920
 1347SOL     OW 4050   2.169   0.063   0.618
 1347SOL    HW1 4051   2.158   0.157   0.651
 1347SOL    HW2 4052   2.164   0.000   0.695
 1348SOL     OW 4053   3.484   0.367   0.374
 1348SOL    HW1 4054   3.486   0.291   0.438
 1348SOL    HW2 4055   3.436   0.444   0.414
 1349SOL     OW 4056   2.885   0.766   0.966
 1349SOL    HW1 4057   2.900   0.787   1.062
 1349SOL    HW2 4058   2.855   0.671   0.957
 1350SOL     OW 4059   2.842   1.573   1.700
 1350SOL    HW1 4060   2.822   1.617   1.612
 1350SOL    HW2 4061   2.881   1.482   1.684
 1351SOL     OW 4062   3.721   1.518   1.605
 1351SOL    HW1 4063   3.735   1.545   1.510
 1351SOL    HW2 4064   3.804   1.540   1.658
 1352SOL     OW 4065   2.212   0.898   1.804
 1352SOL    HW1 4066   2.288   0.942   1.852
 1352SOL    HW2 4067   2.247   0.851   1.722
 1353SOL     OW 4068   3.402   0.274   0.125
 1353SOL    HW1 4069   3.341   0.199   0.148
 1353SOL    HW2 4070   3.424   0.326   0.208
 1354SOL     OW 4071   3.165   0.838   0.042
 1354SOL    HW1 4072   3.199   0.745   0.057
 1354SOL    HW2 4073   3.183   0.865  -0.053
 1355SOL     OW 4074   2.930   1.333   0.849
 1355SOL    HW1 4075   2.937   1.249   0.794
 1355SOL    HW2 4076   2.992   1.402   0.813
 1356SOL     OW 4077   2.181   0.810   0.949
 1356SOL    HW1 4078   2.274   0.846   0.954
 1356SOL    HW2 4079   2.175   0.725   1.001
 1357SOL     OW 4080   2.201   0.509   1.006
 1357SOL    HW1 4081   2.149   0.426   0.989
 1357SOL    HW2 4082   2.278   0.514   0.942
 1358SOL     OW 4083   3.000   0.380   1.678
 1358SOL    HW1 4084   2.955   0.443   1.742
 1358SOL    HW2 4085   3.093   0.411   1.661
 1359SOL     OW 4086   3.022   0.207   1.477
 1359SOL    HW1 4087   3.022   0.271   1.554
 1359SOL    HW2 4088   3.050   0.255   1.394
 1360SOL     OW 4089   1.870   1.326   0.200
 1360SOL    HW1 4090   1.777   1.347   0.169
 1360SOL    HW2 4091   1.880   1.227   0.213
 1361SOL     OW 4092   1.950   1.801   0.927
 1361SOL    HW1 4093   1.908   1.715   0.900
 1361SOL    HW2 4094   2.044   1.804   0.893
 1362SOL     OW 4095   2.366   1.568   0.910
 1362SOL    HW1 4096   2.432   1.642   0.919
 1362SOL    HW2 4097   2.410   1.489   0.868
 1363SOL     OW 4098   2.864   0.796   1.238
 1363SOL    HW1 4099   2.905   0.764   1.324
 1363SOL    HW2 4100   2.768   0.769   1.235
 1364SOL     OW 4101   1.902   0.544   1.114
 1364SOL    HW1 4102   1.987   0.511   1.073
 1364SOL    HW2 4103   1.915   0.559   1.212
 1365SOL     OW 4104   2.051   0.520   1.722
 1365SOL    HW1 4105   2.110   0.480   1.652
 1365SOL    HW2 4106   1.993   0.591   1.681
 1366SOL     OW 4107   3.231   0.950   1.660
 1366SOL    HW1 4108   3.270   1.039   1.680
 1366SOL    HW2 4109   3.241   0.930   1.563
 1367SOL     OW 4110   2.677   0.572   0.325
 1367SOL    HW1 4111   2.684   0.483   0.279
 1367SOL    HW2 4112   2.583   0.606   0.317
 1368SOL     OW 4113   3.519   0.604   1.206
 1368SOL    HW1 4114   3.481   0.535   1.268
 1368SOL    HW2 4115   3.601   0.568   1.162
 1369SOL     OW 4116   2.114   1.564   1.744
 1369SOL    HW1 4117   2.084   1.621   1.820
 1369SOL    HW2 4118   2.107   1.467   1.770
 1370SOL     OW 4119   2.533   0.464   1.269
 1370SOL    HW1 4120   2.499   0.375   1.239
 1370SOL    HW2 4121   2.559   0.518   1.189
 1371SOL     OW 4122   2.792   1.678   1.465
 1371SOL    HW1 4123   2.768   1.660   1.370
 1371SOL    HW2 4124   2.822   1.772   1.475
 1372SOL     OW 4125   2.335   0.500   0.191
 1372SOL    HW1 4126   2.396   0.580   0.195
 1372SOL    HW2 4127   2.240   0.531   0.198
 1373SOL     OW 4128   2.021   1.137   1.466
 1373SOL    HW1 4129   2.043   1.076   1.542
 1373SOL    HW2 4130   2.031   1.088   1.380
 1374SOL     OW 4131   3.209   1.059   1.234
 1374SOL    HW1 4132   3.233   0.996   1.160
 1374SOL    HW2 4133   3.119   1.099   1.216
 1375SOL     OW 4134   3.164   0.855   0.309
 1375SOL    HW1 4135   3.078   0.824   0.351
 1375SOL    HW2 4136   3.160   0.841   0.210
 1376SOL     OW 4137   3.621   1.747   1.154
 1376SOL    HW1 4138   3.682   1.777   1.081
 1376SOL    HW2 4139   3.583   1.658   1.132
 1377SOL     OW 4140   3.114   1.731   1.128
 1377SOL    HW1 4141   3.198   1.736   1.074
 1377SOL    HW2 4142   3.091   1.635   1.146
 1378SOL     OW 4143   1.945   1.258   1.022
 1378SOL    HW1 4144   1.940   1.257   1.122
 1378SOL    HW2 4145   1.862   1.217   0.984
 1379SOL     OW 4146   2.550   1.662   1.716
 1379SOL    HW1 4147   2.494   1.743   1.725
 1379SOL    HW2 4148   2.602   1.666   1.630
 1380SOL     OW 4149   2.765   0.086   0.133
 1380SOL    HW1 4150   2.816   0.087   0.047
 1380SOL    HW2 4151   2.821   0.044   0.204
 1381SOL     OW 4152   3.588   0.135   0.523
 1381SOL    HW1 4153   3.661   0.118   0.456
 1381SOL    HW2 4154   3.557   0.048   0.561
 1382SOL     OW 4155   3.250   1.573   0.477
 1382SOL    HW1 4156   3.317   1.585   0.403
 1382SOL    HW2 4157   3.210   1.662   0.500
 1383SOL     OW 4158   1.992   1.794   1.851
 1383SOL    HW1 4159   1.951   1.720   1.904
 1383SOL    HW2 4160   2.056   1.845   1.909
 1384SOL     OW 4161   3.142   0.927   0.672
 1384SOL    HW1 4162   3.202   0.846   0.674
 1384SOL    HW2 4163   3.182   0.996   0.612
 1385SOL     OW 4164   2.692   1.273   1.422
 1385SOL    HW1 4165   2.687   1.306   1.517
 1385SOL    HW2 4166   2.606   1.292   1.376
 1386SOL     OW 4167   2.534   1.616   0.154
 1386SOL    HW1 4168   2.543   1.626   0.055
 1386SOL    HW2 4169   2.494   1.527   0.175
 1387SOL     OW 4170   3.512   1.720   1.394
 1387SOL    HW1 4171   3.565   1.730   1.310
 1387SOL    HW2 4172   3.485   1.810   1.428
 1388SOL     OW 4173   3.703   0.175   0.963
 1388SOL    HW1 4174   3.742   0.090   0.927
 1388SOL    HW2 4175   3.605   0.177   0.944
 1389SOL     OW 4176   2.125   0.326   0.720
 1389SOL    HW1 4177   2.046   0.377   0.686
 1389SOL    HW2 4178   2.116   0.311   0.818
 1390SOL     OW 4179   3.056   1.612   0.031
 1390SOL    HW1 4180   3.062   1.519   0.068
 1390SOL    HW2 4181   2.997   1.612  -0.049
 1391SOL     OW 4182   2.684   1.002   1.372
 1391SOL    HW1 4183   2.724   1.001   1.280
 1391SOL    HW2 4184   2.694   1.094   1.412
 1392SOL     OW 4185   2.778   0.910   0.291
 1392SOL    HW1 4186   2.841   0.948   0.223
 1392SOL    HW2 4187   2.818   0.827   0.330
 1393SOL     OW 4188   3.366   1.607   0.044
 1393SOL    HW1 4189   3.274   1.644   0.051
 1393SOL    HW2 4190   3.404   1.627  -0.046
 1394SOL     OW 4191   2.234   1.288   1.490
 1394SOL    HW1 4192   2.221   1.381   1.456
 1394SOL    HW2 4193   2.150   1.236   1.477
 1395SOL     OW 4194   3.476   1.292   1.289
 1395SOL    HW1 4195   3.536   1.295   1.369
 1395SOL    HW2 4196   3.401   1.356   1.302
 1396SOL     OW 4197   2.901   1.098   0.696
 1396SOL    HW1 4198   2.831   1.051   0.750
 1396SOL    HW2 4199   2.960   1.030   0.653
 1397SOL     OW 4200   2.876   0.236   0.971
 1397SOL    HW1 4201   2.868   0.200   0.878
 1397SOL    HW2 4202   2.874   0.160   1.036
 1398SOL     OW 4203   2.452   1.487   0.491
 1398SOL    HW1 4204   2.494   1.429   0.421
 1398SOL    HW2 4205   2.408   1.566   0.447
 1399SOL     OW 4206   3.571   0.385   1.381
 1399SOL    HW1 4207   3.644   0.454   1.385
 1399SOL    HW2 4208   3.599   0.310   1.322
 1400SOL     OW 4209   2.117   1.348   0.290
 1400SOL    HW1 4210   2.021   1.349   0.263
 1400SOL    HW2 4211   2.129   1.401   0.374
 1401SOL     OW 4212   1.967   1.013   1.726
 1401SOL    HW1 4213   1.890   0.980   1.780
 1401SOL    HW2 4214   2.052   0.983   1.768
 1402SOL     OW 4215   2.534   0.203   1.489
 1402SOL    HW1 4216   2.624   0.187   1.449
 1402SOL    HW2 4217   2.542   0.208   1.588
 1403SOL     OW 4218   1.937   0.345   0.033
 1403SOL    HW1 4219   1.845   0.317   0.004
 1403SOL    HW2 4220   1.968   0.422  -0.023
 1404SOL     OW 4221   3.302   0.856   1.398
 1404SOL    HW1 4222   3.245   0.908   1.335
 1404SOL    HW2 4223   3.398   0.868   1.374
 1405SOL     OW 4224   3.045   1.335   0.119
 1405SOL    HW1 4225   2.946   1.324   0.121
 1405SOL    HW2 4226   3.079   1.350   0.212
 1406SOL     OW 4227   2.475   0.842   1.431
 1406SOL    HW1 4228   2.531   0.923   1.414
 1406SOL    HW2 4229   2.534   0.762   1.434
 1407SOL     OW 4230   3.355   1.767   0.959
 1407SOL    HW1 4231   3.388   1.831   0.890
 1407SOL    HW2 4232   3.421   1.761   1.034
 1408SOL     OW 4233   2.578   0.565   1.708
 1408SOL    HW1 4234   2.597   0.630   1.782
 1408SOL    HW2 4235   2.638   0.485   1.717
 1409SOL     OW 4236   3.312   1.220   1.633
 1409SOL    HW1 4237   3.303   1.210   1.732
 1409SOL    HW2 4238   3.408   1.213   1.607
 1410SOL     OW 4239   2.252   1.741   1.560
 1410SOL    HW1 4240   2.161   1.782   1.558
 1410SOL    HW2 4241   2.245   1.647   1.592
 1411SOL     OW 4242   3.536   0.883   1.254
 1411SOL    HW1 4243   3.509   0.794   1.217
 1411SOL    HW2 4244   3.537   0.951   1.181
 1412SOL     OW 4245   3.087   0.325   0.449
 1412SOL    HW1 4246   3.152   0.251   0.438
 1412SOL    HW2 4247   3.107   0.375   0.533
 1413SOL     OW 4248   2.456   0.745   0.652
 1413SOL    HW1 4249   2.506   0.830   0.633
 1413SOL    HW2 4250   2.368   0.747   0.604
 1414SOL     OW 4251   3.639   0.342   1.642
 1414SOL    HW1 4252   3.622   0.373   1.548
 1414SOL    HW2 4253   3.555   0.305   1.680
 1415SOL     OW 4254   3.592   0.934   1.517
 1415SOL    HW1 4255   3.630   1.025   1.532
 1415SOL    HW2 4256   3.584   0.917   1.418
 1416SOL     OW 4257   2.721   1.374   0.016
 1416SOL    HW1 4258   2.675   1.389   0.104
 1416SOL    HW2 4259   2.765   1.459  -0.014
 1417SOL     OW 4260   2.523   1.790   0.953
 1417SOL    HW1 4261   2.477   1.878   0.940
 1417SOL    HW2 4262   2.622   1.802   0.946
 1418SOL     OW 4263   2.721   0.956   0.861
 1418SOL    HW1 4264   2.775   0.887   0.909
 1418SOL    HW2 4265   2.689   1.025   0.927
 1419SOL     OW 4266   2.945   0.984   0.087
 1419SOL    HW1 4267   2.922   1.037   0.005
 1419SOL    HW2 4268   3.026   0.928   0.068
 1420SOL     OW 4269   3.723   1.569   0.851
 1420SOL    HW1 4270   3.652   1.557   0.781
 1420SOL    HW2 4271   3.724   1.490   0.911
 1421SOL     OW 4272   2.083   1.314   1.844
 1421SOL    HW1 4273   2.018   1.241   1.823
 1421SOL    HW2 4274   2.087   1.328   1.942
 1422SOL     OW 4275   1.941   1.240   0.653
 1422SOL    HW1 4276   1.940   1.193   0.741
 1422SOL    HW2 4277   2.023   1.212   0.602
 1423SOL     OW 4278   2.534   1.391   1.624
 1423SOL    HW1 4279   2.456   1.341   1.662
 1423SOL    HW2 4280   2.531   1.486   1.655
 1424SOL     OW 4281   3.686   0.192   1.227
 1424SOL    HW1 4282   3.682   0.102   1.271
 1424SOL    HW2 4283   3.689   0.181   1.128
 1425SOL     OW 4284   2.290   0.424   0.520
 1425SOL    HW1 4285   2.320   0.352   0.458
 1425SOL    HW2 4286   2.251   0.384   0.603
 1426SOL     OW 4287   3.567   1.487   1.104
 1426SOL    HW1 4288   3.474   1.462   1.077
 1426SOL    HW2 4289   3.593   1.437   1.186
 1427SOL     OW 4290   2.179   0.547   1.280
 1427SOL    HW1 4291   2.217   0.488   1.352
 1427SOL    HW2 4292   2.219   0.521   1.192
 1428SOL     OW 4293   2.674   1.586   0.687
 1428SOL    HW1 4294   2.706   1.596   0.593
 1428SOL    HW2 4295   2.595   1.524   0.689
 1429SOL     OW 4296   3.286   0.214   1.112
 1429SOL    HW1 4297   3.338   0.149   1.167
 1429SOL    HW2 4298   3.237   0.277   1.173
 1430SOL     OW 4299   2.863   0.034   1.154
 1430SOL    HW1 4300   2.800  -0.038   1.123
 1430SOL    HW2 4301   2.956  -0.002   1.154
 1431SOL     OW 4302   2.632   1.330   0.301
 1431SOL    HW1 4303   2.586   1.243   0.318
 1431SOL    HW2 4304   2.723   1.327   0.342
 1432SOL     OW 4305   2.480   1.567   1.284
 1432SOL    HW1 4306   2.475   1.649   1.341
 1432SOL    HW2 4307   2.569   1.564   1.239
 1433SOL     OW 4308   3.214   0.052   0.168
 1433SOL    HW1 4309   3.249   0.011   0.084
 1433SOL    HW2 4310   3.124   0.014   0.188
 1434SOL     OW 4311   3.162   0.453   0.691
 1434SOL    HW1 4312   3.103   0.533   0.695
 1434SOL    HW2 4313   3.177   0.418   0.784
 1435SOL     OW 4314   3.455   0.221   0.882
 1435SOL    HW1 4315   3.371   0.220   0.936
 1435SOL    HW2 4316   3.457   0.304   0.826
 1436SOL     OW 4317   1.901   1.077   0.300
 1436SOL    HW1 4318   2.000   1.066   0.291
 1436SOL    HW2 4319   1.861   0.991   0.332
 1437SOL     OW 4320   2.737   1.646   0.337
 1437SOL    HW1 4321   2.660   1.611   0.283
 1437SOL    HW2 4322   2.705   1.717   0.399
 1438SOL     OW 4323   2.092   0.628   1.975
 1438SOL    HW1 4324   1.999   0.626   2.012
 1438SOL    HW2 4325   2.093   0.589   1.883
 1439SOL     OW 4326   2.087   0.275   2.858
 1439SOL    HW1 4327   2.122   0.258   2.950
 1439SOL    HW2 4328   1.999   0.230   2.846
 1440SOL     OW 4329   1.881   0.368   2.509
 1440SOL    HW1 4330   1.799   0.411   2.548
 1440SOL    HW2 4331   1.853   0.295   2.446
 1441SOL     OW 4332   2.431   1.275   3.027
 1441SOL    HW1 4333   2.338   1.268   2.990
 1441SOL    HW2 4334   2.442   1.364   3.071
 1442SOL     OW 4335   3.417   1.511   2.565
 1442SOL    HW1 4336   3.360   1.495   2.646
 1442SOL    HW2 4337   3.358   1.521   2.485
 1443SOL     OW 4338   2.997   0.703   2.579
 1443SOL    HW1 4339   3.054   0.781   2.554
 1443SOL    HW2 4340   2.937   0.729   2.655
 1444SOL     OW 4341   3.617   0.607   2.093
 1444SOL    HW1 4342   3.605   0.594   1.994
 1444SOL    HW2 4343   3.587   0.526   2.142
 1445SOL     OW 4344   2.630   1.144   2.885
 1445SOL    HW1 4345   2.552   1.161   2.945
 1445SOL    HW2 4346   2.664   1.231   2.849
 1446SOL     OW 4347   2.712   0.798   3.685
 1446SOL    HW1 4348   2.708   0.874   3.750
 1446SOL    HW2 4349   2.734   0.834   3.594
 1447SOL     OW 4350   2.547   1.012   2.527
 1447SOL    HW1 4351   2.616   0.996   2.597
 1447SOL    HW2 4352   2.474   1.069   2.565
 1448SOL     OW 4353   2.548   1.161   3.665
 1448SOL    HW1 4354   2.608   1.240   3.679
 1448SOL    HW2 4355   2.462   1.192   3.624
 1449SOL     OW 4356   2.197   1.435   2.923
 1449SOL    HW1 4357   2.119   1.404   2.870
 1449SOL    HW2 4358   2.255   1.493   2.866
 1450SOL     OW 4359   3.322   1.505   3.201
 1450SOL    HW1 4360   3.346   1.599   3.227
 1450SOL    HW2 4361   3.306   1.451   3.283
 1451SOL     OW 4362   2.300   0.392   3.361
 1451SOL    HW1 4363   2.382   0.336   3.370
 1451SOL    HW2 4364   2.219   0.334   3.365
 1452SOL     OW 4365   3.465   0.447   2.599
 1452SOL    HW1 4366   3.391   0.493   2.549
 1452SOL    HW2 4367   3.516   0.515   2.652
 1453SOL     OW 4368   2.093   1.713   2.345
 1453SOL    HW1 4369   2.127   1.790   2.399
 1453SOL    HW2 4370   2.137   1.713   2.255
 1454SOL     OW 4371   2.989   1.341   3.552
 1454SOL    HW1 4372   3.036   1.341   3.640
 1454SOL    HW2 4373   2.941   1.254   3.541
 1455SOL     OW 4374   2.092   1.434   2.400
 1455SOL    HW1 4375   2.066   1.530   2.400
 1455SOL    HW2 4376   2.021   1.380   2.445
 1456SOL     OW 4377   2.102   1.091   2.748
 1456SOL    HW1 4378   2.116   1.007   2.800
 1456SOL    HW2 4379   2.047   1.155   2.803
 1457SOL     OW 4380   2.482   1.786   3.301
 1457SOL    HW1 4381   2.390   1.769   3.336
 1457SOL    HW2 4382   2.510   1.878   3.327
 1458SOL     OW 4383   2.468   0.964   1.985
 1458SOL    HW1 4384   2.475   1.048   1.931
 1458SOL    HW2 4385   2.514   0.977   2.073
 1459SOL     OW 4386   3.456   0.114   3.342
 1459SOL    HW1 4387   3.438   0.181   3.270
 1459SOL    HW2 4388   3.453   0.160   3.431
 1460SOL     OW 4389   1.984   0.643   2.425
 1460SOL    HW1 4390   1.939   0.555   2.442
 1460SOL    HW2 4391   1.983   0.697   2.509
 1461SOL     OW 4392   3.704   1.767   2.221
 1461SOL    HW1 4393   3.758   1.738   2.301
 1461SOL    HW2 4394   3.734   1.857   2.192
 1462SOL     OW 4395   1.889   1.596   1.979
 1462SOL    HW1 4396   1.870   1.500   2.000
 1462SOL    HW2 4397   1.856   1.654   2.054
 1463SOL     OW 4398   3.551   0.922   2.474
 1463SOL    HW1 4399   3.646   0.893   2.482
 1463SOL    HW2 4400   3.543   0.987   2.399
 1464SOL     OW 4401   3.503   1.108   2.294
 1464SOL    HW1 4402   3.589   1.110   2.242
 1464SOL    HW2 4403   3.517   1.155   2.382
 1465SOL     OW 4404   1.975   0.737   3.459
 1465SOL    HW1 4405   2.063   0.724   3.504
 1465SOL    HW2 4406   1.962   0.834   3.437
 1466SOL     OW 4407   2.475   1.365   2.588
 1466SOL    HW1 4408   2.426   1.278   2.597
 1466SOL    HW2 4409   2.452   1.408   2.501
 1467SOL     OW 4410   3.155   1.228   3.285
 1467SOL    HW1 4411   3.192   1.155   3.227
 1467SOL    HW2 4412   3.207   1.233   3.370
 1468SOL     OW 4413   2.671   0.004   2.364
 1468SOL    HW1 4414   2.711   0.095   2.355
 1468SOL    HW2 4415   2.571   0.012   2.370
 1469SOL     OW 4416   2.059   0.976   3.126
 1469SOL    HW1 4417   2.148   0.931   3.112
 1469SOL    HW2 4418   1.986   0.911   3.107
 1470SOL     OW 4419   3.387   0.999   2.052
 1470SOL    HW1 4420   3.324   0.923   2.065
 1470SOL    HW2 4421   3.435   1.017   2.138
 1471SOL     OW 4422   3.049   1.792   3.478
 1471SOL    HW1 4423   3.073   1.852   3.402
 1471SOL    HW2 4424   3.056   1.697   3.448
 1472SOL     OW 4425   2.179   0.251   3.663
 1472SOL    HW1 4426   2.250   0.322   3.669
 1472SOL    HW2 4427   2.091   0.290   3.691
 1473SOL     OW 4428   3.328   1.417   2.815
 1473SOL    HW1 4429   3.269   1.423   2.895
 1473SOL    HW2 4430   3.313   1.329   2.769
 1474SOL     OW 4431   3.529   1.714   2.434
 1474SOL    HW1 4432   3.488   1.691   2.346
 1474SOL    HW2 4433   3.511   1.640   2.499
 1475SOL     OW 4434   2.460   0.729   2.132
 1475SOL    HW1 4435   2.484   0.798   2.064
 1475SOL    HW2 4436   2.382   0.762   2.186
 1476SOL     OW 4437   3.143   0.345   2.806
 1476SOL    HW1 4438   3.057   0.295   2.793
 1476SOL    HW2 4439   3.205   0.291   2.862
 1477SOL     OW 4440   3.438   1.662   2.169
 1477SOL    HW1 4441   3.527   1.708   2.172
 1477SOL    HW2 4442   3.417   1.638   2.074
 1478SOL     OW 4443   2.669   0.605   3.327
 1478SOL    HW1 4444   2.622   0.602   3.416
 1478SOL    HW2 4445   2.618   0.550   3.261
 1479SOL     OW 4446   3.256   0.469   3.536
 1479SOL    HW1 4447   3.236   0.512   3.624
 1479SOL    HW2 4448   3.334   0.407   3.545
 1480SOL     OW 4449   2.835   0.890   3.434
 1480SOL    HW1 4450   2.881   0.806   3.405
 1480SOL    HW2 4451   2.779   0.924   3.359
 1481SOL     OW 4452   2.853   0.410   3.104
 1481SOL    HW1 4453   2.776   0.444   3.158
 1481SOL    HW2 4454   2.819   0.359   3.025
 1482SOL     OW 4455   2.903   0.701   2.291
 1482SOL    HW1 4456   2.929   0.697   2.387
 1482SOL    HW2 4457   2.818   0.650   2.277
 1483SOL     OW 4458   1.938   0.811   2.651
 1483SOL    HW1 4459   2.037   0.799   2.660
 1483SOL    HW2 4460   1.914   0.906   2.672
 1484SOL     OW 4461   1.992   1.821   3.433
 1484SOL    HW1 4462   1.982   1.806   3.532
 1484SOL    HW2 4463   1.906   1.857   3.397
 1485SOL     OW 4464   2.727   0.348   2.057
 1485SOL    HW1 4465   2.786   0.411   2.008
 1485SOL    HW2 4466   2.746   0.254   2.028
 1486SOL     OW 4467   3.581   0.585   3.693
 1486SOL    HW1 4468   3.555   0.674   3.657
 1486SOL    HW2 4469   3.579   0.517   3.620
 1487SOL     OW 4470   3.224   1.144   2.407
 1487SOL    HW1 4471   3.307   1.115   2.359
 1487SOL    HW2 4472   3.175   1.211   2.351
 1488SOL     OW 4473   2.412   0.196   2.747
 1488SOL    HW1 4474   2.407   0.191   2.847
 1488SOL    HW2 4475   2.414   0.292   2.718
 1489SOL     OW 4476   2.870   1.456   2.339
 1489SOL    HW1 4477   2.824   1.528   2.287
 1489SOL    HW2 4478   2.866   1.476   2.437
 1490SOL     OW 4479   2.213   1.801   2.715
 1490SOL    HW1 4480   2.263   1.715   2.721
 1490SOL    HW2 4481   2.278   1.878   2.712
 1491SOL     OW 4482   3.657   1.066   2.735
 1491SOL    HW1 4483   3.595   1.051   2.659
 1491SOL    HW2 4484   3.605   1.077   2.820
 1492SOL     OW 4485   3.089   1.550   3.368
 1492SOL    HW1 4486   3.095   1.473   3.432
 1492SOL    HW2 4487   3.037   1.524   3.288
 1493SOL     OW 4488   2.183   0.943   2.104
 1493SOL    HW1 4489   2.265   0.982   2.062
 1493SOL    HW2 4490   2.156   0.861   2.055
 1494SOL     OW 4491   3.320   0.735   2.590
 1494SOL    HW1 4492   3.315   0.670   2.665
 1494SOL    HW2 4493   3.400   0.794   2.603
 1495SOL     OW 4494   2.323   1.266   3.589
 1495SOL    HW1 4495   2.273   1.267   3.503
 1495SOL    HW2 4496   2.260   1.248   3.665
 1496SOL     OW 4497   2.973   1.776   2.099
 1496SOL    HW1 4498   2.913   1.714   2.149
 1496SOL    HW2 4499   3.004   1.732   2.014
 1497SOL     OW 4500   2.064   0.285   3.360
 1497SOL    HW1 4501   1.984   0.345   3.347
 1497SOL    HW2 4502   2.054   0.236   3.446
 1498SOL     OW 4503   3.494   1.377   1.943
 1498SOL    HW1 4504   3.462   1.471   1.933
 1498SOL    HW2 4505   3.418   1.314   1.931
 1499SOL     OW 4506   2.326   1.743   2.185
 1499SOL    HW1 4507   2.359   1.782   2.271
 1499SOL    HW2 4508   2.402   1.736   2.120
 1500SOL     OW 4509   3.262   0.107   2.288
 1500SOL    HW1 4510   3.238   0.070   2.198
 1500SOL    HW2 4511   3.361   0.123   2.292
 1501SOL     OW 4512   2.111   1.785   3.103
 1501SOL    HW1 4513   2.168   1.720   3.153
 1501SOL    HW2 4514   2.095   1.752   3.010
 1502SOL     OW 4515   2.802   1.698   2.766
 1502SOL    HW1 4516   2.882   1.641   2.787
 1502SOL    HW2 4517   2.753   1.658   2.689
 1503SOL     OW 4518   2.244   0.700   2.342
 1503SOL    HW1 4519   2.289   0.610   2.339
 1503SOL    HW2 4520   2.150   0.689   2.375
 1504SOL     OW 4521   3.409   0.222   3.591
 1504SOL    HW1 4522   3.404   0.259   3.683
 1504SOL    HW2 4523   3.337   0.153   3.579
 1505SOL     OW 4524   2.476   0.122   1.979
 1505SOL    HW1 4525   2.574   0.100   1.986
 1505SOL    HW2 4526   2.445   0.105   1.886
 1506SOL     OW 4527   2.643   0.264   3.611
 1506SOL    HW1 4528   2.710   0.203   3.654
 1506SOL    HW2 4529   2.570   0.283   3.676
 1507SOL     OW 4530   2.750   1.514   3.057
 1507SOL    HW1 4531   2.727   1.489   2.963
 1507SOL    HW2 4532   2.811   1.445   3.096
 1508SOL     OW 4533   3.213   0.590   3.295
 1508SOL    HW1 4534   3.241   0.547   3.380
 1508SOL    HW2 4535   3.238   0.686   3.296
 1509SOL     OW 4536   2.665   1.402   2.786
 1509SOL    HW1 4537   2.755   1.416   2.744
 1509SOL    HW2 4538   2.594   1.404   2.715
 1510SOL     OW 4539   2.784   0.503   2.761
 1510SOL    HW1 4540   2.759   0.494   2.665
 1510SOL    HW2 4541   2.832   0.421   2.792
 1511SOL     OW 4542   2.401   0.064   2.374
 1511SOL    HW1 4543   2.320   0.065   2.432
 1511SOL    HW2 4544   2.404   0.147   2.319
 1512SOL     OW 4545   3.296   1.188   1.903
 1512SOL    HW1 4546   3.328   1.112   1.960
 1512SOL    HW2 4547   3.204   1.215   1.933
 1513SOL     OW 4548   2.159   0.035   2.033
 1513SOL    HW1 4549   2.208   0.119   2.012
 1513SOL    HW2 4550   2.221  -0.030   2.078
 1514SOL     OW 4551   2.797   0.236   2.342
 1514SOL    HW1 4552   2.749   0.277   2.264
 1514SOL    HW2 4553   2.896   0.234   2.323
 1515SOL     OW 4554   2.938   0.683   3.326
 1515SOL    HW1 4555   2.858   0.622   3.329
 1515SOL    HW2 4556   3.019   0.630   3.302
 1516SOL     OW 4557   3.089   1.570   2.655
 1516SOL    HW1 4558   3.110   1.644   2.590
 1516SOL    HW2 4559   3.157   1.570   2.728
 1517SOL     OW 4560   2.321   1.152   2.603
 1517SOL    HW1 4561   2.250   1.125   2.668
 1517SOL    HW2 4562   2.295   1.124   2.510
 1518SOL     OW 4563   3.133   1.797   2.453
 1518SOL    HW1 4564   3.177   1.861   2.389
 1518SOL    HW2 4565   3.083   1.849   2.523
 1519SOL     OW 4566   2.894   0.549   1.878
 1519SOL    HW1 4567   2.853   0.631   1.839
 1519SOL    HW2 4568   2.958   0.575   1.951
 1520SOL     OW 4569   1.940   0.556   3.248
 1520SOL    HW1 4570   2.032   0.555   3.207
 1520SOL    HW2 4571   1.934   0.630   3.315
 1521SOL     OW 4572   2.423   0.222   3.009
 1521SOL    HW1 4573   2.461   0.138   3.046
 1521SOL    HW2 4574   2.335   0.241   3.053
 1522SOL     OW 4575   2.728   0.454   2.504
 1522SOL    HW1 4576   2.696   0.526   2.442
 1522SOL    HW2 4577   2.752   0.373   2.451
 1523SOL     OW 4578   2.879   0.039   2.615
 1523SOL    HW1 4579   2.807   0.044   2.546
 1523SOL    HW2 4580   2.855  -0.030   2.684
 1524SOL     OW 4581   3.291   1.173   2.729
 1524SOL    HW1 4582   3.236   1.089   2.722
 1524SOL    HW2 4583   3.317   1.202   2.637
 1525SOL     OW 4584   3.328   0.590   2.854
 1525SOL    HW1 4585   3.298   0.495   2.861
 1525SOL    HW2 4586   3.401   0.606   2.920
 1526SOL     OW 4587   3.719   0.833   2.239
 1526SOL    HW1 4588   3.761   0.769   2.303
 1526SOL    HW2 4589   3.681   0.782   2.161
 1527SOL     OW 4590   2.350   1.385   2.036
 1527SOL    HW1 4591   2.263   1.370   2.083
 1527SOL    HW2 4592   2.333   1.411   1.941
 1528SOL     OW 4593   3.526   1.280   2.519
 1528SOL    HW1 4594   3.625   1.288   2.533
 1528SOL    HW2 4595   3.481   1.364   2.550
 1529SOL     OW 4596   3.252   0.575   1.940
 1529SOL    HW1 4597   3.198   0.554   2.021
 1529SOL    HW2 4598   3.343   0.534   1.949
 1530SOL     OW 4599   2.389   0.256   2.190
 1530SOL    HW1 4600   2.416   0.197   2.115
 1530SOL    HW2 4601   2.389   0.351   2.159
 1531SOL     OW 4602   3.616   1.223   3.450
 1531SOL    HW1 4603   3.707   1.184   3.437
 1531SOL    HW2 4604   3.624   1.319   3.474
 1532SOL     OW 4605   2.926   1.347   3.202
 1532SOL    HW1 4606   2.846   1.324   3.257
 1532SOL    HW2 4607   3.009   1.321   3.251
 1533SOL     OW 4608   3.454   1.629   3.487
 1533SOL    HW1 4609   3.481   1.663   3.397
 1533SOL    HW2 4610   3.533   1.591   3.533
 1534SOL     OW 4611   2.973   1.195   2.962
 1534SOL    HW1 4612   2.933   1.239   3.043
 1534SOL    HW2 4613   2.932   1.232   2.879
 1535SOL     OW 4614   3.500   1.099   2.941
 1535SOL    HW1 4615   3.505   1.180   3.000
 1535SOL    HW2 4616   3.414   1.101   2.890
 1536SOL     OW 4617   2.777   0.089   3.264
 1536SOL    HW1 4618   2.802   0.069   3.169
 1536SOL    HW2 4619   2.849   0.145   3.306
 1537SOL     OW 4620   2.842   1.116   3.581
 1537SOL    HW1 4621   2.743   1.122   3.591
 1537SOL    HW2 4622   2.865   1.036   3.525
 1538SOL     OW 4623   2.567   1.050   2.230
 1538SOL    HW1 4624   2.553   1.057   2.329
 1538SOL    HW2 4625   2.651   0.999   2.212
 1539SOL     OW 4626   2.272   0.813   3.113
 1539SOL    HW1 4627   2.358   0.825   3.163
 1539SOL    HW2 4628   2.230   0.726   3.140
 1540SOL     OW 4629   3.136   0.386   3.124
 1540SOL    HW1 4630   3.157   0.460   3.188
 1540SOL    HW2 4631   3.047   0.403   3.081
 1541SOL     OW 4632   1.926   1.564   3.193
 1541SOL    HW1 4633   1.880   1.646   3.159
 1541SOL    HW2 4634   2.024   1.583   3.202
 1542SOL     OW 4635   2.229   1.100   2.363
 1542SOL    HW1 4636   2.222   1.183   2.307
 1542SOL    HW2 4637   2.233   1.020   2.303
 1543SOL     OW 4638   2.428   0.537   2.727
 1543SOL    HW1 4639   2.440   0.603   2.653
 1543SOL    HW2 4640   2.474   0.571   2.810
 1544SOL     OW 4641   3.114   1.348   2.250
 1544SOL    HW1 4642   3.164   1.425   2.290
 1544SOL    HW2 4643   3.019   1.350   2.282
 1545SOL     OW 4644   3.134   1.445   3.004
 1545SOL    HW1 4645   3.181   1.458   3.091
 1545SOL    HW2 4646   3.068   1.371   3.013
 1546SOL     OW 4647   3.444   0.639   2.334
 1546SOL    HW1 4648   3.413   0.700   2.407
 1546SOL    HW2 4649   3.494   0.691   2.265
 1547SOL     OW 4650   2.216   1.510   3.191
 1547SOL    HW1 4651   2.195   1.466   3.104
 1547SOL    HW2 4652   2.313   1.536   3.194
 1548SOL     OW 4653   2.264   0.751   3.460
 1548SOL    HW1 4654   2.332   0.806   3.413
 1548SOL    HW2 4655   2.304   0.663   3.487
 1549SOL     OW 4656   3.449   0.779   3.532
 1549SOL    HW1 4657   3.357   0.817   3.527
 1549SOL    HW2 4658   3.509   0.826   3.467
 1550SOL     OW 4659   2.875   0.105   3.632
 1550SOL    HW1 4660   2.881   0.190   3.580
 1550SOL    HW2 4661   2.907   0.029   3.575
 1551SOL     OW 4662   2.366   0.050   3.602
 1551SOL    HW1 4663   2.324  -0.007   3.532
 1551SOL    HW2 4664   2.300   0.119   3.634
 1552SOL     OW 4665   2.435   0.870   2.891
 1552SOL    HW1 4666   2.479   0.959   2.882
 1552SOL    HW2 4667   2.372   0.870   2.968
 1553SOL     OW 4668   3.222   0.862   2.907
 1553SOL    HW1 4669   3.147   0.862   2.841
 1553SOL    HW2 4670   3.259   0.770   2.916
 1554SOL     OW 4671   3.071   0.525   2.137
 1554SOL    HW1 4672   3.084   0.441   2.191
 1554SOL    HW2 4673   3.042   0.599   2.197
 1555SOL     OW 4674   2.169   0.213   3.093
 1555SOL    HW1 4675   2.146   0.250   3.183
 1555SOL    HW2 4676   2.139   0.118   3.087
 1556SOL     OW 4677   1.899   1.310   3.144
 1556SOL    HW1 4678   1.952   1.261   3.212
 1556SOL    HW2 4679   1.921   1.408   3.149
 1557SOL     OW 4680   2.594   0.634   2.926
 1557SOL    HW1 4681   2.653   0.608   2.850
 1557SOL    HW2 4682   2.566   0.730   2.915
 1558SOL     OW 4683   3.590   0.935   3.716
 1558SOL    HW1 4684   3.544   0.928   3.627
 1558SOL    HW2 4685   3.528   0.979   3.782
 1559SOL     OW 4686   2.169   0.063   2.480
 1559SOL    HW1 4687   2.158   0.157   2.513
 1559SOL    HW2 4688   2.164   0.000   2.557
 1560SOL     OW 4689   3.484   0.367   2.236
 1560SOL    HW1 4690   3.486   0.291   2.300
 1560SOL    HW2 4691   3.436   0.444   2.276
 1561SOL     OW 4692   2.885   0.766   2.828
 1561SOL    HW1 4693   2.900   0.787   2.924
 1561SOL    HW2 4694   2.855   0.671   2.819
 1562SOL     OW 4695   2.842   1.573   3.562
 1562SOL    HW1 4696   2.822   1.617   3.474
 1562SOL    HW2 4697   2.881   1.482   3.546
 1563SOL     OW 4698   3.721   1.518   3.467
 1563SOL    HW1 4699   3.735   1.545   3.372
 1563SOL    HW2 4700   3.804   1.540   3.520
 1564SOL     OW 4701   2.212   0.898   3.666
 1564SOL    HW1 4702   2.288   0.942   3.714
 1564SOL    HW2 4703   2.247   0.851   3.584
 1565SOL     OW 4704   3.402   0.274   1.987
 1565SOL    HW1 4705   3.341   0.199   2.010
 1565SOL    HW2 4706   3.424   0.326   2.070
 1566SOL     OW 4707   3.165   0.838   1.904
 1566SOL    HW1 4708   3.199   0.745   1.919
 1566SOL    HW2 4709   3.183   0.865   1.809
 1567SOL     OW 4710   2.930   1.333   2.711
 1567SOL    HW1 4711   2.937   1.249   2.656
 1567SOL    HW2 4712   2.992   1.402   2.675
 1568SOL     OW 4713   2.181   0.810   2.811
 1568SOL    HW1 4714   2.274   0.846   2.816
 1568SOL    HW2 4715   2.175   0.725   2.863
 1569SOL     OW 4716   2.201   0.509   2.868
 1569SOL    HW1 4717   2.149   0.426   2.851
 1569SOL    HW2 4718   2.278   0.514   2.804
 1570SOL     OW 4719   3.000   0.380   3.540
 1570SOL    HW1 4720   2.955   0.443   3.604
 1570SOL    HW2 4721   3.093   0.411   3.523
 1571SOL     OW 4722   3.022   0.207   3.339
 1571SOL    HW1 4723   3.022   0.271   3.416
 1571SOL    HW2 4724   3.050   0.255   3.256
 1572SOL     OW 4725   1.870   1.326   2.062
 1572SOL    HW1 4726   1.777   1.347   2.031
 1572SOL    HW2 4727   1.880   1.227   2.075
 1573SOL     OW 4728   1.950   1.801   2.789
 1573SOL    HW1 4729   1.908   1.715   2.762
 1573SOL    HW2 4730   2.044   1.804   2.755
 1574SOL     OW 4731   2.366   1.568   2.772
 1574SOL    HW1 4732   2.432   1.642   2.781
 1574SOL    HW2 4733   2.410   1.489   2.730
 1575SOL     OW 4734   2.864   0.796   3.100
 1575SOL    HW1 4735   2.905   0.764   3.186
 1575SOL    HW2 4736   2.768   0.769   3.097
 1576SOL     OW 4737   1.902   0.544   2.976
 1576SOL    HW1 4738   1.987   0.511   2.935
 1576SOL    HW2 4739   1.915   0.559   3.074
 1577SOL     OW 4740   2.051   0.520   3.584
 1577SOL    HW1 4741   2.110   0.480   3.514
 1577SOL    HW2 4742   1.993   0.591   3.543
 1578SOL     OW 4743   3.231   0.950   3.522
 1578SOL    HW1 4744   3.270   1.039   3.542
 1578SOL    HW2 4745   3.241   0.930   3.425
 1579SOL     OW 4746   2.677   0.572   2.187
 1579SOL    HW1 4747   2.684   0.483   2.141
 1579SOL    HW2 4748   2.583   0.606   2.179
 1580SOL     OW 4749   3.519   0.604   3.068
 1580SOL    HW1 4750   3.481   0.535   3.130
 1580SOL    HW2 4751   3.601   0.568   3.024
 1581SOL     OW 4752   2.114   1.564   3.606
 1581SOL    HW1 4753   2.084   1.621   3.682
 1581SOL    HW2 4754   2.107   1.467   3.632
 1582SOL     OW 4755   2.533   0.464   3.131
 1582SOL    HW1 4756   2.499   0.375   3.101
 1582SOL    HW2 4757   2.559   0.518   3.051
 1583SOL     OW 4758   2.792   1.678   3.327
 1583SOL    HW1 4759   2.768   1.660   3.232
 1583SOL    HW2 4760   2.822   1.772   3.337
 1584SOL     OW 4761   2.335   0.500   2.053
 1584SOL    HW1 4762   2.396   0.580   2.057
 1584SOL    HW2 4763   2.240   0.531   2.060
 1585SOL     OW 4764   2.021   1.137   3.328
 1585SOL    HW1 4765   2.043   1.076   3.404
 1585SOL    HW2 4766   2.031   1.088   3.242
 1586SOL     OW 4767   3.209   1.059   3.096
 1586SOL    HW1 4768   3.233   0.996   3.022
 1586SOL    HW2 4769   3.119   1.099   3.078
 1587SOL     OW 4770   3.164   0.855   2.171
 1587SOL    HW1 4771   3.078   0.824   2.213
 1587SOL    HW2 4772   3.160   0.841   2.072
 1588SOL     OW 4773   3.621   1.747   3.016
 1588SOL    HW1 4774   3.682   1.777   2.943
 1588SOL    HW2 4775   3.583   1.658   2.994
 1589SOL     OW 4776   3.114   1.731   2.990
 1589SOL    HW1 4777   3.198   1.736   2.936
 1589SOL    HW2 4778   3.091   1.635   3.008
 1590SOL     OW 4779   1.945   1.258   2.884
 1590SOL    HW1 4780   1.940   1.257   2.984
 1590SOL    HW2 4781   1.862   1.217   2.846
 1591SOL     OW 4782   2.550   1.662   3.578
 1591SOL    HW1 4783   2.494   1.743   3.587
 1591SOL    HW2 4784   2.602   1.666   3.492
 1592SOL     OW 4785   3.588   0.135   2.385
 1592SOL    HW1 4786   3.661   0.118   2.318
 1592SOL    HW2 4787   3.557   0.048   2.423
 1593SOL     OW 4788   3.250   1.573   2.339
 1593SOL    HW1 4789   3.317   1.585   2.265
 1593SOL    HW2 4790   3.210   1.662   2.362
 1594SOL     OW 4791   1.992   1.794   3.713
 1594SOL    HW1 4792   1.951   1.720   3.766
 1594SOL    HW2 4793   2.056   1.845   3.771
 1595SOL     OW 4794   3.142   0.927   2.534
 1595SOL    HW1 4795   3.202   0.846   2.536
 1595SOL    HW2 4796   3.182   0.996   2.474
 1596SOL     OW 4797   2.692   1.273   3.284
 1596SOL    HW1 4798   2.687   1.306   3.379
 1596SOL    HW2 4799   2.606   1.292   3.238
 1597SOL     OW 4800   2.534   1.616   2.016
 1597SOL    HW1 4801   2.543   1.626   1.917
 1597SOL    HW2 4802   2.494   1.527   2.037
 1598SOL     OW 4803   3.512   1.720   3.256
 1598SOL    HW1 4804   3.565   1.730   3.172
 1598SOL    HW2 4805   3.485   1.810   3.290
 1599SOL     OW 4806   3.703   0.175   2.825
 1599SOL    HW1 4807   3.742   0.090   2.789
 1599SOL    HW2 4808   3.605   0.177   2.806
 1600SOL     OW 4809   2.125   0.326   2.582
 1600SOL    HW1 4810   2.046   0.377   2.548
 1600SOL    HW2 4811   2.116   0.311   2.680
 1601SOL     OW 4812   3.056   1.612   1.893
 1601SOL    HW1 4813   3.062   1.519   1.930
 1601SOL    HW2 4814   2.997   1.612   1.813
 1602SOL     OW 4815   2.684   1.002   3.234
 1602SOL    HW1 4816   2.724   1.001   3.142
 1602SOL    HW2 4817   2.694   1.094   3.274
 1603SOL     OW 4818   2.778   0.910   2.153
 1603SOL    HW1 4819   2.841   0.948   2.085
 1603SOL    HW2 4820   2.818   0.827   2.192
 1604SOL     OW 4821   3.366   1.607   1.906
 1604SOL    HW1 4822   3.274   1.644   1.913
 1604SOL    HW2 4823   3.404   1.627   1.816
 1605SOL     OW 4824   2.234   1.288   3.352
 1605SOL    HW1 4825   2.221   1.381   3.318
 1605SOL    HW2 4826   2.150   1.236   3.339
 1606SOL     OW 4827   3.476   1.292   3.151
 1606SOL    HW1 4828   3.536   1.295   3.231
 1606SOL    HW2 4829   3.401   1.356   3.164
 1607SOL     OW 4830   2.901   1.098   2.558
 1607SOL    HW1 4831   2.831   1.051   2.612
 1607SOL    HW2 4832   2.960   1.030   2.515
 1608SOL     OW 4833   2.876   0.236   2.833
 1608SOL    HW1 4834   2.868   0.200   2.740
 1608SOL    HW2 4835   2.874   0.160   2.898
 1609SOL     OW 4836   2.452   1.487   2.353
 1609SOL    HW1 4837   2.494   1.429   2.283
 1609SOL    HW2 4838   2.408   1.566   2.309
 1610SOL     OW 4839   3.571   0.385   3.243
 1610SOL    HW1 4840   3.644   0.454   3.247
 1610SOL    HW2 4841   3.599   0.310   3.184
 1611SOL     OW 4842   2.117   1.348   2.152
 1611SOL    HW1 4843   2.021   1.349   2.125
 1611SOL    HW2 4844   2.129   1.401   2.236
 1612SOL     OW 4845   1.967   1.013   3.588
 1612SOL    HW1 4846   1.890   0.980   3.642
 1612SOL    HW2 4847   2.052   0.983   3.630
 1613SOL     OW 4848   2.534   0.203   3.351
 1613SOL    HW1 4849   2.624   0.187   3.311
 1613SOL    HW2 4850   2.542   0.208   3.450
 1614SOL     OW 4851   1.937   0.345   1.895
 1614SOL    HW1 4852   1.845   0.317   1.866
 1614SOL    HW2 4853   1.968   0.422   1.839
 1615SOL     OW 4854   3.302   0.856   3.260
 1615SOL    HW1 4855   3.245   0.908   3.197
 1615SOL    HW2 4856   3.398   0.868   3.236
 1616SOL     OW 4857   1.934   0.166   2.180
 1616SOL    HW1 4858   1.917   0.249   2.126
 1616SOL    HW2 4859   2.024   0.129   2.158
 1617SOL     OW 4860   3.045   1.335   1.981
 1617SOL    HW1 4861   2.946   1.324   1.983
 1617SOL    HW2 4862   3.079   1.350   2.074
 1618SOL     OW 4863   2.475   0.842   3.293
 1618SOL    HW1 4864   2.531   0.923   3.276
 1618SOL    HW2 4865   2.534   0.762   3.296
 1619SOL     OW 4866   3.355   1.767   2.821
 1619SOL    HW1 4867   3.388   1.831   2.752
 1619SOL    HW2 4868   3.421   1.761   2.896
 1620SOL     OW 4869   2.578   0.565   3.570
 1620SOL    HW1 4870   2.597   0.630   3.644
 1620SOL    HW2 4871   2.638   0.485   3.579
 1621SOL     OW 4872   3.312   1.220   3.495
 1621SOL    HW1 4873   3.303   1.210   3.594
 1621SOL    HW2 4874   3.408   1.213   3.469
 1622SOL     OW 4875   2.252   1.741   3.422
 1622SOL    HW1 4876   2.161   1.782   3.420
 1622SOL    HW2 4877   2.245   1.647   3.454
 1623SOL     OW 4878   3.536   0.883   3.116
 1623SOL    HW1 4879   3.509   0.794   3.079
 1623SOL    HW2 4880   3.537   0.951   3.043
 1624SOL     OW 4881   3.087   0.325   2.311
 1624SOL    HW1 4882   3.152   0.251   2.300
 1624SOL    HW2 4883   3.107   0.375   2.395
 1625SOL     OW 4884   2.456   0.745   2.514
 1625SOL    HW1 4885   2.506   0.830   2.495
 1625SOL    HW2 4886   2.368   0.747   2.466
 1626SOL     OW 4887   3.639   0.342   3.504
 1626SOL    HW1 4888   3.622   0.373   3.410
 1626SOL    HW2 4889   3.555   0.305   3.542
 1627SOL     OW 4890   3.592   0.934   3.379
 1627SOL    HW1 4891   3.630   1.025   3.394
 1627SOL    HW2 4892   3.584   0.917   3.280
 1628SOL     OW 4893   2.721   1.374   1.878
 1628SOL    HW1 4894   2.675   1.389   1.966
 1628SOL    HW2 4895   2.765   1.459   1.848
 1629SOL     OW 4896   2.523   1.790   2.815
 1629SOL    HW1 4897   2.477   1.878   2.802
 1629SOL    HW2 4898   2.622   1.802   2.808
 1630SOL     OW 4899   2.721   0.956   2.723
 1630SOL    HW1 4900   2.775   0.887   2.771
 1630SOL    HW2 4901   2.689   1.025   2.789
 1631SOL     OW 4902   2.945   0.984   1.949
 1631SOL    HW1 4903   2.922   1.037   1.867
 1631SOL    HW2 4904   3.026   0.928   1.930
 1632SOL     OW 4905   3.723   1.569   2.713
 1632SOL    HW1 4906   3.652   1.557   2.643
 1632SOL    HW2 4907   3.724   1.490   2.773
 1633SOL     OW 4908   2.083   1.314   3.706
 1633SOL    HW1 4909   2.018   1.241   3.685
 1633SOL    HW2 4910   2.087   1.328   3.804
 1634SOL     OW 4911   1.941   1.240   2.515
 1634SOL    HW1 4912   1.940   1.193   2.603
 1634SOL    HW2 4913   2.023   1.212   2.464
 1635SOL     OW 4914   2.534   1.391   3.486
 1635SOL    HW1 4915   2.456   1.341   3.524
 1635SOL    HW2 4916   2.531   1.486   3.517
 1636SOL     OW 4917   3.686   0.192   3.089
 1636SOL    HW1 4918   3.682   0.102   3.133
 1636SOL    HW2 4919   3.689   0.181   2.990
 1637SOL     OW 4920   2.290   0.424   2.382
 1637SOL    HW1 4921   2.320   0.352   2.320
 1637SOL    HW2 4922   2.251   0.384   2.465
 1638SOL     OW 4923   3.567   1.487   2.966
 1638SOL    HW1 4924   3.474   1.462   2.939
 1638SOL    HW2 4925   3.593   1.437   3.048
 1639SOL     OW 4926   2.179   0.547   3.142
 1639SOL    HW1 4927   2.217   0.488   3.214
 1639SOL    HW2 4928   2.219   0.521   3.054
 1640SOL     OW 4929   2.674   1.586   2.549
 1640SOL    HW1 4930   2.706   1.596   2.455
 1640SOL    HW2 4931   2.595   1.524   2.551
 1641SOL     OW 4932   3.286   0.214   2.974
 1641SOL    HW1 4933   3.338   0.149   3.029
 1641SOL    HW2 4934   3.237   0.277   3.035
 1642SOL     OW 4935   2.863   0.034   3.016
 1642SOL    HW1 4936   2.800  -0.038   2.985
 1642SOL    HW2 4937   2.956  -0.002   3.016
 1643SOL     OW 4938   2.632   1.330   2.163
 1643SOL    HW1 4939   2.586   1.243   2.180
 1643SOL    HW2 4940   2.723   1.327   2.204
 1644SOL     OW 4941   2.480   1.567   3.146
 1644SOL    HW1 4942   2.475   1.649   3.203
 1644SOL    HW2 4943   2.569   1.564   3.101
 1645SOL     OW 4944   3.214   0.052   2.030
 1645SOL    HW1 4945   3.249   0.011   1.946
 1645SOL    HW2 4946   3.124   0.014   2.050
 1646SOL     OW 4947   3.162   0.453   2.553
 1646SOL    HW1 4948   3.103   0.533   2.557
 1646SOL    HW2 4949   3.177   0.418   2.646
 1647SOL     OW 4950   3.455   0.221   2.744
 1647SOL    HW1 4951   3.371   0.220   2.798
 1647SOL    HW2 4952   3.457   0.304   2.688
 1648SOL     OW 4953   1.901   1.077   2.162
 1648SOL    HW1 4954   2.000   1.066   2.153
 1648SOL    HW2 4955   1.861   0.991   2.194
 1649SOL     OW 4956   2.737   1.646   2.199
 1649SOL    HW1 4957   2.660   1.611   2.145
 1649SOL    HW2 4958   2.705   1.717   2.261
 1650SOL     OW 4959   2.092   0.628   3.837
 1650SOL    HW1 4960   1.999   0.626   3.874
 1650SOL    HW2 4961   2.093   0.589   3.745
 1651SOL     OW 4962   2.087   0.275   4.720
 1651SOL    HW1 4963   2.122   0.258   4.812
 1651SOL    HW2 4964   1.999   0.230   4.708
 1652SOL     OW 4965   2.997   0.703   4.441
 1652SOL    HW1 4966   3.054   0.781   4.416
 1652SOL    HW2 4967   2.937   0.729   4.517
 1653SOL     OW 4968   3.617   0.607   3.955
 1653SOL    HW1 4969   3.605   0.594   3.856
 1653SOL    HW2 4970   3.587   0.526   4.004
 1654SOL     OW 4971   3.465   0.447   4.461
 1654SOL    HW1 4972   3.391   0.493   4.411
 1654SOL    HW2 4973   3.516   0.515   4.514
 1655SOL     OW 4974   2.093   1.713   4.207
 1655SOL    HW1 4975   2.127   1.790   4.261
 1655SOL    HW2 4976   2.137   1.713   4.117
 1656SOL     OW 4977   2.092   1.434   4.262
 1656SOL    HW1 4978   2.066   1.530   4.262
 1656SOL    HW2 4979   2.021   1.380   4.307
 1657SOL     OW 4980   2.468   0.964   3.847
 1657SOL    HW1 4981   2.475   1.048   3.793
 1657SOL    HW2 4982   2.514   0.977   3.935
 1658SOL     OW 4983   1.984   0.643   4.287
 1658SOL    HW1 4984   1.939   0.555   4.304
 1658SOL    HW2 4985   1.983   0.697   4.371
 1659SOL     OW 4986   3.704   1.767   4.083
 1659SOL    HW1 4987   3.758   1.738   4.163
 1659SOL    HW2 4988   3.734   1.857   4.054
 1660SOL     OW 4989   1.889   1.596   3.841
 1660SOL    HW1 4990   1.870   1.500   3.862
 1660SOL    HW2 4991   1.856   1.654   3.916
 1661SOL     OW 4992   3.551   0.922   4.336
 1661SOL    HW1 4993   3.646   0.893   4.344
 1661SOL    HW2 4994   3.543   0.987   4.261
 1662SOL     OW 4995   3.503   1.108   4.156
 1662SOL    HW1 4996   3.589   1.110   4.104
 1662SOL    HW2 4997   3.517   1.155   4.244
 1663SOL     OW 4998   2.475   1.365   4.450
 1663SOL    HW1 4999   2.426   1.278   4.459
 1663SOL    HW2 5000   2.452   1.408   4.363
 1664SOL     OW 5001   2.671   0.004   4.226
 1664SOL    HW1 5002   2.711   0.095   4.217
 1664SOL    HW2 5003   2.571   0.012   4.232
 1665SOL     OW 5004   3.387   0.999   3.914
 1665SOL    HW1 5005   3.324   0.923   3.927
 1665SOL    HW2 5006   3.435   1.017   4.000
 1666SOL     OW 5007   2.460   0.729   3.994
 1666SOL    HW1 5008   2.484   0.798   3.926
 1666SOL    HW2 5009   2.382   0.762   4.048
 1667SOL     OW 5010   3.143   0.345   4.668
 1667SOL    HW1 5011   3.057   0.295   4.655
 1667SOL    HW2 5012   3.205   0.291   4.724
 1668SOL     OW 5013   3.438   1.662   4.031
 1668SOL    HW1 5014   3.527   1.708   4.034
 1668SOL    HW2 5015   3.417   1.638   3.936
 1669SOL     OW 5016   2.903   0.701   4.153
 1669SOL    HW1 5017   2.929   0.697   4.249
 1669SOL    HW2 5018   2.818   0.650   4.139
 1670SOL     OW 5019   1.938   0.811   4.513
 1670SOL    HW1 5020   2.037   0.799   4.522
 1670SOL    HW2 5021   1.914   0.906   4.534
 1671SOL     OW 5022   2.727   0.348   3.919
 1671SOL    HW1 5023   2.786   0.411   3.870
 1671SOL    HW2 5024   2.746   0.254   3.890
 1672SOL     OW 5025   3.224   1.144   4.269
 1672SOL    HW1 5026   3.307   1.115   4.221
 1672SOL    HW2 5027   3.175   1.211   4.213
 1673SOL     OW 5028   2.870   1.456   4.201
 1673SOL    HW1 5029   2.824   1.528   4.149
 1673SOL    HW2 5030   2.866   1.476   4.299
 1674SOL     OW 5031   2.213   1.801   4.577
 1674SOL    HW1 5032   2.263   1.715   4.583
 1674SOL    HW2 5033   2.278   1.878   4.574
 1675SOL     OW 5034   3.657   1.066   4.597
 1675SOL    HW1 5035   3.595   1.051   4.521
 1675SOL    HW2 5036   3.605   1.077   4.682
 1676SOL     OW 5037   2.183   0.943   3.966
 1676SOL    HW1 5038   2.265   0.982   3.924
 1676SOL    HW2 5039   2.156   0.861   3.917
 1677SOL     OW 5040   2.973   1.776   3.961
 1677SOL    HW1 5041   2.913   1.714   4.011
 1677SOL    HW2 5042   3.004   1.732   3.876
 1678SOL     OW 5043   3.494   1.377   3.805
 1678SOL    HW1 5044   3.462   1.471   3.795
 1678SOL    HW2 5045   3.418   1.314   3.793
 1679SOL     OW 5046   2.326   1.743   4.047
 1679SOL    HW1 5047   2.359   1.782   4.133
 1679SOL    HW2 5048   2.402   1.736   3.982
 1680SOL     OW 5049   3.262   0.107   4.150
 1680SOL    HW1 5050   3.238   0.070   4.060
 1680SOL    HW2 5051   3.361   0.123   4.154
 1681SOL     OW 5052   2.802   1.698   4.628
 1681SOL    HW1 5053   2.882   1.641   4.649
 1681SOL    HW2 5054   2.753   1.658   4.551
 1682SOL     OW 5055   2.244   0.700   4.204
 1682SOL    HW1 5056   2.289   0.610   4.201
 1682SOL    HW2 5057   2.150   0.689   4.237
 1683SOL     OW 5058   2.476   0.122   3.841
 1683SOL    HW1 5059   2.574   0.100   3.848
 1683SOL    HW2 5060   2.445   0.105   3.748
 1684SOL     OW 5061   2.401   0.064   4.236
 1684SOL    HW1 5062   2.320   0.065   4.294
 1684SOL    HW2 5063   2.404   0.147   4.181
 1685SOL     OW 5064   3.296   1.188   3.765
 1685SOL    HW1 5065   3.328   1.112   3.822
 1685SOL    HW2 5066   3.204   1.215   3.795
 1686SOL     OW 5067   2.159   0.035   3.895
 1686SOL    HW1 5068   2.208   0.119   3.874
 1686SOL    HW2 5069   2.221  -0.030   3.940
 1687SOL     OW 5070   2.797   0.236   4.204
 1687SOL    HW1 5071   2.749   0.277   4.126
 1687SOL    HW2 5072   2.896   0.234   4.185
 1688SOL     OW 5073   2.321   1.152   4.465
 1688SOL    HW1 5074   2.250   1.125   4.530
 1688SOL    HW2 5075   2.295   1.124   4.372
 1689SOL     OW 5076   3.133   1.797   4.315
 1689SOL    HW1 5077   3.177   1.861   4.251
 1689SOL    HW2 5078   3.083   1.849   4.385
 1690SOL     OW 5079   2.894   0.549   3.740
 1690SOL    HW1 5080   2.853   0.631   3.701
 1690SOL    HW2 5081   2.958   0.575   3.813
 1691SOL     OW 5082   2.728   0.454   4.366
 1691SOL    HW1 5083   2.696   0.526   4.304
 1691SOL    HW2 5084   2.752   0.373   4.313
 1692SOL     OW 5085   3.719   0.833   4.101
 1692SOL    HW1 5086   3.761   0.769   4.165
 1692SOL    HW2 5087   3.681   0.782   4.023
 1693SOL     OW 5088   2.350   1.385   3.898
 1693SOL    HW1 5089   2.263   1.370   3.945
 1693SOL    HW2 5090   2.333   1.411   3.803
 1694SOL     OW 5091   3.252   0.575   3.802
 1694SOL    HW1 5092   3.198   0.554   3.883
 1694SOL    HW2 5093   3.343   0.534   3.811
 1695SOL     OW 5094   2.389   0.256   4.052
 1695SOL    HW1 5095   2.416   0.197   3.977
 1695SOL    HW2 5096   2.389   0.351   4.021
 1696SOL     OW 5097   2.973   1.195   4.824
 1696SOL    HW1 5098   2.933   1.239   4.905
 1696SOL    HW2 5099   2.932   1.232   4.741
 1697SOL     OW 5100   2.567   1.050   4.092
 1697SOL    HW1 5101   2.553   1.057   4.191
 1697SOL    HW2 5102   2.651   0.999   4.074
 1698SOL     OW 5103   2.229   1.100   4.225
 1698SOL    HW1 5104   2.222   1.183   4.169
 1698SOL    HW2 5105   2.233   1.020   4.165
 1699SOL     OW 5106   3.114   1.348   4.112
 1699SOL    HW1 5107   3.164   1.425   4.152
 1699SOL    HW2 5108   3.019   1.350   4.144
 1700SOL     OW 5109   3.444   0.639   4.196
 1700SOL    HW1 5110   3.413   0.700   4.269
 1700SOL    HW2 5111   3.494   0.691   4.127
 1701SOL     OW 5112   3.071   0.525   3.999
 1701SOL    HW1 5113   3.084   0.441   4.053
 1701SOL    HW2 5114   3.042   0.599   4.059
 1702SOL     OW 5115   2.169   0.063   4.342
 1702SOL    HW1 5116   2.158   0.157   4.375
 1702SOL    HW2 5117   2.164   0.000   4.419
 1703SOL     OW 5118   3.484   0.367   4.098
 1703SOL    HW1 5119   3.486   0.291   4.162
 1703SOL    HW2 5120   3.436   0.444   4.138
 1704SOL     OW 5121   3.402   0.274   3.849
 1704SOL    HW1 5122   3.341   0.199   3.872
 1704SOL    HW2 5123   3.424   0.326   3.932
 1705SOL     OW 5124   3.165   0.838   3.766
 1705SOL    HW1 5125   3.199   0.745   3.781
 1705SOL    HW2 5126   3.183   0.865   3.671
 1706SOL     OW 5127   1.870   1.326   3.924
 1706SOL    HW1 5128   1.777   1.347   3.893
 1706SOL    HW2 5129   1.880   1.227   3.937
 1707SOL     OW 5130   2.677   0.572   4.049
 1707SOL    HW1 5131   2.684   0.483   4.003
 1707SOL    HW2 5132   2.583   0.606   4.041
 1708SOL     OW 5133   2.335   0.500   3.915
 1708SOL    HW1 5134   2.396   0.580   3.919
 1708SOL    HW2 5135   2.240   0.531   3.922
 1709SOL     OW 5136   3.164   0.855   4.033
 1709SOL    HW1 5137   3.078   0.824   4.075
 1709SOL    HW2 5138   3.160   0.841   3.934
 1710SOL     OW 5139   3.588   0.135   4.247
 1710SOL    HW1 5140   3.661   0.118   4.180
 1710SOL    HW2 5141   3.557   0.048   4.285
 1711SOL     OW 5142   3.250   1.573   4.201
 1711SOL    HW1 5143   3.317   1.585   4.127
 1711SOL    HW2 5144   3.210   1.662   4.224
 1712SOL     OW 5145   2.534   1.616   3.878
 1712SOL    HW1 5146   2.543   1.626   3.779
 1712SOL    HW2 5147   2.494   1.527   3.899
 1713SOL     OW 5148   3.703   0.175   4.687
 1713SOL    HW1 5149   3.742   0.090   4.651
 1713SOL    HW2 5150   3.605   0.177   4.668
 1714SOL     OW 5151   3.056   1.612   3.755
 1714SOL    HW1 5152   3.062   1.519   3.792
 1714SOL    HW2 5153   2.997   1.612   3.675
 1715SOL     OW 5154   2.778   0.910   4.015
 1715SOL    HW1 5155   2.841   0.948   3.947
 1715SOL    HW2 5156   2.818   0.827   4.054
 1716SOL     OW 5157   3.366   1.607   3.768
 1716SOL    HW1 5158   3.274   1.644   3.775
 1716SOL    HW2 5159   3.404   1.627   3.678
 1717SOL     OW 5160   2.452   1.487   4.215
 1717SOL    HW1 5161   2.494   1.429   4.145
 1717SOL    HW2 5162   2.408   1.566   4.171
 1718SOL     OW 5163   2.117   1.348   4.014
 1718SOL    HW1 5164   2.021   1.349   3.987
 1718SOL    HW2 5165   2.129   1.401   4.098
 1719SOL     OW 5166   1.937   0.345   3.757
 1719SOL    HW1 5167   1.845   0.317   3.728
 1719SOL    HW2 5168   1.968   0.422   3.701
 1720SOL     OW 5169   1.934   0.166   4.042
 1720SOL    HW1 5170   1.917   0.249   3.988
 1720SOL    HW2 5171   2.024   0.129   4.020
 1721SOL     OW 5172   3.045   1.335   3.843
 1721SOL    HW1 5173   2.946   1.324   3.845
 1721SOL    HW2 5174   3.079   1.350   3.936
 1722SOL     OW 5175   3.087   0.325   4.173
 1722SOL    HW1 5176   3.152   0.251   4.162
 1722SOL    HW2 5177   3.107   0.375   4.257
 1723SOL     OW 5178   2.456   0.745   4.376
 1723SOL    HW1 5179   2.506   0.830   4.357
 1723SOL    HW2 5180   2.368   0.747   4.328
 1724SOL     OW 5181   2.721   1.374   3.740
 1724SOL    HW1 5182   2.675   1.389   3.828
 1724SOL    HW2 5183   2.765   1.459   3.710
 1725SOL     OW 5184   2.945   0.984   3.811
 1725SOL    HW1 5185   2.922   1.037   3.729
 1725SOL    HW2 5186   3.026   0.928   3.792
 1726SOL     OW 5187   1.941   1.240   4.377
 1726SOL    HW1 5188   1.940   1.193   4.465
 1726SOL    HW2 5189   2.023   1.212   4.326
 1727SOL     OW 5190   2.290   0.424   4.244
 1727SOL    HW1 5191   2.320   0.352   4.182
 1727SOL    HW2 5192   2.251   0.384   4.327
 1728SOL     OW 5193   2.674   1.586   4.411
 1728SOL    HW1 5194   2.706   1.596   4.317
 1728SOL    HW2 5195   2.595   1.524   4.413
 1729SOL     OW 5196   2.632   1.330   4.025
 1729SOL    HW1 5197   2.586   1.243   4.042
 1729SOL    HW2 5198   2.723   1.327   4.066
 1730SOL     OW 5199   3.214   0.052   3.892
 1730SOL    HW1 5200   3.249   0.011   3.808
 1730SOL    HW2 5201   3.124   0.014   3.912
 1731SOL     OW 5202   3.162   0.453   4.415
 1731SOL    HW1 5203   3.103   0.533   4.419
 1731SOL    HW2 5204   3.177   0.418   4.508
 1732SOL     OW 5205   1.901   1.077   4.024
 1732SOL    HW1 5206   2.000   1.066   4.015
 1732SOL    HW2 5207   1.861   0.991   4.056
 1733SOL     OW 5208   2.737   1.646   4.061
 1733SOL    HW1 5209   2.660   1.611   4.007
 1733SOL    HW2 5210   2.705   1.717   4.123
 1734SOL     OW 5211   2.092   2.490   0.113
 1734SOL    HW1 5212   1.999   2.488   0.150
 1734SOL    HW2 5213   2.093   2.451   0.021
 1735SOL     OW 5214   2.087   2.137   0.996
 1735SOL    HW1 5215   2.122   2.120   1.088
 1735SOL    HW2 5216   1.999   2.092   0.984
 1736SOL     OW 5217   1.881   2.230   0.647
 1736SOL    HW1 5218   1.799   2.273   0.686
 1736SOL    HW2 5219   1.853   2.157   0.584
 1737SOL     OW 5220   2.431   3.137   1.165
 1737SOL    HW1 5221   2.338   3.130   1.128
 1737SOL    HW2 5222   2.442   3.226   1.209
 1738SOL     OW 5223   3.417   3.373   0.703
 1738SOL    HW1 5224   3.360   3.357   0.784
 1738SOL    HW2 5225   3.358   3.383   0.623
 1739SOL     OW 5226   2.997   2.565   0.717
 1739SOL    HW1 5227   3.054   2.643   0.692
 1739SOL    HW2 5228   2.937   2.591   0.793
 1740SOL     OW 5229   3.617   2.469   0.231
 1740SOL    HW1 5230   3.605   2.456   0.132
 1740SOL    HW2 5231   3.587   2.388   0.280
 1741SOL     OW 5232   2.630   3.006   1.023
 1741SOL    HW1 5233   2.552   3.023   1.083
 1741SOL    HW2 5234   2.664   3.093   0.987
 1742SOL     OW 5235   2.712   2.660   1.823
 1742SOL    HW1 5236   2.708   2.736   1.888
 1742SOL    HW2 5237   2.734   2.696   1.732
 1743SOL     OW 5238   2.547   2.874   0.665
 1743SOL    HW1 5239   2.616   2.858   0.735
 1743SOL    HW2 5240   2.474   2.931   0.703
 1744SOL     OW 5241   2.548   3.023   1.803
 1744SOL    HW1 5242   2.608   3.102   1.817
 1744SOL    HW2 5243   2.462   3.054   1.762
 1745SOL     OW 5244   2.197   3.297   1.061
 1745SOL    HW1 5245   2.119   3.266   1.008
 1745SOL    HW2 5246   2.255   3.355   1.004
 1746SOL     OW 5247   3.322   3.367   1.339
 1746SOL    HW1 5248   3.346   3.461   1.365
 1746SOL    HW2 5249   3.306   3.313   1.421
 1747SOL     OW 5250   2.300   2.254   1.499
 1747SOL    HW1 5251   2.382   2.198   1.508
 1747SOL    HW2 5252   2.219   2.196   1.503
 1748SOL     OW 5253   3.465   2.309   0.737
 1748SOL    HW1 5254   3.391   2.355   0.687
 1748SOL    HW2 5255   3.516   2.377   0.790
 1749SOL     OW 5256   2.093   3.575   0.483
 1749SOL    HW1 5257   2.127   3.652   0.537
 1749SOL    HW2 5258   2.137   3.575   0.393
 1750SOL     OW 5259   2.989   3.203   1.690
 1750SOL    HW1 5260   3.036   3.203   1.778
 1750SOL    HW2 5261   2.941   3.116   1.679
 1751SOL     OW 5262   2.092   3.296   0.538
 1751SOL    HW1 5263   2.066   3.392   0.538
 1751SOL    HW2 5264   2.021   3.242   0.583
 1752SOL     OW 5265   2.102   2.953   0.886
 1752SOL    HW1 5266   2.116   2.869   0.938
 1752SOL    HW2 5267   2.047   3.017   0.941
 1753SOL     OW 5268   2.482   3.648   1.439
 1753SOL    HW1 5269   2.390   3.631   1.474
 1753SOL    HW2 5270   2.510   3.740   1.465
 1754SOL     OW 5271   2.468   2.826   0.123
 1754SOL    HW1 5272   2.475   2.910   0.069
 1754SOL    HW2 5273   2.514   2.839   0.211
 1755SOL     OW 5274   3.456   1.976   1.480
 1755SOL    HW1 5275   3.438   2.043   1.408
 1755SOL    HW2 5276   3.453   2.022   1.569
 1756SOL     OW 5277   1.984   2.505   0.563
 1756SOL    HW1 5278   1.939   2.417   0.580
 1756SOL    HW2 5279   1.983   2.559   0.647
 1757SOL     OW 5280   3.704   3.629   0.359
 1757SOL    HW1 5281   3.758   3.600   0.439
 1757SOL    HW2 5282   3.734   3.719   0.330
 1758SOL     OW 5283   1.889   3.458   0.117
 1758SOL    HW1 5284   1.870   3.362   0.138
 1758SOL    HW2 5285   1.856   3.516   0.192
 1759SOL     OW 5286   3.551   2.784   0.612
 1759SOL    HW1 5287   3.646   2.755   0.620
 1759SOL    HW2 5288   3.543   2.849   0.537
 1760SOL     OW 5289   3.503   2.970   0.432
 1760SOL    HW1 5290   3.589   2.972   0.380
 1760SOL    HW2 5291   3.517   3.017   0.520
 1761SOL     OW 5292   1.975   2.599   1.597
 1761SOL    HW1 5293   2.063   2.586   1.642
 1761SOL    HW2 5294   1.962   2.696   1.575
 1762SOL     OW 5295   2.475   3.227   0.726
 1762SOL    HW1 5296   2.426   3.140   0.735
 1762SOL    HW2 5297   2.452   3.270   0.639
 1763SOL     OW 5298   3.155   3.090   1.423
 1763SOL    HW1 5299   3.192   3.017   1.365
 1763SOL    HW2 5300   3.207   3.095   1.508
 1764SOL     OW 5301   2.671   1.866   0.502
 1764SOL    HW1 5302   2.711   1.957   0.493
 1764SOL    HW2 5303   2.571   1.874   0.508
 1765SOL     OW 5304   2.059   2.838   1.264
 1765SOL    HW1 5305   2.148   2.793   1.250
 1765SOL    HW2 5306   1.986   2.773   1.245
 1766SOL     OW 5307   3.387   2.861   0.190
 1766SOL    HW1 5308   3.324   2.785   0.203
 1766SOL    HW2 5309   3.435   2.879   0.276
 1767SOL     OW 5310   3.049   3.654   1.616
 1767SOL    HW1 5311   3.073   3.714   1.540
 1767SOL    HW2 5312   3.056   3.559   1.586
 1768SOL     OW 5313   2.179   2.113   1.801
 1768SOL    HW1 5314   2.250   2.184   1.807
 1768SOL    HW2 5315   2.091   2.152   1.829
 1769SOL     OW 5316   3.328   3.279   0.953
 1769SOL    HW1 5317   3.269   3.285   1.033
 1769SOL    HW2 5318   3.313   3.191   0.907
 1770SOL     OW 5319   3.529   3.576   0.572
 1770SOL    HW1 5320   3.488   3.553   0.484
 1770SOL    HW2 5321   3.511   3.502   0.637
 1771SOL     OW 5322   2.460   2.591   0.270
 1771SOL    HW1 5323   2.484   2.660   0.202
 1771SOL    HW2 5324   2.382   2.624   0.324
 1772SOL     OW 5325   3.143   2.207   0.944
 1772SOL    HW1 5326   3.057   2.157   0.931
 1772SOL    HW2 5327   3.205   2.153   1.000
 1773SOL     OW 5328   3.438   3.524   0.307
 1773SOL    HW1 5329   3.527   3.570   0.310
 1773SOL    HW2 5330   3.417   3.500   0.212
 1774SOL     OW 5331   2.669   2.467   1.465
 1774SOL    HW1 5332   2.622   2.464   1.554
 1774SOL    HW2 5333   2.618   2.412   1.399
 1775SOL     OW 5334   3.256   2.331   1.674
 1775SOL    HW1 5335   3.236   2.374   1.762
 1775SOL    HW2 5336   3.334   2.269   1.683
 1776SOL     OW 5337   2.835   2.752   1.572
 1776SOL    HW1 5338   2.881   2.668   1.543
 1776SOL    HW2 5339   2.779   2.786   1.497
 1777SOL     OW 5340   2.853   2.272   1.242
 1777SOL    HW1 5341   2.776   2.306   1.296
 1777SOL    HW2 5342   2.819   2.221   1.163
 1778SOL     OW 5343   2.903   2.563   0.429
 1778SOL    HW1 5344   2.929   2.559   0.525
 1778SOL    HW2 5345   2.818   2.512   0.415
 1779SOL     OW 5346   1.938   2.673   0.789
 1779SOL    HW1 5347   2.037   2.661   0.798
 1779SOL    HW2 5348   1.914   2.768   0.810
 1780SOL     OW 5349   1.992   3.683   1.571
 1780SOL    HW1 5350   1.982   3.668   1.670
 1780SOL    HW2 5351   1.906   3.719   1.535
 1781SOL     OW 5352   2.727   2.210   0.195
 1781SOL    HW1 5353   2.786   2.273   0.146
 1781SOL    HW2 5354   2.746   2.116   0.166
 1782SOL     OW 5355   3.581   2.447   1.831
 1782SOL    HW1 5356   3.555   2.536   1.795
 1782SOL    HW2 5357   3.579   2.379   1.758
 1783SOL     OW 5358   3.224   3.006   0.545
 1783SOL    HW1 5359   3.307   2.977   0.497
 1783SOL    HW2 5360   3.175   3.073   0.489
 1784SOL     OW 5361   2.412   2.058   0.885
 1784SOL    HW1 5362   2.407   2.053   0.985
 1784SOL    HW2 5363   2.414   2.154   0.856
 1785SOL     OW 5364   2.870   3.318   0.477
 1785SOL    HW1 5365   2.824   3.390   0.425
 1785SOL    HW2 5366   2.866   3.338   0.575
 1786SOL     OW 5367   2.213   3.663   0.853
 1786SOL    HW1 5368   2.263   3.577   0.859
 1786SOL    HW2 5369   2.278   3.740   0.850
 1787SOL     OW 5370   3.657   2.928   0.873
 1787SOL    HW1 5371   3.595   2.913   0.797
 1787SOL    HW2 5372   3.605   2.939   0.958
 1788SOL     OW 5373   3.089   3.412   1.506
 1788SOL    HW1 5374   3.095   3.335   1.570
 1788SOL    HW2 5375   3.037   3.386   1.426
 1789SOL     OW 5376   2.183   2.805   0.242
 1789SOL    HW1 5377   2.265   2.844   0.200
 1789SOL    HW2 5378   2.156   2.723   0.193
 1790SOL     OW 5379   3.320   2.597   0.728
 1790SOL    HW1 5380   3.315   2.532   0.803
 1790SOL    HW2 5381   3.400   2.656   0.741
 1791SOL     OW 5382   2.323   3.128   1.727
 1791SOL    HW1 5383   2.273   3.129   1.641
 1791SOL    HW2 5384   2.260   3.110   1.803
 1792SOL     OW 5385   2.973   3.638   0.237
 1792SOL    HW1 5386   2.913   3.576   0.287
 1792SOL    HW2 5387   3.004   3.594   0.152
 1793SOL     OW 5388   2.064   2.147   1.498
 1793SOL    HW1 5389   1.984   2.207   1.485
 1793SOL    HW2 5390   2.054   2.098   1.584
 1794SOL     OW 5391   3.494   3.239   0.081
 1794SOL    HW1 5392   3.462   3.333   0.071
 1794SOL    HW2 5393   3.418   3.176   0.069
 1795SOL     OW 5394   2.326   3.605   0.323
 1795SOL    HW1 5395   2.359   3.644   0.409
 1795SOL    HW2 5396   2.402   3.598   0.258
 1796SOL     OW 5397   3.262   1.969   0.426
 1796SOL    HW1 5398   3.238   1.932   0.336
 1796SOL    HW2 5399   3.361   1.985   0.430
 1797SOL     OW 5400   2.111   3.647   1.241
 1797SOL    HW1 5401   2.168   3.582   1.291
 1797SOL    HW2 5402   2.095   3.614   1.148
 1798SOL     OW 5403   2.802   3.560   0.904
 1798SOL    HW1 5404   2.882   3.503   0.925
 1798SOL    HW2 5405   2.753   3.520   0.827
 1799SOL     OW 5406   2.244   2.562   0.480
 1799SOL    HW1 5407   2.289   2.472   0.477
 1799SOL    HW2 5408   2.150   2.551   0.513
 1800SOL     OW 5409   3.409   2.084   1.729
 1800SOL    HW1 5410   3.404   2.121   1.821
 1800SOL    HW2 5411   3.337   2.015   1.717
 1801SOL     OW 5412   2.476   1.984   0.117
 1801SOL    HW1 5413   2.574   1.962   0.124
 1801SOL    HW2 5414   2.445   1.967   0.024
 1802SOL     OW 5415   2.643   2.126   1.749
 1802SOL    HW1 5416   2.710   2.065   1.792
 1802SOL    HW2 5417   2.570   2.145   1.814
 1803SOL     OW 5418   2.750   3.376   1.195
 1803SOL    HW1 5419   2.727   3.351   1.101
 1803SOL    HW2 5420   2.811   3.307   1.234
 1804SOL     OW 5421   3.213   2.452   1.433
 1804SOL    HW1 5422   3.241   2.409   1.518
 1804SOL    HW2 5423   3.238   2.548   1.434
 1805SOL     OW 5424   2.665   3.264   0.924
 1805SOL    HW1 5425   2.755   3.278   0.882
 1805SOL    HW2 5426   2.594   3.266   0.853
 1806SOL     OW 5427   2.784   2.365   0.899
 1806SOL    HW1 5428   2.759   2.356   0.803
 1806SOL    HW2 5429   2.832   2.283   0.930
 1807SOL     OW 5430   2.401   1.926   0.512
 1807SOL    HW1 5431   2.320   1.927   0.570
 1807SOL    HW2 5432   2.404   2.009   0.457
 1808SOL     OW 5433   3.296   3.050   0.041
 1808SOL    HW1 5434   3.328   2.974   0.098
 1808SOL    HW2 5435   3.204   3.077   0.071
 1809SOL     OW 5436   2.797   2.098   0.480
 1809SOL    HW1 5437   2.749   2.139   0.402
 1809SOL    HW2 5438   2.896   2.096   0.461
 1810SOL     OW 5439   2.938   2.545   1.464
 1810SOL    HW1 5440   2.858   2.484   1.467
 1810SOL    HW2 5441   3.019   2.492   1.440
 1811SOL     OW 5442   3.089   3.432   0.793
 1811SOL    HW1 5443   3.110   3.506   0.728
 1811SOL    HW2 5444   3.157   3.432   0.866
 1812SOL     OW 5445   2.321   3.014   0.741
 1812SOL    HW1 5446   2.250   2.987   0.806
 1812SOL    HW2 5447   2.295   2.986   0.648
 1813SOL     OW 5448   3.133   3.659   0.591
 1813SOL    HW1 5449   3.177   3.723   0.527
 1813SOL    HW2 5450   3.083   3.711   0.661
 1814SOL     OW 5451   2.894   2.411   0.016
 1814SOL    HW1 5452   2.853   2.493  -0.023
 1814SOL    HW2 5453   2.958   2.437   0.089
 1815SOL     OW 5454   1.940   2.418   1.386
 1815SOL    HW1 5455   2.032   2.417   1.345
 1815SOL    HW2 5456   1.934   2.492   1.453
 1816SOL     OW 5457   2.423   2.084   1.147
 1816SOL    HW1 5458   2.461   2.000   1.184
 1816SOL    HW2 5459   2.335   2.103   1.191
 1817SOL     OW 5460   2.728   2.316   0.642
 1817SOL    HW1 5461   2.696   2.388   0.580
 1817SOL    HW2 5462   2.752   2.235   0.589
 1818SOL     OW 5463   2.879   1.901   0.753
 1818SOL    HW1 5464   2.807   1.906   0.684
 1818SOL    HW2 5465   2.855   1.832   0.822
 1819SOL     OW 5466   3.291   3.035   0.867
 1819SOL    HW1 5467   3.236   2.951   0.860
 1819SOL    HW2 5468   3.317   3.064   0.775
 1820SOL     OW 5469   3.328   2.452   0.992
 1820SOL    HW1 5470   3.298   2.357   0.999
 1820SOL    HW2 5471   3.401   2.468   1.058
 1821SOL     OW 5472   3.719   2.695   0.377
 1821SOL    HW1 5473   3.761   2.631   0.441
 1821SOL    HW2 5474   3.681   2.644   0.299
 1822SOL     OW 5475   2.350   3.247   0.174
 1822SOL    HW1 5476   2.263   3.232   0.221
 1822SOL    HW2 5477   2.333   3.273   0.079
 1823SOL     OW 5478   3.526   3.142   0.657
 1823SOL    HW1 5479   3.625   3.150   0.671
 1823SOL    HW2 5480   3.481   3.226   0.688
 1824SOL     OW 5481   3.252   2.437   0.078
 1824SOL    HW1 5482   3.198   2.416   0.159
 1824SOL    HW2 5483   3.343   2.396   0.087
 1825SOL     OW 5484   2.389   2.118   0.328
 1825SOL    HW1 5485   2.416   2.059   0.253
 1825SOL    HW2 5486   2.389   2.213   0.297
 1826SOL     OW 5487   3.616   3.085   1.588
 1826SOL    HW1 5488   3.707   3.046   1.575
 1826SOL    HW2 5489   3.624   3.181   1.612
 1827SOL     OW 5490   2.926   3.209   1.340
 1827SOL    HW1 5491   2.846   3.186   1.395
 1827SOL    HW2 5492   3.009   3.183   1.389
 1828SOL     OW 5493   3.454   3.491   1.625
 1828SOL    HW1 5494   3.481   3.525   1.535
 1828SOL    HW2 5495   3.533   3.453   1.671
 1829SOL     OW 5496   2.973   3.057   1.100
 1829SOL    HW1 5497   2.933   3.101   1.181
 1829SOL    HW2 5498   2.932   3.094   1.017
 1830SOL     OW 5499   3.500   2.961   1.079
 1830SOL    HW1 5500   3.505   3.042   1.138
 1830SOL    HW2 5501   3.414   2.963   1.028
 1831SOL     OW 5502   2.777   1.951   1.402
 1831SOL    HW1 5503   2.802   1.931   1.307
 1831SOL    HW2 5504   2.849   2.007   1.444
 1832SOL     OW 5505   2.842   2.978   1.719
 1832SOL    HW1 5506   2.743   2.984   1.729
 1832SOL    HW2 5507   2.865   2.898   1.663
 1833SOL     OW 5508   2.567   2.912   0.368
 1833SOL    HW1 5509   2.553   2.919   0.467
 1833SOL    HW2 5510   2.651   2.861   0.350
 1834SOL     OW 5511   2.272   2.675   1.251
 1834SOL    HW1 5512   2.358   2.687   1.301
 1834SOL    HW2 5513   2.230   2.588   1.278
 1835SOL     OW 5514   3.136   2.248   1.262
 1835SOL    HW1 5515   3.157   2.322   1.326
 1835SOL    HW2 5516   3.047   2.265   1.219
 1836SOL     OW 5517   1.926   3.426   1.331
 1836SOL    HW1 5518   1.880   3.508   1.297
 1836SOL    HW2 5519   2.024   3.445   1.340
 1837SOL     OW 5520   2.229   2.962   0.501
 1837SOL    HW1 5521   2.222   3.045   0.445
 1837SOL    HW2 5522   2.233   2.882   0.441
 1838SOL     OW 5523   2.428   2.399   0.865
 1838SOL    HW1 5524   2.440   2.465   0.791
 1838SOL    HW2 5525   2.474   2.433   0.948
 1839SOL     OW 5526   3.114   3.210   0.388
 1839SOL    HW1 5527   3.164   3.287   0.428
 1839SOL    HW2 5528   3.019   3.212   0.420
 1840SOL     OW 5529   3.134   3.307   1.142
 1840SOL    HW1 5530   3.181   3.320   1.229
 1840SOL    HW2 5531   3.068   3.233   1.151
 1841SOL     OW 5532   3.444   2.501   0.472
 1841SOL    HW1 5533   3.413   2.562   0.545
 1841SOL    HW2 5534   3.494   2.553   0.403
 1842SOL     OW 5535   2.216   3.372   1.329
 1842SOL    HW1 5536   2.195   3.328   1.242
 1842SOL    HW2 5537   2.313   3.398   1.332
 1843SOL     OW 5538   2.264   2.613   1.598
 1843SOL    HW1 5539   2.332   2.668   1.551
 1843SOL    HW2 5540   2.304   2.525   1.625
 1844SOL     OW 5541   3.449   2.641   1.670
 1844SOL    HW1 5542   3.357   2.679   1.665
 1844SOL    HW2 5543   3.509   2.688   1.605
 1845SOL     OW 5544   2.875   1.967   1.770
 1845SOL    HW1 5545   2.881   2.052   1.718
 1845SOL    HW2 5546   2.907   1.891   1.713
 1846SOL     OW 5547   2.366   1.912   1.740
 1846SOL    HW1 5548   2.324   1.855   1.670
 1846SOL    HW2 5549   2.300   1.981   1.772
 1847SOL     OW 5550   2.435   2.732   1.029
 1847SOL    HW1 5551   2.479   2.821   1.020
 1847SOL    HW2 5552   2.372   2.732   1.106
 1848SOL     OW 5553   3.222   2.724   1.045
 1848SOL    HW1 5554   3.147   2.724   0.979
 1848SOL    HW2 5555   3.259   2.632   1.054
 1849SOL     OW 5556   3.071   2.387   0.275
 1849SOL    HW1 5557   3.084   2.303   0.329
 1849SOL    HW2 5558   3.042   2.461   0.335
 1850SOL     OW 5559   2.169   2.075   1.231
 1850SOL    HW1 5560   2.146   2.112   1.321
 1850SOL    HW2 5561   2.139   1.980   1.225
 1851SOL     OW 5562   1.899   3.172   1.282
 1851SOL    HW1 5563   1.952   3.123   1.350
 1851SOL    HW2 5564   1.921   3.270   1.287
 1852SOL     OW 5565   2.594   2.496   1.064
 1852SOL    HW1 5566   2.653   2.470   0.988
 1852SOL    HW2 5567   2.566   2.592   1.053
 1853SOL     OW 5568   3.590   2.797   1.854
 1853SOL    HW1 5569   3.544   2.790   1.765
 1853SOL    HW2 5570   3.528   2.841   1.920
 1854SOL     OW 5571   2.169   1.925   0.618
 1854SOL    HW1 5572   2.158   2.019   0.651
 1854SOL    HW2 5573   2.164   1.862   0.695
 1855SOL     OW 5574   3.484   2.229   0.374
 1855SOL    HW1 5575   3.486   2.153   0.438
 1855SOL    HW2 5576   3.436   2.306   0.414
 1856SOL     OW 5577   2.885   2.628   0.966
 1856SOL    HW1 5578   2.900   2.649   1.062
 1856SOL    HW2 5579   2.855   2.533   0.957
 1857SOL     OW 5580   2.842   3.435   1.700
 1857SOL    HW1 5581   2.822   3.479   1.612
 1857SOL    HW2 5582   2.881   3.344   1.684
 1858SOL     OW 5583   3.721   3.380   1.605
 1858SOL    HW1 5584   3.735   3.407   1.510
 1858SOL    HW2 5585   3.804   3.402   1.658
 1859SOL     OW 5586   2.212   2.760   1.804
 1859SOL    HW1 5587   2.288   2.804   1.852
 1859SOL    HW2 5588   2.247   2.713   1.722
 1860SOL     OW 5589   3.402   2.136   0.125
 1860SOL    HW1 5590   3.341   2.061   0.148
 1860SOL    HW2 5591   3.424   2.188   0.208
 1861SOL     OW 5592   3.165   2.700   0.042
 1861SOL    HW1 5593   3.199   2.607   0.057
 1861SOL    HW2 5594   3.183   2.727  -0.053
 1862SOL     OW 5595   2.930   3.195   0.849
 1862SOL    HW1 5596   2.937   3.111   0.794
 1862SOL    HW2 5597   2.992   3.264   0.813
 1863SOL     OW 5598   2.181   2.672   0.949
 1863SOL    HW1 5599   2.274   2.708   0.954
 1863SOL    HW2 5600   2.175   2.587   1.001
 1864SOL     OW 5601   2.201   2.371   1.006
 1864SOL    HW1 5602   2.149   2.288   0.989
 1864SOL    HW2 5603   2.278   2.376   0.942
 1865SOL     OW 5604   3.000   2.242   1.678
 1865SOL    HW1 5605   2.955   2.305   1.742
 1865SOL    HW2 5606   3.093   2.273   1.661
 1866SOL     OW 5607   3.022   2.069   1.477
 1866SOL    HW1 5608   3.022   2.133   1.554
 1866SOL    HW2 5609   3.050   2.117   1.394
 1867SOL     OW 5610   1.870   3.188   0.200
 1867SOL    HW1 5611   1.777   3.209   0.169
 1867SOL    HW2 5612   1.880   3.089   0.213
 1868SOL     OW 5613   1.950   3.663   0.927
 1868SOL    HW1 5614   1.908   3.577   0.900
 1868SOL    HW2 5615   2.044   3.666   0.893
 1869SOL     OW 5616   2.366   3.430   0.910
 1869SOL    HW1 5617   2.432   3.504   0.919
 1869SOL    HW2 5618   2.410   3.351   0.868
 1870SOL     OW 5619   2.864   2.658   1.238
 1870SOL    HW1 5620   2.905   2.626   1.324
 1870SOL    HW2 5621   2.768   2.631   1.235
 1871SOL     OW 5622   1.902   2.406   1.114
 1871SOL    HW1 5623   1.987   2.373   1.073
 1871SOL    HW2 5624   1.915   2.421   1.212
 1872SOL     OW 5625   2.051   2.382   1.722
 1872SOL    HW1 5626   2.110   2.342   1.652
 1872SOL    HW2 5627   1.993   2.453   1.681
 1873SOL     OW 5628   3.231   2.812   1.660
 1873SOL    HW1 5629   3.270   2.901   1.680
 1873SOL    HW2 5630   3.241   2.792   1.563
 1874SOL     OW 5631   2.677   2.434   0.325
 1874SOL    HW1 5632   2.684   2.345   0.279
 1874SOL    HW2 5633   2.583   2.468   0.317
 1875SOL     OW 5634   3.519   2.466   1.206
 1875SOL    HW1 5635   3.481   2.397   1.268
 1875SOL    HW2 5636   3.601   2.430   1.162
 1876SOL     OW 5637   2.114   3.426   1.744
 1876SOL    HW1 5638   2.084   3.483   1.820
 1876SOL    HW2 5639   2.107   3.329   1.770
 1877SOL     OW 5640   2.533   2.326   1.269
 1877SOL    HW1 5641   2.499   2.237   1.239
 1877SOL    HW2 5642   2.559   2.380   1.189
 1878SOL     OW 5643   2.792   3.540   1.465
 1878SOL    HW1 5644   2.768   3.522   1.370
 1878SOL    HW2 5645   2.822   3.634   1.475
 1879SOL     OW 5646   2.335   2.362   0.191
 1879SOL    HW1 5647   2.396   2.442   0.195
 1879SOL    HW2 5648   2.240   2.393   0.198
 1880SOL     OW 5649   2.021   2.999   1.466
 1880SOL    HW1 5650   2.043   2.938   1.542
 1880SOL    HW2 5651   2.031   2.950   1.380
 1881SOL     OW 5652   3.209   2.921   1.234
 1881SOL    HW1 5653   3.233   2.858   1.160
 1881SOL    HW2 5654   3.119   2.961   1.216
 1882SOL     OW 5655   3.164   2.717   0.309
 1882SOL    HW1 5656   3.078   2.686   0.351
 1882SOL    HW2 5657   3.160   2.703   0.210
 1883SOL     OW 5658   3.621   3.609   1.154
 1883SOL    HW1 5659   3.682   3.639   1.081
 1883SOL    HW2 5660   3.583   3.520   1.132
 1884SOL     OW 5661   3.114   3.593   1.128
 1884SOL    HW1 5662   3.198   3.598   1.074
 1884SOL    HW2 5663   3.091   3.497   1.146
 1885SOL     OW 5664   1.945   3.120   1.022
 1885SOL    HW1 5665   1.940   3.119   1.122
 1885SOL    HW2 5666   1.862   3.079   0.984
 1886SOL     OW 5667   2.550   3.524   1.716
 1886SOL    HW1 5668   2.494   3.605   1.725
 1886SOL    HW2 5669   2.602   3.528   1.630
 1887SOL     OW 5670   2.765   1.948   0.133
 1887SOL    HW1 5671   2.816   1.949   0.047
 1887SOL    HW2 5672   2.821   1.906   0.204
 1888SOL     OW 5673   3.588   1.997   0.523
 1888SOL    HW1 5674   3.661   1.980   0.456
 1888SOL    HW2 5675   3.557   1.910   0.561
 1889SOL     OW 5676   3.250   3.435   0.477
 1889SOL    HW1 5677   3.317   3.447   0.403
 1889SOL    HW2 5678   3.210   3.524   0.500
 1890SOL     OW 5679   1.992   3.656   1.851
 1890SOL    HW1 5680   1.951   3.582   1.904
 1890SOL    HW2 5681   2.056   3.707   1.909
 1891SOL     OW 5682   3.142   2.789   0.672
 1891SOL    HW1 5683   3.202   2.708   0.674
 1891SOL    HW2 5684   3.182   2.858   0.612
 1892SOL     OW 5685   2.692   3.135   1.422
 1892SOL    HW1 5686   2.687   3.168   1.517
 1892SOL    HW2 5687   2.606   3.154   1.376
 1893SOL     OW 5688   2.534   3.478   0.154
 1893SOL    HW1 5689   2.543   3.488   0.055
 1893SOL    HW2 5690   2.494   3.389   0.175
 1894SOL     OW 5691   3.512   3.582   1.394
 1894SOL    HW1 5692   3.565   3.592   1.310
 1894SOL    HW2 5693   3.485   3.672   1.428
 1895SOL     OW 5694   3.703   2.037   0.963
 1895SOL    HW1 5695   3.742   1.952   0.927
 1895SOL    HW2 5696   3.605   2.039   0.944
 1896SOL     OW 5697   2.125   2.188   0.720
 1896SOL    HW1 5698   2.046   2.239   0.686
 1896SOL    HW2 5699   2.116   2.173   0.818
 1897SOL     OW 5700   3.056   3.474   0.031
 1897SOL    HW1 5701   3.062   3.381   0.068
 1897SOL    HW2 5702   2.997   3.474  -0.049
 1898SOL     OW 5703   2.684   2.864   1.372
 1898SOL    HW1 5704   2.724   2.863   1.280
 1898SOL    HW2 5705   2.694   2.956   1.412
 1899SOL     OW 5706   2.778   2.772   0.291
 1899SOL    HW1 5707   2.841   2.810   0.223
 1899SOL    HW2 5708   2.818   2.689   0.330
 1900SOL     OW 5709   3.366   3.469   0.044
 1900SOL    HW1 5710   3.274   3.506   0.051
 1900SOL    HW2 5711   3.404   3.489  -0.046
 1901SOL     OW 5712   2.234   3.150   1.490
 1901SOL    HW1 5713   2.221   3.243   1.456
 1901SOL    HW2 5714   2.150   3.098   1.477
 1902SOL     OW 5715   3.476   3.154   1.289
 1902SOL    HW1 5716   3.536   3.157   1.369
 1902SOL    HW2 5717   3.401   3.218   1.302
 1903SOL     OW 5718   2.901   2.960   0.696
 1903SOL    HW1 5719   2.831   2.913   0.750
 1903SOL    HW2 5720   2.960   2.892   0.653
 1904SOL     OW 5721   2.876   2.098   0.971
 1904SOL    HW1 5722   2.868   2.062   0.878
 1904SOL    HW2 5723   2.874   2.022   1.036
 1905SOL     OW 5724   2.452   3.349   0.491
 1905SOL    HW1 5725   2.494   3.291   0.421
 1905SOL    HW2 5726   2.408   3.428   0.447
 1906SOL     OW 5727   3.571   2.247   1.381
 1906SOL    HW1 5728   3.644   2.316   1.385
 1906SOL    HW2 5729   3.599   2.172   1.322
 1907SOL     OW 5730   2.117   3.210   0.290
 1907SOL    HW1 5731   2.021   3.211   0.263
 1907SOL    HW2 5732   2.129   3.263   0.374
 1908SOL     OW 5733   1.967   2.875   1.726
 1908SOL    HW1 5734   1.890   2.842   1.780
 1908SOL    HW2 5735   2.052   2.845   1.768
 1909SOL     OW 5736   2.534   2.065   1.489
 1909SOL    HW1 5737   2.624   2.049   1.449
 1909SOL    HW2 5738   2.542   2.070   1.588
 1910SOL     OW 5739   1.937   2.207   0.033
 1910SOL    HW1 5740   1.845   2.179   0.004
 1910SOL    HW2 5741   1.968   2.284  -0.023
 1911SOL     OW 5742   3.302   2.718   1.398
 1911SOL    HW1 5743   3.245   2.770   1.335
 1911SOL    HW2 5744   3.398   2.730   1.374
 1912SOL     OW 5745   3.045   3.197   0.119
 1912SOL    HW1 5746   2.946   3.186   0.121
 1912SOL    HW2 5747   3.079   3.212   0.212
 1913SOL     OW 5748   2.475   2.704   1.431
 1913SOL    HW1 5749   2.531   2.785   1.414
 1913SOL    HW2 5750   2.534   2.624   1.434
 1914SOL     OW 5751   3.355   3.629   0.959
 1914SOL    HW1 5752   3.388   3.693   0.890
 1914SOL    HW2 5753   3.421   3.623   1.034
 1915SOL     OW 5754   2.578   2.427   1.708
 1915SOL    HW1 5755   2.597   2.492   1.782
 1915SOL    HW2 5756   2.638   2.347   1.717
 1916SOL     OW 5757   3.312   3.082   1.633
 1916SOL    HW1 5758   3.303   3.072   1.732
 1916SOL    HW2 5759   3.408   3.075   1.607
 1917SOL     OW 5760   2.252   3.603   1.560
 1917SOL    HW1 5761   2.161   3.644   1.558
 1917SOL    HW2 5762   2.245   3.509   1.592
 1918SOL     OW 5763   3.536   2.745   1.254
 1918SOL    HW1 5764   3.509   2.656   1.217
 1918SOL    HW2 5765   3.537   2.813   1.181
 1919SOL     OW 5766   3.087   2.187   0.449
 1919SOL    HW1 5767   3.152   2.113   0.438
 1919SOL    HW2 5768   3.107   2.237   0.533
 1920SOL     OW 5769   2.456   2.607   0.652
 1920SOL    HW1 5770   2.506   2.692   0.633
 1920SOL    HW2 5771   2.368   2.609   0.604
 1921SOL     OW 5772   3.639   2.204   1.642
 1921SOL    HW1 5773   3.622   2.235   1.548
 1921SOL    HW2 5774   3.555   2.167   1.680
 1922SOL     OW 5775   3.592   2.796   1.517
 1922SOL    HW1 5776   3.630   2.887   1.532
 1922SOL    HW2 5777   3.584   2.779   1.418
 1923SOL     OW 5778   2.721   3.236   0.016
 1923SOL    HW1 5779   2.675   3.251   0.104
 1923SOL    HW2 5780   2.765   3.321  -0.014
 1924SOL     OW 5781   2.523   3.652   0.953
 1924SOL    HW1 5782   2.477   3.740   0.940
 1924SOL    HW2 5783   2.622   3.664   0.946
 1925SOL     OW 5784   2.721   2.818   0.861
 1925SOL    HW1 5785   2.775   2.749   0.909
 1925SOL    HW2 5786   2.689   2.887   0.927
 1926SOL     OW 5787   2.945   2.846   0.087
 1926SOL    HW1 5788   2.922   2.899   0.005
 1926SOL    HW2 5789   3.026   2.790   0.068
 1927SOL     OW 5790   3.723   3.431   0.851
 1927SOL    HW1 5791   3.652   3.419   0.781
 1927SOL    HW2 5792   3.724   3.352   0.911
 1928SOL     OW 5793   2.083   3.176   1.844
 1928SOL    HW1 5794   2.018   3.103   1.823
 1928SOL    HW2 5795   2.087   3.190   1.942
 1929SOL     OW 5796   1.941   3.102   0.653
 1929SOL    HW1 5797   1.940   3.055   0.741
 1929SOL    HW2 5798   2.023   3.074   0.602
 1930SOL     OW 5799   2.534   3.253   1.624
 1930SOL    HW1 5800   2.456   3.203   1.662
 1930SOL    HW2 5801   2.531   3.348   1.655
 1931SOL     OW 5802   3.686   2.054   1.227
 1931SOL    HW1 5803   3.682   1.964   1.271
 1931SOL    HW2 5804   3.689   2.043   1.128
 1932SOL     OW 5805   2.290   2.286   0.520
 1932SOL    HW1 5806   2.320   2.214   0.458
 1932SOL    HW2 5807   2.251   2.246   0.603
 1933SOL     OW 5808   3.567   3.349   1.104
 1933SOL    HW1 5809   3.474   3.324   1.077
 1933SOL    HW2 5810   3.593   3.299   1.186
 1934SOL     OW 5811   2.179   2.409   1.280
 1934SOL    HW1 5812   2.217   2.350   1.352
 1934SOL    HW2 5813   2.219   2.383   1.192
 1935SOL     OW 5814   2.674   3.448   0.687
 1935SOL    HW1 5815   2.706   3.458   0.593
 1935SOL    HW2 5816   2.595   3.386   0.689
 1936SOL     OW 5817   3.286   2.076   1.112
 1936SOL    HW1 5818   3.338   2.011   1.167
 1936SOL    HW2 5819   3.237   2.139   1.173
 1937SOL     OW 5820   2.863   1.896   1.154
 1937SOL    HW1 5821   2.800   1.824   1.123
 1937SOL    HW2 5822   2.956   1.860   1.154
 1938SOL     OW 5823   2.632   3.192   0.301
 1938SOL    HW1 5824   2.586   3.105   0.318
 1938SOL    HW2 5825   2.723   3.189   0.342
 1939SOL     OW 5826   2.480   3.429   1.284
 1939SOL    HW1 5827   2.475   3.511   1.341
 1939SOL    HW2 5828   2.569   3.426   1.239
 1940SOL     OW 5829   3.214   1.914   0.168
 1940SOL    HW1 5830   3.249   1.873   0.084
 1940SOL    HW2 5831   3.124   1.876   0.188
 1941SOL     OW 5832   3.162   2.315   0.691
 1941SOL    HW1 5833   3.103   2.395   0.695
 1941SOL    HW2 5834   3.177   2.280   0.784
 1942SOL     OW 5835   3.455   2.083   0.882
 1942SOL    HW1 5836   3.371   2.082   0.936
 1942SOL    HW2 5837   3.457   2.166   0.826
 1943SOL     OW 5838   1.901   2.939   0.300
 1943SOL    HW1 5839   2.000   2.928   0.291
 1943SOL    HW2 5840   1.861   2.853   0.332
 1944SOL     OW 5841   2.737   3.508   0.337
 1944SOL    HW1 5842   2.660   3.473   0.283
 1944SOL    HW2 5843   2.705   3.579   0.399
 1945SOL     OW 5844   2.092   2.490   1.975
 1945SOL    HW1 5845   1.999   2.488   2.012
 1945SOL    HW2 5846   2.093   2.451   1.883
 1946SOL     OW 5847   2.087   2.137   2.858
 1946SOL    HW1 5848   2.122   2.120   2.950
 1946SOL    HW2 5849   1.999   2.092   2.846
 1947SOL     OW 5850   1.881   2.230   2.509
 1947SOL    HW1 5851   1.799   2.273   2.548
 1947SOL    HW2 5852   1.853   2.157   2.446
 1948SOL     OW 5853   2.431   3.137   3.027
 1948SOL    HW1 5854   2.338   3.130   2.990
 1948SOL    HW2 5855   2.442   3.226   3.071
 1949SOL     OW 5856   3.417   3.373   2.565
 1949SOL    HW1 5857   3.360   3.357   2.646
 1949SOL    HW2 5858   3.358   3.383   2.485
 1950SOL     OW 5859   2.997   2.565   2.579
 1950SOL    HW1 5860   3.054   2.643   2.554
 1950SOL    HW2 5861   2.937   2.591   2.655
 1951SOL     OW 5862   3.617   2.469   2.093
 1951SOL    HW1 5863   3.605   2.456   1.994
 1951SOL    HW2 5864   3.587   2.388   2.142
 1952SOL     OW 5865   2.630   3.006   2.885
 1952SOL    HW1 5866   2.552   3.023   2.945
 1952SOL    HW2 5867   2.664   3.093   2.849
 1953SOL     OW 5868   2.712   2.660   3.685
 1953SOL    HW1 5869   2.708   2.736   3.750
 1953SOL    HW2 5870   2.734   2.696   3.594
 1954SOL     OW 5871   2.547   2.874   2.527
 1954SOL    HW1 5872   2.616   2.858   2.597
 1954SOL    HW2 5873   2.474   2.931   2.565
 1955SOL     OW 5874   2.548   3.023   3.665
 1955SOL    HW1 5875   2.608   3.102   3.679
 1955SOL    HW2 5876   2.462   3.054   3.624
 1956SOL     OW 5877   2.197   3.297   2.923
 1956SOL    HW1 5878   2.119   3.266   2.870
 1956SOL    HW2 5879   2.255   3.355   2.866
 1957SOL     OW 5880   3.322   3.367   3.201
 1957SOL    HW1 5881   3.346   3.461   3.227
 1957SOL    HW2 5882   3.306   3.313   3.283
 1958SOL     OW 5883   2.300   2.254   3.361
 1958SOL    HW1 5884   2.382   2.198   3.370
 1958SOL    HW2 5885   2.219   2.196   3.365
 1959SOL     OW 5886   3.465   2.309   2.599
 1959SOL    HW1 5887   3.391   2.355   2.549
 1959SOL    HW2 5888   3.516   2.377   2.652
 1960SOL     OW 5889   2.093   3.575   2.345
 1960SOL    HW1 5890   2.127   3.652   2.399
 1960SOL    HW2 5891   2.137   3.575   2.255
 1961SOL     OW 5892   2.989   3.203   3.552
 1961SOL    HW1 5893   3.036   3.203   3.640
 1961SOL    HW2 5894   2.941   3.116   3.541
 1962SOL     OW 5895   2.092   3.296   2.400
 1962SOL    HW1 5896   2.066   3.392   2.400
 1962SOL    HW2 5897   2.021   3.242   2.445
 1963SOL     OW 5898   2.102   2.953   2.748
 1963SOL    HW1 5899   2.116   2.869   2.800
 1963SOL    HW2 5900   2.047   3.017   2.803
 1964SOL     OW 5901   2.482   3.648   3.301
 1964SOL    HW1 5902   2.390   3.631   3.336
 1964SOL    HW2 5903   2.510   3.740   3.327
 1965SOL     OW 5904   2.468   2.826   1.985
 1965SOL    HW1 5905   2.475   2.910   1.931
 1965SOL    HW2 5906   2.514   2.839   2.073
 1966SOL     OW 5907   3.456   1.976   3.342
 1966SOL    HW1 5908   3.438   2.043   3.270
 1966SOL    HW2 5909   3.453   2.022   3.431
 1967SOL     OW 5910   1.984   2.505   2.425
 1967SOL    HW1 5911   1.939   2.417   2.442
 1967SOL    HW2 5912   1.983   2.559   2.509
 1968SOL     OW 5913   3.704   3.629   2.221
 1968SOL    HW1 5914   3.758   3.600   2.301
 1968SOL    HW2 5915   3.734   3.719   2.192
 1969SOL     OW 5916   1.889   3.458   1.979
 1969SOL    HW1 5917   1.870   3.362   2.000
 1969SOL    HW2 5918   1.856   3.516   2.054
 1970SOL     OW 5919   3.551   2.784   2.474
 1970SOL    HW1 5920   3.646   2.755   2.482
 1970SOL    HW2 5921   3.543   2.849   2.399
 1971SOL     OW 5922   3.503   2.970   2.294
 1971SOL    HW1 5923   3.589   2.972   2.242
 1971SOL    HW2 5924   3.517   3.017   2.382
 1972SOL     OW 5925   1.975   2.599   3.459
 1972SOL    HW1 5926   2.063   2.586   3.504
 1972SOL    HW2 5927   1.962   2.696   3.437
 1973SOL     OW 5928   2.475   3.227   2.588
 1973SOL    HW1 5929   2.426   3.140   2.597
 1973SOL    HW2 5930   2.452   3.270   2.501
 1974SOL     OW 5931   3.155   3.090   3.285
 1974SOL    HW1 5932   3.192   3.017   3.227
 1974SOL    HW2 5933   3.207   3.095   3.370
 1975SOL     OW 5934   2.671   1.866   2.364
 1975SOL    HW1 5935   2.711   1.957   2.355
 1975SOL    HW2 5936   2.571   1.874   2.370
 1976SOL     OW 5937   2.059   2.838   3.126
 1976SOL    HW1 5938   2.148   2.793   3.112
 1976SOL    HW2 5939   1.986   2.773   3.107
 1977SOL     OW 5940   3.387   2.861   2.052
 1977SOL    HW1 5941   3.324   2.785   2.065
 1977SOL    HW2 5942   3.435   2.879   2.138
 1978SOL     OW 5943   3.049   3.654   3.478
 1978SOL    HW1 5944   3.073   3.714   3.402
 1978SOL    HW2 5945   3.056   3.559   3.448
 1979SOL     OW 5946   2.179   2.113   3.663
 1979SOL    HW1 5947   2.250   2.184   3.669
 1979SOL    HW2 5948   2.091   2.152   3.691
 1980SOL     OW 5949   3.328   3.279   2.815
 1980SOL    HW1 5950   3.269   3.285   2.895
 1980SOL    HW2 5951   3.313   3.191   2.769
 1981SOL     OW 5952   3.529   3.576   2.434
 1981SOL    HW1 5953   3.488   3.553   2.346
 1981SOL    HW2 5954   3.511   3.502   2.499
 1982SOL     OW 5955   2.460   2.591   2.132
 1982SOL    HW1 5956   2.484   2.660   2.064
 1982SOL    HW2 5957   2.382   2.624   2.186
 1983SOL     OW 5958   3.143   2.207   2.806
 1983SOL    HW1 5959   3.057   2.157   2.793
 1983SOL    HW2 5960   3.205   2.153   2.862
 1984SOL     OW 5961   3.438   3.524   2.169
 1984SOL    HW1 5962   3.527   3.570   2.172
 1984SOL    HW2 5963   3.417   3.500   2.074
 1985SOL     OW 5964   2.669   2.467   3.327
 1985SOL    HW1 5965   2.622   2.464   3.416
 1985SOL    HW2 5966   2.618   2.412   3.261
 1986SOL     OW 5967   3.256   2.331   3.536
 1986SOL    HW1 5968   3.236   2.374   3.624
 1986SOL    HW2 5969   3.334   2.269   3.545
 1987SOL     OW 5970   2.835   2.752   3.434
 1987SOL    HW1 5971   2.881   2.668   3.405
 1987SOL    HW2 5972   2.779   2.786   3.359
 1988SOL     OW 5973   2.853   2.272   3.104
 1988SOL    HW1 5974   2.776   2.306   3.158
 1988SOL    HW2 5975   2.819   2.221   3.025
 1989SOL     OW 5976   2.903   2.563   2.291
 1989SOL    HW1 5977   2.929   2.559   2.387
 1989SOL    HW2 5978   2.818   2.512   2.277
 1990SOL     OW 5979   1.938   2.673   2.651
 1990SOL    HW1 5980   2.037   2.661   2.660
 1990SOL    HW2 5981   1.914   2.768   2.672
 1991SOL     OW 5982   1.992   3.683   3.433
 1991SOL    HW1 5983   1.982   3.668   3.532
 1991SOL    HW2 5984   1.906   3.719   3.397
 1992SOL     OW 5985   2.727   2.210   2.057
 1992SOL    HW1 5986   2.786   2.273   2.008
 1992SOL    HW2 5987   2.746   2.116   2.028
 1993SOL     OW 5988   3.581   2.447   3.693
 1993SOL    HW1 5989   3.555   2.536   3.657
 1993SOL    HW2 5990   3.579   2.379   3.620
 1994SOL     OW 5991   3.224   3.006   2.407
 1994SOL    HW1 5992   3.307   2.977   2.359
 1994SOL    HW2 5993   3.175   3.073   2.351
 1995SOL     OW 5994   2.412   2.058   2.747
 1995SOL    HW1 5995   2.407   2.053   2.847
 1995SOL    HW2 5996   2.414   2.154   2.718
 1996SOL     OW 5997   2.870   3.318   2.339
 1996SOL    HW1 5998   2.824   3.390   2.287
 1996SOL    HW2 5999   2.866   3.338   2.437
 1997SOL     OW 6000   2.213   3.663   2.715
 1997SOL    HW1 6001   2.263   3.577   2.721
 1997SOL    HW2 6002   2.278   3.740   2.712
 1998SOL     OW 6003   3.657   2.928   2.735
 1998SOL    HW1 6004   3.595   2.913   2.659
 1998SOL    HW2 6005   3.605   2.939   2.820
 1999SOL     OW 6006   3.089   3.412   3.368
 1999SOL    HW1 6007   3.095   3.335   3.432
 1999SOL    HW2 6008   3.037   3.386   3.288
 2000SOL     OW 6009   2.183   2.805   2.104
 2000SOL    HW1 6010   2.265   2.844   2.062
 2000SOL    HW2 6011   2.156   2.723   2.055
 2001SOL     OW 6012   3.320   2.597   2.590
 2001SOL    HW1 6013   3.315   2.532   2.665
 2001SOL    HW2 6014   3.400   2.656   2.603
 2002SOL     OW 6015   2.323   3.128   3.589
 2002SOL    HW1 6016   2.273   3.129   3.503
 2002SOL    HW2 6017   2.260   3.110   3.665
 2003SOL     OW 6018   2.973   3.638   2.099
 2003SOL    HW1 6019   2.913   3.576   2.149
 2003SOL    HW2 6020   3.004   3.594   2.014
 2004SOL     OW 6021   2.064   2.147   3.360
 2004SOL    HW1 6022   1.984   2.207   3.347
 2004SOL    HW2 6023   2.054   2.098   3.446
 2005SOL     OW 6024   3.494   3.239   1.943
 2005SOL    HW1 6025   3.462   3.333   1.933
 2005SOL    HW2 6026   3.418   3.176   1.931
 2006SOL     OW 6027   2.326   3.605   2.185
 2006SOL    HW1 6028   2.359   3.644   2.271
 2006SOL    HW2 6029   2.402   3.598   2.120
 2007SOL     OW 6030   3.262   1.969   2.288
 2007SOL    HW1 6031   3.238   1.932   2.198
 2007SOL    HW2 6032   3.361   1.985   2.292
 2008SOL     OW 6033   2.111   3.647   3.103
 2008SOL    HW1 6034   2.168   3.582   3.153
 2008SOL    HW2 6035   2.095   3.614   3.010
 2009SOL     OW 6036   2.802   3.560   2.766
 2009SOL    HW1 6037   2.882   3.503   2.787
 2009SOL    HW2 6038   2.753   3.520   2.689
 2010SOL     OW 6039   3.409   2.084   3.591
 2010SOL    HW1 6040   3.404   2.121   3.683
 2010SOL    HW2 6041   3.337   2.015   3.579
 2011SOL     OW 6042   2.476   1.984   1.979
 2011SOL    HW1 6043   2.574   1.962   1.986
 2011SOL    HW2 6044   2.445   1.967   1.886
 2012SOL     OW 6045   2.643   2.126   3.611
 2012SOL    HW1 6046   2.710   2.065   3.654
 2012SOL    HW2 6047   2.570   2.145   3.676
 2013SOL     OW 6048   2.750   3.376   3.057
 2013SOL    HW1 6049   2.727   3.351   2.963
 2013SOL    HW2 6050   2.811   3.307   3.096
 2014SOL     OW 6051   3.213   2.452   3.295
 2014SOL    HW1 6052   3.241   2.409   3.380
 2014SOL    HW2 6053   3.238   2.548   3.296
 2015SOL     OW 6054   2.665   3.264   2.786
 2015SOL    HW1 6055   2.755   3.278   2.744
 2015SOL    HW2 6056   2.594   3.266   2.715
 2016SOL     OW 6057   2.784   2.365   2.761
 2016SOL    HW1 6058   2.759   2.356   2.665
 2016SOL    HW2 6059   2.832   2.283   2.792
 2017SOL     OW 6060   2.401   1.926   2.374
 2017SOL    HW1 6061   2.320   1.927   2.432
 2017SOL    HW2 6062   2.404   2.009   2.319
 2018SOL     OW 6063   3.296   3.050   1.903
 2018SOL    HW1 6064   3.328   2.974   1.960
 2018SOL    HW2 6065   3.204   3.077   1.933
 2019SOL     OW 6066   2.797   2.098   2.342
 2019SOL    HW1 6067   2.749   2.139   2.264
 2019SOL    HW2 6068   2.896   2.096   2.323
 2020SOL     OW 6069   2.938   2.545   3.326
 2020SOL    HW1 6070   2.858   2.484   3.329
 2020SOL    HW2 6071   3.019   2.492   3.302
 2021SOL     OW 6072   3.089   3.432   2.655
 2021SOL    HW1 6073   3.110   3.506   2.590
 2021SOL    HW2 6074   3.157   3.432   2.728
 2022SOL     OW 6075   2.321   3.014   2.603
 2022SOL    HW1 6076   2.250   2.987   2.668
 2022SOL    HW2 6077   2.295   2.986   2.510
 2023SOL     OW 6078   3.133   3.659   2.453
 2023SOL    HW1 6079   3.177   3.723   2.389
 2023SOL    HW2 6080   3.083   3.711   2.523
 2024SOL     OW 6081   2.894   2.411   1.878
 2024SOL    HW1 6082   2.853   2.493   1.839
 2024SOL    HW2 6083   2.958   2.437   1.951
 2025SOL     OW 6084   1.940   2.418   3.248
 2025SOL    HW1 6085   2.032   2.417   3.207
 2025SOL    HW2 6086   1.934   2.492   3.315
 2026SOL     OW 6087   2.423   2.084   3.009
 2026SOL    HW1 6088   2.461   2.000   3.046
 2026SOL    HW2 6089   2.335   2.103   3.053
 2027SOL     OW 6090   2.728   2.316   2.504
 2027SOL    HW1 6091   2.696   2.388   2.442
 2027SOL    HW2 6092   2.752   2.235   2.451
 2028SOL     OW 6093   2.879   1.901   2.615
 2028SOL    HW1 6094   2.807   1.906   2.546
 2028SOL    HW2 6095   2.855   1.832   2.684
 2029SOL     OW 6096   3.291   3.035   2.729
 2029SOL    HW1 6097   3.236   2.951   2.722
 2029SOL    HW2 6098   3.317   3.064   2.637
 2030SOL     OW 6099   3.328   2.452   2.854
 2030SOL    HW1 6100   3.298   2.357   2.861
 2030SOL    HW2 6101   3.401   2.468   2.920
 2031SOL     OW 6102   3.719   2.695   2.239
 2031SOL    HW1 6103   3.761   2.631   2.303
 2031SOL    HW2 6104   3.681   2.644   2.161
 2032SOL     OW 6105   2.350   3.247   2.036
 2032SOL    HW1 6106   2.263   3.232   2.083
 2032SOL    HW2 6107   2.333   3.273   1.941
 2033SOL     OW 6108   3.526   3.142   2.519
 2033SOL    HW1 6109   3.625   3.150   2.533
 2033SOL    HW2 6110   3.481   3.226   2.550
 2034SOL     OW 6111   3.252   2.437   1.940
 2034SOL    HW1 6112   3.198   2.416   2.021
 2034SOL    HW2 6113   3.343   2.396   1.949
 2035SOL     OW 6114   3.616   3.085   3.450
 2035SOL    HW1 6115   3.707   3.046   3.437
 2035SOL    HW2 6116   3.624   3.181   3.474
 2036SOL     OW 6117   2.926   3.209   3.202
 2036SOL    HW1 6118   2.846   3.186   3.257
 2036SOL    HW2 6119   3.009   3.183   3.251
 2037SOL     OW 6120   3.454   3.491   3.487
 2037SOL    HW1 6121   3.481   3.525   3.397
 2037SOL    HW2 6122   3.533   3.453   3.533
 2038SOL     OW 6123   2.973   3.057   2.962
 2038SOL    HW1 6124   2.933   3.101   3.043
 2038SOL    HW2 6125   2.932   3.094   2.879
 2039SOL     OW 6126   3.500   2.961   2.941
 2039SOL    HW1 6127   3.505   3.042   3.000
 2039SOL    HW2 6128   3.414   2.963   2.890
 2040SOL     OW 6129   2.777   1.951   3.264
 2040SOL    HW1 6130   2.802   1.931   3.169
 2040SOL    HW2 6131   2.849   2.007   3.306
 2041SOL     OW 6132   2.842   2.978   3.581
 2041SOL    HW1 6133   2.743   2.984   3.591
 2041SOL    HW2 6134   2.865   2.898   3.525
 2042SOL     OW 6135   2.567   2.912   2.230
 2042SOL    HW1 6136   2.553   2.919   2.329
 2042SOL    HW2 6137   2.651   2.861   2.212
 2043SOL     OW 6138   2.272   2.675   3.113
 2043SOL    HW1 6139   2.358   2.687   3.163
 2043SOL    HW2 6140   2.230   2.588   3.140
 2044SOL     OW 6141   3.136   2.248   3.124
 2044SOL    HW1 6142   3.157   2.322   3.188
 2044SOL    HW2 6143   3.047   2.265   3.081
 2045SOL     OW 6144   1.926   3.426   3.193
 2045SOL    HW1 6145   1.880   3.508   3.159
 2045SOL    HW2 6146   2.024   3.445   3.202
 2046SOL     OW 6147   2.229   2.962   2.363
 2046SOL    HW1 6148   2.222   3.045   2.307
 2046SOL    HW2 6149   2.233   2.882   2.303
 2047SOL     OW 6150   2.428   2.399   2.727
 2047SOL    HW1 6151   2.440   2.465   2.653
 2047SOL    HW2 6152   2.474   2.433   2.810
 2048SOL     OW 6153   3.114   3.210   2.250
 2048SOL    HW1 6154   3.164   3.287   2.290
 2048SOL    HW2 6155   3.019   3.212   2.282
 2049SOL     OW 6156   3.134   3.307   3.004
 2049SOL    HW1 6157   3.181   3.320   3.091
 2049SOL    HW2 6158   3.068   3.233   3.013
 2050SOL     OW 6159   3.444   2.501   2.334
 2050SOL    HW1 6160   3.413   2.562   2.407
 2050SOL    HW2 6161   3.494   2.553   2.265
 2051SOL     OW 6162   2.216   3.372   3.191
 2051SOL    HW1 6163   2.195   3.328   3.104
 2051SOL    HW2 6164   2.313   3.398   3.194
 2052SOL     OW 6165   2.264   2.613   3.460
 2052SOL    HW1 6166   2.332   2.668   3.413
 2052SOL    HW2 6167   2.304   2.525   3.487
 2053SOL     OW 6168   3.449   2.641   3.532
 2053SOL    HW1 6169   3.357   2.679   3.527
 2053SOL    HW2 6170   3.509   2.688   3.467
 2054SOL     OW 6171   2.875   1.967   3.632
 2054SOL    HW1 6172   2.881   2.052   3.580
 2054SOL    HW2 6173   2.907   1.891   3.575
 2055SOL     OW 6174   2.366   1.912   3.602
 2055SOL    HW1 6175   2.324   1.855   3.532
 2055SOL    HW2 6176   2.300   1.981   3.634
 2056SOL     OW 6177   2.435   2.732   2.891
 2056SOL    HW1 6178   2.479   2.821   2.882
 2056SOL    HW2 6179   2.372   2.732   2.968
 2057SOL     OW 6180   3.222   2.724   2.907
 2057SOL    HW1 6181   3.147   2.724   2.841
 2057SOL    HW2 6182   3.259   2.632   2.916
 2058SOL     OW 6183   3.071   2.387   2.137
 2058SOL    HW1 6184   3.084   2.303   2.191
 2058SOL    HW2 6185   3.042   2.461   2.197
 2059SOL     OW 6186   2.169   2.075   3.093
 2059SOL    HW1 6187   2.146   2.112   3.183
 2059SOL    HW2 6188   2.139   1.980   3.087
 2060SOL     OW 6189   1.899   3.172   3.144
 2060SOL    HW1 6190   1.952   3.123   3.212
 2060SOL    HW2 6191   1.921   3.270   3.149
 2061SOL     OW 6192   2.594   2.496   2.926
 2061SOL    HW1 6193   2.653   2.470   2.850
 2061SOL    HW2 6194   2.566   2.592   2.915
 2062SOL     OW 6195   3.590   2.797   3.716
 2062SOL    HW1 6196   3.544   2.790   3.627
 2062SOL    HW2 6197   3.528   2.841   3.782
 2063SOL     OW 6198   2.169   1.925   2.480
 2063SOL    HW1 6199   2.158   2.019   2.513
 2063SOL    HW2 6200   2.164   1.862   2.557
 2064SOL     OW 6201   3.484   2.229   2.236
 2064SOL    HW1 6202   3.486   2.153   2.300
 2064SOL    HW2 6203   3.436   2.306   2.276
 2065SOL     OW 6204   2.885   2.628   2.828
 2065SOL    HW1 6205   2.900   2.649   2.924
 2065SOL    HW2 6206   2.855   2.533   2.819
 2066SOL     OW 6207   2.842   3.435   3.562
 2066SOL    HW1 6208   2.822   3.479   3.474
 2066SOL    HW2 6209   2.881   3.344   3.546
 2067SOL     OW 6210   3.721   3.380   3.467
 2067SOL    HW1 6211   3.735   3.407   3.372
 2067SOL    HW2 6212   3.804   3.402   3.520
 2068SOL     OW 6213   2.212   2.760   3.666
 2068SOL    HW1 6214   2.288   2.804   3.714
 2068SOL    HW2 6215   2.247   2.713   3.584
 2069SOL     OW 6216   3.402   2.136   1.987
 2069SOL    HW1 6217   3.341   2.061   2.010
 2069SOL    HW2 6218   3.424   2.188   2.070
 2070SOL     OW 6219   3.165   2.700   1.904
 2070SOL    HW1 6220   3.199   2.607   1.919
 2070SOL    HW2 6221   3.183   2.727   1.809
 2071SOL     OW 6222   2.930   3.195   2.711
 2071SOL    HW1 6223   2.937   3.111   2.656
 2071SOL    HW2 6224   2.992   3.264   2.675
 2072SOL     OW 6225   2.181   2.672   2.811
 2072SOL    HW1 6226   2.274   2.708   2.816
 2072SOL    HW2 6227   2.175   2.587   2.863
 2073SOL     OW 6228   2.201   2.371   2.868
 2073SOL    HW1 6229   2.149   2.288   2.851
 2073SOL    HW2 6230   2.278   2.376   2.804
 2074SOL     OW 6231   3.000   2.242   3.540
 2074SOL    HW1 6232   2.955   2.305   3.604
 2074SOL    HW2 6233   3.093   2.273   3.523
 2075SOL     OW 6234   3.022   2.069   3.339
 2075SOL    HW1 6235   3.022   2.133   3.416
 2075SOL    HW2 6236   3.050   2.117   3.256
 2076SOL     OW 6237   1.870   3.188   2.062
 2076SOL    HW1 6238   1.777   3.209   2.031
 2076SOL    HW2 6239   1.880   3.089   2.075
 2077SOL     OW 6240   1.950   3.663   2.789
 2077SOL    HW1 6241   1.908   3.577   2.762
 2077SOL    HW2 6242   2.044   3.666   2.755
 2078SOL     OW 6243   2.366   3.430   2.772
 2078SOL    HW1 6244   2.432   3.504   2.781
 2078SOL    HW2 6245   2.410   3.351   2.730
 2079SOL     OW 6246   2.864   2.658   3.100
 2079SOL    HW1 6247   2.905   2.626   3.186
 2079SOL    HW2 6248   2.768   2.631   3.097
 2080SOL     OW 6249   1.902   2.406   2.976
 2080SOL    HW1 6250   1.987   2.373   2.935
 2080SOL    HW2 6251   1.915   2.421   3.074
 2081SOL     OW 6252   2.051   2.382   3.584
 2081SOL    HW1 6253   2.110   2.342   3.514
 2081SOL    HW2 6254   1.993   2.453   3.543
 2082SOL     OW 6255   3.231   2.812   3.522
 2082SOL    HW1 6256   3.270   2.901   3.542
 2082SOL    HW2 6257   3.241   2.792   3.425
 2083SOL     OW 6258   2.677   2.434   2.187
 2083SOL    HW1 6259   2.684   2.345   2.141
 2083SOL    HW2 6260   2.583   2.468   2.179
 2084SOL     OW 6261   3.519   2.466   3.068
 2084SOL    HW1 6262   3.481   2.397   3.130
 2084SOL    HW2 6263   3.601   2.430   3.024
 2085SOL     OW 6264   2.114   3.426   3.606
 2085SOL    HW1 6265   2.084   3.483   3.682
 2085SOL    HW2 6266   2.107   3.329   3.632
 2086SOL     OW 6267   2.533   2.326   3.131
 2086SOL    HW1 6268   2.499   2.237   3.101
 2086SOL    HW2 6269   2.559   2.380   3.051
 2087SOL     OW 6270   2.792   3.540   3.327
 2087SOL    HW1 6271   2.768   3.522   3.232
 2087SOL    HW2 6272   2.822   3.634   3.337
 2088SOL     OW 6273   2.021   2.999   3.328
 2088SOL    HW1 6274   2.043   2.938   3.404
 2088SOL    HW2 6275   2.031   2.950   3.242
 2089SOL     OW 6276   3.209   2.921   3.096
 2089SOL    HW1 6277   3.233   2.858   3.022
 2089SOL    HW2 6278   3.119   2.961   3.078
 2090SOL     OW 6279   3.164   2.717   2.171
 2090SOL    HW1 6280   3.078   2.686   2.213
 2090SOL    HW2 6281   3.160   2.703   2.072
 2091SOL     OW 6282   3.621   3.609   3.016
 2091SOL    HW1 6283   3.682   3.639   2.943
 2091SOL    HW2 6284   3.583   3.520   2.994
 2092SOL     OW 6285   3.114   3.593   2.990
 2092SOL    HW1 6286   3.198   3.598   2.936
 2092SOL    HW2 6287   3.091   3.497   3.008
 2093SOL     OW 6288   1.945   3.120   2.884
 2093SOL    HW1 6289   1.940   3.119   2.984
 2093SOL    HW2 6290   1.862   3.079   2.846
 2094SOL     OW 6291   2.550   3.524   3.578
 2094SOL    HW1 6292   2.494   3.605   3.587
 2094SOL    HW2 6293   2.602   3.528   3.492
 2095SOL     OW 6294   3.588   1.997   2.385
 2095SOL    HW1 6295   3.661   1.980   2.318
 2095SOL    HW2 6296   3.557   1.910   2.423
 2096SOL     OW 6297   3.250   3.435   2.339
 2096SOL    HW1 6298   3.317   3.447   2.265
 2096SOL    HW2 6299   3.210   3.524   2.362
 2097SOL     OW 6300   1.992   3.656   3.713
 2097SOL    HW1 6301   1.951   3.582   3.766
 2097SOL    HW2 6302   2.056   3.707   3.771
 2098SOL     OW 6303   3.142   2.789   2.534
 2098SOL    HW1 6304   3.202   2.708   2.536
 2098SOL    HW2 6305   3.182   2.858   2.474
 2099SOL     OW 6306   2.692   3.135   3.284
 2099SOL    HW1 6307   2.687   3.168   3.379
 2099SOL    HW2 6308   2.606   3.154   3.238
 2100SOL     OW 6309   2.534   3.478   2.016
 2100SOL    HW1 6310   2.543   3.488   1.917
 2100SOL    HW2 6311   2.494   3.389   2.037
 2101SOL     OW 6312   3.512   3.582   3.256
 2101SOL    HW1 6313   3.565   3.592   3.172
 2101SOL    HW2 6314   3.485   3.672   3.290
 2102SOL     OW 6315   3.703   2.037   2.825
 2102SOL    HW1 6316   3.742   1.952   2.789
 2102SOL    HW2 6317   3.605   2.039   2.806
 2103SOL     OW 6318   3.056   3.474   1.893
 2103SOL    HW1 6319   3.062   3.381   1.930
 2103SOL    HW2 6320   2.997   3.474   1.813
 2104SOL     OW 6321   2.684   2.864   3.234
 2104SOL    HW1 6322   2.724   2.863   3.142
 2104SOL    HW2 6323   2.694   2.956   3.274
 2105SOL     OW 6324   2.778   2.772   2.153
 2105SOL    HW1 6325   2.841   2.810   2.085
 2105SOL    HW2 6326   2.818   2.689   2.192
 2106SOL     OW 6327   3.366   3.469   1.906
 2106SOL    HW1 6328   3.274   3.506   1.913
 2106SOL    HW2 6329   3.404   3.489   1.816
 2107SOL     OW 6330   2.234   3.150   3.352
 2107SOL    HW1 6331   2.221   3.243   3.318
 2107SOL    HW2 6332   2.150   3.098   3.339
 2108SOL     OW 6333   3.476   3.154   3.151
 2108SOL    HW1 6334   3.536   3.157   3.231
 2108SOL    HW2 6335   3.401   3.218   3.164
 2109SOL     OW 6336   2.901   2.960   2.558
 2109SOL    HW1 6337   2.831   2.913   2.612
 2109SOL    HW2 6338   2.960   2.892   2.515
 2110SOL     OW 6339   2.876   2.098   2.833
 2110SOL    HW1 6340   2.868   2.062   2.740
 2110SOL    HW2 6341   2.874   2.022   2.898
 2111SOL     OW 6342   2.452   3.349   2.353
 2111SOL    HW1 6343   2.494   3.291   2.283
 2111SOL    HW2 6344   2.408   3.428   2.309
 2112SOL     OW 6345   3.571   2.247   3.243
 2112SOL    HW1 6346   3.644   2.316   3.247
 2112SOL    HW2 6347   3.599   2.172   3.184
 2113SOL     OW 6348   2.117   3.210   2.152
 2113SOL    HW1 6349   2.021   3.211   2.125
 2113SOL    HW2 6350   2.129   3.263   2.236
 2114SOL     OW 6351   1.967   2.875   3.588
 2114SOL    HW1 6352   1.890   2.842   3.642
 2114SOL    HW2 6353   2.052   2.845   3.630
 2115SOL     OW 6354   2.534   2.065   3.351
 2115SOL    HW1 6355   2.624   2.049   3.311
 2115SOL    HW2 6356   2.542   2.070   3.450
 2116SOL     OW 6357   1.937   2.207   1.895
 2116SOL    HW1 6358   1.845   2.179   1.866
 2116SOL    HW2 6359   1.968   2.284   1.839
 2117SOL     OW 6360   3.302   2.718   3.260
 2117SOL    HW1 6361   3.245   2.770   3.197
 2117SOL    HW2 6362   3.398   2.730   3.236
 2118SOL     OW 6363   1.934   2.028   2.180
 2118SOL    HW1 6364   1.917   2.111   2.126
 2118SOL    HW2 6365   2.024   1.991   2.158
 2119SOL     OW 6366   3.045   3.197   1.981
 2119SOL    HW1 6367   2.946   3.186   1.983
 2119SOL    HW2 6368   3.079   3.212   2.074
 2120SOL     OW 6369   2.475   2.704   3.293
 2120SOL    HW1 6370   2.531   2.785   3.276
 2120SOL    HW2 6371   2.534   2.624   3.296
 2121SOL     OW 6372   3.355   3.629   2.821
 2121SOL    HW1 6373   3.388   3.693   2.752
 2121SOL    HW2 6374   3.421   3.623   2.896
 2122SOL     OW 6375   2.578   2.427   3.570
 2122SOL    HW1 6376   2.597   2.492   3.644
 2122SOL    HW2 6377   2.638   2.347   3.579
 2123SOL     OW 6378   3.312   3.082   3.495
 2123SOL    HW1 6379   3.303   3.072   3.594
 2123SOL    HW2 6380   3.408   3.075   3.469
 2124SOL     OW 6381   2.252   3.603   3.422
 2124SOL    HW1 6382   2.161   3.644   3.420
 2124SOL    HW2 6383   2.245   3.509   3.454
 2125SOL     OW 6384   3.536   2.745   3.116
 2125SOL    HW1 6385   3.509   2.656   3.079
 2125SOL    HW2 6386   3.537   2.813   3.043
 2126SOL     OW 6387   3.087   2.187   2.311
 2126SOL    HW1 6388   3.152   2.113   2.300
 2126SOL    HW2 6389   3.107   2.237   2.395
 2127SOL     OW 6390   2.456   2.607   2.514
 2127SOL    HW1 6391   2.506   2.692   2.495
 2127SOL    HW2 6392   2.368   2.609   2.466
 2128SOL     OW 6393   3.639   2.204   3.504
 2128SOL    HW1 6394   3.622   2.235   3.410
 2128SOL    HW2 6395   3.555   2.167   3.542
 2129SOL     OW 6396   3.592   2.796   3.379
 2129SOL    HW1 6397   3.630   2.887   3.394
 2129SOL    HW2 6398   3.584   2.779   3.280
 2130SOL     OW 6399   2.721   3.236   1.878
 2130SOL    HW1 6400   2.675   3.251   1.966
 2130SOL    HW2 6401   2.765   3.321   1.848
 2131SOL     OW 6402   2.523   3.652   2.815
 2131SOL    HW1 6403   2.477   3.740   2.802
 2131SOL    HW2 6404   2.622   3.664   2.808
 2132SOL     OW 6405   2.721   2.818   2.723
 2132SOL    HW1 6406   2.775   2.749   2.771
 2132SOL    HW2 6407   2.689   2.887   2.789
 2133SOL     OW 6408   2.945   2.846   1.949
 2133SOL    HW1 6409   2.922   2.899   1.867
 2133SOL    HW2 6410   3.026   2.790   1.930
 2134SOL     OW 6411   3.723   3.431   2.713
 2134SOL    HW1 6412   3.652   3.419   2.643
 2134SOL    HW2 6413   3.724   3.352   2.773
 2135SOL     OW 6414   2.083   3.176   3.706
 2135SOL    HW1 6415   2.018   3.103   3.685
 2135SOL    HW2 6416   2.087   3.190   3.804
 2136SOL     OW 6417   1.941   3.102   2.515
 2136SOL    HW1 6418   1.940   3.055   2.603
 2136SOL    HW2 6419   2.023   3.074   2.464
 2137SOL     OW 6420   2.534   3.253   3.486
 2137SOL    HW1 6421   2.456   3.203   3.524
 2137SOL    HW2 6422   2.531   3.348   3.517
 2138SOL     OW 6423   3.686   2.054   3.089
 2138SOL    HW1 6424   3.682   1.964   3.133
 2138SOL    HW2 6425   3.689   2.043   2.990
 2139SOL     OW 6426   3.567   3.349   2.966
 2139SOL    HW1 6427   3.474   3.324   2.939
 2139SOL    HW2 6428   3.593   3.299   3.048
 2140SOL     OW 6429   2.179   2.409   3.142
 2140SOL    HW1 6430   2.217   2.350   3.214
 2140SOL    HW2 6431   2.219   2.383   3.054
 2141SOL     OW 6432   2.674   3.448   2.549
 2141SOL    HW1 6433   2.706   3.458   2.455
 2141SOL    HW2 6434   2.595   3.386   2.551
 2142SOL     OW 6435   3.286   2.076   2.974
 2142SOL    HW1 6436   3.338   2.011   3.029
 2142SOL    HW2 6437   3.237   2.139   3.035
 2143SOL     OW 6438   2.863   1.896   3.016
 2143SOL    HW1 6439   2.800   1.824   2.985
 2143SOL    HW2 6440   2.956   1.860   3.016
 2144SOL     OW 6441   2.632   3.192   2.163
 2144SOL    HW1 6442   2.586   3.105   2.180
 2144SOL    HW2 6443   2.723   3.189   2.204
 2145SOL     OW 6444   2.480   3.429   3.146
 2145SOL    HW1 6445   2.475   3.511   3.203
 2145SOL    HW2 6446   2.569   3.426   3.101
 2146SOL     OW 6447   3.214   1.914   2.030
 2146SOL    HW1 6448   3.249   1.873   1.946
 2146SOL    HW2 6449   3.124   1.876   2.050
 2147SOL     OW 6450   3.162   2.315   2.553
 2147SOL    HW1 6451   3.103   2.395   2.557
 2147SOL    HW2 6452   3.177   2.280   2.646
 2148SOL     OW 6453   3.455   2.083   2.744
 2148SOL    HW1 6454   3.371   2.082   2.798
 2148SOL    HW2 6455   3.457   2.166   2.688
 2149SOL     OW 6456   1.901   2.939   2.162
 2149SOL    HW1 6457   2.000   2.928   2.153
 2149SOL    HW2 6458   1.861   2.853   2.194
 2150SOL     OW 6459   2.737   3.508   2.199
 2150SOL    HW1 6460   2.660   3.473   2.145
 2150SOL    HW2 6461   2.705   3.579   2.261
 2151SOL     OW 6462   2.092   2.490   3.837
 2151SOL    HW1 6463   1.999   2.488   3.874
 2151SOL    HW2 6464   2.093   2.451   3.745
 2152SOL     OW 6465   2.087   2.137   4.720
 2152SOL    HW1 6466   2.122   2.120   4.812
 2152SOL    HW2 6467   1.999   2.092   4.708
 2153SOL     OW 6468   2.997   2.565   4.441
 2153SOL    HW1 6469   3.054   2.643   4.416
 2153SOL    HW2 6470   2.937   2.591   4.517
 2154SOL     OW 6471   3.617   2.469   3.955
 2154SOL    HW1 6472   3.605   2.456   3.856
 2154SOL    HW2 6473   3.587   2.388   4.004
 2155SOL     OW 6474   3.465   2.309   4.461
 2155SOL    HW1 6475   3.391   2.355   4.411
 2155SOL    HW2 6476   3.516   2.377   4.514
 2156SOL     OW 6477   2.093   3.575   4.207
 2156SOL    HW1 6478   2.127   3.652   4.261
 2156SOL    HW2 6479   2.137   3.575   4.117
 2157SOL     OW 6480   2.092   3.296   4.262
 2157SOL    HW1 6481   2.066   3.392   4.262
 2157SOL    HW2 6482   2.021   3.242   4.307
 2158SOL     OW 6483   2.468   2.826   3.847
 2158SOL    HW1 6484   2.475   2.910   3.793
 2158SOL    HW2 6485   2.514   2.839   3.935
 2159SOL     OW 6486   1.984   2.505   4.287
 2159SOL    HW1 6487   1.939   2.417   4.304
 2159SOL    HW2 6488   1.983   2.559   4.371
 2160SOL     OW 6489   3.704   3.629   4.083
 2160SOL    HW1 6490   3.758   3.600   4.163
 2160SOL    HW2 6491   3.734   3.719   4.054
 2161SOL     OW 6492   1.889   3.458   3.841
 2161SOL    HW1 6493   1.870   3.362   3.862
 2161SOL    HW2 6494   1.856   3.516   3.916
 2162SOL     OW 6495   3.551   2.784   4.336
 2162SOL    HW1 6496   3.646   2.755   4.344
 2162SOL    HW2 6497   3.543   2.849   4.261
 2163SOL     OW 6498   3.503   2.970   4.156
 2163SOL    HW1 6499   3.589   2.972   4.104
 2163SOL    HW2 6500   3.517   3.017   4.244
 2164SOL     OW 6501   2.475   3.227   4.450
 2164SOL    HW1 6502   2.426   3.140   4.459
 2164SOL    HW2 6503   2.452   3.270   4.363
 2165SOL     OW 6504   2.671   1.866   4.226
 2165SOL    HW1 6505   2.711   1.957   4.217
 2165SOL    HW2 6506   2.571   1.874   4.232
 2166SOL     OW 6507   3.387   2.861   3.914
 2166SOL    HW1 6508   3.324   2.785   3.927
 2166SOL    HW2 6509   3.435   2.879   4.000
 2167SOL     OW 6510   2.460   2.591   3.994
 2167SOL    HW1 6511   2.484   2.660   3.926
 2167SOL    HW2 6512   2.382   2.624   4.048
 2168SOL     OW 6513   3.143   2.207   4.668
 2168SOL    HW1 6514   3.057   2.157   4.655
 2168SOL    HW2 6515   3.205   2.153   4.724
 2169SOL     OW 6516   3.438   3.524   4.031
 2169SOL    HW1 6517   3.527   3.570   4.034
 2169SOL    HW2 6518   3.417   3.500   3.936
 2170SOL     OW 6519   2.903   2.563   4.153
 2170SOL    HW1 6520   2.929   2.559   4.249
 2170SOL    HW2 6521   2.818   2.512   4.139
 2171SOL     OW 6522   1.938   2.673   4.513
 2171SOL    HW1 6523   2.037   2.661   4.522
 2171SOL    HW2 6524   1.914   2.768   4.534
 2172SOL     OW 6525   2.727   2.210   3.919
 2172SOL    HW1 6526   2.786   2.273   3.870
 2172SOL    HW2 6527   2.746   2.116   3.890
 2173SOL     OW 6528   3.224   3.006   4.269
 2173SOL    HW1 6529   3.307   2.977   4.221
 2173SOL    HW2 6530   3.175   3.073   4.213
 2174SOL     OW 6531   2.870   3.318   4.201
 2174SOL    HW1 6532   2.824   3.390   4.149
 2174SOL    HW2 6533   2.866   3.338   4.299
 2175SOL     OW 6534   2.213   3.663   4.577
 2175SOL    HW1 6535   2.263   3.577   4.583
 2175SOL    HW2 6536   2.278   3.740   4.574
 2176SOL     OW 6537   3.657   2.928   4.597
 2176SOL    HW1 6538   3.595   2.913   4.521
 2176SOL    HW2 6539   3.605   2.939   4.682
 2177SOL     OW 6540   2.183   2.805   3.966
 2177SOL    HW1 6541   2.265   2.844   3.924
 2177SOL    HW2 6542   2.156   2.723   3.917
 2178SOL     OW 6543   2.973   3.638   3.961
 2178SOL    HW1 6544   2.913   3.576   4.011
 2178SOL    HW2 6545   3.004   3.594   3.876
 2179SOL     OW 6546   3.494   3.239   3.805
 2179SOL    HW1 6547   3.462   3.333   3.795
 2179SOL    HW2 6548   3.418   3.176   3.793
 2180SOL     OW 6549   2.326   3.605   4.047
 2180SOL    HW1 6550   2.359   3.644   4.133
 2180SOL    HW2 6551   2.402   3.598   3.982
 2181SOL     OW 6552   3.262   1.969   4.150
 2181SOL    HW1 6553   3.238   1.932   4.060
 2181SOL    HW2 6554   3.361   1.985   4.154
 2182SOL     OW 6555   2.802   3.560   4.628
 2182SOL    HW1 6556   2.882   3.503   4.649
 2182SOL    HW2 6557   2.753   3.520   4.551
 2183SOL     OW 6558   2.244   2.562   4.204
 2183SOL    HW1 6559   2.289   2.472   4.201
 2183SOL    HW2 6560   2.150   2.551   4.237
 2184SOL     OW 6561   2.476   1.984   3.841
 2184SOL    HW1 6562   2.574   1.962   3.848
 2184SOL    HW2 6563   2.445   1.967   3.748
 2185SOL     OW 6564   2.401   1.926   4.236
 2185SOL    HW1 6565   2.320   1.927   4.294
 2185SOL    HW2 6566   2.404   2.009   4.181
 2186SOL     OW 6567   3.296   3.050   3.765
 2186SOL    HW1 6568   3.328   2.974   3.822
 2186SOL    HW2 6569   3.204   3.077   3.795
 2187SOL     OW 6570   2.159   1.897   3.895
 2187SOL    HW1 6571   2.208   1.981   3.874
 2187SOL    HW2 6572   2.221   1.832   3.940
 2188SOL     OW 6573   2.797   2.098   4.204
 2188SOL    HW1 6574   2.749   2.139   4.126
 2188SOL    HW2 6575   2.896   2.096   4.185
 2189SOL     OW 6576   2.321   3.014   4.465
 2189SOL    HW1 6577   2.250   2.987   4.530
 2189SOL    HW2 6578   2.295   2.986   4.372
 2190SOL     OW 6579   3.133   3.659   4.315
 2190SOL    HW1 6580   3.177   3.723   4.251
 2190SOL    HW2 6581   3.083   3.711   4.385
 2191SOL     OW 6582   2.894   2.411   3.740
 2191SOL    HW1 6583   2.853   2.493   3.701
 2191SOL    HW2 6584   2.958   2.437   3.813
 2192SOL     OW 6585   2.728   2.316   4.366
 2192SOL    HW1 6586   2.696   2.388   4.304
 2192SOL    HW2 6587   2.752   2.235   4.313
 2193SOL     OW 6588   3.719   2.695   4.101
 2193SOL    HW1 6589   3.761   2.631   4.165
 2193SOL    HW2 6590   3.681   2.644   4.023
 2194SOL     OW 6591   2.350   3.247   3.898
 2194SOL    HW1 6592   2.263   3.232   3.945
 2194SOL    HW2 6593   2.333   3.273   3.803
 2195SOL     OW 6594   3.252   2.437   3.802
 2195SOL    HW1 6595   3.198   2.416   3.883
 2195SOL    HW2 6596   3.343   2.396   3.811
 2196SOL     OW 6597   2.389   2.118   4.052
 2196SOL    HW1 6598   2.416   2.059   3.977
 2196SOL    HW2 6599   2.389   2.213   4.021
 2197SOL     OW 6600   2.973   3.057   4.824
 2197SOL    HW1 6601   2.933   3.101   4.905
 2197SOL    HW2 6602   2.932   3.094   4.741
 2198SOL     OW 6603   2.567   2.912   4.092
 2198SOL    HW1 6604   2.553   2.919   4.191
 2198SOL    HW2 6605   2.651   2.861   4.074
 2199SOL     OW 6606   2.229   2.962   4.225
 2199SOL    HW1 6607   2.222   3.045   4.169
 2199SOL    HW2 6608   2.233   2.882   4.165
 2200SOL     OW 6609   3.114   3.210   4.112
 2200SOL    HW1 6610   3.164   3.287   4.152
 2200SOL    HW2 6611   3.019   3.212   4.144
 2201SOL     OW 6612   3.444   2.501   4.196
 2201SOL    HW1 6613   3.413   2.562   4.269
 2201SOL    HW2 6614   3.494   2.553   4.127
 2202SOL     OW 6615   3.071   2.387   3.999
 2202SOL    HW1 6616   3.084   2.303   4.053
 2202SOL    HW2 6617   3.042   2.461   4.059
 2203SOL     OW 6618   2.169   1.925   4.342
 2203SOL    HW1 6619   2.158   2.019   4.375
 2203SOL    HW2 6620   2.164   1.862   4.419
 2204SOL     OW 6621   3.484   2.229   4.098
 2204SOL    HW1 6622   3.486   2.153   4.162
 2204SOL    HW2 6623   3.436   2.306   4.138
 2205SOL     OW 6624   3.402   2.136   3.849
 2205SOL    HW1 6625   3.341   2.061   3.872
 2205SOL    HW2 6626   3.424   2.188   3.932
 2206SOL     OW 6627   3.165   2.700   3.766
 2206SOL    HW1 6628   3.199   2.607   3.781
 2206SOL    HW2 6629   3.183   2.727   3.671
 2207SOL     OW 6630   1.870   3.188   3.924
 2207SOL    HW1 6631   1.777   3.209   3.893
 2207SOL    HW2 6632   1.880   3.089   3.937
 2208SOL     OW 6633   2.677   2.434   4.049
 2208SOL    HW1 6634   2.684   2.345   4.003
 2208SOL    HW2 6635   2.583   2.468   4.041
 2209SOL     OW 6636   2.335   2.362   3.915
 2209SOL    HW1 6637   2.396   2.442   3.919
 2209SOL    HW2 6638   2.240   2.393   3.922
 2210SOL     OW 6639   3.164   2.717   4.033
 2210SOL    HW1 6640   3.078   2.686   4.075
 2210SOL    HW2 6641   3.160   2.703   3.934
 2211SOL     OW 6642   3.588   1.997   4.247
 2211SOL    HW1 6643   3.661   1.980   4.180
 2211SOL    HW2 6644   3.557   1.910   4.285
 2212SOL     OW 6645   3.250   3.435   4.201
 2212SOL    HW1 6646   3.317   3.447   4.127
 2212SOL    HW2 6647   3.210   3.524   4.224
 2213SOL     OW 6648   2.534   3.478   3.878
 2213SOL    HW1 6649   2.543   3.488   3.779
 2213SOL    HW2 6650   2.494   3.389   3.899
 2214SOL     OW 6651   3.703   2.037   4.687
 2214SOL    HW1 6652   3.742   1.952   4.651
 2214SOL    HW2 6653   3.605   2.039   4.668
 2215SOL     OW 6654   3.056   3.474   3.755
 2215SOL    HW1 6655   3.062   3.381   3.792
 2215SOL    HW2 6656   2.997   3.474   3.675
 2216SOL     OW 6657   2.778   2.772   4.015
 2216SOL    HW1 6658   2.841   2.810   3.947
 2216SOL    HW2 6659   2.818   2.689   4.054
 2217SOL     OW 6660   3.366   3.469   3.768
 2217SOL    HW1 6661   3.274   3.506   3.775
 2217SOL    HW2 6662   3.404   3.489   3.678
 2218SOL     OW 6663   2.452   3.349   4.215
 2218SOL    HW1 6664   2.494   3.291   4.145
 2218SOL    HW2 6665   2.408   3.428   4.171
 2219SOL     OW 6666   2.117   3.210   4.014
 2219SOL    HW1 6667   2.021   3.211   3.987
 2219SOL    HW2 6668   2.129   3.263   4.098
 2220SOL     OW 6669   1.937   2.207   3.757
 2220SOL    HW1 6670   1.845   2.179   3.728
 2220SOL    HW2 6671   1.968   2.284   3.701
 2221SOL     OW 6672   1.934   2.028   4.042
 2221SOL    HW1 6673   1.917   2.111   3.988
 2221SOL    HW2 6674   2.024   1.991   4.020
 2222SOL     OW 6675   3.045   3.197   3.843
 2222SOL    HW1 6676   2.946   3.186   3.845
 2222SOL    HW2 6677   3.079   3.212   3.936
 2223SOL     OW 6678   3.087   2.187   4.173
 2223SOL    HW1 6679   3.152   2.113   4.162
 2223SOL    HW2 6680   3.107   2.237   4.257
 2224SOL     OW 6681   2.456   2.607   4.376
 2224SOL    HW1 6682   2.506   2.692   4.357
 2224SOL    HW2 6683   2.368   2.609   4.328
 2225SOL     OW 6684   2.721   3.236   3.740
 2225SOL    HW1 6685   2.675   3.251   3.828
 2225SOL    HW2 6686   2.765   3.321   3.710
 2226SOL     OW 6687   2.945   2.846   3.811
 2226SOL    HW1 6688   2.922   2.899   3.729
 2226SOL    HW2 6689   3.026   2.790   3.792
 2227SOL     OW 6690   1.941   3.102   4.377
 2227SOL    HW1 6691   1.940   3.055   4.465
 2227SOL    HW2 6692   2.023   3.074   4.326
 2228SOL     OW 6693   2.290   2.286   4.244
 2228SOL    HW1 6694   2.320   2.214   4.182
 2228SOL    HW2 6695   2.251   2.246   4.327
 2229SOL     OW 6696   2.674   3.448   4.411
 2229SOL    HW1 6697   2.706   3.458   4.317
 2229SOL    HW2 6698   2.595   3.386   4.413
 2230SOL     OW 6699   2.632   3.192   4.025
 2230SOL    HW1 6700   2.586   3.105   4.042
 2230SOL    HW2 6701   2.723   3.189   4.066
 2231SOL     OW 6702   3.214   1.914   3.892
 2231SOL    HW1 6703   3.249   1.873   3.808
 2231SOL    HW2 6704   3.124   1.876   3.912
 2232SOL     OW 6705   3.162   2.315   4.415
 2232SOL    HW1 6706   3.103   2.395   4.419
 2232SOL    HW2 6707   3.177   2.280   4.508
 2233SOL     OW 6708   1.901   2.939   4.024
 2233SOL    HW1 6709   2.000   2.928   4.015
 2233SOL    HW2 6710   1.861   2.853   4.056
 2234SOL     OW 6711   2.737   3.508   4.061
 2234SOL    HW1 6712   2.660   3.473   4.007
 2234SOL    HW2 6713   2.705   3.579   4.123
 2235SOL     OW 6714   2.092   4.352   0.113
 2235SOL    HW1 6715   1.999   4.350   0.150
 2235SOL    HW2 6716   2.093   4.313   0.021
 2236SOL     OW 6717   2.087   3.999   0.996
 2236SOL    HW1 6718   2.122   3.982   1.088
 2236SOL    HW2 6719   1.999   3.954   0.984
 2237SOL     OW 6720   1.881   4.092   0.647
 2237SOL    HW1 6721   1.799   4.135   0.686
 2237SOL    HW2 6722   1.853   4.019   0.584
 2238SOL     OW 6723   3.617   4.331   0.231
 2238SOL    HW1 6724   3.605   4.318   0.132
 2238SOL    HW2 6725   3.587   4.250   0.280
 2239SOL     OW 6726   2.547   4.736   0.665
 2239SOL    HW1 6727   2.616   4.720   0.735
 2239SOL    HW2 6728   2.474   4.793   0.703
 2240SOL     OW 6729   2.300   4.116   1.499
 2240SOL    HW1 6730   2.382   4.060   1.508
 2240SOL    HW2 6731   2.219   4.058   1.503
 2241SOL     OW 6732   3.465   4.171   0.737
 2241SOL    HW1 6733   3.391   4.217   0.687
 2241SOL    HW2 6734   3.516   4.239   0.790
 2242SOL     OW 6735   3.456   3.838   1.480
 2242SOL    HW1 6736   3.438   3.905   1.408
 2242SOL    HW2 6737   3.453   3.884   1.569
 2243SOL     OW 6738   1.984   4.367   0.563
 2243SOL    HW1 6739   1.939   4.279   0.580
 2243SOL    HW2 6740   1.983   4.421   0.647
 2244SOL     OW 6741   1.975   4.461   1.597
 2244SOL    HW1 6742   2.063   4.448   1.642
 2244SOL    HW2 6743   1.962   4.558   1.575
 2245SOL     OW 6744   2.671   3.728   0.502
 2245SOL    HW1 6745   2.711   3.819   0.493
 2245SOL    HW2 6746   2.571   3.736   0.508
 2246SOL     OW 6747   2.179   3.975   1.801
 2246SOL    HW1 6748   2.250   4.046   1.807
 2246SOL    HW2 6749   2.091   4.014   1.829
 2247SOL     OW 6750   3.143   4.069   0.944
 2247SOL    HW1 6751   3.057   4.019   0.931
 2247SOL    HW2 6752   3.205   4.015   1.000
 2248SOL     OW 6753   2.669   4.329   1.465
 2248SOL    HW1 6754   2.622   4.326   1.554
 2248SOL    HW2 6755   2.618   4.274   1.399
 2249SOL     OW 6756   3.256   4.193   1.674
 2249SOL    HW1 6757   3.236   4.236   1.762
 2249SOL    HW2 6758   3.334   4.131   1.683
 2250SOL     OW 6759   2.853   4.134   1.242
 2250SOL    HW1 6760   2.776   4.168   1.296
 2250SOL    HW2 6761   2.819   4.083   1.163
 2251SOL     OW 6762   2.903   4.425   0.429
 2251SOL    HW1 6763   2.929   4.421   0.525
 2251SOL    HW2 6764   2.818   4.374   0.415
 2252SOL     OW 6765   2.727   4.072   0.195
 2252SOL    HW1 6766   2.786   4.135   0.146
 2252SOL    HW2 6767   2.746   3.978   0.166
 2253SOL     OW 6768   3.581   4.309   1.831
 2253SOL    HW1 6769   3.555   4.398   1.795
 2253SOL    HW2 6770   3.579   4.241   1.758
 2254SOL     OW 6771   2.412   3.920   0.885
 2254SOL    HW1 6772   2.407   3.915   0.985
 2254SOL    HW2 6773   2.414   4.016   0.856
 2255SOL     OW 6774   3.320   4.459   0.728
 2255SOL    HW1 6775   3.315   4.394   0.803
 2255SOL    HW2 6776   3.400   4.518   0.741
 2256SOL     OW 6777   2.064   4.009   1.498
 2256SOL    HW1 6778   1.984   4.069   1.485
 2256SOL    HW2 6779   2.054   3.960   1.584
 2257SOL     OW 6780   3.262   3.831   0.426
 2257SOL    HW1 6781   3.238   3.794   0.336
 2257SOL    HW2 6782   3.361   3.847   0.430
 2258SOL     OW 6783   2.244   4.424   0.480
 2258SOL    HW1 6784   2.289   4.334   0.477
 2258SOL    HW2 6785   2.150   4.413   0.513
 2259SOL     OW 6786   3.409   3.946   1.729
 2259SOL    HW1 6787   3.404   3.983   1.821
 2259SOL    HW2 6788   3.337   3.877   1.717
 2260SOL     OW 6789   2.476   3.846   0.117
 2260SOL    HW1 6790   2.574   3.824   0.124
 2260SOL    HW2 6791   2.445   3.829   0.024
 2261SOL     OW 6792   2.643   3.988   1.749
 2261SOL    HW1 6793   2.710   3.927   1.792
 2261SOL    HW2 6794   2.570   4.007   1.814
 2262SOL     OW 6795   3.213   4.314   1.433
 2262SOL    HW1 6796   3.241   4.271   1.518
 2262SOL    HW2 6797   3.238   4.410   1.434
 2263SOL     OW 6798   2.784   4.227   0.899
 2263SOL    HW1 6799   2.759   4.218   0.803
 2263SOL    HW2 6800   2.832   4.145   0.930
 2264SOL     OW 6801   2.401   3.788   0.512
 2264SOL    HW1 6802   2.320   3.789   0.570
 2264SOL    HW2 6803   2.404   3.871   0.457
 2265SOL     OW 6804   2.797   3.960   0.480
 2265SOL    HW1 6805   2.749   4.001   0.402
 2265SOL    HW2 6806   2.896   3.958   0.461
 2266SOL     OW 6807   2.938   4.407   1.464
 2266SOL    HW1 6808   2.858   4.346   1.467
 2266SOL    HW2 6809   3.019   4.354   1.440
 2267SOL     OW 6810   2.894   4.273   0.016
 2267SOL    HW1 6811   2.853   4.355  -0.023
 2267SOL    HW2 6812   2.958   4.299   0.089
 2268SOL     OW 6813   1.940   4.280   1.386
 2268SOL    HW1 6814   2.032   4.279   1.345
 2268SOL    HW2 6815   1.934   4.354   1.453
 2269SOL     OW 6816   2.423   3.946   1.147
 2269SOL    HW1 6817   2.461   3.862   1.184
 2269SOL    HW2 6818   2.335   3.965   1.191
 2270SOL     OW 6819   2.728   4.178   0.642
 2270SOL    HW1 6820   2.696   4.250   0.580
 2270SOL    HW2 6821   2.752   4.097   0.589
 2271SOL     OW 6822   2.879   3.763   0.753
 2271SOL    HW1 6823   2.807   3.768   0.684
 2271SOL    HW2 6824   2.855   3.694   0.822
 2272SOL     OW 6825   3.328   4.314   0.992
 2272SOL    HW1 6826   3.298   4.219   0.999
 2272SOL    HW2 6827   3.401   4.330   1.058
 2273SOL     OW 6828   3.252   4.299   0.078
 2273SOL    HW1 6829   3.198   4.278   0.159
 2273SOL    HW2 6830   3.343   4.258   0.087
 2274SOL     OW 6831   2.389   3.980   0.328
 2274SOL    HW1 6832   2.416   3.921   0.253
 2274SOL    HW2 6833   2.389   4.075   0.297
 2275SOL     OW 6834   2.777   3.813   1.402
 2275SOL    HW1 6835   2.802   3.793   1.307
 2275SOL    HW2 6836   2.849   3.869   1.444
 2276SOL     OW 6837   3.136   4.110   1.262
 2276SOL    HW1 6838   3.157   4.184   1.326
 2276SOL    HW2 6839   3.047   4.127   1.219
 2277SOL     OW 6840   2.428   4.261   0.865
 2277SOL    HW1 6841   2.440   4.327   0.791
 2277SOL    HW2 6842   2.474   4.295   0.948
 2278SOL     OW 6843   3.444   4.363   0.472
 2278SOL    HW1 6844   3.413   4.424   0.545
 2278SOL    HW2 6845   3.494   4.415   0.403
 2279SOL     OW 6846   2.875   3.829   1.770
 2279SOL    HW1 6847   2.881   3.914   1.718
 2279SOL    HW2 6848   2.907   3.753   1.713
 2280SOL     OW 6849   2.366   3.774   1.740
 2280SOL    HW1 6850   2.324   3.717   1.670
 2280SOL    HW2 6851   2.300   3.843   1.772
 2281SOL     OW 6852   3.071   4.249   0.275
 2281SOL    HW1 6853   3.084   4.165   0.329
 2281SOL    HW2 6854   3.042   4.323   0.335
 2282SOL     OW 6855   2.169   3.937   1.231
 2282SOL    HW1 6856   2.146   3.974   1.321
 2282SOL    HW2 6857   2.139   3.842   1.225
 2283SOL     OW 6858   2.594   4.358   1.064
 2283SOL    HW1 6859   2.653   4.332   0.988
 2283SOL    HW2 6860   2.566   4.454   1.053
 2284SOL     OW 6861   2.169   3.787   0.618
 2284SOL    HW1 6862   2.158   3.881   0.651
 2284SOL    HW2 6863   2.164   3.724   0.695
 2285SOL     OW 6864   3.484   4.091   0.374
 2285SOL    HW1 6865   3.486   4.015   0.438
 2285SOL    HW2 6866   3.436   4.168   0.414
 2286SOL     OW 6867   3.402   3.998   0.125
 2286SOL    HW1 6868   3.341   3.923   0.148
 2286SOL    HW2 6869   3.424   4.050   0.208
 2287SOL     OW 6870   2.181   4.534   0.949
 2287SOL    HW1 6871   2.274   4.570   0.954
 2287SOL    HW2 6872   2.175   4.449   1.001
 2288SOL     OW 6873   2.201   4.233   1.006
 2288SOL    HW1 6874   2.149   4.150   0.989
 2288SOL    HW2 6875   2.278   4.238   0.942
 2289SOL     OW 6876   3.000   4.104   1.678
 2289SOL    HW1 6877   2.955   4.167   1.742
 2289SOL    HW2 6878   3.093   4.135   1.661
 2290SOL     OW 6879   3.022   3.931   1.477
 2290SOL    HW1 6880   3.022   3.995   1.554
 2290SOL    HW2 6881   3.050   3.979   1.394
 2291SOL     OW 6882   1.902   4.268   1.114
 2291SOL    HW1 6883   1.987   4.235   1.073
 2291SOL    HW2 6884   1.915   4.283   1.212
 2292SOL     OW 6885   2.051   4.244   1.722
 2292SOL    HW1 6886   2.110   4.204   1.652
 2292SOL    HW2 6887   1.993   4.315   1.681
 2293SOL     OW 6888   2.677   4.296   0.325
 2293SOL    HW1 6889   2.684   4.207   0.279
 2293SOL    HW2 6890   2.583   4.330   0.317
 2294SOL     OW 6891   3.519   4.328   1.206
 2294SOL    HW1 6892   3.481   4.259   1.268
 2294SOL    HW2 6893   3.601   4.292   1.162
 2295SOL     OW 6894   2.533   4.188   1.269
 2295SOL    HW1 6895   2.499   4.099   1.239
 2295SOL    HW2 6896   2.559   4.242   1.189
 2296SOL     OW 6897   2.335   4.224   0.191
 2296SOL    HW1 6898   2.396   4.304   0.195
 2296SOL    HW2 6899   2.240   4.255   0.198
 2297SOL     OW 6900   2.765   3.810   0.133
 2297SOL    HW1 6901   2.816   3.811   0.047
 2297SOL    HW2 6902   2.821   3.768   0.204
 2298SOL     OW 6903   3.588   3.859   0.523
 2298SOL    HW1 6904   3.661   3.842   0.456
 2298SOL    HW2 6905   3.557   3.772   0.561
 2299SOL     OW 6906   3.142   4.651   0.672
 2299SOL    HW1 6907   3.202   4.570   0.674
 2299SOL    HW2 6908   3.182   4.720   0.612
 2300SOL     OW 6909   3.703   3.899   0.963
 2300SOL    HW1 6910   3.742   3.814   0.927
 2300SOL    HW2 6911   3.605   3.901   0.944
 2301SOL     OW 6912   2.125   4.050   0.720
 2301SOL    HW1 6913   2.046   4.101   0.686
 2301SOL    HW2 6914   2.116   4.035   0.818
 2302SOL     OW 6915   2.876   3.960   0.971
 2302SOL    HW1 6916   2.868   3.924   0.878
 2302SOL    HW2 6917   2.874   3.884   1.036
 2303SOL     OW 6918   3.571   4.109   1.381
 2303SOL    HW1 6919   3.644   4.178   1.385
 2303SOL    HW2 6920   3.599   4.034   1.322
 2304SOL     OW 6921   2.534   3.927   1.489
 2304SOL    HW1 6922   2.624   3.911   1.449
 2304SOL    HW2 6923   2.542   3.932   1.588
 2305SOL     OW 6924   1.937   4.069   0.033
 2305SOL    HW1 6925   1.845   4.041   0.004
 2305SOL    HW2 6926   1.968   4.146  -0.023
 2306SOL     OW 6927   2.578   4.289   1.708
 2306SOL    HW1 6928   2.597   4.354   1.782
 2306SOL    HW2 6929   2.638   4.209   1.717
 2307SOL     OW 6930   3.087   4.049   0.449
 2307SOL    HW1 6931   3.152   3.975   0.438
 2307SOL    HW2 6932   3.107   4.099   0.533
 2308SOL     OW 6933   3.639   4.066   1.642
 2308SOL    HW1 6934   3.622   4.097   1.548
 2308SOL    HW2 6935   3.555   4.029   1.680
 2309SOL     OW 6936   2.945   4.708   0.087
 2309SOL    HW1 6937   2.922   4.761   0.005
 2309SOL    HW2 6938   3.026   4.652   0.068
 2310SOL     OW 6939   3.686   3.916   1.227
 2310SOL    HW1 6940   3.682   3.826   1.271
 2310SOL    HW2 6941   3.689   3.905   1.128
 2311SOL     OW 6942   2.290   4.148   0.520
 2311SOL    HW1 6943   2.320   4.076   0.458
 2311SOL    HW2 6944   2.251   4.108   0.603
 2312SOL     OW 6945   2.179   4.271   1.280
 2312SOL    HW1 6946   2.217   4.212   1.352
 2312SOL    HW2 6947   2.219   4.245   1.192
 2313SOL     OW 6948   3.286   3.938   1.112
 2313SOL    HW1 6949   3.338   3.873   1.167
 2313SOL    HW2 6950   3.237   4.001   1.173
 2314SOL     OW 6951   2.863   3.758   1.154
 2314SOL    HW1 6952   2.800   3.686   1.123
 2314SOL    HW2 6953   2.956   3.722   1.154
 2315SOL     OW 6954   3.214   3.776   0.168
 2315SOL    HW1 6955   3.249   3.735   0.084
 2315SOL    HW2 6956   3.124   3.738   0.188
 2316SOL     OW 6957   3.162   4.177   0.691
 2316SOL    HW1 6958   3.103   4.257   0.695
 2316SOL    HW2 6959   3.177   4.142   0.784
 2317SOL     OW 6960   3.455   3.945   0.882
 2317SOL    HW1 6961   3.371   3.944   0.936
 2317SOL    HW2 6962   3.457   4.028   0.826
 2318SOL     OW 6963   2.092   4.352   1.975
 2318SOL    HW1 6964   1.999   4.350   2.012
 2318SOL    HW2 6965   2.093   4.313   1.883
 2319SOL     OW 6966   2.087   3.999   2.858
 2319SOL    HW1 6967   2.122   3.982   2.950
 2319SOL    HW2 6968   1.999   3.954   2.846
 2320SOL     OW 6969   1.881   4.092   2.509
 2320SOL    HW1 6970   1.799   4.135   2.548
 2320SOL    HW2 6971   1.853   4.019   2.446
 2321SOL     OW 6972   3.617   4.331   2.093
 2321SOL    HW1 6973   3.605   4.318   1.994
 2321SOL    HW2 6974   3.587   4.250   2.142
 2322SOL     OW 6975   2.547   4.736   2.527
 2322SOL    HW1 6976   2.616   4.720   2.597
 2322SOL    HW2 6977   2.474   4.793   2.565
 2323SOL     OW 6978   2.300   4.116   3.361
 2323SOL    HW1 6979   2.382   4.060   3.370
 2323SOL    HW2 6980   2.219   4.058   3.365
 2324SOL     OW 6981   3.465   4.171   2.599
 2324SOL    HW1 6982   3.391   4.217   2.549
 2324SOL    HW2 6983   3.516   4.239   2.652
 2325SOL     OW 6984   3.456   3.838   3.342
 2325SOL    HW1 6985   3.438   3.905   3.270
 2325SOL    HW2 6986   3.453   3.884   3.431
 2326SOL     OW 6987   1.984   4.367   2.425
 2326SOL    HW1 6988   1.939   4.279   2.442
 2326SOL    HW2 6989   1.983   4.421   2.509
 2327SOL     OW 6990   1.975   4.461   3.459
 2327SOL    HW1 6991   2.063   4.448   3.504
 2327SOL    HW2 6992   1.962   4.558   3.437
 2328SOL     OW 6993   2.671   3.728   2.364
 2328SOL    HW1 6994   2.711   3.819   2.355
 2328SOL    HW2 6995   2.571   3.736   2.370
 2329SOL     OW 6996   2.179   3.975   3.663
 2329SOL    HW1 6997   2.250   4.046   3.669
 2329SOL    HW2 6998   2.091   4.014   3.691
 2330SOL     OW 6999   3.143   4.069   2.806
 2330SOL    HW1 7000   3.057   4.019   2.793
 2330SOL    HW2 7001   3.205   4.015   2.862
 2331SOL     OW 7002   2.669   4.329   3.327
 2331SOL    HW1 7003   2.622   4.326   3.416
 2331SOL    HW2 7004   2.618   4.274   3.261
 2332SOL     OW 7005   3.256   4.193   3.536
 2332SOL    HW1 7006   3.236   4.236   3.624
 2332SOL    HW2 7007   3.334   4.131   3.545
 2333SOL     OW 7008   2.853   4.134   3.104
 2333SOL    HW1 7009   2.776   4.168   3.158
 2333SOL    HW2 7010   2.819   4.083   3.025
 2334SOL     OW 7011   2.903   4.425   2.291
 2334SOL    HW1 7012   2.929   4.421   2.387
 2334SOL    HW2 7013   2.818   4.374   2.277
 2335SOL     OW 7014   2.727   4.072   2.057
 2335SOL    HW1 7015   2.786   4.135   2.008
 2335SOL    HW2 7016   2.746   3.978   2.028
 2336SOL     OW 7017   3.581   4.309   3.693
 2336SOL    HW1 7018   3.555   4.398   3.657
 2336SOL    HW2 7019   3.579   4.241   3.620
 2337SOL     OW 7020   2.412   3.920   2.747
 2337SOL    HW1 7021   2.407   3.915   2.847
 2337SOL    HW2 7022   2.414   4.016   2.718
 2338SOL     OW 7023   3.320   4.459   2.590
 2338SOL    HW1 7024   3.315   4.394   2.665
 2338SOL    HW2 7025   3.400   4.518   2.603
 2339SOL     OW 7026   2.064   4.009   3.360
 2339SOL    HW1 7027   1.984   4.069   3.347
 2339SOL    HW2 7028   2.054   3.960   3.446
 2340SOL     OW 7029   3.262   3.831   2.288
 2340SOL    HW1 7030   3.238   3.794   2.198
 2340SOL    HW2 7031   3.361   3.847   2.292
 2341SOL     OW 7032   2.244   4.424   2.342
 2341SOL    HW1 7033   2.289   4.334   2.339
 2341SOL    HW2 7034   2.150   4.413   2.375
 2342SOL     OW 7035   3.409   3.946   3.591
 2342SOL    HW1 7036   3.404   3.983   3.683
 2342SOL    HW2 7037   3.337   3.877   3.579
 2343SOL     OW 7038   2.476   3.846   1.979
 2343SOL    HW1 7039   2.574   3.824   1.986
 2343SOL    HW2 7040   2.445   3.829   1.886
 2344SOL     OW 7041   2.643   3.988   3.611
 2344SOL    HW1 7042   2.710   3.927   3.654
 2344SOL    HW2 7043   2.570   4.007   3.676
 2345SOL     OW 7044   3.213   4.314   3.295
 2345SOL    HW1 7045   3.241   4.271   3.380
 2345SOL    HW2 7046   3.238   4.410   3.296
 2346SOL     OW 7047   2.784   4.227   2.761
 2346SOL    HW1 7048   2.759   4.218   2.665
 2346SOL    HW2 7049   2.832   4.145   2.792
 2347SOL     OW 7050   2.401   3.788   2.374
 2347SOL    HW1 7051   2.320   3.789   2.432
 2347SOL    HW2 7052   2.404   3.871   2.319
 2348SOL     OW 7053   2.159   3.759   2.033
 2348SOL    HW1 7054   2.208   3.843   2.012
 2348SOL    HW2 7055   2.221   3.694   2.078
 2349SOL     OW 7056   2.797   3.960   2.342
 2349SOL    HW1 7057   2.749   4.001   2.264
 2349SOL    HW2 7058   2.896   3.958   2.323
 2350SOL     OW 7059   2.938   4.407   3.326
 2350SOL    HW1 7060   2.858   4.346   3.329
 2350SOL    HW2 7061   3.019   4.354   3.302
 2351SOL     OW 7062   2.894   4.273   1.878
 2351SOL    HW1 7063   2.853   4.355   1.839
 2351SOL    HW2 7064   2.958   4.299   1.951
 2352SOL     OW 7065   1.940   4.280   3.248
 2352SOL    HW1 7066   2.032   4.279   3.207
 2352SOL    HW2 7067   1.934   4.354   3.315
 2353SOL     OW 7068   2.423   3.946   3.009
 2353SOL    HW1 7069   2.461   3.862   3.046
 2353SOL    HW2 7070   2.335   3.965   3.053
 2354SOL     OW 7071   2.728   4.178   2.504
 2354SOL    HW1 7072   2.696   4.250   2.442
 2354SOL    HW2 7073   2.752   4.097   2.451
 2355SOL     OW 7074   2.879   3.763   2.615
 2355SOL    HW1 7075   2.807   3.768   2.546
 2355SOL    HW2 7076   2.855   3.694   2.684
 2356SOL     OW 7077   3.328   4.314   2.854
 2356SOL    HW1 7078   3.298   4.219   2.861
 2356SOL    HW2 7079   3.401   4.330   2.920
 2357SOL     OW 7080   3.252   4.299   1.940
 2357SOL    HW1 7081   3.198   4.278   2.021
 2357SOL    HW2 7082   3.343   4.258   1.949
 2358SOL     OW 7083   2.389   3.980   2.190
 2358SOL    HW1 7084   2.416   3.921   2.115
 2358SOL    HW2 7085   2.389   4.075   2.159
 2359SOL     OW 7086   2.777   3.813   3.264
 2359SOL    HW1 7087   2.802   3.793   3.169
 2359SOL    HW2 7088   2.849   3.869   3.306
 2360SOL     OW 7089   3.136   4.110   3.124
 2360SOL    HW1 7090   3.157   4.184   3.188
 2360SOL    HW2 7091   3.047   4.127   3.081
 2361SOL     OW 7092   2.428   4.261   2.727
 2361SOL    HW1 7093   2.440   4.327   2.653
 2361SOL    HW2 7094   2.474   4.295   2.810
 2362SOL     OW 7095   3.444   4.363   2.334
 2362SOL    HW1 7096   3.413   4.424   2.407
 2362SOL    HW2 7097   3.494   4.415   2.265
 2363SOL     OW 7098   2.875   3.829   3.632
 2363SOL    HW1 7099   2.881   3.914   3.580
 2363SOL    HW2 7100   2.907   3.753   3.575
 2364SOL     OW 7101   2.366   3.774   3.602
 2364SOL    HW1 7102   2.324   3.717   3.532
 2364SOL    HW2 7103   2.300   3.843   3.634
 2365SOL     OW 7104   3.071   4.249   2.137
 2365SOL    HW1 7105   3.084   4.165   2.191
 2365SOL    HW2 7106   3.042   4.323   2.197
 2366SOL     OW 7107   2.169   3.937   3.093
 2366SOL    HW1 7108   2.146   3.974   3.183
 2366SOL    HW2 7109   2.139   3.842   3.087
 2367SOL     OW 7110   2.594   4.358   2.926
 2367SOL    HW1 7111   2.653   4.332   2.850
 2367SOL    HW2 7112   2.566   4.454   2.915
 2368SOL     OW 7113   2.169   3.787   2.480
 2368SOL    HW1 7114   2.158   3.881   2.513
 2368SOL    HW2 7115   2.164   3.724   2.557
 2369SOL     OW 7116   3.484   4.091   2.236
 2369SOL    HW1 7117   3.486   4.015   2.300
 2369SOL    HW2 7118   3.436   4.168   2.276
 2370SOL     OW 7119   3.402   3.998   1.987
 2370SOL    HW1 7120   3.341   3.923   2.010
 2370SOL    HW2 7121   3.424   4.050   2.070
 2371SOL     OW 7122   2.181   4.534   2.811
 2371SOL    HW1 7123   2.274   4.570   2.816
 2371SOL    HW2 7124   2.175   4.449   2.863
 2372SOL     OW 7125   2.201   4.233   2.868
 2372SOL    HW1 7126   2.149   4.150   2.851
 2372SOL    HW2 7127   2.278   4.238   2.804
 2373SOL     OW 7128   3.000   4.104   3.540
 2373SOL    HW1 7129   2.955   4.167   3.604
 2373SOL    HW2 7130   3.093   4.135   3.523
 2374SOL     OW 7131   3.022   3.931   3.339
 2374SOL    HW1 7132   3.022   3.995   3.416
 2374SOL    HW2 7133   3.050   3.979   3.256
 2375SOL     OW 7134   1.902   4.268   2.976
 2375SOL    HW1 7135   1.987   4.235   2.935
 2375SOL    HW2 7136   1.915   4.283   3.074
 2376SOL     OW 7137   2.051   4.244   3.584
 2376SOL    HW1 7138   2.110   4.204   3.514
 2376SOL    HW2 7139   1.993   4.315   3.543
 2377SOL     OW 7140   2.677   4.296   2.187
 2377SOL    HW1 7141   2.684   4.207   2.141
 2377SOL    HW2 7142   2.583   4.330   2.179
 2378SOL     OW 7143   3.519   4.328   3.068
 2378SOL    HW1 7144   3.481   4.259   3.130
 2378SOL    HW2 7145   3.601   4.292   3.024
 2379SOL     OW 7146   2.533   4.188   3.131
 2379SOL    HW1 7147   2.499   4.099   3.101
 2379SOL    HW2 7148   2.559   4.242   3.051
 2380SOL     OW 7149   2.335   4.224   2.053
 2380SOL    HW1 7150   2.396   4.304   2.057
 2380SOL    HW2 7151   2.240   4.255   2.060
 2381SOL     OW 7152   3.588   3.859   2.385
 2381SOL    HW1 7153   3.661   3.842   2.318
 2381SOL    HW2 7154   3.557   3.772   2.423
 2382SOL     OW 7155   3.142   4.651   2.534
 2382SOL    HW1 7156   3.202   4.570   2.536
 2382SOL    HW2 7157   3.182   4.720   2.474
 2383SOL     OW 7158   3.703   3.899   2.825
 2383SOL    HW1 7159   3.742   3.814   2.789
 2383SOL    HW2 7160   3.605   3.901   2.806
 2384SOL     OW 7161   2.125   4.050   2.582
 2384SOL    HW1 7162   2.046   4.101   2.548
 2384SOL    HW2 7163   2.116   4.035   2.680
 2385SOL     OW 7164   2.876   3.960   2.833
 2385SOL    HW1 7165   2.868   3.924   2.740
 2385SOL    HW2 7166   2.874   3.884   2.898
 2386SOL     OW 7167   3.571   4.109   3.243
 2386SOL    HW1 7168   3.644   4.178   3.247
 2386SOL    HW2 7169   3.599   4.034   3.184
 2387SOL     OW 7170   2.534   3.927   3.351
 2387SOL    HW1 7171   2.624   3.911   3.311
 2387SOL    HW2 7172   2.542   3.932   3.450
 2388SOL     OW 7173   1.937   4.069   1.895
 2388SOL    HW1 7174   1.845   4.041   1.866
 2388SOL    HW2 7175   1.968   4.146   1.839
 2389SOL     OW 7176   1.934   3.890   2.180
 2389SOL    HW1 7177   1.917   3.973   2.126
 2389SOL    HW2 7178   2.024   3.853   2.158
 2390SOL     OW 7179   2.578   4.289   3.570
 2390SOL    HW1 7180   2.597   4.354   3.644
 2390SOL    HW2 7181   2.638   4.209   3.579
 2391SOL     OW 7182   3.087   4.049   2.311
 2391SOL    HW1 7183   3.152   3.975   2.300
 2391SOL    HW2 7184   3.107   4.099   2.395
 2392SOL     OW 7185   3.639   4.066   3.504
 2392SOL    HW1 7186   3.622   4.097   3.410
 2392SOL    HW2 7187   3.555   4.029   3.542
 2393SOL     OW 7188   2.945   4.708   1.949
 2393SOL    HW1 7189   2.922   4.761   1.867
 2393SOL    HW2 7190   3.026   4.652   1.930
 2394SOL     OW 7191   3.686   3.916   3.089
 2394SOL    HW1 7192   3.682   3.826   3.133
 2394SOL    HW2 7193   3.689   3.905   2.990
 2395SOL     OW 7194   2.290   4.148   2.382
 2395SOL    HW1 7195   2.320   4.076   2.320
 2395SOL    HW2 7196   2.251   4.108   2.465
 2396SOL     OW 7197   2.179   4.271   3.142
 2396SOL    HW1 7198   2.217   4.212   3.214
 2396SOL    HW2 7199   2.219   4.245   3.054
 2397SOL     OW 7200   3.286   3.938   2.974
 2397SOL    HW1 7201   3.338   3.873   3.029
 2397SOL    HW2 7202   3.237   4.001   3.035
 2398SOL     OW 7203   2.863   3.758   3.016
 2398SOL    HW1 7204   2.800   3.686   2.985
 2398SOL    HW2 7205   2.956   3.722   3.016
 2399SOL     OW 7206   3.214   3.776   2.030
 2399SOL    HW1 7207   3.249   3.735   1.946
 2399SOL    HW2 7208   3.124   3.738   2.050
 2400SOL     OW 7209   3.162   4.177   2.553
 2400SOL    HW1 7210   3.103   4.257   2.557
 2400SOL    HW2 7211   3.177   4.142   2.646
 2401SOL     OW 7212   3.455   3.945   2.744
 2401SOL    HW1 7213   3.371   3.944   2.798
 2401SOL    HW2 7214   3.457   4.028   2.688
 2402SOL     OW 7215   2.092   4.352   3.837
 2402SOL    HW1 7216   1.999   4.350   3.874
 2402SOL    HW2 7217   2.093   4.313   3.745
 2403SOL     OW 7218   2.087   3.999   4.720
 2403SOL    HW1 7219   2.122   3.982   4.812
 2403SOL    HW2 7220   1.999   3.954   4.708
 2404SOL     OW 7221   2.997   4.427   4.441
 2404SOL    HW1 7222   3.054   4.505   4.416
 2404SOL    HW2 7223   2.937   4.453   4.517
 2405SOL     OW 7224   3.617   4.331   3.955
 2405SOL    HW1 7225   3.605   4.318   3.856
 2405SOL    HW2 7226   3.587   4.250   4.004
 2406SOL     OW 7227   2.547   4.736   4.389
 2406SOL    HW1 7228   2.616   4.720   4.459
 2406SOL    HW2 7229   2.474   4.793   4.427
 2407SOL     OW 7230   3.465   4.171   4.461
 2407SOL    HW1 7231   3.391   4.217   4.411
 2407SOL    HW2 7232   3.516   4.239   4.514
 2408SOL     OW 7233   1.984   4.367   4.287
 2408SOL    HW1 7234   1.939   4.279   4.304
 2408SOL    HW2 7235   1.983   4.421   4.371
 2409SOL     OW 7236   2.671   3.728   4.226
 2409SOL    HW1 7237   2.711   3.819   4.217
 2409SOL    HW2 7238   2.571   3.736   4.232
 2410SOL     OW 7239   3.143   4.069   4.668
 2410SOL    HW1 7240   3.057   4.019   4.655
 2410SOL    HW2 7241   3.205   4.015   4.724
 2411SOL     OW 7242   2.903   4.425   4.153
 2411SOL    HW1 7243   2.929   4.421   4.249
 2411SOL    HW2 7244   2.818   4.374   4.139
 2412SOL     OW 7245   2.727   4.072   3.919
 2412SOL    HW1 7246   2.786   4.135   3.870
 2412SOL    HW2 7247   2.746   3.978   3.890
 2413SOL     OW 7248   3.262   3.831   4.150
 2413SOL    HW1 7249   3.238   3.794   4.060
 2413SOL    HW2 7250   3.361   3.847   4.154
 2414SOL     OW 7251   2.244   4.424   4.204
 2414SOL    HW1 7252   2.289   4.334   4.201
 2414SOL    HW2 7253   2.150   4.413   4.237
 2415SOL     OW 7254   2.476   3.846   3.841
 2415SOL    HW1 7255   2.574   3.824   3.848
 2415SOL    HW2 7256   2.445   3.829   3.748
 2416SOL     OW 7257   2.401   3.788   4.236
 2416SOL    HW1 7258   2.320   3.789   4.294
 2416SOL    HW2 7259   2.404   3.871   4.181
 2417SOL     OW 7260   2.159   3.759   3.895
 2417SOL    HW1 7261   2.208   3.843   3.874
 2417SOL    HW2 7262   2.221   3.694   3.940
 2418SOL     OW 7263   2.797   3.960   4.204
 2418SOL    HW1 7264   2.749   4.001   4.126
 2418SOL    HW2 7265   2.896   3.958   4.185
 2419SOL     OW 7266   2.894   4.273   3.740
 2419SOL    HW1 7267   2.853   4.355   3.701
 2419SOL    HW2 7268   2.958   4.299   3.813
 2420SOL     OW 7269   2.728   4.178   4.366
 2420SOL    HW1 7270   2.696   4.250   4.304
 2420SOL    HW2 7271   2.752   4.097   4.313
 2421SOL     OW 7272   3.252   4.299   3.802
 2421SOL    HW1 7273   3.198   4.278   3.883
 2421SOL    HW2 7274   3.343   4.258   3.811
 2422SOL     OW 7275   2.389   3.980   4.052
 2422SOL    HW1 7276   2.416   3.921   3.977
 2422SOL    HW2 7277   2.389   4.075   4.021
 2423SOL     OW 7278   3.444   4.363   4.196
 2423SOL    HW1 7279   3.413   4.424   4.269
 2423SOL    HW2 7280   3.494   4.415   4.127
 2424SOL     OW 7281   3.071   4.249   3.999
 2424SOL    HW1 7282   3.084   4.165   4.053
 2424SOL    HW2 7283   3.042   4.323   4.059
 2425SOL     OW 7284   2.169   3.787   4.342
 2425SOL    HW1 7285   2.158   3.881   4.375
 2425SOL    HW2 7286   2.164   3.724   4.419
 2426SOL     OW 7287   3.484   4.091   4.098
 2426SOL    HW1 7288   3.486   4.015   4.162
 2426SOL    HW2 7289   3.436   4.168   4.138
 2427SOL     OW 7290   3.402   3.998   3.849
 2427SOL    HW1 7291   3.341   3.923   3.872
 2427SOL    HW2 7292   3.424   4.050   3.932
 2428SOL     OW 7293   2.677   4.296   4.049
 2428SOL    HW1 7294   2.684   4.207   4.003
 2428SOL    HW2 7295   2.583   4.330   4.041
 2429SOL     OW 7296   2.335   4.224   3.915
 2429SOL    HW1 7297   2.396   4.304   3.919
 2429SOL    HW2 7298   2.240   4.255   3.922
 2430SOL     OW 7299   3.588   3.859   4.247
 2430SOL    HW1 7300   3.661   3.842   4.180
 2430SOL    HW2 7301   3.557   3.772   4.285
 2431SOL     OW 7302   3.142   4.651   4.396
 2431SOL    HW1 7303   3.202   4.570   4.398
 2431SOL    HW2 7304   3.182   4.720   4.336
 2432SOL     OW 7305   3.703   3.899   4.687
 2432SOL    HW1 7306   3.742   3.814   4.651
 2432SOL    HW2 7307   3.605   3.901   4.668
 2433SOL     OW 7308   1.937   4.069   3.757
 2433SOL    HW1 7309   1.845   4.041   3.728
 2433SOL    HW2 7310   1.968   4.146   3.701
 2434SOL     OW 7311   1.934   3.890   4.042
 2434SOL    HW1 7312   1.917   3.973   3.988
 2434SOL    HW2 7313   2.024   3.853   4.020
 2435SOL     OW 7314   3.087   4.049   4.173
 2435SOL    HW1 7315   3.152   3.975   4.162
 2435SOL    HW2 7316   3.107   4.099   4.257
 2436SOL     OW 7317   2.945   4.708   3.811
 2436SOL    HW1 7318   2.922   4.761   3.729
 2436SOL    HW2 7319   3.026   4.652   3.792
 2437SOL     OW 7320   2.290   4.148   4.244
 2437SOL    HW1 7321   2.320   4.076   4.182
 2437SOL    HW2 7322   2.251   4.108   4.327
 2438SOL     OW 7323   3.214   3.776   3.892
 2438SOL    HW1 7324   3.249   3.735   3.808
 2438SOL    HW2 7325   3.124   3.738   3.912
 2439SOL     OW 7326   3.162   4.177   4.415
 2439SOL    HW1 7327   3.103   4.257   4.419
 2439SOL    HW2 7328   3.177   4.142   4.508
 2440SOL     OW 7329   3.954   0.628   0.113
 2440SOL    HW1 7330   3.861   0.626   0.150
 2440SOL    HW2 7331   3.955   0.589   0.021
 2441SOL     OW 7332   3.949   0.275   0.996
 2441SOL    HW1 7333   3.984   0.258   1.088
 2441SOL    HW2 7334   3.861   0.230   0.984
 2442SOL     OW 7335   3.743   0.368   0.647
 2442SOL    HW1 7336   3.661   0.411   0.686
 2442SOL    HW2 7337   3.715   0.295   0.584
 2443SOL     OW 7338   4.293   1.275   1.165
 2443SOL    HW1 7339   4.200   1.268   1.128
 2443SOL    HW2 7340   4.304   1.364   1.209
 2444SOL     OW 7341   4.574   0.798   1.823
 2444SOL    HW1 7342   4.570   0.874   1.888
 2444SOL    HW2 7343   4.596   0.834   1.732
 2445SOL     OW 7344   4.410   1.161   1.803
 2445SOL    HW1 7345   4.470   1.240   1.817
 2445SOL    HW2 7346   4.324   1.192   1.762
 2446SOL     OW 7347   4.059   1.435   1.061
 2446SOL    HW1 7348   3.981   1.404   1.008
 2446SOL    HW2 7349   4.117   1.493   1.004
 2447SOL     OW 7350   4.162   0.392   1.499
 2447SOL    HW1 7351   4.244   0.336   1.508
 2447SOL    HW2 7352   4.081   0.334   1.503
 2448SOL     OW 7353   3.955   1.713   0.483
 2448SOL    HW1 7354   3.989   1.790   0.537
 2448SOL    HW2 7355   3.999   1.713   0.393
 2449SOL     OW 7356   3.954   1.434   0.538
 2449SOL    HW1 7357   3.928   1.530   0.538
 2449SOL    HW2 7358   3.883   1.380   0.583
 2450SOL     OW 7359   3.964   1.091   0.886
 2450SOL    HW1 7360   3.978   1.007   0.938
 2450SOL    HW2 7361   3.909   1.155   0.941
 2451SOL     OW 7362   4.344   1.786   1.439
 2451SOL    HW1 7363   4.252   1.769   1.474
 2451SOL    HW2 7364   4.372   1.878   1.465
 2452SOL     OW 7365   4.330   0.964   0.123
 2452SOL    HW1 7366   4.337   1.048   0.069
 2452SOL    HW2 7367   4.376   0.977   0.211
 2453SOL     OW 7368   3.846   0.643   0.563
 2453SOL    HW1 7369   3.801   0.555   0.580
 2453SOL    HW2 7370   3.845   0.697   0.647
 2454SOL     OW 7371   3.751   1.596   0.117
 2454SOL    HW1 7372   3.732   1.500   0.138
 2454SOL    HW2 7373   3.718   1.654   0.192
 2455SOL     OW 7374   3.837   0.737   1.597
 2455SOL    HW1 7375   3.925   0.724   1.642
 2455SOL    HW2 7376   3.824   0.834   1.575
 2456SOL     OW 7377   4.337   1.365   0.726
 2456SOL    HW1 7378   4.288   1.278   0.735
 2456SOL    HW2 7379   4.314   1.408   0.639
 2457SOL     OW 7380   3.921   0.976   1.264
 2457SOL    HW1 7381   4.010   0.931   1.250
 2457SOL    HW2 7382   3.848   0.911   1.245
 2458SOL     OW 7383   4.041   0.251   1.801
 2458SOL    HW1 7384   4.112   0.322   1.807
 2458SOL    HW2 7385   3.953   0.290   1.829
 2459SOL     OW 7386   4.322   0.729   0.270
 2459SOL    HW1 7387   4.346   0.798   0.202
 2459SOL    HW2 7388   4.244   0.762   0.324
 2460SOL     OW 7389   3.800   0.811   0.789
 2460SOL    HW1 7390   3.899   0.799   0.798
 2460SOL    HW2 7391   3.776   0.906   0.810
 2461SOL     OW 7392   3.854   1.821   1.571
 2461SOL    HW1 7393   3.844   1.806   1.670
 2461SOL    HW2 7394   3.768   1.857   1.535
 2462SOL     OW 7395   4.274   0.196   0.885
 2462SOL    HW1 7396   4.269   0.191   0.985
 2462SOL    HW2 7397   4.276   0.292   0.856
 2463SOL     OW 7398   4.075   1.801   0.853
 2463SOL    HW1 7399   4.125   1.715   0.859
 2463SOL    HW2 7400   4.140   1.878   0.850
 2464SOL     OW 7401   4.045   0.943   0.242
 2464SOL    HW1 7402   4.127   0.982   0.200
 2464SOL    HW2 7403   4.018   0.861   0.193
 2465SOL     OW 7404   4.185   1.266   1.727
 2465SOL    HW1 7405   4.135   1.267   1.641
 2465SOL    HW2 7406   4.122   1.248   1.803
 2466SOL     OW 7407   3.926   0.285   1.498
 2466SOL    HW1 7408   3.846   0.345   1.485
 2466SOL    HW2 7409   3.916   0.236   1.584
 2467SOL     OW 7410   4.188   1.743   0.323
 2467SOL    HW1 7411   4.221   1.782   0.409
 2467SOL    HW2 7412   4.264   1.736   0.258
 2468SOL     OW 7413   3.973   1.785   1.241
 2468SOL    HW1 7414   4.030   1.720   1.291
 2468SOL    HW2 7415   3.957   1.752   1.148
 2469SOL     OW 7416   4.106   0.700   0.480
 2469SOL    HW1 7417   4.151   0.610   0.477
 2469SOL    HW2 7418   4.012   0.689   0.513
 2470SOL     OW 7419   4.527   1.402   0.924
 2470SOL    HW1 7420   4.617   1.416   0.882
 2470SOL    HW2 7421   4.456   1.404   0.853
 2471SOL     OW 7422   4.263   0.064   0.512
 2471SOL    HW1 7423   4.182   0.065   0.570
 2471SOL    HW2 7424   4.266   0.147   0.457
 2472SOL     OW 7425   4.021   0.035   0.171
 2472SOL    HW1 7426   4.070   0.119   0.150
 2472SOL    HW2 7427   4.083  -0.030   0.216
 2473SOL     OW 7428   4.183   1.152   0.741
 2473SOL    HW1 7429   4.112   1.125   0.806
 2473SOL    HW2 7430   4.157   1.124   0.648
 2474SOL     OW 7431   3.802   0.556   1.386
 2474SOL    HW1 7432   3.894   0.555   1.345
 2474SOL    HW2 7433   3.796   0.630   1.453
 2475SOL     OW 7434   4.285   0.222   1.147
 2475SOL    HW1 7435   4.323   0.138   1.184
 2475SOL    HW2 7436   4.197   0.241   1.191
 2476SOL     OW 7437   4.212   1.385   0.174
 2476SOL    HW1 7438   4.125   1.370   0.221
 2476SOL    HW2 7439   4.195   1.411   0.079
 2477SOL     OW 7440   4.251   0.256   0.328
 2477SOL    HW1 7441   4.278   0.197   0.253
 2477SOL    HW2 7442   4.251   0.351   0.297
 2478SOL     OW 7443   4.134   0.813   1.251
 2478SOL    HW1 7444   4.220   0.825   1.301
 2478SOL    HW2 7445   4.092   0.726   1.278
 2479SOL     OW 7446   3.788   1.564   1.331
 2479SOL    HW1 7447   3.742   1.646   1.297
 2479SOL    HW2 7448   3.886   1.583   1.340
 2480SOL     OW 7449   4.091   1.100   0.501
 2480SOL    HW1 7450   4.084   1.183   0.445
 2480SOL    HW2 7451   4.095   1.020   0.441
 2481SOL     OW 7452   4.290   0.537   0.865
 2481SOL    HW1 7453   4.302   0.603   0.791
 2481SOL    HW2 7454   4.336   0.571   0.948
 2482SOL     OW 7455   4.078   1.510   1.329
 2482SOL    HW1 7456   4.057   1.466   1.242
 2482SOL    HW2 7457   4.175   1.536   1.332
 2483SOL     OW 7458   4.126   0.751   1.598
 2483SOL    HW1 7459   4.194   0.806   1.551
 2483SOL    HW2 7460   4.166   0.663   1.625
 2484SOL     OW 7461   4.228   0.050   1.740
 2484SOL    HW1 7462   4.186  -0.007   1.670
 2484SOL    HW2 7463   4.162   0.119   1.772
 2485SOL     OW 7464   4.297   0.870   1.029
 2485SOL    HW1 7465   4.341   0.959   1.020
 2485SOL    HW2 7466   4.234   0.870   1.106
 2486SOL     OW 7467   4.031   0.213   1.231
 2486SOL    HW1 7468   4.008   0.250   1.321
 2486SOL    HW2 7469   4.001   0.118   1.225
 2487SOL     OW 7470   3.761   1.310   1.282
 2487SOL    HW1 7471   3.814   1.261   1.350
 2487SOL    HW2 7472   3.783   1.408   1.287
 2488SOL     OW 7473   4.031   0.063   0.618
 2488SOL    HW1 7474   4.020   0.157   0.651
 2488SOL    HW2 7475   4.026   0.000   0.695
 2489SOL     OW 7476   4.074   0.898   1.804
 2489SOL    HW1 7477   4.150   0.942   1.852
 2489SOL    HW2 7478   4.109   0.851   1.722
 2490SOL     OW 7479   4.043   0.810   0.949
 2490SOL    HW1 7480   4.136   0.846   0.954
 2490SOL    HW2 7481   4.037   0.725   1.001
 2491SOL     OW 7482   4.063   0.509   1.006
 2491SOL    HW1 7483   4.011   0.426   0.989
 2491SOL    HW2 7484   4.140   0.514   0.942
 2492SOL     OW 7485   3.732   1.326   0.200
 2492SOL    HW1 7486   3.639   1.347   0.169
 2492SOL    HW2 7487   3.742   1.227   0.213
 2493SOL     OW 7488   3.812   1.801   0.927
 2493SOL    HW1 7489   3.770   1.715   0.900
 2493SOL    HW2 7490   3.906   1.804   0.893
 2494SOL     OW 7491   4.228   1.568   0.910
 2494SOL    HW1 7492   4.294   1.642   0.919
 2494SOL    HW2 7493   4.272   1.489   0.868
 2495SOL     OW 7494   3.764   0.544   1.114
 2495SOL    HW1 7495   3.849   0.511   1.073
 2495SOL    HW2 7496   3.777   0.559   1.212
 2496SOL     OW 7497   3.913   0.520   1.722
 2496SOL    HW1 7498   3.972   0.480   1.652
 2496SOL    HW2 7499   3.855   0.591   1.681
 2497SOL     OW 7500   4.539   0.572   0.325
 2497SOL    HW1 7501   4.546   0.483   0.279
 2497SOL    HW2 7502   4.445   0.606   0.317
 2498SOL     OW 7503   3.976   1.564   1.744
 2498SOL    HW1 7504   3.946   1.621   1.820
 2498SOL    HW2 7505   3.969   1.467   1.770
 2499SOL     OW 7506   4.197   0.500   0.191
 2499SOL    HW1 7507   4.258   0.580   0.195
 2499SOL    HW2 7508   4.102   0.531   0.198
 2500SOL     OW 7509   3.883   1.137   1.466
 2500SOL    HW1 7510   3.905   1.076   1.542
 2500SOL    HW2 7511   3.893   1.088   1.380
 2501SOL     OW 7512   3.807   1.258   1.022
 2501SOL    HW1 7513   3.802   1.257   1.122
 2501SOL    HW2 7514   3.724   1.217   0.984
 2502SOL     OW 7515   4.412   1.662   1.716
 2502SOL    HW1 7516   4.356   1.743   1.725
 2502SOL    HW2 7517   4.464   1.666   1.630
 2503SOL     OW 7518   3.854   1.794   1.851
 2503SOL    HW1 7519   3.813   1.720   1.904
 2503SOL    HW2 7520   3.918   1.845   1.909
 2504SOL     OW 7521   3.987   0.326   0.720
 2504SOL    HW1 7522   3.908   0.377   0.686
 2504SOL    HW2 7523   3.978   0.311   0.818
 2505SOL     OW 7524   4.096   1.288   1.490
 2505SOL    HW1 7525   4.083   1.381   1.456
 2505SOL    HW2 7526   4.012   1.236   1.477
 2506SOL     OW 7527   4.314   1.487   0.491
 2506SOL    HW1 7528   4.356   1.429   0.421
 2506SOL    HW2 7529   4.270   1.566   0.447
 2507SOL     OW 7530   3.979   1.348   0.290
 2507SOL    HW1 7531   3.883   1.349   0.263
 2507SOL    HW2 7532   3.991   1.401   0.374
 2508SOL     OW 7533   3.829   1.013   1.726
 2508SOL    HW1 7534   3.752   0.980   1.780
 2508SOL    HW2 7535   3.914   0.983   1.768
 2509SOL     OW 7536   4.396   0.203   1.489
 2509SOL    HW1 7537   4.486   0.187   1.449
 2509SOL    HW2 7538   4.404   0.208   1.588
 2510SOL     OW 7539   3.799   0.345   0.033
 2510SOL    HW1 7540   3.707   0.317   0.004
 2510SOL    HW2 7541   3.830   0.422  -0.023
 2511SOL     OW 7542   4.337   0.842   1.431
 2511SOL    HW1 7543   4.393   0.923   1.414
 2511SOL    HW2 7544   4.396   0.762   1.434
 2512SOL     OW 7545   4.440   0.565   1.708
 2512SOL    HW1 7546   4.459   0.630   1.782
 2512SOL    HW2 7547   4.500   0.485   1.717
 2513SOL     OW 7548   4.114   1.741   1.560
 2513SOL    HW1 7549   4.023   1.782   1.558
 2513SOL    HW2 7550   4.107   1.647   1.592
 2514SOL     OW 7551   4.318   0.745   0.652
 2514SOL    HW1 7552   4.368   0.830   0.633
 2514SOL    HW2 7553   4.230   0.747   0.604
 2515SOL     OW 7554   3.945   1.314   1.844
 2515SOL    HW1 7555   3.880   1.241   1.823
 2515SOL    HW2 7556   3.949   1.328   1.942
 2516SOL     OW 7557   3.803   1.240   0.653
 2516SOL    HW1 7558   3.802   1.193   0.741
 2516SOL    HW2 7559   3.885   1.212   0.602
 2517SOL     OW 7560   4.396   1.391   1.624
 2517SOL    HW1 7561   4.318   1.341   1.662
 2517SOL    HW2 7562   4.393   1.486   1.655
 2518SOL     OW 7563   4.152   0.424   0.520
 2518SOL    HW1 7564   4.182   0.352   0.458
 2518SOL    HW2 7565   4.113   0.384   0.603
 2519SOL     OW 7566   4.041   0.547   1.280
 2519SOL    HW1 7567   4.079   0.488   1.352
 2519SOL    HW2 7568   4.081   0.521   1.192
 2520SOL     OW 7569   4.536   1.586   0.687
 2520SOL    HW1 7570   4.568   1.596   0.593
 2520SOL    HW2 7571   4.457   1.524   0.689
 2521SOL     OW 7572   3.763   1.077   0.300
 2521SOL    HW1 7573   3.862   1.066   0.291
 2521SOL    HW2 7574   3.723   0.991   0.332
 2522SOL     OW 7575   3.954   0.628   1.975
 2522SOL    HW1 7576   3.861   0.626   2.012
 2522SOL    HW2 7577   3.955   0.589   1.883
 2523SOL     OW 7578   3.949   0.275   2.858
 2523SOL    HW1 7579   3.984   0.258   2.950
 2523SOL    HW2 7580   3.861   0.230   2.846
 2524SOL     OW 7581   3.743   0.368   2.509
 2524SOL    HW1 7582   3.661   0.411   2.548
 2524SOL    HW2 7583   3.715   0.295   2.446
 2525SOL     OW 7584   4.293   1.275   3.027
 2525SOL    HW1 7585   4.200   1.268   2.990
 2525SOL    HW2 7586   4.304   1.364   3.071
 2526SOL     OW 7587   4.574   0.798   3.685
 2526SOL    HW1 7588   4.570   0.874   3.750
 2526SOL    HW2 7589   4.596   0.834   3.594
 2527SOL     OW 7590   4.410   1.161   3.665
 2527SOL    HW1 7591   4.470   1.240   3.679
 2527SOL    HW2 7592   4.324   1.192   3.624
 2528SOL     OW 7593   4.059   1.435   2.923
 2528SOL    HW1 7594   3.981   1.404   2.870
 2528SOL    HW2 7595   4.117   1.493   2.866
 2529SOL     OW 7596   4.162   0.392   3.361
 2529SOL    HW1 7597   4.244   0.336   3.370
 2529SOL    HW2 7598   4.081   0.334   3.365
 2530SOL     OW 7599   3.955   1.713   2.345
 2530SOL    HW1 7600   3.989   1.790   2.399
 2530SOL    HW2 7601   3.999   1.713   2.255
 2531SOL     OW 7602   3.954   1.434   2.400
 2531SOL    HW1 7603   3.928   1.530   2.400
 2531SOL    HW2 7604   3.883   1.380   2.445
 2532SOL     OW 7605   3.964   1.091   2.748
 2532SOL    HW1 7606   3.978   1.007   2.800
 2532SOL    HW2 7607   3.909   1.155   2.803
 2533SOL     OW 7608   4.344   1.786   3.301
 2533SOL    HW1 7609   4.252   1.769   3.336
 2533SOL    HW2 7610   4.372   1.878   3.327
 2534SOL     OW 7611   4.330   0.964   1.985
 2534SOL    HW1 7612   4.337   1.048   1.931
 2534SOL    HW2 7613   4.376   0.977   2.073
 2535SOL     OW 7614   3.846   0.643   2.425
 2535SOL    HW1 7615   3.801   0.555   2.442
 2535SOL    HW2 7616   3.845   0.697   2.509
 2536SOL     OW 7617   3.751   1.596   1.979
 2536SOL    HW1 7618   3.732   1.500   2.000
 2536SOL    HW2 7619   3.718   1.654   2.054
 2537SOL     OW 7620   3.837   0.737   3.459
 2537SOL    HW1 7621   3.925   0.724   3.504
 2537SOL    HW2 7622   3.824   0.834   3.437
 2538SOL     OW 7623   4.337   1.365   2.588
 2538SOL    HW1 7624   4.288   1.278   2.597
 2538SOL    HW2 7625   4.314   1.408   2.501
 2539SOL     OW 7626   3.921   0.976   3.126
 2539SOL    HW1 7627   4.010   0.931   3.112
 2539SOL    HW2 7628   3.848   0.911   3.107
 2540SOL     OW 7629   4.041   0.251   3.663
 2540SOL    HW1 7630   4.112   0.322   3.669
 2540SOL    HW2 7631   3.953   0.290   3.691
 2541SOL     OW 7632   4.322   0.729   2.132
 2541SOL    HW1 7633   4.346   0.798   2.064
 2541SOL    HW2 7634   4.244   0.762   2.186
 2542SOL     OW 7635   3.800   0.811   2.651
 2542SOL    HW1 7636   3.899   0.799   2.660
 2542SOL    HW2 7637   3.776   0.906   2.672
 2543SOL     OW 7638   3.854   1.821   3.433
 2543SOL    HW1 7639   3.844   1.806   3.532
 2543SOL    HW2 7640   3.768   1.857   3.397
 2544SOL     OW 7641   4.274   0.196   2.747
 2544SOL    HW1 7642   4.269   0.191   2.847
 2544SOL    HW2 7643   4.276   0.292   2.718
 2545SOL     OW 7644   4.075   1.801   2.715
 2545SOL    HW1 7645   4.125   1.715   2.721
 2545SOL    HW2 7646   4.140   1.878   2.712
 2546SOL     OW 7647   4.045   0.943   2.104
 2546SOL    HW1 7648   4.127   0.982   2.062
 2546SOL    HW2 7649   4.018   0.861   2.055
 2547SOL     OW 7650   4.185   1.266   3.589
 2547SOL    HW1 7651   4.135   1.267   3.503
 2547SOL    HW2 7652   4.122   1.248   3.665
 2548SOL     OW 7653   3.926   0.285   3.360
 2548SOL    HW1 7654   3.846   0.345   3.347
 2548SOL    HW2 7655   3.916   0.236   3.446
 2549SOL     OW 7656   4.188   1.743   2.185
 2549SOL    HW1 7657   4.221   1.782   2.271
 2549SOL    HW2 7658   4.264   1.736   2.120
 2550SOL     OW 7659   3.973   1.785   3.103
 2550SOL    HW1 7660   4.030   1.720   3.153
 2550SOL    HW2 7661   3.957   1.752   3.010
 2551SOL     OW 7662   4.106   0.700   2.342
 2551SOL    HW1 7663   4.151   0.610   2.339
 2551SOL    HW2 7664   4.012   0.689   2.375
 2552SOL     OW 7665   4.338   0.122   1.979
 2552SOL    HW1 7666   4.436   0.100   1.986
 2552SOL    HW2 7667   4.307   0.105   1.886
 2553SOL     OW 7668   4.527   1.402   2.786
 2553SOL    HW1 7669   4.617   1.416   2.744
 2553SOL    HW2 7670   4.456   1.404   2.715
 2554SOL     OW 7671   4.263   0.064   2.374
 2554SOL    HW1 7672   4.182   0.065   2.432
 2554SOL    HW2 7673   4.266   0.147   2.319
 2555SOL     OW 7674   4.021   0.035   2.033
 2555SOL    HW1 7675   4.070   0.119   2.012
 2555SOL    HW2 7676   4.083  -0.030   2.078
 2556SOL     OW 7677   4.183   1.152   2.603
 2556SOL    HW1 7678   4.112   1.125   2.668
 2556SOL    HW2 7679   4.157   1.124   2.510
 2557SOL     OW 7680   3.802   0.556   3.248
 2557SOL    HW1 7681   3.894   0.555   3.207
 2557SOL    HW2 7682   3.796   0.630   3.315
 2558SOL     OW 7683   4.285   0.222   3.009
 2558SOL    HW1 7684   4.323   0.138   3.046
 2558SOL    HW2 7685   4.197   0.241   3.053
 2559SOL     OW 7686   4.212   1.385   2.036
 2559SOL    HW1 7687   4.125   1.370   2.083
 2559SOL    HW2 7688   4.195   1.411   1.941
 2560SOL     OW 7689   4.251   0.256   2.190
 2560SOL    HW1 7690   4.278   0.197   2.115
 2560SOL    HW2 7691   4.251   0.351   2.159
 2561SOL     OW 7692   4.134   0.813   3.113
 2561SOL    HW1 7693   4.220   0.825   3.163
 2561SOL    HW2 7694   4.092   0.726   3.140
 2562SOL     OW 7695   3.788   1.564   3.193
 2562SOL    HW1 7696   3.742   1.646   3.159
 2562SOL    HW2 7697   3.886   1.583   3.202
 2563SOL     OW 7698   4.091   1.100   2.363
 2563SOL    HW1 7699   4.084   1.183   2.307
 2563SOL    HW2 7700   4.095   1.020   2.303
 2564SOL     OW 7701   4.290   0.537   2.727
 2564SOL    HW1 7702   4.302   0.603   2.653
 2564SOL    HW2 7703   4.336   0.571   2.810
 2565SOL     OW 7704   4.078   1.510   3.191
 2565SOL    HW1 7705   4.057   1.466   3.104
 2565SOL    HW2 7706   4.175   1.536   3.194
 2566SOL     OW 7707   4.126   0.751   3.460
 2566SOL    HW1 7708   4.194   0.806   3.413
 2566SOL    HW2 7709   4.166   0.663   3.487
 2567SOL     OW 7710   4.228   0.050   3.602
 2567SOL    HW1 7711   4.186  -0.007   3.532
 2567SOL    HW2 7712   4.162   0.119   3.634
 2568SOL     OW 7713   4.297   0.870   2.891
 2568SOL    HW1 7714   4.341   0.959   2.882
 2568SOL    HW2 7715   4.234   0.870   2.968
 2569SOL     OW 7716   4.031   0.213   3.093
 2569SOL    HW1 7717   4.008   0.250   3.183
 2569SOL    HW2 7718   4.001   0.118   3.087
 2570SOL     OW 7719   3.761   1.310   3.144
 2570SOL    HW1 7720   3.814   1.261   3.212
 2570SOL    HW2 7721   3.783   1.408   3.149
 2571SOL     OW 7722   4.031   0.063   2.480
 2571SOL    HW1 7723   4.020   0.157   2.513
 2571SOL    HW2 7724   4.026   0.000   2.557
 2572SOL     OW 7725   4.074   0.898   3.666
 2572SOL    HW1 7726   4.150   0.942   3.714
 2572SOL    HW2 7727   4.109   0.851   3.584
 2573SOL     OW 7728   4.043   0.810   2.811
 2573SOL    HW1 7729   4.136   0.846   2.816
 2573SOL    HW2 7730   4.037   0.725   2.863
 2574SOL     OW 7731   4.063   0.509   2.868
 2574SOL    HW1 7732   4.011   0.426   2.851
 2574SOL    HW2 7733   4.140   0.514   2.804
 2575SOL     OW 7734   3.732   1.326   2.062
 2575SOL    HW1 7735   3.639   1.347   2.031
 2575SOL    HW2 7736   3.742   1.227   2.075
 2576SOL     OW 7737   3.812   1.801   2.789
 2576SOL    HW1 7738   3.770   1.715   2.762
 2576SOL    HW2 7739   3.906   1.804   2.755
 2577SOL     OW 7740   4.228   1.568   2.772
 2577SOL    HW1 7741   4.294   1.642   2.781
 2577SOL    HW2 7742   4.272   1.489   2.730
 2578SOL     OW 7743   3.764   0.544   2.976
 2578SOL    HW1 7744   3.849   0.511   2.935
 2578SOL    HW2 7745   3.777   0.559   3.074
 2579SOL     OW 7746   3.913   0.520   3.584
 2579SOL    HW1 7747   3.972   0.480   3.514
 2579SOL    HW2 7748   3.855   0.591   3.543
 2580SOL     OW 7749   4.539   0.572   2.187
 2580SOL    HW1 7750   4.546   0.483   2.141
 2580SOL    HW2 7751   4.445   0.606   2.179
 2581SOL     OW 7752   3.976   1.564   3.606
 2581SOL    HW1 7753   3.946   1.621   3.682
 2581SOL    HW2 7754   3.969   1.467   3.632
 2582SOL     OW 7755   4.197   0.500   2.053
 2582SOL    HW1 7756   4.258   0.580   2.057
 2582SOL    HW2 7757   4.102   0.531   2.060
 2583SOL     OW 7758   3.883   1.137   3.328
 2583SOL    HW1 7759   3.905   1.076   3.404
 2583SOL    HW2 7760   3.893   1.088   3.242
 2584SOL     OW 7761   3.807   1.258   2.884
 2584SOL    HW1 7762   3.802   1.257   2.984
 2584SOL    HW2 7763   3.724   1.217   2.846
 2585SOL     OW 7764   4.412   1.662   3.578
 2585SOL    HW1 7765   4.356   1.743   3.587
 2585SOL    HW2 7766   4.464   1.666   3.492
 2586SOL     OW 7767   3.854   1.794   3.713
 2586SOL    HW1 7768   3.813   1.720   3.766
 2586SOL    HW2 7769   3.918   1.845   3.771
 2587SOL     OW 7770   3.987   0.326   2.582
 2587SOL    HW1 7771   3.908   0.377   2.548
 2587SOL    HW2 7772   3.978   0.311   2.680
 2588SOL     OW 7773   4.096   1.288   3.352
 2588SOL    HW1 7774   4.083   1.381   3.318
 2588SOL    HW2 7775   4.012   1.236   3.339
 2589SOL     OW 7776   4.314   1.487   2.353
 2589SOL    HW1 7777   4.356   1.429   2.283
 2589SOL    HW2 7778   4.270   1.566   2.309
 2590SOL     OW 7779   3.979   1.348   2.152
 2590SOL    HW1 7780   3.883   1.349   2.125
 2590SOL    HW2 7781   3.991   1.401   2.236
 2591SOL     OW 7782   3.829   1.013   3.588
 2591SOL    HW1 7783   3.752   0.980   3.642
 2591SOL    HW2 7784   3.914   0.983   3.630
 2592SOL     OW 7785   4.396   0.203   3.351
 2592SOL    HW1 7786   4.486   0.187   3.311
 2592SOL    HW2 7787   4.404   0.208   3.450
 2593SOL     OW 7788   3.799   0.345   1.895
 2593SOL    HW1 7789   3.707   0.317   1.866
 2593SOL    HW2 7790   3.830   0.422   1.839
 2594SOL     OW 7791   3.796   0.166   2.180
 2594SOL    HW1 7792   3.779   0.249   2.126
 2594SOL    HW2 7793   3.886   0.129   2.158
 2595SOL     OW 7794   4.337   0.842   3.293
 2595SOL    HW1 7795   4.393   0.923   3.276
 2595SOL    HW2 7796   4.396   0.762   3.296
 2596SOL     OW 7797   4.440   0.565   3.570
 2596SOL    HW1 7798   4.459   0.630   3.644
 2596SOL    HW2 7799   4.500   0.485   3.579
 2597SOL     OW 7800   4.114   1.741   3.422
 2597SOL    HW1 7801   4.023   1.782   3.420
 2597SOL    HW2 7802   4.107   1.647   3.454
 2598SOL     OW 7803   4.318   0.745   2.514
 2598SOL    HW1 7804   4.368   0.830   2.495
 2598SOL    HW2 7805   4.230   0.747   2.466
 2599SOL     OW 7806   3.945   1.314   3.706
 2599SOL    HW1 7807   3.880   1.241   3.685
 2599SOL    HW2 7808   3.949   1.328   3.804
 2600SOL     OW 7809   3.803   1.240   2.515
 2600SOL    HW1 7810   3.802   1.193   2.603
 2600SOL    HW2 7811   3.885   1.212   2.464
 2601SOL     OW 7812   4.396   1.391   3.486
 2601SOL    HW1 7813   4.318   1.341   3.524
 2601SOL    HW2 7814   4.393   1.486   3.517
 2602SOL     OW 7815   4.152   0.424   2.382
 2602SOL    HW1 7816   4.182   0.352   2.320
 2602SOL    HW2 7817   4.113   0.384   2.465
 2603SOL     OW 7818   4.041   0.547   3.142
 2603SOL    HW1 7819   4.079   0.488   3.214
 2603SOL    HW2 7820   4.081   0.521   3.054
 2604SOL     OW 7821   4.536   1.586   2.549
 2604SOL    HW1 7822   4.568   1.596   2.455
 2604SOL    HW2 7823   4.457   1.524   2.551
 2605SOL     OW 7824   3.763   1.077   2.162
 2605SOL    HW1 7825   3.862   1.066   2.153
 2605SOL    HW2 7826   3.723   0.991   2.194
 2606SOL     OW 7827   3.954   0.628   3.837
 2606SOL    HW1 7828   3.861   0.626   3.874
 2606SOL    HW2 7829   3.955   0.589   3.745
 2607SOL     OW 7830   3.949   0.275   4.720
 2607SOL    HW1 7831   3.984   0.258   4.812
 2607SOL    HW2 7832   3.861   0.230   4.708
 2608SOL     OW 7833   3.955   1.713   4.207
 2608SOL    HW1 7834   3.989   1.790   4.261
 2608SOL    HW2 7835   3.999   1.713   4.117
 2609SOL     OW 7836   3.954   1.434   4.262
 2609SOL    HW1 7837   3.928   1.530   4.262
 2609SOL    HW2 7838   3.883   1.380   4.307
 2610SOL     OW 7839   4.330   0.964   3.847
 2610SOL    HW1 7840   4.337   1.048   3.793
 2610SOL    HW2 7841   4.376   0.977   3.935
 2611SOL     OW 7842   3.846   0.643   4.287
 2611SOL    HW1 7843   3.801   0.555   4.304
 2611SOL    HW2 7844   3.845   0.697   4.371
 2612SOL     OW 7845   3.751   1.596   3.841
 2612SOL    HW1 7846   3.732   1.500   3.862
 2612SOL    HW2 7847   3.718   1.654   3.916
 2613SOL     OW 7848   4.337   1.365   4.450
 2613SOL    HW1 7849   4.288   1.278   4.459
 2613SOL    HW2 7850   4.314   1.408   4.363
 2614SOL     OW 7851   4.322   0.729   3.994
 2614SOL    HW1 7852   4.346   0.798   3.926
 2614SOL    HW2 7853   4.244   0.762   4.048
 2615SOL     OW 7854   3.800   0.811   4.513
 2615SOL    HW1 7855   3.899   0.799   4.522
 2615SOL    HW2 7856   3.776   0.906   4.534
 2616SOL     OW 7857   4.075   1.801   4.577
 2616SOL    HW1 7858   4.125   1.715   4.583
 2616SOL    HW2 7859   4.140   1.878   4.574
 2617SOL     OW 7860   4.045   0.943   3.966
 2617SOL    HW1 7861   4.127   0.982   3.924
 2617SOL    HW2 7862   4.018   0.861   3.917
 2618SOL     OW 7863   4.188   1.743   4.047
 2618SOL    HW1 7864   4.221   1.782   4.133
 2618SOL    HW2 7865   4.264   1.736   3.982
 2619SOL     OW 7866   4.106   0.700   4.204
 2619SOL    HW1 7867   4.151   0.610   4.201
 2619SOL    HW2 7868   4.012   0.689   4.237
 2620SOL     OW 7869   4.338   0.122   3.841
 2620SOL    HW1 7870   4.436   0.100   3.848
 2620SOL    HW2 7871   4.307   0.105   3.748
 2621SOL     OW 7872   4.263   0.064   4.236
 2621SOL    HW1 7873   4.182   0.065   4.294
 2621SOL    HW2 7874   4.266   0.147   4.181
 2622SOL     OW 7875   4.021   0.035   3.895
 2622SOL    HW1 7876   4.070   0.119   3.874
 2622SOL    HW2 7877   4.083  -0.030   3.940
 2623SOL     OW 7878   4.183   1.152   4.465
 2623SOL    HW1 7879   4.112   1.125   4.530
 2623SOL    HW2 7880   4.157   1.124   4.372
 2624SOL     OW 7881   4.212   1.385   3.898
 2624SOL    HW1 7882   4.125   1.370   3.945
 2624SOL    HW2 7883   4.195   1.411   3.803
 2625SOL     OW 7884   4.251   0.256   4.052
 2625SOL    HW1 7885   4.278   0.197   3.977
 2625SOL    HW2 7886   4.251   0.351   4.021
 2626SOL     OW 7887   4.091   1.100   4.225
 2626SOL    HW1 7888   4.084   1.183   4.169
 2626SOL    HW2 7889   4.095   1.020   4.165
 2627SOL     OW 7890   4.031   0.063   4.342
 2627SOL    HW1 7891   4.020   0.157   4.375
 2627SOL    HW2 7892   4.026   0.000   4.419
 2628SOL     OW 7893   3.732   1.326   3.924
 2628SOL    HW1 7894   3.639   1.347   3.893
 2628SOL    HW2 7895   3.742   1.227   3.937
 2629SOL     OW 7896   4.539   0.572   4.049
 2629SOL    HW1 7897   4.546   0.483   4.003
 2629SOL    HW2 7898   4.445   0.606   4.041
 2630SOL     OW 7899   4.197   0.500   3.915
 2630SOL    HW1 7900   4.258   0.580   3.919
 2630SOL    HW2 7901   4.102   0.531   3.922
 2631SOL     OW 7902   4.314   1.487   4.215
 2631SOL    HW1 7903   4.356   1.429   4.145
 2631SOL    HW2 7904   4.270   1.566   4.171
 2632SOL     OW 7905   3.979   1.348   4.014
 2632SOL    HW1 7906   3.883   1.349   3.987
 2632SOL    HW2 7907   3.991   1.401   4.098
 2633SOL     OW 7908   3.799   0.345   3.757
 2633SOL    HW1 7909   3.707   0.317   3.728
 2633SOL    HW2 7910   3.830   0.422   3.701
 2634SOL     OW 7911   3.796   0.166   4.042
 2634SOL    HW1 7912   3.779   0.249   3.988
 2634SOL    HW2 7913   3.886   0.129   4.020
 2635SOL     OW 7914   4.318   0.745   4.376
 2635SOL    HW1 7915   4.368   0.830   4.357
 2635SOL    HW2 7916   4.230   0.747   4.328
 2636SOL     OW 7917   3.803   1.240   4.377
 2636SOL    HW1 7918   3.802   1.193   4.465
 2636SOL    HW2 7919   3.885   1.212   4.326
 2637SOL     OW 7920   4.152   0.424   4.244
 2637SOL    HW1 7921   4.182   0.352   4.182
 2637SOL    HW2 7922   4.113   0.384   4.327
 2638SOL     OW 7923   4.536   1.586   4.411
 2638SOL    HW1 7924   4.568   1.596   4.317
 2638SOL    HW2 7925   4.457   1.524   4.413
 2639SOL     OW 7926   3.763   1.077   4.024
 2639SOL    HW1 7927   3.862   1.066   4.015
 2639SOL    HW2 7928   3.723   0.991   4.056
 2640SOL     OW 7929   3.954   2.490   0.113
 2640SOL    HW1 7930   3.861   2.488   0.150
 2640SOL    HW2 7931   3.955   2.451   0.021
 2641SOL     OW 7932   3.949   2.137   0.996
 2641SOL    HW1 7933   3.984   2.120   1.088
 2641SOL    HW2 7934   3.861   2.092   0.984
 2642SOL     OW 7935   3.743   2.230   0.647
 2642SOL    HW1 7936   3.661   2.273   0.686
 2642SOL    HW2 7937   3.715   2.157   0.584
 2643SOL     OW 7938   4.293   3.137   1.165
 2643SOL    HW1 7939   4.200   3.130   1.128
 2643SOL    HW2 7940   4.304   3.226   1.209
 2644SOL     OW 7941   4.574   2.660   1.823
 2644SOL    HW1 7942   4.570   2.736   1.888
 2644SOL    HW2 7943   4.596   2.696   1.732
 2645SOL     OW 7944   4.410   3.023   1.803
 2645SOL    HW1 7945   4.470   3.102   1.817
 2645SOL    HW2 7946   4.324   3.054   1.762
 2646SOL     OW 7947   4.059   3.297   1.061
 2646SOL    HW1 7948   3.981   3.266   1.008
 2646SOL    HW2 7949   4.117   3.355   1.004
 2647SOL     OW 7950   4.162   2.254   1.499
 2647SOL    HW1 7951   4.244   2.198   1.508
 2647SOL    HW2 7952   4.081   2.196   1.503
 2648SOL     OW 7953   3.955   3.575   0.483
 2648SOL    HW1 7954   3.989   3.652   0.537
 2648SOL    HW2 7955   3.999   3.575   0.393
 2649SOL     OW 7956   3.954   3.296   0.538
 2649SOL    HW1 7957   3.928   3.392   0.538
 2649SOL    HW2 7958   3.883   3.242   0.583
 2650SOL     OW 7959   3.964   2.953   0.886
 2650SOL    HW1 7960   3.978   2.869   0.938
 2650SOL    HW2 7961   3.909   3.017   0.941
 2651SOL     OW 7962   4.344   3.648   1.439
 2651SOL    HW1 7963   4.252   3.631   1.474
 2651SOL    HW2 7964   4.372   3.740   1.465
 2652SOL     OW 7965   4.330   2.826   0.123
 2652SOL    HW1 7966   4.337   2.910   0.069
 2652SOL    HW2 7967   4.376   2.839   0.211
 2653SOL     OW 7968   3.846   2.505   0.563
 2653SOL    HW1 7969   3.801   2.417   0.580
 2653SOL    HW2 7970   3.845   2.559   0.647
 2654SOL     OW 7971   3.751   3.458   0.117
 2654SOL    HW1 7972   3.732   3.362   0.138
 2654SOL    HW2 7973   3.718   3.516   0.192
 2655SOL     OW 7974   3.837   2.599   1.597
 2655SOL    HW1 7975   3.925   2.586   1.642
 2655SOL    HW2 7976   3.824   2.696   1.575
 2656SOL     OW 7977   4.337   3.227   0.726
 2656SOL    HW1 7978   4.288   3.140   0.735
 2656SOL    HW2 7979   4.314   3.270   0.639
 2657SOL     OW 7980   4.533   1.866   0.502
 2657SOL    HW1 7981   4.573   1.957   0.493
 2657SOL    HW2 7982   4.433   1.874   0.508
 2658SOL     OW 7983   3.921   2.838   1.264
 2658SOL    HW1 7984   4.010   2.793   1.250
 2658SOL    HW2 7985   3.848   2.773   1.245
 2659SOL     OW 7986   4.041   2.113   1.801
 2659SOL    HW1 7987   4.112   2.184   1.807
 2659SOL    HW2 7988   3.953   2.152   1.829
 2660SOL     OW 7989   4.322   2.591   0.270
 2660SOL    HW1 7990   4.346   2.660   0.202
 2660SOL    HW2 7991   4.244   2.624   0.324
 2661SOL     OW 7992   3.800   2.673   0.789
 2661SOL    HW1 7993   3.899   2.661   0.798
 2661SOL    HW2 7994   3.776   2.768   0.810
 2662SOL     OW 7995   3.854   3.683   1.571
 2662SOL    HW1 7996   3.844   3.668   1.670
 2662SOL    HW2 7997   3.768   3.719   1.535
 2663SOL     OW 7998   4.274   2.058   0.885
 2663SOL    HW1 7999   4.269   2.053   0.985
 2663SOL    HW2 8000   4.276   2.154   0.856
 2664SOL     OW 8001   4.075   3.663   0.853
 2664SOL    HW1 8002   4.125   3.577   0.859
 2664SOL    HW2 8003   4.140   3.740   0.850
 2665SOL     OW 8004   4.045   2.805   0.242
 2665SOL    HW1 8005   4.127   2.844   0.200
 2665SOL    HW2 8006   4.018   2.723   0.193
 2666SOL     OW 8007   4.185   3.128   1.727
 2666SOL    HW1 8008   4.135   3.129   1.641
 2666SOL    HW2 8009   4.122   3.110   1.803
 2667SOL     OW 8010   3.926   2.147   1.498
 2667SOL    HW1 8011   3.846   2.207   1.485
 2667SOL    HW2 8012   3.916   2.098   1.584
 2668SOL     OW 8013   4.188   3.605   0.323
 2668SOL    HW1 8014   4.221   3.644   0.409
 2668SOL    HW2 8015   4.264   3.598   0.258
 2669SOL     OW 8016   3.973   3.647   1.241
 2669SOL    HW1 8017   4.030   3.582   1.291
 2669SOL    HW2 8018   3.957   3.614   1.148
 2670SOL     OW 8019   4.106   2.562   0.480
 2670SOL    HW1 8020   4.151   2.472   0.477
 2670SOL    HW2 8021   4.012   2.551   0.513
 2671SOL     OW 8022   4.338   1.984   0.117
 2671SOL    HW1 8023   4.436   1.962   0.124
 2671SOL    HW2 8024   4.307   1.967   0.024
 2672SOL     OW 8025   4.527   3.264   0.924
 2672SOL    HW1 8026   4.617   3.278   0.882
 2672SOL    HW2 8027   4.456   3.266   0.853
 2673SOL     OW 8028   4.263   1.926   0.512
 2673SOL    HW1 8029   4.182   1.927   0.570
 2673SOL    HW2 8030   4.266   2.009   0.457
 2674SOL     OW 8031   4.183   3.014   0.741
 2674SOL    HW1 8032   4.112   2.987   0.806
 2674SOL    HW2 8033   4.157   2.986   0.648
 2675SOL     OW 8034   3.802   2.418   1.386
 2675SOL    HW1 8035   3.894   2.417   1.345
 2675SOL    HW2 8036   3.796   2.492   1.453
 2676SOL     OW 8037   4.285   2.084   1.147
 2676SOL    HW1 8038   4.323   2.000   1.184
 2676SOL    HW2 8039   4.197   2.103   1.191
 2677SOL     OW 8040   4.212   3.247   0.174
 2677SOL    HW1 8041   4.125   3.232   0.221
 2677SOL    HW2 8042   4.195   3.273   0.079
 2678SOL     OW 8043   4.251   2.118   0.328
 2678SOL    HW1 8044   4.278   2.059   0.253
 2678SOL    HW2 8045   4.251   2.213   0.297
 2679SOL     OW 8046   4.134   2.675   1.251
 2679SOL    HW1 8047   4.220   2.687   1.301
 2679SOL    HW2 8048   4.092   2.588   1.278
 2680SOL     OW 8049   3.788   3.426   1.331
 2680SOL    HW1 8050   3.742   3.508   1.297
 2680SOL    HW2 8051   3.886   3.445   1.340
 2681SOL     OW 8052   4.091   2.962   0.501
 2681SOL    HW1 8053   4.084   3.045   0.445
 2681SOL    HW2 8054   4.095   2.882   0.441
 2682SOL     OW 8055   4.290   2.399   0.865
 2682SOL    HW1 8056   4.302   2.465   0.791
 2682SOL    HW2 8057   4.336   2.433   0.948
 2683SOL     OW 8058   4.078   3.372   1.329
 2683SOL    HW1 8059   4.057   3.328   1.242
 2683SOL    HW2 8060   4.175   3.398   1.332
 2684SOL     OW 8061   4.126   2.613   1.598
 2684SOL    HW1 8062   4.194   2.668   1.551
 2684SOL    HW2 8063   4.166   2.525   1.625
 2685SOL     OW 8064   4.228   1.912   1.740
 2685SOL    HW1 8065   4.186   1.855   1.670
 2685SOL    HW2 8066   4.162   1.981   1.772
 2686SOL     OW 8067   4.297   2.732   1.029
 2686SOL    HW1 8068   4.341   2.821   1.020
 2686SOL    HW2 8069   4.234   2.732   1.106
 2687SOL     OW 8070   4.031   2.075   1.231
 2687SOL    HW1 8071   4.008   2.112   1.321
 2687SOL    HW2 8072   4.001   1.980   1.225
 2688SOL     OW 8073   3.761   3.172   1.282
 2688SOL    HW1 8074   3.814   3.123   1.350
 2688SOL    HW2 8075   3.783   3.270   1.287
 2689SOL     OW 8076   4.031   1.925   0.618
 2689SOL    HW1 8077   4.020   2.019   0.651
 2689SOL    HW2 8078   4.026   1.862   0.695
 2690SOL     OW 8079   4.074   2.760   1.804
 2690SOL    HW1 8080   4.150   2.804   1.852
 2690SOL    HW2 8081   4.109   2.713   1.722
 2691SOL     OW 8082   4.043   2.672   0.949
 2691SOL    HW1 8083   4.136   2.708   0.954
 2691SOL    HW2 8084   4.037   2.587   1.001
 2692SOL     OW 8085   4.063   2.371   1.006
 2692SOL    HW1 8086   4.011   2.288   0.989
 2692SOL    HW2 8087   4.140   2.376   0.942
 2693SOL     OW 8088   3.732   3.188   0.200
 2693SOL    HW1 8089   3.639   3.209   0.169
 2693SOL    HW2 8090   3.742   3.089   0.213
 2694SOL     OW 8091   3.812   3.663   0.927
 2694SOL    HW1 8092   3.770   3.577   0.900
 2694SOL    HW2 8093   3.906   3.666   0.893
 2695SOL     OW 8094   4.228   3.430   0.910
 2695SOL    HW1 8095   4.294   3.504   0.919
 2695SOL    HW2 8096   4.272   3.351   0.868
 2696SOL     OW 8097   3.764   2.406   1.114
 2696SOL    HW1 8098   3.849   2.373   1.073
 2696SOL    HW2 8099   3.777   2.421   1.212
 2697SOL     OW 8100   3.913   2.382   1.722
 2697SOL    HW1 8101   3.972   2.342   1.652
 2697SOL    HW2 8102   3.855   2.453   1.681
 2698SOL     OW 8103   4.539   2.434   0.325
 2698SOL    HW1 8104   4.546   2.345   0.279
 2698SOL    HW2 8105   4.445   2.468   0.317
 2699SOL     OW 8106   3.976   3.426   1.744
 2699SOL    HW1 8107   3.946   3.483   1.820
 2699SOL    HW2 8108   3.969   3.329   1.770
 2700SOL     OW 8109   4.197   2.362   0.191
 2700SOL    HW1 8110   4.258   2.442   0.195
 2700SOL    HW2 8111   4.102   2.393   0.198
 2701SOL     OW 8112   3.883   2.999   1.466
 2701SOL    HW1 8113   3.905   2.938   1.542
 2701SOL    HW2 8114   3.893   2.950   1.380
 2702SOL     OW 8115   3.807   3.120   1.022
 2702SOL    HW1 8116   3.802   3.119   1.122
 2702SOL    HW2 8117   3.724   3.079   0.984
 2703SOL     OW 8118   4.412   3.524   1.716
 2703SOL    HW1 8119   4.356   3.605   1.725
 2703SOL    HW2 8120   4.464   3.528   1.630
 2704SOL     OW 8121   3.854   3.656   1.851
 2704SOL    HW1 8122   3.813   3.582   1.904
 2704SOL    HW2 8123   3.918   3.707   1.909
 2705SOL     OW 8124   3.987   2.188   0.720
 2705SOL    HW1 8125   3.908   2.239   0.686
 2705SOL    HW2 8126   3.978   2.173   0.818
 2706SOL     OW 8127   4.096   3.150   1.490
 2706SOL    HW1 8128   4.083   3.243   1.456
 2706SOL    HW2 8129   4.012   3.098   1.477
 2707SOL     OW 8130   4.314   3.349   0.491
 2707SOL    HW1 8131   4.356   3.291   0.421
 2707SOL    HW2 8132   4.270   3.428   0.447
 2708SOL     OW 8133   3.979   3.210   0.290
 2708SOL    HW1 8134   3.883   3.211   0.263
 2708SOL    HW2 8135   3.991   3.263   0.374
 2709SOL     OW 8136   3.829   2.875   1.726
 2709SOL    HW1 8137   3.752   2.842   1.780
 2709SOL    HW2 8138   3.914   2.845   1.768
 2710SOL     OW 8139   4.396   2.065   1.489
 2710SOL    HW1 8140   4.486   2.049   1.449
 2710SOL    HW2 8141   4.404   2.070   1.588
 2711SOL     OW 8142   3.799   2.207   0.033
 2711SOL    HW1 8143   3.707   2.179   0.004
 2711SOL    HW2 8144   3.830   2.284  -0.023
 2712SOL     OW 8145   4.337   2.704   1.431
 2712SOL    HW1 8146   4.393   2.785   1.414
 2712SOL    HW2 8147   4.396   2.624   1.434
 2713SOL     OW 8148   4.440   2.427   1.708
 2713SOL    HW1 8149   4.459   2.492   1.782
 2713SOL    HW2 8150   4.500   2.347   1.717
 2714SOL     OW 8151   4.114   3.603   1.560
 2714SOL    HW1 8152   4.023   3.644   1.558
 2714SOL    HW2 8153   4.107   3.509   1.592
 2715SOL     OW 8154   4.318   2.607   0.652
 2715SOL    HW1 8155   4.368   2.692   0.633
 2715SOL    HW2 8156   4.230   2.609   0.604
 2716SOL     OW 8157   3.945   3.176   1.844
 2716SOL    HW1 8158   3.880   3.103   1.823
 2716SOL    HW2 8159   3.949   3.190   1.942
 2717SOL     OW 8160   3.803   3.102   0.653
 2717SOL    HW1 8161   3.802   3.055   0.741
 2717SOL    HW2 8162   3.885   3.074   0.602
 2718SOL     OW 8163   4.396   3.253   1.624
 2718SOL    HW1 8164   4.318   3.203   1.662
 2718SOL    HW2 8165   4.393   3.348   1.655
 2719SOL     OW 8166   4.152   2.286   0.520
 2719SOL    HW1 8167   4.182   2.214   0.458
 2719SOL    HW2 8168   4.113   2.246   0.603
 2720SOL     OW 8169   4.041   2.409   1.280
 2720SOL    HW1 8170   4.079   2.350   1.352
 2720SOL    HW2 8171   4.081   2.383   1.192
 2721SOL     OW 8172   4.536   3.448   0.687
 2721SOL    HW1 8173   4.568   3.458   0.593
 2721SOL    HW2 8174   4.457   3.386   0.689
 2722SOL     OW 8175   3.763   2.939   0.300
 2722SOL    HW1 8176   3.862   2.928   0.291
 2722SOL    HW2 8177   3.723   2.853   0.332
 2723SOL     OW 8178   3.954   2.490   1.975
 2723SOL    HW1 8179   3.861   2.488   2.012
 2723SOL    HW2 8180   3.955   2.451   1.883
 2724SOL     OW 8181   3.949   2.137   2.858
 2724SOL    HW1 8182   3.984   2.120   2.950
 2724SOL    HW2 8183   3.861   2.092   2.846
 2725SOL     OW 8184   3.743   2.230   2.509
 2725SOL    HW1 8185   3.661   2.273   2.548
 2725SOL    HW2 8186   3.715   2.157   2.446
 2726SOL     OW 8187   4.293   3.137   3.027
 2726SOL    HW1 8188   4.200   3.130   2.990
 2726SOL    HW2 8189   4.304   3.226   3.071
 2727SOL     OW 8190   4.574   2.660   3.685
 2727SOL    HW1 8191   4.570   2.736   3.750
 2727SOL    HW2 8192   4.596   2.696   3.594
 2728SOL     OW 8193   4.410   3.023   3.665
 2728SOL    HW1 8194   4.470   3.102   3.679
 2728SOL    HW2 8195   4.324   3.054   3.624
 2729SOL     OW 8196   4.059   3.297   2.923
 2729SOL    HW1 8197   3.981   3.266   2.870
 2729SOL    HW2 8198   4.117   3.355   2.866
 2730SOL     OW 8199   4.162   2.254   3.361
 2730SOL    HW1 8200   4.244   2.198   3.370
 2730SOL    HW2 8201   4.081   2.196   3.365
 2731SOL     OW 8202   3.955   3.575   2.345
 2731SOL    HW1 8203   3.989   3.652   2.399
 2731SOL    HW2 8204   3.999   3.575   2.255
 2732SOL     OW 8205   3.954   3.296   2.400
 2732SOL    HW1 8206   3.928   3.392   2.400
 2732SOL    HW2 8207   3.883   3.242   2.445
 2733SOL     OW 8208   3.964   2.953   2.748
 2733SOL    HW1 8209   3.978   2.869   2.800
 2733SOL    HW2 8210   3.909   3.017   2.803
 2734SOL     OW 8211   4.344   3.648   3.301
 2734SOL    HW1 8212   4.252   3.631   3.336
 2734SOL    HW2 8213   4.372   3.740   3.327
 2735SOL     OW 8214   4.330   2.826   1.985
 2735SOL    HW1 8215   4.337   2.910   1.931
 2735SOL    HW2 8216   4.376   2.839   2.073
 2736SOL     OW 8217   3.846   2.505   2.425
 2736SOL    HW1 8218   3.801   2.417   2.442
 2736SOL    HW2 8219   3.845   2.559   2.509
 2737SOL     OW 8220   3.751   3.458   1.979
 2737SOL    HW1 8221   3.732   3.362   2.000
 2737SOL    HW2 8222   3.718   3.516   2.054
 2738SOL     OW 8223   3.837   2.599   3.459
 2738SOL    HW1 8224   3.925   2.586   3.504
 2738SOL    HW2 8225   3.824   2.696   3.437
 2739SOL     OW 8226   4.337   3.227   2.588
 2739SOL    HW1 8227   4.288   3.140   2.597
 2739SOL    HW2 8228   4.314   3.270   2.501
 2740SOL     OW 8229   4.533   1.866   2.364
 2740SOL    HW1 8230   4.573   1.957   2.355
 2740SOL    HW2 8231   4.433   1.874   2.370
 2741SOL     OW 8232   3.921   2.838   3.126
 2741SOL    HW1 8233   4.010   2.793   3.112
 2741SOL    HW2 8234   3.848   2.773   3.107
 2742SOL     OW 8235   4.041   2.113   3.663
 2742SOL    HW1 8236   4.112   2.184   3.669
 2742SOL    HW2 8237   3.953   2.152   3.691
 2743SOL     OW 8238   4.322   2.591   2.132
 2743SOL    HW1 8239   4.346   2.660   2.064
 2743SOL    HW2 8240   4.244   2.624   2.186
 2744SOL     OW 8241   3.800   2.673   2.651
 2744SOL    HW1 8242   3.899   2.661   2.660
 2744SOL    HW2 8243   3.776   2.768   2.672
 2745SOL     OW 8244   3.854   3.683   3.433
 2745SOL    HW1 8245   3.844   3.668   3.532
 2745SOL    HW2 8246   3.768   3.719   3.397
 2746SOL     OW 8247   4.274   2.058   2.747
 2746SOL    HW1 8248   4.269   2.053   2.847
 2746SOL    HW2 8249   4.276   2.154   2.718
 2747SOL     OW 8250   4.075   3.663   2.715
 2747SOL    HW1 8251   4.125   3.577   2.721
 2747SOL    HW2 8252   4.140   3.740   2.712
 2748SOL     OW 8253   4.045   2.805   2.104
 2748SOL    HW1 8254   4.127   2.844   2.062
 2748SOL    HW2 8255   4.018   2.723   2.055
 2749SOL     OW 8256   4.185   3.128   3.589
 2749SOL    HW1 8257   4.135   3.129   3.503
 2749SOL    HW2 8258   4.122   3.110   3.665
 2750SOL     OW 8259   3.926   2.147   3.360
 2750SOL    HW1 8260   3.846   2.207   3.347
 2750SOL    HW2 8261   3.916   2.098   3.446
 2751SOL     OW 8262   4.188   3.605   2.185
 2751SOL    HW1 8263   4.221   3.644   2.271
 2751SOL    HW2 8264   4.264   3.598   2.120
 2752SOL     OW 8265   3.973   3.647   3.103
 2752SOL    HW1 8266   4.030   3.582   3.153
 2752SOL    HW2 8267   3.957   3.614   3.010
 2753SOL     OW 8268   4.106   2.562   2.342
 2753SOL    HW1 8269   4.151   2.472   2.339
 2753SOL    HW2 8270   4.012   2.551   2.375
 2754SOL     OW 8271   4.338   1.984   1.979
 2754SOL    HW1 8272   4.436   1.962   1.986
 2754SOL    HW2 8273   4.307   1.967   1.886
 2755SOL     OW 8274   4.527   3.264   2.786
 2755SOL    HW1 8275   4.617   3.278   2.744
 2755SOL    HW2 8276   4.456   3.266   2.715
 2756SOL     OW 8277   4.263   1.926   2.374
 2756SOL    HW1 8278   4.182   1.927   2.432
 2756SOL    HW2 8279   4.266   2.009   2.319
 2757SOL     OW 8280   4.021   1.897   2.033
 2757SOL    HW1 8281   4.070   1.981   2.012
 2757SOL    HW2 8282   4.083   1.832   2.078
 2758SOL     OW 8283   4.183   3.014   2.603
 2758SOL    HW1 8284   4.112   2.987   2.668
 2758SOL    HW2 8285   4.157   2.986   2.510
 2759SOL     OW 8286   3.802   2.418   3.248
 2759SOL    HW1 8287   3.894   2.417   3.207
 2759SOL    HW2 8288   3.796   2.492   3.315
 2760SOL     OW 8289   4.285   2.084   3.009
 2760SOL    HW1 8290   4.323   2.000   3.046
 2760SOL    HW2 8291   4.197   2.103   3.053
 2761SOL     OW 8292   4.212   3.247   2.036
 2761SOL    HW1 8293   4.125   3.232   2.083
 2761SOL    HW2 8294   4.195   3.273   1.941
 2762SOL     OW 8295   4.251   2.118   2.190
 2762SOL    HW1 8296   4.278   2.059   2.115
 2762SOL    HW2 8297   4.251   2.213   2.159
 2763SOL     OW 8298   4.134   2.675   3.113
 2763SOL    HW1 8299   4.220   2.687   3.163
 2763SOL    HW2 8300   4.092   2.588   3.140
 2764SOL     OW 8301   3.788   3.426   3.193
 2764SOL    HW1 8302   3.742   3.508   3.159
 2764SOL    HW2 8303   3.886   3.445   3.202
 2765SOL     OW 8304   4.091   2.962   2.363
 2765SOL    HW1 8305   4.084   3.045   2.307
 2765SOL    HW2 8306   4.095   2.882   2.303
 2766SOL     OW 8307   4.290   2.399   2.727
 2766SOL    HW1 8308   4.302   2.465   2.653
 2766SOL    HW2 8309   4.336   2.433   2.810
 2767SOL     OW 8310   4.078   3.372   3.191
 2767SOL    HW1 8311   4.057   3.328   3.104
 2767SOL    HW2 8312   4.175   3.398   3.194
 2768SOL     OW 8313   4.126   2.613   3.460
 2768SOL    HW1 8314   4.194   2.668   3.413
 2768SOL    HW2 8315   4.166   2.525   3.487
 2769SOL     OW 8316   4.228   1.912   3.602
 2769SOL    HW1 8317   4.186   1.855   3.532
 2769SOL    HW2 8318   4.162   1.981   3.634
 2770SOL     OW 8319   4.297   2.732   2.891
 2770SOL    HW1 8320   4.341   2.821   2.882
 2770SOL    HW2 8321   4.234   2.732   2.968
 2771SOL     OW 8322   4.031   2.075   3.093
 2771SOL    HW1 8323   4.008   2.112   3.183
 2771SOL    HW2 8324   4.001   1.980   3.087
 2772SOL     OW 8325   3.761   3.172   3.144
 2772SOL    HW1 8326   3.814   3.123   3.212
 2772SOL    HW2 8327   3.783   3.270   3.149
 2773SOL     OW 8328   4.031   1.925   2.480
 2773SOL    HW1 8329   4.020   2.019   2.513
 2773SOL    HW2 8330   4.026   1.862   2.557
 2774SOL     OW 8331   4.074   2.760   3.666
 2774SOL    HW1 8332   4.150   2.804   3.714
 2774SOL    HW2 8333   4.109   2.713   3.584
 2775SOL     OW 8334   4.043   2.672   2.811
 2775SOL    HW1 8335   4.136   2.708   2.816
 2775SOL    HW2 8336   4.037   2.587   2.863
 2776SOL     OW 8337   4.063   2.371   2.868
 2776SOL    HW1 8338   4.011   2.288   2.851
 2776SOL    HW2 8339   4.140   2.376   2.804
 2777SOL     OW 8340   3.732   3.188   2.062
 2777SOL    HW1 8341   3.639   3.209   2.031
 2777SOL    HW2 8342   3.742   3.089   2.075
 2778SOL     OW 8343   3.812   3.663   2.789
 2778SOL    HW1 8344   3.770   3.577   2.762
 2778SOL    HW2 8345   3.906   3.666   2.755
 2779SOL     OW 8346   4.228   3.430   2.772
 2779SOL    HW1 8347   4.294   3.504   2.781
 2779SOL    HW2 8348   4.272   3.351   2.730
 2780SOL     OW 8349   3.764   2.406   2.976
 2780SOL    HW1 8350   3.849   2.373   2.935
 2780SOL    HW2 8351   3.777   2.421   3.074
 2781SOL     OW 8352   3.913   2.382   3.584
 2781SOL    HW1 8353   3.972   2.342   3.514
 2781SOL    HW2 8354   3.855   2.453   3.543
 2782SOL     OW 8355   4.539   2.434   2.187
 2782SOL    HW1 8356   4.546   2.345   2.141
 2782SOL    HW2 8357   4.445   2.468   2.179
 2783SOL     OW 8358   3.976   3.426   3.606
 2783SOL    HW1 8359   3.946   3.483   3.682
 2783SOL    HW2 8360   3.969   3.329   3.632
 2784SOL     OW 8361   4.197   2.362   2.053
 2784SOL    HW1 8362   4.258   2.442   2.057
 2784SOL    HW2 8363   4.102   2.393   2.060
 2785SOL     OW 8364   3.883   2.999   3.328
 2785SOL    HW1 8365   3.905   2.938   3.404
 2785SOL    HW2 8366   3.893   2.950   3.242
 2786SOL     OW 8367   3.807   3.120   2.884
 2786SOL    HW1 8368   3.802   3.119   2.984
 2786SOL    HW2 8369   3.724   3.079   2.846
 2787SOL     OW 8370   4.412   3.524   3.578
 2787SOL    HW1 8371   4.356   3.605   3.587
 2787SOL    HW2 8372   4.464   3.528   3.492
 2788SOL     OW 8373   3.854   3.656   3.713
 2788SOL    HW1 8374   3.813   3.582   3.766
 2788SOL    HW2 8375   3.918   3.707   3.771
 2789SOL     OW 8376   3.987   2.188   2.582
 2789SOL    HW1 8377   3.908   2.239   2.548
 2789SOL    HW2 8378   3.978   2.173   2.680
 2790SOL     OW 8379   4.096   3.150   3.352
 2790SOL    HW1 8380   4.083   3.243   3.318
 2790SOL    HW2 8381   4.012   3.098   3.339
 2791SOL     OW 8382   4.314   3.349   2.353
 2791SOL    HW1 8383   4.356   3.291   2.283
 2791SOL    HW2 8384   4.270   3.428   2.309
 2792SOL     OW 8385   3.979   3.210   2.152
 2792SOL    HW1 8386   3.883   3.211   2.125
 2792SOL    HW2 8387   3.991   3.263   2.236
 2793SOL     OW 8388   3.829   2.875   3.588
 2793SOL    HW1 8389   3.752   2.842   3.642
 2793SOL    HW2 8390   3.914   2.845   3.630
 2794SOL     OW 8391   4.396   2.065   3.351
 2794SOL    HW1 8392   4.486   2.049   3.311
 2794SOL    HW2 8393   4.404   2.070   3.450
 2795SOL     OW 8394   3.799   2.207   1.895
 2795SOL    HW1 8395   3.707   2.179   1.866
 2795SOL    HW2 8396   3.830   2.284   1.839
 2796SOL     OW 8397   3.796   2.028   2.180
 2796SOL    HW1 8398   3.779   2.111   2.126
 2796SOL    HW2 8399   3.886   1.991   2.158
 2797SOL     OW 8400   4.337   2.704   3.293
 2797SOL    HW1 8401   4.393   2.785   3.276
 2797SOL    HW2 8402   4.396   2.624   3.296
 2798SOL     OW 8403   4.440   2.427   3.570
 2798SOL    HW1 8404   4.459   2.492   3.644
 2798SOL    HW2 8405   4.500   2.347   3.579
 2799SOL     OW 8406   4.114   3.603   3.422
 2799SOL    HW1 8407   4.023   3.644   3.420
 2799SOL    HW2 8408   4.107   3.509   3.454
 2800SOL     OW 8409   4.318   2.607   2.514
 2800SOL    HW1 8410   4.368   2.692   2.495
 2800SOL    HW2 8411   4.230   2.609   2.466
 2801SOL     OW 8412   3.945   3.176   3.706
 2801SOL    HW1 8413   3.880   3.103   3.685
 2801SOL    HW2 8414   3.949   3.190   3.804
 2802SOL     OW 8415   3.803   3.102   2.515
 2802SOL    HW1 8416   3.802   3.055   2.603
 2802SOL    HW2 8417   3.885   3.074   2.464
 2803SOL     OW 8418   4.396   3.253   3.486
 2803SOL    HW1 8419   4.318   3.203   3.524
 2803SOL    HW2 8420   4.393   3.348   3.517
 2804SOL     OW 8421   4.152   2.286   2.382
 2804SOL    HW1 8422   4.182   2.214   2.320
 2804SOL    HW2 8423   4.113   2.246   2.465
 2805SOL     OW 8424   4.041   2.409   3.142
 2805SOL    HW1 8425   4.079   2.350   3.214
 2805SOL    HW2 8426   4.081   2.383   3.054
 2806SOL     OW 8427   4.536   3.448   2.549
 2806SOL    HW1 8428   4.568   3.458   2.455
 2806SOL    HW2 8429   4.457   3.386   2.551
 2807SOL     OW 8430   3.763   2.939   2.162
 2807SOL    HW1 8431   3.862   2.928   2.153
 2807SOL    HW2 8432   3.723   2.853   2.194
 2808SOL     OW 8433   3.954   2.490   3.837
 2808SOL    HW1 8434   3.861   2.488   3.874
 2808SOL    HW2 8435   3.955   2.451   3.745
 2809SOL     OW 8436   3.949   2.137   4.720
 2809SOL    HW1 8437   3.984   2.120   4.812
 2809SOL    HW2 8438   3.861   2.092   4.708
 2810SOL     OW 8439   3.955   3.575   4.207
 2810SOL    HW1 8440   3.989   3.652   4.261
 2810SOL    HW2 8441   3.999   3.575   4.117
 2811SOL     OW 8442   3.954   3.296   4.262
 2811SOL    HW1 8443   3.928   3.392   4.262
 2811SOL    HW2 8444   3.883   3.242   4.307
 2812SOL     OW 8445   4.330   2.826   3.847
 2812SOL    HW1 8446   4.337   2.910   3.793
 2812SOL    HW2 8447   4.376   2.839   3.935
 2813SOL     OW 8448   3.846   2.505   4.287
 2813SOL    HW1 8449   3.801   2.417   4.304
 2813SOL    HW2 8450   3.845   2.559   4.371
 2814SOL     OW 8451   3.751   3.458   3.841
 2814SOL    HW1 8452   3.732   3.362   3.862
 2814SOL    HW2 8453   3.718   3.516   3.916
 2815SOL     OW 8454   4.337   3.227   4.450
 2815SOL    HW1 8455   4.288   3.140   4.459
 2815SOL    HW2 8456   4.314   3.270   4.363
 2816SOL     OW 8457   4.533   1.866   4.226
 2816SOL    HW1 8458   4.573   1.957   4.217
 2816SOL    HW2 8459   4.433   1.874   4.232
 2817SOL     OW 8460   4.322   2.591   3.994
 2817SOL    HW1 8461   4.346   2.660   3.926
 2817SOL    HW2 8462   4.244   2.624   4.048
 2818SOL     OW 8463   3.800   2.673   4.513
 2818SOL    HW1 8464   3.899   2.661   4.522
 2818SOL    HW2 8465   3.776   2.768   4.534
 2819SOL     OW 8466   4.075   3.663   4.577
 2819SOL    HW1 8467   4.125   3.577   4.583
 2819SOL    HW2 8468   4.140   3.740   4.574
 2820SOL     OW 8469   4.045   2.805   3.966
 2820SOL    HW1 8470   4.127   2.844   3.924
 2820SOL    HW2 8471   4.018   2.723   3.917
 2821SOL     OW 8472   4.188   3.605   4.047
 2821SOL    HW1 8473   4.221   3.644   4.133
 2821SOL    HW2 8474   4.264   3.598   3.982
 2822SOL     OW 8475   4.106   2.562   4.204
 2822SOL    HW1 8476   4.151   2.472   4.201
 2822SOL    HW2 8477   4.012   2.551   4.237
 2823SOL     OW 8478   4.338   1.984   3.841
 2823SOL    HW1 8479   4.436   1.962   3.848
 2823SOL    HW2 8480   4.307   1.967   3.748
 2824SOL     OW 8481   4.263   1.926   4.236
 2824SOL    HW1 8482   4.182   1.927   4.294
 2824SOL    HW2 8483   4.266   2.009   4.181
 2825SOL     OW 8484   4.021   1.897   3.895
 2825SOL    HW1 8485   4.070   1.981   3.874
 2825SOL    HW2 8486   4.083   1.832   3.940
 2826SOL     OW 8487   4.183   3.014   4.465
 2826SOL    HW1 8488   4.112   2.987   4.530
 2826SOL    HW2 8489   4.157   2.986   4.372
 2827SOL     OW 8490   4.212   3.247   3.898
 2827SOL    HW1 8491   4.125   3.232   3.945
 2827SOL    HW2 8492   4.195   3.273   3.803
 2828SOL     OW 8493   4.251   2.118   4.052
 2828SOL    HW1 8494   4.278   2.059   3.977
 2828SOL    HW2 8495   4.251   2.213   4.021
 2829SOL     OW 8496   4.091   2.962   4.225
 2829SOL    HW1 8497   4.084   3.045   4.169
 2829SOL    HW2 8498   4.095   2.882   4.165
 2830SOL     OW 8499   4.031   1.925   4.342
 2830SOL    HW1 8500   4.020   2.019   4.375
 2830SOL    HW2 8501   4.026   1.862   4.419
 2831SOL     OW 8502   3.732   3.188   3.924
 2831SOL    HW1 8503   3.639   3.209   3.893
 2831SOL    HW2 8504   3.742   3.089   3.937
 2832SOL     OW 8505   4.539   2.434   4.049
 2832SOL    HW1 8506   4.546   2.345   4.003
 2832SOL    HW2 8507   4.445   2.468   4.041
 2833SOL     OW 8508   4.197   2.362   3.915
 2833SOL    HW1 8509   4.258   2.442   3.919
 2833SOL    HW2 8510   4.102   2.393   3.922
 2834SOL     OW 8511   4.314   3.349   4.215
 2834SOL    HW1 8512   4.356   3.291   4.145
 2834SOL    HW2 8513   4.270   3.428   4.171
 2835SOL     OW 8514   3.979   3.210   4.014
 2835SOL    HW1 8515   3.883   3.211   3.987
 2835SOL    HW2 8516   3.991   3.263   4.098
 2836SOL     OW 8517   3.799   2.207   3.757
 2836SOL    HW1 8518   3.707   2.179   3.728
 2836SOL    HW2 8519   3.830   2.284   3.701
 2837SOL     OW 8520   3.796   2.028   4.042
 2837SOL    HW1 8521   3.779   2.111   3.988
 2837SOL    HW2 8522   3.886   1.991   4.020
 2838SOL     OW 8523   4.318   2.607   4.376
 2838SOL    HW1 8524   4.368   2.692   4.357
 2838SOL    HW2 8525   4.230   2.609   4.328
 2839SOL     OW 8526   3.803   3.102   4.377
 2839SOL    HW1 8527   3.802   3.055   4.465
 2839SOL    HW2 8528   3.885   3.074   4.326
 2840SOL     OW 8529   4.152   2.286   4.244
 2840SOL    HW1 8530   4.182   2.214   4.182
 2840SOL    HW2 8531   4.113   2.246   4.327
 2841SOL     OW 8532   4.536   3.448   4.411
 2841SOL    HW1 8533   4.568   3.458   4.317
 2841SOL    HW2 8534   4.457   3.386   4.413
 2842SOL     OW 8535   3.763   2.939   4.024
 2842SOL    HW1 8536   3.862   2.928   4.015
 2842SOL    HW2 8537   3.723   2.853   4.056
 2843SOL     OW 8538   3.954   4.352   0.113
 2843SOL    HW1 8539   3.861   4.350   0.150
 2843SOL    HW2 8540   3.955   4.313   0.021
 2844SOL     OW 8541   3.949   3.999   0.996
 2844SOL    HW1 8542   3.984   3.982   1.088
 2844SOL    HW2 8543   3.861   3.954   0.984
 2845SOL     OW 8544   3.743   4.092   0.647
 2845SOL    HW1 8545   3.661   4.135   0.686
 2845SOL    HW2 8546   3.715   4.019   0.584
 2846SOL     OW 8547   4.574   4.522   1.823
 2846SOL    HW1 8548   4.570   4.598   1.888
 2846SOL    HW2 8549   4.596   4.558   1.732
 2847SOL     OW 8550   4.162   4.116   1.499
 2847SOL    HW1 8551   4.244   4.060   1.508
 2847SOL    HW2 8552   4.081   4.058   1.503
 2848SOL     OW 8553   3.846   4.367   0.563
 2848SOL    HW1 8554   3.801   4.279   0.580
 2848SOL    HW2 8555   3.845   4.421   0.647
 2849SOL     OW 8556   3.837   4.461   1.597
 2849SOL    HW1 8557   3.925   4.448   1.642
 2849SOL    HW2 8558   3.824   4.558   1.575
 2850SOL     OW 8559   4.533   3.728   0.502
 2850SOL    HW1 8560   4.573   3.819   0.493
 2850SOL    HW2 8561   4.433   3.736   0.508
 2851SOL     OW 8562   4.041   3.975   1.801
 2851SOL    HW1 8563   4.112   4.046   1.807
 2851SOL    HW2 8564   3.953   4.014   1.829
 2852SOL     OW 8565   4.322   4.453   0.270
 2852SOL    HW1 8566   4.346   4.522   0.202
 2852SOL    HW2 8567   4.244   4.486   0.324
 2853SOL     OW 8568   4.274   3.920   0.885
 2853SOL    HW1 8569   4.269   3.915   0.985
 2853SOL    HW2 8570   4.276   4.016   0.856
 2854SOL     OW 8571   3.926   4.009   1.498
 2854SOL    HW1 8572   3.846   4.069   1.485
 2854SOL    HW2 8573   3.916   3.960   1.584
 2855SOL     OW 8574   4.106   4.424   0.480
 2855SOL    HW1 8575   4.151   4.334   0.477
 2855SOL    HW2 8576   4.012   4.413   0.513
 2856SOL     OW 8577   4.338   3.846   0.117
 2856SOL    HW1 8578   4.436   3.824   0.124
 2856SOL    HW2 8579   4.307   3.829   0.024
 2857SOL     OW 8580   4.263   3.788   0.512
 2857SOL    HW1 8581   4.182   3.789   0.570
 2857SOL    HW2 8582   4.266   3.871   0.457
 2858SOL     OW 8583   4.800   4.407   1.464
 2858SOL    HW1 8584   4.720   4.346   1.467
 2858SOL    HW2 8585   4.881   4.354   1.440
 2859SOL     OW 8586   3.802   4.280   1.386
 2859SOL    HW1 8587   3.894   4.279   1.345
 2859SOL    HW2 8588   3.796   4.354   1.453
 2860SOL     OW 8589   4.285   3.946   1.147
 2860SOL    HW1 8590   4.323   3.862   1.184
 2860SOL    HW2 8591   4.197   3.965   1.191
 2861SOL     OW 8592   4.251   3.980   0.328
 2861SOL    HW1 8593   4.278   3.921   0.253
 2861SOL    HW2 8594   4.251   4.075   0.297
 2862SOL     OW 8595   4.290   4.261   0.865
 2862SOL    HW1 8596   4.302   4.327   0.791
 2862SOL    HW2 8597   4.336   4.295   0.948
 2863SOL     OW 8598   4.228   3.774   1.740
 2863SOL    HW1 8599   4.186   3.717   1.670
 2863SOL    HW2 8600   4.162   3.843   1.772
 2864SOL     OW 8601   4.031   3.937   1.231
 2864SOL    HW1 8602   4.008   3.974   1.321
 2864SOL    HW2 8603   4.001   3.842   1.225
 2865SOL     OW 8604   4.031   3.787   0.618
 2865SOL    HW1 8605   4.020   3.881   0.651
 2865SOL    HW2 8606   4.026   3.724   0.695
 2866SOL     OW 8607   4.043   4.534   0.949
 2866SOL    HW1 8608   4.136   4.570   0.954
 2866SOL    HW2 8609   4.037   4.449   1.001
 2867SOL     OW 8610   4.063   4.233   1.006
 2867SOL    HW1 8611   4.011   4.150   0.989
 2867SOL    HW2 8612   4.140   4.238   0.942
 2868SOL     OW 8613   3.764   4.268   1.114
 2868SOL    HW1 8614   3.849   4.235   1.073
 2868SOL    HW2 8615   3.777   4.283   1.212
 2869SOL     OW 8616   3.913   4.244   1.722
 2869SOL    HW1 8617   3.972   4.204   1.652
 2869SOL    HW2 8618   3.855   4.315   1.681
 2870SOL     OW 8619   4.539   4.296   0.325
 2870SOL    HW1 8620   4.546   4.207   0.279
 2870SOL    HW2 8621   4.445   4.330   0.317
 2871SOL     OW 8622   4.197   4.224   0.191
 2871SOL    HW1 8623   4.258   4.304   0.195
 2871SOL    HW2 8624   4.102   4.255   0.198
 2872SOL     OW 8625   3.987   4.050   0.720
 2872SOL    HW1 8626   3.908   4.101   0.686
 2872SOL    HW2 8627   3.978   4.035   0.818
 2873SOL     OW 8628   4.396   3.927   1.489
 2873SOL    HW1 8629   4.486   3.911   1.449
 2873SOL    HW2 8630   4.404   3.932   1.588
 2874SOL     OW 8631   3.799   4.069   0.033
 2874SOL    HW1 8632   3.707   4.041   0.004
 2874SOL    HW2 8633   3.830   4.146  -0.023
 2875SOL     OW 8634   4.440   4.289   1.708
 2875SOL    HW1 8635   4.459   4.354   1.782
 2875SOL    HW2 8636   4.500   4.209   1.717
 2876SOL     OW 8637   4.152   4.148   0.520
 2876SOL    HW1 8638   4.182   4.076   0.458
 2876SOL    HW2 8639   4.113   4.108   0.603
 2877SOL     OW 8640   4.041   4.271   1.280
 2877SOL    HW1 8641   4.079   4.212   1.352
 2877SOL    HW2 8642   4.081   4.245   1.192
 2878SOL     OW 8643   3.954   4.352   1.975
 2878SOL    HW1 8644   3.861   4.350   2.012
 2878SOL    HW2 8645   3.955   4.313   1.883
 2879SOL     OW 8646   3.949   3.999   2.858
 2879SOL    HW1 8647   3.984   3.982   2.950
 2879SOL    HW2 8648   3.861   3.954   2.846
 2880SOL     OW 8649   3.743   4.092   2.509
 2880SOL    HW1 8650   3.661   4.135   2.548
 2880SOL    HW2 8651   3.715   4.019   2.446
 2881SOL     OW 8652   4.574   4.522   3.685
 2881SOL    HW1 8653   4.570   4.598   3.750
 2881SOL    HW2 8654   4.596   4.558   3.594
 2882SOL     OW 8655   4.162   4.116   3.361
 2882SOL    HW1 8656   4.244   4.060   3.370
 2882SOL    HW2 8657   4.081   4.058   3.365
 2883SOL     OW 8658   3.846   4.367   2.425
 2883SOL    HW1 8659   3.801   4.279   2.442
 2883SOL    HW2 8660   3.845   4.421   2.509
 2884SOL     OW 8661   3.837   4.461   3.459
 2884SOL    HW1 8662   3.925   4.448   3.504
 2884SOL    HW2 8663   3.824   4.558   3.437
 2885SOL     OW 8664   4.533   3.728   2.364
 2885SOL    HW1 8665   4.573   3.819   2.355
 2885SOL    HW2 8666   4.433   3.736   2.370
 2886SOL     OW 8667   4.041   3.975   3.663
 2886SOL    HW1 8668   4.112   4.046   3.669
 2886SOL    HW2 8669   3.953   4.014   3.691
 2887SOL     OW 8670   4.274   3.920   2.747
 2887SOL    HW1 8671   4.269   3.915   2.847
 2887SOL    HW2 8672   4.276   4.016   2.718
 2888SOL     OW 8673   3.926   4.009   3.360
 2888SOL    HW1 8674   3.846   4.069   3.347
 2888SOL    HW2 8675   3.916   3.960   3.446
 2889SOL     OW 8676   4.106   4.424   2.342
 2889SOL    HW1 8677   4.151   4.334   2.339
 2889SOL    HW2 8678   4.012   4.413   2.375
 2890SOL     OW 8679   4.338   3.846   1.979
 2890SOL    HW1 8680   4.436   3.824   1.986
 2890SOL    HW2 8681   4.307   3.829   1.886
 2891SOL     OW 8682   4.263   3.788   2.374
 2891SOL    HW1 8683   4.182   3.789   2.432
 2891SOL    HW2 8684   4.266   3.871   2.319
 2892SOL     OW 8685   4.021   3.759   2.033
 2892SOL    HW1 8686   4.070   3.843   2.012
 2892SOL    HW2 8687   4.083   3.694   2.078
 2893SOL     OW 8688   4.800   4.407   3.326
 2893SOL    HW1 8689   4.720   4.346   3.329
 2893SOL    HW2 8690   4.881   4.354   3.302
 2894SOL     OW 8691   3.802   4.280   3.248
 2894SOL    HW1 8692   3.894   4.279   3.207
 2894SOL    HW2 8693   3.796   4.354   3.315
 2895SOL     OW 8694   4.285   3.946   3.009
 2895SOL    HW1 8695   4.323   3.862   3.046
 2895SOL    HW2 8696   4.197   3.965   3.053
 2896SOL     OW 8697   4.251   3.980   2.190
 2896SOL    HW1 8698   4.278   3.921   2.115
 2896SOL    HW2 8699   4.251   4.075   2.159
 2897SOL     OW 8700   4.290   4.261   2.727
 2897SOL    HW1 8701   4.302   4.327   2.653
 2897SOL    HW2 8702   4.336   4.295   2.810
 2898SOL     OW 8703   4.228   3.774   3.602
 2898SOL    HW1 8704   4.186   3.717   3.532
 2898SOL    HW2 8705   4.162   3.843   3.634
 2899SOL     OW 8706   4.031   3.937   3.093
 2899SOL    HW1 8707   4.008   3.974   3.183
 2899SOL    HW2 8708   4.001   3.842   3.087
 2900SOL     OW 8709   4.031   3.787   2.480
 2900SOL    HW1 8710   4.020   3.881   2.513
 2900SOL    HW2 8711   4.026   3.724   2.557
 2901SOL     OW 8712   4.043   4.534   2.811
 2901SOL    HW1 8713   4.136   4.570   2.816
 2901SOL    HW2 8714   4.037   4.449   2.863
 2902SOL     OW 8715   4.063   4.233   2.868
 2902SOL    HW1 8716   4.011   4.150   2.851
 2902SOL    HW2 8717   4.140   4.238   2.804
 2903SOL     OW 8718   3.764   4.268   2.976
 2903SOL    HW1 8719   3.849   4.235   2.935
 2903SOL    HW2 8720   3.777   4.283   3.074
 2904SOL     OW 8721   3.913   4.244   3.584
 2904SOL    HW1 8722   3.972   4.204   3.514
 2904SOL    HW2 8723   3.855   4.315   3.543
 2905SOL     OW 8724   4.539   4.296   2.187
 2905SOL    HW1 8725   4.546   4.207   2.141
 2905SOL    HW2 8726   4.445   4.330   2.179
 2906SOL     OW 8727   4.197   4.224   2.053
 2906SOL    HW1 8728   4.258   4.304   2.057
 2906SOL    HW2 8729   4.102   4.255   2.060
 2907SOL     OW 8730   3.987   4.050   2.582
 2907SOL    HW1 8731   3.908   4.101   2.548
 2907SOL    HW2 8732   3.978   4.035   2.680
 2908SOL     OW 8733   4.396   3.927   3.351
 2908SOL    HW1 8734   4.486   3.911   3.311
 2908SOL    HW2 8735   4.404   3.932   3.450
 2909SOL     OW 8736   3.799   4.069   1.895
 2909SOL    HW1 8737   3.707   4.041   1.866
 2909SOL    HW2 8738   3.830   4.146   1.839
 2910SOL     OW 8739   3.796   3.890   2.180
 2910SOL    HW1 8740   3.779   3.973   2.126
 2910SOL    HW2 8741   3.886   3.853   2.158
 2911SOL     OW 8742   4.440   4.289   3.570
 2911SOL    HW1 8743   4.459   4.354   3.644
 2911SOL    HW2 8744   4.500   4.209   3.579
 2912SOL     OW 8745   4.152   4.148   2.382
 2912SOL    HW1 8746   4.182   4.076   2.320
 2912SOL    HW2 8747   4.113   4.108   2.465
 2913SOL     OW 8748   4.041   4.271   3.142
 2913SOL    HW1 8749   4.079   4.212   3.214
 2913SOL    HW2 8750   4.081   4.245   3.054
 2914SOL     OW 8751   3.954   4.352   3.837
 2914SOL    HW1 8752   3.861   4.350   3.874
 2914SOL    HW2 8753   3.955   4.313   3.745
 2915SOL     OW 8754   3.949   3.999   4.720
 2915SOL    HW1 8755   3.984   3.982   4.812
 2915SOL    HW2 8756   3.861   3.954   4.708
 2916SOL     OW 8757   3.846   4.367   4.287
 2916SOL    HW1 8758   3.801   4.279   4.304
 2916SOL    HW2 8759   3.845   4.421   4.371
 2917SOL     OW 8760   4.533   3.728   4.226
 2917SOL    HW1 8761   4.573   3.819   4.217
 2917SOL    HW2 8762   4.433   3.736   4.232
 2918SOL     OW 8763   4.106   4.424   4.204
 2918SOL    HW1 8764   4.151   4.334   4.201
 2918SOL    HW2 8765   4.012   4.413   4.237
 2919SOL     OW 8766   4.338   3.846   3.841
 2919SOL    HW1 8767   4.436   3.824   3.848
 2919SOL    HW2 8768   4.307   3.829   3.748
 2920SOL     OW 8769   4.263   3.788   4.236
 2920SOL    HW1 8770   4.182   3.789   4.294
 2920SOL    HW2 8771   4.266   3.871   4.181
 2921SOL     OW 8772   4.021   3.759   3.895
 2921SOL    HW1 8773   4.070   3.843   3.874
 2921SOL    HW2 8774   4.083   3.694   3.940
 2922SOL     OW 8775   4.251   3.980   4.052
 2922SOL    HW1 8776   4.278   3.921   3.977
 2922SOL    HW2 8777   4.251   4.075   4.021
 2923SOL     OW 8778   4.031   3.787   4.342
 2923SOL    HW1 8779   4.020   3.881   4.375
 2923SOL    HW2 8780   4.026   3.724   4.419
 2924SOL     OW 8781   4.539   4.296   4.049
 2924SOL    HW1 8782   4.546   4.207   4.003
 2924SOL    HW2 8783   4.445   4.330   4.041
 2925SOL     OW 8784   4.197   4.224   3.915
 2925SOL    HW1 8785   4.258   4.304   3.919
 2925SOL    HW2 8786   4.102   4.255   3.922
 2926SOL     OW 8787   3.799   4.069   3.757
 2926SOL    HW1 8788   3.707   4.041   3.728
 2926SOL    HW2 8789   3.830   4.146   3.701
 2927SOL     OW 8790   3.796   3.890   4.042
 2927SOL    HW1 8791   3.779   3.973   3.988
 2927SOL    HW2 8792   3.886   3.853   4.020
 2928SOL     OW 8793   4.152   4.148   4.244
 2928SOL    HW1 8794   4.182   4.076   4.182
 2928SOL    HW2 8795   4.113   4.108   4.327
   4.48143   4.48143   4.48143
