mobley_6739648_GMX.gro created by acpype (v: 2023.10.27) on Wed May 20 23:50:52 2026
   14
    1MOL     C1    1   2.230   2.296   2.113
    1MOL     C2    2   2.264   2.149   2.137
    1MOL     C3    3   2.218   2.333   2.345
    1MOL     C4    4   2.251   2.186   2.369
    1MOL     O1    5   2.278   2.375   2.222
    1MOL     O2    6   2.204   2.107   2.260
    1MOL     H1    7   2.279   2.331   2.021
    1MOL     H2    8   2.122   2.311   2.102
    1MOL     H3    9   2.224   2.087   2.057
    1MOL     H4   10   2.372   2.134   2.143
    1MOL     H5   11   2.110   2.348   2.339
    1MOL     H6   12   2.258   2.395   2.425
    1MOL     H7   13   2.360   2.171   2.380
    1MOL     H8   14   2.203   2.151   2.461
   4.48143   4.48143   4.48143
