%VERSION  VERSION_STAMP = V0001.000  DATE = 05/20/26  23:46:00                  
%FLAG TITLE                                                                     
%FORMAT(20a4)                                                                   
2_methyltetrahydrofuran                                                         
%FLAG POINTERS                                                                  
%FORMAT(10I8)                                                                   
      16       4      10       6      24       7      42      13       0       0
      86       1       6       7      13       6      13      10       5       0
       0       0       0       0       0       0       0       0      16       0
       0
%FLAG ATOM_NAME                                                                 
%FORMAT(20a4)                                                                   
C1  C2  C3  C4  C5  O1  H1  H2  H3  H4  H5  H6  H7  H8  H9  H10 
%FLAG CHARGE                                                                    
%FORMAT(5E16.8)                                                                 
 -1.93885272E+00 -1.90240812E+00  2.33974332E+00  2.51649963E+00 -1.96983063E+00
 -7.75541088E+00  9.32981760E-01  9.32981760E-01  9.51204060E-01  9.51204060E-01
  8.05425660E-01  8.05425660E-01  1.01498211E+00  7.72024184E-01  7.72024184E-01
  7.72024184E-01
%FLAG ATOMIC_NUMBER                                                             
%FORMAT(10I8)                                                                   
       6       6       6       6       6       8       1       1       1       1
       1       1       1       1       1       1
%FLAG MASS                                                                      
%FORMAT(5E16.8)                                                                 
  1.20100000E+01  1.20100000E+01  1.20100000E+01  1.20100000E+01  1.20100000E+01
  1.60000000E+01  1.00800000E+00  1.00800000E+00  1.00800000E+00  1.00800000E+00
  1.00800000E+00  1.00800000E+00  1.00800000E+00  1.00800000E+00  1.00800000E+00
  1.00800000E+00
%FLAG ATOM_TYPE_INDEX                                                           
%FORMAT(10I8)                                                                   
       1       1       1       1       1       2       3       3       3       3
       4       4       4       3       3       3
%FLAG NUMBER_EXCLUDED_ATOMS                                                     
%FORMAT(10I8)                                                                   
      12      14      10      12       7      10       5       4       2       1
       1       1       3       2       1       1
%FLAG NONBONDED_PARM_INDEX                                                      
%FORMAT(10I8)                                                                   
       1       2       4       7       2       3       5       8       4       5
       6       9       7       8       9      10
%FLAG RESIDUE_LABEL                                                             
%FORMAT(20a4)                                                                   
MOL 
%FLAG RESIDUE_POINTER                                                           
%FORMAT(10I8)                                                                   
       1
%FLAG BOND_FORCE_CONSTANT                                                       
%FORMAT(5E16.8)                                                                 
  2.20100000E+02  3.46430000E+02  2.75610000E+02  3.43780000E+02  2.27640000E+02
  3.45250000E+02
%FLAG BOND_EQUIL_VALUE                                                          
%FORMAT(5E16.8)                                                                 
  1.54830000E+00  1.09540000E+00  1.43460000E+00  1.09720000E+00  1.53720000E+00
  1.09620000E+00
%FLAG ANGLE_FORCE_CONSTANT                                                      
%FORMAT(5E16.8)                                                                 
  6.18400000E+01  4.26500000E+01  7.74300000E+01  4.26500000E+01  5.93300000E+01
  8.96100000E+01  4.30600000E+01  7.67500000E+01  4.33100000E+01  5.64400000E+01
  3.59100000E+01  3.57000000E+01  3.58000000E+01
%FLAG ANGLE_EQUIL_VALUE                                                         
%FORMAT(5E16.8)                                                                 
  1.81217614E+00  1.94028336E+00  1.85249326E+00  1.94028336E+00  1.98269488E+00
  1.90694756E+00  1.92911325E+00  1.90188610E+00  1.90659849E+00  1.89298492E+00
  1.87134283E+00  1.88722533E+00  1.88024401E+00
%FLAG DIHEDRAL_FORCE_CONSTANT                                                   
%FORMAT(5E16.8)                                                                 
  5.20000000E-01  1.55555556E-01  8.80000000E-01  8.00000000E-02  7.50000000E-01
  1.30000000E-01  3.37000000E-01  2.50000000E-01  0.00000000E+00  1.20000000E-01
%FLAG DIHEDRAL_PERIODICITY                                                      
%FORMAT(5E16.8)                                                                 
  3.00000000E+00  3.00000000E+00  1.00000000E+00  2.00000000E+00  3.00000000E+00
  3.00000000E+00  3.00000000E+00  1.00000000E+00  3.00000000E+00  3.00000000E+00
%FLAG DIHEDRAL_PHASE                                                            
%FORMAT(5E16.8)                                                                 
  0.00000000E+00  0.00000000E+00  3.14159400E+00  0.00000000E+00  0.00000000E+00
  0.00000000E+00  0.00000000E+00  0.00000000E+00  0.00000000E+00  0.00000000E+00
%FLAG SCEE_SCALE_FACTOR                                                         
%FORMAT(5E16.8)                                                                 
  1.20000000E+00  1.20000000E+00  1.20000000E+00  1.20000000E+00  1.20000000E+00
  1.20000000E+00  1.20000000E+00  1.20000000E+00  1.20000000E+00  1.20000000E+00
%FLAG SCNB_SCALE_FACTOR                                                         
%FORMAT(5E16.8)                                                                 
  2.00000000E+00  2.00000000E+00  2.00000000E+00  2.00000000E+00  2.00000000E+00
  2.00000000E+00  2.00000000E+00  2.00000000E+00  2.00000000E+00  2.00000000E+00
%FLAG SOLTY                                                                     
%FORMAT(5E16.8)                                                                 
  0.00000000E+00  0.00000000E+00  0.00000000E+00  0.00000000E+00  0.00000000E+00
%FLAG LENNARD_JONES_ACOEF                                                       
%FORMAT(5E16.8)                                                                 
  1.02073671E+06  5.42502534E+05  2.83662575E+05  1.00235148E+05  5.02224902E+04
  7.94617769E+03  6.97998263E+04  3.44374471E+04  5.22955465E+03  3.39005767E+03
%FLAG LENNARD_JONES_BCOEF                                                       
%FORMAT(5E16.8)                                                                 
  6.63431737E+02  4.38146883E+02  2.87011518E+02  1.37787728E+02  8.83545880E+01
  2.57122925E+01  1.14981426E+02  7.31636661E+01  2.08590256E+01  1.67944276E+01
%FLAG BONDS_INC_HYDROGEN                                                        
%FORMAT(10I8)                                                                   
       0      18       2       0      21       2       3      24       2       3
      27       2       6      30       4       6      33       4       9      36
       4      12      39       6      12      42       6      12      45       6
%FLAG BONDS_WITHOUT_HYDROGEN                                                    
%FORMAT(10I8)                                                                   
       0       3       1       0       6       1       3       9       1       6
      15       3       9      12       5       9      15       3
%FLAG ANGLES_INC_HYDROGEN                                                       
%FORMAT(10I8)                                                                   
       0       3      24       2       0       3      27       2       0       6
      30       4       0       6      33       4       3       0      18       2
       3       0      21       2       3       9      36       4       6       0
      18       2       6       0      21       2       9       3      24       2
       9       3      27       2       9      12      39       7       9      12
      42       7       9      12      45       7      12       9      36       9
      15       6      30      10      15       6      33      10      15       9
      36      10      18       0      21      11      24       3      27      11
      30       6      33      12      39      12      42      13      39      12
      45      13      42      12      45      13
%FLAG ANGLES_WITHOUT_HYDROGEN                                                   
%FORMAT(10I8)                                                                   
       0       3       9       1       0       6      15       3       3       0
       6       1       3       9      12       5       3       9      15       3
       6      15       9       6      12       9      15       8
%FLAG DIHEDRALS_INC_HYDROGEN                                                    
%FORMAT(10I8)                                                                   
       0       3       9      36       2       3       0       6      30       2
       3       0       6      33       2       3       9      12      39       6
       3       9      12      42       6       3       9      12      45       6
       6       0       3      24       6       6       0       3      27       6
       6      15       9      36       7      18       0       3       9       6
      21       0       3       9       6       9      15       6      30       7
       9      15       6      33       7      12       9       3      24       6
      12       9       3      27       6      18       0       6      15       8
      18       0      -6      15       9      21       0       6      15       8
      21       0      -6      15       9      15       9       3      24       8
      15       9      -3      24       9      15       9       3      27       8
      15       9      -3      27       9      15       9      12      39       8
      15       9     -12      39       9      15       9      12      42       8
      15       9     -12      42       9      15       9      12      45       8
      15       9     -12      45       9      18       0       3      24      10
      18       0       3      27      10      18       0       6      30       2
      18       0       6      33       2      21       0       3      24      10
      21       0       3      27      10      21       0       6      30       2
      21       0       6      33       2      24       3       9      36       2
      27       3       9      36       2      36       9      12      39       2
      36       9      12      42       2      36       9      12      45       2
%FLAG DIHEDRALS_WITHOUT_HYDROGEN                                                
%FORMAT(10I8)                                                                   
       0       3       9      12       1       0       3      -9      15       2
       0       6     -15       9       3       0       6     -15       9       4
       0       6     -15       9       5       3       0      -6      15       2
       3       9     -15       6       3       3       9     -15       6       4
       3       9     -15       6       5       6       0      -3       9       1
       6      15       9      12       3       6      15      -9      12       4
       6      15      -9      12       5
%FLAG EXCLUDED_ATOMS_LIST                                                       
%FORMAT(10I8)                                                                   
       2       3       4       5       6       7       8       9      10      11
      12      13       3       4       5       6       7       8       9      10
      11      12      13      14      15      16       4       5       6       7
       8       9      10      11      12      13       5       6       7       8
       9      10      11      12      13      14      15      16       6       9
      10      13      14      15      16       7       8       9      10      11
      12      13      14      15      16       8       9      10      11      12
       9      10      11      12      10      13      13      12       0      14
      15      16      15      16      16       0
%FLAG HBOND_ACOEF                                                               
%FORMAT(5E16.8)                                                                 

%FLAG HBOND_BCOEF                                                               
%FORMAT(5E16.8)                                                                 

%FLAG HBCUT                                                                     
%FORMAT(5E16.8)                                                                 

%FLAG AMBER_ATOM_TYPE                                                           
%FORMAT(20a4)                                                                   
c5  c5  c5  c5  c3  os  hc  hc  hc  hc  h1  h1  h1  hc  hc  hc  
%FLAG TREE_CHAIN_CLASSIFICATION                                                 
%FORMAT(20a4)                                                                   
BLA BLA BLA BLA BLA BLA BLA BLA BLA BLA BLA BLA BLA BLA BLA BLA 
%FLAG JOIN_ARRAY                                                                
%FORMAT(10I8)                                                                   
       0       0       0       0       0       0       0       0       0       0
       0       0       0       0       0       0
%FLAG IROTAT                                                                    
%FORMAT(10I8)                                                                   
       0       0       0       0       0       0       0       0       0       0
       0       0       0       0       0       0
%FLAG RADIUS_SET                                                                
%FORMAT(1a80)                                                                   
modified Bondi radii (mbondi)                                                   
%FLAG RADII                                                                     
%FORMAT(5E16.8)                                                                 
  1.70000000E+00  1.70000000E+00  1.70000000E+00  1.70000000E+00  1.70000000E+00
  1.50000000E+00  1.30000000E+00  1.30000000E+00  1.30000000E+00  1.30000000E+00
  1.30000000E+00  1.30000000E+00  1.30000000E+00  1.30000000E+00  1.30000000E+00
  1.30000000E+00
%FLAG SCREEN                                                                    
%FORMAT(5E16.8)                                                                 
  7.20000000E-01  7.20000000E-01  7.20000000E-01  7.20000000E-01  7.20000000E-01
  8.50000000E-01  8.50000000E-01  8.50000000E-01  8.50000000E-01  8.50000000E-01
  8.50000000E-01  8.50000000E-01  8.50000000E-01  8.50000000E-01  8.50000000E-01
  8.50000000E-01
%FLAG IPOL                                                                      
%FORMAT(1I8)                                                                    
       0
