2_methyltetrahydrofuran
    16
   0.9180000  -0.3720000   0.4620000   0.6780000  -1.2620000   1.6550000
   1.7110000  -1.2800000  -0.4500000   1.9620000  -2.0750000   1.7320000
   3.0090000  -1.4460000   2.6420000   2.4970000  -2.1290000   0.3980000
   0.0010000   0.0030000   0.0000000   1.5300000   0.4880000   0.7590000
   0.4480000  -0.7130000   2.5730000  -0.1660000  -1.9310000   1.4430000
   1.0500000  -1.9200000  -1.0440000   2.3660000  -0.7280000  -1.1290000
   1.7640000  -3.0960000   2.0720000   2.8410000  -0.3690000   2.7340000
   2.9640000  -1.8890000   3.6420000   4.0130000  -1.6050000   2.2400000
