; mobley_5056289_GMX.itp created by acpype (v: 2023.10.27) on Wed May 20 23:45:59 2026

[ atomtypes ]
;name   bond_type     mass     charge   ptype   sigma         epsilon       Amb
 c5       c5          0.00000  0.00000   A     3.39771e-01   4.51035e-01 ; 1.91  0.1078
 c3       c3          0.00000  0.00000   A     3.39771e-01   4.51035e-01 ; 1.91  0.1078
 os       os          0.00000  0.00000   A     3.15610e-01   3.03758e-01 ; 1.77  0.0726
 hc       hc          0.00000  0.00000   A     2.60018e-01   8.70272e-02 ; 1.46  0.0208
 h1       h1          0.00000  0.00000   A     2.42200e-01   8.70272e-02 ; 1.36  0.0208

[ moleculetype ]
;name            nrexcl
 mobley_5056289   3

[ atoms ]
;   nr  type  resi  res  atom  cgnr     charge      mass       ; qtot   bond_type
     1   c5     1   MOL    C1    1    -0.106400     12.01000 ; qtot -0.106
     2   c5     1   MOL    C2    2    -0.104400     12.01000 ; qtot -0.211
     3   c5     1   MOL    C3    3     0.128400     12.01000 ; qtot -0.082
     4   c5     1   MOL    C4    4     0.138100     12.01000 ; qtot 0.056
     5   c3     1   MOL    C5    5    -0.108100     12.01000 ; qtot -0.052
     6   os     1   MOL    O1    6    -0.425601     16.00000 ; qtot -0.478
     7   hc     1   MOL    H1    7     0.051200      1.00800 ; qtot -0.427
     8   hc     1   MOL    H2    8     0.051200      1.00800 ; qtot -0.376
     9   hc     1   MOL    H3    9     0.052200      1.00800 ; qtot -0.323
    10   hc     1   MOL    H4   10     0.052200      1.00800 ; qtot -0.271
    11   h1     1   MOL    H5   11     0.044200      1.00800 ; qtot -0.227
    12   h1     1   MOL    H6   12     0.044200      1.00800 ; qtot -0.183
    13   h1     1   MOL    H7   13     0.055700      1.00800 ; qtot -0.127
    14   hc     1   MOL    H8   14     0.042367      1.00800 ; qtot -0.085
    15   hc     1   MOL    H9   15     0.042367      1.00800 ; qtot -0.042
    16   hc     1   MOL   H10   16     0.042367      1.00800 ; qtot 0.000

[ bonds ]
;   ai     aj funct   r             k
     1      2   1    1.5483e-01    1.8418e+05 ;     C1 - C2    
     1      3   1    1.5483e-01    1.8418e+05 ;     C1 - C3    
     1      7   1    1.0954e-01    2.8989e+05 ;     C1 - H1    
     1      8   1    1.0954e-01    2.8989e+05 ;     C1 - H2    
     2      4   1    1.5483e-01    1.8418e+05 ;     C2 - C4    
     2      9   1    1.0954e-01    2.8989e+05 ;     C2 - H3    
     2     10   1    1.0954e-01    2.8989e+05 ;     C2 - H4    
     3      6   1    1.4346e-01    2.3063e+05 ;     C3 - O1    
     3     11   1    1.0972e-01    2.8768e+05 ;     C3 - H5    
     3     12   1    1.0972e-01    2.8768e+05 ;     C3 - H6    
     4      5   1    1.5372e-01    1.9049e+05 ;     C4 - C5    
     4      6   1    1.4346e-01    2.3063e+05 ;     C4 - O1    
     4     13   1    1.0972e-01    2.8768e+05 ;     C4 - H7    
     5     14   1    1.0962e-01    2.8891e+05 ;     C5 - H8    
     5     15   1    1.0962e-01    2.8891e+05 ;     C5 - H9    
     5     16   1    1.0962e-01    2.8891e+05 ;     C5 - H10   

[ pairs ]
;   ai     aj    funct
     1      5      1 ;     C1 - C5    
     1     13      1 ;     C1 - H7    
     2     11      1 ;     C2 - H5    
     2     12      1 ;     C2 - H6    
     2     14      1 ;     C2 - H8    
     2     15      1 ;     C2 - H9    
     2     16      1 ;     C2 - H10   
     3      5      1 ;     C3 - C5    
     3      9      1 ;     C3 - H3    
     3     10      1 ;     C3 - H4    
     3     13      1 ;     C3 - H7    
     4     11      1 ;     C4 - H5    
     4     12      1 ;     C4 - H6    
     5      9      1 ;     C5 - H3    
     5     10      1 ;     C5 - H4    
     6      9      1 ;     O1 - H3    
     6     10      1 ;     O1 - H4    
     6     14      1 ;     O1 - H8    
     6     15      1 ;     O1 - H9    
     6     16      1 ;     O1 - H10   
     7      4      1 ;     H1 - C4    
     7      6      1 ;     H1 - O1    
     7      9      1 ;     H1 - H3    
     7     10      1 ;     H1 - H4    
     7     11      1 ;     H1 - H5    
     7     12      1 ;     H1 - H6    
     8      4      1 ;     H2 - C4    
     8      6      1 ;     H2 - O1    
     8      9      1 ;     H2 - H3    
     8     10      1 ;     H2 - H4    
     8     11      1 ;     H2 - H5    
     8     12      1 ;     H2 - H6    
     9     13      1 ;     H3 - H7    
    10     13      1 ;     H4 - H7    
    13     14      1 ;     H7 - H8    
    13     15      1 ;     H7 - H9    
    13     16      1 ;     H7 - H10   

[ angles ]
;   ai     aj     ak    funct   theta         cth
     1      2      4      1    1.0383e+02    5.1748e+02 ;     C1 - C2     - C4    
     1      2      9      1    1.1117e+02    3.5690e+02 ;     C1 - C2     - H3    
     1      2     10      1    1.1117e+02    3.5690e+02 ;     C1 - C2     - H4    
     1      3      6      1    1.0614e+02    6.4793e+02 ;     C1 - C3     - O1    
     1      3     11      1    1.1117e+02    3.5690e+02 ;     C1 - C3     - H5    
     1      3     12      1    1.1117e+02    3.5690e+02 ;     C1 - C3     - H6    
     2      1      3      1    1.0383e+02    5.1748e+02 ;     C2 - C1     - C3    
     2      1      7      1    1.1117e+02    3.5690e+02 ;     C2 - C1     - H1    
     2      1      8      1    1.1117e+02    3.5690e+02 ;     C2 - C1     - H2    
     2      4      5      1    1.1360e+02    4.9647e+02 ;     C2 - C4     - C5    
     2      4      6      1    1.0614e+02    6.4793e+02 ;     C2 - C4     - O1    
     2      4     13      1    1.1117e+02    3.5690e+02 ;     C2 - C4     - H7    
     3      1      7      1    1.1117e+02    3.5690e+02 ;     C3 - C1     - H1    
     3      1      8      1    1.1117e+02    3.5690e+02 ;     C3 - C1     - H2    
     3      6      4      1    1.0926e+02    7.4986e+02 ;     C3 - O1     - C4    
     4      2      9      1    1.1117e+02    3.5690e+02 ;     C4 - C2     - H3    
     4      2     10      1    1.1117e+02    3.5690e+02 ;     C4 - C2     - H4    
     4      5     14      1    1.1053e+02    3.6033e+02 ;     C4 - C5     - H8    
     4      5     15      1    1.1053e+02    3.6033e+02 ;     C4 - C5     - H9    
     4      5     16      1    1.1053e+02    3.6033e+02 ;     C4 - C5     - H10   
     5      4      6      1    1.0897e+02    6.4224e+02 ;     C5 - C4     - O1    
     5      4     13      1    1.0924e+02    3.6242e+02 ;     C5 - C4     - H7    
     6      3     11      1    1.0846e+02    4.7229e+02 ;     O1 - C3     - H5    
     6      3     12      1    1.0846e+02    4.7229e+02 ;     O1 - C3     - H6    
     6      4     13      1    1.0846e+02    4.7229e+02 ;     O1 - C4     - H7    
     7      1      8      1    1.0722e+02    3.0049e+02 ;     H1 - C1     - H2    
     9      2     10      1    1.0722e+02    3.0049e+02 ;     H3 - C2     - H4    
    11      3     12      1    1.0813e+02    2.9874e+02 ;     H5 - C3     - H6    
    14      5     15      1    1.0773e+02    2.9957e+02 ;     H8 - C5     - H9    
    14      5     16      1    1.0773e+02    2.9957e+02 ;     H8 - C5     - H10   
    15      5     16      1    1.0773e+02    2.9957e+02 ;     H9 - C5     - H10   

[ dihedrals ] ; propers
; for gromacs 4.5 or higher, using funct 9
;    i      j      k      l   func   phase     kd      pn
     1      2      4      5      9     0.00   2.17568   3 ;     C1-    C2-    C4-    C5
     1      2      4      6      9     0.00   0.65084   3 ;     C1-    C2-    C4-    O1
     1      2      4     13      9     0.00   0.65084   3 ;     C1-    C2-    C4-    H7
     1      3      6      4      9     0.00   0.33472   2 ;     C1-    C3-    O1-    C4
     1      3      6      4      9     0.00   3.13800   3 ;     C1-    C3-    O1-    C4
     1      3      6      4      9   180.00   3.68192   1 ;     C1-    C3-    O1-    C4
     2      1      3      6      9     0.00   0.65084   3 ;     C2-    C1-    C3-    O1
     2      1      3     11      9     0.00   0.65084   3 ;     C2-    C1-    C3-    H5
     2      1      3     12      9     0.00   0.65084   3 ;     C2-    C1-    C3-    H6
     2      4      5     14      9     0.00   0.54392   3 ;     C2-    C4-    C5-    H8
     2      4      5     15      9     0.00   0.54392   3 ;     C2-    C4-    C5-    H9
     2      4      5     16      9     0.00   0.54392   3 ;     C2-    C4-    C5-   H10
     2      4      6      3      9     0.00   0.33472   2 ;     C2-    C4-    O1-    C3
     2      4      6      3      9     0.00   3.13800   3 ;     C2-    C4-    O1-    C3
     2      4      6      3      9   180.00   3.68192   1 ;     C2-    C4-    O1-    C3
     3      1      2      4      9     0.00   2.17568   3 ;     C3-    C1-    C2-    C4
     3      1      2      9      9     0.00   0.54392   3 ;     C3-    C1-    C2-    H3
     3      1      2     10      9     0.00   0.54392   3 ;     C3-    C1-    C2-    H4
     3      6      4      5      9     0.00   0.33472   2 ;     C3-    O1-    C4-    C5
     3      6      4      5      9     0.00   3.13800   3 ;     C3-    O1-    C4-    C5
     3      6      4      5      9   180.00   3.68192   1 ;     C3-    O1-    C4-    C5
     3      6      4     13      9     0.00   1.41001   3 ;     C3-    O1-    C4-    H7
     4      6      3     11      9     0.00   1.41001   3 ;     C4-    O1-    C3-    H5
     4      6      3     12      9     0.00   1.41001   3 ;     C4-    O1-    C3-    H6
     5      4      2      9      9     0.00   0.54392   3 ;     C5-    C4-    C2-    H3
     5      4      2     10      9     0.00   0.54392   3 ;     C5-    C4-    C2-    H4
     6      4      2      9      9     0.00   0.00000   0 ;     O1-    C4-    C2-    H3
     6      4      2      9      9     0.00   1.04600   1 ;     O1-    C4-    C2-    H3
     6      4      2     10      9     0.00   0.00000   0 ;     O1-    C4-    C2-    H4
     6      4      2     10      9     0.00   1.04600   1 ;     O1-    C4-    C2-    H4
     6      4      5     14      9     0.00   0.00000   0 ;     O1-    C4-    C5-    H8
     6      4      5     14      9     0.00   1.04600   1 ;     O1-    C4-    C5-    H8
     6      4      5     15      9     0.00   0.00000   0 ;     O1-    C4-    C5-    H9
     6      4      5     15      9     0.00   1.04600   1 ;     O1-    C4-    C5-    H9
     6      4      5     16      9     0.00   0.00000   0 ;     O1-    C4-    C5-   H10
     6      4      5     16      9     0.00   1.04600   1 ;     O1-    C4-    C5-   H10
     7      1      2      4      9     0.00   0.54392   3 ;     H1-    C1-    C2-    C4
     7      1      2      9      9     0.00   0.50208   3 ;     H1-    C1-    C2-    H3
     7      1      2     10      9     0.00   0.50208   3 ;     H1-    C1-    C2-    H4
     7      1      3      6      9     0.00   0.00000   0 ;     H1-    C1-    C3-    O1
     7      1      3      6      9     0.00   1.04600   1 ;     H1-    C1-    C3-    O1
     7      1      3     11      9     0.00   0.65084   3 ;     H1-    C1-    C3-    H5
     7      1      3     12      9     0.00   0.65084   3 ;     H1-    C1-    C3-    H6
     8      1      2      4      9     0.00   0.54392   3 ;     H2-    C1-    C2-    C4
     8      1      2      9      9     0.00   0.50208   3 ;     H2-    C1-    C2-    H3
     8      1      2     10      9     0.00   0.50208   3 ;     H2-    C1-    C2-    H4
     8      1      3      6      9     0.00   0.00000   0 ;     H2-    C1-    C3-    O1
     8      1      3      6      9     0.00   1.04600   1 ;     H2-    C1-    C3-    O1
     8      1      3     11      9     0.00   0.65084   3 ;     H2-    C1-    C3-    H5
     8      1      3     12      9     0.00   0.65084   3 ;     H2-    C1-    C3-    H6
     9      2      4     13      9     0.00   0.65084   3 ;     H3-    C2-    C4-    H7
    10      2      4     13      9     0.00   0.65084   3 ;     H4-    C2-    C4-    H7
    13      4      5     14      9     0.00   0.65084   3 ;     H7-    C4-    C5-    H8
    13      4      5     15      9     0.00   0.65084   3 ;     H7-    C4-    C5-    H9
    13      4      5     16      9     0.00   0.65084   3 ;     H7-    C4-    C5-   H10
