; mobley_5056289_GMX_OPLS.top created by acpype (v: 2023.10.27) on Wed May 20 23:45:59 2026

; Include forcefield parameters
#include "ffoplsaa.itp"

; Include mobley_5056289_GMX.itp topology
#include "mobley_5056289_GMX.itp"

; Ligand position restraints
#ifdef POSRES_LIG
#include "posre_mobley_5056289.itp"
#endif

[ system ]
 mobley_5056289

[ molecules ]
; Compound        nmols
 mobley_5056289   1     
