mobley_1328465_GMX.gro created by acpype (v: 2023.10.27) on Wed May 20 23:46:00 2026
 8246
    1MOL     C1    1   2.167   2.249   2.232
    1MOL     C2    2   2.229   2.137   2.149
    1MOL    CL1    3   1.989   2.247   2.233
    1MOL    CL2    4   2.184   2.150   1.977
    1MOL    CL3    5   2.187   1.976   2.211
    1MOL     H1    6   2.200   2.241   2.337
    1MOL     H2    7   2.198   2.347   2.195
    1MOL     H3    8   2.338   2.145   2.153
    2SOL     OW    9   0.230   0.628   0.113
    2SOL    HW1   10   0.137   0.626   0.150
    2SOL    HW2   11   0.231   0.589   0.021
    3SOL     OW   12   0.225   0.275   0.996
    3SOL    HW1   13   0.260   0.258   1.088
    3SOL    HW2   14   0.137   0.230   0.984
    4SOL     OW   15   0.019   0.368   0.647
    4SOL    HW1   16  -0.063   0.411   0.686
    4SOL    HW2   17  -0.009   0.295   0.584
    5SOL     OW   18   0.569   1.275   1.165
    5SOL    HW1   19   0.476   1.268   1.128
    5SOL    HW2   20   0.580   1.364   1.209
    6SOL     OW   21   1.555   1.511   0.703
    6SOL    HW1   22   1.498   1.495   0.784
    6SOL    HW2   23   1.496   1.521   0.623
    7SOL     OW   24   1.135   0.703   0.717
    7SOL    HW1   25   1.192   0.781   0.692
    7SOL    HW2   26   1.075   0.729   0.793
    8SOL     OW   27   1.755   0.607   0.231
    8SOL    HW1   28   1.743   0.594   0.132
    8SOL    HW2   29   1.725   0.526   0.280
    9SOL     OW   30   0.768   1.144   1.023
    9SOL    HW1   31   0.690   1.161   1.083
    9SOL    HW2   32   0.802   1.231   0.987
   10SOL     OW   33   0.850   0.798   1.823
   10SOL    HW1   34   0.846   0.874   1.888
   10SOL    HW2   35   0.872   0.834   1.732
   11SOL     OW   36   0.685   1.012   0.665
   11SOL    HW1   37   0.754   0.996   0.735
   11SOL    HW2   38   0.612   1.069   0.703
   12SOL     OW   39   0.686   1.161   1.803
   12SOL    HW1   40   0.746   1.240   1.817
   12SOL    HW2   41   0.600   1.192   1.762
   13SOL     OW   42   0.335   1.435   1.061
   13SOL    HW1   43   0.257   1.404   1.008
   13SOL    HW2   44   0.393   1.493   1.004
   14SOL     OW   45   1.460   1.505   1.339
   14SOL    HW1   46   1.484   1.599   1.365
   14SOL    HW2   47   1.444   1.451   1.421
   15SOL     OW   48   0.438   0.392   1.499
   15SOL    HW1   49   0.520   0.336   1.508
   15SOL    HW2   50   0.357   0.334   1.503
   16SOL     OW   51   1.603   0.447   0.737
   16SOL    HW1   52   1.529   0.493   0.687
   16SOL    HW2   53   1.654   0.515   0.790
   17SOL     OW   54   0.231   1.713   0.483
   17SOL    HW1   55   0.265   1.790   0.537
   17SOL    HW2   56   0.275   1.713   0.393
   18SOL     OW   57   1.127   1.341   1.690
   18SOL    HW1   58   1.174   1.341   1.778
   18SOL    HW2   59   1.079   1.254   1.679
   19SOL     OW   60   0.230   1.434   0.538
   19SOL    HW1   61   0.204   1.530   0.538
   19SOL    HW2   62   0.159   1.380   0.583
   20SOL     OW   63   0.240   1.091   0.886
   20SOL    HW1   64   0.254   1.007   0.938
   20SOL    HW2   65   0.185   1.155   0.941
   21SOL     OW   66   0.620   1.786   1.439
   21SOL    HW1   67   0.528   1.769   1.474
   21SOL    HW2   68   0.648   1.878   1.465
   22SOL     OW   69   0.606   0.964   0.123
   22SOL    HW1   70   0.613   1.048   0.069
   22SOL    HW2   71   0.652   0.977   0.211
   23SOL     OW   72   1.594   0.114   1.480
   23SOL    HW1   73   1.576   0.181   1.408
   23SOL    HW2   74   1.591   0.160   1.569
   24SOL     OW   75   0.122   0.643   0.563
   24SOL    HW1   76   0.077   0.555   0.580
   24SOL    HW2   77   0.121   0.697   0.647
   25SOL     OW   78   1.842   1.767   0.359
   25SOL    HW1   79   1.896   1.738   0.439
   25SOL    HW2   80   1.872   1.857   0.330
   26SOL     OW   81   0.027   1.596   0.117
   26SOL    HW1   82   0.008   1.500   0.138
   26SOL    HW2   83  -0.006   1.654   0.192
   27SOL     OW   84   1.689   0.922   0.612
   27SOL    HW1   85   1.784   0.893   0.620
   27SOL    HW2   86   1.681   0.987   0.537
   28SOL     OW   87   1.641   1.108   0.432
   28SOL    HW1   88   1.727   1.110   0.380
   28SOL    HW2   89   1.655   1.155   0.520
   29SOL     OW   90   0.113   0.737   1.597
   29SOL    HW1   91   0.201   0.724   1.642
   29SOL    HW2   92   0.100   0.834   1.575
   30SOL     OW   93   0.613   1.365   0.726
   30SOL    HW1   94   0.564   1.278   0.735
   30SOL    HW2   95   0.590   1.408   0.639
   31SOL     OW   96   1.293   1.228   1.423
   31SOL    HW1   97   1.330   1.155   1.365
   31SOL    HW2   98   1.345   1.233   1.508
   32SOL     OW   99   0.809   0.004   0.502
   32SOL    HW1  100   0.849   0.095   0.493
   32SOL    HW2  101   0.709   0.012   0.508
   33SOL     OW  102   0.197   0.976   1.264
   33SOL    HW1  103   0.286   0.931   1.250
   33SOL    HW2  104   0.124   0.911   1.245
   34SOL     OW  105   1.525   0.999   0.190
   34SOL    HW1  106   1.462   0.923   0.203
   34SOL    HW2  107   1.573   1.017   0.276
   35SOL     OW  108   1.187   1.792   1.616
   35SOL    HW1  109   1.211   1.852   1.540
   35SOL    HW2  110   1.194   1.697   1.586
   36SOL     OW  111   0.317   0.251   1.801
   36SOL    HW1  112   0.388   0.322   1.807
   36SOL    HW2  113   0.229   0.290   1.829
   37SOL     OW  114   1.466   1.417   0.953
   37SOL    HW1  115   1.407   1.423   1.033
   37SOL    HW2  116   1.451   1.329   0.907
   38SOL     OW  117   1.667   1.714   0.572
   38SOL    HW1  118   1.626   1.691   0.484
   38SOL    HW2  119   1.649   1.640   0.637
   39SOL     OW  120   0.598   0.729   0.270
   39SOL    HW1  121   0.622   0.798   0.202
   39SOL    HW2  122   0.520   0.762   0.324
   40SOL     OW  123   1.281   0.345   0.944
   40SOL    HW1  124   1.195   0.295   0.931
   40SOL    HW2  125   1.343   0.291   1.000
   41SOL     OW  126   1.576   1.662   0.307
   41SOL    HW1  127   1.665   1.708   0.310
   41SOL    HW2  128   1.555   1.638   0.212
   42SOL     OW  129   0.807   0.605   1.465
   42SOL    HW1  130   0.760   0.602   1.554
   42SOL    HW2  131   0.756   0.550   1.399
   43SOL     OW  132   1.394   0.469   1.674
   43SOL    HW1  133   1.374   0.512   1.762
   43SOL    HW2  134   1.472   0.407   1.683
   44SOL     OW  135   0.973   0.890   1.572
   44SOL    HW1  136   1.019   0.806   1.543
   44SOL    HW2  137   0.917   0.924   1.497
   45SOL     OW  138   0.991   0.410   1.242
   45SOL    HW1  139   0.914   0.444   1.296
   45SOL    HW2  140   0.957   0.359   1.163
   46SOL     OW  141   1.041   0.701   0.429
   46SOL    HW1  142   1.067   0.697   0.525
   46SOL    HW2  143   0.956   0.650   0.415
   47SOL     OW  144   0.076   0.811   0.789
   47SOL    HW1  145   0.175   0.799   0.798
   47SOL    HW2  146   0.052   0.906   0.810
   48SOL     OW  147   0.130   1.821   1.571
   48SOL    HW1  148   0.120   1.806   1.670
   48SOL    HW2  149   0.044   1.857   1.535
   49SOL     OW  150   0.865   0.348   0.195
   49SOL    HW1  151   0.924   0.411   0.146
   49SOL    HW2  152   0.884   0.254   0.166
   50SOL     OW  153   1.719   0.585   1.831
   50SOL    HW1  154   1.693   0.674   1.795
   50SOL    HW2  155   1.717   0.517   1.758
   51SOL     OW  156   1.362   1.144   0.545
   51SOL    HW1  157   1.445   1.115   0.497
   51SOL    HW2  158   1.313   1.211   0.489
   52SOL     OW  159   0.550   0.196   0.885
   52SOL    HW1  160   0.545   0.191   0.985
   52SOL    HW2  161   0.552   0.292   0.856
   53SOL     OW  162   1.008   1.456   0.477
   53SOL    HW1  163   0.962   1.528   0.425
   53SOL    HW2  164   1.004   1.476   0.575
   54SOL     OW  165   0.351   1.801   0.853
   54SOL    HW1  166   0.401   1.715   0.859
   54SOL    HW2  167   0.416   1.878   0.850
   55SOL     OW  168   1.795   1.066   0.873
   55SOL    HW1  169   1.733   1.051   0.797
   55SOL    HW2  170   1.743   1.077   0.958
   56SOL     OW  171   1.227   1.550   1.506
   56SOL    HW1  172   1.233   1.473   1.570
   56SOL    HW2  173   1.175   1.524   1.426
   57SOL     OW  174   0.321   0.943   0.242
   57SOL    HW1  175   0.403   0.982   0.200
   57SOL    HW2  176   0.294   0.861   0.193
   58SOL     OW  177   1.458   0.735   0.728
   58SOL    HW1  178   1.453   0.670   0.803
   58SOL    HW2  179   1.538   0.794   0.741
   59SOL     OW  180   0.461   1.266   1.727
   59SOL    HW1  181   0.411   1.267   1.641
   59SOL    HW2  182   0.398   1.248   1.803
   60SOL     OW  183   1.111   1.776   0.237
   60SOL    HW1  184   1.051   1.714   0.287
   60SOL    HW2  185   1.142   1.732   0.152
   61SOL     OW  186   0.202   0.285   1.498
   61SOL    HW1  187   0.122   0.345   1.485
   61SOL    HW2  188   0.192   0.236   1.584
   62SOL     OW  189   1.632   1.377   0.081
   62SOL    HW1  190   1.600   1.471   0.071
   62SOL    HW2  191   1.556   1.314   0.069
   63SOL     OW  192   0.464   1.743   0.323
   63SOL    HW1  193   0.497   1.782   0.409
   63SOL    HW2  194   0.540   1.736   0.258
   64SOL     OW  195   1.400   0.107   0.426
   64SOL    HW1  196   1.376   0.070   0.336
   64SOL    HW2  197   1.499   0.123   0.430
   65SOL     OW  198   0.249   1.785   1.241
   65SOL    HW1  199   0.306   1.720   1.291
   65SOL    HW2  200   0.233   1.752   1.148
   66SOL     OW  201   0.940   1.698   0.904
   66SOL    HW1  202   1.020   1.641   0.925
   66SOL    HW2  203   0.891   1.658   0.827
   67SOL     OW  204   0.382   0.700   0.480
   67SOL    HW1  205   0.427   0.610   0.477
   67SOL    HW2  206   0.288   0.689   0.513
   68SOL     OW  207   1.547   0.222   1.729
   68SOL    HW1  208   1.542   0.259   1.821
   68SOL    HW2  209   1.475   0.153   1.717
   69SOL     OW  210   0.614   0.122   0.117
   69SOL    HW1  211   0.712   0.100   0.124
   69SOL    HW2  212   0.583   0.105   0.024
   70SOL     OW  213   0.781   0.264   1.749
   70SOL    HW1  214   0.848   0.203   1.792
   70SOL    HW2  215   0.708   0.283   1.814
   71SOL     OW  216   0.888   1.514   1.195
   71SOL    HW1  217   0.865   1.489   1.101
   71SOL    HW2  218   0.949   1.445   1.234
   72SOL     OW  219   1.351   0.590   1.433
   72SOL    HW1  220   1.379   0.547   1.518
   72SOL    HW2  221   1.376   0.686   1.434
   73SOL     OW  222   0.803   1.402   0.924
   73SOL    HW1  223   0.893   1.416   0.882
   73SOL    HW2  224   0.732   1.404   0.853
   74SOL     OW  225   0.922   0.503   0.899
   74SOL    HW1  226   0.897   0.494   0.803
   74SOL    HW2  227   0.970   0.421   0.930
   75SOL     OW  228   0.539   0.064   0.512
   75SOL    HW1  229   0.458   0.065   0.570
   75SOL    HW2  230   0.542   0.147   0.457
   76SOL     OW  231   1.434   1.188   0.041
   76SOL    HW1  232   1.466   1.112   0.098
   76SOL    HW2  233   1.342   1.215   0.071
   77SOL     OW  234   0.297   0.035   0.171
   77SOL    HW1  235   0.346   0.119   0.150
   77SOL    HW2  236   0.359  -0.030   0.216
   78SOL     OW  237   0.935   0.236   0.480
   78SOL    HW1  238   0.887   0.277   0.402
   78SOL    HW2  239   1.034   0.234   0.461
   79SOL     OW  240   1.076   0.683   1.464
   79SOL    HW1  241   0.996   0.622   1.467
   79SOL    HW2  242   1.157   0.630   1.440
   80SOL     OW  243   1.227   1.570   0.793
   80SOL    HW1  244   1.248   1.644   0.728
   80SOL    HW2  245   1.295   1.570   0.866
   81SOL     OW  246   0.459   1.152   0.741
   81SOL    HW1  247   0.388   1.125   0.806
   81SOL    HW2  248   0.433   1.124   0.648
   82SOL     OW  249   1.271   1.797   0.591
   82SOL    HW1  250   1.315   1.861   0.527
   82SOL    HW2  251   1.221   1.849   0.661
   83SOL     OW  252   1.032   0.549   0.016
   83SOL    HW1  253   0.991   0.631  -0.023
   83SOL    HW2  254   1.096   0.575   0.089
   84SOL     OW  255   0.078   0.556   1.386
   84SOL    HW1  256   0.170   0.555   1.345
   84SOL    HW2  257   0.072   0.630   1.453
   85SOL     OW  258   0.561   0.222   1.147
   85SOL    HW1  259   0.599   0.138   1.184
   85SOL    HW2  260   0.473   0.241   1.191
   86SOL     OW  261   0.866   0.454   0.642
   86SOL    HW1  262   0.834   0.526   0.580
   86SOL    HW2  263   0.890   0.373   0.589
   87SOL     OW  264   1.017   0.039   0.753
   87SOL    HW1  265   0.945   0.044   0.684
   87SOL    HW2  266   0.993  -0.030   0.822
   88SOL     OW  267   1.429   1.173   0.867
   88SOL    HW1  268   1.374   1.089   0.860
   88SOL    HW2  269   1.455   1.202   0.775
   89SOL     OW  270   1.466   0.590   0.992
   89SOL    HW1  271   1.436   0.495   0.999
   89SOL    HW2  272   1.539   0.606   1.058
   90SOL     OW  273   1.857   0.833   0.377
   90SOL    HW1  274   1.899   0.769   0.441
   90SOL    HW2  275   1.819   0.782   0.299
   91SOL     OW  276   0.488   1.385   0.174
   91SOL    HW1  277   0.401   1.370   0.221
   91SOL    HW2  278   0.471   1.411   0.079
   92SOL     OW  279   1.664   1.280   0.657
   92SOL    HW1  280   1.763   1.288   0.671
   92SOL    HW2  281   1.619   1.364   0.688
   93SOL     OW  282   1.390   0.575   0.078
   93SOL    HW1  283   1.336   0.554   0.159
   93SOL    HW2  284   1.481   0.534   0.087
   94SOL     OW  285   0.527   0.256   0.328
   94SOL    HW1  286   0.554   0.197   0.253
   94SOL    HW2  287   0.527   0.351   0.297
   95SOL     OW  288   1.754   1.223   1.588
   95SOL    HW1  289   1.845   1.184   1.575
   95SOL    HW2  290   1.762   1.319   1.612
   96SOL     OW  291   1.064   1.347   1.340
   96SOL    HW1  292   0.984   1.324   1.395
   96SOL    HW2  293   1.147   1.321   1.389
   97SOL     OW  294   1.592   1.629   1.625
   97SOL    HW1  295   1.619   1.663   1.535
   97SOL    HW2  296   1.671   1.591   1.671
   98SOL     OW  297   1.111   1.195   1.100
   98SOL    HW1  298   1.071   1.239   1.181
   98SOL    HW2  299   1.070   1.232   1.017
   99SOL     OW  300   1.638   1.099   1.079
   99SOL    HW1  301   1.643   1.180   1.138
   99SOL    HW2  302   1.552   1.101   1.028
  100SOL     OW  303   0.915   0.089   1.402
  100SOL    HW1  304   0.940   0.069   1.307
  100SOL    HW2  305   0.987   0.145   1.444
  101SOL     OW  306   0.980   1.116   1.719
  101SOL    HW1  307   0.881   1.122   1.729
  101SOL    HW2  308   1.003   1.036   1.663
  102SOL     OW  309   0.705   1.050   0.368
  102SOL    HW1  310   0.691   1.057   0.467
  102SOL    HW2  311   0.789   0.999   0.350
  103SOL     OW  312   0.410   0.813   1.251
  103SOL    HW1  313   0.496   0.825   1.301
  103SOL    HW2  314   0.368   0.726   1.278
  104SOL     OW  315   1.274   0.386   1.262
  104SOL    HW1  316   1.295   0.460   1.326
  104SOL    HW2  317   1.185   0.403   1.219
  105SOL     OW  318   0.064   1.564   1.331
  105SOL    HW1  319   0.018   1.646   1.297
  105SOL    HW2  320   0.162   1.583   1.340
  106SOL     OW  321   0.367   1.100   0.501
  106SOL    HW1  322   0.360   1.183   0.445
  106SOL    HW2  323   0.371   1.020   0.441
  107SOL     OW  324   0.566   0.537   0.865
  107SOL    HW1  325   0.578   0.603   0.791
  107SOL    HW2  326   0.612   0.571   0.948
  108SOL     OW  327   1.252   1.348   0.388
  108SOL    HW1  328   1.302   1.425   0.428
  108SOL    HW2  329   1.157   1.350   0.420
  109SOL     OW  330   1.272   1.445   1.142
  109SOL    HW1  331   1.319   1.458   1.229
  109SOL    HW2  332   1.206   1.371   1.151
  110SOL     OW  333   1.582   0.639   0.472
  110SOL    HW1  334   1.551   0.700   0.545
  110SOL    HW2  335   1.632   0.691   0.403
  111SOL     OW  336   0.354   1.510   1.329
  111SOL    HW1  337   0.333   1.466   1.242
  111SOL    HW2  338   0.451   1.536   1.332
  112SOL     OW  339   0.402   0.751   1.598
  112SOL    HW1  340   0.470   0.806   1.551
  112SOL    HW2  341   0.442   0.663   1.625
  113SOL     OW  342   1.587   0.779   1.670
  113SOL    HW1  343   1.495   0.817   1.665
  113SOL    HW2  344   1.647   0.826   1.605
  114SOL     OW  345   1.013   0.105   1.770
  114SOL    HW1  346   1.019   0.190   1.718
  114SOL    HW2  347   1.045   0.029   1.713
  115SOL     OW  348   0.504   0.050   1.740
  115SOL    HW1  349   0.462  -0.007   1.670
  115SOL    HW2  350   0.438   0.119   1.772
  116SOL     OW  351   0.573   0.870   1.029
  116SOL    HW1  352   0.617   0.959   1.020
  116SOL    HW2  353   0.510   0.870   1.106
  117SOL     OW  354   1.360   0.862   1.045
  117SOL    HW1  355   1.285   0.862   0.979
  117SOL    HW2  356   1.397   0.770   1.054
  118SOL     OW  357   1.209   0.525   0.275
  118SOL    HW1  358   1.222   0.441   0.329
  118SOL    HW2  359   1.180   0.599   0.335
  119SOL     OW  360   0.307   0.213   1.231
  119SOL    HW1  361   0.284   0.250   1.321
  119SOL    HW2  362   0.277   0.118   1.225
  120SOL     OW  363   0.037   1.310   1.282
  120SOL    HW1  364   0.090   1.261   1.350
  120SOL    HW2  365   0.059   1.408   1.287
  121SOL     OW  366   0.732   0.634   1.064
  121SOL    HW1  367   0.791   0.608   0.988
  121SOL    HW2  368   0.704   0.730   1.053
  122SOL     OW  369   1.728   0.935   1.854
  122SOL    HW1  370   1.682   0.928   1.765
  122SOL    HW2  371   1.666   0.979   1.920
  123SOL     OW  372   0.307   0.063   0.618
  123SOL    HW1  373   0.296   0.157   0.651
  123SOL    HW2  374   0.302   0.000   0.695
  124SOL     OW  375   1.622   0.367   0.374
  124SOL    HW1  376   1.624   0.291   0.438
  124SOL    HW2  377   1.574   0.444   0.414
  125SOL     OW  378   1.023   0.766   0.966
  125SOL    HW1  379   1.038   0.787   1.062
  125SOL    HW2  380   0.993   0.671   0.957
  126SOL     OW  381   0.980   1.573   1.700
  126SOL    HW1  382   0.960   1.617   1.612
  126SOL    HW2  383   1.019   1.482   1.684
  127SOL     OW  384   1.859   1.518   1.605
  127SOL    HW1  385   1.873   1.545   1.510
  127SOL    HW2  386   1.942   1.540   1.658
  128SOL     OW  387   0.350   0.898   1.804
  128SOL    HW1  388   0.426   0.942   1.852
  128SOL    HW2  389   0.385   0.851   1.722
  129SOL     OW  390   1.540   0.274   0.125
  129SOL    HW1  391   1.479   0.199   0.148
  129SOL    HW2  392   1.562   0.326   0.208
  130SOL     OW  393   1.303   0.838   0.042
  130SOL    HW1  394   1.337   0.745   0.057
  130SOL    HW2  395   1.321   0.865  -0.053
  131SOL     OW  396   1.068   1.333   0.849
  131SOL    HW1  397   1.075   1.249   0.794
  131SOL    HW2  398   1.130   1.402   0.813
  132SOL     OW  399   0.319   0.810   0.949
  132SOL    HW1  400   0.412   0.846   0.954
  132SOL    HW2  401   0.313   0.725   1.001
  133SOL     OW  402   0.339   0.509   1.006
  133SOL    HW1  403   0.287   0.426   0.989
  133SOL    HW2  404   0.416   0.514   0.942
  134SOL     OW  405   1.138   0.380   1.678
  134SOL    HW1  406   1.093   0.443   1.742
  134SOL    HW2  407   1.231   0.411   1.661
  135SOL     OW  408   1.160   0.207   1.477
  135SOL    HW1  409   1.160   0.271   1.554
  135SOL    HW2  410   1.188   0.255   1.394
  136SOL     OW  411   0.008   1.326   0.200
  136SOL    HW1  412  -0.085   1.347   0.169
  136SOL    HW2  413   0.018   1.227   0.213
  137SOL     OW  414   0.088   1.801   0.927
  137SOL    HW1  415   0.046   1.715   0.900
  137SOL    HW2  416   0.182   1.804   0.893
  138SOL     OW  417   0.504   1.568   0.910
  138SOL    HW1  418   0.570   1.642   0.919
  138SOL    HW2  419   0.548   1.489   0.868
  139SOL     OW  420   1.002   0.796   1.238
  139SOL    HW1  421   1.043   0.764   1.324
  139SOL    HW2  422   0.906   0.769   1.235
  140SOL     OW  423   0.040   0.544   1.114
  140SOL    HW1  424   0.125   0.511   1.073
  140SOL    HW2  425   0.053   0.559   1.212
  141SOL     OW  426   0.189   0.520   1.722
  141SOL    HW1  427   0.248   0.480   1.652
  141SOL    HW2  428   0.131   0.591   1.681
  142SOL     OW  429   1.369   0.950   1.660
  142SOL    HW1  430   1.408   1.039   1.680
  142SOL    HW2  431   1.379   0.930   1.563
  143SOL     OW  432   0.815   0.572   0.325
  143SOL    HW1  433   0.822   0.483   0.279
  143SOL    HW2  434   0.721   0.606   0.317
  144SOL     OW  435   1.657   0.604   1.206
  144SOL    HW1  436   1.619   0.535   1.268
  144SOL    HW2  437   1.739   0.568   1.162
  145SOL     OW  438   0.252   1.564   1.744
  145SOL    HW1  439   0.222   1.621   1.820
  145SOL    HW2  440   0.245   1.467   1.770
  146SOL     OW  441   0.671   0.464   1.269
  146SOL    HW1  442   0.637   0.375   1.239
  146SOL    HW2  443   0.697   0.518   1.189
  147SOL     OW  444   0.930   1.678   1.465
  147SOL    HW1  445   0.906   1.660   1.370
  147SOL    HW2  446   0.960   1.772   1.475
  148SOL     OW  447   0.473   0.500   0.191
  148SOL    HW1  448   0.534   0.580   0.195
  148SOL    HW2  449   0.378   0.531   0.198
  149SOL     OW  450   0.159   1.137   1.466
  149SOL    HW1  451   0.181   1.076   1.542
  149SOL    HW2  452   0.169   1.088   1.380
  150SOL     OW  453   1.347   1.059   1.234
  150SOL    HW1  454   1.371   0.996   1.160
  150SOL    HW2  455   1.257   1.099   1.216
  151SOL     OW  456   1.302   0.855   0.309
  151SOL    HW1  457   1.216   0.824   0.351
  151SOL    HW2  458   1.298   0.841   0.210
  152SOL     OW  459   1.759   1.747   1.154
  152SOL    HW1  460   1.820   1.777   1.081
  152SOL    HW2  461   1.721   1.658   1.132
  153SOL     OW  462   1.252   1.731   1.128
  153SOL    HW1  463   1.336   1.736   1.074
  153SOL    HW2  464   1.229   1.635   1.146
  154SOL     OW  465   0.083   1.258   1.022
  154SOL    HW1  466   0.078   1.257   1.122
  154SOL    HW2  467   0.000   1.217   0.984
  155SOL     OW  468   0.688   1.662   1.716
  155SOL    HW1  469   0.632   1.743   1.725
  155SOL    HW2  470   0.740   1.666   1.630
  156SOL     OW  471   0.903   0.086   0.133
  156SOL    HW1  472   0.954   0.087   0.047
  156SOL    HW2  473   0.959   0.044   0.204
  157SOL     OW  474   1.726   0.135   0.523
  157SOL    HW1  475   1.799   0.118   0.456
  157SOL    HW2  476   1.695   0.048   0.561
  158SOL     OW  477   1.388   1.573   0.477
  158SOL    HW1  478   1.455   1.585   0.403
  158SOL    HW2  479   1.348   1.662   0.500
  159SOL     OW  480   0.130   1.794   1.851
  159SOL    HW1  481   0.089   1.720   1.904
  159SOL    HW2  482   0.194   1.845   1.909
  160SOL     OW  483   1.280   0.927   0.672
  160SOL    HW1  484   1.340   0.846   0.674
  160SOL    HW2  485   1.320   0.996   0.612
  161SOL     OW  486   0.830   1.273   1.422
  161SOL    HW1  487   0.825   1.306   1.517
  161SOL    HW2  488   0.744   1.292   1.376
  162SOL     OW  489   0.672   1.616   0.154
  162SOL    HW1  490   0.681   1.626   0.055
  162SOL    HW2  491   0.632   1.527   0.175
  163SOL     OW  492   1.650   1.720   1.394
  163SOL    HW1  493   1.703   1.730   1.310
  163SOL    HW2  494   1.623   1.810   1.428
  164SOL     OW  495   1.841   0.175   0.963
  164SOL    HW1  496   1.880   0.090   0.927
  164SOL    HW2  497   1.743   0.177   0.944
  165SOL     OW  498   0.263   0.326   0.720
  165SOL    HW1  499   0.184   0.377   0.686
  165SOL    HW2  500   0.254   0.311   0.818
  166SOL     OW  501   1.194   1.612   0.031
  166SOL    HW1  502   1.200   1.519   0.068
  166SOL    HW2  503   1.135   1.612  -0.049
  167SOL     OW  504   0.822   1.002   1.372
  167SOL    HW1  505   0.862   1.001   1.280
  167SOL    HW2  506   0.832   1.094   1.412
  168SOL     OW  507   0.916   0.910   0.291
  168SOL    HW1  508   0.979   0.948   0.223
  168SOL    HW2  509   0.956   0.827   0.330
  169SOL     OW  510   1.504   1.607   0.044
  169SOL    HW1  511   1.412   1.644   0.051
  169SOL    HW2  512   1.542   1.627  -0.046
  170SOL     OW  513   0.372   1.288   1.490
  170SOL    HW1  514   0.359   1.381   1.456
  170SOL    HW2  515   0.288   1.236   1.477
  171SOL     OW  516   1.614   1.292   1.289
  171SOL    HW1  517   1.674   1.295   1.369
  171SOL    HW2  518   1.539   1.356   1.302
  172SOL     OW  519   1.039   1.098   0.696
  172SOL    HW1  520   0.969   1.051   0.750
  172SOL    HW2  521   1.098   1.030   0.653
  173SOL     OW  522   1.014   0.236   0.971
  173SOL    HW1  523   1.006   0.200   0.878
  173SOL    HW2  524   1.012   0.160   1.036
  174SOL     OW  525   0.590   1.487   0.491
  174SOL    HW1  526   0.632   1.429   0.421
  174SOL    HW2  527   0.546   1.566   0.447
  175SOL     OW  528   1.709   0.385   1.381
  175SOL    HW1  529   1.782   0.454   1.385
  175SOL    HW2  530   1.737   0.310   1.322
  176SOL     OW  531   0.255   1.348   0.290
  176SOL    HW1  532   0.159   1.349   0.263
  176SOL    HW2  533   0.267   1.401   0.374
  177SOL     OW  534   0.105   1.013   1.726
  177SOL    HW1  535   0.028   0.980   1.780
  177SOL    HW2  536   0.190   0.983   1.768
  178SOL     OW  537   0.672   0.203   1.489
  178SOL    HW1  538   0.762   0.187   1.449
  178SOL    HW2  539   0.680   0.208   1.588
  179SOL     OW  540   0.075   0.345   0.033
  179SOL    HW1  541  -0.017   0.317   0.004
  179SOL    HW2  542   0.106   0.422  -0.023
  180SOL     OW  543   1.440   0.856   1.398
  180SOL    HW1  544   1.383   0.908   1.335
  180SOL    HW2  545   1.536   0.868   1.374
  181SOL     OW  546   0.072   0.166   0.318
  181SOL    HW1  547   0.055   0.249   0.264
  181SOL    HW2  548   0.162   0.129   0.296
  182SOL     OW  549   1.183   1.335   0.119
  182SOL    HW1  550   1.084   1.324   0.121
  182SOL    HW2  551   1.217   1.350   0.212
  183SOL     OW  552   0.613   0.842   1.431
  183SOL    HW1  553   0.669   0.923   1.414
  183SOL    HW2  554   0.672   0.762   1.434
  184SOL     OW  555   1.493   1.767   0.959
  184SOL    HW1  556   1.526   1.831   0.890
  184SOL    HW2  557   1.559   1.761   1.034
  185SOL     OW  558   0.716   0.565   1.708
  185SOL    HW1  559   0.735   0.630   1.782
  185SOL    HW2  560   0.776   0.485   1.717
  186SOL     OW  561   1.450   1.220   1.633
  186SOL    HW1  562   1.441   1.210   1.732
  186SOL    HW2  563   1.546   1.213   1.607
  187SOL     OW  564   0.390   1.741   1.560
  187SOL    HW1  565   0.299   1.782   1.558
  187SOL    HW2  566   0.383   1.647   1.592
  188SOL     OW  567   1.674   0.883   1.254
  188SOL    HW1  568   1.647   0.794   1.217
  188SOL    HW2  569   1.675   0.951   1.181
  189SOL     OW  570   1.225   0.325   0.449
  189SOL    HW1  571   1.290   0.251   0.438
  189SOL    HW2  572   1.245   0.375   0.533
  190SOL     OW  573   0.594   0.745   0.652
  190SOL    HW1  574   0.644   0.830   0.633
  190SOL    HW2  575   0.506   0.747   0.604
  191SOL     OW  576   1.777   0.342   1.642
  191SOL    HW1  577   1.760   0.373   1.548
  191SOL    HW2  578   1.693   0.305   1.680
  192SOL     OW  579   1.730   0.934   1.517
  192SOL    HW1  580   1.768   1.025   1.532
  192SOL    HW2  581   1.722   0.917   1.418
  193SOL     OW  582   0.859   1.374   0.016
  193SOL    HW1  583   0.813   1.389   0.104
  193SOL    HW2  584   0.903   1.459  -0.014
  194SOL     OW  585   0.661   1.790   0.953
  194SOL    HW1  586   0.615   1.878   0.940
  194SOL    HW2  587   0.760   1.802   0.946
  195SOL     OW  588   0.859   0.956   0.861
  195SOL    HW1  589   0.913   0.887   0.909
  195SOL    HW2  590   0.827   1.025   0.927
  196SOL     OW  591   1.083   0.984   0.087
  196SOL    HW1  592   1.060   1.037   0.005
  196SOL    HW2  593   1.164   0.928   0.068
  197SOL     OW  594   1.861   1.569   0.851
  197SOL    HW1  595   1.790   1.557   0.781
  197SOL    HW2  596   1.862   1.490   0.911
  198SOL     OW  597   0.221   1.314   1.844
  198SOL    HW1  598   0.156   1.241   1.823
  198SOL    HW2  599   0.225   1.328   1.942
  199SOL     OW  600   0.079   1.240   0.653
  199SOL    HW1  601   0.078   1.193   0.741
  199SOL    HW2  602   0.161   1.212   0.602
  200SOL     OW  603   0.672   1.391   1.624
  200SOL    HW1  604   0.594   1.341   1.662
  200SOL    HW2  605   0.669   1.486   1.655
  201SOL     OW  606   1.824   0.192   1.227
  201SOL    HW1  607   1.820   0.102   1.271
  201SOL    HW2  608   1.827   0.181   1.128
  202SOL     OW  609   0.428   0.424   0.520
  202SOL    HW1  610   0.458   0.352   0.458
  202SOL    HW2  611   0.389   0.384   0.603
  203SOL     OW  612   1.705   1.487   1.104
  203SOL    HW1  613   1.612   1.462   1.077
  203SOL    HW2  614   1.731   1.437   1.186
  204SOL     OW  615   0.317   0.547   1.280
  204SOL    HW1  616   0.355   0.488   1.352
  204SOL    HW2  617   0.357   0.521   1.192
  205SOL     OW  618   0.812   1.586   0.687
  205SOL    HW1  619   0.844   1.596   0.593
  205SOL    HW2  620   0.733   1.524   0.689
  206SOL     OW  621   1.424   0.214   1.112
  206SOL    HW1  622   1.476   0.149   1.167
  206SOL    HW2  623   1.375   0.277   1.173
  207SOL     OW  624   1.001   0.034   1.154
  207SOL    HW1  625   0.938  -0.038   1.123
  207SOL    HW2  626   1.094  -0.002   1.154
  208SOL     OW  627   0.770   1.330   0.301
  208SOL    HW1  628   0.724   1.243   0.318
  208SOL    HW2  629   0.861   1.327   0.342
  209SOL     OW  630   0.618   1.567   1.284
  209SOL    HW1  631   0.613   1.649   1.341
  209SOL    HW2  632   0.707   1.564   1.239
  210SOL     OW  633   1.352   0.052   0.168
  210SOL    HW1  634   1.387   0.011   0.084
  210SOL    HW2  635   1.262   0.014   0.188
  211SOL     OW  636   1.300   0.453   0.691
  211SOL    HW1  637   1.241   0.533   0.695
  211SOL    HW2  638   1.315   0.418   0.784
  212SOL     OW  639   1.593   0.221   0.882
  212SOL    HW1  640   1.509   0.220   0.936
  212SOL    HW2  641   1.595   0.304   0.826
  213SOL     OW  642   0.039   1.077   0.300
  213SOL    HW1  643   0.138   1.066   0.291
  213SOL    HW2  644  -0.001   0.991   0.332
  214SOL     OW  645   0.875   1.646   0.337
  214SOL    HW1  646   0.798   1.611   0.283
  214SOL    HW2  647   0.843   1.717   0.399
  215SOL     OW  648   0.230   0.628   1.975
  215SOL    HW1  649   0.137   0.626   2.012
  215SOL    HW2  650   0.231   0.589   1.883
  216SOL     OW  651   0.225   0.275   2.858
  216SOL    HW1  652   0.260   0.258   2.950
  216SOL    HW2  653   0.137   0.230   2.846
  217SOL     OW  654   0.019   0.368   2.509
  217SOL    HW1  655  -0.063   0.411   2.548
  217SOL    HW2  656  -0.009   0.295   2.446
  218SOL     OW  657   0.569   1.275   3.027
  218SOL    HW1  658   0.476   1.268   2.990
  218SOL    HW2  659   0.580   1.364   3.071
  219SOL     OW  660   1.555   1.511   2.565
  219SOL    HW1  661   1.498   1.495   2.646
  219SOL    HW2  662   1.496   1.521   2.485
  220SOL     OW  663   1.135   0.703   2.579
  220SOL    HW1  664   1.192   0.781   2.554
  220SOL    HW2  665   1.075   0.729   2.655
  221SOL     OW  666   1.755   0.607   2.093
  221SOL    HW1  667   1.743   0.594   1.994
  221SOL    HW2  668   1.725   0.526   2.142
  222SOL     OW  669   0.768   1.144   2.885
  222SOL    HW1  670   0.690   1.161   2.945
  222SOL    HW2  671   0.802   1.231   2.849
  223SOL     OW  672   0.850   0.798   3.685
  223SOL    HW1  673   0.846   0.874   3.750
  223SOL    HW2  674   0.872   0.834   3.594
  224SOL     OW  675   0.685   1.012   2.527
  224SOL    HW1  676   0.754   0.996   2.597
  224SOL    HW2  677   0.612   1.069   2.565
  225SOL     OW  678   0.686   1.161   3.665
  225SOL    HW1  679   0.746   1.240   3.679
  225SOL    HW2  680   0.600   1.192   3.624
  226SOL     OW  681   0.335   1.435   2.923
  226SOL    HW1  682   0.257   1.404   2.870
  226SOL    HW2  683   0.393   1.493   2.866
  227SOL     OW  684   1.460   1.505   3.201
  227SOL    HW1  685   1.484   1.599   3.227
  227SOL    HW2  686   1.444   1.451   3.283
  228SOL     OW  687   0.438   0.392   3.361
  228SOL    HW1  688   0.520   0.336   3.370
  228SOL    HW2  689   0.357   0.334   3.365
  229SOL     OW  690   1.603   0.447   2.599
  229SOL    HW1  691   1.529   0.493   2.549
  229SOL    HW2  692   1.654   0.515   2.652
  230SOL     OW  693   0.231   1.713   2.345
  230SOL    HW1  694   0.265   1.790   2.399
  230SOL    HW2  695   0.275   1.713   2.255
  231SOL     OW  696   1.127   1.341   3.552
  231SOL    HW1  697   1.174   1.341   3.640
  231SOL    HW2  698   1.079   1.254   3.541
  232SOL     OW  699   0.230   1.434   2.400
  232SOL    HW1  700   0.204   1.530   2.400
  232SOL    HW2  701   0.159   1.380   2.445
  233SOL     OW  702   0.240   1.091   2.748
  233SOL    HW1  703   0.254   1.007   2.800
  233SOL    HW2  704   0.185   1.155   2.803
  234SOL     OW  705   0.620   1.786   3.301
  234SOL    HW1  706   0.528   1.769   3.336
  234SOL    HW2  707   0.648   1.878   3.327
  235SOL     OW  708   0.606   0.964   1.985
  235SOL    HW1  709   0.613   1.048   1.931
  235SOL    HW2  710   0.652   0.977   2.073
  236SOL     OW  711   1.594   0.114   3.342
  236SOL    HW1  712   1.576   0.181   3.270
  236SOL    HW2  713   1.591   0.160   3.431
  237SOL     OW  714   0.122   0.643   2.425
  237SOL    HW1  715   0.077   0.555   2.442
  237SOL    HW2  716   0.121   0.697   2.509
  238SOL     OW  717   1.842   1.767   2.221
  238SOL    HW1  718   1.896   1.738   2.301
  238SOL    HW2  719   1.872   1.857   2.192
  239SOL     OW  720   0.027   1.596   1.979
  239SOL    HW1  721   0.008   1.500   2.000
  239SOL    HW2  722  -0.006   1.654   2.054
  240SOL     OW  723   1.689   0.922   2.474
  240SOL    HW1  724   1.784   0.893   2.482
  240SOL    HW2  725   1.681   0.987   2.399
  241SOL     OW  726   1.641   1.108   2.294
  241SOL    HW1  727   1.727   1.110   2.242
  241SOL    HW2  728   1.655   1.155   2.382
  242SOL     OW  729   0.113   0.737   3.459
  242SOL    HW1  730   0.201   0.724   3.504
  242SOL    HW2  731   0.100   0.834   3.437
  243SOL     OW  732   0.613   1.365   2.588
  243SOL    HW1  733   0.564   1.278   2.597
  243SOL    HW2  734   0.590   1.408   2.501
  244SOL     OW  735   1.293   1.228   3.285
  244SOL    HW1  736   1.330   1.155   3.227
  244SOL    HW2  737   1.345   1.233   3.370
  245SOL     OW  738   0.809   0.004   2.364
  245SOL    HW1  739   0.849   0.095   2.355
  245SOL    HW2  740   0.709   0.012   2.370
  246SOL     OW  741   0.197   0.976   3.126
  246SOL    HW1  742   0.286   0.931   3.112
  246SOL    HW2  743   0.124   0.911   3.107
  247SOL     OW  744   1.525   0.999   2.052
  247SOL    HW1  745   1.462   0.923   2.065
  247SOL    HW2  746   1.573   1.017   2.138
  248SOL     OW  747   1.187   1.792   3.478
  248SOL    HW1  748   1.211   1.852   3.402
  248SOL    HW2  749   1.194   1.697   3.448
  249SOL     OW  750   0.317   0.251   3.663
  249SOL    HW1  751   0.388   0.322   3.669
  249SOL    HW2  752   0.229   0.290   3.691
  250SOL     OW  753   1.466   1.417   2.815
  250SOL    HW1  754   1.407   1.423   2.895
  250SOL    HW2  755   1.451   1.329   2.769
  251SOL     OW  756   1.667   1.714   2.434
  251SOL    HW1  757   1.626   1.691   2.346
  251SOL    HW2  758   1.649   1.640   2.499
  252SOL     OW  759   0.598   0.729   2.132
  252SOL    HW1  760   0.622   0.798   2.064
  252SOL    HW2  761   0.520   0.762   2.186
  253SOL     OW  762   1.281   0.345   2.806
  253SOL    HW1  763   1.195   0.295   2.793
  253SOL    HW2  764   1.343   0.291   2.862
  254SOL     OW  765   1.576   1.662   2.169
  254SOL    HW1  766   1.665   1.708   2.172
  254SOL    HW2  767   1.555   1.638   2.074
  255SOL     OW  768   0.807   0.605   3.327
  255SOL    HW1  769   0.760   0.602   3.416
  255SOL    HW2  770   0.756   0.550   3.261
  256SOL     OW  771   1.394   0.469   3.536
  256SOL    HW1  772   1.374   0.512   3.624
  256SOL    HW2  773   1.472   0.407   3.545
  257SOL     OW  774   0.973   0.890   3.434
  257SOL    HW1  775   1.019   0.806   3.405
  257SOL    HW2  776   0.917   0.924   3.359
  258SOL     OW  777   0.991   0.410   3.104
  258SOL    HW1  778   0.914   0.444   3.158
  258SOL    HW2  779   0.957   0.359   3.025
  259SOL     OW  780   1.041   0.701   2.291
  259SOL    HW1  781   1.067   0.697   2.387
  259SOL    HW2  782   0.956   0.650   2.277
  260SOL     OW  783   0.076   0.811   2.651
  260SOL    HW1  784   0.175   0.799   2.660
  260SOL    HW2  785   0.052   0.906   2.672
  261SOL     OW  786   0.130   1.821   3.433
  261SOL    HW1  787   0.120   1.806   3.532
  261SOL    HW2  788   0.044   1.857   3.397
  262SOL     OW  789   0.865   0.348   2.057
  262SOL    HW1  790   0.924   0.411   2.008
  262SOL    HW2  791   0.884   0.254   2.028
  263SOL     OW  792   1.719   0.585   3.693
  263SOL    HW1  793   1.693   0.674   3.657
  263SOL    HW2  794   1.717   0.517   3.620
  264SOL     OW  795   1.362   1.144   2.407
  264SOL    HW1  796   1.445   1.115   2.359
  264SOL    HW2  797   1.313   1.211   2.351
  265SOL     OW  798   0.550   0.196   2.747
  265SOL    HW1  799   0.545   0.191   2.847
  265SOL    HW2  800   0.552   0.292   2.718
  266SOL     OW  801   1.008   1.456   2.339
  266SOL    HW1  802   0.962   1.528   2.287
  266SOL    HW2  803   1.004   1.476   2.437
  267SOL     OW  804   0.351   1.801   2.715
  267SOL    HW1  805   0.401   1.715   2.721
  267SOL    HW2  806   0.416   1.878   2.712
  268SOL     OW  807   1.795   1.066   2.735
  268SOL    HW1  808   1.733   1.051   2.659
  268SOL    HW2  809   1.743   1.077   2.820
  269SOL     OW  810   1.227   1.550   3.368
  269SOL    HW1  811   1.233   1.473   3.432
  269SOL    HW2  812   1.175   1.524   3.288
  270SOL     OW  813   0.321   0.943   2.104
  270SOL    HW1  814   0.403   0.982   2.062
  270SOL    HW2  815   0.294   0.861   2.055
  271SOL     OW  816   1.458   0.735   2.590
  271SOL    HW1  817   1.453   0.670   2.665
  271SOL    HW2  818   1.538   0.794   2.603
  272SOL     OW  819   0.461   1.266   3.589
  272SOL    HW1  820   0.411   1.267   3.503
  272SOL    HW2  821   0.398   1.248   3.665
  273SOL     OW  822   1.111   1.776   2.099
  273SOL    HW1  823   1.051   1.714   2.149
  273SOL    HW2  824   1.142   1.732   2.014
  274SOL     OW  825   0.202   0.285   3.360
  274SOL    HW1  826   0.122   0.345   3.347
  274SOL    HW2  827   0.192   0.236   3.446
  275SOL     OW  828   1.632   1.377   1.943
  275SOL    HW1  829   1.600   1.471   1.933
  275SOL    HW2  830   1.556   1.314   1.931
  276SOL     OW  831   0.464   1.743   2.185
  276SOL    HW1  832   0.497   1.782   2.271
  276SOL    HW2  833   0.540   1.736   2.120
  277SOL     OW  834   1.400   0.107   2.288
  277SOL    HW1  835   1.376   0.070   2.198
  277SOL    HW2  836   1.499   0.123   2.292
  278SOL     OW  837   0.249   1.785   3.103
  278SOL    HW1  838   0.306   1.720   3.153
  278SOL    HW2  839   0.233   1.752   3.010
  279SOL     OW  840   0.940   1.698   2.766
  279SOL    HW1  841   1.020   1.641   2.787
  279SOL    HW2  842   0.891   1.658   2.689
  280SOL     OW  843   0.382   0.700   2.342
  280SOL    HW1  844   0.427   0.610   2.339
  280SOL    HW2  845   0.288   0.689   2.375
  281SOL     OW  846   1.547   0.222   3.591
  281SOL    HW1  847   1.542   0.259   3.683
  281SOL    HW2  848   1.475   0.153   3.579
  282SOL     OW  849   0.614   0.122   1.979
  282SOL    HW1  850   0.712   0.100   1.986
  282SOL    HW2  851   0.583   0.105   1.886
  283SOL     OW  852   0.781   0.264   3.611
  283SOL    HW1  853   0.848   0.203   3.654
  283SOL    HW2  854   0.708   0.283   3.676
  284SOL     OW  855   0.888   1.514   3.057
  284SOL    HW1  856   0.865   1.489   2.963
  284SOL    HW2  857   0.949   1.445   3.096
  285SOL     OW  858   1.351   0.590   3.295
  285SOL    HW1  859   1.379   0.547   3.380
  285SOL    HW2  860   1.376   0.686   3.296
  286SOL     OW  861   0.803   1.402   2.786
  286SOL    HW1  862   0.893   1.416   2.744
  286SOL    HW2  863   0.732   1.404   2.715
  287SOL     OW  864   0.922   0.503   2.761
  287SOL    HW1  865   0.897   0.494   2.665
  287SOL    HW2  866   0.970   0.421   2.792
  288SOL     OW  867   0.539   0.064   2.374
  288SOL    HW1  868   0.458   0.065   2.432
  288SOL    HW2  869   0.542   0.147   2.319
  289SOL     OW  870   1.434   1.188   1.903
  289SOL    HW1  871   1.466   1.112   1.960
  289SOL    HW2  872   1.342   1.215   1.933
  290SOL     OW  873   0.297   0.035   2.033
  290SOL    HW1  874   0.346   0.119   2.012
  290SOL    HW2  875   0.359  -0.030   2.078
  291SOL     OW  876   0.935   0.236   2.342
  291SOL    HW1  877   0.887   0.277   2.264
  291SOL    HW2  878   1.034   0.234   2.323
  292SOL     OW  879   1.076   0.683   3.326
  292SOL    HW1  880   0.996   0.622   3.329
  292SOL    HW2  881   1.157   0.630   3.302
  293SOL     OW  882   1.227   1.570   2.655
  293SOL    HW1  883   1.248   1.644   2.590
  293SOL    HW2  884   1.295   1.570   2.728
  294SOL     OW  885   0.459   1.152   2.603
  294SOL    HW1  886   0.388   1.125   2.668
  294SOL    HW2  887   0.433   1.124   2.510
  295SOL     OW  888   1.271   1.797   2.453
  295SOL    HW1  889   1.315   1.861   2.389
  295SOL    HW2  890   1.221   1.849   2.523
  296SOL     OW  891   1.032   0.549   1.878
  296SOL    HW1  892   0.991   0.631   1.839
  296SOL    HW2  893   1.096   0.575   1.951
  297SOL     OW  894   0.078   0.556   3.248
  297SOL    HW1  895   0.170   0.555   3.207
  297SOL    HW2  896   0.072   0.630   3.315
  298SOL     OW  897   0.561   0.222   3.009
  298SOL    HW1  898   0.599   0.138   3.046
  298SOL    HW2  899   0.473   0.241   3.053
  299SOL     OW  900   0.866   0.454   2.504
  299SOL    HW1  901   0.834   0.526   2.442
  299SOL    HW2  902   0.890   0.373   2.451
  300SOL     OW  903   1.017   0.039   2.615
  300SOL    HW1  904   0.945   0.044   2.546
  300SOL    HW2  905   0.993  -0.030   2.684
  301SOL     OW  906   1.429   1.173   2.729
  301SOL    HW1  907   1.374   1.089   2.722
  301SOL    HW2  908   1.455   1.202   2.637
  302SOL     OW  909   1.466   0.590   2.854
  302SOL    HW1  910   1.436   0.495   2.861
  302SOL    HW2  911   1.539   0.606   2.920
  303SOL     OW  912   1.857   0.833   2.239
  303SOL    HW1  913   1.899   0.769   2.303
  303SOL    HW2  914   1.819   0.782   2.161
  304SOL     OW  915   0.488   1.385   2.036
  304SOL    HW1  916   0.401   1.370   2.083
  304SOL    HW2  917   0.471   1.411   1.941
  305SOL     OW  918   1.664   1.280   2.519
  305SOL    HW1  919   1.763   1.288   2.533
  305SOL    HW2  920   1.619   1.364   2.550
  306SOL     OW  921   1.390   0.575   1.940
  306SOL    HW1  922   1.336   0.554   2.021
  306SOL    HW2  923   1.481   0.534   1.949
  307SOL     OW  924   0.527   0.256   2.190
  307SOL    HW1  925   0.554   0.197   2.115
  307SOL    HW2  926   0.527   0.351   2.159
  308SOL     OW  927   1.754   1.223   3.450
  308SOL    HW1  928   1.845   1.184   3.437
  308SOL    HW2  929   1.762   1.319   3.474
  309SOL     OW  930   1.064   1.347   3.202
  309SOL    HW1  931   0.984   1.324   3.257
  309SOL    HW2  932   1.147   1.321   3.251
  310SOL     OW  933   1.592   1.629   3.487
  310SOL    HW1  934   1.619   1.663   3.397
  310SOL    HW2  935   1.671   1.591   3.533
  311SOL     OW  936   1.111   1.195   2.962
  311SOL    HW1  937   1.071   1.239   3.043
  311SOL    HW2  938   1.070   1.232   2.879
  312SOL     OW  939   1.638   1.099   2.941
  312SOL    HW1  940   1.643   1.180   3.000
  312SOL    HW2  941   1.552   1.101   2.890
  313SOL     OW  942   0.915   0.089   3.264
  313SOL    HW1  943   0.940   0.069   3.169
  313SOL    HW2  944   0.987   0.145   3.306
  314SOL     OW  945   0.980   1.116   3.581
  314SOL    HW1  946   0.881   1.122   3.591
  314SOL    HW2  947   1.003   1.036   3.525
  315SOL     OW  948   0.705   1.050   2.230
  315SOL    HW1  949   0.691   1.057   2.329
  315SOL    HW2  950   0.789   0.999   2.212
  316SOL     OW  951   0.410   0.813   3.113
  316SOL    HW1  952   0.496   0.825   3.163
  316SOL    HW2  953   0.368   0.726   3.140
  317SOL     OW  954   1.274   0.386   3.124
  317SOL    HW1  955   1.295   0.460   3.188
  317SOL    HW2  956   1.185   0.403   3.081
  318SOL     OW  957   0.064   1.564   3.193
  318SOL    HW1  958   0.018   1.646   3.159
  318SOL    HW2  959   0.162   1.583   3.202
  319SOL     OW  960   0.367   1.100   2.363
  319SOL    HW1  961   0.360   1.183   2.307
  319SOL    HW2  962   0.371   1.020   2.303
  320SOL     OW  963   0.566   0.537   2.727
  320SOL    HW1  964   0.578   0.603   2.653
  320SOL    HW2  965   0.612   0.571   2.810
  321SOL     OW  966   1.252   1.348   2.250
  321SOL    HW1  967   1.302   1.425   2.290
  321SOL    HW2  968   1.157   1.350   2.282
  322SOL     OW  969   1.272   1.445   3.004
  322SOL    HW1  970   1.319   1.458   3.091
  322SOL    HW2  971   1.206   1.371   3.013
  323SOL     OW  972   1.582   0.639   2.334
  323SOL    HW1  973   1.551   0.700   2.407
  323SOL    HW2  974   1.632   0.691   2.265
  324SOL     OW  975   0.354   1.510   3.191
  324SOL    HW1  976   0.333   1.466   3.104
  324SOL    HW2  977   0.451   1.536   3.194
  325SOL     OW  978   0.402   0.751   3.460
  325SOL    HW1  979   0.470   0.806   3.413
  325SOL    HW2  980   0.442   0.663   3.487
  326SOL     OW  981   1.587   0.779   3.532
  326SOL    HW1  982   1.495   0.817   3.527
  326SOL    HW2  983   1.647   0.826   3.467
  327SOL     OW  984   1.013   0.105   3.632
  327SOL    HW1  985   1.019   0.190   3.580
  327SOL    HW2  986   1.045   0.029   3.575
  328SOL     OW  987   0.504   0.050   3.602
  328SOL    HW1  988   0.462  -0.007   3.532
  328SOL    HW2  989   0.438   0.119   3.634
  329SOL     OW  990   0.573   0.870   2.891
  329SOL    HW1  991   0.617   0.959   2.882
  329SOL    HW2  992   0.510   0.870   2.968
  330SOL     OW  993   1.360   0.862   2.907
  330SOL    HW1  994   1.285   0.862   2.841
  330SOL    HW2  995   1.397   0.770   2.916
  331SOL     OW  996   1.209   0.525   2.137
  331SOL    HW1  997   1.222   0.441   2.191
  331SOL    HW2  998   1.180   0.599   2.197
  332SOL     OW  999   0.307   0.213   3.093
  332SOL    HW1 1000   0.284   0.250   3.183
  332SOL    HW2 1001   0.277   0.118   3.087
  333SOL     OW 1002   0.037   1.310   3.144
  333SOL    HW1 1003   0.090   1.261   3.212
  333SOL    HW2 1004   0.059   1.408   3.149
  334SOL     OW 1005   0.732   0.634   2.926
  334SOL    HW1 1006   0.791   0.608   2.850
  334SOL    HW2 1007   0.704   0.730   2.915
  335SOL     OW 1008   1.728   0.935   3.716
  335SOL    HW1 1009   1.682   0.928   3.627
  335SOL    HW2 1010   1.666   0.979   3.782
  336SOL     OW 1011   0.307   0.063   2.480
  336SOL    HW1 1012   0.296   0.157   2.513
  336SOL    HW2 1013   0.302   0.000   2.557
  337SOL     OW 1014   1.622   0.367   2.236
  337SOL    HW1 1015   1.624   0.291   2.300
  337SOL    HW2 1016   1.574   0.444   2.276
  338SOL     OW 1017   1.023   0.766   2.828
  338SOL    HW1 1018   1.038   0.787   2.924
  338SOL    HW2 1019   0.993   0.671   2.819
  339SOL     OW 1020   0.980   1.573   3.562
  339SOL    HW1 1021   0.960   1.617   3.474
  339SOL    HW2 1022   1.019   1.482   3.546
  340SOL     OW 1023   1.859   1.518   3.467
  340SOL    HW1 1024   1.873   1.545   3.372
  340SOL    HW2 1025   1.942   1.540   3.520
  341SOL     OW 1026   0.350   0.898   3.666
  341SOL    HW1 1027   0.426   0.942   3.714
  341SOL    HW2 1028   0.385   0.851   3.584
  342SOL     OW 1029   1.540   0.274   1.987
  342SOL    HW1 1030   1.479   0.199   2.010
  342SOL    HW2 1031   1.562   0.326   2.070
  343SOL     OW 1032   1.303   0.838   1.904
  343SOL    HW1 1033   1.337   0.745   1.919
  343SOL    HW2 1034   1.321   0.865   1.809
  344SOL     OW 1035   1.068   1.333   2.711
  344SOL    HW1 1036   1.075   1.249   2.656
  344SOL    HW2 1037   1.130   1.402   2.675
  345SOL     OW 1038   0.319   0.810   2.811
  345SOL    HW1 1039   0.412   0.846   2.816
  345SOL    HW2 1040   0.313   0.725   2.863
  346SOL     OW 1041   0.339   0.509   2.868
  346SOL    HW1 1042   0.287   0.426   2.851
  346SOL    HW2 1043   0.416   0.514   2.804
  347SOL     OW 1044   1.138   0.380   3.540
  347SOL    HW1 1045   1.093   0.443   3.604
  347SOL    HW2 1046   1.231   0.411   3.523
  348SOL     OW 1047   1.160   0.207   3.339
  348SOL    HW1 1048   1.160   0.271   3.416
  348SOL    HW2 1049   1.188   0.255   3.256
  349SOL     OW 1050   0.008   1.326   2.062
  349SOL    HW1 1051  -0.085   1.347   2.031
  349SOL    HW2 1052   0.018   1.227   2.075
  350SOL     OW 1053   0.088   1.801   2.789
  350SOL    HW1 1054   0.046   1.715   2.762
  350SOL    HW2 1055   0.182   1.804   2.755
  351SOL     OW 1056   0.504   1.568   2.772
  351SOL    HW1 1057   0.570   1.642   2.781
  351SOL    HW2 1058   0.548   1.489   2.730
  352SOL     OW 1059   1.002   0.796   3.100
  352SOL    HW1 1060   1.043   0.764   3.186
  352SOL    HW2 1061   0.906   0.769   3.097
  353SOL     OW 1062   0.040   0.544   2.976
  353SOL    HW1 1063   0.125   0.511   2.935
  353SOL    HW2 1064   0.053   0.559   3.074
  354SOL     OW 1065   0.189   0.520   3.584
  354SOL    HW1 1066   0.248   0.480   3.514
  354SOL    HW2 1067   0.131   0.591   3.543
  355SOL     OW 1068   1.369   0.950   3.522
  355SOL    HW1 1069   1.408   1.039   3.542
  355SOL    HW2 1070   1.379   0.930   3.425
  356SOL     OW 1071   0.815   0.572   2.187
  356SOL    HW1 1072   0.822   0.483   2.141
  356SOL    HW2 1073   0.721   0.606   2.179
  357SOL     OW 1074   1.657   0.604   3.068
  357SOL    HW1 1075   1.619   0.535   3.130
  357SOL    HW2 1076   1.739   0.568   3.024
  358SOL     OW 1077   0.252   1.564   3.606
  358SOL    HW1 1078   0.222   1.621   3.682
  358SOL    HW2 1079   0.245   1.467   3.632
  359SOL     OW 1080   0.671   0.464   3.131
  359SOL    HW1 1081   0.637   0.375   3.101
  359SOL    HW2 1082   0.697   0.518   3.051
  360SOL     OW 1083   0.930   1.678   3.327
  360SOL    HW1 1084   0.906   1.660   3.232
  360SOL    HW2 1085   0.960   1.772   3.337
  361SOL     OW 1086   0.473   0.500   2.053
  361SOL    HW1 1087   0.534   0.580   2.057
  361SOL    HW2 1088   0.378   0.531   2.060
  362SOL     OW 1089   0.159   1.137   3.328
  362SOL    HW1 1090   0.181   1.076   3.404
  362SOL    HW2 1091   0.169   1.088   3.242
  363SOL     OW 1092   1.347   1.059   3.096
  363SOL    HW1 1093   1.371   0.996   3.022
  363SOL    HW2 1094   1.257   1.099   3.078
  364SOL     OW 1095   1.302   0.855   2.171
  364SOL    HW1 1096   1.216   0.824   2.213
  364SOL    HW2 1097   1.298   0.841   2.072
  365SOL     OW 1098   1.759   1.747   3.016
  365SOL    HW1 1099   1.820   1.777   2.943
  365SOL    HW2 1100   1.721   1.658   2.994
  366SOL     OW 1101   1.252   1.731   2.990
  366SOL    HW1 1102   1.336   1.736   2.936
  366SOL    HW2 1103   1.229   1.635   3.008
  367SOL     OW 1104   0.083   1.258   2.884
  367SOL    HW1 1105   0.078   1.257   2.984
  367SOL    HW2 1106   0.000   1.217   2.846
  368SOL     OW 1107   0.688   1.662   3.578
  368SOL    HW1 1108   0.632   1.743   3.587
  368SOL    HW2 1109   0.740   1.666   3.492
  369SOL     OW 1110   1.726   0.135   2.385
  369SOL    HW1 1111   1.799   0.118   2.318
  369SOL    HW2 1112   1.695   0.048   2.423
  370SOL     OW 1113   1.388   1.573   2.339
  370SOL    HW1 1114   1.455   1.585   2.265
  370SOL    HW2 1115   1.348   1.662   2.362
  371SOL     OW 1116   0.130   1.794   3.713
  371SOL    HW1 1117   0.089   1.720   3.766
  371SOL    HW2 1118   0.194   1.845   3.771
  372SOL     OW 1119   1.280   0.927   2.534
  372SOL    HW1 1120   1.340   0.846   2.536
  372SOL    HW2 1121   1.320   0.996   2.474
  373SOL     OW 1122   0.830   1.273   3.284
  373SOL    HW1 1123   0.825   1.306   3.379
  373SOL    HW2 1124   0.744   1.292   3.238
  374SOL     OW 1125   0.672   1.616   2.016
  374SOL    HW1 1126   0.681   1.626   1.917
  374SOL    HW2 1127   0.632   1.527   2.037
  375SOL     OW 1128   1.650   1.720   3.256
  375SOL    HW1 1129   1.703   1.730   3.172
  375SOL    HW2 1130   1.623   1.810   3.290
  376SOL     OW 1131   1.841   0.175   2.825
  376SOL    HW1 1132   1.880   0.090   2.789
  376SOL    HW2 1133   1.743   0.177   2.806
  377SOL     OW 1134   0.263   0.326   2.582
  377SOL    HW1 1135   0.184   0.377   2.548
  377SOL    HW2 1136   0.254   0.311   2.680
  378SOL     OW 1137   1.194   1.612   1.893
  378SOL    HW1 1138   1.200   1.519   1.930
  378SOL    HW2 1139   1.135   1.612   1.813
  379SOL     OW 1140   0.822   1.002   3.234
  379SOL    HW1 1141   0.862   1.001   3.142
  379SOL    HW2 1142   0.832   1.094   3.274
  380SOL     OW 1143   0.916   0.910   2.153
  380SOL    HW1 1144   0.979   0.948   2.085
  380SOL    HW2 1145   0.956   0.827   2.192
  381SOL     OW 1146   1.504   1.607   1.906
  381SOL    HW1 1147   1.412   1.644   1.913
  381SOL    HW2 1148   1.542   1.627   1.816
  382SOL     OW 1149   0.372   1.288   3.352
  382SOL    HW1 1150   0.359   1.381   3.318
  382SOL    HW2 1151   0.288   1.236   3.339
  383SOL     OW 1152   1.614   1.292   3.151
  383SOL    HW1 1153   1.674   1.295   3.231
  383SOL    HW2 1154   1.539   1.356   3.164
  384SOL     OW 1155   1.039   1.098   2.558
  384SOL    HW1 1156   0.969   1.051   2.612
  384SOL    HW2 1157   1.098   1.030   2.515
  385SOL     OW 1158   1.014   0.236   2.833
  385SOL    HW1 1159   1.006   0.200   2.740
  385SOL    HW2 1160   1.012   0.160   2.898
  386SOL     OW 1161   0.590   1.487   2.353
  386SOL    HW1 1162   0.632   1.429   2.283
  386SOL    HW2 1163   0.546   1.566   2.309
  387SOL     OW 1164   1.709   0.385   3.243
  387SOL    HW1 1165   1.782   0.454   3.247
  387SOL    HW2 1166   1.737   0.310   3.184
  388SOL     OW 1167   0.255   1.348   2.152
  388SOL    HW1 1168   0.159   1.349   2.125
  388SOL    HW2 1169   0.267   1.401   2.236
  389SOL     OW 1170   0.105   1.013   3.588
  389SOL    HW1 1171   0.028   0.980   3.642
  389SOL    HW2 1172   0.190   0.983   3.630
  390SOL     OW 1173   0.672   0.203   3.351
  390SOL    HW1 1174   0.762   0.187   3.311
  390SOL    HW2 1175   0.680   0.208   3.450
  391SOL     OW 1176   0.075   0.345   1.895
  391SOL    HW1 1177  -0.017   0.317   1.866
  391SOL    HW2 1178   0.106   0.422   1.839
  392SOL     OW 1179   1.440   0.856   3.260
  392SOL    HW1 1180   1.383   0.908   3.197
  392SOL    HW2 1181   1.536   0.868   3.236
  393SOL     OW 1182   0.072   0.166   2.180
  393SOL    HW1 1183   0.055   0.249   2.126
  393SOL    HW2 1184   0.162   0.129   2.158
  394SOL     OW 1185   1.183   1.335   1.981
  394SOL    HW1 1186   1.084   1.324   1.983
  394SOL    HW2 1187   1.217   1.350   2.074
  395SOL     OW 1188   0.613   0.842   3.293
  395SOL    HW1 1189   0.669   0.923   3.276
  395SOL    HW2 1190   0.672   0.762   3.296
  396SOL     OW 1191   1.493   1.767   2.821
  396SOL    HW1 1192   1.526   1.831   2.752
  396SOL    HW2 1193   1.559   1.761   2.896
  397SOL     OW 1194   0.716   0.565   3.570
  397SOL    HW1 1195   0.735   0.630   3.644
  397SOL    HW2 1196   0.776   0.485   3.579
  398SOL     OW 1197   1.450   1.220   3.495
  398SOL    HW1 1198   1.441   1.210   3.594
  398SOL    HW2 1199   1.546   1.213   3.469
  399SOL     OW 1200   0.390   1.741   3.422
  399SOL    HW1 1201   0.299   1.782   3.420
  399SOL    HW2 1202   0.383   1.647   3.454
  400SOL     OW 1203   1.674   0.883   3.116
  400SOL    HW1 1204   1.647   0.794   3.079
  400SOL    HW2 1205   1.675   0.951   3.043
  401SOL     OW 1206   1.225   0.325   2.311
  401SOL    HW1 1207   1.290   0.251   2.300
  401SOL    HW2 1208   1.245   0.375   2.395
  402SOL     OW 1209   0.594   0.745   2.514
  402SOL    HW1 1210   0.644   0.830   2.495
  402SOL    HW2 1211   0.506   0.747   2.466
  403SOL     OW 1212   1.777   0.342   3.504
  403SOL    HW1 1213   1.760   0.373   3.410
  403SOL    HW2 1214   1.693   0.305   3.542
  404SOL     OW 1215   1.730   0.934   3.379
  404SOL    HW1 1216   1.768   1.025   3.394
  404SOL    HW2 1217   1.722   0.917   3.280
  405SOL     OW 1218   0.859   1.374   1.878
  405SOL    HW1 1219   0.813   1.389   1.966
  405SOL    HW2 1220   0.903   1.459   1.848
  406SOL     OW 1221   0.661   1.790   2.815
  406SOL    HW1 1222   0.615   1.878   2.802
  406SOL    HW2 1223   0.760   1.802   2.808
  407SOL     OW 1224   0.859   0.956   2.723
  407SOL    HW1 1225   0.913   0.887   2.771
  407SOL    HW2 1226   0.827   1.025   2.789
  408SOL     OW 1227   1.083   0.984   1.949
  408SOL    HW1 1228   1.060   1.037   1.867
  408SOL    HW2 1229   1.164   0.928   1.930
  409SOL     OW 1230   1.861   1.569   2.713
  409SOL    HW1 1231   1.790   1.557   2.643
  409SOL    HW2 1232   1.862   1.490   2.773
  410SOL     OW 1233   0.221   1.314   3.706
  410SOL    HW1 1234   0.156   1.241   3.685
  410SOL    HW2 1235   0.225   1.328   3.804
  411SOL     OW 1236   0.079   1.240   2.515
  411SOL    HW1 1237   0.078   1.193   2.603
  411SOL    HW2 1238   0.161   1.212   2.464
  412SOL     OW 1239   0.672   1.391   3.486
  412SOL    HW1 1240   0.594   1.341   3.524
  412SOL    HW2 1241   0.669   1.486   3.517
  413SOL     OW 1242   1.824   0.192   3.089
  413SOL    HW1 1243   1.820   0.102   3.133
  413SOL    HW2 1244   1.827   0.181   2.990
  414SOL     OW 1245   0.428   0.424   2.382
  414SOL    HW1 1246   0.458   0.352   2.320
  414SOL    HW2 1247   0.389   0.384   2.465
  415SOL     OW 1248   1.705   1.487   2.966
  415SOL    HW1 1249   1.612   1.462   2.939
  415SOL    HW2 1250   1.731   1.437   3.048
  416SOL     OW 1251   0.317   0.547   3.142
  416SOL    HW1 1252   0.355   0.488   3.214
  416SOL    HW2 1253   0.357   0.521   3.054
  417SOL     OW 1254   0.812   1.586   2.549
  417SOL    HW1 1255   0.844   1.596   2.455
  417SOL    HW2 1256   0.733   1.524   2.551
  418SOL     OW 1257   1.424   0.214   2.974
  418SOL    HW1 1258   1.476   0.149   3.029
  418SOL    HW2 1259   1.375   0.277   3.035
  419SOL     OW 1260   1.001   0.034   3.016
  419SOL    HW1 1261   0.938  -0.038   2.985
  419SOL    HW2 1262   1.094  -0.002   3.016
  420SOL     OW 1263   0.770   1.330   2.163
  420SOL    HW1 1264   0.724   1.243   2.180
  420SOL    HW2 1265   0.861   1.327   2.204
  421SOL     OW 1266   0.618   1.567   3.146
  421SOL    HW1 1267   0.613   1.649   3.203
  421SOL    HW2 1268   0.707   1.564   3.101
  422SOL     OW 1269   1.352   0.052   2.030
  422SOL    HW1 1270   1.387   0.011   1.946
  422SOL    HW2 1271   1.262   0.014   2.050
  423SOL     OW 1272   1.300   0.453   2.553
  423SOL    HW1 1273   1.241   0.533   2.557
  423SOL    HW2 1274   1.315   0.418   2.646
  424SOL     OW 1275   1.593   0.221   2.744
  424SOL    HW1 1276   1.509   0.220   2.798
  424SOL    HW2 1277   1.595   0.304   2.688
  425SOL     OW 1278   0.039   1.077   2.162
  425SOL    HW1 1279   0.138   1.066   2.153
  425SOL    HW2 1280  -0.001   0.991   2.194
  426SOL     OW 1281   0.875   1.646   2.199
  426SOL    HW1 1282   0.798   1.611   2.145
  426SOL    HW2 1283   0.843   1.717   2.261
  427SOL     OW 1284   0.230   0.628   3.837
  427SOL    HW1 1285   0.137   0.626   3.874
  427SOL    HW2 1286   0.231   0.589   3.745
  428SOL     OW 1287   1.755   0.607   3.955
  428SOL    HW1 1288   1.743   0.594   3.856
  428SOL    HW2 1289   1.725   0.526   4.004
  429SOL     OW 1290   0.231   1.713   4.207
  429SOL    HW1 1291   0.265   1.790   4.261
  429SOL    HW2 1292   0.275   1.713   4.117
  430SOL     OW 1293   0.230   1.434   4.262
  430SOL    HW1 1294   0.204   1.530   4.262
  430SOL    HW2 1295   0.159   1.380   4.307
  431SOL     OW 1296   0.606   0.964   3.847
  431SOL    HW1 1297   0.613   1.048   3.793
  431SOL    HW2 1298   0.652   0.977   3.935
  432SOL     OW 1299   0.122   0.643   4.287
  432SOL    HW1 1300   0.077   0.555   4.304
  432SOL    HW2 1301   0.121   0.697   4.371
  433SOL     OW 1302   1.842   1.767   4.083
  433SOL    HW1 1303   1.896   1.738   4.163
  433SOL    HW2 1304   1.872   1.857   4.054
  434SOL     OW 1305   0.027   1.596   3.841
  434SOL    HW1 1306   0.008   1.500   3.862
  434SOL    HW2 1307  -0.006   1.654   3.916
  435SOL     OW 1308   1.689   0.922   4.336
  435SOL    HW1 1309   1.784   0.893   4.344
  435SOL    HW2 1310   1.681   0.987   4.261
  436SOL     OW 1311   1.641   1.108   4.156
  436SOL    HW1 1312   1.727   1.110   4.104
  436SOL    HW2 1313   1.655   1.155   4.244
  437SOL     OW 1314   0.809   0.004   4.226
  437SOL    HW1 1315   0.849   0.095   4.217
  437SOL    HW2 1316   0.709   0.012   4.232
  438SOL     OW 1317   1.525   0.999   3.914
  438SOL    HW1 1318   1.462   0.923   3.927
  438SOL    HW2 1319   1.573   1.017   4.000
  439SOL     OW 1320   0.598   0.729   3.994
  439SOL    HW1 1321   0.622   0.798   3.926
  439SOL    HW2 1322   0.520   0.762   4.048
  440SOL     OW 1323   1.576   1.662   4.031
  440SOL    HW1 1324   1.665   1.708   4.034
  440SOL    HW2 1325   1.555   1.638   3.936
  441SOL     OW 1326   1.041   0.701   4.153
  441SOL    HW1 1327   1.067   0.697   4.249
  441SOL    HW2 1328   0.956   0.650   4.139
  442SOL     OW 1329   0.076   0.811   4.513
  442SOL    HW1 1330   0.175   0.799   4.522
  442SOL    HW2 1331   0.052   0.906   4.534
  443SOL     OW 1332   0.865   0.348   3.919
  443SOL    HW1 1333   0.924   0.411   3.870
  443SOL    HW2 1334   0.884   0.254   3.890
  444SOL     OW 1335   0.321   0.943   3.966
  444SOL    HW1 1336   0.403   0.982   3.924
  444SOL    HW2 1337   0.294   0.861   3.917
  445SOL     OW 1338   1.111   1.776   3.961
  445SOL    HW1 1339   1.051   1.714   4.011
  445SOL    HW2 1340   1.142   1.732   3.876
  446SOL     OW 1341   1.632   1.377   3.805
  446SOL    HW1 1342   1.600   1.471   3.795
  446SOL    HW2 1343   1.556   1.314   3.793
  447SOL     OW 1344   0.464   1.743   4.047
  447SOL    HW1 1345   0.497   1.782   4.133
  447SOL    HW2 1346   0.540   1.736   3.982
  448SOL     OW 1347   1.400   0.107   4.150
  448SOL    HW1 1348   1.376   0.070   4.060
  448SOL    HW2 1349   1.499   0.123   4.154
  449SOL     OW 1350   0.382   0.700   4.204
  449SOL    HW1 1351   0.427   0.610   4.201
  449SOL    HW2 1352   0.288   0.689   4.237
  450SOL     OW 1353   0.614   0.122   3.841
  450SOL    HW1 1354   0.712   0.100   3.848
  450SOL    HW2 1355   0.583   0.105   3.748
  451SOL     OW 1356   0.539   0.064   4.236
  451SOL    HW1 1357   0.458   0.065   4.294
  451SOL    HW2 1358   0.542   0.147   4.181
  452SOL     OW 1359   1.434   1.188   3.765
  452SOL    HW1 1360   1.466   1.112   3.822
  452SOL    HW2 1361   1.342   1.215   3.795
  453SOL     OW 1362   0.297   0.035   3.895
  453SOL    HW1 1363   0.346   0.119   3.874
  453SOL    HW2 1364   0.359  -0.030   3.940
  454SOL     OW 1365   0.935   0.236   4.204
  454SOL    HW1 1366   0.887   0.277   4.126
  454SOL    HW2 1367   1.034   0.234   4.185
  455SOL     OW 1368   0.459   1.152   4.465
  455SOL    HW1 1369   0.388   1.125   4.530
  455SOL    HW2 1370   0.433   1.124   4.372
  456SOL     OW 1371   1.271   1.797   4.315
  456SOL    HW1 1372   1.315   1.861   4.251
  456SOL    HW2 1373   1.221   1.849   4.385
  457SOL     OW 1374   1.032   0.549   3.740
  457SOL    HW1 1375   0.991   0.631   3.701
  457SOL    HW2 1376   1.096   0.575   3.813
  458SOL     OW 1377   0.866   0.454   4.366
  458SOL    HW1 1378   0.834   0.526   4.304
  458SOL    HW2 1379   0.890   0.373   4.313
  459SOL     OW 1380   1.857   0.833   4.101
  459SOL    HW1 1381   1.899   0.769   4.165
  459SOL    HW2 1382   1.819   0.782   4.023
  460SOL     OW 1383   0.488   1.385   3.898
  460SOL    HW1 1384   0.401   1.370   3.945
  460SOL    HW2 1385   0.471   1.411   3.803
  461SOL     OW 1386   1.390   0.575   3.802
  461SOL    HW1 1387   1.336   0.554   3.883
  461SOL    HW2 1388   1.481   0.534   3.811
  462SOL     OW 1389   0.527   0.256   4.052
  462SOL    HW1 1390   0.554   0.197   3.977
  462SOL    HW2 1391   0.527   0.351   4.021
  463SOL     OW 1392   0.705   1.050   4.092
  463SOL    HW1 1393   0.691   1.057   4.191
  463SOL    HW2 1394   0.789   0.999   4.074
  464SOL     OW 1395   0.367   1.100   4.225
  464SOL    HW1 1396   0.360   1.183   4.169
  464SOL    HW2 1397   0.371   1.020   4.165
  465SOL     OW 1398   1.252   1.348   4.112
  465SOL    HW1 1399   1.302   1.425   4.152
  465SOL    HW2 1400   1.157   1.350   4.144
  466SOL     OW 1401   1.582   0.639   4.196
  466SOL    HW1 1402   1.551   0.700   4.269
  466SOL    HW2 1403   1.632   0.691   4.127
  467SOL     OW 1404   1.209   0.525   3.999
  467SOL    HW1 1405   1.222   0.441   4.053
  467SOL    HW2 1406   1.180   0.599   4.059
  468SOL     OW 1407   1.622   0.367   4.098
  468SOL    HW1 1408   1.624   0.291   4.162
  468SOL    HW2 1409   1.574   0.444   4.138
  469SOL     OW 1410   1.540   0.274   3.849
  469SOL    HW1 1411   1.479   0.199   3.872
  469SOL    HW2 1412   1.562   0.326   3.932
  470SOL     OW 1413   1.303   0.838   3.766
  470SOL    HW1 1414   1.337   0.745   3.781
  470SOL    HW2 1415   1.321   0.865   3.671
  471SOL     OW 1416   0.008   1.326   3.924
  471SOL    HW1 1417  -0.085   1.347   3.893
  471SOL    HW2 1418   0.018   1.227   3.937
  472SOL     OW 1419   0.815   0.572   4.049
  472SOL    HW1 1420   0.822   0.483   4.003
  472SOL    HW2 1421   0.721   0.606   4.041
  473SOL     OW 1422   0.473   0.500   3.915
  473SOL    HW1 1423   0.534   0.580   3.919
  473SOL    HW2 1424   0.378   0.531   3.922
  474SOL     OW 1425   1.302   0.855   4.033
  474SOL    HW1 1426   1.216   0.824   4.075
  474SOL    HW2 1427   1.298   0.841   3.934
  475SOL     OW 1428   1.726   0.135   4.247
  475SOL    HW1 1429   1.799   0.118   4.180
  475SOL    HW2 1430   1.695   0.048   4.285
  476SOL     OW 1431   1.388   1.573   4.201
  476SOL    HW1 1432   1.455   1.585   4.127
  476SOL    HW2 1433   1.348   1.662   4.224
  477SOL     OW 1434   0.672   1.616   3.878
  477SOL    HW1 1435   0.681   1.626   3.779
  477SOL    HW2 1436   0.632   1.527   3.899
  478SOL     OW 1437   1.194   1.612   3.755
  478SOL    HW1 1438   1.200   1.519   3.792
  478SOL    HW2 1439   1.135   1.612   3.675
  479SOL     OW 1440   0.916   0.910   4.015
  479SOL    HW1 1441   0.979   0.948   3.947
  479SOL    HW2 1442   0.956   0.827   4.054
  480SOL     OW 1443   1.504   1.607   3.768
  480SOL    HW1 1444   1.412   1.644   3.775
  480SOL    HW2 1445   1.542   1.627   3.678
  481SOL     OW 1446   0.590   1.487   4.215
  481SOL    HW1 1447   0.632   1.429   4.145
  481SOL    HW2 1448   0.546   1.566   4.171
  482SOL     OW 1449   0.255   1.348   4.014
  482SOL    HW1 1450   0.159   1.349   3.987
  482SOL    HW2 1451   0.267   1.401   4.098
  483SOL     OW 1452   0.075   0.345   3.757
  483SOL    HW1 1453  -0.017   0.317   3.728
  483SOL    HW2 1454   0.106   0.422   3.701
  484SOL     OW 1455   0.072   0.166   4.042
  484SOL    HW1 1456   0.055   0.249   3.988
  484SOL    HW2 1457   0.162   0.129   4.020
  485SOL     OW 1458   1.183   1.335   3.843
  485SOL    HW1 1459   1.084   1.324   3.845
  485SOL    HW2 1460   1.217   1.350   3.936
  486SOL     OW 1461   1.225   0.325   4.173
  486SOL    HW1 1462   1.290   0.251   4.162
  486SOL    HW2 1463   1.245   0.375   4.257
  487SOL     OW 1464   0.594   0.745   4.376
  487SOL    HW1 1465   0.644   0.830   4.357
  487SOL    HW2 1466   0.506   0.747   4.328
  488SOL     OW 1467   0.859   1.374   3.740
  488SOL    HW1 1468   0.813   1.389   3.828
  488SOL    HW2 1469   0.903   1.459   3.710
  489SOL     OW 1470   1.083   0.984   3.811
  489SOL    HW1 1471   1.060   1.037   3.729
  489SOL    HW2 1472   1.164   0.928   3.792
  490SOL     OW 1473   0.079   1.240   4.377
  490SOL    HW1 1474   0.078   1.193   4.465
  490SOL    HW2 1475   0.161   1.212   4.326
  491SOL     OW 1476   0.428   0.424   4.244
  491SOL    HW1 1477   0.458   0.352   4.182
  491SOL    HW2 1478   0.389   0.384   4.327
  492SOL     OW 1479   0.770   1.330   4.025
  492SOL    HW1 1480   0.724   1.243   4.042
  492SOL    HW2 1481   0.861   1.327   4.066
  493SOL     OW 1482   1.352   0.052   3.892
  493SOL    HW1 1483   1.387   0.011   3.808
  493SOL    HW2 1484   1.262   0.014   3.912
  494SOL     OW 1485   0.039   1.077   4.024
  494SOL    HW1 1486   0.138   1.066   4.015
  494SOL    HW2 1487  -0.001   0.991   4.056
  495SOL     OW 1488   0.875   1.646   4.061
  495SOL    HW1 1489   0.798   1.611   4.007
  495SOL    HW2 1490   0.843   1.717   4.123
  496SOL     OW 1491   0.230   2.490   0.113
  496SOL    HW1 1492   0.137   2.488   0.150
  496SOL    HW2 1493   0.231   2.451   0.021
  497SOL     OW 1494   0.225   2.137   0.996
  497SOL    HW1 1495   0.260   2.120   1.088
  497SOL    HW2 1496   0.137   2.092   0.984
  498SOL     OW 1497   0.019   2.230   0.647
  498SOL    HW1 1498  -0.063   2.273   0.686
  498SOL    HW2 1499  -0.009   2.157   0.584
  499SOL     OW 1500   0.569   3.137   1.165
  499SOL    HW1 1501   0.476   3.130   1.128
  499SOL    HW2 1502   0.580   3.226   1.209
  500SOL     OW 1503   1.555   3.373   0.703
  500SOL    HW1 1504   1.498   3.357   0.784
  500SOL    HW2 1505   1.496   3.383   0.623
  501SOL     OW 1506   1.135   2.565   0.717
  501SOL    HW1 1507   1.192   2.643   0.692
  501SOL    HW2 1508   1.075   2.591   0.793
  502SOL     OW 1509   1.755   2.469   0.231
  502SOL    HW1 1510   1.743   2.456   0.132
  502SOL    HW2 1511   1.725   2.388   0.280
  503SOL     OW 1512   0.768   3.006   1.023
  503SOL    HW1 1513   0.690   3.023   1.083
  503SOL    HW2 1514   0.802   3.093   0.987
  504SOL     OW 1515   0.850   2.660   1.823
  504SOL    HW1 1516   0.846   2.736   1.888
  504SOL    HW2 1517   0.872   2.696   1.732
  505SOL     OW 1518   0.685   2.874   0.665
  505SOL    HW1 1519   0.754   2.858   0.735
  505SOL    HW2 1520   0.612   2.931   0.703
  506SOL     OW 1521   0.686   3.023   1.803
  506SOL    HW1 1522   0.746   3.102   1.817
  506SOL    HW2 1523   0.600   3.054   1.762
  507SOL     OW 1524   0.335   3.297   1.061
  507SOL    HW1 1525   0.257   3.266   1.008
  507SOL    HW2 1526   0.393   3.355   1.004
  508SOL     OW 1527   1.460   3.367   1.339
  508SOL    HW1 1528   1.484   3.461   1.365
  508SOL    HW2 1529   1.444   3.313   1.421
  509SOL     OW 1530   0.438   2.254   1.499
  509SOL    HW1 1531   0.520   2.198   1.508
  509SOL    HW2 1532   0.357   2.196   1.503
  510SOL     OW 1533   1.603   2.309   0.737
  510SOL    HW1 1534   1.529   2.355   0.687
  510SOL    HW2 1535   1.654   2.377   0.790
  511SOL     OW 1536   0.231   3.575   0.483
  511SOL    HW1 1537   0.265   3.652   0.537
  511SOL    HW2 1538   0.275   3.575   0.393
  512SOL     OW 1539   1.127   3.203   1.690
  512SOL    HW1 1540   1.174   3.203   1.778
  512SOL    HW2 1541   1.079   3.116   1.679
  513SOL     OW 1542   0.230   3.296   0.538
  513SOL    HW1 1543   0.204   3.392   0.538
  513SOL    HW2 1544   0.159   3.242   0.583
  514SOL     OW 1545   0.240   2.953   0.886
  514SOL    HW1 1546   0.254   2.869   0.938
  514SOL    HW2 1547   0.185   3.017   0.941
  515SOL     OW 1548   0.620   3.648   1.439
  515SOL    HW1 1549   0.528   3.631   1.474
  515SOL    HW2 1550   0.648   3.740   1.465
  516SOL     OW 1551   0.606   2.826   0.123
  516SOL    HW1 1552   0.613   2.910   0.069
  516SOL    HW2 1553   0.652   2.839   0.211
  517SOL     OW 1554   1.594   1.976   1.480
  517SOL    HW1 1555   1.576   2.043   1.408
  517SOL    HW2 1556   1.591   2.022   1.569
  518SOL     OW 1557   0.122   2.505   0.563
  518SOL    HW1 1558   0.077   2.417   0.580
  518SOL    HW2 1559   0.121   2.559   0.647
  519SOL     OW 1560   1.842   3.629   0.359
  519SOL    HW1 1561   1.896   3.600   0.439
  519SOL    HW2 1562   1.872   3.719   0.330
  520SOL     OW 1563   0.027   3.458   0.117
  520SOL    HW1 1564   0.008   3.362   0.138
  520SOL    HW2 1565  -0.006   3.516   0.192
  521SOL     OW 1566   1.689   2.784   0.612
  521SOL    HW1 1567   1.784   2.755   0.620
  521SOL    HW2 1568   1.681   2.849   0.537
  522SOL     OW 1569   1.641   2.970   0.432
  522SOL    HW1 1570   1.727   2.972   0.380
  522SOL    HW2 1571   1.655   3.017   0.520
  523SOL     OW 1572   0.113   2.599   1.597
  523SOL    HW1 1573   0.201   2.586   1.642
  523SOL    HW2 1574   0.100   2.696   1.575
  524SOL     OW 1575   0.613   3.227   0.726
  524SOL    HW1 1576   0.564   3.140   0.735
  524SOL    HW2 1577   0.590   3.270   0.639
  525SOL     OW 1578   1.293   3.090   1.423
  525SOL    HW1 1579   1.330   3.017   1.365
  525SOL    HW2 1580   1.345   3.095   1.508
  526SOL     OW 1581   0.809   1.866   0.502
  526SOL    HW1 1582   0.849   1.957   0.493
  526SOL    HW2 1583   0.709   1.874   0.508
  527SOL     OW 1584   0.197   2.838   1.264
  527SOL    HW1 1585   0.286   2.793   1.250
  527SOL    HW2 1586   0.124   2.773   1.245
  528SOL     OW 1587   1.525   2.861   0.190
  528SOL    HW1 1588   1.462   2.785   0.203
  528SOL    HW2 1589   1.573   2.879   0.276
  529SOL     OW 1590   1.187   3.654   1.616
  529SOL    HW1 1591   1.211   3.714   1.540
  529SOL    HW2 1592   1.194   3.559   1.586
  530SOL     OW 1593   0.317   2.113   1.801
  530SOL    HW1 1594   0.388   2.184   1.807
  530SOL    HW2 1595   0.229   2.152   1.829
  531SOL     OW 1596   1.466   3.279   0.953
  531SOL    HW1 1597   1.407   3.285   1.033
  531SOL    HW2 1598   1.451   3.191   0.907
  532SOL     OW 1599   1.667   3.576   0.572
  532SOL    HW1 1600   1.626   3.553   0.484
  532SOL    HW2 1601   1.649   3.502   0.637
  533SOL     OW 1602   0.598   2.591   0.270
  533SOL    HW1 1603   0.622   2.660   0.202
  533SOL    HW2 1604   0.520   2.624   0.324
  534SOL     OW 1605   1.281   2.207   0.944
  534SOL    HW1 1606   1.195   2.157   0.931
  534SOL    HW2 1607   1.343   2.153   1.000
  535SOL     OW 1608   1.576   3.524   0.307
  535SOL    HW1 1609   1.665   3.570   0.310
  535SOL    HW2 1610   1.555   3.500   0.212
  536SOL     OW 1611   0.807   2.467   1.465
  536SOL    HW1 1612   0.760   2.464   1.554
  536SOL    HW2 1613   0.756   2.412   1.399
  537SOL     OW 1614   1.394   2.331   1.674
  537SOL    HW1 1615   1.374   2.374   1.762
  537SOL    HW2 1616   1.472   2.269   1.683
  538SOL     OW 1617   0.973   2.752   1.572
  538SOL    HW1 1618   1.019   2.668   1.543
  538SOL    HW2 1619   0.917   2.786   1.497
  539SOL     OW 1620   0.991   2.272   1.242
  539SOL    HW1 1621   0.914   2.306   1.296
  539SOL    HW2 1622   0.957   2.221   1.163
  540SOL     OW 1623   1.041   2.563   0.429
  540SOL    HW1 1624   1.067   2.559   0.525
  540SOL    HW2 1625   0.956   2.512   0.415
  541SOL     OW 1626   0.076   2.673   0.789
  541SOL    HW1 1627   0.175   2.661   0.798
  541SOL    HW2 1628   0.052   2.768   0.810
  542SOL     OW 1629   0.130   3.683   1.571
  542SOL    HW1 1630   0.120   3.668   1.670
  542SOL    HW2 1631   0.044   3.719   1.535
  543SOL     OW 1632   0.865   2.210   0.195
  543SOL    HW1 1633   0.924   2.273   0.146
  543SOL    HW2 1634   0.884   2.116   0.166
  544SOL     OW 1635   1.719   2.447   1.831
  544SOL    HW1 1636   1.693   2.536   1.795
  544SOL    HW2 1637   1.717   2.379   1.758
  545SOL     OW 1638   1.362   3.006   0.545
  545SOL    HW1 1639   1.445   2.977   0.497
  545SOL    HW2 1640   1.313   3.073   0.489
  546SOL     OW 1641   0.550   2.058   0.885
  546SOL    HW1 1642   0.545   2.053   0.985
  546SOL    HW2 1643   0.552   2.154   0.856
  547SOL     OW 1644   1.008   3.318   0.477
  547SOL    HW1 1645   0.962   3.390   0.425
  547SOL    HW2 1646   1.004   3.338   0.575
  548SOL     OW 1647   0.351   3.663   0.853
  548SOL    HW1 1648   0.401   3.577   0.859
  548SOL    HW2 1649   0.416   3.740   0.850
  549SOL     OW 1650   1.795   2.928   0.873
  549SOL    HW1 1651   1.733   2.913   0.797
  549SOL    HW2 1652   1.743   2.939   0.958
  550SOL     OW 1653   1.227   3.412   1.506
  550SOL    HW1 1654   1.233   3.335   1.570
  550SOL    HW2 1655   1.175   3.386   1.426
  551SOL     OW 1656   0.321   2.805   0.242
  551SOL    HW1 1657   0.403   2.844   0.200
  551SOL    HW2 1658   0.294   2.723   0.193
  552SOL     OW 1659   1.458   2.597   0.728
  552SOL    HW1 1660   1.453   2.532   0.803
  552SOL    HW2 1661   1.538   2.656   0.741
  553SOL     OW 1662   0.461   3.128   1.727
  553SOL    HW1 1663   0.411   3.129   1.641
  553SOL    HW2 1664   0.398   3.110   1.803
  554SOL     OW 1665   1.111   3.638   0.237
  554SOL    HW1 1666   1.051   3.576   0.287
  554SOL    HW2 1667   1.142   3.594   0.152
  555SOL     OW 1668   0.202   2.147   1.498
  555SOL    HW1 1669   0.122   2.207   1.485
  555SOL    HW2 1670   0.192   2.098   1.584
  556SOL     OW 1671   1.632   3.239   0.081
  556SOL    HW1 1672   1.600   3.333   0.071
  556SOL    HW2 1673   1.556   3.176   0.069
  557SOL     OW 1674   0.464   3.605   0.323
  557SOL    HW1 1675   0.497   3.644   0.409
  557SOL    HW2 1676   0.540   3.598   0.258
  558SOL     OW 1677   1.400   1.969   0.426
  558SOL    HW1 1678   1.376   1.932   0.336
  558SOL    HW2 1679   1.499   1.985   0.430
  559SOL     OW 1680   0.249   3.647   1.241
  559SOL    HW1 1681   0.306   3.582   1.291
  559SOL    HW2 1682   0.233   3.614   1.148
  560SOL     OW 1683   0.940   3.560   0.904
  560SOL    HW1 1684   1.020   3.503   0.925
  560SOL    HW2 1685   0.891   3.520   0.827
  561SOL     OW 1686   0.382   2.562   0.480
  561SOL    HW1 1687   0.427   2.472   0.477
  561SOL    HW2 1688   0.288   2.551   0.513
  562SOL     OW 1689   1.547   2.084   1.729
  562SOL    HW1 1690   1.542   2.121   1.821
  562SOL    HW2 1691   1.475   2.015   1.717
  563SOL     OW 1692   0.614   1.984   0.117
  563SOL    HW1 1693   0.712   1.962   0.124
  563SOL    HW2 1694   0.583   1.967   0.024
  564SOL     OW 1695   0.781   2.126   1.749
  564SOL    HW1 1696   0.848   2.065   1.792
  564SOL    HW2 1697   0.708   2.145   1.814
  565SOL     OW 1698   0.888   3.376   1.195
  565SOL    HW1 1699   0.865   3.351   1.101
  565SOL    HW2 1700   0.949   3.307   1.234
  566SOL     OW 1701   1.351   2.452   1.433
  566SOL    HW1 1702   1.379   2.409   1.518
  566SOL    HW2 1703   1.376   2.548   1.434
  567SOL     OW 1704   0.803   3.264   0.924
  567SOL    HW1 1705   0.893   3.278   0.882
  567SOL    HW2 1706   0.732   3.266   0.853
  568SOL     OW 1707   0.922   2.365   0.899
  568SOL    HW1 1708   0.897   2.356   0.803
  568SOL    HW2 1709   0.970   2.283   0.930
  569SOL     OW 1710   0.539   1.926   0.512
  569SOL    HW1 1711   0.458   1.927   0.570
  569SOL    HW2 1712   0.542   2.009   0.457
  570SOL     OW 1713   1.434   3.050   0.041
  570SOL    HW1 1714   1.466   2.974   0.098
  570SOL    HW2 1715   1.342   3.077   0.071
  571SOL     OW 1716   0.297   1.897   0.171
  571SOL    HW1 1717   0.346   1.981   0.150
  571SOL    HW2 1718   0.359   1.832   0.216
  572SOL     OW 1719   0.935   2.098   0.480
  572SOL    HW1 1720   0.887   2.139   0.402
  572SOL    HW2 1721   1.034   2.096   0.461
  573SOL     OW 1722   1.076   2.545   1.464
  573SOL    HW1 1723   0.996   2.484   1.467
  573SOL    HW2 1724   1.157   2.492   1.440
  574SOL     OW 1725   1.227   3.432   0.793
  574SOL    HW1 1726   1.248   3.506   0.728
  574SOL    HW2 1727   1.295   3.432   0.866
  575SOL     OW 1728   0.459   3.014   0.741
  575SOL    HW1 1729   0.388   2.987   0.806
  575SOL    HW2 1730   0.433   2.986   0.648
  576SOL     OW 1731   1.271   3.659   0.591
  576SOL    HW1 1732   1.315   3.723   0.527
  576SOL    HW2 1733   1.221   3.711   0.661
  577SOL     OW 1734   1.032   2.411   0.016
  577SOL    HW1 1735   0.991   2.493  -0.023
  577SOL    HW2 1736   1.096   2.437   0.089
  578SOL     OW 1737   0.078   2.418   1.386
  578SOL    HW1 1738   0.170   2.417   1.345
  578SOL    HW2 1739   0.072   2.492   1.453
  579SOL     OW 1740   0.561   2.084   1.147
  579SOL    HW1 1741   0.599   2.000   1.184
  579SOL    HW2 1742   0.473   2.103   1.191
  580SOL     OW 1743   0.866   2.316   0.642
  580SOL    HW1 1744   0.834   2.388   0.580
  580SOL    HW2 1745   0.890   2.235   0.589
  581SOL     OW 1746   1.017   1.901   0.753
  581SOL    HW1 1747   0.945   1.906   0.684
  581SOL    HW2 1748   0.993   1.832   0.822
  582SOL     OW 1749   1.429   3.035   0.867
  582SOL    HW1 1750   1.374   2.951   0.860
  582SOL    HW2 1751   1.455   3.064   0.775
  583SOL     OW 1752   1.466   2.452   0.992
  583SOL    HW1 1753   1.436   2.357   0.999
  583SOL    HW2 1754   1.539   2.468   1.058
  584SOL     OW 1755   1.857   2.695   0.377
  584SOL    HW1 1756   1.899   2.631   0.441
  584SOL    HW2 1757   1.819   2.644   0.299
  585SOL     OW 1758   0.488   3.247   0.174
  585SOL    HW1 1759   0.401   3.232   0.221
  585SOL    HW2 1760   0.471   3.273   0.079
  586SOL     OW 1761   1.664   3.142   0.657
  586SOL    HW1 1762   1.763   3.150   0.671
  586SOL    HW2 1763   1.619   3.226   0.688
  587SOL     OW 1764   1.390   2.437   0.078
  587SOL    HW1 1765   1.336   2.416   0.159
  587SOL    HW2 1766   1.481   2.396   0.087
  588SOL     OW 1767   0.527   2.118   0.328
  588SOL    HW1 1768   0.554   2.059   0.253
  588SOL    HW2 1769   0.527   2.213   0.297
  589SOL     OW 1770   1.754   3.085   1.588
  589SOL    HW1 1771   1.845   3.046   1.575
  589SOL    HW2 1772   1.762   3.181   1.612
  590SOL     OW 1773   1.064   3.209   1.340
  590SOL    HW1 1774   0.984   3.186   1.395
  590SOL    HW2 1775   1.147   3.183   1.389
  591SOL     OW 1776   1.592   3.491   1.625
  591SOL    HW1 1777   1.619   3.525   1.535
  591SOL    HW2 1778   1.671   3.453   1.671
  592SOL     OW 1779   1.111   3.057   1.100
  592SOL    HW1 1780   1.071   3.101   1.181
  592SOL    HW2 1781   1.070   3.094   1.017
  593SOL     OW 1782   1.638   2.961   1.079
  593SOL    HW1 1783   1.643   3.042   1.138
  593SOL    HW2 1784   1.552   2.963   1.028
  594SOL     OW 1785   0.915   1.951   1.402
  594SOL    HW1 1786   0.940   1.931   1.307
  594SOL    HW2 1787   0.987   2.007   1.444
  595SOL     OW 1788   0.980   2.978   1.719
  595SOL    HW1 1789   0.881   2.984   1.729
  595SOL    HW2 1790   1.003   2.898   1.663
  596SOL     OW 1791   0.705   2.912   0.368
  596SOL    HW1 1792   0.691   2.919   0.467
  596SOL    HW2 1793   0.789   2.861   0.350
  597SOL     OW 1794   0.410   2.675   1.251
  597SOL    HW1 1795   0.496   2.687   1.301
  597SOL    HW2 1796   0.368   2.588   1.278
  598SOL     OW 1797   1.274   2.248   1.262
  598SOL    HW1 1798   1.295   2.322   1.326
  598SOL    HW2 1799   1.185   2.265   1.219
  599SOL     OW 1800   0.064   3.426   1.331
  599SOL    HW1 1801   0.018   3.508   1.297
  599SOL    HW2 1802   0.162   3.445   1.340
  600SOL     OW 1803   0.367   2.962   0.501
  600SOL    HW1 1804   0.360   3.045   0.445
  600SOL    HW2 1805   0.371   2.882   0.441
  601SOL     OW 1806   0.566   2.399   0.865
  601SOL    HW1 1807   0.578   2.465   0.791
  601SOL    HW2 1808   0.612   2.433   0.948
  602SOL     OW 1809   1.252   3.210   0.388
  602SOL    HW1 1810   1.302   3.287   0.428
  602SOL    HW2 1811   1.157   3.212   0.420
  603SOL     OW 1812   1.272   3.307   1.142
  603SOL    HW1 1813   1.319   3.320   1.229
  603SOL    HW2 1814   1.206   3.233   1.151
  604SOL     OW 1815   1.582   2.501   0.472
  604SOL    HW1 1816   1.551   2.562   0.545
  604SOL    HW2 1817   1.632   2.553   0.403
  605SOL     OW 1818   0.354   3.372   1.329
  605SOL    HW1 1819   0.333   3.328   1.242
  605SOL    HW2 1820   0.451   3.398   1.332
  606SOL     OW 1821   0.402   2.613   1.598
  606SOL    HW1 1822   0.470   2.668   1.551
  606SOL    HW2 1823   0.442   2.525   1.625
  607SOL     OW 1824   1.587   2.641   1.670
  607SOL    HW1 1825   1.495   2.679   1.665
  607SOL    HW2 1826   1.647   2.688   1.605
  608SOL     OW 1827   1.013   1.967   1.770
  608SOL    HW1 1828   1.019   2.052   1.718
  608SOL    HW2 1829   1.045   1.891   1.713
  609SOL     OW 1830   0.504   1.912   1.740
  609SOL    HW1 1831   0.462   1.855   1.670
  609SOL    HW2 1832   0.438   1.981   1.772
  610SOL     OW 1833   0.573   2.732   1.029
  610SOL    HW1 1834   0.617   2.821   1.020
  610SOL    HW2 1835   0.510   2.732   1.106
  611SOL     OW 1836   1.360   2.724   1.045
  611SOL    HW1 1837   1.285   2.724   0.979
  611SOL    HW2 1838   1.397   2.632   1.054
  612SOL     OW 1839   1.209   2.387   0.275
  612SOL    HW1 1840   1.222   2.303   0.329
  612SOL    HW2 1841   1.180   2.461   0.335
  613SOL     OW 1842   0.307   2.075   1.231
  613SOL    HW1 1843   0.284   2.112   1.321
  613SOL    HW2 1844   0.277   1.980   1.225
  614SOL     OW 1845   0.037   3.172   1.282
  614SOL    HW1 1846   0.090   3.123   1.350
  614SOL    HW2 1847   0.059   3.270   1.287
  615SOL     OW 1848   0.732   2.496   1.064
  615SOL    HW1 1849   0.791   2.470   0.988
  615SOL    HW2 1850   0.704   2.592   1.053
  616SOL     OW 1851   1.728   2.797   1.854
  616SOL    HW1 1852   1.682   2.790   1.765
  616SOL    HW2 1853   1.666   2.841   1.920
  617SOL     OW 1854   0.307   1.925   0.618
  617SOL    HW1 1855   0.296   2.019   0.651
  617SOL    HW2 1856   0.302   1.862   0.695
  618SOL     OW 1857   1.622   2.229   0.374
  618SOL    HW1 1858   1.624   2.153   0.438
  618SOL    HW2 1859   1.574   2.306   0.414
  619SOL     OW 1860   1.023   2.628   0.966
  619SOL    HW1 1861   1.038   2.649   1.062
  619SOL    HW2 1862   0.993   2.533   0.957
  620SOL     OW 1863   0.980   3.435   1.700
  620SOL    HW1 1864   0.960   3.479   1.612
  620SOL    HW2 1865   1.019   3.344   1.684
  621SOL     OW 1866   1.859   3.380   1.605
  621SOL    HW1 1867   1.873   3.407   1.510
  621SOL    HW2 1868   1.942   3.402   1.658
  622SOL     OW 1869   0.350   2.760   1.804
  622SOL    HW1 1870   0.426   2.804   1.852
  622SOL    HW2 1871   0.385   2.713   1.722
  623SOL     OW 1872   1.540   2.136   0.125
  623SOL    HW1 1873   1.479   2.061   0.148
  623SOL    HW2 1874   1.562   2.188   0.208
  624SOL     OW 1875   1.303   2.700   0.042
  624SOL    HW1 1876   1.337   2.607   0.057
  624SOL    HW2 1877   1.321   2.727  -0.053
  625SOL     OW 1878   1.068   3.195   0.849
  625SOL    HW1 1879   1.075   3.111   0.794
  625SOL    HW2 1880   1.130   3.264   0.813
  626SOL     OW 1881   0.319   2.672   0.949
  626SOL    HW1 1882   0.412   2.708   0.954
  626SOL    HW2 1883   0.313   2.587   1.001
  627SOL     OW 1884   0.339   2.371   1.006
  627SOL    HW1 1885   0.287   2.288   0.989
  627SOL    HW2 1886   0.416   2.376   0.942
  628SOL     OW 1887   1.138   2.242   1.678
  628SOL    HW1 1888   1.093   2.305   1.742
  628SOL    HW2 1889   1.231   2.273   1.661
  629SOL     OW 1890   1.160   2.069   1.477
  629SOL    HW1 1891   1.160   2.133   1.554
  629SOL    HW2 1892   1.188   2.117   1.394
  630SOL     OW 1893   0.008   3.188   0.200
  630SOL    HW1 1894  -0.085   3.209   0.169
  630SOL    HW2 1895   0.018   3.089   0.213
  631SOL     OW 1896   0.088   3.663   0.927
  631SOL    HW1 1897   0.046   3.577   0.900
  631SOL    HW2 1898   0.182   3.666   0.893
  632SOL     OW 1899   0.504   3.430   0.910
  632SOL    HW1 1900   0.570   3.504   0.919
  632SOL    HW2 1901   0.548   3.351   0.868
  633SOL     OW 1902   1.002   2.658   1.238
  633SOL    HW1 1903   1.043   2.626   1.324
  633SOL    HW2 1904   0.906   2.631   1.235
  634SOL     OW 1905   0.040   2.406   1.114
  634SOL    HW1 1906   0.125   2.373   1.073
  634SOL    HW2 1907   0.053   2.421   1.212
  635SOL     OW 1908   0.189   2.382   1.722
  635SOL    HW1 1909   0.248   2.342   1.652
  635SOL    HW2 1910   0.131   2.453   1.681
  636SOL     OW 1911   1.369   2.812   1.660
  636SOL    HW1 1912   1.408   2.901   1.680
  636SOL    HW2 1913   1.379   2.792   1.563
  637SOL     OW 1914   0.815   2.434   0.325
  637SOL    HW1 1915   0.822   2.345   0.279
  637SOL    HW2 1916   0.721   2.468   0.317
  638SOL     OW 1917   1.657   2.466   1.206
  638SOL    HW1 1918   1.619   2.397   1.268
  638SOL    HW2 1919   1.739   2.430   1.162
  639SOL     OW 1920   0.252   3.426   1.744
  639SOL    HW1 1921   0.222   3.483   1.820
  639SOL    HW2 1922   0.245   3.329   1.770
  640SOL     OW 1923   0.671   2.326   1.269
  640SOL    HW1 1924   0.637   2.237   1.239
  640SOL    HW2 1925   0.697   2.380   1.189
  641SOL     OW 1926   0.930   3.540   1.465
  641SOL    HW1 1927   0.906   3.522   1.370
  641SOL    HW2 1928   0.960   3.634   1.475
  642SOL     OW 1929   0.473   2.362   0.191
  642SOL    HW1 1930   0.534   2.442   0.195
  642SOL    HW2 1931   0.378   2.393   0.198
  643SOL     OW 1932   0.159   2.999   1.466
  643SOL    HW1 1933   0.181   2.938   1.542
  643SOL    HW2 1934   0.169   2.950   1.380
  644SOL     OW 1935   1.347   2.921   1.234
  644SOL    HW1 1936   1.371   2.858   1.160
  644SOL    HW2 1937   1.257   2.961   1.216
  645SOL     OW 1938   1.302   2.717   0.309
  645SOL    HW1 1939   1.216   2.686   0.351
  645SOL    HW2 1940   1.298   2.703   0.210
  646SOL     OW 1941   1.759   3.609   1.154
  646SOL    HW1 1942   1.820   3.639   1.081
  646SOL    HW2 1943   1.721   3.520   1.132
  647SOL     OW 1944   1.252   3.593   1.128
  647SOL    HW1 1945   1.336   3.598   1.074
  647SOL    HW2 1946   1.229   3.497   1.146
  648SOL     OW 1947   0.083   3.120   1.022
  648SOL    HW1 1948   0.078   3.119   1.122
  648SOL    HW2 1949   0.000   3.079   0.984
  649SOL     OW 1950   0.688   3.524   1.716
  649SOL    HW1 1951   0.632   3.605   1.725
  649SOL    HW2 1952   0.740   3.528   1.630
  650SOL     OW 1953   0.903   1.948   0.133
  650SOL    HW1 1954   0.954   1.949   0.047
  650SOL    HW2 1955   0.959   1.906   0.204
  651SOL     OW 1956   1.726   1.997   0.523
  651SOL    HW1 1957   1.799   1.980   0.456
  651SOL    HW2 1958   1.695   1.910   0.561
  652SOL     OW 1959   1.388   3.435   0.477
  652SOL    HW1 1960   1.455   3.447   0.403
  652SOL    HW2 1961   1.348   3.524   0.500
  653SOL     OW 1962   0.130   3.656   1.851
  653SOL    HW1 1963   0.089   3.582   1.904
  653SOL    HW2 1964   0.194   3.707   1.909
  654SOL     OW 1965   1.280   2.789   0.672
  654SOL    HW1 1966   1.340   2.708   0.674
  654SOL    HW2 1967   1.320   2.858   0.612
  655SOL     OW 1968   0.830   3.135   1.422
  655SOL    HW1 1969   0.825   3.168   1.517
  655SOL    HW2 1970   0.744   3.154   1.376
  656SOL     OW 1971   0.672   3.478   0.154
  656SOL    HW1 1972   0.681   3.488   0.055
  656SOL    HW2 1973   0.632   3.389   0.175
  657SOL     OW 1974   1.650   3.582   1.394
  657SOL    HW1 1975   1.703   3.592   1.310
  657SOL    HW2 1976   1.623   3.672   1.428
  658SOL     OW 1977   1.841   2.037   0.963
  658SOL    HW1 1978   1.880   1.952   0.927
  658SOL    HW2 1979   1.743   2.039   0.944
  659SOL     OW 1980   0.263   2.188   0.720
  659SOL    HW1 1981   0.184   2.239   0.686
  659SOL    HW2 1982   0.254   2.173   0.818
  660SOL     OW 1983   1.194   3.474   0.031
  660SOL    HW1 1984   1.200   3.381   0.068
  660SOL    HW2 1985   1.135   3.474  -0.049
  661SOL     OW 1986   0.822   2.864   1.372
  661SOL    HW1 1987   0.862   2.863   1.280
  661SOL    HW2 1988   0.832   2.956   1.412
  662SOL     OW 1989   0.916   2.772   0.291
  662SOL    HW1 1990   0.979   2.810   0.223
  662SOL    HW2 1991   0.956   2.689   0.330
  663SOL     OW 1992   1.504   3.469   0.044
  663SOL    HW1 1993   1.412   3.506   0.051
  663SOL    HW2 1994   1.542   3.489  -0.046
  664SOL     OW 1995   0.372   3.150   1.490
  664SOL    HW1 1996   0.359   3.243   1.456
  664SOL    HW2 1997   0.288   3.098   1.477
  665SOL     OW 1998   1.614   3.154   1.289
  665SOL    HW1 1999   1.674   3.157   1.369
  665SOL    HW2 2000   1.539   3.218   1.302
  666SOL     OW 2001   1.039   2.960   0.696
  666SOL    HW1 2002   0.969   2.913   0.750
  666SOL    HW2 2003   1.098   2.892   0.653
  667SOL     OW 2004   1.014   2.098   0.971
  667SOL    HW1 2005   1.006   2.062   0.878
  667SOL    HW2 2006   1.012   2.022   1.036
  668SOL     OW 2007   0.590   3.349   0.491
  668SOL    HW1 2008   0.632   3.291   0.421
  668SOL    HW2 2009   0.546   3.428   0.447
  669SOL     OW 2010   1.709   2.247   1.381
  669SOL    HW1 2011   1.782   2.316   1.385
  669SOL    HW2 2012   1.737   2.172   1.322
  670SOL     OW 2013   0.255   3.210   0.290
  670SOL    HW1 2014   0.159   3.211   0.263
  670SOL    HW2 2015   0.267   3.263   0.374
  671SOL     OW 2016   0.105   2.875   1.726
  671SOL    HW1 2017   0.028   2.842   1.780
  671SOL    HW2 2018   0.190   2.845   1.768
  672SOL     OW 2019   0.672   2.065   1.489
  672SOL    HW1 2020   0.762   2.049   1.449
  672SOL    HW2 2021   0.680   2.070   1.588
  673SOL     OW 2022   0.075   2.207   0.033
  673SOL    HW1 2023  -0.017   2.179   0.004
  673SOL    HW2 2024   0.106   2.284  -0.023
  674SOL     OW 2025   1.440   2.718   1.398
  674SOL    HW1 2026   1.383   2.770   1.335
  674SOL    HW2 2027   1.536   2.730   1.374
  675SOL     OW 2028   0.072   2.028   0.318
  675SOL    HW1 2029   0.055   2.111   0.264
  675SOL    HW2 2030   0.162   1.991   0.296
  676SOL     OW 2031   1.183   3.197   0.119
  676SOL    HW1 2032   1.084   3.186   0.121
  676SOL    HW2 2033   1.217   3.212   0.212
  677SOL     OW 2034   0.613   2.704   1.431
  677SOL    HW1 2035   0.669   2.785   1.414
  677SOL    HW2 2036   0.672   2.624   1.434
  678SOL     OW 2037   1.493   3.629   0.959
  678SOL    HW1 2038   1.526   3.693   0.890
  678SOL    HW2 2039   1.559   3.623   1.034
  679SOL     OW 2040   0.716   2.427   1.708
  679SOL    HW1 2041   0.735   2.492   1.782
  679SOL    HW2 2042   0.776   2.347   1.717
  680SOL     OW 2043   1.450   3.082   1.633
  680SOL    HW1 2044   1.441   3.072   1.732
  680SOL    HW2 2045   1.546   3.075   1.607
  681SOL     OW 2046   0.390   3.603   1.560
  681SOL    HW1 2047   0.299   3.644   1.558
  681SOL    HW2 2048   0.383   3.509   1.592
  682SOL     OW 2049   1.674   2.745   1.254
  682SOL    HW1 2050   1.647   2.656   1.217
  682SOL    HW2 2051   1.675   2.813   1.181
  683SOL     OW 2052   1.225   2.187   0.449
  683SOL    HW1 2053   1.290   2.113   0.438
  683SOL    HW2 2054   1.245   2.237   0.533
  684SOL     OW 2055   0.594   2.607   0.652
  684SOL    HW1 2056   0.644   2.692   0.633
  684SOL    HW2 2057   0.506   2.609   0.604
  685SOL     OW 2058   1.777   2.204   1.642
  685SOL    HW1 2059   1.760   2.235   1.548
  685SOL    HW2 2060   1.693   2.167   1.680
  686SOL     OW 2061   1.730   2.796   1.517
  686SOL    HW1 2062   1.768   2.887   1.532
  686SOL    HW2 2063   1.722   2.779   1.418
  687SOL     OW 2064   0.859   3.236   0.016
  687SOL    HW1 2065   0.813   3.251   0.104
  687SOL    HW2 2066   0.903   3.321  -0.014
  688SOL     OW 2067   0.661   3.652   0.953
  688SOL    HW1 2068   0.615   3.740   0.940
  688SOL    HW2 2069   0.760   3.664   0.946
  689SOL     OW 2070   0.859   2.818   0.861
  689SOL    HW1 2071   0.913   2.749   0.909
  689SOL    HW2 2072   0.827   2.887   0.927
  690SOL     OW 2073   1.083   2.846   0.087
  690SOL    HW1 2074   1.060   2.899   0.005
  690SOL    HW2 2075   1.164   2.790   0.068
  691SOL     OW 2076   1.861   3.431   0.851
  691SOL    HW1 2077   1.790   3.419   0.781
  691SOL    HW2 2078   1.862   3.352   0.911
  692SOL     OW 2079   0.221   3.176   1.844
  692SOL    HW1 2080   0.156   3.103   1.823
  692SOL    HW2 2081   0.225   3.190   1.942
  693SOL     OW 2082   0.079   3.102   0.653
  693SOL    HW1 2083   0.078   3.055   0.741
  693SOL    HW2 2084   0.161   3.074   0.602
  694SOL     OW 2085   0.672   3.253   1.624
  694SOL    HW1 2086   0.594   3.203   1.662
  694SOL    HW2 2087   0.669   3.348   1.655
  695SOL     OW 2088   1.824   2.054   1.227
  695SOL    HW1 2089   1.820   1.964   1.271
  695SOL    HW2 2090   1.827   2.043   1.128
  696SOL     OW 2091   0.428   2.286   0.520
  696SOL    HW1 2092   0.458   2.214   0.458
  696SOL    HW2 2093   0.389   2.246   0.603
  697SOL     OW 2094   1.705   3.349   1.104
  697SOL    HW1 2095   1.612   3.324   1.077
  697SOL    HW2 2096   1.731   3.299   1.186
  698SOL     OW 2097   0.317   2.409   1.280
  698SOL    HW1 2098   0.355   2.350   1.352
  698SOL    HW2 2099   0.357   2.383   1.192
  699SOL     OW 2100   0.812   3.448   0.687
  699SOL    HW1 2101   0.844   3.458   0.593
  699SOL    HW2 2102   0.733   3.386   0.689
  700SOL     OW 2103   1.424   2.076   1.112
  700SOL    HW1 2104   1.476   2.011   1.167
  700SOL    HW2 2105   1.375   2.139   1.173
  701SOL     OW 2106   1.001   1.896   1.154
  701SOL    HW1 2107   0.938   1.824   1.123
  701SOL    HW2 2108   1.094   1.860   1.154
  702SOL     OW 2109   0.770   3.192   0.301
  702SOL    HW1 2110   0.724   3.105   0.318
  702SOL    HW2 2111   0.861   3.189   0.342
  703SOL     OW 2112   0.618   3.429   1.284
  703SOL    HW1 2113   0.613   3.511   1.341
  703SOL    HW2 2114   0.707   3.426   1.239
  704SOL     OW 2115   1.352   1.914   0.168
  704SOL    HW1 2116   1.387   1.873   0.084
  704SOL    HW2 2117   1.262   1.876   0.188
  705SOL     OW 2118   1.300   2.315   0.691
  705SOL    HW1 2119   1.241   2.395   0.695
  705SOL    HW2 2120   1.315   2.280   0.784
  706SOL     OW 2121   1.593   2.083   0.882
  706SOL    HW1 2122   1.509   2.082   0.936
  706SOL    HW2 2123   1.595   2.166   0.826
  707SOL     OW 2124   0.039   2.939   0.300
  707SOL    HW1 2125   0.138   2.928   0.291
  707SOL    HW2 2126  -0.001   2.853   0.332
  708SOL     OW 2127   0.875   3.508   0.337
  708SOL    HW1 2128   0.798   3.473   0.283
  708SOL    HW2 2129   0.843   3.579   0.399
  709SOL     OW 2130   0.230   2.490   1.975
  709SOL    HW1 2131   0.137   2.488   2.012
  709SOL    HW2 2132   0.231   2.451   1.883
  710SOL     OW 2133   0.225   2.137   2.858
  710SOL    HW1 2134   0.260   2.120   2.950
  710SOL    HW2 2135   0.137   2.092   2.846
  711SOL     OW 2136   0.019   2.230   2.509
  711SOL    HW1 2137  -0.063   2.273   2.548
  711SOL    HW2 2138  -0.009   2.157   2.446
  712SOL     OW 2139   0.569   3.137   3.027
  712SOL    HW1 2140   0.476   3.130   2.990
  712SOL    HW2 2141   0.580   3.226   3.071
  713SOL     OW 2142   1.555   3.373   2.565
  713SOL    HW1 2143   1.498   3.357   2.646
  713SOL    HW2 2144   1.496   3.383   2.485
  714SOL     OW 2145   1.135   2.565   2.579
  714SOL    HW1 2146   1.192   2.643   2.554
  714SOL    HW2 2147   1.075   2.591   2.655
  715SOL     OW 2148   1.755   2.469   2.093
  715SOL    HW1 2149   1.743   2.456   1.994
  715SOL    HW2 2150   1.725   2.388   2.142
  716SOL     OW 2151   0.768   3.006   2.885
  716SOL    HW1 2152   0.690   3.023   2.945
  716SOL    HW2 2153   0.802   3.093   2.849
  717SOL     OW 2154   0.850   2.660   3.685
  717SOL    HW1 2155   0.846   2.736   3.750
  717SOL    HW2 2156   0.872   2.696   3.594
  718SOL     OW 2157   0.685   2.874   2.527
  718SOL    HW1 2158   0.754   2.858   2.597
  718SOL    HW2 2159   0.612   2.931   2.565
  719SOL     OW 2160   0.686   3.023   3.665
  719SOL    HW1 2161   0.746   3.102   3.679
  719SOL    HW2 2162   0.600   3.054   3.624
  720SOL     OW 2163   0.335   3.297   2.923
  720SOL    HW1 2164   0.257   3.266   2.870
  720SOL    HW2 2165   0.393   3.355   2.866
  721SOL     OW 2166   1.460   3.367   3.201
  721SOL    HW1 2167   1.484   3.461   3.227
  721SOL    HW2 2168   1.444   3.313   3.283
  722SOL     OW 2169   0.438   2.254   3.361
  722SOL    HW1 2170   0.520   2.198   3.370
  722SOL    HW2 2171   0.357   2.196   3.365
  723SOL     OW 2172   1.603   2.309   2.599
  723SOL    HW1 2173   1.529   2.355   2.549
  723SOL    HW2 2174   1.654   2.377   2.652
  724SOL     OW 2175   0.231   3.575   2.345
  724SOL    HW1 2176   0.265   3.652   2.399
  724SOL    HW2 2177   0.275   3.575   2.255
  725SOL     OW 2178   1.127   3.203   3.552
  725SOL    HW1 2179   1.174   3.203   3.640
  725SOL    HW2 2180   1.079   3.116   3.541
  726SOL     OW 2181   0.230   3.296   2.400
  726SOL    HW1 2182   0.204   3.392   2.400
  726SOL    HW2 2183   0.159   3.242   2.445
  727SOL     OW 2184   0.240   2.953   2.748
  727SOL    HW1 2185   0.254   2.869   2.800
  727SOL    HW2 2186   0.185   3.017   2.803
  728SOL     OW 2187   0.620   3.648   3.301
  728SOL    HW1 2188   0.528   3.631   3.336
  728SOL    HW2 2189   0.648   3.740   3.327
  729SOL     OW 2190   0.606   2.826   1.985
  729SOL    HW1 2191   0.613   2.910   1.931
  729SOL    HW2 2192   0.652   2.839   2.073
  730SOL     OW 2193   1.594   1.976   3.342
  730SOL    HW1 2194   1.576   2.043   3.270
  730SOL    HW2 2195   1.591   2.022   3.431
  731SOL     OW 2196   0.122   2.505   2.425
  731SOL    HW1 2197   0.077   2.417   2.442
  731SOL    HW2 2198   0.121   2.559   2.509
  732SOL     OW 2199   1.842   3.629   2.221
  732SOL    HW1 2200   1.896   3.600   2.301
  732SOL    HW2 2201   1.872   3.719   2.192
  733SOL     OW 2202   0.027   3.458   1.979
  733SOL    HW1 2203   0.008   3.362   2.000
  733SOL    HW2 2204  -0.006   3.516   2.054
  734SOL     OW 2205   1.689   2.784   2.474
  734SOL    HW1 2206   1.784   2.755   2.482
  734SOL    HW2 2207   1.681   2.849   2.399
  735SOL     OW 2208   1.641   2.970   2.294
  735SOL    HW1 2209   1.727   2.972   2.242
  735SOL    HW2 2210   1.655   3.017   2.382
  736SOL     OW 2211   0.113   2.599   3.459
  736SOL    HW1 2212   0.201   2.586   3.504
  736SOL    HW2 2213   0.100   2.696   3.437
  737SOL     OW 2214   0.613   3.227   2.588
  737SOL    HW1 2215   0.564   3.140   2.597
  737SOL    HW2 2216   0.590   3.270   2.501
  738SOL     OW 2217   1.293   3.090   3.285
  738SOL    HW1 2218   1.330   3.017   3.227
  738SOL    HW2 2219   1.345   3.095   3.370
  739SOL     OW 2220   0.809   1.866   2.364
  739SOL    HW1 2221   0.849   1.957   2.355
  739SOL    HW2 2222   0.709   1.874   2.370
  740SOL     OW 2223   0.197   2.838   3.126
  740SOL    HW1 2224   0.286   2.793   3.112
  740SOL    HW2 2225   0.124   2.773   3.107
  741SOL     OW 2226   1.525   2.861   2.052
  741SOL    HW1 2227   1.462   2.785   2.065
  741SOL    HW2 2228   1.573   2.879   2.138
  742SOL     OW 2229   1.187   3.654   3.478
  742SOL    HW1 2230   1.211   3.714   3.402
  742SOL    HW2 2231   1.194   3.559   3.448
  743SOL     OW 2232   0.317   2.113   3.663
  743SOL    HW1 2233   0.388   2.184   3.669
  743SOL    HW2 2234   0.229   2.152   3.691
  744SOL     OW 2235   1.466   3.279   2.815
  744SOL    HW1 2236   1.407   3.285   2.895
  744SOL    HW2 2237   1.451   3.191   2.769
  745SOL     OW 2238   1.667   3.576   2.434
  745SOL    HW1 2239   1.626   3.553   2.346
  745SOL    HW2 2240   1.649   3.502   2.499
  746SOL     OW 2241   0.598   2.591   2.132
  746SOL    HW1 2242   0.622   2.660   2.064
  746SOL    HW2 2243   0.520   2.624   2.186
  747SOL     OW 2244   1.281   2.207   2.806
  747SOL    HW1 2245   1.195   2.157   2.793
  747SOL    HW2 2246   1.343   2.153   2.862
  748SOL     OW 2247   1.576   3.524   2.169
  748SOL    HW1 2248   1.665   3.570   2.172
  748SOL    HW2 2249   1.555   3.500   2.074
  749SOL     OW 2250   0.807   2.467   3.327
  749SOL    HW1 2251   0.760   2.464   3.416
  749SOL    HW2 2252   0.756   2.412   3.261
  750SOL     OW 2253   1.394   2.331   3.536
  750SOL    HW1 2254   1.374   2.374   3.624
  750SOL    HW2 2255   1.472   2.269   3.545
  751SOL     OW 2256   0.973   2.752   3.434
  751SOL    HW1 2257   1.019   2.668   3.405
  751SOL    HW2 2258   0.917   2.786   3.359
  752SOL     OW 2259   0.991   2.272   3.104
  752SOL    HW1 2260   0.914   2.306   3.158
  752SOL    HW2 2261   0.957   2.221   3.025
  753SOL     OW 2262   1.041   2.563   2.291
  753SOL    HW1 2263   1.067   2.559   2.387
  753SOL    HW2 2264   0.956   2.512   2.277
  754SOL     OW 2265   0.076   2.673   2.651
  754SOL    HW1 2266   0.175   2.661   2.660
  754SOL    HW2 2267   0.052   2.768   2.672
  755SOL     OW 2268   0.130   3.683   3.433
  755SOL    HW1 2269   0.120   3.668   3.532
  755SOL    HW2 2270   0.044   3.719   3.397
  756SOL     OW 2271   0.865   2.210   2.057
  756SOL    HW1 2272   0.924   2.273   2.008
  756SOL    HW2 2273   0.884   2.116   2.028
  757SOL     OW 2274   1.719   2.447   3.693
  757SOL    HW1 2275   1.693   2.536   3.657
  757SOL    HW2 2276   1.717   2.379   3.620
  758SOL     OW 2277   1.362   3.006   2.407
  758SOL    HW1 2278   1.445   2.977   2.359
  758SOL    HW2 2279   1.313   3.073   2.351
  759SOL     OW 2280   0.550   2.058   2.747
  759SOL    HW1 2281   0.545   2.053   2.847
  759SOL    HW2 2282   0.552   2.154   2.718
  760SOL     OW 2283   1.008   3.318   2.339
  760SOL    HW1 2284   0.962   3.390   2.287
  760SOL    HW2 2285   1.004   3.338   2.437
  761SOL     OW 2286   0.351   3.663   2.715
  761SOL    HW1 2287   0.401   3.577   2.721
  761SOL    HW2 2288   0.416   3.740   2.712
  762SOL     OW 2289   1.795   2.928   2.735
  762SOL    HW1 2290   1.733   2.913   2.659
  762SOL    HW2 2291   1.743   2.939   2.820
  763SOL     OW 2292   1.227   3.412   3.368
  763SOL    HW1 2293   1.233   3.335   3.432
  763SOL    HW2 2294   1.175   3.386   3.288
  764SOL     OW 2295   0.321   2.805   2.104
  764SOL    HW1 2296   0.403   2.844   2.062
  764SOL    HW2 2297   0.294   2.723   2.055
  765SOL     OW 2298   1.458   2.597   2.590
  765SOL    HW1 2299   1.453   2.532   2.665
  765SOL    HW2 2300   1.538   2.656   2.603
  766SOL     OW 2301   0.461   3.128   3.589
  766SOL    HW1 2302   0.411   3.129   3.503
  766SOL    HW2 2303   0.398   3.110   3.665
  767SOL     OW 2304   1.111   3.638   2.099
  767SOL    HW1 2305   1.051   3.576   2.149
  767SOL    HW2 2306   1.142   3.594   2.014
  768SOL     OW 2307   0.202   2.147   3.360
  768SOL    HW1 2308   0.122   2.207   3.347
  768SOL    HW2 2309   0.192   2.098   3.446
  769SOL     OW 2310   1.632   3.239   1.943
  769SOL    HW1 2311   1.600   3.333   1.933
  769SOL    HW2 2312   1.556   3.176   1.931
  770SOL     OW 2313   0.464   3.605   2.185
  770SOL    HW1 2314   0.497   3.644   2.271
  770SOL    HW2 2315   0.540   3.598   2.120
  771SOL     OW 2316   1.400   1.969   2.288
  771SOL    HW1 2317   1.376   1.932   2.198
  771SOL    HW2 2318   1.499   1.985   2.292
  772SOL     OW 2319   0.249   3.647   3.103
  772SOL    HW1 2320   0.306   3.582   3.153
  772SOL    HW2 2321   0.233   3.614   3.010
  773SOL     OW 2322   0.940   3.560   2.766
  773SOL    HW1 2323   1.020   3.503   2.787
  773SOL    HW2 2324   0.891   3.520   2.689
  774SOL     OW 2325   0.382   2.562   2.342
  774SOL    HW1 2326   0.427   2.472   2.339
  774SOL    HW2 2327   0.288   2.551   2.375
  775SOL     OW 2328   1.547   2.084   3.591
  775SOL    HW1 2329   1.542   2.121   3.683
  775SOL    HW2 2330   1.475   2.015   3.579
  776SOL     OW 2331   0.614   1.984   1.979
  776SOL    HW1 2332   0.712   1.962   1.986
  776SOL    HW2 2333   0.583   1.967   1.886
  777SOL     OW 2334   0.781   2.126   3.611
  777SOL    HW1 2335   0.848   2.065   3.654
  777SOL    HW2 2336   0.708   2.145   3.676
  778SOL     OW 2337   0.888   3.376   3.057
  778SOL    HW1 2338   0.865   3.351   2.963
  778SOL    HW2 2339   0.949   3.307   3.096
  779SOL     OW 2340   1.351   2.452   3.295
  779SOL    HW1 2341   1.379   2.409   3.380
  779SOL    HW2 2342   1.376   2.548   3.296
  780SOL     OW 2343   0.803   3.264   2.786
  780SOL    HW1 2344   0.893   3.278   2.744
  780SOL    HW2 2345   0.732   3.266   2.715
  781SOL     OW 2346   0.922   2.365   2.761
  781SOL    HW1 2347   0.897   2.356   2.665
  781SOL    HW2 2348   0.970   2.283   2.792
  782SOL     OW 2349   0.539   1.926   2.374
  782SOL    HW1 2350   0.458   1.927   2.432
  782SOL    HW2 2351   0.542   2.009   2.319
  783SOL     OW 2352   1.434   3.050   1.903
  783SOL    HW1 2353   1.466   2.974   1.960
  783SOL    HW2 2354   1.342   3.077   1.933
  784SOL     OW 2355   0.297   1.897   2.033
  784SOL    HW1 2356   0.346   1.981   2.012
  784SOL    HW2 2357   0.359   1.832   2.078
  785SOL     OW 2358   0.935   2.098   2.342
  785SOL    HW1 2359   0.887   2.139   2.264
  785SOL    HW2 2360   1.034   2.096   2.323
  786SOL     OW 2361   1.076   2.545   3.326
  786SOL    HW1 2362   0.996   2.484   3.329
  786SOL    HW2 2363   1.157   2.492   3.302
  787SOL     OW 2364   1.227   3.432   2.655
  787SOL    HW1 2365   1.248   3.506   2.590
  787SOL    HW2 2366   1.295   3.432   2.728
  788SOL     OW 2367   0.459   3.014   2.603
  788SOL    HW1 2368   0.388   2.987   2.668
  788SOL    HW2 2369   0.433   2.986   2.510
  789SOL     OW 2370   1.271   3.659   2.453
  789SOL    HW1 2371   1.315   3.723   2.389
  789SOL    HW2 2372   1.221   3.711   2.523
  790SOL     OW 2373   1.032   2.411   1.878
  790SOL    HW1 2374   0.991   2.493   1.839
  790SOL    HW2 2375   1.096   2.437   1.951
  791SOL     OW 2376   0.078   2.418   3.248
  791SOL    HW1 2377   0.170   2.417   3.207
  791SOL    HW2 2378   0.072   2.492   3.315
  792SOL     OW 2379   0.561   2.084   3.009
  792SOL    HW1 2380   0.599   2.000   3.046
  792SOL    HW2 2381   0.473   2.103   3.053
  793SOL     OW 2382   0.866   2.316   2.504
  793SOL    HW1 2383   0.834   2.388   2.442
  793SOL    HW2 2384   0.890   2.235   2.451
  794SOL     OW 2385   1.017   1.901   2.615
  794SOL    HW1 2386   0.945   1.906   2.546
  794SOL    HW2 2387   0.993   1.832   2.684
  795SOL     OW 2388   1.429   3.035   2.729
  795SOL    HW1 2389   1.374   2.951   2.722
  795SOL    HW2 2390   1.455   3.064   2.637
  796SOL     OW 2391   1.466   2.452   2.854
  796SOL    HW1 2392   1.436   2.357   2.861
  796SOL    HW2 2393   1.539   2.468   2.920
  797SOL     OW 2394   1.857   2.695   2.239
  797SOL    HW1 2395   1.899   2.631   2.303
  797SOL    HW2 2396   1.819   2.644   2.161
  798SOL     OW 2397   0.488   3.247   2.036
  798SOL    HW1 2398   0.401   3.232   2.083
  798SOL    HW2 2399   0.471   3.273   1.941
  799SOL     OW 2400   1.664   3.142   2.519
  799SOL    HW1 2401   1.763   3.150   2.533
  799SOL    HW2 2402   1.619   3.226   2.550
  800SOL     OW 2403   1.390   2.437   1.940
  800SOL    HW1 2404   1.336   2.416   2.021
  800SOL    HW2 2405   1.481   2.396   1.949
  801SOL     OW 2406   0.527   2.118   2.190
  801SOL    HW1 2407   0.554   2.059   2.115
  801SOL    HW2 2408   0.527   2.213   2.159
  802SOL     OW 2409   1.754   3.085   3.450
  802SOL    HW1 2410   1.845   3.046   3.437
  802SOL    HW2 2411   1.762   3.181   3.474
  803SOL     OW 2412   1.064   3.209   3.202
  803SOL    HW1 2413   0.984   3.186   3.257
  803SOL    HW2 2414   1.147   3.183   3.251
  804SOL     OW 2415   1.592   3.491   3.487
  804SOL    HW1 2416   1.619   3.525   3.397
  804SOL    HW2 2417   1.671   3.453   3.533
  805SOL     OW 2418   1.111   3.057   2.962
  805SOL    HW1 2419   1.071   3.101   3.043
  805SOL    HW2 2420   1.070   3.094   2.879
  806SOL     OW 2421   1.638   2.961   2.941
  806SOL    HW1 2422   1.643   3.042   3.000
  806SOL    HW2 2423   1.552   2.963   2.890
  807SOL     OW 2424   0.915   1.951   3.264
  807SOL    HW1 2425   0.940   1.931   3.169
  807SOL    HW2 2426   0.987   2.007   3.306
  808SOL     OW 2427   0.980   2.978   3.581
  808SOL    HW1 2428   0.881   2.984   3.591
  808SOL    HW2 2429   1.003   2.898   3.525
  809SOL     OW 2430   0.705   2.912   2.230
  809SOL    HW1 2431   0.691   2.919   2.329
  809SOL    HW2 2432   0.789   2.861   2.212
  810SOL     OW 2433   0.410   2.675   3.113
  810SOL    HW1 2434   0.496   2.687   3.163
  810SOL    HW2 2435   0.368   2.588   3.140
  811SOL     OW 2436   1.274   2.248   3.124
  811SOL    HW1 2437   1.295   2.322   3.188
  811SOL    HW2 2438   1.185   2.265   3.081
  812SOL     OW 2439   0.064   3.426   3.193
  812SOL    HW1 2440   0.018   3.508   3.159
  812SOL    HW2 2441   0.162   3.445   3.202
  813SOL     OW 2442   0.367   2.962   2.363
  813SOL    HW1 2443   0.360   3.045   2.307
  813SOL    HW2 2444   0.371   2.882   2.303
  814SOL     OW 2445   0.566   2.399   2.727
  814SOL    HW1 2446   0.578   2.465   2.653
  814SOL    HW2 2447   0.612   2.433   2.810
  815SOL     OW 2448   1.252   3.210   2.250
  815SOL    HW1 2449   1.302   3.287   2.290
  815SOL    HW2 2450   1.157   3.212   2.282
  816SOL     OW 2451   1.272   3.307   3.004
  816SOL    HW1 2452   1.319   3.320   3.091
  816SOL    HW2 2453   1.206   3.233   3.013
  817SOL     OW 2454   1.582   2.501   2.334
  817SOL    HW1 2455   1.551   2.562   2.407
  817SOL    HW2 2456   1.632   2.553   2.265
  818SOL     OW 2457   0.354   3.372   3.191
  818SOL    HW1 2458   0.333   3.328   3.104
  818SOL    HW2 2459   0.451   3.398   3.194
  819SOL     OW 2460   0.402   2.613   3.460
  819SOL    HW1 2461   0.470   2.668   3.413
  819SOL    HW2 2462   0.442   2.525   3.487
  820SOL     OW 2463   1.587   2.641   3.532
  820SOL    HW1 2464   1.495   2.679   3.527
  820SOL    HW2 2465   1.647   2.688   3.467
  821SOL     OW 2466   1.013   1.967   3.632
  821SOL    HW1 2467   1.019   2.052   3.580
  821SOL    HW2 2468   1.045   1.891   3.575
  822SOL     OW 2469   0.504   1.912   3.602
  822SOL    HW1 2470   0.462   1.855   3.532
  822SOL    HW2 2471   0.438   1.981   3.634
  823SOL     OW 2472   0.573   2.732   2.891
  823SOL    HW1 2473   0.617   2.821   2.882
  823SOL    HW2 2474   0.510   2.732   2.968
  824SOL     OW 2475   1.360   2.724   2.907
  824SOL    HW1 2476   1.285   2.724   2.841
  824SOL    HW2 2477   1.397   2.632   2.916
  825SOL     OW 2478   1.209   2.387   2.137
  825SOL    HW1 2479   1.222   2.303   2.191
  825SOL    HW2 2480   1.180   2.461   2.197
  826SOL     OW 2481   0.307   2.075   3.093
  826SOL    HW1 2482   0.284   2.112   3.183
  826SOL    HW2 2483   0.277   1.980   3.087
  827SOL     OW 2484   0.037   3.172   3.144
  827SOL    HW1 2485   0.090   3.123   3.212
  827SOL    HW2 2486   0.059   3.270   3.149
  828SOL     OW 2487   0.732   2.496   2.926
  828SOL    HW1 2488   0.791   2.470   2.850
  828SOL    HW2 2489   0.704   2.592   2.915
  829SOL     OW 2490   1.728   2.797   3.716
  829SOL    HW1 2491   1.682   2.790   3.627
  829SOL    HW2 2492   1.666   2.841   3.782
  830SOL     OW 2493   0.307   1.925   2.480
  830SOL    HW1 2494   0.296   2.019   2.513
  830SOL    HW2 2495   0.302   1.862   2.557
  831SOL     OW 2496   1.622   2.229   2.236
  831SOL    HW1 2497   1.624   2.153   2.300
  831SOL    HW2 2498   1.574   2.306   2.276
  832SOL     OW 2499   1.023   2.628   2.828
  832SOL    HW1 2500   1.038   2.649   2.924
  832SOL    HW2 2501   0.993   2.533   2.819
  833SOL     OW 2502   0.980   3.435   3.562
  833SOL    HW1 2503   0.960   3.479   3.474
  833SOL    HW2 2504   1.019   3.344   3.546
  834SOL     OW 2505   1.859   3.380   3.467
  834SOL    HW1 2506   1.873   3.407   3.372
  834SOL    HW2 2507   1.942   3.402   3.520
  835SOL     OW 2508   0.350   2.760   3.666
  835SOL    HW1 2509   0.426   2.804   3.714
  835SOL    HW2 2510   0.385   2.713   3.584
  836SOL     OW 2511   1.540   2.136   1.987
  836SOL    HW1 2512   1.479   2.061   2.010
  836SOL    HW2 2513   1.562   2.188   2.070
  837SOL     OW 2514   1.303   2.700   1.904
  837SOL    HW1 2515   1.337   2.607   1.919
  837SOL    HW2 2516   1.321   2.727   1.809
  838SOL     OW 2517   1.068   3.195   2.711
  838SOL    HW1 2518   1.075   3.111   2.656
  838SOL    HW2 2519   1.130   3.264   2.675
  839SOL     OW 2520   0.319   2.672   2.811
  839SOL    HW1 2521   0.412   2.708   2.816
  839SOL    HW2 2522   0.313   2.587   2.863
  840SOL     OW 2523   0.339   2.371   2.868
  840SOL    HW1 2524   0.287   2.288   2.851
  840SOL    HW2 2525   0.416   2.376   2.804
  841SOL     OW 2526   1.138   2.242   3.540
  841SOL    HW1 2527   1.093   2.305   3.604
  841SOL    HW2 2528   1.231   2.273   3.523
  842SOL     OW 2529   1.160   2.069   3.339
  842SOL    HW1 2530   1.160   2.133   3.416
  842SOL    HW2 2531   1.188   2.117   3.256
  843SOL     OW 2532   0.008   3.188   2.062
  843SOL    HW1 2533  -0.085   3.209   2.031
  843SOL    HW2 2534   0.018   3.089   2.075
  844SOL     OW 2535   0.088   3.663   2.789
  844SOL    HW1 2536   0.046   3.577   2.762
  844SOL    HW2 2537   0.182   3.666   2.755
  845SOL     OW 2538   0.504   3.430   2.772
  845SOL    HW1 2539   0.570   3.504   2.781
  845SOL    HW2 2540   0.548   3.351   2.730
  846SOL     OW 2541   1.002   2.658   3.100
  846SOL    HW1 2542   1.043   2.626   3.186
  846SOL    HW2 2543   0.906   2.631   3.097
  847SOL     OW 2544   0.040   2.406   2.976
  847SOL    HW1 2545   0.125   2.373   2.935
  847SOL    HW2 2546   0.053   2.421   3.074
  848SOL     OW 2547   0.189   2.382   3.584
  848SOL    HW1 2548   0.248   2.342   3.514
  848SOL    HW2 2549   0.131   2.453   3.543
  849SOL     OW 2550   1.369   2.812   3.522
  849SOL    HW1 2551   1.408   2.901   3.542
  849SOL    HW2 2552   1.379   2.792   3.425
  850SOL     OW 2553   0.815   2.434   2.187
  850SOL    HW1 2554   0.822   2.345   2.141
  850SOL    HW2 2555   0.721   2.468   2.179
  851SOL     OW 2556   1.657   2.466   3.068
  851SOL    HW1 2557   1.619   2.397   3.130
  851SOL    HW2 2558   1.739   2.430   3.024
  852SOL     OW 2559   0.252   3.426   3.606
  852SOL    HW1 2560   0.222   3.483   3.682
  852SOL    HW2 2561   0.245   3.329   3.632
  853SOL     OW 2562   0.671   2.326   3.131
  853SOL    HW1 2563   0.637   2.237   3.101
  853SOL    HW2 2564   0.697   2.380   3.051
  854SOL     OW 2565   0.930   3.540   3.327
  854SOL    HW1 2566   0.906   3.522   3.232
  854SOL    HW2 2567   0.960   3.634   3.337
  855SOL     OW 2568   0.473   2.362   2.053
  855SOL    HW1 2569   0.534   2.442   2.057
  855SOL    HW2 2570   0.378   2.393   2.060
  856SOL     OW 2571   0.159   2.999   3.328
  856SOL    HW1 2572   0.181   2.938   3.404
  856SOL    HW2 2573   0.169   2.950   3.242
  857SOL     OW 2574   1.347   2.921   3.096
  857SOL    HW1 2575   1.371   2.858   3.022
  857SOL    HW2 2576   1.257   2.961   3.078
  858SOL     OW 2577   1.302   2.717   2.171
  858SOL    HW1 2578   1.216   2.686   2.213
  858SOL    HW2 2579   1.298   2.703   2.072
  859SOL     OW 2580   1.759   3.609   3.016
  859SOL    HW1 2581   1.820   3.639   2.943
  859SOL    HW2 2582   1.721   3.520   2.994
  860SOL     OW 2583   1.252   3.593   2.990
  860SOL    HW1 2584   1.336   3.598   2.936
  860SOL    HW2 2585   1.229   3.497   3.008
  861SOL     OW 2586   0.083   3.120   2.884
  861SOL    HW1 2587   0.078   3.119   2.984
  861SOL    HW2 2588   0.000   3.079   2.846
  862SOL     OW 2589   0.688   3.524   3.578
  862SOL    HW1 2590   0.632   3.605   3.587
  862SOL    HW2 2591   0.740   3.528   3.492
  863SOL     OW 2592   1.726   1.997   2.385
  863SOL    HW1 2593   1.799   1.980   2.318
  863SOL    HW2 2594   1.695   1.910   2.423
  864SOL     OW 2595   1.388   3.435   2.339
  864SOL    HW1 2596   1.455   3.447   2.265
  864SOL    HW2 2597   1.348   3.524   2.362
  865SOL     OW 2598   0.130   3.656   3.713
  865SOL    HW1 2599   0.089   3.582   3.766
  865SOL    HW2 2600   0.194   3.707   3.771
  866SOL     OW 2601   1.280   2.789   2.534
  866SOL    HW1 2602   1.340   2.708   2.536
  866SOL    HW2 2603   1.320   2.858   2.474
  867SOL     OW 2604   0.830   3.135   3.284
  867SOL    HW1 2605   0.825   3.168   3.379
  867SOL    HW2 2606   0.744   3.154   3.238
  868SOL     OW 2607   0.672   3.478   2.016
  868SOL    HW1 2608   0.681   3.488   1.917
  868SOL    HW2 2609   0.632   3.389   2.037
  869SOL     OW 2610   1.650   3.582   3.256
  869SOL    HW1 2611   1.703   3.592   3.172
  869SOL    HW2 2612   1.623   3.672   3.290
  870SOL     OW 2613   1.841   2.037   2.825
  870SOL    HW1 2614   1.880   1.952   2.789
  870SOL    HW2 2615   1.743   2.039   2.806
  871SOL     OW 2616   0.263   2.188   2.582
  871SOL    HW1 2617   0.184   2.239   2.548
  871SOL    HW2 2618   0.254   2.173   2.680
  872SOL     OW 2619   1.194   3.474   1.893
  872SOL    HW1 2620   1.200   3.381   1.930
  872SOL    HW2 2621   1.135   3.474   1.813
  873SOL     OW 2622   0.822   2.864   3.234
  873SOL    HW1 2623   0.862   2.863   3.142
  873SOL    HW2 2624   0.832   2.956   3.274
  874SOL     OW 2625   0.916   2.772   2.153
  874SOL    HW1 2626   0.979   2.810   2.085
  874SOL    HW2 2627   0.956   2.689   2.192
  875SOL     OW 2628   1.504   3.469   1.906
  875SOL    HW1 2629   1.412   3.506   1.913
  875SOL    HW2 2630   1.542   3.489   1.816
  876SOL     OW 2631   0.372   3.150   3.352
  876SOL    HW1 2632   0.359   3.243   3.318
  876SOL    HW2 2633   0.288   3.098   3.339
  877SOL     OW 2634   1.614   3.154   3.151
  877SOL    HW1 2635   1.674   3.157   3.231
  877SOL    HW2 2636   1.539   3.218   3.164
  878SOL     OW 2637   1.039   2.960   2.558
  878SOL    HW1 2638   0.969   2.913   2.612
  878SOL    HW2 2639   1.098   2.892   2.515
  879SOL     OW 2640   1.014   2.098   2.833
  879SOL    HW1 2641   1.006   2.062   2.740
  879SOL    HW2 2642   1.012   2.022   2.898
  880SOL     OW 2643   0.590   3.349   2.353
  880SOL    HW1 2644   0.632   3.291   2.283
  880SOL    HW2 2645   0.546   3.428   2.309
  881SOL     OW 2646   1.709   2.247   3.243
  881SOL    HW1 2647   1.782   2.316   3.247
  881SOL    HW2 2648   1.737   2.172   3.184
  882SOL     OW 2649   0.255   3.210   2.152
  882SOL    HW1 2650   0.159   3.211   2.125
  882SOL    HW2 2651   0.267   3.263   2.236
  883SOL     OW 2652   0.105   2.875   3.588
  883SOL    HW1 2653   0.028   2.842   3.642
  883SOL    HW2 2654   0.190   2.845   3.630
  884SOL     OW 2655   0.672   2.065   3.351
  884SOL    HW1 2656   0.762   2.049   3.311
  884SOL    HW2 2657   0.680   2.070   3.450
  885SOL     OW 2658   0.075   2.207   1.895
  885SOL    HW1 2659  -0.017   2.179   1.866
  885SOL    HW2 2660   0.106   2.284   1.839
  886SOL     OW 2661   1.440   2.718   3.260
  886SOL    HW1 2662   1.383   2.770   3.197
  886SOL    HW2 2663   1.536   2.730   3.236
  887SOL     OW 2664   0.072   2.028   2.180
  887SOL    HW1 2665   0.055   2.111   2.126
  887SOL    HW2 2666   0.162   1.991   2.158
  888SOL     OW 2667   1.183   3.197   1.981
  888SOL    HW1 2668   1.084   3.186   1.983
  888SOL    HW2 2669   1.217   3.212   2.074
  889SOL     OW 2670   0.613   2.704   3.293
  889SOL    HW1 2671   0.669   2.785   3.276
  889SOL    HW2 2672   0.672   2.624   3.296
  890SOL     OW 2673   1.493   3.629   2.821
  890SOL    HW1 2674   1.526   3.693   2.752
  890SOL    HW2 2675   1.559   3.623   2.896
  891SOL     OW 2676   0.716   2.427   3.570
  891SOL    HW1 2677   0.735   2.492   3.644
  891SOL    HW2 2678   0.776   2.347   3.579
  892SOL     OW 2679   1.450   3.082   3.495
  892SOL    HW1 2680   1.441   3.072   3.594
  892SOL    HW2 2681   1.546   3.075   3.469
  893SOL     OW 2682   0.390   3.603   3.422
  893SOL    HW1 2683   0.299   3.644   3.420
  893SOL    HW2 2684   0.383   3.509   3.454
  894SOL     OW 2685   1.674   2.745   3.116
  894SOL    HW1 2686   1.647   2.656   3.079
  894SOL    HW2 2687   1.675   2.813   3.043
  895SOL     OW 2688   1.225   2.187   2.311
  895SOL    HW1 2689   1.290   2.113   2.300
  895SOL    HW2 2690   1.245   2.237   2.395
  896SOL     OW 2691   0.594   2.607   2.514
  896SOL    HW1 2692   0.644   2.692   2.495
  896SOL    HW2 2693   0.506   2.609   2.466
  897SOL     OW 2694   1.777   2.204   3.504
  897SOL    HW1 2695   1.760   2.235   3.410
  897SOL    HW2 2696   1.693   2.167   3.542
  898SOL     OW 2697   1.730   2.796   3.379
  898SOL    HW1 2698   1.768   2.887   3.394
  898SOL    HW2 2699   1.722   2.779   3.280
  899SOL     OW 2700   0.859   3.236   1.878
  899SOL    HW1 2701   0.813   3.251   1.966
  899SOL    HW2 2702   0.903   3.321   1.848
  900SOL     OW 2703   0.661   3.652   2.815
  900SOL    HW1 2704   0.615   3.740   2.802
  900SOL    HW2 2705   0.760   3.664   2.808
  901SOL     OW 2706   0.859   2.818   2.723
  901SOL    HW1 2707   0.913   2.749   2.771
  901SOL    HW2 2708   0.827   2.887   2.789
  902SOL     OW 2709   1.083   2.846   1.949
  902SOL    HW1 2710   1.060   2.899   1.867
  902SOL    HW2 2711   1.164   2.790   1.930
  903SOL     OW 2712   1.861   3.431   2.713
  903SOL    HW1 2713   1.790   3.419   2.643
  903SOL    HW2 2714   1.862   3.352   2.773
  904SOL     OW 2715   0.221   3.176   3.706
  904SOL    HW1 2716   0.156   3.103   3.685
  904SOL    HW2 2717   0.225   3.190   3.804
  905SOL     OW 2718   0.079   3.102   2.515
  905SOL    HW1 2719   0.078   3.055   2.603
  905SOL    HW2 2720   0.161   3.074   2.464
  906SOL     OW 2721   0.672   3.253   3.486
  906SOL    HW1 2722   0.594   3.203   3.524
  906SOL    HW2 2723   0.669   3.348   3.517
  907SOL     OW 2724   1.824   2.054   3.089
  907SOL    HW1 2725   1.820   1.964   3.133
  907SOL    HW2 2726   1.827   2.043   2.990
  908SOL     OW 2727   0.428   2.286   2.382
  908SOL    HW1 2728   0.458   2.214   2.320
  908SOL    HW2 2729   0.389   2.246   2.465
  909SOL     OW 2730   1.705   3.349   2.966
  909SOL    HW1 2731   1.612   3.324   2.939
  909SOL    HW2 2732   1.731   3.299   3.048
  910SOL     OW 2733   0.317   2.409   3.142
  910SOL    HW1 2734   0.355   2.350   3.214
  910SOL    HW2 2735   0.357   2.383   3.054
  911SOL     OW 2736   0.812   3.448   2.549
  911SOL    HW1 2737   0.844   3.458   2.455
  911SOL    HW2 2738   0.733   3.386   2.551
  912SOL     OW 2739   1.424   2.076   2.974
  912SOL    HW1 2740   1.476   2.011   3.029
  912SOL    HW2 2741   1.375   2.139   3.035
  913SOL     OW 2742   1.001   1.896   3.016
  913SOL    HW1 2743   0.938   1.824   2.985
  913SOL    HW2 2744   1.094   1.860   3.016
  914SOL     OW 2745   0.770   3.192   2.163
  914SOL    HW1 2746   0.724   3.105   2.180
  914SOL    HW2 2747   0.861   3.189   2.204
  915SOL     OW 2748   0.618   3.429   3.146
  915SOL    HW1 2749   0.613   3.511   3.203
  915SOL    HW2 2750   0.707   3.426   3.101
  916SOL     OW 2751   1.352   1.914   2.030
  916SOL    HW1 2752   1.387   1.873   1.946
  916SOL    HW2 2753   1.262   1.876   2.050
  917SOL     OW 2754   1.300   2.315   2.553
  917SOL    HW1 2755   1.241   2.395   2.557
  917SOL    HW2 2756   1.315   2.280   2.646
  918SOL     OW 2757   1.593   2.083   2.744
  918SOL    HW1 2758   1.509   2.082   2.798
  918SOL    HW2 2759   1.595   2.166   2.688
  919SOL     OW 2760   0.039   2.939   2.162
  919SOL    HW1 2761   0.138   2.928   2.153
  919SOL    HW2 2762  -0.001   2.853   2.194
  920SOL     OW 2763   0.875   3.508   2.199
  920SOL    HW1 2764   0.798   3.473   2.145
  920SOL    HW2 2765   0.843   3.579   2.261
  921SOL     OW 2766   0.230   2.490   3.837
  921SOL    HW1 2767   0.137   2.488   3.874
  921SOL    HW2 2768   0.231   2.451   3.745
  922SOL     OW 2769   1.755   2.469   3.955
  922SOL    HW1 2770   1.743   2.456   3.856
  922SOL    HW2 2771   1.725   2.388   4.004
  923SOL     OW 2772   0.231   3.575   4.207
  923SOL    HW1 2773   0.265   3.652   4.261
  923SOL    HW2 2774   0.275   3.575   4.117
  924SOL     OW 2775   0.230   3.296   4.262
  924SOL    HW1 2776   0.204   3.392   4.262
  924SOL    HW2 2777   0.159   3.242   4.307
  925SOL     OW 2778   0.606   2.826   3.847
  925SOL    HW1 2779   0.613   2.910   3.793
  925SOL    HW2 2780   0.652   2.839   3.935
  926SOL     OW 2781   0.122   2.505   4.287
  926SOL    HW1 2782   0.077   2.417   4.304
  926SOL    HW2 2783   0.121   2.559   4.371
  927SOL     OW 2784   1.842   3.629   4.083
  927SOL    HW1 2785   1.896   3.600   4.163
  927SOL    HW2 2786   1.872   3.719   4.054
  928SOL     OW 2787   0.027   3.458   3.841
  928SOL    HW1 2788   0.008   3.362   3.862
  928SOL    HW2 2789  -0.006   3.516   3.916
  929SOL     OW 2790   1.689   2.784   4.336
  929SOL    HW1 2791   1.784   2.755   4.344
  929SOL    HW2 2792   1.681   2.849   4.261
  930SOL     OW 2793   1.641   2.970   4.156
  930SOL    HW1 2794   1.727   2.972   4.104
  930SOL    HW2 2795   1.655   3.017   4.244
  931SOL     OW 2796   0.809   1.866   4.226
  931SOL    HW1 2797   0.849   1.957   4.217
  931SOL    HW2 2798   0.709   1.874   4.232
  932SOL     OW 2799   1.525   2.861   3.914
  932SOL    HW1 2800   1.462   2.785   3.927
  932SOL    HW2 2801   1.573   2.879   4.000
  933SOL     OW 2802   0.598   2.591   3.994
  933SOL    HW1 2803   0.622   2.660   3.926
  933SOL    HW2 2804   0.520   2.624   4.048
  934SOL     OW 2805   1.576   3.524   4.031
  934SOL    HW1 2806   1.665   3.570   4.034
  934SOL    HW2 2807   1.555   3.500   3.936
  935SOL     OW 2808   1.041   2.563   4.153
  935SOL    HW1 2809   1.067   2.559   4.249
  935SOL    HW2 2810   0.956   2.512   4.139
  936SOL     OW 2811   0.076   2.673   4.513
  936SOL    HW1 2812   0.175   2.661   4.522
  936SOL    HW2 2813   0.052   2.768   4.534
  937SOL     OW 2814   0.865   2.210   3.919
  937SOL    HW1 2815   0.924   2.273   3.870
  937SOL    HW2 2816   0.884   2.116   3.890
  938SOL     OW 2817   0.321   2.805   3.966
  938SOL    HW1 2818   0.403   2.844   3.924
  938SOL    HW2 2819   0.294   2.723   3.917
  939SOL     OW 2820   1.111   3.638   3.961
  939SOL    HW1 2821   1.051   3.576   4.011
  939SOL    HW2 2822   1.142   3.594   3.876
  940SOL     OW 2823   1.632   3.239   3.805
  940SOL    HW1 2824   1.600   3.333   3.795
  940SOL    HW2 2825   1.556   3.176   3.793
  941SOL     OW 2826   0.464   3.605   4.047
  941SOL    HW1 2827   0.497   3.644   4.133
  941SOL    HW2 2828   0.540   3.598   3.982
  942SOL     OW 2829   1.400   1.969   4.150
  942SOL    HW1 2830   1.376   1.932   4.060
  942SOL    HW2 2831   1.499   1.985   4.154
  943SOL     OW 2832   0.382   2.562   4.204
  943SOL    HW1 2833   0.427   2.472   4.201
  943SOL    HW2 2834   0.288   2.551   4.237
  944SOL     OW 2835   0.614   1.984   3.841
  944SOL    HW1 2836   0.712   1.962   3.848
  944SOL    HW2 2837   0.583   1.967   3.748
  945SOL     OW 2838   0.539   1.926   4.236
  945SOL    HW1 2839   0.458   1.927   4.294
  945SOL    HW2 2840   0.542   2.009   4.181
  946SOL     OW 2841   1.434   3.050   3.765
  946SOL    HW1 2842   1.466   2.974   3.822
  946SOL    HW2 2843   1.342   3.077   3.795
  947SOL     OW 2844   0.297   1.897   3.895
  947SOL    HW1 2845   0.346   1.981   3.874
  947SOL    HW2 2846   0.359   1.832   3.940
  948SOL     OW 2847   0.935   2.098   4.204
  948SOL    HW1 2848   0.887   2.139   4.126
  948SOL    HW2 2849   1.034   2.096   4.185
  949SOL     OW 2850   0.459   3.014   4.465
  949SOL    HW1 2851   0.388   2.987   4.530
  949SOL    HW2 2852   0.433   2.986   4.372
  950SOL     OW 2853   1.271   3.659   4.315
  950SOL    HW1 2854   1.315   3.723   4.251
  950SOL    HW2 2855   1.221   3.711   4.385
  951SOL     OW 2856   1.032   2.411   3.740
  951SOL    HW1 2857   0.991   2.493   3.701
  951SOL    HW2 2858   1.096   2.437   3.813
  952SOL     OW 2859   0.866   2.316   4.366
  952SOL    HW1 2860   0.834   2.388   4.304
  952SOL    HW2 2861   0.890   2.235   4.313
  953SOL     OW 2862   1.857   2.695   4.101
  953SOL    HW1 2863   1.899   2.631   4.165
  953SOL    HW2 2864   1.819   2.644   4.023
  954SOL     OW 2865   0.488   3.247   3.898
  954SOL    HW1 2866   0.401   3.232   3.945
  954SOL    HW2 2867   0.471   3.273   3.803
  955SOL     OW 2868   1.390   2.437   3.802
  955SOL    HW1 2869   1.336   2.416   3.883
  955SOL    HW2 2870   1.481   2.396   3.811
  956SOL     OW 2871   0.527   2.118   4.052
  956SOL    HW1 2872   0.554   2.059   3.977
  956SOL    HW2 2873   0.527   2.213   4.021
  957SOL     OW 2874   0.705   2.912   4.092
  957SOL    HW1 2875   0.691   2.919   4.191
  957SOL    HW2 2876   0.789   2.861   4.074
  958SOL     OW 2877   0.367   2.962   4.225
  958SOL    HW1 2878   0.360   3.045   4.169
  958SOL    HW2 2879   0.371   2.882   4.165
  959SOL     OW 2880   1.252   3.210   4.112
  959SOL    HW1 2881   1.302   3.287   4.152
  959SOL    HW2 2882   1.157   3.212   4.144
  960SOL     OW 2883   1.582   2.501   4.196
  960SOL    HW1 2884   1.551   2.562   4.269
  960SOL    HW2 2885   1.632   2.553   4.127
  961SOL     OW 2886   1.209   2.387   3.999
  961SOL    HW1 2887   1.222   2.303   4.053
  961SOL    HW2 2888   1.180   2.461   4.059
  962SOL     OW 2889   1.622   2.229   4.098
  962SOL    HW1 2890   1.624   2.153   4.162
  962SOL    HW2 2891   1.574   2.306   4.138
  963SOL     OW 2892   1.540   2.136   3.849
  963SOL    HW1 2893   1.479   2.061   3.872
  963SOL    HW2 2894   1.562   2.188   3.932
  964SOL     OW 2895   1.303   2.700   3.766
  964SOL    HW1 2896   1.337   2.607   3.781
  964SOL    HW2 2897   1.321   2.727   3.671
  965SOL     OW 2898   0.008   3.188   3.924
  965SOL    HW1 2899  -0.085   3.209   3.893
  965SOL    HW2 2900   0.018   3.089   3.937
  966SOL     OW 2901   0.815   2.434   4.049
  966SOL    HW1 2902   0.822   2.345   4.003
  966SOL    HW2 2903   0.721   2.468   4.041
  967SOL     OW 2904   0.473   2.362   3.915
  967SOL    HW1 2905   0.534   2.442   3.919
  967SOL    HW2 2906   0.378   2.393   3.922
  968SOL     OW 2907   1.302   2.717   4.033
  968SOL    HW1 2908   1.216   2.686   4.075
  968SOL    HW2 2909   1.298   2.703   3.934
  969SOL     OW 2910   1.726   1.997   4.247
  969SOL    HW1 2911   1.799   1.980   4.180
  969SOL    HW2 2912   1.695   1.910   4.285
  970SOL     OW 2913   1.388   3.435   4.201
  970SOL    HW1 2914   1.455   3.447   4.127
  970SOL    HW2 2915   1.348   3.524   4.224
  971SOL     OW 2916   0.672   3.478   3.878
  971SOL    HW1 2917   0.681   3.488   3.779
  971SOL    HW2 2918   0.632   3.389   3.899
  972SOL     OW 2919   1.194   3.474   3.755
  972SOL    HW1 2920   1.200   3.381   3.792
  972SOL    HW2 2921   1.135   3.474   3.675
  973SOL     OW 2922   0.916   2.772   4.015
  973SOL    HW1 2923   0.979   2.810   3.947
  973SOL    HW2 2924   0.956   2.689   4.054
  974SOL     OW 2925   1.504   3.469   3.768
  974SOL    HW1 2926   1.412   3.506   3.775
  974SOL    HW2 2927   1.542   3.489   3.678
  975SOL     OW 2928   0.590   3.349   4.215
  975SOL    HW1 2929   0.632   3.291   4.145
  975SOL    HW2 2930   0.546   3.428   4.171
  976SOL     OW 2931   0.255   3.210   4.014
  976SOL    HW1 2932   0.159   3.211   3.987
  976SOL    HW2 2933   0.267   3.263   4.098
  977SOL     OW 2934   0.075   2.207   3.757
  977SOL    HW1 2935  -0.017   2.179   3.728
  977SOL    HW2 2936   0.106   2.284   3.701
  978SOL     OW 2937   0.072   2.028   4.042
  978SOL    HW1 2938   0.055   2.111   3.988
  978SOL    HW2 2939   0.162   1.991   4.020
  979SOL     OW 2940   1.183   3.197   3.843
  979SOL    HW1 2941   1.084   3.186   3.845
  979SOL    HW2 2942   1.217   3.212   3.936
  980SOL     OW 2943   1.225   2.187   4.173
  980SOL    HW1 2944   1.290   2.113   4.162
  980SOL    HW2 2945   1.245   2.237   4.257
  981SOL     OW 2946   0.594   2.607   4.376
  981SOL    HW1 2947   0.644   2.692   4.357
  981SOL    HW2 2948   0.506   2.609   4.328
  982SOL     OW 2949   0.859   3.236   3.740
  982SOL    HW1 2950   0.813   3.251   3.828
  982SOL    HW2 2951   0.903   3.321   3.710
  983SOL     OW 2952   1.083   2.846   3.811
  983SOL    HW1 2953   1.060   2.899   3.729
  983SOL    HW2 2954   1.164   2.790   3.792
  984SOL     OW 2955   0.079   3.102   4.377
  984SOL    HW1 2956   0.078   3.055   4.465
  984SOL    HW2 2957   0.161   3.074   4.326
  985SOL     OW 2958   0.428   2.286   4.244
  985SOL    HW1 2959   0.458   2.214   4.182
  985SOL    HW2 2960   0.389   2.246   4.327
  986SOL     OW 2961   0.770   3.192   4.025
  986SOL    HW1 2962   0.724   3.105   4.042
  986SOL    HW2 2963   0.861   3.189   4.066
  987SOL     OW 2964   1.352   1.914   3.892
  987SOL    HW1 2965   1.387   1.873   3.808
  987SOL    HW2 2966   1.262   1.876   3.912
  988SOL     OW 2967   0.039   2.939   4.024
  988SOL    HW1 2968   0.138   2.928   4.015
  988SOL    HW2 2969  -0.001   2.853   4.056
  989SOL     OW 2970   0.875   3.508   4.061
  989SOL    HW1 2971   0.798   3.473   4.007
  989SOL    HW2 2972   0.843   3.579   4.123
  990SOL     OW 2973   0.225   3.999   0.996
  990SOL    HW1 2974   0.260   3.982   1.088
  990SOL    HW2 2975   0.137   3.954   0.984
  991SOL     OW 2976   0.019   4.092   0.647
  991SOL    HW1 2977  -0.063   4.135   0.686
  991SOL    HW2 2978  -0.009   4.019   0.584
  992SOL     OW 2979   1.755   4.331   0.231
  992SOL    HW1 2980   1.743   4.318   0.132
  992SOL    HW2 2981   1.725   4.250   0.280
  993SOL     OW 2982   0.438   4.116   1.499
  993SOL    HW1 2983   0.520   4.060   1.508
  993SOL    HW2 2984   0.357   4.058   1.503
  994SOL     OW 2985   1.603   4.171   0.737
  994SOL    HW1 2986   1.529   4.217   0.687
  994SOL    HW2 2987   1.654   4.239   0.790
  995SOL     OW 2988   1.594   3.838   1.480
  995SOL    HW1 2989   1.576   3.905   1.408
  995SOL    HW2 2990   1.591   3.884   1.569
  996SOL     OW 2991   0.122   4.367   0.563
  996SOL    HW1 2992   0.077   4.279   0.580
  996SOL    HW2 2993   0.121   4.421   0.647
  997SOL     OW 2994   0.809   3.728   0.502
  997SOL    HW1 2995   0.849   3.819   0.493
  997SOL    HW2 2996   0.709   3.736   0.508
  998SOL     OW 2997   0.317   3.975   1.801
  998SOL    HW1 2998   0.388   4.046   1.807
  998SOL    HW2 2999   0.229   4.014   1.829
  999SOL     OW 3000   1.281   4.069   0.944
  999SOL    HW1 3001   1.195   4.019   0.931
  999SOL    HW2 3002   1.343   4.015   1.000
 1000SOL     OW 3003   0.807   4.329   1.465
 1000SOL    HW1 3004   0.760   4.326   1.554
 1000SOL    HW2 3005   0.756   4.274   1.399
 1001SOL     OW 3006   1.394   4.193   1.674
 1001SOL    HW1 3007   1.374   4.236   1.762
 1001SOL    HW2 3008   1.472   4.131   1.683
 1002SOL     OW 3009   0.991   4.134   1.242
 1002SOL    HW1 3010   0.914   4.168   1.296
 1002SOL    HW2 3011   0.957   4.083   1.163
 1003SOL     OW 3012   1.041   4.425   0.429
 1003SOL    HW1 3013   1.067   4.421   0.525
 1003SOL    HW2 3014   0.956   4.374   0.415
 1004SOL     OW 3015   0.076   4.535   0.789
 1004SOL    HW1 3016   0.175   4.523   0.798
 1004SOL    HW2 3017   0.052   4.630   0.810
 1005SOL     OW 3018   0.865   4.072   0.195
 1005SOL    HW1 3019   0.924   4.135   0.146
 1005SOL    HW2 3020   0.884   3.978   0.166
 1006SOL     OW 3021   1.719   4.309   1.831
 1006SOL    HW1 3022   1.693   4.398   1.795
 1006SOL    HW2 3023   1.717   4.241   1.758
 1007SOL     OW 3024   0.550   3.920   0.885
 1007SOL    HW1 3025   0.545   3.915   0.985
 1007SOL    HW2 3026   0.552   4.016   0.856
 1008SOL     OW 3027   1.458   4.459   0.728
 1008SOL    HW1 3028   1.453   4.394   0.803
 1008SOL    HW2 3029   1.538   4.518   0.741
 1009SOL     OW 3030   0.202   4.009   1.498
 1009SOL    HW1 3031   0.122   4.069   1.485
 1009SOL    HW2 3032   0.192   3.960   1.584
 1010SOL     OW 3033   1.400   3.831   0.426
 1010SOL    HW1 3034   1.376   3.794   0.336
 1010SOL    HW2 3035   1.499   3.847   0.430
 1011SOL     OW 3036   1.547   3.946   1.729
 1011SOL    HW1 3037   1.542   3.983   1.821
 1011SOL    HW2 3038   1.475   3.877   1.717
 1012SOL     OW 3039   0.614   3.846   0.117
 1012SOL    HW1 3040   0.712   3.824   0.124
 1012SOL    HW2 3041   0.583   3.829   0.024
 1013SOL     OW 3042   0.781   3.988   1.749
 1013SOL    HW1 3043   0.848   3.927   1.792
 1013SOL    HW2 3044   0.708   4.007   1.814
 1014SOL     OW 3045   1.351   4.314   1.433
 1014SOL    HW1 3046   1.379   4.271   1.518
 1014SOL    HW2 3047   1.376   4.410   1.434
 1015SOL     OW 3048   0.922   4.227   0.899
 1015SOL    HW1 3049   0.897   4.218   0.803
 1015SOL    HW2 3050   0.970   4.145   0.930
 1016SOL     OW 3051   0.539   3.788   0.512
 1016SOL    HW1 3052   0.458   3.789   0.570
 1016SOL    HW2 3053   0.542   3.871   0.457
 1017SOL     OW 3054   0.297   3.759   0.171
 1017SOL    HW1 3055   0.346   3.843   0.150
 1017SOL    HW2 3056   0.359   3.694   0.216
 1018SOL     OW 3057   0.935   3.960   0.480
 1018SOL    HW1 3058   0.887   4.001   0.402
 1018SOL    HW2 3059   1.034   3.958   0.461
 1019SOL     OW 3060   0.078   4.280   1.386
 1019SOL    HW1 3061   0.170   4.279   1.345
 1019SOL    HW2 3062   0.072   4.354   1.453
 1020SOL     OW 3063   0.561   3.946   1.147
 1020SOL    HW1 3064   0.599   3.862   1.184
 1020SOL    HW2 3065   0.473   3.965   1.191
 1021SOL     OW 3066   1.017   3.763   0.753
 1021SOL    HW1 3067   0.945   3.768   0.684
 1021SOL    HW2 3068   0.993   3.694   0.822
 1022SOL     OW 3069   1.466   4.314   0.992
 1022SOL    HW1 3070   1.436   4.219   0.999
 1022SOL    HW2 3071   1.539   4.330   1.058
 1023SOL     OW 3072   0.527   3.980   0.328
 1023SOL    HW1 3073   0.554   3.921   0.253
 1023SOL    HW2 3074   0.527   4.075   0.297
 1024SOL     OW 3075   0.915   3.813   1.402
 1024SOL    HW1 3076   0.940   3.793   1.307
 1024SOL    HW2 3077   0.987   3.869   1.444
 1025SOL     OW 3078   1.274   4.110   1.262
 1025SOL    HW1 3079   1.295   4.184   1.326
 1025SOL    HW2 3080   1.185   4.127   1.219
 1026SOL     OW 3081   0.566   4.261   0.865
 1026SOL    HW1 3082   0.578   4.327   0.791
 1026SOL    HW2 3083   0.612   4.295   0.948
 1027SOL     OW 3084   1.013   3.829   1.770
 1027SOL    HW1 3085   1.019   3.914   1.718
 1027SOL    HW2 3086   1.045   3.753   1.713
 1028SOL     OW 3087   0.504   3.774   1.740
 1028SOL    HW1 3088   0.462   3.717   1.670
 1028SOL    HW2 3089   0.438   3.843   1.772
 1029SOL     OW 3090   1.209   4.249   0.275
 1029SOL    HW1 3091   1.222   4.165   0.329
 1029SOL    HW2 3092   1.180   4.323   0.335
 1030SOL     OW 3093   0.307   3.937   1.231
 1030SOL    HW1 3094   0.284   3.974   1.321
 1030SOL    HW2 3095   0.277   3.842   1.225
 1031SOL     OW 3096   0.732   4.358   1.064
 1031SOL    HW1 3097   0.791   4.332   0.988
 1031SOL    HW2 3098   0.704   4.454   1.053
 1032SOL     OW 3099   0.307   3.787   0.618
 1032SOL    HW1 3100   0.296   3.881   0.651
 1032SOL    HW2 3101   0.302   3.724   0.695
 1033SOL     OW 3102   1.622   4.091   0.374
 1033SOL    HW1 3103   1.624   4.015   0.438
 1033SOL    HW2 3104   1.574   4.168   0.414
 1034SOL     OW 3105   1.540   3.998   0.125
 1034SOL    HW1 3106   1.479   3.923   0.148
 1034SOL    HW2 3107   1.562   4.050   0.208
 1035SOL     OW 3108   0.339   4.233   1.006
 1035SOL    HW1 3109   0.287   4.150   0.989
 1035SOL    HW2 3110   0.416   4.238   0.942
 1036SOL     OW 3111   1.138   4.104   1.678
 1036SOL    HW1 3112   1.093   4.167   1.742
 1036SOL    HW2 3113   1.231   4.135   1.661
 1037SOL     OW 3114   1.160   3.931   1.477
 1037SOL    HW1 3115   1.160   3.995   1.554
 1037SOL    HW2 3116   1.188   3.979   1.394
 1038SOL     OW 3117   0.040   4.268   1.114
 1038SOL    HW1 3118   0.125   4.235   1.073
 1038SOL    HW2 3119   0.053   4.283   1.212
 1039SOL     OW 3120   0.189   4.244   1.722
 1039SOL    HW1 3121   0.248   4.204   1.652
 1039SOL    HW2 3122   0.131   4.315   1.681
 1040SOL     OW 3123   0.815   4.296   0.325
 1040SOL    HW1 3124   0.822   4.207   0.279
 1040SOL    HW2 3125   0.721   4.330   0.317
 1041SOL     OW 3126   1.657   4.328   1.206
 1041SOL    HW1 3127   1.619   4.259   1.268
 1041SOL    HW2 3128   1.739   4.292   1.162
 1042SOL     OW 3129   0.671   4.188   1.269
 1042SOL    HW1 3130   0.637   4.099   1.239
 1042SOL    HW2 3131   0.697   4.242   1.189
 1043SOL     OW 3132   0.903   3.810   0.133
 1043SOL    HW1 3133   0.954   3.811   0.047
 1043SOL    HW2 3134   0.959   3.768   0.204
 1044SOL     OW 3135   1.726   3.859   0.523
 1044SOL    HW1 3136   1.799   3.842   0.456
 1044SOL    HW2 3137   1.695   3.772   0.561
 1045SOL     OW 3138   1.841   3.899   0.963
 1045SOL    HW1 3139   1.880   3.814   0.927
 1045SOL    HW2 3140   1.743   3.901   0.944
 1046SOL     OW 3141   0.263   4.050   0.720
 1046SOL    HW1 3142   0.184   4.101   0.686
 1046SOL    HW2 3143   0.254   4.035   0.818
 1047SOL     OW 3144   1.014   3.960   0.971
 1047SOL    HW1 3145   1.006   3.924   0.878
 1047SOL    HW2 3146   1.012   3.884   1.036
 1048SOL     OW 3147   1.709   4.109   1.381
 1048SOL    HW1 3148   1.782   4.178   1.385
 1048SOL    HW2 3149   1.737   4.034   1.322
 1049SOL     OW 3150   0.672   3.927   1.489
 1049SOL    HW1 3151   0.762   3.911   1.449
 1049SOL    HW2 3152   0.680   3.932   1.588
 1050SOL     OW 3153   0.075   4.069   0.033
 1050SOL    HW1 3154  -0.017   4.041   0.004
 1050SOL    HW2 3155   0.106   4.146  -0.023
 1051SOL     OW 3156   0.072   3.890   0.318
 1051SOL    HW1 3157   0.055   3.973   0.264
 1051SOL    HW2 3158   0.162   3.853   0.296
 1052SOL     OW 3159   0.716   4.289   1.708
 1052SOL    HW1 3160   0.735   4.354   1.782
 1052SOL    HW2 3161   0.776   4.209   1.717
 1053SOL     OW 3162   1.225   4.049   0.449
 1053SOL    HW1 3163   1.290   3.975   0.438
 1053SOL    HW2 3164   1.245   4.099   0.533
 1054SOL     OW 3165   1.777   4.066   1.642
 1054SOL    HW1 3166   1.760   4.097   1.548
 1054SOL    HW2 3167   1.693   4.029   1.680
 1055SOL     OW 3168   1.824   3.916   1.227
 1055SOL    HW1 3169   1.820   3.826   1.271
 1055SOL    HW2 3170   1.827   3.905   1.128
 1056SOL     OW 3171   0.428   4.148   0.520
 1056SOL    HW1 3172   0.458   4.076   0.458
 1056SOL    HW2 3173   0.389   4.108   0.603
 1057SOL     OW 3174   0.317   4.271   1.280
 1057SOL    HW1 3175   0.355   4.212   1.352
 1057SOL    HW2 3176   0.357   4.245   1.192
 1058SOL     OW 3177   1.424   3.938   1.112
 1058SOL    HW1 3178   1.476   3.873   1.167
 1058SOL    HW2 3179   1.375   4.001   1.173
 1059SOL     OW 3180   1.001   3.758   1.154
 1059SOL    HW1 3181   0.938   3.686   1.123
 1059SOL    HW2 3182   1.094   3.722   1.154
 1060SOL     OW 3183   1.352   3.776   0.168
 1060SOL    HW1 3184   1.387   3.735   0.084
 1060SOL    HW2 3185   1.262   3.738   0.188
 1061SOL     OW 3186   1.300   4.177   0.691
 1061SOL    HW1 3187   1.241   4.257   0.695
 1061SOL    HW2 3188   1.315   4.142   0.784
 1062SOL     OW 3189   1.593   3.945   0.882
 1062SOL    HW1 3190   1.509   3.944   0.936
 1062SOL    HW2 3191   1.595   4.028   0.826
 1063SOL     OW 3192   0.225   3.999   2.858
 1063SOL    HW1 3193   0.260   3.982   2.950
 1063SOL    HW2 3194   0.137   3.954   2.846
 1064SOL     OW 3195   0.019   4.092   2.509
 1064SOL    HW1 3196  -0.063   4.135   2.548
 1064SOL    HW2 3197  -0.009   4.019   2.446
 1065SOL     OW 3198   1.755   4.331   2.093
 1065SOL    HW1 3199   1.743   4.318   1.994
 1065SOL    HW2 3200   1.725   4.250   2.142
 1066SOL     OW 3201   0.438   4.116   3.361
 1066SOL    HW1 3202   0.520   4.060   3.370
 1066SOL    HW2 3203   0.357   4.058   3.365
 1067SOL     OW 3204   1.603   4.171   2.599
 1067SOL    HW1 3205   1.529   4.217   2.549
 1067SOL    HW2 3206   1.654   4.239   2.652
 1068SOL     OW 3207   1.594   3.838   3.342
 1068SOL    HW1 3208   1.576   3.905   3.270
 1068SOL    HW2 3209   1.591   3.884   3.431
 1069SOL     OW 3210   0.122   4.367   2.425
 1069SOL    HW1 3211   0.077   4.279   2.442
 1069SOL    HW2 3212   0.121   4.421   2.509
 1070SOL     OW 3213   0.809   3.728   2.364
 1070SOL    HW1 3214   0.849   3.819   2.355
 1070SOL    HW2 3215   0.709   3.736   2.370
 1071SOL     OW 3216   0.317   3.975   3.663
 1071SOL    HW1 3217   0.388   4.046   3.669
 1071SOL    HW2 3218   0.229   4.014   3.691
 1072SOL     OW 3219   1.281   4.069   2.806
 1072SOL    HW1 3220   1.195   4.019   2.793
 1072SOL    HW2 3221   1.343   4.015   2.862
 1073SOL     OW 3222   0.807   4.329   3.327
 1073SOL    HW1 3223   0.760   4.326   3.416
 1073SOL    HW2 3224   0.756   4.274   3.261
 1074SOL     OW 3225   1.394   4.193   3.536
 1074SOL    HW1 3226   1.374   4.236   3.624
 1074SOL    HW2 3227   1.472   4.131   3.545
 1075SOL     OW 3228   0.991   4.134   3.104
 1075SOL    HW1 3229   0.914   4.168   3.158
 1075SOL    HW2 3230   0.957   4.083   3.025
 1076SOL     OW 3231   1.041   4.425   2.291
 1076SOL    HW1 3232   1.067   4.421   2.387
 1076SOL    HW2 3233   0.956   4.374   2.277
 1077SOL     OW 3234   0.076   4.535   2.651
 1077SOL    HW1 3235   0.175   4.523   2.660
 1077SOL    HW2 3236   0.052   4.630   2.672
 1078SOL     OW 3237   0.865   4.072   2.057
 1078SOL    HW1 3238   0.924   4.135   2.008
 1078SOL    HW2 3239   0.884   3.978   2.028
 1079SOL     OW 3240   1.719   4.309   3.693
 1079SOL    HW1 3241   1.693   4.398   3.657
 1079SOL    HW2 3242   1.717   4.241   3.620
 1080SOL     OW 3243   0.550   3.920   2.747
 1080SOL    HW1 3244   0.545   3.915   2.847
 1080SOL    HW2 3245   0.552   4.016   2.718
 1081SOL     OW 3246   1.458   4.459   2.590
 1081SOL    HW1 3247   1.453   4.394   2.665
 1081SOL    HW2 3248   1.538   4.518   2.603
 1082SOL     OW 3249   0.202   4.009   3.360
 1082SOL    HW1 3250   0.122   4.069   3.347
 1082SOL    HW2 3251   0.192   3.960   3.446
 1083SOL     OW 3252   1.400   3.831   2.288
 1083SOL    HW1 3253   1.376   3.794   2.198
 1083SOL    HW2 3254   1.499   3.847   2.292
 1084SOL     OW 3255   1.547   3.946   3.591
 1084SOL    HW1 3256   1.542   3.983   3.683
 1084SOL    HW2 3257   1.475   3.877   3.579
 1085SOL     OW 3258   0.614   3.846   1.979
 1085SOL    HW1 3259   0.712   3.824   1.986
 1085SOL    HW2 3260   0.583   3.829   1.886
 1086SOL     OW 3261   0.781   3.988   3.611
 1086SOL    HW1 3262   0.848   3.927   3.654
 1086SOL    HW2 3263   0.708   4.007   3.676
 1087SOL     OW 3264   1.351   4.314   3.295
 1087SOL    HW1 3265   1.379   4.271   3.380
 1087SOL    HW2 3266   1.376   4.410   3.296
 1088SOL     OW 3267   0.922   4.227   2.761
 1088SOL    HW1 3268   0.897   4.218   2.665
 1088SOL    HW2 3269   0.970   4.145   2.792
 1089SOL     OW 3270   0.539   3.788   2.374
 1089SOL    HW1 3271   0.458   3.789   2.432
 1089SOL    HW2 3272   0.542   3.871   2.319
 1090SOL     OW 3273   0.297   3.759   2.033
 1090SOL    HW1 3274   0.346   3.843   2.012
 1090SOL    HW2 3275   0.359   3.694   2.078
 1091SOL     OW 3276   0.935   3.960   2.342
 1091SOL    HW1 3277   0.887   4.001   2.264
 1091SOL    HW2 3278   1.034   3.958   2.323
 1092SOL     OW 3279   0.078   4.280   3.248
 1092SOL    HW1 3280   0.170   4.279   3.207
 1092SOL    HW2 3281   0.072   4.354   3.315
 1093SOL     OW 3282   0.561   3.946   3.009
 1093SOL    HW1 3283   0.599   3.862   3.046
 1093SOL    HW2 3284   0.473   3.965   3.053
 1094SOL     OW 3285   1.017   3.763   2.615
 1094SOL    HW1 3286   0.945   3.768   2.546
 1094SOL    HW2 3287   0.993   3.694   2.684
 1095SOL     OW 3288   1.466   4.314   2.854
 1095SOL    HW1 3289   1.436   4.219   2.861
 1095SOL    HW2 3290   1.539   4.330   2.920
 1096SOL     OW 3291   0.527   3.980   2.190
 1096SOL    HW1 3292   0.554   3.921   2.115
 1096SOL    HW2 3293   0.527   4.075   2.159
 1097SOL     OW 3294   0.915   3.813   3.264
 1097SOL    HW1 3295   0.940   3.793   3.169
 1097SOL    HW2 3296   0.987   3.869   3.306
 1098SOL     OW 3297   1.274   4.110   3.124
 1098SOL    HW1 3298   1.295   4.184   3.188
 1098SOL    HW2 3299   1.185   4.127   3.081
 1099SOL     OW 3300   0.566   4.261   2.727
 1099SOL    HW1 3301   0.578   4.327   2.653
 1099SOL    HW2 3302   0.612   4.295   2.810
 1100SOL     OW 3303   1.013   3.829   3.632
 1100SOL    HW1 3304   1.019   3.914   3.580
 1100SOL    HW2 3305   1.045   3.753   3.575
 1101SOL     OW 3306   0.504   3.774   3.602
 1101SOL    HW1 3307   0.462   3.717   3.532
 1101SOL    HW2 3308   0.438   3.843   3.634
 1102SOL     OW 3309   1.209   4.249   2.137
 1102SOL    HW1 3310   1.222   4.165   2.191
 1102SOL    HW2 3311   1.180   4.323   2.197
 1103SOL     OW 3312   0.307   3.937   3.093
 1103SOL    HW1 3313   0.284   3.974   3.183
 1103SOL    HW2 3314   0.277   3.842   3.087
 1104SOL     OW 3315   0.732   4.358   2.926
 1104SOL    HW1 3316   0.791   4.332   2.850
 1104SOL    HW2 3317   0.704   4.454   2.915
 1105SOL     OW 3318   0.307   3.787   2.480
 1105SOL    HW1 3319   0.296   3.881   2.513
 1105SOL    HW2 3320   0.302   3.724   2.557
 1106SOL     OW 3321   1.622   4.091   2.236
 1106SOL    HW1 3322   1.624   4.015   2.300
 1106SOL    HW2 3323   1.574   4.168   2.276
 1107SOL     OW 3324   1.540   3.998   1.987
 1107SOL    HW1 3325   1.479   3.923   2.010
 1107SOL    HW2 3326   1.562   4.050   2.070
 1108SOL     OW 3327   0.339   4.233   2.868
 1108SOL    HW1 3328   0.287   4.150   2.851
 1108SOL    HW2 3329   0.416   4.238   2.804
 1109SOL     OW 3330   1.138   4.104   3.540
 1109SOL    HW1 3331   1.093   4.167   3.604
 1109SOL    HW2 3332   1.231   4.135   3.523
 1110SOL     OW 3333   1.160   3.931   3.339
 1110SOL    HW1 3334   1.160   3.995   3.416
 1110SOL    HW2 3335   1.188   3.979   3.256
 1111SOL     OW 3336   0.040   4.268   2.976
 1111SOL    HW1 3337   0.125   4.235   2.935
 1111SOL    HW2 3338   0.053   4.283   3.074
 1112SOL     OW 3339   0.189   4.244   3.584
 1112SOL    HW1 3340   0.248   4.204   3.514
 1112SOL    HW2 3341   0.131   4.315   3.543
 1113SOL     OW 3342   0.815   4.296   2.187
 1113SOL    HW1 3343   0.822   4.207   2.141
 1113SOL    HW2 3344   0.721   4.330   2.179
 1114SOL     OW 3345   1.657   4.328   3.068
 1114SOL    HW1 3346   1.619   4.259   3.130
 1114SOL    HW2 3347   1.739   4.292   3.024
 1115SOL     OW 3348   0.671   4.188   3.131
 1115SOL    HW1 3349   0.637   4.099   3.101
 1115SOL    HW2 3350   0.697   4.242   3.051
 1116SOL     OW 3351   1.726   3.859   2.385
 1116SOL    HW1 3352   1.799   3.842   2.318
 1116SOL    HW2 3353   1.695   3.772   2.423
 1117SOL     OW 3354   1.841   3.899   2.825
 1117SOL    HW1 3355   1.880   3.814   2.789
 1117SOL    HW2 3356   1.743   3.901   2.806
 1118SOL     OW 3357   0.263   4.050   2.582
 1118SOL    HW1 3358   0.184   4.101   2.548
 1118SOL    HW2 3359   0.254   4.035   2.680
 1119SOL     OW 3360   1.014   3.960   2.833
 1119SOL    HW1 3361   1.006   3.924   2.740
 1119SOL    HW2 3362   1.012   3.884   2.898
 1120SOL     OW 3363   1.709   4.109   3.243
 1120SOL    HW1 3364   1.782   4.178   3.247
 1120SOL    HW2 3365   1.737   4.034   3.184
 1121SOL     OW 3366   0.672   3.927   3.351
 1121SOL    HW1 3367   0.762   3.911   3.311
 1121SOL    HW2 3368   0.680   3.932   3.450
 1122SOL     OW 3369   0.075   4.069   1.895
 1122SOL    HW1 3370  -0.017   4.041   1.866
 1122SOL    HW2 3371   0.106   4.146   1.839
 1123SOL     OW 3372   0.072   3.890   2.180
 1123SOL    HW1 3373   0.055   3.973   2.126
 1123SOL    HW2 3374   0.162   3.853   2.158
 1124SOL     OW 3375   0.716   4.289   3.570
 1124SOL    HW1 3376   0.735   4.354   3.644
 1124SOL    HW2 3377   0.776   4.209   3.579
 1125SOL     OW 3378   1.225   4.049   2.311
 1125SOL    HW1 3379   1.290   3.975   2.300
 1125SOL    HW2 3380   1.245   4.099   2.395
 1126SOL     OW 3381   1.777   4.066   3.504
 1126SOL    HW1 3382   1.760   4.097   3.410
 1126SOL    HW2 3383   1.693   4.029   3.542
 1127SOL     OW 3384   1.824   3.916   3.089
 1127SOL    HW1 3385   1.820   3.826   3.133
 1127SOL    HW2 3386   1.827   3.905   2.990
 1128SOL     OW 3387   0.428   4.148   2.382
 1128SOL    HW1 3388   0.458   4.076   2.320
 1128SOL    HW2 3389   0.389   4.108   2.465
 1129SOL     OW 3390   0.317   4.271   3.142
 1129SOL    HW1 3391   0.355   4.212   3.214
 1129SOL    HW2 3392   0.357   4.245   3.054
 1130SOL     OW 3393   1.424   3.938   2.974
 1130SOL    HW1 3394   1.476   3.873   3.029
 1130SOL    HW2 3395   1.375   4.001   3.035
 1131SOL     OW 3396   1.001   3.758   3.016
 1131SOL    HW1 3397   0.938   3.686   2.985
 1131SOL    HW2 3398   1.094   3.722   3.016
 1132SOL     OW 3399   1.352   3.776   2.030
 1132SOL    HW1 3400   1.387   3.735   1.946
 1132SOL    HW2 3401   1.262   3.738   2.050
 1133SOL     OW 3402   1.300   4.177   2.553
 1133SOL    HW1 3403   1.241   4.257   2.557
 1133SOL    HW2 3404   1.315   4.142   2.646
 1134SOL     OW 3405   1.593   3.945   2.744
 1134SOL    HW1 3406   1.509   3.944   2.798
 1134SOL    HW2 3407   1.595   4.028   2.688
 1135SOL     OW 3408   1.755   4.331   3.955
 1135SOL    HW1 3409   1.743   4.318   3.856
 1135SOL    HW2 3410   1.725   4.250   4.004
 1136SOL     OW 3411   0.122   4.367   4.287
 1136SOL    HW1 3412   0.077   4.279   4.304
 1136SOL    HW2 3413   0.121   4.421   4.371
 1137SOL     OW 3414   0.809   3.728   4.226
 1137SOL    HW1 3415   0.849   3.819   4.217
 1137SOL    HW2 3416   0.709   3.736   4.232
 1138SOL     OW 3417   1.041   4.425   4.153
 1138SOL    HW1 3418   1.067   4.421   4.249
 1138SOL    HW2 3419   0.956   4.374   4.139
 1139SOL     OW 3420   0.865   4.072   3.919
 1139SOL    HW1 3421   0.924   4.135   3.870
 1139SOL    HW2 3422   0.884   3.978   3.890
 1140SOL     OW 3423   1.400   3.831   4.150
 1140SOL    HW1 3424   1.376   3.794   4.060
 1140SOL    HW2 3425   1.499   3.847   4.154
 1141SOL     OW 3426   0.614   3.846   3.841
 1141SOL    HW1 3427   0.712   3.824   3.848
 1141SOL    HW2 3428   0.583   3.829   3.748
 1142SOL     OW 3429   0.539   3.788   4.236
 1142SOL    HW1 3430   0.458   3.789   4.294
 1142SOL    HW2 3431   0.542   3.871   4.181
 1143SOL     OW 3432   0.297   3.759   3.895
 1143SOL    HW1 3433   0.346   3.843   3.874
 1143SOL    HW2 3434   0.359   3.694   3.940
 1144SOL     OW 3435   0.935   3.960   4.204
 1144SOL    HW1 3436   0.887   4.001   4.126
 1144SOL    HW2 3437   1.034   3.958   4.185
 1145SOL     OW 3438   0.527   3.980   4.052
 1145SOL    HW1 3439   0.554   3.921   3.977
 1145SOL    HW2 3440   0.527   4.075   4.021
 1146SOL     OW 3441   1.209   4.249   3.999
 1146SOL    HW1 3442   1.222   4.165   4.053
 1146SOL    HW2 3443   1.180   4.323   4.059
 1147SOL     OW 3444   1.622   4.091   4.098
 1147SOL    HW1 3445   1.624   4.015   4.162
 1147SOL    HW2 3446   1.574   4.168   4.138
 1148SOL     OW 3447   1.540   3.998   3.849
 1148SOL    HW1 3448   1.479   3.923   3.872
 1148SOL    HW2 3449   1.562   4.050   3.932
 1149SOL     OW 3450   0.815   4.296   4.049
 1149SOL    HW1 3451   0.822   4.207   4.003
 1149SOL    HW2 3452   0.721   4.330   4.041
 1150SOL     OW 3453   1.726   3.859   4.247
 1150SOL    HW1 3454   1.799   3.842   4.180
 1150SOL    HW2 3455   1.695   3.772   4.285
 1151SOL     OW 3456   0.075   4.069   3.757
 1151SOL    HW1 3457  -0.017   4.041   3.728
 1151SOL    HW2 3458   0.106   4.146   3.701
 1152SOL     OW 3459   0.072   3.890   4.042
 1152SOL    HW1 3460   0.055   3.973   3.988
 1152SOL    HW2 3461   0.162   3.853   4.020
 1153SOL     OW 3462   1.225   4.049   4.173
 1153SOL    HW1 3463   1.290   3.975   4.162
 1153SOL    HW2 3464   1.245   4.099   4.257
 1154SOL     OW 3465   0.428   4.148   4.244
 1154SOL    HW1 3466   0.458   4.076   4.182
 1154SOL    HW2 3467   0.389   4.108   4.327
 1155SOL     OW 3468   1.352   3.776   3.892
 1155SOL    HW1 3469   1.387   3.735   3.808
 1155SOL    HW2 3470   1.262   3.738   3.912
 1156SOL     OW 3471   1.300   4.177   4.415
 1156SOL    HW1 3472   1.241   4.257   4.419
 1156SOL    HW2 3473   1.315   4.142   4.508
 1157SOL     OW 3474   2.092   0.628   0.113
 1157SOL    HW1 3475   1.999   0.626   0.150
 1157SOL    HW2 3476   2.093   0.589   0.021
 1158SOL     OW 3477   2.087   0.275   0.996
 1158SOL    HW1 3478   2.122   0.258   1.088
 1158SOL    HW2 3479   1.999   0.230   0.984
 1159SOL     OW 3480   1.881   0.368   0.647
 1159SOL    HW1 3481   1.799   0.411   0.686
 1159SOL    HW2 3482   1.853   0.295   0.584
 1160SOL     OW 3483   2.431   1.275   1.165
 1160SOL    HW1 3484   2.338   1.268   1.128
 1160SOL    HW2 3485   2.442   1.364   1.209
 1161SOL     OW 3486   3.417   1.511   0.703
 1161SOL    HW1 3487   3.360   1.495   0.784
 1161SOL    HW2 3488   3.358   1.521   0.623
 1162SOL     OW 3489   2.997   0.703   0.717
 1162SOL    HW1 3490   3.054   0.781   0.692
 1162SOL    HW2 3491   2.937   0.729   0.793
 1163SOL     OW 3492   3.617   0.607   0.231
 1163SOL    HW1 3493   3.605   0.594   0.132
 1163SOL    HW2 3494   3.587   0.526   0.280
 1164SOL     OW 3495   2.630   1.144   1.023
 1164SOL    HW1 3496   2.552   1.161   1.083
 1164SOL    HW2 3497   2.664   1.231   0.987
 1165SOL     OW 3498   2.712   0.798   1.823
 1165SOL    HW1 3499   2.708   0.874   1.888
 1165SOL    HW2 3500   2.734   0.834   1.732
 1166SOL     OW 3501   2.547   1.012   0.665
 1166SOL    HW1 3502   2.616   0.996   0.735
 1166SOL    HW2 3503   2.474   1.069   0.703
 1167SOL     OW 3504   2.548   1.161   1.803
 1167SOL    HW1 3505   2.608   1.240   1.817
 1167SOL    HW2 3506   2.462   1.192   1.762
 1168SOL     OW 3507   2.197   1.435   1.061
 1168SOL    HW1 3508   2.119   1.404   1.008
 1168SOL    HW2 3509   2.255   1.493   1.004
 1169SOL     OW 3510   3.322   1.505   1.339
 1169SOL    HW1 3511   3.346   1.599   1.365
 1169SOL    HW2 3512   3.306   1.451   1.421
 1170SOL     OW 3513   2.300   0.392   1.499
 1170SOL    HW1 3514   2.382   0.336   1.508
 1170SOL    HW2 3515   2.219   0.334   1.503
 1171SOL     OW 3516   3.465   0.447   0.737
 1171SOL    HW1 3517   3.391   0.493   0.687
 1171SOL    HW2 3518   3.516   0.515   0.790
 1172SOL     OW 3519   2.093   1.713   0.483
 1172SOL    HW1 3520   2.127   1.790   0.537
 1172SOL    HW2 3521   2.137   1.713   0.393
 1173SOL     OW 3522   2.989   1.341   1.690
 1173SOL    HW1 3523   3.036   1.341   1.778
 1173SOL    HW2 3524   2.941   1.254   1.679
 1174SOL     OW 3525   2.092   1.434   0.538
 1174SOL    HW1 3526   2.066   1.530   0.538
 1174SOL    HW2 3527   2.021   1.380   0.583
 1175SOL     OW 3528   2.102   1.091   0.886
 1175SOL    HW1 3529   2.116   1.007   0.938
 1175SOL    HW2 3530   2.047   1.155   0.941
 1176SOL     OW 3531   2.482   1.786   1.439
 1176SOL    HW1 3532   2.390   1.769   1.474
 1176SOL    HW2 3533   2.510   1.878   1.465
 1177SOL     OW 3534   2.468   0.964   0.123
 1177SOL    HW1 3535   2.475   1.048   0.069
 1177SOL    HW2 3536   2.514   0.977   0.211
 1178SOL     OW 3537   3.456   0.114   1.480
 1178SOL    HW1 3538   3.438   0.181   1.408
 1178SOL    HW2 3539   3.453   0.160   1.569
 1179SOL     OW 3540   1.984   0.643   0.563
 1179SOL    HW1 3541   1.939   0.555   0.580
 1179SOL    HW2 3542   1.983   0.697   0.647
 1180SOL     OW 3543   3.704   1.767   0.359
 1180SOL    HW1 3544   3.758   1.738   0.439
 1180SOL    HW2 3545   3.734   1.857   0.330
 1181SOL     OW 3546   1.889   1.596   0.117
 1181SOL    HW1 3547   1.870   1.500   0.138
 1181SOL    HW2 3548   1.856   1.654   0.192
 1182SOL     OW 3549   3.551   0.922   0.612
 1182SOL    HW1 3550   3.646   0.893   0.620
 1182SOL    HW2 3551   3.543   0.987   0.537
 1183SOL     OW 3552   3.503   1.108   0.432
 1183SOL    HW1 3553   3.589   1.110   0.380
 1183SOL    HW2 3554   3.517   1.155   0.520
 1184SOL     OW 3555   1.975   0.737   1.597
 1184SOL    HW1 3556   2.063   0.724   1.642
 1184SOL    HW2 3557   1.962   0.834   1.575
 1185SOL     OW 3558   2.475   1.365   0.726
 1185SOL    HW1 3559   2.426   1.278   0.735
 1185SOL    HW2 3560   2.452   1.408   0.639
 1186SOL     OW 3561   3.155   1.228   1.423
 1186SOL    HW1 3562   3.192   1.155   1.365
 1186SOL    HW2 3563   3.207   1.233   1.508
 1187SOL     OW 3564   2.671   0.004   0.502
 1187SOL    HW1 3565   2.711   0.095   0.493
 1187SOL    HW2 3566   2.571   0.012   0.508
 1188SOL     OW 3567   2.059   0.976   1.264
 1188SOL    HW1 3568   2.148   0.931   1.250
 1188SOL    HW2 3569   1.986   0.911   1.245
 1189SOL     OW 3570   3.387   0.999   0.190
 1189SOL    HW1 3571   3.324   0.923   0.203
 1189SOL    HW2 3572   3.435   1.017   0.276
 1190SOL     OW 3573   3.049   1.792   1.616
 1190SOL    HW1 3574   3.073   1.852   1.540
 1190SOL    HW2 3575   3.056   1.697   1.586
 1191SOL     OW 3576   2.179   0.251   1.801
 1191SOL    HW1 3577   2.250   0.322   1.807
 1191SOL    HW2 3578   2.091   0.290   1.829
 1192SOL     OW 3579   3.328   1.417   0.953
 1192SOL    HW1 3580   3.269   1.423   1.033
 1192SOL    HW2 3581   3.313   1.329   0.907
 1193SOL     OW 3582   3.529   1.714   0.572
 1193SOL    HW1 3583   3.488   1.691   0.484
 1193SOL    HW2 3584   3.511   1.640   0.637
 1194SOL     OW 3585   2.460   0.729   0.270
 1194SOL    HW1 3586   2.484   0.798   0.202
 1194SOL    HW2 3587   2.382   0.762   0.324
 1195SOL     OW 3588   3.143   0.345   0.944
 1195SOL    HW1 3589   3.057   0.295   0.931
 1195SOL    HW2 3590   3.205   0.291   1.000
 1196SOL     OW 3591   3.438   1.662   0.307
 1196SOL    HW1 3592   3.527   1.708   0.310
 1196SOL    HW2 3593   3.417   1.638   0.212
 1197SOL     OW 3594   2.669   0.605   1.465
 1197SOL    HW1 3595   2.622   0.602   1.554
 1197SOL    HW2 3596   2.618   0.550   1.399
 1198SOL     OW 3597   3.256   0.469   1.674
 1198SOL    HW1 3598   3.236   0.512   1.762
 1198SOL    HW2 3599   3.334   0.407   1.683
 1199SOL     OW 3600   2.835   0.890   1.572
 1199SOL    HW1 3601   2.881   0.806   1.543
 1199SOL    HW2 3602   2.779   0.924   1.497
 1200SOL     OW 3603   2.853   0.410   1.242
 1200SOL    HW1 3604   2.776   0.444   1.296
 1200SOL    HW2 3605   2.819   0.359   1.163
 1201SOL     OW 3606   2.903   0.701   0.429
 1201SOL    HW1 3607   2.929   0.697   0.525
 1201SOL    HW2 3608   2.818   0.650   0.415
 1202SOL     OW 3609   1.938   0.811   0.789
 1202SOL    HW1 3610   2.037   0.799   0.798
 1202SOL    HW2 3611   1.914   0.906   0.810
 1203SOL     OW 3612   1.992   1.821   1.571
 1203SOL    HW1 3613   1.982   1.806   1.670
 1203SOL    HW2 3614   1.906   1.857   1.535
 1204SOL     OW 3615   2.727   0.348   0.195
 1204SOL    HW1 3616   2.786   0.411   0.146
 1204SOL    HW2 3617   2.746   0.254   0.166
 1205SOL     OW 3618   3.581   0.585   1.831
 1205SOL    HW1 3619   3.555   0.674   1.795
 1205SOL    HW2 3620   3.579   0.517   1.758
 1206SOL     OW 3621   3.224   1.144   0.545
 1206SOL    HW1 3622   3.307   1.115   0.497
 1206SOL    HW2 3623   3.175   1.211   0.489
 1207SOL     OW 3624   2.412   0.196   0.885
 1207SOL    HW1 3625   2.407   0.191   0.985
 1207SOL    HW2 3626   2.414   0.292   0.856
 1208SOL     OW 3627   2.870   1.456   0.477
 1208SOL    HW1 3628   2.824   1.528   0.425
 1208SOL    HW2 3629   2.866   1.476   0.575
 1209SOL     OW 3630   2.213   1.801   0.853
 1209SOL    HW1 3631   2.263   1.715   0.859
 1209SOL    HW2 3632   2.278   1.878   0.850
 1210SOL     OW 3633   3.657   1.066   0.873
 1210SOL    HW1 3634   3.595   1.051   0.797
 1210SOL    HW2 3635   3.605   1.077   0.958
 1211SOL     OW 3636   3.089   1.550   1.506
 1211SOL    HW1 3637   3.095   1.473   1.570
 1211SOL    HW2 3638   3.037   1.524   1.426
 1212SOL     OW 3639   2.183   0.943   0.242
 1212SOL    HW1 3640   2.265   0.982   0.200
 1212SOL    HW2 3641   2.156   0.861   0.193
 1213SOL     OW 3642   3.320   0.735   0.728
 1213SOL    HW1 3643   3.315   0.670   0.803
 1213SOL    HW2 3644   3.400   0.794   0.741
 1214SOL     OW 3645   2.323   1.266   1.727
 1214SOL    HW1 3646   2.273   1.267   1.641
 1214SOL    HW2 3647   2.260   1.248   1.803
 1215SOL     OW 3648   2.973   1.776   0.237
 1215SOL    HW1 3649   2.913   1.714   0.287
 1215SOL    HW2 3650   3.004   1.732   0.152
 1216SOL     OW 3651   2.064   0.285   1.498
 1216SOL    HW1 3652   1.984   0.345   1.485
 1216SOL    HW2 3653   2.054   0.236   1.584
 1217SOL     OW 3654   3.494   1.377   0.081
 1217SOL    HW1 3655   3.462   1.471   0.071
 1217SOL    HW2 3656   3.418   1.314   0.069
 1218SOL     OW 3657   2.326   1.743   0.323
 1218SOL    HW1 3658   2.359   1.782   0.409
 1218SOL    HW2 3659   2.402   1.736   0.258
 1219SOL     OW 3660   3.262   0.107   0.426
 1219SOL    HW1 3661   3.238   0.070   0.336
 1219SOL    HW2 3662   3.361   0.123   0.430
 1220SOL     OW 3663   2.111   1.785   1.241
 1220SOL    HW1 3664   2.168   1.720   1.291
 1220SOL    HW2 3665   2.095   1.752   1.148
 1221SOL     OW 3666   2.802   1.698   0.904
 1221SOL    HW1 3667   2.882   1.641   0.925
 1221SOL    HW2 3668   2.753   1.658   0.827
 1222SOL     OW 3669   2.244   0.700   0.480
 1222SOL    HW1 3670   2.289   0.610   0.477
 1222SOL    HW2 3671   2.150   0.689   0.513
 1223SOL     OW 3672   3.409   0.222   1.729
 1223SOL    HW1 3673   3.404   0.259   1.821
 1223SOL    HW2 3674   3.337   0.153   1.717
 1224SOL     OW 3675   2.476   0.122   0.117
 1224SOL    HW1 3676   2.574   0.100   0.124
 1224SOL    HW2 3677   2.445   0.105   0.024
 1225SOL     OW 3678   2.643   0.264   1.749
 1225SOL    HW1 3679   2.710   0.203   1.792
 1225SOL    HW2 3680   2.570   0.283   1.814
 1226SOL     OW 3681   2.750   1.514   1.195
 1226SOL    HW1 3682   2.727   1.489   1.101
 1226SOL    HW2 3683   2.811   1.445   1.234
 1227SOL     OW 3684   3.213   0.590   1.433
 1227SOL    HW1 3685   3.241   0.547   1.518
 1227SOL    HW2 3686   3.238   0.686   1.434
 1228SOL     OW 3687   2.665   1.402   0.924
 1228SOL    HW1 3688   2.755   1.416   0.882
 1228SOL    HW2 3689   2.594   1.404   0.853
 1229SOL     OW 3690   2.784   0.503   0.899
 1229SOL    HW1 3691   2.759   0.494   0.803
 1229SOL    HW2 3692   2.832   0.421   0.930
 1230SOL     OW 3693   2.401   0.064   0.512
 1230SOL    HW1 3694   2.320   0.065   0.570
 1230SOL    HW2 3695   2.404   0.147   0.457
 1231SOL     OW 3696   3.296   1.188   0.041
 1231SOL    HW1 3697   3.328   1.112   0.098
 1231SOL    HW2 3698   3.204   1.215   0.071
 1232SOL     OW 3699   2.159   0.035   0.171
 1232SOL    HW1 3700   2.208   0.119   0.150
 1232SOL    HW2 3701   2.221  -0.030   0.216
 1233SOL     OW 3702   2.797   0.236   0.480
 1233SOL    HW1 3703   2.749   0.277   0.402
 1233SOL    HW2 3704   2.896   0.234   0.461
 1234SOL     OW 3705   2.938   0.683   1.464
 1234SOL    HW1 3706   2.858   0.622   1.467
 1234SOL    HW2 3707   3.019   0.630   1.440
 1235SOL     OW 3708   3.089   1.570   0.793
 1235SOL    HW1 3709   3.110   1.644   0.728
 1235SOL    HW2 3710   3.157   1.570   0.866
 1236SOL     OW 3711   2.321   1.152   0.741
 1236SOL    HW1 3712   2.250   1.125   0.806
 1236SOL    HW2 3713   2.295   1.124   0.648
 1237SOL     OW 3714   3.133   1.797   0.591
 1237SOL    HW1 3715   3.177   1.861   0.527
 1237SOL    HW2 3716   3.083   1.849   0.661
 1238SOL     OW 3717   2.894   0.549   0.016
 1238SOL    HW1 3718   2.853   0.631  -0.023
 1238SOL    HW2 3719   2.958   0.575   0.089
 1239SOL     OW 3720   1.940   0.556   1.386
 1239SOL    HW1 3721   2.032   0.555   1.345
 1239SOL    HW2 3722   1.934   0.630   1.453
 1240SOL     OW 3723   2.423   0.222   1.147
 1240SOL    HW1 3724   2.461   0.138   1.184
 1240SOL    HW2 3725   2.335   0.241   1.191
 1241SOL     OW 3726   2.728   0.454   0.642
 1241SOL    HW1 3727   2.696   0.526   0.580
 1241SOL    HW2 3728   2.752   0.373   0.589
 1242SOL     OW 3729   2.879   0.039   0.753
 1242SOL    HW1 3730   2.807   0.044   0.684
 1242SOL    HW2 3731   2.855  -0.030   0.822
 1243SOL     OW 3732   3.291   1.173   0.867
 1243SOL    HW1 3733   3.236   1.089   0.860
 1243SOL    HW2 3734   3.317   1.202   0.775
 1244SOL     OW 3735   3.328   0.590   0.992
 1244SOL    HW1 3736   3.298   0.495   0.999
 1244SOL    HW2 3737   3.401   0.606   1.058
 1245SOL     OW 3738   3.719   0.833   0.377
 1245SOL    HW1 3739   3.761   0.769   0.441
 1245SOL    HW2 3740   3.681   0.782   0.299
 1246SOL     OW 3741   2.350   1.385   0.174
 1246SOL    HW1 3742   2.263   1.370   0.221
 1246SOL    HW2 3743   2.333   1.411   0.079
 1247SOL     OW 3744   3.526   1.280   0.657
 1247SOL    HW1 3745   3.625   1.288   0.671
 1247SOL    HW2 3746   3.481   1.364   0.688
 1248SOL     OW 3747   3.252   0.575   0.078
 1248SOL    HW1 3748   3.198   0.554   0.159
 1248SOL    HW2 3749   3.343   0.534   0.087
 1249SOL     OW 3750   2.389   0.256   0.328
 1249SOL    HW1 3751   2.416   0.197   0.253
 1249SOL    HW2 3752   2.389   0.351   0.297
 1250SOL     OW 3753   3.616   1.223   1.588
 1250SOL    HW1 3754   3.707   1.184   1.575
 1250SOL    HW2 3755   3.624   1.319   1.612
 1251SOL     OW 3756   2.926   1.347   1.340
 1251SOL    HW1 3757   2.846   1.324   1.395
 1251SOL    HW2 3758   3.009   1.321   1.389
 1252SOL     OW 3759   3.454   1.629   1.625
 1252SOL    HW1 3760   3.481   1.663   1.535
 1252SOL    HW2 3761   3.533   1.591   1.671
 1253SOL     OW 3762   2.973   1.195   1.100
 1253SOL    HW1 3763   2.933   1.239   1.181
 1253SOL    HW2 3764   2.932   1.232   1.017
 1254SOL     OW 3765   3.500   1.099   1.079
 1254SOL    HW1 3766   3.505   1.180   1.138
 1254SOL    HW2 3767   3.414   1.101   1.028
 1255SOL     OW 3768   2.777   0.089   1.402
 1255SOL    HW1 3769   2.802   0.069   1.307
 1255SOL    HW2 3770   2.849   0.145   1.444
 1256SOL     OW 3771   2.842   1.116   1.719
 1256SOL    HW1 3772   2.743   1.122   1.729
 1256SOL    HW2 3773   2.865   1.036   1.663
 1257SOL     OW 3774   2.567   1.050   0.368
 1257SOL    HW1 3775   2.553   1.057   0.467
 1257SOL    HW2 3776   2.651   0.999   0.350
 1258SOL     OW 3777   2.272   0.813   1.251
 1258SOL    HW1 3778   2.358   0.825   1.301
 1258SOL    HW2 3779   2.230   0.726   1.278
 1259SOL     OW 3780   3.136   0.386   1.262
 1259SOL    HW1 3781   3.157   0.460   1.326
 1259SOL    HW2 3782   3.047   0.403   1.219
 1260SOL     OW 3783   1.926   1.564   1.331
 1260SOL    HW1 3784   1.880   1.646   1.297
 1260SOL    HW2 3785   2.024   1.583   1.340
 1261SOL     OW 3786   2.229   1.100   0.501
 1261SOL    HW1 3787   2.222   1.183   0.445
 1261SOL    HW2 3788   2.233   1.020   0.441
 1262SOL     OW 3789   2.428   0.537   0.865
 1262SOL    HW1 3790   2.440   0.603   0.791
 1262SOL    HW2 3791   2.474   0.571   0.948
 1263SOL     OW 3792   3.114   1.348   0.388
 1263SOL    HW1 3793   3.164   1.425   0.428
 1263SOL    HW2 3794   3.019   1.350   0.420
 1264SOL     OW 3795   3.134   1.445   1.142
 1264SOL    HW1 3796   3.181   1.458   1.229
 1264SOL    HW2 3797   3.068   1.371   1.151
 1265SOL     OW 3798   3.444   0.639   0.472
 1265SOL    HW1 3799   3.413   0.700   0.545
 1265SOL    HW2 3800   3.494   0.691   0.403
 1266SOL     OW 3801   2.216   1.510   1.329
 1266SOL    HW1 3802   2.195   1.466   1.242
 1266SOL    HW2 3803   2.313   1.536   1.332
 1267SOL     OW 3804   2.264   0.751   1.598
 1267SOL    HW1 3805   2.332   0.806   1.551
 1267SOL    HW2 3806   2.304   0.663   1.625
 1268SOL     OW 3807   3.449   0.779   1.670
 1268SOL    HW1 3808   3.357   0.817   1.665
 1268SOL    HW2 3809   3.509   0.826   1.605
 1269SOL     OW 3810   2.875   0.105   1.770
 1269SOL    HW1 3811   2.881   0.190   1.718
 1269SOL    HW2 3812   2.907   0.029   1.713
 1270SOL     OW 3813   2.366   0.050   1.740
 1270SOL    HW1 3814   2.324  -0.007   1.670
 1270SOL    HW2 3815   2.300   0.119   1.772
 1271SOL     OW 3816   2.435   0.870   1.029
 1271SOL    HW1 3817   2.479   0.959   1.020
 1271SOL    HW2 3818   2.372   0.870   1.106
 1272SOL     OW 3819   3.222   0.862   1.045
 1272SOL    HW1 3820   3.147   0.862   0.979
 1272SOL    HW2 3821   3.259   0.770   1.054
 1273SOL     OW 3822   3.071   0.525   0.275
 1273SOL    HW1 3823   3.084   0.441   0.329
 1273SOL    HW2 3824   3.042   0.599   0.335
 1274SOL     OW 3825   2.169   0.213   1.231
 1274SOL    HW1 3826   2.146   0.250   1.321
 1274SOL    HW2 3827   2.139   0.118   1.225
 1275SOL     OW 3828   1.899   1.310   1.282
 1275SOL    HW1 3829   1.952   1.261   1.350
 1275SOL    HW2 3830   1.921   1.408   1.287
 1276SOL     OW 3831   2.594   0.634   1.064
 1276SOL    HW1 3832   2.653   0.608   0.988
 1276SOL    HW2 3833   2.566   0.730   1.053
 1277SOL     OW 3834   3.590   0.935   1.854
 1277SOL    HW1 3835   3.544   0.928   1.765
 1277SOL    HW2 3836   3.528   0.979   1.920
 1278SOL     OW 3837   2.169   0.063   0.618
 1278SOL    HW1 3838   2.158   0.157   0.651
 1278SOL    HW2 3839   2.164   0.000   0.695
 1279SOL     OW 3840   3.484   0.367   0.374
 1279SOL    HW1 3841   3.486   0.291   0.438
 1279SOL    HW2 3842   3.436   0.444   0.414
 1280SOL     OW 3843   2.885   0.766   0.966
 1280SOL    HW1 3844   2.900   0.787   1.062
 1280SOL    HW2 3845   2.855   0.671   0.957
 1281SOL     OW 3846   2.842   1.573   1.700
 1281SOL    HW1 3847   2.822   1.617   1.612
 1281SOL    HW2 3848   2.881   1.482   1.684
 1282SOL     OW 3849   3.721   1.518   1.605
 1282SOL    HW1 3850   3.735   1.545   1.510
 1282SOL    HW2 3851   3.804   1.540   1.658
 1283SOL     OW 3852   2.212   0.898   1.804
 1283SOL    HW1 3853   2.288   0.942   1.852
 1283SOL    HW2 3854   2.247   0.851   1.722
 1284SOL     OW 3855   3.402   0.274   0.125
 1284SOL    HW1 3856   3.341   0.199   0.148
 1284SOL    HW2 3857   3.424   0.326   0.208
 1285SOL     OW 3858   3.165   0.838   0.042
 1285SOL    HW1 3859   3.199   0.745   0.057
 1285SOL    HW2 3860   3.183   0.865  -0.053
 1286SOL     OW 3861   2.930   1.333   0.849
 1286SOL    HW1 3862   2.937   1.249   0.794
 1286SOL    HW2 3863   2.992   1.402   0.813
 1287SOL     OW 3864   2.181   0.810   0.949
 1287SOL    HW1 3865   2.274   0.846   0.954
 1287SOL    HW2 3866   2.175   0.725   1.001
 1288SOL     OW 3867   2.201   0.509   1.006
 1288SOL    HW1 3868   2.149   0.426   0.989
 1288SOL    HW2 3869   2.278   0.514   0.942
 1289SOL     OW 3870   3.000   0.380   1.678
 1289SOL    HW1 3871   2.955   0.443   1.742
 1289SOL    HW2 3872   3.093   0.411   1.661
 1290SOL     OW 3873   3.022   0.207   1.477
 1290SOL    HW1 3874   3.022   0.271   1.554
 1290SOL    HW2 3875   3.050   0.255   1.394
 1291SOL     OW 3876   1.870   1.326   0.200
 1291SOL    HW1 3877   1.777   1.347   0.169
 1291SOL    HW2 3878   1.880   1.227   0.213
 1292SOL     OW 3879   1.950   1.801   0.927
 1292SOL    HW1 3880   1.908   1.715   0.900
 1292SOL    HW2 3881   2.044   1.804   0.893
 1293SOL     OW 3882   2.366   1.568   0.910
 1293SOL    HW1 3883   2.432   1.642   0.919
 1293SOL    HW2 3884   2.410   1.489   0.868
 1294SOL     OW 3885   2.864   0.796   1.238
 1294SOL    HW1 3886   2.905   0.764   1.324
 1294SOL    HW2 3887   2.768   0.769   1.235
 1295SOL     OW 3888   1.902   0.544   1.114
 1295SOL    HW1 3889   1.987   0.511   1.073
 1295SOL    HW2 3890   1.915   0.559   1.212
 1296SOL     OW 3891   2.051   0.520   1.722
 1296SOL    HW1 3892   2.110   0.480   1.652
 1296SOL    HW2 3893   1.993   0.591   1.681
 1297SOL     OW 3894   3.231   0.950   1.660
 1297SOL    HW1 3895   3.270   1.039   1.680
 1297SOL    HW2 3896   3.241   0.930   1.563
 1298SOL     OW 3897   2.677   0.572   0.325
 1298SOL    HW1 3898   2.684   0.483   0.279
 1298SOL    HW2 3899   2.583   0.606   0.317
 1299SOL     OW 3900   3.519   0.604   1.206
 1299SOL    HW1 3901   3.481   0.535   1.268
 1299SOL    HW2 3902   3.601   0.568   1.162
 1300SOL     OW 3903   2.114   1.564   1.744
 1300SOL    HW1 3904   2.084   1.621   1.820
 1300SOL    HW2 3905   2.107   1.467   1.770
 1301SOL     OW 3906   2.533   0.464   1.269
 1301SOL    HW1 3907   2.499   0.375   1.239
 1301SOL    HW2 3908   2.559   0.518   1.189
 1302SOL     OW 3909   2.792   1.678   1.465
 1302SOL    HW1 3910   2.768   1.660   1.370
 1302SOL    HW2 3911   2.822   1.772   1.475
 1303SOL     OW 3912   2.335   0.500   0.191
 1303SOL    HW1 3913   2.396   0.580   0.195
 1303SOL    HW2 3914   2.240   0.531   0.198
 1304SOL     OW 3915   2.021   1.137   1.466
 1304SOL    HW1 3916   2.043   1.076   1.542
 1304SOL    HW2 3917   2.031   1.088   1.380
 1305SOL     OW 3918   3.209   1.059   1.234
 1305SOL    HW1 3919   3.233   0.996   1.160
 1305SOL    HW2 3920   3.119   1.099   1.216
 1306SOL     OW 3921   3.164   0.855   0.309
 1306SOL    HW1 3922   3.078   0.824   0.351
 1306SOL    HW2 3923   3.160   0.841   0.210
 1307SOL     OW 3924   3.621   1.747   1.154
 1307SOL    HW1 3925   3.682   1.777   1.081
 1307SOL    HW2 3926   3.583   1.658   1.132
 1308SOL     OW 3927   3.114   1.731   1.128
 1308SOL    HW1 3928   3.198   1.736   1.074
 1308SOL    HW2 3929   3.091   1.635   1.146
 1309SOL     OW 3930   1.945   1.258   1.022
 1309SOL    HW1 3931   1.940   1.257   1.122
 1309SOL    HW2 3932   1.862   1.217   0.984
 1310SOL     OW 3933   2.550   1.662   1.716
 1310SOL    HW1 3934   2.494   1.743   1.725
 1310SOL    HW2 3935   2.602   1.666   1.630
 1311SOL     OW 3936   2.765   0.086   0.133
 1311SOL    HW1 3937   2.816   0.087   0.047
 1311SOL    HW2 3938   2.821   0.044   0.204
 1312SOL     OW 3939   3.588   0.135   0.523
 1312SOL    HW1 3940   3.661   0.118   0.456
 1312SOL    HW2 3941   3.557   0.048   0.561
 1313SOL     OW 3942   3.250   1.573   0.477
 1313SOL    HW1 3943   3.317   1.585   0.403
 1313SOL    HW2 3944   3.210   1.662   0.500
 1314SOL     OW 3945   1.992   1.794   1.851
 1314SOL    HW1 3946   1.951   1.720   1.904
 1314SOL    HW2 3947   2.056   1.845   1.909
 1315SOL     OW 3948   3.142   0.927   0.672
 1315SOL    HW1 3949   3.202   0.846   0.674
 1315SOL    HW2 3950   3.182   0.996   0.612
 1316SOL     OW 3951   2.692   1.273   1.422
 1316SOL    HW1 3952   2.687   1.306   1.517
 1316SOL    HW2 3953   2.606   1.292   1.376
 1317SOL     OW 3954   2.534   1.616   0.154
 1317SOL    HW1 3955   2.543   1.626   0.055
 1317SOL    HW2 3956   2.494   1.527   0.175
 1318SOL     OW 3957   3.512   1.720   1.394
 1318SOL    HW1 3958   3.565   1.730   1.310
 1318SOL    HW2 3959   3.485   1.810   1.428
 1319SOL     OW 3960   3.703   0.175   0.963
 1319SOL    HW1 3961   3.742   0.090   0.927
 1319SOL    HW2 3962   3.605   0.177   0.944
 1320SOL     OW 3963   2.125   0.326   0.720
 1320SOL    HW1 3964   2.046   0.377   0.686
 1320SOL    HW2 3965   2.116   0.311   0.818
 1321SOL     OW 3966   3.056   1.612   0.031
 1321SOL    HW1 3967   3.062   1.519   0.068
 1321SOL    HW2 3968   2.997   1.612  -0.049
 1322SOL     OW 3969   2.684   1.002   1.372
 1322SOL    HW1 3970   2.724   1.001   1.280
 1322SOL    HW2 3971   2.694   1.094   1.412
 1323SOL     OW 3972   2.778   0.910   0.291
 1323SOL    HW1 3973   2.841   0.948   0.223
 1323SOL    HW2 3974   2.818   0.827   0.330
 1324SOL     OW 3975   3.366   1.607   0.044
 1324SOL    HW1 3976   3.274   1.644   0.051
 1324SOL    HW2 3977   3.404   1.627  -0.046
 1325SOL     OW 3978   2.234   1.288   1.490
 1325SOL    HW1 3979   2.221   1.381   1.456
 1325SOL    HW2 3980   2.150   1.236   1.477
 1326SOL     OW 3981   3.476   1.292   1.289
 1326SOL    HW1 3982   3.536   1.295   1.369
 1326SOL    HW2 3983   3.401   1.356   1.302
 1327SOL     OW 3984   2.901   1.098   0.696
 1327SOL    HW1 3985   2.831   1.051   0.750
 1327SOL    HW2 3986   2.960   1.030   0.653
 1328SOL     OW 3987   2.876   0.236   0.971
 1328SOL    HW1 3988   2.868   0.200   0.878
 1328SOL    HW2 3989   2.874   0.160   1.036
 1329SOL     OW 3990   2.452   1.487   0.491
 1329SOL    HW1 3991   2.494   1.429   0.421
 1329SOL    HW2 3992   2.408   1.566   0.447
 1330SOL     OW 3993   3.571   0.385   1.381
 1330SOL    HW1 3994   3.644   0.454   1.385
 1330SOL    HW2 3995   3.599   0.310   1.322
 1331SOL     OW 3996   2.117   1.348   0.290
 1331SOL    HW1 3997   2.021   1.349   0.263
 1331SOL    HW2 3998   2.129   1.401   0.374
 1332SOL     OW 3999   1.967   1.013   1.726
 1332SOL    HW1 4000   1.890   0.980   1.780
 1332SOL    HW2 4001   2.052   0.983   1.768
 1333SOL     OW 4002   2.534   0.203   1.489
 1333SOL    HW1 4003   2.624   0.187   1.449
 1333SOL    HW2 4004   2.542   0.208   1.588
 1334SOL     OW 4005   1.937   0.345   0.033
 1334SOL    HW1 4006   1.845   0.317   0.004
 1334SOL    HW2 4007   1.968   0.422  -0.023
 1335SOL     OW 4008   3.302   0.856   1.398
 1335SOL    HW1 4009   3.245   0.908   1.335
 1335SOL    HW2 4010   3.398   0.868   1.374
 1336SOL     OW 4011   1.934   0.166   0.318
 1336SOL    HW1 4012   1.917   0.249   0.264
 1336SOL    HW2 4013   2.024   0.129   0.296
 1337SOL     OW 4014   3.045   1.335   0.119
 1337SOL    HW1 4015   2.946   1.324   0.121
 1337SOL    HW2 4016   3.079   1.350   0.212
 1338SOL     OW 4017   2.475   0.842   1.431
 1338SOL    HW1 4018   2.531   0.923   1.414
 1338SOL    HW2 4019   2.534   0.762   1.434
 1339SOL     OW 4020   3.355   1.767   0.959
 1339SOL    HW1 4021   3.388   1.831   0.890
 1339SOL    HW2 4022   3.421   1.761   1.034
 1340SOL     OW 4023   2.578   0.565   1.708
 1340SOL    HW1 4024   2.597   0.630   1.782
 1340SOL    HW2 4025   2.638   0.485   1.717
 1341SOL     OW 4026   3.312   1.220   1.633
 1341SOL    HW1 4027   3.303   1.210   1.732
 1341SOL    HW2 4028   3.408   1.213   1.607
 1342SOL     OW 4029   2.252   1.741   1.560
 1342SOL    HW1 4030   2.161   1.782   1.558
 1342SOL    HW2 4031   2.245   1.647   1.592
 1343SOL     OW 4032   3.536   0.883   1.254
 1343SOL    HW1 4033   3.509   0.794   1.217
 1343SOL    HW2 4034   3.537   0.951   1.181
 1344SOL     OW 4035   3.087   0.325   0.449
 1344SOL    HW1 4036   3.152   0.251   0.438
 1344SOL    HW2 4037   3.107   0.375   0.533
 1345SOL     OW 4038   2.456   0.745   0.652
 1345SOL    HW1 4039   2.506   0.830   0.633
 1345SOL    HW2 4040   2.368   0.747   0.604
 1346SOL     OW 4041   3.639   0.342   1.642
 1346SOL    HW1 4042   3.622   0.373   1.548
 1346SOL    HW2 4043   3.555   0.305   1.680
 1347SOL     OW 4044   3.592   0.934   1.517
 1347SOL    HW1 4045   3.630   1.025   1.532
 1347SOL    HW2 4046   3.584   0.917   1.418
 1348SOL     OW 4047   2.721   1.374   0.016
 1348SOL    HW1 4048   2.675   1.389   0.104
 1348SOL    HW2 4049   2.765   1.459  -0.014
 1349SOL     OW 4050   2.523   1.790   0.953
 1349SOL    HW1 4051   2.477   1.878   0.940
 1349SOL    HW2 4052   2.622   1.802   0.946
 1350SOL     OW 4053   2.721   0.956   0.861
 1350SOL    HW1 4054   2.775   0.887   0.909
 1350SOL    HW2 4055   2.689   1.025   0.927
 1351SOL     OW 4056   2.945   0.984   0.087
 1351SOL    HW1 4057   2.922   1.037   0.005
 1351SOL    HW2 4058   3.026   0.928   0.068
 1352SOL     OW 4059   3.723   1.569   0.851
 1352SOL    HW1 4060   3.652   1.557   0.781
 1352SOL    HW2 4061   3.724   1.490   0.911
 1353SOL     OW 4062   2.083   1.314   1.844
 1353SOL    HW1 4063   2.018   1.241   1.823
 1353SOL    HW2 4064   2.087   1.328   1.942
 1354SOL     OW 4065   1.941   1.240   0.653
 1354SOL    HW1 4066   1.940   1.193   0.741
 1354SOL    HW2 4067   2.023   1.212   0.602
 1355SOL     OW 4068   2.534   1.391   1.624
 1355SOL    HW1 4069   2.456   1.341   1.662
 1355SOL    HW2 4070   2.531   1.486   1.655
 1356SOL     OW 4071   3.686   0.192   1.227
 1356SOL    HW1 4072   3.682   0.102   1.271
 1356SOL    HW2 4073   3.689   0.181   1.128
 1357SOL     OW 4074   2.290   0.424   0.520
 1357SOL    HW1 4075   2.320   0.352   0.458
 1357SOL    HW2 4076   2.251   0.384   0.603
 1358SOL     OW 4077   3.567   1.487   1.104
 1358SOL    HW1 4078   3.474   1.462   1.077
 1358SOL    HW2 4079   3.593   1.437   1.186
 1359SOL     OW 4080   2.179   0.547   1.280
 1359SOL    HW1 4081   2.217   0.488   1.352
 1359SOL    HW2 4082   2.219   0.521   1.192
 1360SOL     OW 4083   2.674   1.586   0.687
 1360SOL    HW1 4084   2.706   1.596   0.593
 1360SOL    HW2 4085   2.595   1.524   0.689
 1361SOL     OW 4086   3.286   0.214   1.112
 1361SOL    HW1 4087   3.338   0.149   1.167
 1361SOL    HW2 4088   3.237   0.277   1.173
 1362SOL     OW 4089   2.863   0.034   1.154
 1362SOL    HW1 4090   2.800  -0.038   1.123
 1362SOL    HW2 4091   2.956  -0.002   1.154
 1363SOL     OW 4092   2.632   1.330   0.301
 1363SOL    HW1 4093   2.586   1.243   0.318
 1363SOL    HW2 4094   2.723   1.327   0.342
 1364SOL     OW 4095   2.480   1.567   1.284
 1364SOL    HW1 4096   2.475   1.649   1.341
 1364SOL    HW2 4097   2.569   1.564   1.239
 1365SOL     OW 4098   3.214   0.052   0.168
 1365SOL    HW1 4099   3.249   0.011   0.084
 1365SOL    HW2 4100   3.124   0.014   0.188
 1366SOL     OW 4101   3.162   0.453   0.691
 1366SOL    HW1 4102   3.103   0.533   0.695
 1366SOL    HW2 4103   3.177   0.418   0.784
 1367SOL     OW 4104   3.455   0.221   0.882
 1367SOL    HW1 4105   3.371   0.220   0.936
 1367SOL    HW2 4106   3.457   0.304   0.826
 1368SOL     OW 4107   1.901   1.077   0.300
 1368SOL    HW1 4108   2.000   1.066   0.291
 1368SOL    HW2 4109   1.861   0.991   0.332
 1369SOL     OW 4110   2.737   1.646   0.337
 1369SOL    HW1 4111   2.660   1.611   0.283
 1369SOL    HW2 4112   2.705   1.717   0.399
 1370SOL     OW 4113   2.092   0.628   1.975
 1370SOL    HW1 4114   1.999   0.626   2.012
 1370SOL    HW2 4115   2.093   0.589   1.883
 1371SOL     OW 4116   2.087   0.275   2.858
 1371SOL    HW1 4117   2.122   0.258   2.950
 1371SOL    HW2 4118   1.999   0.230   2.846
 1372SOL     OW 4119   1.881   0.368   2.509
 1372SOL    HW1 4120   1.799   0.411   2.548
 1372SOL    HW2 4121   1.853   0.295   2.446
 1373SOL     OW 4122   2.431   1.275   3.027
 1373SOL    HW1 4123   2.338   1.268   2.990
 1373SOL    HW2 4124   2.442   1.364   3.071
 1374SOL     OW 4125   3.417   1.511   2.565
 1374SOL    HW1 4126   3.360   1.495   2.646
 1374SOL    HW2 4127   3.358   1.521   2.485
 1375SOL     OW 4128   2.997   0.703   2.579
 1375SOL    HW1 4129   3.054   0.781   2.554
 1375SOL    HW2 4130   2.937   0.729   2.655
 1376SOL     OW 4131   3.617   0.607   2.093
 1376SOL    HW1 4132   3.605   0.594   1.994
 1376SOL    HW2 4133   3.587   0.526   2.142
 1377SOL     OW 4134   2.630   1.144   2.885
 1377SOL    HW1 4135   2.552   1.161   2.945
 1377SOL    HW2 4136   2.664   1.231   2.849
 1378SOL     OW 4137   2.712   0.798   3.685
 1378SOL    HW1 4138   2.708   0.874   3.750
 1378SOL    HW2 4139   2.734   0.834   3.594
 1379SOL     OW 4140   2.547   1.012   2.527
 1379SOL    HW1 4141   2.616   0.996   2.597
 1379SOL    HW2 4142   2.474   1.069   2.565
 1380SOL     OW 4143   2.548   1.161   3.665
 1380SOL    HW1 4144   2.608   1.240   3.679
 1380SOL    HW2 4145   2.462   1.192   3.624
 1381SOL     OW 4146   2.197   1.435   2.923
 1381SOL    HW1 4147   2.119   1.404   2.870
 1381SOL    HW2 4148   2.255   1.493   2.866
 1382SOL     OW 4149   3.322   1.505   3.201
 1382SOL    HW1 4150   3.346   1.599   3.227
 1382SOL    HW2 4151   3.306   1.451   3.283
 1383SOL     OW 4152   2.300   0.392   3.361
 1383SOL    HW1 4153   2.382   0.336   3.370
 1383SOL    HW2 4154   2.219   0.334   3.365
 1384SOL     OW 4155   3.465   0.447   2.599
 1384SOL    HW1 4156   3.391   0.493   2.549
 1384SOL    HW2 4157   3.516   0.515   2.652
 1385SOL     OW 4158   2.093   1.713   2.345
 1385SOL    HW1 4159   2.127   1.790   2.399
 1385SOL    HW2 4160   2.137   1.713   2.255
 1386SOL     OW 4161   2.989   1.341   3.552
 1386SOL    HW1 4162   3.036   1.341   3.640
 1386SOL    HW2 4163   2.941   1.254   3.541
 1387SOL     OW 4164   2.092   1.434   2.400
 1387SOL    HW1 4165   2.066   1.530   2.400
 1387SOL    HW2 4166   2.021   1.380   2.445
 1388SOL     OW 4167   2.102   1.091   2.748
 1388SOL    HW1 4168   2.116   1.007   2.800
 1388SOL    HW2 4169   2.047   1.155   2.803
 1389SOL     OW 4170   2.482   1.786   3.301
 1389SOL    HW1 4171   2.390   1.769   3.336
 1389SOL    HW2 4172   2.510   1.878   3.327
 1390SOL     OW 4173   2.468   0.964   1.985
 1390SOL    HW1 4174   2.475   1.048   1.931
 1390SOL    HW2 4175   2.514   0.977   2.073
 1391SOL     OW 4176   3.456   0.114   3.342
 1391SOL    HW1 4177   3.438   0.181   3.270
 1391SOL    HW2 4178   3.453   0.160   3.431
 1392SOL     OW 4179   1.984   0.643   2.425
 1392SOL    HW1 4180   1.939   0.555   2.442
 1392SOL    HW2 4181   1.983   0.697   2.509
 1393SOL     OW 4182   3.704   1.767   2.221
 1393SOL    HW1 4183   3.758   1.738   2.301
 1393SOL    HW2 4184   3.734   1.857   2.192
 1394SOL     OW 4185   1.889   1.596   1.979
 1394SOL    HW1 4186   1.870   1.500   2.000
 1394SOL    HW2 4187   1.856   1.654   2.054
 1395SOL     OW 4188   3.551   0.922   2.474
 1395SOL    HW1 4189   3.646   0.893   2.482
 1395SOL    HW2 4190   3.543   0.987   2.399
 1396SOL     OW 4191   3.503   1.108   2.294
 1396SOL    HW1 4192   3.589   1.110   2.242
 1396SOL    HW2 4193   3.517   1.155   2.382
 1397SOL     OW 4194   1.975   0.737   3.459
 1397SOL    HW1 4195   2.063   0.724   3.504
 1397SOL    HW2 4196   1.962   0.834   3.437
 1398SOL     OW 4197   2.475   1.365   2.588
 1398SOL    HW1 4198   2.426   1.278   2.597
 1398SOL    HW2 4199   2.452   1.408   2.501
 1399SOL     OW 4200   3.155   1.228   3.285
 1399SOL    HW1 4201   3.192   1.155   3.227
 1399SOL    HW2 4202   3.207   1.233   3.370
 1400SOL     OW 4203   2.671   0.004   2.364
 1400SOL    HW1 4204   2.711   0.095   2.355
 1400SOL    HW2 4205   2.571   0.012   2.370
 1401SOL     OW 4206   2.059   0.976   3.126
 1401SOL    HW1 4207   2.148   0.931   3.112
 1401SOL    HW2 4208   1.986   0.911   3.107
 1402SOL     OW 4209   3.387   0.999   2.052
 1402SOL    HW1 4210   3.324   0.923   2.065
 1402SOL    HW2 4211   3.435   1.017   2.138
 1403SOL     OW 4212   3.049   1.792   3.478
 1403SOL    HW1 4213   3.073   1.852   3.402
 1403SOL    HW2 4214   3.056   1.697   3.448
 1404SOL     OW 4215   2.179   0.251   3.663
 1404SOL    HW1 4216   2.250   0.322   3.669
 1404SOL    HW2 4217   2.091   0.290   3.691
 1405SOL     OW 4218   3.328   1.417   2.815
 1405SOL    HW1 4219   3.269   1.423   2.895
 1405SOL    HW2 4220   3.313   1.329   2.769
 1406SOL     OW 4221   3.529   1.714   2.434
 1406SOL    HW1 4222   3.488   1.691   2.346
 1406SOL    HW2 4223   3.511   1.640   2.499
 1407SOL     OW 4224   2.460   0.729   2.132
 1407SOL    HW1 4225   2.484   0.798   2.064
 1407SOL    HW2 4226   2.382   0.762   2.186
 1408SOL     OW 4227   3.143   0.345   2.806
 1408SOL    HW1 4228   3.057   0.295   2.793
 1408SOL    HW2 4229   3.205   0.291   2.862
 1409SOL     OW 4230   3.438   1.662   2.169
 1409SOL    HW1 4231   3.527   1.708   2.172
 1409SOL    HW2 4232   3.417   1.638   2.074
 1410SOL     OW 4233   2.669   0.605   3.327
 1410SOL    HW1 4234   2.622   0.602   3.416
 1410SOL    HW2 4235   2.618   0.550   3.261
 1411SOL     OW 4236   3.256   0.469   3.536
 1411SOL    HW1 4237   3.236   0.512   3.624
 1411SOL    HW2 4238   3.334   0.407   3.545
 1412SOL     OW 4239   2.835   0.890   3.434
 1412SOL    HW1 4240   2.881   0.806   3.405
 1412SOL    HW2 4241   2.779   0.924   3.359
 1413SOL     OW 4242   2.853   0.410   3.104
 1413SOL    HW1 4243   2.776   0.444   3.158
 1413SOL    HW2 4244   2.819   0.359   3.025
 1414SOL     OW 4245   2.903   0.701   2.291
 1414SOL    HW1 4246   2.929   0.697   2.387
 1414SOL    HW2 4247   2.818   0.650   2.277
 1415SOL     OW 4248   1.938   0.811   2.651
 1415SOL    HW1 4249   2.037   0.799   2.660
 1415SOL    HW2 4250   1.914   0.906   2.672
 1416SOL     OW 4251   1.992   1.821   3.433
 1416SOL    HW1 4252   1.982   1.806   3.532
 1416SOL    HW2 4253   1.906   1.857   3.397
 1417SOL     OW 4254   2.727   0.348   2.057
 1417SOL    HW1 4255   2.786   0.411   2.008
 1417SOL    HW2 4256   2.746   0.254   2.028
 1418SOL     OW 4257   3.581   0.585   3.693
 1418SOL    HW1 4258   3.555   0.674   3.657
 1418SOL    HW2 4259   3.579   0.517   3.620
 1419SOL     OW 4260   3.224   1.144   2.407
 1419SOL    HW1 4261   3.307   1.115   2.359
 1419SOL    HW2 4262   3.175   1.211   2.351
 1420SOL     OW 4263   2.412   0.196   2.747
 1420SOL    HW1 4264   2.407   0.191   2.847
 1420SOL    HW2 4265   2.414   0.292   2.718
 1421SOL     OW 4266   2.870   1.456   2.339
 1421SOL    HW1 4267   2.824   1.528   2.287
 1421SOL    HW2 4268   2.866   1.476   2.437
 1422SOL     OW 4269   2.213   1.801   2.715
 1422SOL    HW1 4270   2.263   1.715   2.721
 1422SOL    HW2 4271   2.278   1.878   2.712
 1423SOL     OW 4272   3.657   1.066   2.735
 1423SOL    HW1 4273   3.595   1.051   2.659
 1423SOL    HW2 4274   3.605   1.077   2.820
 1424SOL     OW 4275   3.089   1.550   3.368
 1424SOL    HW1 4276   3.095   1.473   3.432
 1424SOL    HW2 4277   3.037   1.524   3.288
 1425SOL     OW 4278   2.183   0.943   2.104
 1425SOL    HW1 4279   2.265   0.982   2.062
 1425SOL    HW2 4280   2.156   0.861   2.055
 1426SOL     OW 4281   3.320   0.735   2.590
 1426SOL    HW1 4282   3.315   0.670   2.665
 1426SOL    HW2 4283   3.400   0.794   2.603
 1427SOL     OW 4284   2.323   1.266   3.589
 1427SOL    HW1 4285   2.273   1.267   3.503
 1427SOL    HW2 4286   2.260   1.248   3.665
 1428SOL     OW 4287   2.973   1.776   2.099
 1428SOL    HW1 4288   2.913   1.714   2.149
 1428SOL    HW2 4289   3.004   1.732   2.014
 1429SOL     OW 4290   2.064   0.285   3.360
 1429SOL    HW1 4291   1.984   0.345   3.347
 1429SOL    HW2 4292   2.054   0.236   3.446
 1430SOL     OW 4293   3.494   1.377   1.943
 1430SOL    HW1 4294   3.462   1.471   1.933
 1430SOL    HW2 4295   3.418   1.314   1.931
 1431SOL     OW 4296   2.326   1.743   2.185
 1431SOL    HW1 4297   2.359   1.782   2.271
 1431SOL    HW2 4298   2.402   1.736   2.120
 1432SOL     OW 4299   3.262   0.107   2.288
 1432SOL    HW1 4300   3.238   0.070   2.198
 1432SOL    HW2 4301   3.361   0.123   2.292
 1433SOL     OW 4302   2.111   1.785   3.103
 1433SOL    HW1 4303   2.168   1.720   3.153
 1433SOL    HW2 4304   2.095   1.752   3.010
 1434SOL     OW 4305   2.802   1.698   2.766
 1434SOL    HW1 4306   2.882   1.641   2.787
 1434SOL    HW2 4307   2.753   1.658   2.689
 1435SOL     OW 4308   2.244   0.700   2.342
 1435SOL    HW1 4309   2.289   0.610   2.339
 1435SOL    HW2 4310   2.150   0.689   2.375
 1436SOL     OW 4311   3.409   0.222   3.591
 1436SOL    HW1 4312   3.404   0.259   3.683
 1436SOL    HW2 4313   3.337   0.153   3.579
 1437SOL     OW 4314   2.476   0.122   1.979
 1437SOL    HW1 4315   2.574   0.100   1.986
 1437SOL    HW2 4316   2.445   0.105   1.886
 1438SOL     OW 4317   2.643   0.264   3.611
 1438SOL    HW1 4318   2.710   0.203   3.654
 1438SOL    HW2 4319   2.570   0.283   3.676
 1439SOL     OW 4320   2.750   1.514   3.057
 1439SOL    HW1 4321   2.727   1.489   2.963
 1439SOL    HW2 4322   2.811   1.445   3.096
 1440SOL     OW 4323   3.213   0.590   3.295
 1440SOL    HW1 4324   3.241   0.547   3.380
 1440SOL    HW2 4325   3.238   0.686   3.296
 1441SOL     OW 4326   2.665   1.402   2.786
 1441SOL    HW1 4327   2.755   1.416   2.744
 1441SOL    HW2 4328   2.594   1.404   2.715
 1442SOL     OW 4329   2.784   0.503   2.761
 1442SOL    HW1 4330   2.759   0.494   2.665
 1442SOL    HW2 4331   2.832   0.421   2.792
 1443SOL     OW 4332   2.401   0.064   2.374
 1443SOL    HW1 4333   2.320   0.065   2.432
 1443SOL    HW2 4334   2.404   0.147   2.319
 1444SOL     OW 4335   3.296   1.188   1.903
 1444SOL    HW1 4336   3.328   1.112   1.960
 1444SOL    HW2 4337   3.204   1.215   1.933
 1445SOL     OW 4338   2.159   0.035   2.033
 1445SOL    HW1 4339   2.208   0.119   2.012
 1445SOL    HW2 4340   2.221  -0.030   2.078
 1446SOL     OW 4341   2.797   0.236   2.342
 1446SOL    HW1 4342   2.749   0.277   2.264
 1446SOL    HW2 4343   2.896   0.234   2.323
 1447SOL     OW 4344   2.938   0.683   3.326
 1447SOL    HW1 4345   2.858   0.622   3.329
 1447SOL    HW2 4346   3.019   0.630   3.302
 1448SOL     OW 4347   3.089   1.570   2.655
 1448SOL    HW1 4348   3.110   1.644   2.590
 1448SOL    HW2 4349   3.157   1.570   2.728
 1449SOL     OW 4350   2.321   1.152   2.603
 1449SOL    HW1 4351   2.250   1.125   2.668
 1449SOL    HW2 4352   2.295   1.124   2.510
 1450SOL     OW 4353   3.133   1.797   2.453
 1450SOL    HW1 4354   3.177   1.861   2.389
 1450SOL    HW2 4355   3.083   1.849   2.523
 1451SOL     OW 4356   2.894   0.549   1.878
 1451SOL    HW1 4357   2.853   0.631   1.839
 1451SOL    HW2 4358   2.958   0.575   1.951
 1452SOL     OW 4359   1.940   0.556   3.248
 1452SOL    HW1 4360   2.032   0.555   3.207
 1452SOL    HW2 4361   1.934   0.630   3.315
 1453SOL     OW 4362   2.423   0.222   3.009
 1453SOL    HW1 4363   2.461   0.138   3.046
 1453SOL    HW2 4364   2.335   0.241   3.053
 1454SOL     OW 4365   2.728   0.454   2.504
 1454SOL    HW1 4366   2.696   0.526   2.442
 1454SOL    HW2 4367   2.752   0.373   2.451
 1455SOL     OW 4368   2.879   0.039   2.615
 1455SOL    HW1 4369   2.807   0.044   2.546
 1455SOL    HW2 4370   2.855  -0.030   2.684
 1456SOL     OW 4371   3.291   1.173   2.729
 1456SOL    HW1 4372   3.236   1.089   2.722
 1456SOL    HW2 4373   3.317   1.202   2.637
 1457SOL     OW 4374   3.328   0.590   2.854
 1457SOL    HW1 4375   3.298   0.495   2.861
 1457SOL    HW2 4376   3.401   0.606   2.920
 1458SOL     OW 4377   3.719   0.833   2.239
 1458SOL    HW1 4378   3.761   0.769   2.303
 1458SOL    HW2 4379   3.681   0.782   2.161
 1459SOL     OW 4380   2.350   1.385   2.036
 1459SOL    HW1 4381   2.263   1.370   2.083
 1459SOL    HW2 4382   2.333   1.411   1.941
 1460SOL     OW 4383   3.526   1.280   2.519
 1460SOL    HW1 4384   3.625   1.288   2.533
 1460SOL    HW2 4385   3.481   1.364   2.550
 1461SOL     OW 4386   3.252   0.575   1.940
 1461SOL    HW1 4387   3.198   0.554   2.021
 1461SOL    HW2 4388   3.343   0.534   1.949
 1462SOL     OW 4389   2.389   0.256   2.190
 1462SOL    HW1 4390   2.416   0.197   2.115
 1462SOL    HW2 4391   2.389   0.351   2.159
 1463SOL     OW 4392   3.616   1.223   3.450
 1463SOL    HW1 4393   3.707   1.184   3.437
 1463SOL    HW2 4394   3.624   1.319   3.474
 1464SOL     OW 4395   2.926   1.347   3.202
 1464SOL    HW1 4396   2.846   1.324   3.257
 1464SOL    HW2 4397   3.009   1.321   3.251
 1465SOL     OW 4398   3.454   1.629   3.487
 1465SOL    HW1 4399   3.481   1.663   3.397
 1465SOL    HW2 4400   3.533   1.591   3.533
 1466SOL     OW 4401   2.973   1.195   2.962
 1466SOL    HW1 4402   2.933   1.239   3.043
 1466SOL    HW2 4403   2.932   1.232   2.879
 1467SOL     OW 4404   3.500   1.099   2.941
 1467SOL    HW1 4405   3.505   1.180   3.000
 1467SOL    HW2 4406   3.414   1.101   2.890
 1468SOL     OW 4407   2.777   0.089   3.264
 1468SOL    HW1 4408   2.802   0.069   3.169
 1468SOL    HW2 4409   2.849   0.145   3.306
 1469SOL     OW 4410   2.842   1.116   3.581
 1469SOL    HW1 4411   2.743   1.122   3.591
 1469SOL    HW2 4412   2.865   1.036   3.525
 1470SOL     OW 4413   2.567   1.050   2.230
 1470SOL    HW1 4414   2.553   1.057   2.329
 1470SOL    HW2 4415   2.651   0.999   2.212
 1471SOL     OW 4416   2.272   0.813   3.113
 1471SOL    HW1 4417   2.358   0.825   3.163
 1471SOL    HW2 4418   2.230   0.726   3.140
 1472SOL     OW 4419   3.136   0.386   3.124
 1472SOL    HW1 4420   3.157   0.460   3.188
 1472SOL    HW2 4421   3.047   0.403   3.081
 1473SOL     OW 4422   1.926   1.564   3.193
 1473SOL    HW1 4423   1.880   1.646   3.159
 1473SOL    HW2 4424   2.024   1.583   3.202
 1474SOL     OW 4425   2.229   1.100   2.363
 1474SOL    HW1 4426   2.222   1.183   2.307
 1474SOL    HW2 4427   2.233   1.020   2.303
 1475SOL     OW 4428   2.428   0.537   2.727
 1475SOL    HW1 4429   2.440   0.603   2.653
 1475SOL    HW2 4430   2.474   0.571   2.810
 1476SOL     OW 4431   3.114   1.348   2.250
 1476SOL    HW1 4432   3.164   1.425   2.290
 1476SOL    HW2 4433   3.019   1.350   2.282
 1477SOL     OW 4434   3.134   1.445   3.004
 1477SOL    HW1 4435   3.181   1.458   3.091
 1477SOL    HW2 4436   3.068   1.371   3.013
 1478SOL     OW 4437   3.444   0.639   2.334
 1478SOL    HW1 4438   3.413   0.700   2.407
 1478SOL    HW2 4439   3.494   0.691   2.265
 1479SOL     OW 4440   2.216   1.510   3.191
 1479SOL    HW1 4441   2.195   1.466   3.104
 1479SOL    HW2 4442   2.313   1.536   3.194
 1480SOL     OW 4443   2.264   0.751   3.460
 1480SOL    HW1 4444   2.332   0.806   3.413
 1480SOL    HW2 4445   2.304   0.663   3.487
 1481SOL     OW 4446   3.449   0.779   3.532
 1481SOL    HW1 4447   3.357   0.817   3.527
 1481SOL    HW2 4448   3.509   0.826   3.467
 1482SOL     OW 4449   2.875   0.105   3.632
 1482SOL    HW1 4450   2.881   0.190   3.580
 1482SOL    HW2 4451   2.907   0.029   3.575
 1483SOL     OW 4452   2.366   0.050   3.602
 1483SOL    HW1 4453   2.324  -0.007   3.532
 1483SOL    HW2 4454   2.300   0.119   3.634
 1484SOL     OW 4455   2.435   0.870   2.891
 1484SOL    HW1 4456   2.479   0.959   2.882
 1484SOL    HW2 4457   2.372   0.870   2.968
 1485SOL     OW 4458   3.222   0.862   2.907
 1485SOL    HW1 4459   3.147   0.862   2.841
 1485SOL    HW2 4460   3.259   0.770   2.916
 1486SOL     OW 4461   3.071   0.525   2.137
 1486SOL    HW1 4462   3.084   0.441   2.191
 1486SOL    HW2 4463   3.042   0.599   2.197
 1487SOL     OW 4464   2.169   0.213   3.093
 1487SOL    HW1 4465   2.146   0.250   3.183
 1487SOL    HW2 4466   2.139   0.118   3.087
 1488SOL     OW 4467   1.899   1.310   3.144
 1488SOL    HW1 4468   1.952   1.261   3.212
 1488SOL    HW2 4469   1.921   1.408   3.149
 1489SOL     OW 4470   2.594   0.634   2.926
 1489SOL    HW1 4471   2.653   0.608   2.850
 1489SOL    HW2 4472   2.566   0.730   2.915
 1490SOL     OW 4473   3.590   0.935   3.716
 1490SOL    HW1 4474   3.544   0.928   3.627
 1490SOL    HW2 4475   3.528   0.979   3.782
 1491SOL     OW 4476   2.169   0.063   2.480
 1491SOL    HW1 4477   2.158   0.157   2.513
 1491SOL    HW2 4478   2.164   0.000   2.557
 1492SOL     OW 4479   3.484   0.367   2.236
 1492SOL    HW1 4480   3.486   0.291   2.300
 1492SOL    HW2 4481   3.436   0.444   2.276
 1493SOL     OW 4482   2.885   0.766   2.828
 1493SOL    HW1 4483   2.900   0.787   2.924
 1493SOL    HW2 4484   2.855   0.671   2.819
 1494SOL     OW 4485   2.842   1.573   3.562
 1494SOL    HW1 4486   2.822   1.617   3.474
 1494SOL    HW2 4487   2.881   1.482   3.546
 1495SOL     OW 4488   3.721   1.518   3.467
 1495SOL    HW1 4489   3.735   1.545   3.372
 1495SOL    HW2 4490   3.804   1.540   3.520
 1496SOL     OW 4491   2.212   0.898   3.666
 1496SOL    HW1 4492   2.288   0.942   3.714
 1496SOL    HW2 4493   2.247   0.851   3.584
 1497SOL     OW 4494   3.402   0.274   1.987
 1497SOL    HW1 4495   3.341   0.199   2.010
 1497SOL    HW2 4496   3.424   0.326   2.070
 1498SOL     OW 4497   3.165   0.838   1.904
 1498SOL    HW1 4498   3.199   0.745   1.919
 1498SOL    HW2 4499   3.183   0.865   1.809
 1499SOL     OW 4500   2.930   1.333   2.711
 1499SOL    HW1 4501   2.937   1.249   2.656
 1499SOL    HW2 4502   2.992   1.402   2.675
 1500SOL     OW 4503   2.181   0.810   2.811
 1500SOL    HW1 4504   2.274   0.846   2.816
 1500SOL    HW2 4505   2.175   0.725   2.863
 1501SOL     OW 4506   2.201   0.509   2.868
 1501SOL    HW1 4507   2.149   0.426   2.851
 1501SOL    HW2 4508   2.278   0.514   2.804
 1502SOL     OW 4509   3.000   0.380   3.540
 1502SOL    HW1 4510   2.955   0.443   3.604
 1502SOL    HW2 4511   3.093   0.411   3.523
 1503SOL     OW 4512   3.022   0.207   3.339
 1503SOL    HW1 4513   3.022   0.271   3.416
 1503SOL    HW2 4514   3.050   0.255   3.256
 1504SOL     OW 4515   1.870   1.326   2.062
 1504SOL    HW1 4516   1.777   1.347   2.031
 1504SOL    HW2 4517   1.880   1.227   2.075
 1505SOL     OW 4518   1.950   1.801   2.789
 1505SOL    HW1 4519   1.908   1.715   2.762
 1505SOL    HW2 4520   2.044   1.804   2.755
 1506SOL     OW 4521   2.366   1.568   2.772
 1506SOL    HW1 4522   2.432   1.642   2.781
 1506SOL    HW2 4523   2.410   1.489   2.730
 1507SOL     OW 4524   2.864   0.796   3.100
 1507SOL    HW1 4525   2.905   0.764   3.186
 1507SOL    HW2 4526   2.768   0.769   3.097
 1508SOL     OW 4527   1.902   0.544   2.976
 1508SOL    HW1 4528   1.987   0.511   2.935
 1508SOL    HW2 4529   1.915   0.559   3.074
 1509SOL     OW 4530   2.051   0.520   3.584
 1509SOL    HW1 4531   2.110   0.480   3.514
 1509SOL    HW2 4532   1.993   0.591   3.543
 1510SOL     OW 4533   3.231   0.950   3.522
 1510SOL    HW1 4534   3.270   1.039   3.542
 1510SOL    HW2 4535   3.241   0.930   3.425
 1511SOL     OW 4536   2.677   0.572   2.187
 1511SOL    HW1 4537   2.684   0.483   2.141
 1511SOL    HW2 4538   2.583   0.606   2.179
 1512SOL     OW 4539   3.519   0.604   3.068
 1512SOL    HW1 4540   3.481   0.535   3.130
 1512SOL    HW2 4541   3.601   0.568   3.024
 1513SOL     OW 4542   2.114   1.564   3.606
 1513SOL    HW1 4543   2.084   1.621   3.682
 1513SOL    HW2 4544   2.107   1.467   3.632
 1514SOL     OW 4545   2.533   0.464   3.131
 1514SOL    HW1 4546   2.499   0.375   3.101
 1514SOL    HW2 4547   2.559   0.518   3.051
 1515SOL     OW 4548   2.792   1.678   3.327
 1515SOL    HW1 4549   2.768   1.660   3.232
 1515SOL    HW2 4550   2.822   1.772   3.337
 1516SOL     OW 4551   2.335   0.500   2.053
 1516SOL    HW1 4552   2.396   0.580   2.057
 1516SOL    HW2 4553   2.240   0.531   2.060
 1517SOL     OW 4554   2.021   1.137   3.328
 1517SOL    HW1 4555   2.043   1.076   3.404
 1517SOL    HW2 4556   2.031   1.088   3.242
 1518SOL     OW 4557   3.209   1.059   3.096
 1518SOL    HW1 4558   3.233   0.996   3.022
 1518SOL    HW2 4559   3.119   1.099   3.078
 1519SOL     OW 4560   3.164   0.855   2.171
 1519SOL    HW1 4561   3.078   0.824   2.213
 1519SOL    HW2 4562   3.160   0.841   2.072
 1520SOL     OW 4563   3.621   1.747   3.016
 1520SOL    HW1 4564   3.682   1.777   2.943
 1520SOL    HW2 4565   3.583   1.658   2.994
 1521SOL     OW 4566   3.114   1.731   2.990
 1521SOL    HW1 4567   3.198   1.736   2.936
 1521SOL    HW2 4568   3.091   1.635   3.008
 1522SOL     OW 4569   1.945   1.258   2.884
 1522SOL    HW1 4570   1.940   1.257   2.984
 1522SOL    HW2 4571   1.862   1.217   2.846
 1523SOL     OW 4572   2.550   1.662   3.578
 1523SOL    HW1 4573   2.494   1.743   3.587
 1523SOL    HW2 4574   2.602   1.666   3.492
 1524SOL     OW 4575   3.588   0.135   2.385
 1524SOL    HW1 4576   3.661   0.118   2.318
 1524SOL    HW2 4577   3.557   0.048   2.423
 1525SOL     OW 4578   3.250   1.573   2.339
 1525SOL    HW1 4579   3.317   1.585   2.265
 1525SOL    HW2 4580   3.210   1.662   2.362
 1526SOL     OW 4581   1.992   1.794   3.713
 1526SOL    HW1 4582   1.951   1.720   3.766
 1526SOL    HW2 4583   2.056   1.845   3.771
 1527SOL     OW 4584   3.142   0.927   2.534
 1527SOL    HW1 4585   3.202   0.846   2.536
 1527SOL    HW2 4586   3.182   0.996   2.474
 1528SOL     OW 4587   2.692   1.273   3.284
 1528SOL    HW1 4588   2.687   1.306   3.379
 1528SOL    HW2 4589   2.606   1.292   3.238
 1529SOL     OW 4590   2.534   1.616   2.016
 1529SOL    HW1 4591   2.543   1.626   1.917
 1529SOL    HW2 4592   2.494   1.527   2.037
 1530SOL     OW 4593   3.512   1.720   3.256
 1530SOL    HW1 4594   3.565   1.730   3.172
 1530SOL    HW2 4595   3.485   1.810   3.290
 1531SOL     OW 4596   3.703   0.175   2.825
 1531SOL    HW1 4597   3.742   0.090   2.789
 1531SOL    HW2 4598   3.605   0.177   2.806
 1532SOL     OW 4599   2.125   0.326   2.582
 1532SOL    HW1 4600   2.046   0.377   2.548
 1532SOL    HW2 4601   2.116   0.311   2.680
 1533SOL     OW 4602   3.056   1.612   1.893
 1533SOL    HW1 4603   3.062   1.519   1.930
 1533SOL    HW2 4604   2.997   1.612   1.813
 1534SOL     OW 4605   2.684   1.002   3.234
 1534SOL    HW1 4606   2.724   1.001   3.142
 1534SOL    HW2 4607   2.694   1.094   3.274
 1535SOL     OW 4608   2.778   0.910   2.153
 1535SOL    HW1 4609   2.841   0.948   2.085
 1535SOL    HW2 4610   2.818   0.827   2.192
 1536SOL     OW 4611   3.366   1.607   1.906
 1536SOL    HW1 4612   3.274   1.644   1.913
 1536SOL    HW2 4613   3.404   1.627   1.816
 1537SOL     OW 4614   2.234   1.288   3.352
 1537SOL    HW1 4615   2.221   1.381   3.318
 1537SOL    HW2 4616   2.150   1.236   3.339
 1538SOL     OW 4617   3.476   1.292   3.151
 1538SOL    HW1 4618   3.536   1.295   3.231
 1538SOL    HW2 4619   3.401   1.356   3.164
 1539SOL     OW 4620   2.901   1.098   2.558
 1539SOL    HW1 4621   2.831   1.051   2.612
 1539SOL    HW2 4622   2.960   1.030   2.515
 1540SOL     OW 4623   2.876   0.236   2.833
 1540SOL    HW1 4624   2.868   0.200   2.740
 1540SOL    HW2 4625   2.874   0.160   2.898
 1541SOL     OW 4626   2.452   1.487   2.353
 1541SOL    HW1 4627   2.494   1.429   2.283
 1541SOL    HW2 4628   2.408   1.566   2.309
 1542SOL     OW 4629   3.571   0.385   3.243
 1542SOL    HW1 4630   3.644   0.454   3.247
 1542SOL    HW2 4631   3.599   0.310   3.184
 1543SOL     OW 4632   2.117   1.348   2.152
 1543SOL    HW1 4633   2.021   1.349   2.125
 1543SOL    HW2 4634   2.129   1.401   2.236
 1544SOL     OW 4635   1.967   1.013   3.588
 1544SOL    HW1 4636   1.890   0.980   3.642
 1544SOL    HW2 4637   2.052   0.983   3.630
 1545SOL     OW 4638   2.534   0.203   3.351
 1545SOL    HW1 4639   2.624   0.187   3.311
 1545SOL    HW2 4640   2.542   0.208   3.450
 1546SOL     OW 4641   1.937   0.345   1.895
 1546SOL    HW1 4642   1.845   0.317   1.866
 1546SOL    HW2 4643   1.968   0.422   1.839
 1547SOL     OW 4644   3.302   0.856   3.260
 1547SOL    HW1 4645   3.245   0.908   3.197
 1547SOL    HW2 4646   3.398   0.868   3.236
 1548SOL     OW 4647   1.934   0.166   2.180
 1548SOL    HW1 4648   1.917   0.249   2.126
 1548SOL    HW2 4649   2.024   0.129   2.158
 1549SOL     OW 4650   3.045   1.335   1.981
 1549SOL    HW1 4651   2.946   1.324   1.983
 1549SOL    HW2 4652   3.079   1.350   2.074
 1550SOL     OW 4653   2.475   0.842   3.293
 1550SOL    HW1 4654   2.531   0.923   3.276
 1550SOL    HW2 4655   2.534   0.762   3.296
 1551SOL     OW 4656   3.355   1.767   2.821
 1551SOL    HW1 4657   3.388   1.831   2.752
 1551SOL    HW2 4658   3.421   1.761   2.896
 1552SOL     OW 4659   2.578   0.565   3.570
 1552SOL    HW1 4660   2.597   0.630   3.644
 1552SOL    HW2 4661   2.638   0.485   3.579
 1553SOL     OW 4662   3.312   1.220   3.495
 1553SOL    HW1 4663   3.303   1.210   3.594
 1553SOL    HW2 4664   3.408   1.213   3.469
 1554SOL     OW 4665   2.252   1.741   3.422
 1554SOL    HW1 4666   2.161   1.782   3.420
 1554SOL    HW2 4667   2.245   1.647   3.454
 1555SOL     OW 4668   3.536   0.883   3.116
 1555SOL    HW1 4669   3.509   0.794   3.079
 1555SOL    HW2 4670   3.537   0.951   3.043
 1556SOL     OW 4671   3.087   0.325   2.311
 1556SOL    HW1 4672   3.152   0.251   2.300
 1556SOL    HW2 4673   3.107   0.375   2.395
 1557SOL     OW 4674   2.456   0.745   2.514
 1557SOL    HW1 4675   2.506   0.830   2.495
 1557SOL    HW2 4676   2.368   0.747   2.466
 1558SOL     OW 4677   3.639   0.342   3.504
 1558SOL    HW1 4678   3.622   0.373   3.410
 1558SOL    HW2 4679   3.555   0.305   3.542
 1559SOL     OW 4680   3.592   0.934   3.379
 1559SOL    HW1 4681   3.630   1.025   3.394
 1559SOL    HW2 4682   3.584   0.917   3.280
 1560SOL     OW 4683   2.721   1.374   1.878
 1560SOL    HW1 4684   2.675   1.389   1.966
 1560SOL    HW2 4685   2.765   1.459   1.848
 1561SOL     OW 4686   2.523   1.790   2.815
 1561SOL    HW1 4687   2.477   1.878   2.802
 1561SOL    HW2 4688   2.622   1.802   2.808
 1562SOL     OW 4689   2.721   0.956   2.723
 1562SOL    HW1 4690   2.775   0.887   2.771
 1562SOL    HW2 4691   2.689   1.025   2.789
 1563SOL     OW 4692   2.945   0.984   1.949
 1563SOL    HW1 4693   2.922   1.037   1.867
 1563SOL    HW2 4694   3.026   0.928   1.930
 1564SOL     OW 4695   3.723   1.569   2.713
 1564SOL    HW1 4696   3.652   1.557   2.643
 1564SOL    HW2 4697   3.724   1.490   2.773
 1565SOL     OW 4698   2.083   1.314   3.706
 1565SOL    HW1 4699   2.018   1.241   3.685
 1565SOL    HW2 4700   2.087   1.328   3.804
 1566SOL     OW 4701   1.941   1.240   2.515
 1566SOL    HW1 4702   1.940   1.193   2.603
 1566SOL    HW2 4703   2.023   1.212   2.464
 1567SOL     OW 4704   2.534   1.391   3.486
 1567SOL    HW1 4705   2.456   1.341   3.524
 1567SOL    HW2 4706   2.531   1.486   3.517
 1568SOL     OW 4707   3.686   0.192   3.089
 1568SOL    HW1 4708   3.682   0.102   3.133
 1568SOL    HW2 4709   3.689   0.181   2.990
 1569SOL     OW 4710   2.290   0.424   2.382
 1569SOL    HW1 4711   2.320   0.352   2.320
 1569SOL    HW2 4712   2.251   0.384   2.465
 1570SOL     OW 4713   3.567   1.487   2.966
 1570SOL    HW1 4714   3.474   1.462   2.939
 1570SOL    HW2 4715   3.593   1.437   3.048
 1571SOL     OW 4716   2.179   0.547   3.142
 1571SOL    HW1 4717   2.217   0.488   3.214
 1571SOL    HW2 4718   2.219   0.521   3.054
 1572SOL     OW 4719   2.674   1.586   2.549
 1572SOL    HW1 4720   2.706   1.596   2.455
 1572SOL    HW2 4721   2.595   1.524   2.551
 1573SOL     OW 4722   3.286   0.214   2.974
 1573SOL    HW1 4723   3.338   0.149   3.029
 1573SOL    HW2 4724   3.237   0.277   3.035
 1574SOL     OW 4725   2.863   0.034   3.016
 1574SOL    HW1 4726   2.800  -0.038   2.985
 1574SOL    HW2 4727   2.956  -0.002   3.016
 1575SOL     OW 4728   2.632   1.330   2.163
 1575SOL    HW1 4729   2.586   1.243   2.180
 1575SOL    HW2 4730   2.723   1.327   2.204
 1576SOL     OW 4731   2.480   1.567   3.146
 1576SOL    HW1 4732   2.475   1.649   3.203
 1576SOL    HW2 4733   2.569   1.564   3.101
 1577SOL     OW 4734   3.214   0.052   2.030
 1577SOL    HW1 4735   3.249   0.011   1.946
 1577SOL    HW2 4736   3.124   0.014   2.050
 1578SOL     OW 4737   3.162   0.453   2.553
 1578SOL    HW1 4738   3.103   0.533   2.557
 1578SOL    HW2 4739   3.177   0.418   2.646
 1579SOL     OW 4740   3.455   0.221   2.744
 1579SOL    HW1 4741   3.371   0.220   2.798
 1579SOL    HW2 4742   3.457   0.304   2.688
 1580SOL     OW 4743   1.901   1.077   2.162
 1580SOL    HW1 4744   2.000   1.066   2.153
 1580SOL    HW2 4745   1.861   0.991   2.194
 1581SOL     OW 4746   2.737   1.646   2.199
 1581SOL    HW1 4747   2.660   1.611   2.145
 1581SOL    HW2 4748   2.705   1.717   2.261
 1582SOL     OW 4749   2.092   0.628   3.837
 1582SOL    HW1 4750   1.999   0.626   3.874
 1582SOL    HW2 4751   2.093   0.589   3.745
 1583SOL     OW 4752   3.617   0.607   3.955
 1583SOL    HW1 4753   3.605   0.594   3.856
 1583SOL    HW2 4754   3.587   0.526   4.004
 1584SOL     OW 4755   2.093   1.713   4.207
 1584SOL    HW1 4756   2.127   1.790   4.261
 1584SOL    HW2 4757   2.137   1.713   4.117
 1585SOL     OW 4758   2.092   1.434   4.262
 1585SOL    HW1 4759   2.066   1.530   4.262
 1585SOL    HW2 4760   2.021   1.380   4.307
 1586SOL     OW 4761   2.468   0.964   3.847
 1586SOL    HW1 4762   2.475   1.048   3.793
 1586SOL    HW2 4763   2.514   0.977   3.935
 1587SOL     OW 4764   1.984   0.643   4.287
 1587SOL    HW1 4765   1.939   0.555   4.304
 1587SOL    HW2 4766   1.983   0.697   4.371
 1588SOL     OW 4767   3.704   1.767   4.083
 1588SOL    HW1 4768   3.758   1.738   4.163
 1588SOL    HW2 4769   3.734   1.857   4.054
 1589SOL     OW 4770   1.889   1.596   3.841
 1589SOL    HW1 4771   1.870   1.500   3.862
 1589SOL    HW2 4772   1.856   1.654   3.916
 1590SOL     OW 4773   3.551   0.922   4.336
 1590SOL    HW1 4774   3.646   0.893   4.344
 1590SOL    HW2 4775   3.543   0.987   4.261
 1591SOL     OW 4776   3.503   1.108   4.156
 1591SOL    HW1 4777   3.589   1.110   4.104
 1591SOL    HW2 4778   3.517   1.155   4.244
 1592SOL     OW 4779   2.671   0.004   4.226
 1592SOL    HW1 4780   2.711   0.095   4.217
 1592SOL    HW2 4781   2.571   0.012   4.232
 1593SOL     OW 4782   3.387   0.999   3.914
 1593SOL    HW1 4783   3.324   0.923   3.927
 1593SOL    HW2 4784   3.435   1.017   4.000
 1594SOL     OW 4785   2.460   0.729   3.994
 1594SOL    HW1 4786   2.484   0.798   3.926
 1594SOL    HW2 4787   2.382   0.762   4.048
 1595SOL     OW 4788   3.438   1.662   4.031
 1595SOL    HW1 4789   3.527   1.708   4.034
 1595SOL    HW2 4790   3.417   1.638   3.936
 1596SOL     OW 4791   2.903   0.701   4.153
 1596SOL    HW1 4792   2.929   0.697   4.249
 1596SOL    HW2 4793   2.818   0.650   4.139
 1597SOL     OW 4794   1.938   0.811   4.513
 1597SOL    HW1 4795   2.037   0.799   4.522
 1597SOL    HW2 4796   1.914   0.906   4.534
 1598SOL     OW 4797   2.727   0.348   3.919
 1598SOL    HW1 4798   2.786   0.411   3.870
 1598SOL    HW2 4799   2.746   0.254   3.890
 1599SOL     OW 4800   2.183   0.943   3.966
 1599SOL    HW1 4801   2.265   0.982   3.924
 1599SOL    HW2 4802   2.156   0.861   3.917
 1600SOL     OW 4803   2.973   1.776   3.961
 1600SOL    HW1 4804   2.913   1.714   4.011
 1600SOL    HW2 4805   3.004   1.732   3.876
 1601SOL     OW 4806   3.494   1.377   3.805
 1601SOL    HW1 4807   3.462   1.471   3.795
 1601SOL    HW2 4808   3.418   1.314   3.793
 1602SOL     OW 4809   2.326   1.743   4.047
 1602SOL    HW1 4810   2.359   1.782   4.133
 1602SOL    HW2 4811   2.402   1.736   3.982
 1603SOL     OW 4812   3.262   0.107   4.150
 1603SOL    HW1 4813   3.238   0.070   4.060
 1603SOL    HW2 4814   3.361   0.123   4.154
 1604SOL     OW 4815   2.244   0.700   4.204
 1604SOL    HW1 4816   2.289   0.610   4.201
 1604SOL    HW2 4817   2.150   0.689   4.237
 1605SOL     OW 4818   2.476   0.122   3.841
 1605SOL    HW1 4819   2.574   0.100   3.848
 1605SOL    HW2 4820   2.445   0.105   3.748
 1606SOL     OW 4821   2.401   0.064   4.236
 1606SOL    HW1 4822   2.320   0.065   4.294
 1606SOL    HW2 4823   2.404   0.147   4.181
 1607SOL     OW 4824   3.296   1.188   3.765
 1607SOL    HW1 4825   3.328   1.112   3.822
 1607SOL    HW2 4826   3.204   1.215   3.795
 1608SOL     OW 4827   2.159   0.035   3.895
 1608SOL    HW1 4828   2.208   0.119   3.874
 1608SOL    HW2 4829   2.221  -0.030   3.940
 1609SOL     OW 4830   2.797   0.236   4.204
 1609SOL    HW1 4831   2.749   0.277   4.126
 1609SOL    HW2 4832   2.896   0.234   4.185
 1610SOL     OW 4833   2.321   1.152   4.465
 1610SOL    HW1 4834   2.250   1.125   4.530
 1610SOL    HW2 4835   2.295   1.124   4.372
 1611SOL     OW 4836   3.133   1.797   4.315
 1611SOL    HW1 4837   3.177   1.861   4.251
 1611SOL    HW2 4838   3.083   1.849   4.385
 1612SOL     OW 4839   2.894   0.549   3.740
 1612SOL    HW1 4840   2.853   0.631   3.701
 1612SOL    HW2 4841   2.958   0.575   3.813
 1613SOL     OW 4842   2.728   0.454   4.366
 1613SOL    HW1 4843   2.696   0.526   4.304
 1613SOL    HW2 4844   2.752   0.373   4.313
 1614SOL     OW 4845   3.719   0.833   4.101
 1614SOL    HW1 4846   3.761   0.769   4.165
 1614SOL    HW2 4847   3.681   0.782   4.023
 1615SOL     OW 4848   2.350   1.385   3.898
 1615SOL    HW1 4849   2.263   1.370   3.945
 1615SOL    HW2 4850   2.333   1.411   3.803
 1616SOL     OW 4851   3.252   0.575   3.802
 1616SOL    HW1 4852   3.198   0.554   3.883
 1616SOL    HW2 4853   3.343   0.534   3.811
 1617SOL     OW 4854   2.389   0.256   4.052
 1617SOL    HW1 4855   2.416   0.197   3.977
 1617SOL    HW2 4856   2.389   0.351   4.021
 1618SOL     OW 4857   2.567   1.050   4.092
 1618SOL    HW1 4858   2.553   1.057   4.191
 1618SOL    HW2 4859   2.651   0.999   4.074
 1619SOL     OW 4860   2.229   1.100   4.225
 1619SOL    HW1 4861   2.222   1.183   4.169
 1619SOL    HW2 4862   2.233   1.020   4.165
 1620SOL     OW 4863   3.114   1.348   4.112
 1620SOL    HW1 4864   3.164   1.425   4.152
 1620SOL    HW2 4865   3.019   1.350   4.144
 1621SOL     OW 4866   3.444   0.639   4.196
 1621SOL    HW1 4867   3.413   0.700   4.269
 1621SOL    HW2 4868   3.494   0.691   4.127
 1622SOL     OW 4869   3.071   0.525   3.999
 1622SOL    HW1 4870   3.084   0.441   4.053
 1622SOL    HW2 4871   3.042   0.599   4.059
 1623SOL     OW 4872   3.484   0.367   4.098
 1623SOL    HW1 4873   3.486   0.291   4.162
 1623SOL    HW2 4874   3.436   0.444   4.138
 1624SOL     OW 4875   3.402   0.274   3.849
 1624SOL    HW1 4876   3.341   0.199   3.872
 1624SOL    HW2 4877   3.424   0.326   3.932
 1625SOL     OW 4878   3.165   0.838   3.766
 1625SOL    HW1 4879   3.199   0.745   3.781
 1625SOL    HW2 4880   3.183   0.865   3.671
 1626SOL     OW 4881   1.870   1.326   3.924
 1626SOL    HW1 4882   1.777   1.347   3.893
 1626SOL    HW2 4883   1.880   1.227   3.937
 1627SOL     OW 4884   2.677   0.572   4.049
 1627SOL    HW1 4885   2.684   0.483   4.003
 1627SOL    HW2 4886   2.583   0.606   4.041
 1628SOL     OW 4887   2.335   0.500   3.915
 1628SOL    HW1 4888   2.396   0.580   3.919
 1628SOL    HW2 4889   2.240   0.531   3.922
 1629SOL     OW 4890   3.164   0.855   4.033
 1629SOL    HW1 4891   3.078   0.824   4.075
 1629SOL    HW2 4892   3.160   0.841   3.934
 1630SOL     OW 4893   3.588   0.135   4.247
 1630SOL    HW1 4894   3.661   0.118   4.180
 1630SOL    HW2 4895   3.557   0.048   4.285
 1631SOL     OW 4896   3.250   1.573   4.201
 1631SOL    HW1 4897   3.317   1.585   4.127
 1631SOL    HW2 4898   3.210   1.662   4.224
 1632SOL     OW 4899   2.534   1.616   3.878
 1632SOL    HW1 4900   2.543   1.626   3.779
 1632SOL    HW2 4901   2.494   1.527   3.899
 1633SOL     OW 4902   3.056   1.612   3.755
 1633SOL    HW1 4903   3.062   1.519   3.792
 1633SOL    HW2 4904   2.997   1.612   3.675
 1634SOL     OW 4905   2.778   0.910   4.015
 1634SOL    HW1 4906   2.841   0.948   3.947
 1634SOL    HW2 4907   2.818   0.827   4.054
 1635SOL     OW 4908   3.366   1.607   3.768
 1635SOL    HW1 4909   3.274   1.644   3.775
 1635SOL    HW2 4910   3.404   1.627   3.678
 1636SOL     OW 4911   2.452   1.487   4.215
 1636SOL    HW1 4912   2.494   1.429   4.145
 1636SOL    HW2 4913   2.408   1.566   4.171
 1637SOL     OW 4914   2.117   1.348   4.014
 1637SOL    HW1 4915   2.021   1.349   3.987
 1637SOL    HW2 4916   2.129   1.401   4.098
 1638SOL     OW 4917   1.937   0.345   3.757
 1638SOL    HW1 4918   1.845   0.317   3.728
 1638SOL    HW2 4919   1.968   0.422   3.701
 1639SOL     OW 4920   1.934   0.166   4.042
 1639SOL    HW1 4921   1.917   0.249   3.988
 1639SOL    HW2 4922   2.024   0.129   4.020
 1640SOL     OW 4923   3.045   1.335   3.843
 1640SOL    HW1 4924   2.946   1.324   3.845
 1640SOL    HW2 4925   3.079   1.350   3.936
 1641SOL     OW 4926   3.087   0.325   4.173
 1641SOL    HW1 4927   3.152   0.251   4.162
 1641SOL    HW2 4928   3.107   0.375   4.257
 1642SOL     OW 4929   2.456   0.745   4.376
 1642SOL    HW1 4930   2.506   0.830   4.357
 1642SOL    HW2 4931   2.368   0.747   4.328
 1643SOL     OW 4932   2.721   1.374   3.740
 1643SOL    HW1 4933   2.675   1.389   3.828
 1643SOL    HW2 4934   2.765   1.459   3.710
 1644SOL     OW 4935   2.945   0.984   3.811
 1644SOL    HW1 4936   2.922   1.037   3.729
 1644SOL    HW2 4937   3.026   0.928   3.792
 1645SOL     OW 4938   1.941   1.240   4.377
 1645SOL    HW1 4939   1.940   1.193   4.465
 1645SOL    HW2 4940   2.023   1.212   4.326
 1646SOL     OW 4941   2.290   0.424   4.244
 1646SOL    HW1 4942   2.320   0.352   4.182
 1646SOL    HW2 4943   2.251   0.384   4.327
 1647SOL     OW 4944   2.632   1.330   4.025
 1647SOL    HW1 4945   2.586   1.243   4.042
 1647SOL    HW2 4946   2.723   1.327   4.066
 1648SOL     OW 4947   3.214   0.052   3.892
 1648SOL    HW1 4948   3.249   0.011   3.808
 1648SOL    HW2 4949   3.124   0.014   3.912
 1649SOL     OW 4950   1.901   1.077   4.024
 1649SOL    HW1 4951   2.000   1.066   4.015
 1649SOL    HW2 4952   1.861   0.991   4.056
 1650SOL     OW 4953   2.737   1.646   4.061
 1650SOL    HW1 4954   2.660   1.611   4.007
 1650SOL    HW2 4955   2.705   1.717   4.123
 1651SOL     OW 4956   2.092   2.490   0.113
 1651SOL    HW1 4957   1.999   2.488   0.150
 1651SOL    HW2 4958   2.093   2.451   0.021
 1652SOL     OW 4959   2.087   2.137   0.996
 1652SOL    HW1 4960   2.122   2.120   1.088
 1652SOL    HW2 4961   1.999   2.092   0.984
 1653SOL     OW 4962   1.881   2.230   0.647
 1653SOL    HW1 4963   1.799   2.273   0.686
 1653SOL    HW2 4964   1.853   2.157   0.584
 1654SOL     OW 4965   2.431   3.137   1.165
 1654SOL    HW1 4966   2.338   3.130   1.128
 1654SOL    HW2 4967   2.442   3.226   1.209
 1655SOL     OW 4968   3.417   3.373   0.703
 1655SOL    HW1 4969   3.360   3.357   0.784
 1655SOL    HW2 4970   3.358   3.383   0.623
 1656SOL     OW 4971   2.997   2.565   0.717
 1656SOL    HW1 4972   3.054   2.643   0.692
 1656SOL    HW2 4973   2.937   2.591   0.793
 1657SOL     OW 4974   3.617   2.469   0.231
 1657SOL    HW1 4975   3.605   2.456   0.132
 1657SOL    HW2 4976   3.587   2.388   0.280
 1658SOL     OW 4977   2.630   3.006   1.023
 1658SOL    HW1 4978   2.552   3.023   1.083
 1658SOL    HW2 4979   2.664   3.093   0.987
 1659SOL     OW 4980   2.712   2.660   1.823
 1659SOL    HW1 4981   2.708   2.736   1.888
 1659SOL    HW2 4982   2.734   2.696   1.732
 1660SOL     OW 4983   2.547   2.874   0.665
 1660SOL    HW1 4984   2.616   2.858   0.735
 1660SOL    HW2 4985   2.474   2.931   0.703
 1661SOL     OW 4986   2.548   3.023   1.803
 1661SOL    HW1 4987   2.608   3.102   1.817
 1661SOL    HW2 4988   2.462   3.054   1.762
 1662SOL     OW 4989   2.197   3.297   1.061
 1662SOL    HW1 4990   2.119   3.266   1.008
 1662SOL    HW2 4991   2.255   3.355   1.004
 1663SOL     OW 4992   3.322   3.367   1.339
 1663SOL    HW1 4993   3.346   3.461   1.365
 1663SOL    HW2 4994   3.306   3.313   1.421
 1664SOL     OW 4995   2.300   2.254   1.499
 1664SOL    HW1 4996   2.382   2.198   1.508
 1664SOL    HW2 4997   2.219   2.196   1.503
 1665SOL     OW 4998   3.465   2.309   0.737
 1665SOL    HW1 4999   3.391   2.355   0.687
 1665SOL    HW2 5000   3.516   2.377   0.790
 1666SOL     OW 5001   2.093   3.575   0.483
 1666SOL    HW1 5002   2.127   3.652   0.537
 1666SOL    HW2 5003   2.137   3.575   0.393
 1667SOL     OW 5004   2.989   3.203   1.690
 1667SOL    HW1 5005   3.036   3.203   1.778
 1667SOL    HW2 5006   2.941   3.116   1.679
 1668SOL     OW 5007   2.092   3.296   0.538
 1668SOL    HW1 5008   2.066   3.392   0.538
 1668SOL    HW2 5009   2.021   3.242   0.583
 1669SOL     OW 5010   2.102   2.953   0.886
 1669SOL    HW1 5011   2.116   2.869   0.938
 1669SOL    HW2 5012   2.047   3.017   0.941
 1670SOL     OW 5013   2.482   3.648   1.439
 1670SOL    HW1 5014   2.390   3.631   1.474
 1670SOL    HW2 5015   2.510   3.740   1.465
 1671SOL     OW 5016   2.468   2.826   0.123
 1671SOL    HW1 5017   2.475   2.910   0.069
 1671SOL    HW2 5018   2.514   2.839   0.211
 1672SOL     OW 5019   3.456   1.976   1.480
 1672SOL    HW1 5020   3.438   2.043   1.408
 1672SOL    HW2 5021   3.453   2.022   1.569
 1673SOL     OW 5022   1.984   2.505   0.563
 1673SOL    HW1 5023   1.939   2.417   0.580
 1673SOL    HW2 5024   1.983   2.559   0.647
 1674SOL     OW 5025   3.704   3.629   0.359
 1674SOL    HW1 5026   3.758   3.600   0.439
 1674SOL    HW2 5027   3.734   3.719   0.330
 1675SOL     OW 5028   1.889   3.458   0.117
 1675SOL    HW1 5029   1.870   3.362   0.138
 1675SOL    HW2 5030   1.856   3.516   0.192
 1676SOL     OW 5031   3.551   2.784   0.612
 1676SOL    HW1 5032   3.646   2.755   0.620
 1676SOL    HW2 5033   3.543   2.849   0.537
 1677SOL     OW 5034   3.503   2.970   0.432
 1677SOL    HW1 5035   3.589   2.972   0.380
 1677SOL    HW2 5036   3.517   3.017   0.520
 1678SOL     OW 5037   1.975   2.599   1.597
 1678SOL    HW1 5038   2.063   2.586   1.642
 1678SOL    HW2 5039   1.962   2.696   1.575
 1679SOL     OW 5040   2.475   3.227   0.726
 1679SOL    HW1 5041   2.426   3.140   0.735
 1679SOL    HW2 5042   2.452   3.270   0.639
 1680SOL     OW 5043   3.155   3.090   1.423
 1680SOL    HW1 5044   3.192   3.017   1.365
 1680SOL    HW2 5045   3.207   3.095   1.508
 1681SOL     OW 5046   2.671   1.866   0.502
 1681SOL    HW1 5047   2.711   1.957   0.493
 1681SOL    HW2 5048   2.571   1.874   0.508
 1682SOL     OW 5049   2.059   2.838   1.264
 1682SOL    HW1 5050   2.148   2.793   1.250
 1682SOL    HW2 5051   1.986   2.773   1.245
 1683SOL     OW 5052   3.387   2.861   0.190
 1683SOL    HW1 5053   3.324   2.785   0.203
 1683SOL    HW2 5054   3.435   2.879   0.276
 1684SOL     OW 5055   3.049   3.654   1.616
 1684SOL    HW1 5056   3.073   3.714   1.540
 1684SOL    HW2 5057   3.056   3.559   1.586
 1685SOL     OW 5058   3.328   3.279   0.953
 1685SOL    HW1 5059   3.269   3.285   1.033
 1685SOL    HW2 5060   3.313   3.191   0.907
 1686SOL     OW 5061   3.529   3.576   0.572
 1686SOL    HW1 5062   3.488   3.553   0.484
 1686SOL    HW2 5063   3.511   3.502   0.637
 1687SOL     OW 5064   2.460   2.591   0.270
 1687SOL    HW1 5065   2.484   2.660   0.202
 1687SOL    HW2 5066   2.382   2.624   0.324
 1688SOL     OW 5067   3.143   2.207   0.944
 1688SOL    HW1 5068   3.057   2.157   0.931
 1688SOL    HW2 5069   3.205   2.153   1.000
 1689SOL     OW 5070   3.438   3.524   0.307
 1689SOL    HW1 5071   3.527   3.570   0.310
 1689SOL    HW2 5072   3.417   3.500   0.212
 1690SOL     OW 5073   2.669   2.467   1.465
 1690SOL    HW1 5074   2.622   2.464   1.554
 1690SOL    HW2 5075   2.618   2.412   1.399
 1691SOL     OW 5076   3.256   2.331   1.674
 1691SOL    HW1 5077   3.236   2.374   1.762
 1691SOL    HW2 5078   3.334   2.269   1.683
 1692SOL     OW 5079   2.835   2.752   1.572
 1692SOL    HW1 5080   2.881   2.668   1.543
 1692SOL    HW2 5081   2.779   2.786   1.497
 1693SOL     OW 5082   2.853   2.272   1.242
 1693SOL    HW1 5083   2.776   2.306   1.296
 1693SOL    HW2 5084   2.819   2.221   1.163
 1694SOL     OW 5085   2.903   2.563   0.429
 1694SOL    HW1 5086   2.929   2.559   0.525
 1694SOL    HW2 5087   2.818   2.512   0.415
 1695SOL     OW 5088   1.938   2.673   0.789
 1695SOL    HW1 5089   2.037   2.661   0.798
 1695SOL    HW2 5090   1.914   2.768   0.810
 1696SOL     OW 5091   1.992   3.683   1.571
 1696SOL    HW1 5092   1.982   3.668   1.670
 1696SOL    HW2 5093   1.906   3.719   1.535
 1697SOL     OW 5094   2.727   2.210   0.195
 1697SOL    HW1 5095   2.786   2.273   0.146
 1697SOL    HW2 5096   2.746   2.116   0.166
 1698SOL     OW 5097   3.581   2.447   1.831
 1698SOL    HW1 5098   3.555   2.536   1.795
 1698SOL    HW2 5099   3.579   2.379   1.758
 1699SOL     OW 5100   3.224   3.006   0.545
 1699SOL    HW1 5101   3.307   2.977   0.497
 1699SOL    HW2 5102   3.175   3.073   0.489
 1700SOL     OW 5103   2.412   2.058   0.885
 1700SOL    HW1 5104   2.407   2.053   0.985
 1700SOL    HW2 5105   2.414   2.154   0.856
 1701SOL     OW 5106   2.870   3.318   0.477
 1701SOL    HW1 5107   2.824   3.390   0.425
 1701SOL    HW2 5108   2.866   3.338   0.575
 1702SOL     OW 5109   2.213   3.663   0.853
 1702SOL    HW1 5110   2.263   3.577   0.859
 1702SOL    HW2 5111   2.278   3.740   0.850
 1703SOL     OW 5112   3.657   2.928   0.873
 1703SOL    HW1 5113   3.595   2.913   0.797
 1703SOL    HW2 5114   3.605   2.939   0.958
 1704SOL     OW 5115   3.089   3.412   1.506
 1704SOL    HW1 5116   3.095   3.335   1.570
 1704SOL    HW2 5117   3.037   3.386   1.426
 1705SOL     OW 5118   2.183   2.805   0.242
 1705SOL    HW1 5119   2.265   2.844   0.200
 1705SOL    HW2 5120   2.156   2.723   0.193
 1706SOL     OW 5121   3.320   2.597   0.728
 1706SOL    HW1 5122   3.315   2.532   0.803
 1706SOL    HW2 5123   3.400   2.656   0.741
 1707SOL     OW 5124   2.323   3.128   1.727
 1707SOL    HW1 5125   2.273   3.129   1.641
 1707SOL    HW2 5126   2.260   3.110   1.803
 1708SOL     OW 5127   2.973   3.638   0.237
 1708SOL    HW1 5128   2.913   3.576   0.287
 1708SOL    HW2 5129   3.004   3.594   0.152
 1709SOL     OW 5130   2.064   2.147   1.498
 1709SOL    HW1 5131   1.984   2.207   1.485
 1709SOL    HW2 5132   2.054   2.098   1.584
 1710SOL     OW 5133   3.494   3.239   0.081
 1710SOL    HW1 5134   3.462   3.333   0.071
 1710SOL    HW2 5135   3.418   3.176   0.069
 1711SOL     OW 5136   2.326   3.605   0.323
 1711SOL    HW1 5137   2.359   3.644   0.409
 1711SOL    HW2 5138   2.402   3.598   0.258
 1712SOL     OW 5139   3.262   1.969   0.426
 1712SOL    HW1 5140   3.238   1.932   0.336
 1712SOL    HW2 5141   3.361   1.985   0.430
 1713SOL     OW 5142   2.111   3.647   1.241
 1713SOL    HW1 5143   2.168   3.582   1.291
 1713SOL    HW2 5144   2.095   3.614   1.148
 1714SOL     OW 5145   2.802   3.560   0.904
 1714SOL    HW1 5146   2.882   3.503   0.925
 1714SOL    HW2 5147   2.753   3.520   0.827
 1715SOL     OW 5148   2.244   2.562   0.480
 1715SOL    HW1 5149   2.289   2.472   0.477
 1715SOL    HW2 5150   2.150   2.551   0.513
 1716SOL     OW 5151   3.409   2.084   1.729
 1716SOL    HW1 5152   3.404   2.121   1.821
 1716SOL    HW2 5153   3.337   2.015   1.717
 1717SOL     OW 5154   2.476   1.984   0.117
 1717SOL    HW1 5155   2.574   1.962   0.124
 1717SOL    HW2 5156   2.445   1.967   0.024
 1718SOL     OW 5157   2.643   2.126   1.749
 1718SOL    HW1 5158   2.710   2.065   1.792
 1718SOL    HW2 5159   2.570   2.145   1.814
 1719SOL     OW 5160   2.750   3.376   1.195
 1719SOL    HW1 5161   2.727   3.351   1.101
 1719SOL    HW2 5162   2.811   3.307   1.234
 1720SOL     OW 5163   3.213   2.452   1.433
 1720SOL    HW1 5164   3.241   2.409   1.518
 1720SOL    HW2 5165   3.238   2.548   1.434
 1721SOL     OW 5166   2.665   3.264   0.924
 1721SOL    HW1 5167   2.755   3.278   0.882
 1721SOL    HW2 5168   2.594   3.266   0.853
 1722SOL     OW 5169   2.784   2.365   0.899
 1722SOL    HW1 5170   2.759   2.356   0.803
 1722SOL    HW2 5171   2.832   2.283   0.930
 1723SOL     OW 5172   2.401   1.926   0.512
 1723SOL    HW1 5173   2.320   1.927   0.570
 1723SOL    HW2 5174   2.404   2.009   0.457
 1724SOL     OW 5175   3.296   3.050   0.041
 1724SOL    HW1 5176   3.328   2.974   0.098
 1724SOL    HW2 5177   3.204   3.077   0.071
 1725SOL     OW 5178   2.159   1.897   0.171
 1725SOL    HW1 5179   2.208   1.981   0.150
 1725SOL    HW2 5180   2.221   1.832   0.216
 1726SOL     OW 5181   2.797   2.098   0.480
 1726SOL    HW1 5182   2.749   2.139   0.402
 1726SOL    HW2 5183   2.896   2.096   0.461
 1727SOL     OW 5184   2.938   2.545   1.464
 1727SOL    HW1 5185   2.858   2.484   1.467
 1727SOL    HW2 5186   3.019   2.492   1.440
 1728SOL     OW 5187   3.089   3.432   0.793
 1728SOL    HW1 5188   3.110   3.506   0.728
 1728SOL    HW2 5189   3.157   3.432   0.866
 1729SOL     OW 5190   2.321   3.014   0.741
 1729SOL    HW1 5191   2.250   2.987   0.806
 1729SOL    HW2 5192   2.295   2.986   0.648
 1730SOL     OW 5193   3.133   3.659   0.591
 1730SOL    HW1 5194   3.177   3.723   0.527
 1730SOL    HW2 5195   3.083   3.711   0.661
 1731SOL     OW 5196   2.894   2.411   0.016
 1731SOL    HW1 5197   2.853   2.493  -0.023
 1731SOL    HW2 5198   2.958   2.437   0.089
 1732SOL     OW 5199   1.940   2.418   1.386
 1732SOL    HW1 5200   2.032   2.417   1.345
 1732SOL    HW2 5201   1.934   2.492   1.453
 1733SOL     OW 5202   2.423   2.084   1.147
 1733SOL    HW1 5203   2.461   2.000   1.184
 1733SOL    HW2 5204   2.335   2.103   1.191
 1734SOL     OW 5205   2.728   2.316   0.642
 1734SOL    HW1 5206   2.696   2.388   0.580
 1734SOL    HW2 5207   2.752   2.235   0.589
 1735SOL     OW 5208   2.879   1.901   0.753
 1735SOL    HW1 5209   2.807   1.906   0.684
 1735SOL    HW2 5210   2.855   1.832   0.822
 1736SOL     OW 5211   3.291   3.035   0.867
 1736SOL    HW1 5212   3.236   2.951   0.860
 1736SOL    HW2 5213   3.317   3.064   0.775
 1737SOL     OW 5214   3.328   2.452   0.992
 1737SOL    HW1 5215   3.298   2.357   0.999
 1737SOL    HW2 5216   3.401   2.468   1.058
 1738SOL     OW 5217   3.719   2.695   0.377
 1738SOL    HW1 5218   3.761   2.631   0.441
 1738SOL    HW2 5219   3.681   2.644   0.299
 1739SOL     OW 5220   2.350   3.247   0.174
 1739SOL    HW1 5221   2.263   3.232   0.221
 1739SOL    HW2 5222   2.333   3.273   0.079
 1740SOL     OW 5223   3.526   3.142   0.657
 1740SOL    HW1 5224   3.625   3.150   0.671
 1740SOL    HW2 5225   3.481   3.226   0.688
 1741SOL     OW 5226   3.252   2.437   0.078
 1741SOL    HW1 5227   3.198   2.416   0.159
 1741SOL    HW2 5228   3.343   2.396   0.087
 1742SOL     OW 5229   2.389   2.118   0.328
 1742SOL    HW1 5230   2.416   2.059   0.253
 1742SOL    HW2 5231   2.389   2.213   0.297
 1743SOL     OW 5232   3.616   3.085   1.588
 1743SOL    HW1 5233   3.707   3.046   1.575
 1743SOL    HW2 5234   3.624   3.181   1.612
 1744SOL     OW 5235   2.926   3.209   1.340
 1744SOL    HW1 5236   2.846   3.186   1.395
 1744SOL    HW2 5237   3.009   3.183   1.389
 1745SOL     OW 5238   3.454   3.491   1.625
 1745SOL    HW1 5239   3.481   3.525   1.535
 1745SOL    HW2 5240   3.533   3.453   1.671
 1746SOL     OW 5241   2.973   3.057   1.100
 1746SOL    HW1 5242   2.933   3.101   1.181
 1746SOL    HW2 5243   2.932   3.094   1.017
 1747SOL     OW 5244   3.500   2.961   1.079
 1747SOL    HW1 5245   3.505   3.042   1.138
 1747SOL    HW2 5246   3.414   2.963   1.028
 1748SOL     OW 5247   2.777   1.951   1.402
 1748SOL    HW1 5248   2.802   1.931   1.307
 1748SOL    HW2 5249   2.849   2.007   1.444
 1749SOL     OW 5250   2.842   2.978   1.719
 1749SOL    HW1 5251   2.743   2.984   1.729
 1749SOL    HW2 5252   2.865   2.898   1.663
 1750SOL     OW 5253   2.567   2.912   0.368
 1750SOL    HW1 5254   2.553   2.919   0.467
 1750SOL    HW2 5255   2.651   2.861   0.350
 1751SOL     OW 5256   2.272   2.675   1.251
 1751SOL    HW1 5257   2.358   2.687   1.301
 1751SOL    HW2 5258   2.230   2.588   1.278
 1752SOL     OW 5259   3.136   2.248   1.262
 1752SOL    HW1 5260   3.157   2.322   1.326
 1752SOL    HW2 5261   3.047   2.265   1.219
 1753SOL     OW 5262   1.926   3.426   1.331
 1753SOL    HW1 5263   1.880   3.508   1.297
 1753SOL    HW2 5264   2.024   3.445   1.340
 1754SOL     OW 5265   2.229   2.962   0.501
 1754SOL    HW1 5266   2.222   3.045   0.445
 1754SOL    HW2 5267   2.233   2.882   0.441
 1755SOL     OW 5268   2.428   2.399   0.865
 1755SOL    HW1 5269   2.440   2.465   0.791
 1755SOL    HW2 5270   2.474   2.433   0.948
 1756SOL     OW 5271   3.114   3.210   0.388
 1756SOL    HW1 5272   3.164   3.287   0.428
 1756SOL    HW2 5273   3.019   3.212   0.420
 1757SOL     OW 5274   3.134   3.307   1.142
 1757SOL    HW1 5275   3.181   3.320   1.229
 1757SOL    HW2 5276   3.068   3.233   1.151
 1758SOL     OW 5277   3.444   2.501   0.472
 1758SOL    HW1 5278   3.413   2.562   0.545
 1758SOL    HW2 5279   3.494   2.553   0.403
 1759SOL     OW 5280   2.216   3.372   1.329
 1759SOL    HW1 5281   2.195   3.328   1.242
 1759SOL    HW2 5282   2.313   3.398   1.332
 1760SOL     OW 5283   2.264   2.613   1.598
 1760SOL    HW1 5284   2.332   2.668   1.551
 1760SOL    HW2 5285   2.304   2.525   1.625
 1761SOL     OW 5286   3.449   2.641   1.670
 1761SOL    HW1 5287   3.357   2.679   1.665
 1761SOL    HW2 5288   3.509   2.688   1.605
 1762SOL     OW 5289   2.875   1.967   1.770
 1762SOL    HW1 5290   2.881   2.052   1.718
 1762SOL    HW2 5291   2.907   1.891   1.713
 1763SOL     OW 5292   2.366   1.912   1.740
 1763SOL    HW1 5293   2.324   1.855   1.670
 1763SOL    HW2 5294   2.300   1.981   1.772
 1764SOL     OW 5295   2.435   2.732   1.029
 1764SOL    HW1 5296   2.479   2.821   1.020
 1764SOL    HW2 5297   2.372   2.732   1.106
 1765SOL     OW 5298   3.222   2.724   1.045
 1765SOL    HW1 5299   3.147   2.724   0.979
 1765SOL    HW2 5300   3.259   2.632   1.054
 1766SOL     OW 5301   3.071   2.387   0.275
 1766SOL    HW1 5302   3.084   2.303   0.329
 1766SOL    HW2 5303   3.042   2.461   0.335
 1767SOL     OW 5304   2.169   2.075   1.231
 1767SOL    HW1 5305   2.146   2.112   1.321
 1767SOL    HW2 5306   2.139   1.980   1.225
 1768SOL     OW 5307   1.899   3.172   1.282
 1768SOL    HW1 5308   1.952   3.123   1.350
 1768SOL    HW2 5309   1.921   3.270   1.287
 1769SOL     OW 5310   2.594   2.496   1.064
 1769SOL    HW1 5311   2.653   2.470   0.988
 1769SOL    HW2 5312   2.566   2.592   1.053
 1770SOL     OW 5313   3.590   2.797   1.854
 1770SOL    HW1 5314   3.544   2.790   1.765
 1770SOL    HW2 5315   3.528   2.841   1.920
 1771SOL     OW 5316   2.169   1.925   0.618
 1771SOL    HW1 5317   2.158   2.019   0.651
 1771SOL    HW2 5318   2.164   1.862   0.695
 1772SOL     OW 5319   3.484   2.229   0.374
 1772SOL    HW1 5320   3.486   2.153   0.438
 1772SOL    HW2 5321   3.436   2.306   0.414
 1773SOL     OW 5322   2.885   2.628   0.966
 1773SOL    HW1 5323   2.900   2.649   1.062
 1773SOL    HW2 5324   2.855   2.533   0.957
 1774SOL     OW 5325   2.842   3.435   1.700
 1774SOL    HW1 5326   2.822   3.479   1.612
 1774SOL    HW2 5327   2.881   3.344   1.684
 1775SOL     OW 5328   3.721   3.380   1.605
 1775SOL    HW1 5329   3.735   3.407   1.510
 1775SOL    HW2 5330   3.804   3.402   1.658
 1776SOL     OW 5331   2.212   2.760   1.804
 1776SOL    HW1 5332   2.288   2.804   1.852
 1776SOL    HW2 5333   2.247   2.713   1.722
 1777SOL     OW 5334   3.402   2.136   0.125
 1777SOL    HW1 5335   3.341   2.061   0.148
 1777SOL    HW2 5336   3.424   2.188   0.208
 1778SOL     OW 5337   3.165   2.700   0.042
 1778SOL    HW1 5338   3.199   2.607   0.057
 1778SOL    HW2 5339   3.183   2.727  -0.053
 1779SOL     OW 5340   2.930   3.195   0.849
 1779SOL    HW1 5341   2.937   3.111   0.794
 1779SOL    HW2 5342   2.992   3.264   0.813
 1780SOL     OW 5343   2.181   2.672   0.949
 1780SOL    HW1 5344   2.274   2.708   0.954
 1780SOL    HW2 5345   2.175   2.587   1.001
 1781SOL     OW 5346   2.201   2.371   1.006
 1781SOL    HW1 5347   2.149   2.288   0.989
 1781SOL    HW2 5348   2.278   2.376   0.942
 1782SOL     OW 5349   3.000   2.242   1.678
 1782SOL    HW1 5350   2.955   2.305   1.742
 1782SOL    HW2 5351   3.093   2.273   1.661
 1783SOL     OW 5352   3.022   2.069   1.477
 1783SOL    HW1 5353   3.022   2.133   1.554
 1783SOL    HW2 5354   3.050   2.117   1.394
 1784SOL     OW 5355   1.870   3.188   0.200
 1784SOL    HW1 5356   1.777   3.209   0.169
 1784SOL    HW2 5357   1.880   3.089   0.213
 1785SOL     OW 5358   1.950   3.663   0.927
 1785SOL    HW1 5359   1.908   3.577   0.900
 1785SOL    HW2 5360   2.044   3.666   0.893
 1786SOL     OW 5361   2.366   3.430   0.910
 1786SOL    HW1 5362   2.432   3.504   0.919
 1786SOL    HW2 5363   2.410   3.351   0.868
 1787SOL     OW 5364   2.864   2.658   1.238
 1787SOL    HW1 5365   2.905   2.626   1.324
 1787SOL    HW2 5366   2.768   2.631   1.235
 1788SOL     OW 5367   1.902   2.406   1.114
 1788SOL    HW1 5368   1.987   2.373   1.073
 1788SOL    HW2 5369   1.915   2.421   1.212
 1789SOL     OW 5370   2.051   2.382   1.722
 1789SOL    HW1 5371   2.110   2.342   1.652
 1789SOL    HW2 5372   1.993   2.453   1.681
 1790SOL     OW 5373   3.231   2.812   1.660
 1790SOL    HW1 5374   3.270   2.901   1.680
 1790SOL    HW2 5375   3.241   2.792   1.563
 1791SOL     OW 5376   2.677   2.434   0.325
 1791SOL    HW1 5377   2.684   2.345   0.279
 1791SOL    HW2 5378   2.583   2.468   0.317
 1792SOL     OW 5379   3.519   2.466   1.206
 1792SOL    HW1 5380   3.481   2.397   1.268
 1792SOL    HW2 5381   3.601   2.430   1.162
 1793SOL     OW 5382   2.114   3.426   1.744
 1793SOL    HW1 5383   2.084   3.483   1.820
 1793SOL    HW2 5384   2.107   3.329   1.770
 1794SOL     OW 5385   2.533   2.326   1.269
 1794SOL    HW1 5386   2.499   2.237   1.239
 1794SOL    HW2 5387   2.559   2.380   1.189
 1795SOL     OW 5388   2.792   3.540   1.465
 1795SOL    HW1 5389   2.768   3.522   1.370
 1795SOL    HW2 5390   2.822   3.634   1.475
 1796SOL     OW 5391   2.335   2.362   0.191
 1796SOL    HW1 5392   2.396   2.442   0.195
 1796SOL    HW2 5393   2.240   2.393   0.198
 1797SOL     OW 5394   2.021   2.999   1.466
 1797SOL    HW1 5395   2.043   2.938   1.542
 1797SOL    HW2 5396   2.031   2.950   1.380
 1798SOL     OW 5397   3.209   2.921   1.234
 1798SOL    HW1 5398   3.233   2.858   1.160
 1798SOL    HW2 5399   3.119   2.961   1.216
 1799SOL     OW 5400   3.164   2.717   0.309
 1799SOL    HW1 5401   3.078   2.686   0.351
 1799SOL    HW2 5402   3.160   2.703   0.210
 1800SOL     OW 5403   3.621   3.609   1.154
 1800SOL    HW1 5404   3.682   3.639   1.081
 1800SOL    HW2 5405   3.583   3.520   1.132
 1801SOL     OW 5406   3.114   3.593   1.128
 1801SOL    HW1 5407   3.198   3.598   1.074
 1801SOL    HW2 5408   3.091   3.497   1.146
 1802SOL     OW 5409   1.945   3.120   1.022
 1802SOL    HW1 5410   1.940   3.119   1.122
 1802SOL    HW2 5411   1.862   3.079   0.984
 1803SOL     OW 5412   2.550   3.524   1.716
 1803SOL    HW1 5413   2.494   3.605   1.725
 1803SOL    HW2 5414   2.602   3.528   1.630
 1804SOL     OW 5415   2.765   1.948   0.133
 1804SOL    HW1 5416   2.816   1.949   0.047
 1804SOL    HW2 5417   2.821   1.906   0.204
 1805SOL     OW 5418   3.588   1.997   0.523
 1805SOL    HW1 5419   3.661   1.980   0.456
 1805SOL    HW2 5420   3.557   1.910   0.561
 1806SOL     OW 5421   3.250   3.435   0.477
 1806SOL    HW1 5422   3.317   3.447   0.403
 1806SOL    HW2 5423   3.210   3.524   0.500
 1807SOL     OW 5424   1.992   3.656   1.851
 1807SOL    HW1 5425   1.951   3.582   1.904
 1807SOL    HW2 5426   2.056   3.707   1.909
 1808SOL     OW 5427   3.142   2.789   0.672
 1808SOL    HW1 5428   3.202   2.708   0.674
 1808SOL    HW2 5429   3.182   2.858   0.612
 1809SOL     OW 5430   2.692   3.135   1.422
 1809SOL    HW1 5431   2.687   3.168   1.517
 1809SOL    HW2 5432   2.606   3.154   1.376
 1810SOL     OW 5433   2.534   3.478   0.154
 1810SOL    HW1 5434   2.543   3.488   0.055
 1810SOL    HW2 5435   2.494   3.389   0.175
 1811SOL     OW 5436   3.512   3.582   1.394
 1811SOL    HW1 5437   3.565   3.592   1.310
 1811SOL    HW2 5438   3.485   3.672   1.428
 1812SOL     OW 5439   3.703   2.037   0.963
 1812SOL    HW1 5440   3.742   1.952   0.927
 1812SOL    HW2 5441   3.605   2.039   0.944
 1813SOL     OW 5442   2.125   2.188   0.720
 1813SOL    HW1 5443   2.046   2.239   0.686
 1813SOL    HW2 5444   2.116   2.173   0.818
 1814SOL     OW 5445   3.056   3.474   0.031
 1814SOL    HW1 5446   3.062   3.381   0.068
 1814SOL    HW2 5447   2.997   3.474  -0.049
 1815SOL     OW 5448   2.684   2.864   1.372
 1815SOL    HW1 5449   2.724   2.863   1.280
 1815SOL    HW2 5450   2.694   2.956   1.412
 1816SOL     OW 5451   2.778   2.772   0.291
 1816SOL    HW1 5452   2.841   2.810   0.223
 1816SOL    HW2 5453   2.818   2.689   0.330
 1817SOL     OW 5454   3.366   3.469   0.044
 1817SOL    HW1 5455   3.274   3.506   0.051
 1817SOL    HW2 5456   3.404   3.489  -0.046
 1818SOL     OW 5457   2.234   3.150   1.490
 1818SOL    HW1 5458   2.221   3.243   1.456
 1818SOL    HW2 5459   2.150   3.098   1.477
 1819SOL     OW 5460   3.476   3.154   1.289
 1819SOL    HW1 5461   3.536   3.157   1.369
 1819SOL    HW2 5462   3.401   3.218   1.302
 1820SOL     OW 5463   2.901   2.960   0.696
 1820SOL    HW1 5464   2.831   2.913   0.750
 1820SOL    HW2 5465   2.960   2.892   0.653
 1821SOL     OW 5466   2.876   2.098   0.971
 1821SOL    HW1 5467   2.868   2.062   0.878
 1821SOL    HW2 5468   2.874   2.022   1.036
 1822SOL     OW 5469   2.452   3.349   0.491
 1822SOL    HW1 5470   2.494   3.291   0.421
 1822SOL    HW2 5471   2.408   3.428   0.447
 1823SOL     OW 5472   3.571   2.247   1.381
 1823SOL    HW1 5473   3.644   2.316   1.385
 1823SOL    HW2 5474   3.599   2.172   1.322
 1824SOL     OW 5475   2.117   3.210   0.290
 1824SOL    HW1 5476   2.021   3.211   0.263
 1824SOL    HW2 5477   2.129   3.263   0.374
 1825SOL     OW 5478   1.967   2.875   1.726
 1825SOL    HW1 5479   1.890   2.842   1.780
 1825SOL    HW2 5480   2.052   2.845   1.768
 1826SOL     OW 5481   2.534   2.065   1.489
 1826SOL    HW1 5482   2.624   2.049   1.449
 1826SOL    HW2 5483   2.542   2.070   1.588
 1827SOL     OW 5484   1.937   2.207   0.033
 1827SOL    HW1 5485   1.845   2.179   0.004
 1827SOL    HW2 5486   1.968   2.284  -0.023
 1828SOL     OW 5487   3.302   2.718   1.398
 1828SOL    HW1 5488   3.245   2.770   1.335
 1828SOL    HW2 5489   3.398   2.730   1.374
 1829SOL     OW 5490   1.934   2.028   0.318
 1829SOL    HW1 5491   1.917   2.111   0.264
 1829SOL    HW2 5492   2.024   1.991   0.296
 1830SOL     OW 5493   3.045   3.197   0.119
 1830SOL    HW1 5494   2.946   3.186   0.121
 1830SOL    HW2 5495   3.079   3.212   0.212
 1831SOL     OW 5496   2.475   2.704   1.431
 1831SOL    HW1 5497   2.531   2.785   1.414
 1831SOL    HW2 5498   2.534   2.624   1.434
 1832SOL     OW 5499   3.355   3.629   0.959
 1832SOL    HW1 5500   3.388   3.693   0.890
 1832SOL    HW2 5501   3.421   3.623   1.034
 1833SOL     OW 5502   2.578   2.427   1.708
 1833SOL    HW1 5503   2.597   2.492   1.782
 1833SOL    HW2 5504   2.638   2.347   1.717
 1834SOL     OW 5505   3.312   3.082   1.633
 1834SOL    HW1 5506   3.303   3.072   1.732
 1834SOL    HW2 5507   3.408   3.075   1.607
 1835SOL     OW 5508   2.252   3.603   1.560
 1835SOL    HW1 5509   2.161   3.644   1.558
 1835SOL    HW2 5510   2.245   3.509   1.592
 1836SOL     OW 5511   3.536   2.745   1.254
 1836SOL    HW1 5512   3.509   2.656   1.217
 1836SOL    HW2 5513   3.537   2.813   1.181
 1837SOL     OW 5514   3.087   2.187   0.449
 1837SOL    HW1 5515   3.152   2.113   0.438
 1837SOL    HW2 5516   3.107   2.237   0.533
 1838SOL     OW 5517   2.456   2.607   0.652
 1838SOL    HW1 5518   2.506   2.692   0.633
 1838SOL    HW2 5519   2.368   2.609   0.604
 1839SOL     OW 5520   3.639   2.204   1.642
 1839SOL    HW1 5521   3.622   2.235   1.548
 1839SOL    HW2 5522   3.555   2.167   1.680
 1840SOL     OW 5523   3.592   2.796   1.517
 1840SOL    HW1 5524   3.630   2.887   1.532
 1840SOL    HW2 5525   3.584   2.779   1.418
 1841SOL     OW 5526   2.721   3.236   0.016
 1841SOL    HW1 5527   2.675   3.251   0.104
 1841SOL    HW2 5528   2.765   3.321  -0.014
 1842SOL     OW 5529   2.523   3.652   0.953
 1842SOL    HW1 5530   2.477   3.740   0.940
 1842SOL    HW2 5531   2.622   3.664   0.946
 1843SOL     OW 5532   2.721   2.818   0.861
 1843SOL    HW1 5533   2.775   2.749   0.909
 1843SOL    HW2 5534   2.689   2.887   0.927
 1844SOL     OW 5535   2.945   2.846   0.087
 1844SOL    HW1 5536   2.922   2.899   0.005
 1844SOL    HW2 5537   3.026   2.790   0.068
 1845SOL     OW 5538   3.723   3.431   0.851
 1845SOL    HW1 5539   3.652   3.419   0.781
 1845SOL    HW2 5540   3.724   3.352   0.911
 1846SOL     OW 5541   2.083   3.176   1.844
 1846SOL    HW1 5542   2.018   3.103   1.823
 1846SOL    HW2 5543   2.087   3.190   1.942
 1847SOL     OW 5544   1.941   3.102   0.653
 1847SOL    HW1 5545   1.940   3.055   0.741
 1847SOL    HW2 5546   2.023   3.074   0.602
 1848SOL     OW 5547   2.534   3.253   1.624
 1848SOL    HW1 5548   2.456   3.203   1.662
 1848SOL    HW2 5549   2.531   3.348   1.655
 1849SOL     OW 5550   3.686   2.054   1.227
 1849SOL    HW1 5551   3.682   1.964   1.271
 1849SOL    HW2 5552   3.689   2.043   1.128
 1850SOL     OW 5553   2.290   2.286   0.520
 1850SOL    HW1 5554   2.320   2.214   0.458
 1850SOL    HW2 5555   2.251   2.246   0.603
 1851SOL     OW 5556   3.567   3.349   1.104
 1851SOL    HW1 5557   3.474   3.324   1.077
 1851SOL    HW2 5558   3.593   3.299   1.186
 1852SOL     OW 5559   2.179   2.409   1.280
 1852SOL    HW1 5560   2.217   2.350   1.352
 1852SOL    HW2 5561   2.219   2.383   1.192
 1853SOL     OW 5562   2.674   3.448   0.687
 1853SOL    HW1 5563   2.706   3.458   0.593
 1853SOL    HW2 5564   2.595   3.386   0.689
 1854SOL     OW 5565   3.286   2.076   1.112
 1854SOL    HW1 5566   3.338   2.011   1.167
 1854SOL    HW2 5567   3.237   2.139   1.173
 1855SOL     OW 5568   2.863   1.896   1.154
 1855SOL    HW1 5569   2.800   1.824   1.123
 1855SOL    HW2 5570   2.956   1.860   1.154
 1856SOL     OW 5571   2.632   3.192   0.301
 1856SOL    HW1 5572   2.586   3.105   0.318
 1856SOL    HW2 5573   2.723   3.189   0.342
 1857SOL     OW 5574   2.480   3.429   1.284
 1857SOL    HW1 5575   2.475   3.511   1.341
 1857SOL    HW2 5576   2.569   3.426   1.239
 1858SOL     OW 5577   3.214   1.914   0.168
 1858SOL    HW1 5578   3.249   1.873   0.084
 1858SOL    HW2 5579   3.124   1.876   0.188
 1859SOL     OW 5580   3.162   2.315   0.691
 1859SOL    HW1 5581   3.103   2.395   0.695
 1859SOL    HW2 5582   3.177   2.280   0.784
 1860SOL     OW 5583   3.455   2.083   0.882
 1860SOL    HW1 5584   3.371   2.082   0.936
 1860SOL    HW2 5585   3.457   2.166   0.826
 1861SOL     OW 5586   1.901   2.939   0.300
 1861SOL    HW1 5587   2.000   2.928   0.291
 1861SOL    HW2 5588   1.861   2.853   0.332
 1862SOL     OW 5589   2.737   3.508   0.337
 1862SOL    HW1 5590   2.660   3.473   0.283
 1862SOL    HW2 5591   2.705   3.579   0.399
 1863SOL     OW 5592   2.092   2.490   1.975
 1863SOL    HW1 5593   1.999   2.488   2.012
 1863SOL    HW2 5594   2.093   2.451   1.883
 1864SOL     OW 5595   2.087   2.137   2.858
 1864SOL    HW1 5596   2.122   2.120   2.950
 1864SOL    HW2 5597   1.999   2.092   2.846
 1865SOL     OW 5598   1.881   2.230   2.509
 1865SOL    HW1 5599   1.799   2.273   2.548
 1865SOL    HW2 5600   1.853   2.157   2.446
 1866SOL     OW 5601   2.431   3.137   3.027
 1866SOL    HW1 5602   2.338   3.130   2.990
 1866SOL    HW2 5603   2.442   3.226   3.071
 1867SOL     OW 5604   3.417   3.373   2.565
 1867SOL    HW1 5605   3.360   3.357   2.646
 1867SOL    HW2 5606   3.358   3.383   2.485
 1868SOL     OW 5607   2.997   2.565   2.579
 1868SOL    HW1 5608   3.054   2.643   2.554
 1868SOL    HW2 5609   2.937   2.591   2.655
 1869SOL     OW 5610   3.617   2.469   2.093
 1869SOL    HW1 5611   3.605   2.456   1.994
 1869SOL    HW2 5612   3.587   2.388   2.142
 1870SOL     OW 5613   2.630   3.006   2.885
 1870SOL    HW1 5614   2.552   3.023   2.945
 1870SOL    HW2 5615   2.664   3.093   2.849
 1871SOL     OW 5616   2.712   2.660   3.685
 1871SOL    HW1 5617   2.708   2.736   3.750
 1871SOL    HW2 5618   2.734   2.696   3.594
 1872SOL     OW 5619   2.547   2.874   2.527
 1872SOL    HW1 5620   2.616   2.858   2.597
 1872SOL    HW2 5621   2.474   2.931   2.565
 1873SOL     OW 5622   2.548   3.023   3.665
 1873SOL    HW1 5623   2.608   3.102   3.679
 1873SOL    HW2 5624   2.462   3.054   3.624
 1874SOL     OW 5625   2.197   3.297   2.923
 1874SOL    HW1 5626   2.119   3.266   2.870
 1874SOL    HW2 5627   2.255   3.355   2.866
 1875SOL     OW 5628   3.322   3.367   3.201
 1875SOL    HW1 5629   3.346   3.461   3.227
 1875SOL    HW2 5630   3.306   3.313   3.283
 1876SOL     OW 5631   2.300   2.254   3.361
 1876SOL    HW1 5632   2.382   2.198   3.370
 1876SOL    HW2 5633   2.219   2.196   3.365
 1877SOL     OW 5634   3.465   2.309   2.599
 1877SOL    HW1 5635   3.391   2.355   2.549
 1877SOL    HW2 5636   3.516   2.377   2.652
 1878SOL     OW 5637   2.093   3.575   2.345
 1878SOL    HW1 5638   2.127   3.652   2.399
 1878SOL    HW2 5639   2.137   3.575   2.255
 1879SOL     OW 5640   2.989   3.203   3.552
 1879SOL    HW1 5641   3.036   3.203   3.640
 1879SOL    HW2 5642   2.941   3.116   3.541
 1880SOL     OW 5643   2.092   3.296   2.400
 1880SOL    HW1 5644   2.066   3.392   2.400
 1880SOL    HW2 5645   2.021   3.242   2.445
 1881SOL     OW 5646   2.102   2.953   2.748
 1881SOL    HW1 5647   2.116   2.869   2.800
 1881SOL    HW2 5648   2.047   3.017   2.803
 1882SOL     OW 5649   2.482   3.648   3.301
 1882SOL    HW1 5650   2.390   3.631   3.336
 1882SOL    HW2 5651   2.510   3.740   3.327
 1883SOL     OW 5652   2.468   2.826   1.985
 1883SOL    HW1 5653   2.475   2.910   1.931
 1883SOL    HW2 5654   2.514   2.839   2.073
 1884SOL     OW 5655   3.456   1.976   3.342
 1884SOL    HW1 5656   3.438   2.043   3.270
 1884SOL    HW2 5657   3.453   2.022   3.431
 1885SOL     OW 5658   1.984   2.505   2.425
 1885SOL    HW1 5659   1.939   2.417   2.442
 1885SOL    HW2 5660   1.983   2.559   2.509
 1886SOL     OW 5661   3.704   3.629   2.221
 1886SOL    HW1 5662   3.758   3.600   2.301
 1886SOL    HW2 5663   3.734   3.719   2.192
 1887SOL     OW 5664   1.889   3.458   1.979
 1887SOL    HW1 5665   1.870   3.362   2.000
 1887SOL    HW2 5666   1.856   3.516   2.054
 1888SOL     OW 5667   3.551   2.784   2.474
 1888SOL    HW1 5668   3.646   2.755   2.482
 1888SOL    HW2 5669   3.543   2.849   2.399
 1889SOL     OW 5670   3.503   2.970   2.294
 1889SOL    HW1 5671   3.589   2.972   2.242
 1889SOL    HW2 5672   3.517   3.017   2.382
 1890SOL     OW 5673   1.975   2.599   3.459
 1890SOL    HW1 5674   2.063   2.586   3.504
 1890SOL    HW2 5675   1.962   2.696   3.437
 1891SOL     OW 5676   2.475   3.227   2.588
 1891SOL    HW1 5677   2.426   3.140   2.597
 1891SOL    HW2 5678   2.452   3.270   2.501
 1892SOL     OW 5679   3.155   3.090   3.285
 1892SOL    HW1 5680   3.192   3.017   3.227
 1892SOL    HW2 5681   3.207   3.095   3.370
 1893SOL     OW 5682   2.671   1.866   2.364
 1893SOL    HW1 5683   2.711   1.957   2.355
 1893SOL    HW2 5684   2.571   1.874   2.370
 1894SOL     OW 5685   2.059   2.838   3.126
 1894SOL    HW1 5686   2.148   2.793   3.112
 1894SOL    HW2 5687   1.986   2.773   3.107
 1895SOL     OW 5688   3.387   2.861   2.052
 1895SOL    HW1 5689   3.324   2.785   2.065
 1895SOL    HW2 5690   3.435   2.879   2.138
 1896SOL     OW 5691   3.049   3.654   3.478
 1896SOL    HW1 5692   3.073   3.714   3.402
 1896SOL    HW2 5693   3.056   3.559   3.448
 1897SOL     OW 5694   2.179   2.113   3.663
 1897SOL    HW1 5695   2.250   2.184   3.669
 1897SOL    HW2 5696   2.091   2.152   3.691
 1898SOL     OW 5697   3.328   3.279   2.815
 1898SOL    HW1 5698   3.269   3.285   2.895
 1898SOL    HW2 5699   3.313   3.191   2.769
 1899SOL     OW 5700   3.529   3.576   2.434
 1899SOL    HW1 5701   3.488   3.553   2.346
 1899SOL    HW2 5702   3.511   3.502   2.499
 1900SOL     OW 5703   2.460   2.591   2.132
 1900SOL    HW1 5704   2.484   2.660   2.064
 1900SOL    HW2 5705   2.382   2.624   2.186
 1901SOL     OW 5706   3.143   2.207   2.806
 1901SOL    HW1 5707   3.057   2.157   2.793
 1901SOL    HW2 5708   3.205   2.153   2.862
 1902SOL     OW 5709   3.438   3.524   2.169
 1902SOL    HW1 5710   3.527   3.570   2.172
 1902SOL    HW2 5711   3.417   3.500   2.074
 1903SOL     OW 5712   2.669   2.467   3.327
 1903SOL    HW1 5713   2.622   2.464   3.416
 1903SOL    HW2 5714   2.618   2.412   3.261
 1904SOL     OW 5715   3.256   2.331   3.536
 1904SOL    HW1 5716   3.236   2.374   3.624
 1904SOL    HW2 5717   3.334   2.269   3.545
 1905SOL     OW 5718   2.835   2.752   3.434
 1905SOL    HW1 5719   2.881   2.668   3.405
 1905SOL    HW2 5720   2.779   2.786   3.359
 1906SOL     OW 5721   2.853   2.272   3.104
 1906SOL    HW1 5722   2.776   2.306   3.158
 1906SOL    HW2 5723   2.819   2.221   3.025
 1907SOL     OW 5724   2.903   2.563   2.291
 1907SOL    HW1 5725   2.929   2.559   2.387
 1907SOL    HW2 5726   2.818   2.512   2.277
 1908SOL     OW 5727   1.938   2.673   2.651
 1908SOL    HW1 5728   2.037   2.661   2.660
 1908SOL    HW2 5729   1.914   2.768   2.672
 1909SOL     OW 5730   1.992   3.683   3.433
 1909SOL    HW1 5731   1.982   3.668   3.532
 1909SOL    HW2 5732   1.906   3.719   3.397
 1910SOL     OW 5733   2.727   2.210   2.057
 1910SOL    HW1 5734   2.786   2.273   2.008
 1910SOL    HW2 5735   2.746   2.116   2.028
 1911SOL     OW 5736   3.581   2.447   3.693
 1911SOL    HW1 5737   3.555   2.536   3.657
 1911SOL    HW2 5738   3.579   2.379   3.620
 1912SOL     OW 5739   3.224   3.006   2.407
 1912SOL    HW1 5740   3.307   2.977   2.359
 1912SOL    HW2 5741   3.175   3.073   2.351
 1913SOL     OW 5742   2.412   2.058   2.747
 1913SOL    HW1 5743   2.407   2.053   2.847
 1913SOL    HW2 5744   2.414   2.154   2.718
 1914SOL     OW 5745   2.870   3.318   2.339
 1914SOL    HW1 5746   2.824   3.390   2.287
 1914SOL    HW2 5747   2.866   3.338   2.437
 1915SOL     OW 5748   2.213   3.663   2.715
 1915SOL    HW1 5749   2.263   3.577   2.721
 1915SOL    HW2 5750   2.278   3.740   2.712
 1916SOL     OW 5751   3.657   2.928   2.735
 1916SOL    HW1 5752   3.595   2.913   2.659
 1916SOL    HW2 5753   3.605   2.939   2.820
 1917SOL     OW 5754   3.089   3.412   3.368
 1917SOL    HW1 5755   3.095   3.335   3.432
 1917SOL    HW2 5756   3.037   3.386   3.288
 1918SOL     OW 5757   2.183   2.805   2.104
 1918SOL    HW1 5758   2.265   2.844   2.062
 1918SOL    HW2 5759   2.156   2.723   2.055
 1919SOL     OW 5760   3.320   2.597   2.590
 1919SOL    HW1 5761   3.315   2.532   2.665
 1919SOL    HW2 5762   3.400   2.656   2.603
 1920SOL     OW 5763   2.323   3.128   3.589
 1920SOL    HW1 5764   2.273   3.129   3.503
 1920SOL    HW2 5765   2.260   3.110   3.665
 1921SOL     OW 5766   2.973   3.638   2.099
 1921SOL    HW1 5767   2.913   3.576   2.149
 1921SOL    HW2 5768   3.004   3.594   2.014
 1922SOL     OW 5769   2.064   2.147   3.360
 1922SOL    HW1 5770   1.984   2.207   3.347
 1922SOL    HW2 5771   2.054   2.098   3.446
 1923SOL     OW 5772   3.494   3.239   1.943
 1923SOL    HW1 5773   3.462   3.333   1.933
 1923SOL    HW2 5774   3.418   3.176   1.931
 1924SOL     OW 5775   2.326   3.605   2.185
 1924SOL    HW1 5776   2.359   3.644   2.271
 1924SOL    HW2 5777   2.402   3.598   2.120
 1925SOL     OW 5778   3.262   1.969   2.288
 1925SOL    HW1 5779   3.238   1.932   2.198
 1925SOL    HW2 5780   3.361   1.985   2.292
 1926SOL     OW 5781   2.111   3.647   3.103
 1926SOL    HW1 5782   2.168   3.582   3.153
 1926SOL    HW2 5783   2.095   3.614   3.010
 1927SOL     OW 5784   2.802   3.560   2.766
 1927SOL    HW1 5785   2.882   3.503   2.787
 1927SOL    HW2 5786   2.753   3.520   2.689
 1928SOL     OW 5787   2.244   2.562   2.342
 1928SOL    HW1 5788   2.289   2.472   2.339
 1928SOL    HW2 5789   2.150   2.551   2.375
 1929SOL     OW 5790   3.409   2.084   3.591
 1929SOL    HW1 5791   3.404   2.121   3.683
 1929SOL    HW2 5792   3.337   2.015   3.579
 1930SOL     OW 5793   2.476   1.984   1.979
 1930SOL    HW1 5794   2.574   1.962   1.986
 1930SOL    HW2 5795   2.445   1.967   1.886
 1931SOL     OW 5796   2.643   2.126   3.611
 1931SOL    HW1 5797   2.710   2.065   3.654
 1931SOL    HW2 5798   2.570   2.145   3.676
 1932SOL     OW 5799   2.750   3.376   3.057
 1932SOL    HW1 5800   2.727   3.351   2.963
 1932SOL    HW2 5801   2.811   3.307   3.096
 1933SOL     OW 5802   3.213   2.452   3.295
 1933SOL    HW1 5803   3.241   2.409   3.380
 1933SOL    HW2 5804   3.238   2.548   3.296
 1934SOL     OW 5805   2.665   3.264   2.786
 1934SOL    HW1 5806   2.755   3.278   2.744
 1934SOL    HW2 5807   2.594   3.266   2.715
 1935SOL     OW 5808   2.784   2.365   2.761
 1935SOL    HW1 5809   2.759   2.356   2.665
 1935SOL    HW2 5810   2.832   2.283   2.792
 1936SOL     OW 5811   2.401   1.926   2.374
 1936SOL    HW1 5812   2.320   1.927   2.432
 1936SOL    HW2 5813   2.404   2.009   2.319
 1937SOL     OW 5814   3.296   3.050   1.903
 1937SOL    HW1 5815   3.328   2.974   1.960
 1937SOL    HW2 5816   3.204   3.077   1.933
 1938SOL     OW 5817   2.159   1.897   2.033
 1938SOL    HW1 5818   2.208   1.981   2.012
 1938SOL    HW2 5819   2.221   1.832   2.078
 1939SOL     OW 5820   2.797   2.098   2.342
 1939SOL    HW1 5821   2.749   2.139   2.264
 1939SOL    HW2 5822   2.896   2.096   2.323
 1940SOL     OW 5823   2.938   2.545   3.326
 1940SOL    HW1 5824   2.858   2.484   3.329
 1940SOL    HW2 5825   3.019   2.492   3.302
 1941SOL     OW 5826   3.089   3.432   2.655
 1941SOL    HW1 5827   3.110   3.506   2.590
 1941SOL    HW2 5828   3.157   3.432   2.728
 1942SOL     OW 5829   2.321   3.014   2.603
 1942SOL    HW1 5830   2.250   2.987   2.668
 1942SOL    HW2 5831   2.295   2.986   2.510
 1943SOL     OW 5832   3.133   3.659   2.453
 1943SOL    HW1 5833   3.177   3.723   2.389
 1943SOL    HW2 5834   3.083   3.711   2.523
 1944SOL     OW 5835   2.894   2.411   1.878
 1944SOL    HW1 5836   2.853   2.493   1.839
 1944SOL    HW2 5837   2.958   2.437   1.951
 1945SOL     OW 5838   1.940   2.418   3.248
 1945SOL    HW1 5839   2.032   2.417   3.207
 1945SOL    HW2 5840   1.934   2.492   3.315
 1946SOL     OW 5841   2.423   2.084   3.009
 1946SOL    HW1 5842   2.461   2.000   3.046
 1946SOL    HW2 5843   2.335   2.103   3.053
 1947SOL     OW 5844   2.728   2.316   2.504
 1947SOL    HW1 5845   2.696   2.388   2.442
 1947SOL    HW2 5846   2.752   2.235   2.451
 1948SOL     OW 5847   2.879   1.901   2.615
 1948SOL    HW1 5848   2.807   1.906   2.546
 1948SOL    HW2 5849   2.855   1.832   2.684
 1949SOL     OW 5850   3.291   3.035   2.729
 1949SOL    HW1 5851   3.236   2.951   2.722
 1949SOL    HW2 5852   3.317   3.064   2.637
 1950SOL     OW 5853   3.328   2.452   2.854
 1950SOL    HW1 5854   3.298   2.357   2.861
 1950SOL    HW2 5855   3.401   2.468   2.920
 1951SOL     OW 5856   3.719   2.695   2.239
 1951SOL    HW1 5857   3.761   2.631   2.303
 1951SOL    HW2 5858   3.681   2.644   2.161
 1952SOL     OW 5859   2.350   3.247   2.036
 1952SOL    HW1 5860   2.263   3.232   2.083
 1952SOL    HW2 5861   2.333   3.273   1.941
 1953SOL     OW 5862   3.526   3.142   2.519
 1953SOL    HW1 5863   3.625   3.150   2.533
 1953SOL    HW2 5864   3.481   3.226   2.550
 1954SOL     OW 5865   3.252   2.437   1.940
 1954SOL    HW1 5866   3.198   2.416   2.021
 1954SOL    HW2 5867   3.343   2.396   1.949
 1955SOL     OW 5868   3.616   3.085   3.450
 1955SOL    HW1 5869   3.707   3.046   3.437
 1955SOL    HW2 5870   3.624   3.181   3.474
 1956SOL     OW 5871   2.926   3.209   3.202
 1956SOL    HW1 5872   2.846   3.186   3.257
 1956SOL    HW2 5873   3.009   3.183   3.251
 1957SOL     OW 5874   3.454   3.491   3.487
 1957SOL    HW1 5875   3.481   3.525   3.397
 1957SOL    HW2 5876   3.533   3.453   3.533
 1958SOL     OW 5877   2.973   3.057   2.962
 1958SOL    HW1 5878   2.933   3.101   3.043
 1958SOL    HW2 5879   2.932   3.094   2.879
 1959SOL     OW 5880   3.500   2.961   2.941
 1959SOL    HW1 5881   3.505   3.042   3.000
 1959SOL    HW2 5882   3.414   2.963   2.890
 1960SOL     OW 5883   2.777   1.951   3.264
 1960SOL    HW1 5884   2.802   1.931   3.169
 1960SOL    HW2 5885   2.849   2.007   3.306
 1961SOL     OW 5886   2.842   2.978   3.581
 1961SOL    HW1 5887   2.743   2.984   3.591
 1961SOL    HW2 5888   2.865   2.898   3.525
 1962SOL     OW 5889   2.567   2.912   2.230
 1962SOL    HW1 5890   2.553   2.919   2.329
 1962SOL    HW2 5891   2.651   2.861   2.212
 1963SOL     OW 5892   2.272   2.675   3.113
 1963SOL    HW1 5893   2.358   2.687   3.163
 1963SOL    HW2 5894   2.230   2.588   3.140
 1964SOL     OW 5895   3.136   2.248   3.124
 1964SOL    HW1 5896   3.157   2.322   3.188
 1964SOL    HW2 5897   3.047   2.265   3.081
 1965SOL     OW 5898   1.926   3.426   3.193
 1965SOL    HW1 5899   1.880   3.508   3.159
 1965SOL    HW2 5900   2.024   3.445   3.202
 1966SOL     OW 5901   2.229   2.962   2.363
 1966SOL    HW1 5902   2.222   3.045   2.307
 1966SOL    HW2 5903   2.233   2.882   2.303
 1967SOL     OW 5904   2.428   2.399   2.727
 1967SOL    HW1 5905   2.440   2.465   2.653
 1967SOL    HW2 5906   2.474   2.433   2.810
 1968SOL     OW 5907   3.114   3.210   2.250
 1968SOL    HW1 5908   3.164   3.287   2.290
 1968SOL    HW2 5909   3.019   3.212   2.282
 1969SOL     OW 5910   3.134   3.307   3.004
 1969SOL    HW1 5911   3.181   3.320   3.091
 1969SOL    HW2 5912   3.068   3.233   3.013
 1970SOL     OW 5913   3.444   2.501   2.334
 1970SOL    HW1 5914   3.413   2.562   2.407
 1970SOL    HW2 5915   3.494   2.553   2.265
 1971SOL     OW 5916   2.216   3.372   3.191
 1971SOL    HW1 5917   2.195   3.328   3.104
 1971SOL    HW2 5918   2.313   3.398   3.194
 1972SOL     OW 5919   2.264   2.613   3.460
 1972SOL    HW1 5920   2.332   2.668   3.413
 1972SOL    HW2 5921   2.304   2.525   3.487
 1973SOL     OW 5922   3.449   2.641   3.532
 1973SOL    HW1 5923   3.357   2.679   3.527
 1973SOL    HW2 5924   3.509   2.688   3.467
 1974SOL     OW 5925   2.875   1.967   3.632
 1974SOL    HW1 5926   2.881   2.052   3.580
 1974SOL    HW2 5927   2.907   1.891   3.575
 1975SOL     OW 5928   2.366   1.912   3.602
 1975SOL    HW1 5929   2.324   1.855   3.532
 1975SOL    HW2 5930   2.300   1.981   3.634
 1976SOL     OW 5931   2.435   2.732   2.891
 1976SOL    HW1 5932   2.479   2.821   2.882
 1976SOL    HW2 5933   2.372   2.732   2.968
 1977SOL     OW 5934   3.222   2.724   2.907
 1977SOL    HW1 5935   3.147   2.724   2.841
 1977SOL    HW2 5936   3.259   2.632   2.916
 1978SOL     OW 5937   3.071   2.387   2.137
 1978SOL    HW1 5938   3.084   2.303   2.191
 1978SOL    HW2 5939   3.042   2.461   2.197
 1979SOL     OW 5940   2.169   2.075   3.093
 1979SOL    HW1 5941   2.146   2.112   3.183
 1979SOL    HW2 5942   2.139   1.980   3.087
 1980SOL     OW 5943   1.899   3.172   3.144
 1980SOL    HW1 5944   1.952   3.123   3.212
 1980SOL    HW2 5945   1.921   3.270   3.149
 1981SOL     OW 5946   2.594   2.496   2.926
 1981SOL    HW1 5947   2.653   2.470   2.850
 1981SOL    HW2 5948   2.566   2.592   2.915
 1982SOL     OW 5949   3.590   2.797   3.716
 1982SOL    HW1 5950   3.544   2.790   3.627
 1982SOL    HW2 5951   3.528   2.841   3.782
 1983SOL     OW 5952   2.169   1.925   2.480
 1983SOL    HW1 5953   2.158   2.019   2.513
 1983SOL    HW2 5954   2.164   1.862   2.557
 1984SOL     OW 5955   3.484   2.229   2.236
 1984SOL    HW1 5956   3.486   2.153   2.300
 1984SOL    HW2 5957   3.436   2.306   2.276
 1985SOL     OW 5958   2.885   2.628   2.828
 1985SOL    HW1 5959   2.900   2.649   2.924
 1985SOL    HW2 5960   2.855   2.533   2.819
 1986SOL     OW 5961   2.842   3.435   3.562
 1986SOL    HW1 5962   2.822   3.479   3.474
 1986SOL    HW2 5963   2.881   3.344   3.546
 1987SOL     OW 5964   3.721   3.380   3.467
 1987SOL    HW1 5965   3.735   3.407   3.372
 1987SOL    HW2 5966   3.804   3.402   3.520
 1988SOL     OW 5967   2.212   2.760   3.666
 1988SOL    HW1 5968   2.288   2.804   3.714
 1988SOL    HW2 5969   2.247   2.713   3.584
 1989SOL     OW 5970   3.402   2.136   1.987
 1989SOL    HW1 5971   3.341   2.061   2.010
 1989SOL    HW2 5972   3.424   2.188   2.070
 1990SOL     OW 5973   3.165   2.700   1.904
 1990SOL    HW1 5974   3.199   2.607   1.919
 1990SOL    HW2 5975   3.183   2.727   1.809
 1991SOL     OW 5976   2.930   3.195   2.711
 1991SOL    HW1 5977   2.937   3.111   2.656
 1991SOL    HW2 5978   2.992   3.264   2.675
 1992SOL     OW 5979   2.181   2.672   2.811
 1992SOL    HW1 5980   2.274   2.708   2.816
 1992SOL    HW2 5981   2.175   2.587   2.863
 1993SOL     OW 5982   2.201   2.371   2.868
 1993SOL    HW1 5983   2.149   2.288   2.851
 1993SOL    HW2 5984   2.278   2.376   2.804
 1994SOL     OW 5985   3.000   2.242   3.540
 1994SOL    HW1 5986   2.955   2.305   3.604
 1994SOL    HW2 5987   3.093   2.273   3.523
 1995SOL     OW 5988   3.022   2.069   3.339
 1995SOL    HW1 5989   3.022   2.133   3.416
 1995SOL    HW2 5990   3.050   2.117   3.256
 1996SOL     OW 5991   1.870   3.188   2.062
 1996SOL    HW1 5992   1.777   3.209   2.031
 1996SOL    HW2 5993   1.880   3.089   2.075
 1997SOL     OW 5994   1.950   3.663   2.789
 1997SOL    HW1 5995   1.908   3.577   2.762
 1997SOL    HW2 5996   2.044   3.666   2.755
 1998SOL     OW 5997   2.366   3.430   2.772
 1998SOL    HW1 5998   2.432   3.504   2.781
 1998SOL    HW2 5999   2.410   3.351   2.730
 1999SOL     OW 6000   2.864   2.658   3.100
 1999SOL    HW1 6001   2.905   2.626   3.186
 1999SOL    HW2 6002   2.768   2.631   3.097
 2000SOL     OW 6003   1.902   2.406   2.976
 2000SOL    HW1 6004   1.987   2.373   2.935
 2000SOL    HW2 6005   1.915   2.421   3.074
 2001SOL     OW 6006   2.051   2.382   3.584
 2001SOL    HW1 6007   2.110   2.342   3.514
 2001SOL    HW2 6008   1.993   2.453   3.543
 2002SOL     OW 6009   3.231   2.812   3.522
 2002SOL    HW1 6010   3.270   2.901   3.542
 2002SOL    HW2 6011   3.241   2.792   3.425
 2003SOL     OW 6012   2.677   2.434   2.187
 2003SOL    HW1 6013   2.684   2.345   2.141
 2003SOL    HW2 6014   2.583   2.468   2.179
 2004SOL     OW 6015   3.519   2.466   3.068
 2004SOL    HW1 6016   3.481   2.397   3.130
 2004SOL    HW2 6017   3.601   2.430   3.024
 2005SOL     OW 6018   2.114   3.426   3.606
 2005SOL    HW1 6019   2.084   3.483   3.682
 2005SOL    HW2 6020   2.107   3.329   3.632
 2006SOL     OW 6021   2.533   2.326   3.131
 2006SOL    HW1 6022   2.499   2.237   3.101
 2006SOL    HW2 6023   2.559   2.380   3.051
 2007SOL     OW 6024   2.792   3.540   3.327
 2007SOL    HW1 6025   2.768   3.522   3.232
 2007SOL    HW2 6026   2.822   3.634   3.337
 2008SOL     OW 6027   2.335   2.362   2.053
 2008SOL    HW1 6028   2.396   2.442   2.057
 2008SOL    HW2 6029   2.240   2.393   2.060
 2009SOL     OW 6030   2.021   2.999   3.328
 2009SOL    HW1 6031   2.043   2.938   3.404
 2009SOL    HW2 6032   2.031   2.950   3.242
 2010SOL     OW 6033   3.209   2.921   3.096
 2010SOL    HW1 6034   3.233   2.858   3.022
 2010SOL    HW2 6035   3.119   2.961   3.078
 2011SOL     OW 6036   3.164   2.717   2.171
 2011SOL    HW1 6037   3.078   2.686   2.213
 2011SOL    HW2 6038   3.160   2.703   2.072
 2012SOL     OW 6039   3.621   3.609   3.016
 2012SOL    HW1 6040   3.682   3.639   2.943
 2012SOL    HW2 6041   3.583   3.520   2.994
 2013SOL     OW 6042   3.114   3.593   2.990
 2013SOL    HW1 6043   3.198   3.598   2.936
 2013SOL    HW2 6044   3.091   3.497   3.008
 2014SOL     OW 6045   1.945   3.120   2.884
 2014SOL    HW1 6046   1.940   3.119   2.984
 2014SOL    HW2 6047   1.862   3.079   2.846
 2015SOL     OW 6048   2.550   3.524   3.578
 2015SOL    HW1 6049   2.494   3.605   3.587
 2015SOL    HW2 6050   2.602   3.528   3.492
 2016SOL     OW 6051   3.588   1.997   2.385
 2016SOL    HW1 6052   3.661   1.980   2.318
 2016SOL    HW2 6053   3.557   1.910   2.423
 2017SOL     OW 6054   3.250   3.435   2.339
 2017SOL    HW1 6055   3.317   3.447   2.265
 2017SOL    HW2 6056   3.210   3.524   2.362
 2018SOL     OW 6057   1.992   3.656   3.713
 2018SOL    HW1 6058   1.951   3.582   3.766
 2018SOL    HW2 6059   2.056   3.707   3.771
 2019SOL     OW 6060   3.142   2.789   2.534
 2019SOL    HW1 6061   3.202   2.708   2.536
 2019SOL    HW2 6062   3.182   2.858   2.474
 2020SOL     OW 6063   2.692   3.135   3.284
 2020SOL    HW1 6064   2.687   3.168   3.379
 2020SOL    HW2 6065   2.606   3.154   3.238
 2021SOL     OW 6066   2.534   3.478   2.016
 2021SOL    HW1 6067   2.543   3.488   1.917
 2021SOL    HW2 6068   2.494   3.389   2.037
 2022SOL     OW 6069   3.512   3.582   3.256
 2022SOL    HW1 6070   3.565   3.592   3.172
 2022SOL    HW2 6071   3.485   3.672   3.290
 2023SOL     OW 6072   3.703   2.037   2.825
 2023SOL    HW1 6073   3.742   1.952   2.789
 2023SOL    HW2 6074   3.605   2.039   2.806
 2024SOL     OW 6075   2.125   2.188   2.582
 2024SOL    HW1 6076   2.046   2.239   2.548
 2024SOL    HW2 6077   2.116   2.173   2.680
 2025SOL     OW 6078   3.056   3.474   1.893
 2025SOL    HW1 6079   3.062   3.381   1.930
 2025SOL    HW2 6080   2.997   3.474   1.813
 2026SOL     OW 6081   2.684   2.864   3.234
 2026SOL    HW1 6082   2.724   2.863   3.142
 2026SOL    HW2 6083   2.694   2.956   3.274
 2027SOL     OW 6084   2.778   2.772   2.153
 2027SOL    HW1 6085   2.841   2.810   2.085
 2027SOL    HW2 6086   2.818   2.689   2.192
 2028SOL     OW 6087   3.366   3.469   1.906
 2028SOL    HW1 6088   3.274   3.506   1.913
 2028SOL    HW2 6089   3.404   3.489   1.816
 2029SOL     OW 6090   2.234   3.150   3.352
 2029SOL    HW1 6091   2.221   3.243   3.318
 2029SOL    HW2 6092   2.150   3.098   3.339
 2030SOL     OW 6093   3.476   3.154   3.151
 2030SOL    HW1 6094   3.536   3.157   3.231
 2030SOL    HW2 6095   3.401   3.218   3.164
 2031SOL     OW 6096   2.901   2.960   2.558
 2031SOL    HW1 6097   2.831   2.913   2.612
 2031SOL    HW2 6098   2.960   2.892   2.515
 2032SOL     OW 6099   2.876   2.098   2.833
 2032SOL    HW1 6100   2.868   2.062   2.740
 2032SOL    HW2 6101   2.874   2.022   2.898
 2033SOL     OW 6102   2.452   3.349   2.353
 2033SOL    HW1 6103   2.494   3.291   2.283
 2033SOL    HW2 6104   2.408   3.428   2.309
 2034SOL     OW 6105   3.571   2.247   3.243
 2034SOL    HW1 6106   3.644   2.316   3.247
 2034SOL    HW2 6107   3.599   2.172   3.184
 2035SOL     OW 6108   2.117   3.210   2.152
 2035SOL    HW1 6109   2.021   3.211   2.125
 2035SOL    HW2 6110   2.129   3.263   2.236
 2036SOL     OW 6111   1.967   2.875   3.588
 2036SOL    HW1 6112   1.890   2.842   3.642
 2036SOL    HW2 6113   2.052   2.845   3.630
 2037SOL     OW 6114   2.534   2.065   3.351
 2037SOL    HW1 6115   2.624   2.049   3.311
 2037SOL    HW2 6116   2.542   2.070   3.450
 2038SOL     OW 6117   1.937   2.207   1.895
 2038SOL    HW1 6118   1.845   2.179   1.866
 2038SOL    HW2 6119   1.968   2.284   1.839
 2039SOL     OW 6120   3.302   2.718   3.260
 2039SOL    HW1 6121   3.245   2.770   3.197
 2039SOL    HW2 6122   3.398   2.730   3.236
 2040SOL     OW 6123   1.934   2.028   2.180
 2040SOL    HW1 6124   1.917   2.111   2.126
 2040SOL    HW2 6125   2.024   1.991   2.158
 2041SOL     OW 6126   3.045   3.197   1.981
 2041SOL    HW1 6127   2.946   3.186   1.983
 2041SOL    HW2 6128   3.079   3.212   2.074
 2042SOL     OW 6129   2.475   2.704   3.293
 2042SOL    HW1 6130   2.531   2.785   3.276
 2042SOL    HW2 6131   2.534   2.624   3.296
 2043SOL     OW 6132   3.355   3.629   2.821
 2043SOL    HW1 6133   3.388   3.693   2.752
 2043SOL    HW2 6134   3.421   3.623   2.896
 2044SOL     OW 6135   2.578   2.427   3.570
 2044SOL    HW1 6136   2.597   2.492   3.644
 2044SOL    HW2 6137   2.638   2.347   3.579
 2045SOL     OW 6138   3.312   3.082   3.495
 2045SOL    HW1 6139   3.303   3.072   3.594
 2045SOL    HW2 6140   3.408   3.075   3.469
 2046SOL     OW 6141   2.252   3.603   3.422
 2046SOL    HW1 6142   2.161   3.644   3.420
 2046SOL    HW2 6143   2.245   3.509   3.454
 2047SOL     OW 6144   3.536   2.745   3.116
 2047SOL    HW1 6145   3.509   2.656   3.079
 2047SOL    HW2 6146   3.537   2.813   3.043
 2048SOL     OW 6147   3.087   2.187   2.311
 2048SOL    HW1 6148   3.152   2.113   2.300
 2048SOL    HW2 6149   3.107   2.237   2.395
 2049SOL     OW 6150   2.456   2.607   2.514
 2049SOL    HW1 6151   2.506   2.692   2.495
 2049SOL    HW2 6152   2.368   2.609   2.466
 2050SOL     OW 6153   3.639   2.204   3.504
 2050SOL    HW1 6154   3.622   2.235   3.410
 2050SOL    HW2 6155   3.555   2.167   3.542
 2051SOL     OW 6156   3.592   2.796   3.379
 2051SOL    HW1 6157   3.630   2.887   3.394
 2051SOL    HW2 6158   3.584   2.779   3.280
 2052SOL     OW 6159   2.721   3.236   1.878
 2052SOL    HW1 6160   2.675   3.251   1.966
 2052SOL    HW2 6161   2.765   3.321   1.848
 2053SOL     OW 6162   2.523   3.652   2.815
 2053SOL    HW1 6163   2.477   3.740   2.802
 2053SOL    HW2 6164   2.622   3.664   2.808
 2054SOL     OW 6165   2.721   2.818   2.723
 2054SOL    HW1 6166   2.775   2.749   2.771
 2054SOL    HW2 6167   2.689   2.887   2.789
 2055SOL     OW 6168   2.945   2.846   1.949
 2055SOL    HW1 6169   2.922   2.899   1.867
 2055SOL    HW2 6170   3.026   2.790   1.930
 2056SOL     OW 6171   3.723   3.431   2.713
 2056SOL    HW1 6172   3.652   3.419   2.643
 2056SOL    HW2 6173   3.724   3.352   2.773
 2057SOL     OW 6174   2.083   3.176   3.706
 2057SOL    HW1 6175   2.018   3.103   3.685
 2057SOL    HW2 6176   2.087   3.190   3.804
 2058SOL     OW 6177   1.941   3.102   2.515
 2058SOL    HW1 6178   1.940   3.055   2.603
 2058SOL    HW2 6179   2.023   3.074   2.464
 2059SOL     OW 6180   2.534   3.253   3.486
 2059SOL    HW1 6181   2.456   3.203   3.524
 2059SOL    HW2 6182   2.531   3.348   3.517
 2060SOL     OW 6183   3.686   2.054   3.089
 2060SOL    HW1 6184   3.682   1.964   3.133
 2060SOL    HW2 6185   3.689   2.043   2.990
 2061SOL     OW 6186   3.567   3.349   2.966
 2061SOL    HW1 6187   3.474   3.324   2.939
 2061SOL    HW2 6188   3.593   3.299   3.048
 2062SOL     OW 6189   2.179   2.409   3.142
 2062SOL    HW1 6190   2.217   2.350   3.214
 2062SOL    HW2 6191   2.219   2.383   3.054
 2063SOL     OW 6192   2.674   3.448   2.549
 2063SOL    HW1 6193   2.706   3.458   2.455
 2063SOL    HW2 6194   2.595   3.386   2.551
 2064SOL     OW 6195   3.286   2.076   2.974
 2064SOL    HW1 6196   3.338   2.011   3.029
 2064SOL    HW2 6197   3.237   2.139   3.035
 2065SOL     OW 6198   2.863   1.896   3.016
 2065SOL    HW1 6199   2.800   1.824   2.985
 2065SOL    HW2 6200   2.956   1.860   3.016
 2066SOL     OW 6201   2.632   3.192   2.163
 2066SOL    HW1 6202   2.586   3.105   2.180
 2066SOL    HW2 6203   2.723   3.189   2.204
 2067SOL     OW 6204   2.480   3.429   3.146
 2067SOL    HW1 6205   2.475   3.511   3.203
 2067SOL    HW2 6206   2.569   3.426   3.101
 2068SOL     OW 6207   3.214   1.914   2.030
 2068SOL    HW1 6208   3.249   1.873   1.946
 2068SOL    HW2 6209   3.124   1.876   2.050
 2069SOL     OW 6210   3.162   2.315   2.553
 2069SOL    HW1 6211   3.103   2.395   2.557
 2069SOL    HW2 6212   3.177   2.280   2.646
 2070SOL     OW 6213   3.455   2.083   2.744
 2070SOL    HW1 6214   3.371   2.082   2.798
 2070SOL    HW2 6215   3.457   2.166   2.688
 2071SOL     OW 6216   1.901   2.939   2.162
 2071SOL    HW1 6217   2.000   2.928   2.153
 2071SOL    HW2 6218   1.861   2.853   2.194
 2072SOL     OW 6219   2.737   3.508   2.199
 2072SOL    HW1 6220   2.660   3.473   2.145
 2072SOL    HW2 6221   2.705   3.579   2.261
 2073SOL     OW 6222   2.092   2.490   3.837
 2073SOL    HW1 6223   1.999   2.488   3.874
 2073SOL    HW2 6224   2.093   2.451   3.745
 2074SOL     OW 6225   3.617   2.469   3.955
 2074SOL    HW1 6226   3.605   2.456   3.856
 2074SOL    HW2 6227   3.587   2.388   4.004
 2075SOL     OW 6228   2.093   3.575   4.207
 2075SOL    HW1 6229   2.127   3.652   4.261
 2075SOL    HW2 6230   2.137   3.575   4.117
 2076SOL     OW 6231   2.092   3.296   4.262
 2076SOL    HW1 6232   2.066   3.392   4.262
 2076SOL    HW2 6233   2.021   3.242   4.307
 2077SOL     OW 6234   2.468   2.826   3.847
 2077SOL    HW1 6235   2.475   2.910   3.793
 2077SOL    HW2 6236   2.514   2.839   3.935
 2078SOL     OW 6237   1.984   2.505   4.287
 2078SOL    HW1 6238   1.939   2.417   4.304
 2078SOL    HW2 6239   1.983   2.559   4.371
 2079SOL     OW 6240   3.704   3.629   4.083
 2079SOL    HW1 6241   3.758   3.600   4.163
 2079SOL    HW2 6242   3.734   3.719   4.054
 2080SOL     OW 6243   1.889   3.458   3.841
 2080SOL    HW1 6244   1.870   3.362   3.862
 2080SOL    HW2 6245   1.856   3.516   3.916
 2081SOL     OW 6246   3.551   2.784   4.336
 2081SOL    HW1 6247   3.646   2.755   4.344
 2081SOL    HW2 6248   3.543   2.849   4.261
 2082SOL     OW 6249   3.503   2.970   4.156
 2082SOL    HW1 6250   3.589   2.972   4.104
 2082SOL    HW2 6251   3.517   3.017   4.244
 2083SOL     OW 6252   2.671   1.866   4.226
 2083SOL    HW1 6253   2.711   1.957   4.217
 2083SOL    HW2 6254   2.571   1.874   4.232
 2084SOL     OW 6255   3.387   2.861   3.914
 2084SOL    HW1 6256   3.324   2.785   3.927
 2084SOL    HW2 6257   3.435   2.879   4.000
 2085SOL     OW 6258   2.460   2.591   3.994
 2085SOL    HW1 6259   2.484   2.660   3.926
 2085SOL    HW2 6260   2.382   2.624   4.048
 2086SOL     OW 6261   3.438   3.524   4.031
 2086SOL    HW1 6262   3.527   3.570   4.034
 2086SOL    HW2 6263   3.417   3.500   3.936
 2087SOL     OW 6264   2.903   2.563   4.153
 2087SOL    HW1 6265   2.929   2.559   4.249
 2087SOL    HW2 6266   2.818   2.512   4.139
 2088SOL     OW 6267   1.938   2.673   4.513
 2088SOL    HW1 6268   2.037   2.661   4.522
 2088SOL    HW2 6269   1.914   2.768   4.534
 2089SOL     OW 6270   2.727   2.210   3.919
 2089SOL    HW1 6271   2.786   2.273   3.870
 2089SOL    HW2 6272   2.746   2.116   3.890
 2090SOL     OW 6273   2.183   2.805   3.966
 2090SOL    HW1 6274   2.265   2.844   3.924
 2090SOL    HW2 6275   2.156   2.723   3.917
 2091SOL     OW 6276   2.973   3.638   3.961
 2091SOL    HW1 6277   2.913   3.576   4.011
 2091SOL    HW2 6278   3.004   3.594   3.876
 2092SOL     OW 6279   3.494   3.239   3.805
 2092SOL    HW1 6280   3.462   3.333   3.795
 2092SOL    HW2 6281   3.418   3.176   3.793
 2093SOL     OW 6282   2.326   3.605   4.047
 2093SOL    HW1 6283   2.359   3.644   4.133
 2093SOL    HW2 6284   2.402   3.598   3.982
 2094SOL     OW 6285   3.262   1.969   4.150
 2094SOL    HW1 6286   3.238   1.932   4.060
 2094SOL    HW2 6287   3.361   1.985   4.154
 2095SOL     OW 6288   2.244   2.562   4.204
 2095SOL    HW1 6289   2.289   2.472   4.201
 2095SOL    HW2 6290   2.150   2.551   4.237
 2096SOL     OW 6291   2.476   1.984   3.841
 2096SOL    HW1 6292   2.574   1.962   3.848
 2096SOL    HW2 6293   2.445   1.967   3.748
 2097SOL     OW 6294   2.401   1.926   4.236
 2097SOL    HW1 6295   2.320   1.927   4.294
 2097SOL    HW2 6296   2.404   2.009   4.181
 2098SOL     OW 6297   3.296   3.050   3.765
 2098SOL    HW1 6298   3.328   2.974   3.822
 2098SOL    HW2 6299   3.204   3.077   3.795
 2099SOL     OW 6300   2.159   1.897   3.895
 2099SOL    HW1 6301   2.208   1.981   3.874
 2099SOL    HW2 6302   2.221   1.832   3.940
 2100SOL     OW 6303   2.797   2.098   4.204
 2100SOL    HW1 6304   2.749   2.139   4.126
 2100SOL    HW2 6305   2.896   2.096   4.185
 2101SOL     OW 6306   2.321   3.014   4.465
 2101SOL    HW1 6307   2.250   2.987   4.530
 2101SOL    HW2 6308   2.295   2.986   4.372
 2102SOL     OW 6309   3.133   3.659   4.315
 2102SOL    HW1 6310   3.177   3.723   4.251
 2102SOL    HW2 6311   3.083   3.711   4.385
 2103SOL     OW 6312   2.894   2.411   3.740
 2103SOL    HW1 6313   2.853   2.493   3.701
 2103SOL    HW2 6314   2.958   2.437   3.813
 2104SOL     OW 6315   2.728   2.316   4.366
 2104SOL    HW1 6316   2.696   2.388   4.304
 2104SOL    HW2 6317   2.752   2.235   4.313
 2105SOL     OW 6318   3.719   2.695   4.101
 2105SOL    HW1 6319   3.761   2.631   4.165
 2105SOL    HW2 6320   3.681   2.644   4.023
 2106SOL     OW 6321   2.350   3.247   3.898
 2106SOL    HW1 6322   2.263   3.232   3.945
 2106SOL    HW2 6323   2.333   3.273   3.803
 2107SOL     OW 6324   3.252   2.437   3.802
 2107SOL    HW1 6325   3.198   2.416   3.883
 2107SOL    HW2 6326   3.343   2.396   3.811
 2108SOL     OW 6327   2.389   2.118   4.052
 2108SOL    HW1 6328   2.416   2.059   3.977
 2108SOL    HW2 6329   2.389   2.213   4.021
 2109SOL     OW 6330   2.567   2.912   4.092
 2109SOL    HW1 6331   2.553   2.919   4.191
 2109SOL    HW2 6332   2.651   2.861   4.074
 2110SOL     OW 6333   2.229   2.962   4.225
 2110SOL    HW1 6334   2.222   3.045   4.169
 2110SOL    HW2 6335   2.233   2.882   4.165
 2111SOL     OW 6336   3.114   3.210   4.112
 2111SOL    HW1 6337   3.164   3.287   4.152
 2111SOL    HW2 6338   3.019   3.212   4.144
 2112SOL     OW 6339   3.444   2.501   4.196
 2112SOL    HW1 6340   3.413   2.562   4.269
 2112SOL    HW2 6341   3.494   2.553   4.127
 2113SOL     OW 6342   3.071   2.387   3.999
 2113SOL    HW1 6343   3.084   2.303   4.053
 2113SOL    HW2 6344   3.042   2.461   4.059
 2114SOL     OW 6345   3.484   2.229   4.098
 2114SOL    HW1 6346   3.486   2.153   4.162
 2114SOL    HW2 6347   3.436   2.306   4.138
 2115SOL     OW 6348   3.402   2.136   3.849
 2115SOL    HW1 6349   3.341   2.061   3.872
 2115SOL    HW2 6350   3.424   2.188   3.932
 2116SOL     OW 6351   3.165   2.700   3.766
 2116SOL    HW1 6352   3.199   2.607   3.781
 2116SOL    HW2 6353   3.183   2.727   3.671
 2117SOL     OW 6354   1.870   3.188   3.924
 2117SOL    HW1 6355   1.777   3.209   3.893
 2117SOL    HW2 6356   1.880   3.089   3.937
 2118SOL     OW 6357   2.677   2.434   4.049
 2118SOL    HW1 6358   2.684   2.345   4.003
 2118SOL    HW2 6359   2.583   2.468   4.041
 2119SOL     OW 6360   2.335   2.362   3.915
 2119SOL    HW1 6361   2.396   2.442   3.919
 2119SOL    HW2 6362   2.240   2.393   3.922
 2120SOL     OW 6363   3.164   2.717   4.033
 2120SOL    HW1 6364   3.078   2.686   4.075
 2120SOL    HW2 6365   3.160   2.703   3.934
 2121SOL     OW 6366   3.588   1.997   4.247
 2121SOL    HW1 6367   3.661   1.980   4.180
 2121SOL    HW2 6368   3.557   1.910   4.285
 2122SOL     OW 6369   3.250   3.435   4.201
 2122SOL    HW1 6370   3.317   3.447   4.127
 2122SOL    HW2 6371   3.210   3.524   4.224
 2123SOL     OW 6372   2.534   3.478   3.878
 2123SOL    HW1 6373   2.543   3.488   3.779
 2123SOL    HW2 6374   2.494   3.389   3.899
 2124SOL     OW 6375   3.056   3.474   3.755
 2124SOL    HW1 6376   3.062   3.381   3.792
 2124SOL    HW2 6377   2.997   3.474   3.675
 2125SOL     OW 6378   2.778   2.772   4.015
 2125SOL    HW1 6379   2.841   2.810   3.947
 2125SOL    HW2 6380   2.818   2.689   4.054
 2126SOL     OW 6381   3.366   3.469   3.768
 2126SOL    HW1 6382   3.274   3.506   3.775
 2126SOL    HW2 6383   3.404   3.489   3.678
 2127SOL     OW 6384   2.452   3.349   4.215
 2127SOL    HW1 6385   2.494   3.291   4.145
 2127SOL    HW2 6386   2.408   3.428   4.171
 2128SOL     OW 6387   2.117   3.210   4.014
 2128SOL    HW1 6388   2.021   3.211   3.987
 2128SOL    HW2 6389   2.129   3.263   4.098
 2129SOL     OW 6390   1.937   2.207   3.757
 2129SOL    HW1 6391   1.845   2.179   3.728
 2129SOL    HW2 6392   1.968   2.284   3.701
 2130SOL     OW 6393   1.934   2.028   4.042
 2130SOL    HW1 6394   1.917   2.111   3.988
 2130SOL    HW2 6395   2.024   1.991   4.020
 2131SOL     OW 6396   3.045   3.197   3.843
 2131SOL    HW1 6397   2.946   3.186   3.845
 2131SOL    HW2 6398   3.079   3.212   3.936
 2132SOL     OW 6399   3.087   2.187   4.173
 2132SOL    HW1 6400   3.152   2.113   4.162
 2132SOL    HW2 6401   3.107   2.237   4.257
 2133SOL     OW 6402   2.456   2.607   4.376
 2133SOL    HW1 6403   2.506   2.692   4.357
 2133SOL    HW2 6404   2.368   2.609   4.328
 2134SOL     OW 6405   2.721   3.236   3.740
 2134SOL    HW1 6406   2.675   3.251   3.828
 2134SOL    HW2 6407   2.765   3.321   3.710
 2135SOL     OW 6408   2.945   2.846   3.811
 2135SOL    HW1 6409   2.922   2.899   3.729
 2135SOL    HW2 6410   3.026   2.790   3.792
 2136SOL     OW 6411   1.941   3.102   4.377
 2136SOL    HW1 6412   1.940   3.055   4.465
 2136SOL    HW2 6413   2.023   3.074   4.326
 2137SOL     OW 6414   2.290   2.286   4.244
 2137SOL    HW1 6415   2.320   2.214   4.182
 2137SOL    HW2 6416   2.251   2.246   4.327
 2138SOL     OW 6417   2.632   3.192   4.025
 2138SOL    HW1 6418   2.586   3.105   4.042
 2138SOL    HW2 6419   2.723   3.189   4.066
 2139SOL     OW 6420   3.214   1.914   3.892
 2139SOL    HW1 6421   3.249   1.873   3.808
 2139SOL    HW2 6422   3.124   1.876   3.912
 2140SOL     OW 6423   1.901   2.939   4.024
 2140SOL    HW1 6424   2.000   2.928   4.015
 2140SOL    HW2 6425   1.861   2.853   4.056
 2141SOL     OW 6426   2.737   3.508   4.061
 2141SOL    HW1 6427   2.660   3.473   4.007
 2141SOL    HW2 6428   2.705   3.579   4.123
 2142SOL     OW 6429   2.087   3.999   0.996
 2142SOL    HW1 6430   2.122   3.982   1.088
 2142SOL    HW2 6431   1.999   3.954   0.984
 2143SOL     OW 6432   1.881   4.092   0.647
 2143SOL    HW1 6433   1.799   4.135   0.686
 2143SOL    HW2 6434   1.853   4.019   0.584
 2144SOL     OW 6435   3.617   4.331   0.231
 2144SOL    HW1 6436   3.605   4.318   0.132
 2144SOL    HW2 6437   3.587   4.250   0.280
 2145SOL     OW 6438   2.300   4.116   1.499
 2145SOL    HW1 6439   2.382   4.060   1.508
 2145SOL    HW2 6440   2.219   4.058   1.503
 2146SOL     OW 6441   3.465   4.171   0.737
 2146SOL    HW1 6442   3.391   4.217   0.687
 2146SOL    HW2 6443   3.516   4.239   0.790
 2147SOL     OW 6444   3.456   3.838   1.480
 2147SOL    HW1 6445   3.438   3.905   1.408
 2147SOL    HW2 6446   3.453   3.884   1.569
 2148SOL     OW 6447   1.984   4.367   0.563
 2148SOL    HW1 6448   1.939   4.279   0.580
 2148SOL    HW2 6449   1.983   4.421   0.647
 2149SOL     OW 6450   2.671   3.728   0.502
 2149SOL    HW1 6451   2.711   3.819   0.493
 2149SOL    HW2 6452   2.571   3.736   0.508
 2150SOL     OW 6453   2.179   3.975   1.801
 2150SOL    HW1 6454   2.250   4.046   1.807
 2150SOL    HW2 6455   2.091   4.014   1.829
 2151SOL     OW 6456   3.143   4.069   0.944
 2151SOL    HW1 6457   3.057   4.019   0.931
 2151SOL    HW2 6458   3.205   4.015   1.000
 2152SOL     OW 6459   2.669   4.329   1.465
 2152SOL    HW1 6460   2.622   4.326   1.554
 2152SOL    HW2 6461   2.618   4.274   1.399
 2153SOL     OW 6462   3.256   4.193   1.674
 2153SOL    HW1 6463   3.236   4.236   1.762
 2153SOL    HW2 6464   3.334   4.131   1.683
 2154SOL     OW 6465   2.853   4.134   1.242
 2154SOL    HW1 6466   2.776   4.168   1.296
 2154SOL    HW2 6467   2.819   4.083   1.163
 2155SOL     OW 6468   2.903   4.425   0.429
 2155SOL    HW1 6469   2.929   4.421   0.525
 2155SOL    HW2 6470   2.818   4.374   0.415
 2156SOL     OW 6471   1.938   4.535   0.789
 2156SOL    HW1 6472   2.037   4.523   0.798
 2156SOL    HW2 6473   1.914   4.630   0.810
 2157SOL     OW 6474   2.727   4.072   0.195
 2157SOL    HW1 6475   2.786   4.135   0.146
 2157SOL    HW2 6476   2.746   3.978   0.166
 2158SOL     OW 6477   3.581   4.309   1.831
 2158SOL    HW1 6478   3.555   4.398   1.795
 2158SOL    HW2 6479   3.579   4.241   1.758
 2159SOL     OW 6480   2.412   3.920   0.885
 2159SOL    HW1 6481   2.407   3.915   0.985
 2159SOL    HW2 6482   2.414   4.016   0.856
 2160SOL     OW 6483   3.320   4.459   0.728
 2160SOL    HW1 6484   3.315   4.394   0.803
 2160SOL    HW2 6485   3.400   4.518   0.741
 2161SOL     OW 6486   2.064   4.009   1.498
 2161SOL    HW1 6487   1.984   4.069   1.485
 2161SOL    HW2 6488   2.054   3.960   1.584
 2162SOL     OW 6489   3.262   3.831   0.426
 2162SOL    HW1 6490   3.238   3.794   0.336
 2162SOL    HW2 6491   3.361   3.847   0.430
 2163SOL     OW 6492   3.409   3.946   1.729
 2163SOL    HW1 6493   3.404   3.983   1.821
 2163SOL    HW2 6494   3.337   3.877   1.717
 2164SOL     OW 6495   2.476   3.846   0.117
 2164SOL    HW1 6496   2.574   3.824   0.124
 2164SOL    HW2 6497   2.445   3.829   0.024
 2165SOL     OW 6498   2.643   3.988   1.749
 2165SOL    HW1 6499   2.710   3.927   1.792
 2165SOL    HW2 6500   2.570   4.007   1.814
 2166SOL     OW 6501   3.213   4.314   1.433
 2166SOL    HW1 6502   3.241   4.271   1.518
 2166SOL    HW2 6503   3.238   4.410   1.434
 2167SOL     OW 6504   2.784   4.227   0.899
 2167SOL    HW1 6505   2.759   4.218   0.803
 2167SOL    HW2 6506   2.832   4.145   0.930
 2168SOL     OW 6507   2.401   3.788   0.512
 2168SOL    HW1 6508   2.320   3.789   0.570
 2168SOL    HW2 6509   2.404   3.871   0.457
 2169SOL     OW 6510   2.159   3.759   0.171
 2169SOL    HW1 6511   2.208   3.843   0.150
 2169SOL    HW2 6512   2.221   3.694   0.216
 2170SOL     OW 6513   2.797   3.960   0.480
 2170SOL    HW1 6514   2.749   4.001   0.402
 2170SOL    HW2 6515   2.896   3.958   0.461
 2171SOL     OW 6516   1.940   4.280   1.386
 2171SOL    HW1 6517   2.032   4.279   1.345
 2171SOL    HW2 6518   1.934   4.354   1.453
 2172SOL     OW 6519   2.423   3.946   1.147
 2172SOL    HW1 6520   2.461   3.862   1.184
 2172SOL    HW2 6521   2.335   3.965   1.191
 2173SOL     OW 6522   2.879   3.763   0.753
 2173SOL    HW1 6523   2.807   3.768   0.684
 2173SOL    HW2 6524   2.855   3.694   0.822
 2174SOL     OW 6525   3.328   4.314   0.992
 2174SOL    HW1 6526   3.298   4.219   0.999
 2174SOL    HW2 6527   3.401   4.330   1.058
 2175SOL     OW 6528   2.389   3.980   0.328
 2175SOL    HW1 6529   2.416   3.921   0.253
 2175SOL    HW2 6530   2.389   4.075   0.297
 2176SOL     OW 6531   2.777   3.813   1.402
 2176SOL    HW1 6532   2.802   3.793   1.307
 2176SOL    HW2 6533   2.849   3.869   1.444
 2177SOL     OW 6534   3.136   4.110   1.262
 2177SOL    HW1 6535   3.157   4.184   1.326
 2177SOL    HW2 6536   3.047   4.127   1.219
 2178SOL     OW 6537   2.428   4.261   0.865
 2178SOL    HW1 6538   2.440   4.327   0.791
 2178SOL    HW2 6539   2.474   4.295   0.948
 2179SOL     OW 6540   2.875   3.829   1.770
 2179SOL    HW1 6541   2.881   3.914   1.718
 2179SOL    HW2 6542   2.907   3.753   1.713
 2180SOL     OW 6543   2.366   3.774   1.740
 2180SOL    HW1 6544   2.324   3.717   1.670
 2180SOL    HW2 6545   2.300   3.843   1.772
 2181SOL     OW 6546   3.071   4.249   0.275
 2181SOL    HW1 6547   3.084   4.165   0.329
 2181SOL    HW2 6548   3.042   4.323   0.335
 2182SOL     OW 6549   2.169   3.937   1.231
 2182SOL    HW1 6550   2.146   3.974   1.321
 2182SOL    HW2 6551   2.139   3.842   1.225
 2183SOL     OW 6552   2.594   4.358   1.064
 2183SOL    HW1 6553   2.653   4.332   0.988
 2183SOL    HW2 6554   2.566   4.454   1.053
 2184SOL     OW 6555   2.169   3.787   0.618
 2184SOL    HW1 6556   2.158   3.881   0.651
 2184SOL    HW2 6557   2.164   3.724   0.695
 2185SOL     OW 6558   3.484   4.091   0.374
 2185SOL    HW1 6559   3.486   4.015   0.438
 2185SOL    HW2 6560   3.436   4.168   0.414
 2186SOL     OW 6561   3.402   3.998   0.125
 2186SOL    HW1 6562   3.341   3.923   0.148
 2186SOL    HW2 6563   3.424   4.050   0.208
 2187SOL     OW 6564   2.201   4.233   1.006
 2187SOL    HW1 6565   2.149   4.150   0.989
 2187SOL    HW2 6566   2.278   4.238   0.942
 2188SOL     OW 6567   3.000   4.104   1.678
 2188SOL    HW1 6568   2.955   4.167   1.742
 2188SOL    HW2 6569   3.093   4.135   1.661
 2189SOL     OW 6570   3.022   3.931   1.477
 2189SOL    HW1 6571   3.022   3.995   1.554
 2189SOL    HW2 6572   3.050   3.979   1.394
 2190SOL     OW 6573   1.902   4.268   1.114
 2190SOL    HW1 6574   1.987   4.235   1.073
 2190SOL    HW2 6575   1.915   4.283   1.212
 2191SOL     OW 6576   2.051   4.244   1.722
 2191SOL    HW1 6577   2.110   4.204   1.652
 2191SOL    HW2 6578   1.993   4.315   1.681
 2192SOL     OW 6579   2.677   4.296   0.325
 2192SOL    HW1 6580   2.684   4.207   0.279
 2192SOL    HW2 6581   2.583   4.330   0.317
 2193SOL     OW 6582   3.519   4.328   1.206
 2193SOL    HW1 6583   3.481   4.259   1.268
 2193SOL    HW2 6584   3.601   4.292   1.162
 2194SOL     OW 6585   2.533   4.188   1.269
 2194SOL    HW1 6586   2.499   4.099   1.239
 2194SOL    HW2 6587   2.559   4.242   1.189
 2195SOL     OW 6588   2.765   3.810   0.133
 2195SOL    HW1 6589   2.816   3.811   0.047
 2195SOL    HW2 6590   2.821   3.768   0.204
 2196SOL     OW 6591   3.588   3.859   0.523
 2196SOL    HW1 6592   3.661   3.842   0.456
 2196SOL    HW2 6593   3.557   3.772   0.561
 2197SOL     OW 6594   3.703   3.899   0.963
 2197SOL    HW1 6595   3.742   3.814   0.927
 2197SOL    HW2 6596   3.605   3.901   0.944
 2198SOL     OW 6597   2.125   4.050   0.720
 2198SOL    HW1 6598   2.046   4.101   0.686
 2198SOL    HW2 6599   2.116   4.035   0.818
 2199SOL     OW 6600   2.876   3.960   0.971
 2199SOL    HW1 6601   2.868   3.924   0.878
 2199SOL    HW2 6602   2.874   3.884   1.036
 2200SOL     OW 6603   3.571   4.109   1.381
 2200SOL    HW1 6604   3.644   4.178   1.385
 2200SOL    HW2 6605   3.599   4.034   1.322
 2201SOL     OW 6606   2.534   3.927   1.489
 2201SOL    HW1 6607   2.624   3.911   1.449
 2201SOL    HW2 6608   2.542   3.932   1.588
 2202SOL     OW 6609   1.937   4.069   0.033
 2202SOL    HW1 6610   1.845   4.041   0.004
 2202SOL    HW2 6611   1.968   4.146  -0.023
 2203SOL     OW 6612   1.934   3.890   0.318
 2203SOL    HW1 6613   1.917   3.973   0.264
 2203SOL    HW2 6614   2.024   3.853   0.296
 2204SOL     OW 6615   2.578   4.289   1.708
 2204SOL    HW1 6616   2.597   4.354   1.782
 2204SOL    HW2 6617   2.638   4.209   1.717
 2205SOL     OW 6618   3.087   4.049   0.449
 2205SOL    HW1 6619   3.152   3.975   0.438
 2205SOL    HW2 6620   3.107   4.099   0.533
 2206SOL     OW 6621   3.639   4.066   1.642
 2206SOL    HW1 6622   3.622   4.097   1.548
 2206SOL    HW2 6623   3.555   4.029   1.680
 2207SOL     OW 6624   3.686   3.916   1.227
 2207SOL    HW1 6625   3.682   3.826   1.271
 2207SOL    HW2 6626   3.689   3.905   1.128
 2208SOL     OW 6627   2.290   4.148   0.520
 2208SOL    HW1 6628   2.320   4.076   0.458
 2208SOL    HW2 6629   2.251   4.108   0.603
 2209SOL     OW 6630   2.179   4.271   1.280
 2209SOL    HW1 6631   2.217   4.212   1.352
 2209SOL    HW2 6632   2.219   4.245   1.192
 2210SOL     OW 6633   3.286   3.938   1.112
 2210SOL    HW1 6634   3.338   3.873   1.167
 2210SOL    HW2 6635   3.237   4.001   1.173
 2211SOL     OW 6636   2.863   3.758   1.154
 2211SOL    HW1 6637   2.800   3.686   1.123
 2211SOL    HW2 6638   2.956   3.722   1.154
 2212SOL     OW 6639   3.214   3.776   0.168
 2212SOL    HW1 6640   3.249   3.735   0.084
 2212SOL    HW2 6641   3.124   3.738   0.188
 2213SOL     OW 6642   3.162   4.177   0.691
 2213SOL    HW1 6643   3.103   4.257   0.695
 2213SOL    HW2 6644   3.177   4.142   0.784
 2214SOL     OW 6645   3.455   3.945   0.882
 2214SOL    HW1 6646   3.371   3.944   0.936
 2214SOL    HW2 6647   3.457   4.028   0.826
 2215SOL     OW 6648   2.087   3.999   2.858
 2215SOL    HW1 6649   2.122   3.982   2.950
 2215SOL    HW2 6650   1.999   3.954   2.846
 2216SOL     OW 6651   1.881   4.092   2.509
 2216SOL    HW1 6652   1.799   4.135   2.548
 2216SOL    HW2 6653   1.853   4.019   2.446
 2217SOL     OW 6654   3.617   4.331   2.093
 2217SOL    HW1 6655   3.605   4.318   1.994
 2217SOL    HW2 6656   3.587   4.250   2.142
 2218SOL     OW 6657   2.300   4.116   3.361
 2218SOL    HW1 6658   2.382   4.060   3.370
 2218SOL    HW2 6659   2.219   4.058   3.365
 2219SOL     OW 6660   3.465   4.171   2.599
 2219SOL    HW1 6661   3.391   4.217   2.549
 2219SOL    HW2 6662   3.516   4.239   2.652
 2220SOL     OW 6663   3.456   3.838   3.342
 2220SOL    HW1 6664   3.438   3.905   3.270
 2220SOL    HW2 6665   3.453   3.884   3.431
 2221SOL     OW 6666   1.984   4.367   2.425
 2221SOL    HW1 6667   1.939   4.279   2.442
 2221SOL    HW2 6668   1.983   4.421   2.509
 2222SOL     OW 6669   2.671   3.728   2.364
 2222SOL    HW1 6670   2.711   3.819   2.355
 2222SOL    HW2 6671   2.571   3.736   2.370
 2223SOL     OW 6672   2.179   3.975   3.663
 2223SOL    HW1 6673   2.250   4.046   3.669
 2223SOL    HW2 6674   2.091   4.014   3.691
 2224SOL     OW 6675   3.143   4.069   2.806
 2224SOL    HW1 6676   3.057   4.019   2.793
 2224SOL    HW2 6677   3.205   4.015   2.862
 2225SOL     OW 6678   2.669   4.329   3.327
 2225SOL    HW1 6679   2.622   4.326   3.416
 2225SOL    HW2 6680   2.618   4.274   3.261
 2226SOL     OW 6681   3.256   4.193   3.536
 2226SOL    HW1 6682   3.236   4.236   3.624
 2226SOL    HW2 6683   3.334   4.131   3.545
 2227SOL     OW 6684   2.853   4.134   3.104
 2227SOL    HW1 6685   2.776   4.168   3.158
 2227SOL    HW2 6686   2.819   4.083   3.025
 2228SOL     OW 6687   2.903   4.425   2.291
 2228SOL    HW1 6688   2.929   4.421   2.387
 2228SOL    HW2 6689   2.818   4.374   2.277
 2229SOL     OW 6690   1.938   4.535   2.651
 2229SOL    HW1 6691   2.037   4.523   2.660
 2229SOL    HW2 6692   1.914   4.630   2.672
 2230SOL     OW 6693   2.727   4.072   2.057
 2230SOL    HW1 6694   2.786   4.135   2.008
 2230SOL    HW2 6695   2.746   3.978   2.028
 2231SOL     OW 6696   3.581   4.309   3.693
 2231SOL    HW1 6697   3.555   4.398   3.657
 2231SOL    HW2 6698   3.579   4.241   3.620
 2232SOL     OW 6699   2.412   3.920   2.747
 2232SOL    HW1 6700   2.407   3.915   2.847
 2232SOL    HW2 6701   2.414   4.016   2.718
 2233SOL     OW 6702   3.320   4.459   2.590
 2233SOL    HW1 6703   3.315   4.394   2.665
 2233SOL    HW2 6704   3.400   4.518   2.603
 2234SOL     OW 6705   2.064   4.009   3.360
 2234SOL    HW1 6706   1.984   4.069   3.347
 2234SOL    HW2 6707   2.054   3.960   3.446
 2235SOL     OW 6708   3.262   3.831   2.288
 2235SOL    HW1 6709   3.238   3.794   2.198
 2235SOL    HW2 6710   3.361   3.847   2.292
 2236SOL     OW 6711   3.409   3.946   3.591
 2236SOL    HW1 6712   3.404   3.983   3.683
 2236SOL    HW2 6713   3.337   3.877   3.579
 2237SOL     OW 6714   2.476   3.846   1.979
 2237SOL    HW1 6715   2.574   3.824   1.986
 2237SOL    HW2 6716   2.445   3.829   1.886
 2238SOL     OW 6717   2.643   3.988   3.611
 2238SOL    HW1 6718   2.710   3.927   3.654
 2238SOL    HW2 6719   2.570   4.007   3.676
 2239SOL     OW 6720   3.213   4.314   3.295
 2239SOL    HW1 6721   3.241   4.271   3.380
 2239SOL    HW2 6722   3.238   4.410   3.296
 2240SOL     OW 6723   2.784   4.227   2.761
 2240SOL    HW1 6724   2.759   4.218   2.665
 2240SOL    HW2 6725   2.832   4.145   2.792
 2241SOL     OW 6726   2.401   3.788   2.374
 2241SOL    HW1 6727   2.320   3.789   2.432
 2241SOL    HW2 6728   2.404   3.871   2.319
 2242SOL     OW 6729   2.159   3.759   2.033
 2242SOL    HW1 6730   2.208   3.843   2.012
 2242SOL    HW2 6731   2.221   3.694   2.078
 2243SOL     OW 6732   2.797   3.960   2.342
 2243SOL    HW1 6733   2.749   4.001   2.264
 2243SOL    HW2 6734   2.896   3.958   2.323
 2244SOL     OW 6735   1.940   4.280   3.248
 2244SOL    HW1 6736   2.032   4.279   3.207
 2244SOL    HW2 6737   1.934   4.354   3.315
 2245SOL     OW 6738   2.423   3.946   3.009
 2245SOL    HW1 6739   2.461   3.862   3.046
 2245SOL    HW2 6740   2.335   3.965   3.053
 2246SOL     OW 6741   2.879   3.763   2.615
 2246SOL    HW1 6742   2.807   3.768   2.546
 2246SOL    HW2 6743   2.855   3.694   2.684
 2247SOL     OW 6744   3.328   4.314   2.854
 2247SOL    HW1 6745   3.298   4.219   2.861
 2247SOL    HW2 6746   3.401   4.330   2.920
 2248SOL     OW 6747   2.389   3.980   2.190
 2248SOL    HW1 6748   2.416   3.921   2.115
 2248SOL    HW2 6749   2.389   4.075   2.159
 2249SOL     OW 6750   2.777   3.813   3.264
 2249SOL    HW1 6751   2.802   3.793   3.169
 2249SOL    HW2 6752   2.849   3.869   3.306
 2250SOL     OW 6753   3.136   4.110   3.124
 2250SOL    HW1 6754   3.157   4.184   3.188
 2250SOL    HW2 6755   3.047   4.127   3.081
 2251SOL     OW 6756   2.428   4.261   2.727
 2251SOL    HW1 6757   2.440   4.327   2.653
 2251SOL    HW2 6758   2.474   4.295   2.810
 2252SOL     OW 6759   2.875   3.829   3.632
 2252SOL    HW1 6760   2.881   3.914   3.580
 2252SOL    HW2 6761   2.907   3.753   3.575
 2253SOL     OW 6762   2.366   3.774   3.602
 2253SOL    HW1 6763   2.324   3.717   3.532
 2253SOL    HW2 6764   2.300   3.843   3.634
 2254SOL     OW 6765   3.071   4.249   2.137
 2254SOL    HW1 6766   3.084   4.165   2.191
 2254SOL    HW2 6767   3.042   4.323   2.197
 2255SOL     OW 6768   2.169   3.937   3.093
 2255SOL    HW1 6769   2.146   3.974   3.183
 2255SOL    HW2 6770   2.139   3.842   3.087
 2256SOL     OW 6771   2.594   4.358   2.926
 2256SOL    HW1 6772   2.653   4.332   2.850
 2256SOL    HW2 6773   2.566   4.454   2.915
 2257SOL     OW 6774   2.169   3.787   2.480
 2257SOL    HW1 6775   2.158   3.881   2.513
 2257SOL    HW2 6776   2.164   3.724   2.557
 2258SOL     OW 6777   3.484   4.091   2.236
 2258SOL    HW1 6778   3.486   4.015   2.300
 2258SOL    HW2 6779   3.436   4.168   2.276
 2259SOL     OW 6780   3.402   3.998   1.987
 2259SOL    HW1 6781   3.341   3.923   2.010
 2259SOL    HW2 6782   3.424   4.050   2.070
 2260SOL     OW 6783   2.201   4.233   2.868
 2260SOL    HW1 6784   2.149   4.150   2.851
 2260SOL    HW2 6785   2.278   4.238   2.804
 2261SOL     OW 6786   3.000   4.104   3.540
 2261SOL    HW1 6787   2.955   4.167   3.604
 2261SOL    HW2 6788   3.093   4.135   3.523
 2262SOL     OW 6789   3.022   3.931   3.339
 2262SOL    HW1 6790   3.022   3.995   3.416
 2262SOL    HW2 6791   3.050   3.979   3.256
 2263SOL     OW 6792   1.902   4.268   2.976
 2263SOL    HW1 6793   1.987   4.235   2.935
 2263SOL    HW2 6794   1.915   4.283   3.074
 2264SOL     OW 6795   2.051   4.244   3.584
 2264SOL    HW1 6796   2.110   4.204   3.514
 2264SOL    HW2 6797   1.993   4.315   3.543
 2265SOL     OW 6798   2.677   4.296   2.187
 2265SOL    HW1 6799   2.684   4.207   2.141
 2265SOL    HW2 6800   2.583   4.330   2.179
 2266SOL     OW 6801   3.519   4.328   3.068
 2266SOL    HW1 6802   3.481   4.259   3.130
 2266SOL    HW2 6803   3.601   4.292   3.024
 2267SOL     OW 6804   2.533   4.188   3.131
 2267SOL    HW1 6805   2.499   4.099   3.101
 2267SOL    HW2 6806   2.559   4.242   3.051
 2268SOL     OW 6807   3.588   3.859   2.385
 2268SOL    HW1 6808   3.661   3.842   2.318
 2268SOL    HW2 6809   3.557   3.772   2.423
 2269SOL     OW 6810   3.703   3.899   2.825
 2269SOL    HW1 6811   3.742   3.814   2.789
 2269SOL    HW2 6812   3.605   3.901   2.806
 2270SOL     OW 6813   2.125   4.050   2.582
 2270SOL    HW1 6814   2.046   4.101   2.548
 2270SOL    HW2 6815   2.116   4.035   2.680
 2271SOL     OW 6816   2.876   3.960   2.833
 2271SOL    HW1 6817   2.868   3.924   2.740
 2271SOL    HW2 6818   2.874   3.884   2.898
 2272SOL     OW 6819   3.571   4.109   3.243
 2272SOL    HW1 6820   3.644   4.178   3.247
 2272SOL    HW2 6821   3.599   4.034   3.184
 2273SOL     OW 6822   2.534   3.927   3.351
 2273SOL    HW1 6823   2.624   3.911   3.311
 2273SOL    HW2 6824   2.542   3.932   3.450
 2274SOL     OW 6825   1.937   4.069   1.895
 2274SOL    HW1 6826   1.845   4.041   1.866
 2274SOL    HW2 6827   1.968   4.146   1.839
 2275SOL     OW 6828   1.934   3.890   2.180
 2275SOL    HW1 6829   1.917   3.973   2.126
 2275SOL    HW2 6830   2.024   3.853   2.158
 2276SOL     OW 6831   2.578   4.289   3.570
 2276SOL    HW1 6832   2.597   4.354   3.644
 2276SOL    HW2 6833   2.638   4.209   3.579
 2277SOL     OW 6834   3.087   4.049   2.311
 2277SOL    HW1 6835   3.152   3.975   2.300
 2277SOL    HW2 6836   3.107   4.099   2.395
 2278SOL     OW 6837   3.639   4.066   3.504
 2278SOL    HW1 6838   3.622   4.097   3.410
 2278SOL    HW2 6839   3.555   4.029   3.542
 2279SOL     OW 6840   3.686   3.916   3.089
 2279SOL    HW1 6841   3.682   3.826   3.133
 2279SOL    HW2 6842   3.689   3.905   2.990
 2280SOL     OW 6843   2.290   4.148   2.382
 2280SOL    HW1 6844   2.320   4.076   2.320
 2280SOL    HW2 6845   2.251   4.108   2.465
 2281SOL     OW 6846   2.179   4.271   3.142
 2281SOL    HW1 6847   2.217   4.212   3.214
 2281SOL    HW2 6848   2.219   4.245   3.054
 2282SOL     OW 6849   3.286   3.938   2.974
 2282SOL    HW1 6850   3.338   3.873   3.029
 2282SOL    HW2 6851   3.237   4.001   3.035
 2283SOL     OW 6852   2.863   3.758   3.016
 2283SOL    HW1 6853   2.800   3.686   2.985
 2283SOL    HW2 6854   2.956   3.722   3.016
 2284SOL     OW 6855   3.214   3.776   2.030
 2284SOL    HW1 6856   3.249   3.735   1.946
 2284SOL    HW2 6857   3.124   3.738   2.050
 2285SOL     OW 6858   3.162   4.177   2.553
 2285SOL    HW1 6859   3.103   4.257   2.557
 2285SOL    HW2 6860   3.177   4.142   2.646
 2286SOL     OW 6861   3.455   3.945   2.744
 2286SOL    HW1 6862   3.371   3.944   2.798
 2286SOL    HW2 6863   3.457   4.028   2.688
 2287SOL     OW 6864   3.617   4.331   3.955
 2287SOL    HW1 6865   3.605   4.318   3.856
 2287SOL    HW2 6866   3.587   4.250   4.004
 2288SOL     OW 6867   1.984   4.367   4.287
 2288SOL    HW1 6868   1.939   4.279   4.304
 2288SOL    HW2 6869   1.983   4.421   4.371
 2289SOL     OW 6870   2.671   3.728   4.226
 2289SOL    HW1 6871   2.711   3.819   4.217
 2289SOL    HW2 6872   2.571   3.736   4.232
 2290SOL     OW 6873   2.903   4.425   4.153
 2290SOL    HW1 6874   2.929   4.421   4.249
 2290SOL    HW2 6875   2.818   4.374   4.139
 2291SOL     OW 6876   2.727   4.072   3.919
 2291SOL    HW1 6877   2.786   4.135   3.870
 2291SOL    HW2 6878   2.746   3.978   3.890
 2292SOL     OW 6879   3.262   3.831   4.150
 2292SOL    HW1 6880   3.238   3.794   4.060
 2292SOL    HW2 6881   3.361   3.847   4.154
 2293SOL     OW 6882   2.476   3.846   3.841
 2293SOL    HW1 6883   2.574   3.824   3.848
 2293SOL    HW2 6884   2.445   3.829   3.748
 2294SOL     OW 6885   2.401   3.788   4.236
 2294SOL    HW1 6886   2.320   3.789   4.294
 2294SOL    HW2 6887   2.404   3.871   4.181
 2295SOL     OW 6888   2.159   3.759   3.895
 2295SOL    HW1 6889   2.208   3.843   3.874
 2295SOL    HW2 6890   2.221   3.694   3.940
 2296SOL     OW 6891   2.797   3.960   4.204
 2296SOL    HW1 6892   2.749   4.001   4.126
 2296SOL    HW2 6893   2.896   3.958   4.185
 2297SOL     OW 6894   2.389   3.980   4.052
 2297SOL    HW1 6895   2.416   3.921   3.977
 2297SOL    HW2 6896   2.389   4.075   4.021
 2298SOL     OW 6897   3.071   4.249   3.999
 2298SOL    HW1 6898   3.084   4.165   4.053
 2298SOL    HW2 6899   3.042   4.323   4.059
 2299SOL     OW 6900   3.484   4.091   4.098
 2299SOL    HW1 6901   3.486   4.015   4.162
 2299SOL    HW2 6902   3.436   4.168   4.138
 2300SOL     OW 6903   3.402   3.998   3.849
 2300SOL    HW1 6904   3.341   3.923   3.872
 2300SOL    HW2 6905   3.424   4.050   3.932
 2301SOL     OW 6906   2.677   4.296   4.049
 2301SOL    HW1 6907   2.684   4.207   4.003
 2301SOL    HW2 6908   2.583   4.330   4.041
 2302SOL     OW 6909   3.588   3.859   4.247
 2302SOL    HW1 6910   3.661   3.842   4.180
 2302SOL    HW2 6911   3.557   3.772   4.285
 2303SOL     OW 6912   1.937   4.069   3.757
 2303SOL    HW1 6913   1.845   4.041   3.728
 2303SOL    HW2 6914   1.968   4.146   3.701
 2304SOL     OW 6915   1.934   3.890   4.042
 2304SOL    HW1 6916   1.917   3.973   3.988
 2304SOL    HW2 6917   2.024   3.853   4.020
 2305SOL     OW 6918   3.087   4.049   4.173
 2305SOL    HW1 6919   3.152   3.975   4.162
 2305SOL    HW2 6920   3.107   4.099   4.257
 2306SOL     OW 6921   2.290   4.148   4.244
 2306SOL    HW1 6922   2.320   4.076   4.182
 2306SOL    HW2 6923   2.251   4.108   4.327
 2307SOL     OW 6924   3.214   3.776   3.892
 2307SOL    HW1 6925   3.249   3.735   3.808
 2307SOL    HW2 6926   3.124   3.738   3.912
 2308SOL     OW 6927   3.162   4.177   4.415
 2308SOL    HW1 6928   3.103   4.257   4.419
 2308SOL    HW2 6929   3.177   4.142   4.508
 2309SOL     OW 6930   3.954   0.628   0.113
 2309SOL    HW1 6931   3.861   0.626   0.150
 2309SOL    HW2 6932   3.955   0.589   0.021
 2310SOL     OW 6933   3.949   0.275   0.996
 2310SOL    HW1 6934   3.984   0.258   1.088
 2310SOL    HW2 6935   3.861   0.230   0.984
 2311SOL     OW 6936   3.743   0.368   0.647
 2311SOL    HW1 6937   3.661   0.411   0.686
 2311SOL    HW2 6938   3.715   0.295   0.584
 2312SOL     OW 6939   4.574   0.798   1.823
 2312SOL    HW1 6940   4.570   0.874   1.888
 2312SOL    HW2 6941   4.596   0.834   1.732
 2313SOL     OW 6942   4.059   1.435   1.061
 2313SOL    HW1 6943   3.981   1.404   1.008
 2313SOL    HW2 6944   4.117   1.493   1.004
 2314SOL     OW 6945   4.162   0.392   1.499
 2314SOL    HW1 6946   4.244   0.336   1.508
 2314SOL    HW2 6947   4.081   0.334   1.503
 2315SOL     OW 6948   3.955   1.713   0.483
 2315SOL    HW1 6949   3.989   1.790   0.537
 2315SOL    HW2 6950   3.999   1.713   0.393
 2316SOL     OW 6951   3.954   1.434   0.538
 2316SOL    HW1 6952   3.928   1.530   0.538
 2316SOL    HW2 6953   3.883   1.380   0.583
 2317SOL     OW 6954   3.964   1.091   0.886
 2317SOL    HW1 6955   3.978   1.007   0.938
 2317SOL    HW2 6956   3.909   1.155   0.941
 2318SOL     OW 6957   3.846   0.643   0.563
 2318SOL    HW1 6958   3.801   0.555   0.580
 2318SOL    HW2 6959   3.845   0.697   0.647
 2319SOL     OW 6960   3.751   1.596   0.117
 2319SOL    HW1 6961   3.732   1.500   0.138
 2319SOL    HW2 6962   3.718   1.654   0.192
 2320SOL     OW 6963   3.837   0.737   1.597
 2320SOL    HW1 6964   3.925   0.724   1.642
 2320SOL    HW2 6965   3.824   0.834   1.575
 2321SOL     OW 6966   4.337   1.365   0.726
 2321SOL    HW1 6967   4.288   1.278   0.735
 2321SOL    HW2 6968   4.314   1.408   0.639
 2322SOL     OW 6969   3.921   0.976   1.264
 2322SOL    HW1 6970   4.010   0.931   1.250
 2322SOL    HW2 6971   3.848   0.911   1.245
 2323SOL     OW 6972   4.041   0.251   1.801
 2323SOL    HW1 6973   4.112   0.322   1.807
 2323SOL    HW2 6974   3.953   0.290   1.829
 2324SOL     OW 6975   3.800   0.811   0.789
 2324SOL    HW1 6976   3.899   0.799   0.798
 2324SOL    HW2 6977   3.776   0.906   0.810
 2325SOL     OW 6978   3.854   1.821   1.571
 2325SOL    HW1 6979   3.844   1.806   1.670
 2325SOL    HW2 6980   3.768   1.857   1.535
 2326SOL     OW 6981   4.589   0.348   0.195
 2326SOL    HW1 6982   4.648   0.411   0.146
 2326SOL    HW2 6983   4.608   0.254   0.166
 2327SOL     OW 6984   4.274   0.196   0.885
 2327SOL    HW1 6985   4.269   0.191   0.985
 2327SOL    HW2 6986   4.276   0.292   0.856
 2328SOL     OW 6987   4.075   1.801   0.853
 2328SOL    HW1 6988   4.125   1.715   0.859
 2328SOL    HW2 6989   4.140   1.878   0.850
 2329SOL     OW 6990   4.045   0.943   0.242
 2329SOL    HW1 6991   4.127   0.982   0.200
 2329SOL    HW2 6992   4.018   0.861   0.193
 2330SOL     OW 6993   4.185   1.266   1.727
 2330SOL    HW1 6994   4.135   1.267   1.641
 2330SOL    HW2 6995   4.122   1.248   1.803
 2331SOL     OW 6996   3.926   0.285   1.498
 2331SOL    HW1 6997   3.846   0.345   1.485
 2331SOL    HW2 6998   3.916   0.236   1.584
 2332SOL     OW 6999   4.188   1.743   0.323
 2332SOL    HW1 7000   4.221   1.782   0.409
 2332SOL    HW2 7001   4.264   1.736   0.258
 2333SOL     OW 7002   3.973   1.785   1.241
 2333SOL    HW1 7003   4.030   1.720   1.291
 2333SOL    HW2 7004   3.957   1.752   1.148
 2334SOL     OW 7005   4.106   0.700   0.480
 2334SOL    HW1 7006   4.151   0.610   0.477
 2334SOL    HW2 7007   4.012   0.689   0.513
 2335SOL     OW 7008   4.338   0.122   0.117
 2335SOL    HW1 7009   4.436   0.100   0.124
 2335SOL    HW2 7010   4.307   0.105   0.024
 2336SOL     OW 7011   4.263   0.064   0.512
 2336SOL    HW1 7012   4.182   0.065   0.570
 2336SOL    HW2 7013   4.266   0.147   0.457
 2337SOL     OW 7014   4.021   0.035   0.171
 2337SOL    HW1 7015   4.070   0.119   0.150
 2337SOL    HW2 7016   4.083  -0.030   0.216
 2338SOL     OW 7017   4.659   0.236   0.480
 2338SOL    HW1 7018   4.611   0.277   0.402
 2338SOL    HW2 7019   4.758   0.234   0.461
 2339SOL     OW 7020   4.183   1.152   0.741
 2339SOL    HW1 7021   4.112   1.125   0.806
 2339SOL    HW2 7022   4.157   1.124   0.648
 2340SOL     OW 7023   3.802   0.556   1.386
 2340SOL    HW1 7024   3.894   0.555   1.345
 2340SOL    HW2 7025   3.796   0.630   1.453
 2341SOL     OW 7026   4.285   0.222   1.147
 2341SOL    HW1 7027   4.323   0.138   1.184
 2341SOL    HW2 7028   4.197   0.241   1.191
 2342SOL     OW 7029   4.251   0.256   0.328
 2342SOL    HW1 7030   4.278   0.197   0.253
 2342SOL    HW2 7031   4.251   0.351   0.297
 2343SOL     OW 7032   4.704   1.116   1.719
 2343SOL    HW1 7033   4.605   1.122   1.729
 2343SOL    HW2 7034   4.727   1.036   1.663
 2344SOL     OW 7035   4.134   0.813   1.251
 2344SOL    HW1 7036   4.220   0.825   1.301
 2344SOL    HW2 7037   4.092   0.726   1.278
 2345SOL     OW 7038   3.788   1.564   1.331
 2345SOL    HW1 7039   3.742   1.646   1.297
 2345SOL    HW2 7040   3.886   1.583   1.340
 2346SOL     OW 7041   4.091   1.100   0.501
 2346SOL    HW1 7042   4.084   1.183   0.445
 2346SOL    HW2 7043   4.095   1.020   0.441
 2347SOL     OW 7044   4.290   0.537   0.865
 2347SOL    HW1 7045   4.302   0.603   0.791
 2347SOL    HW2 7046   4.336   0.571   0.948
 2348SOL     OW 7047   4.078   1.510   1.329
 2348SOL    HW1 7048   4.057   1.466   1.242
 2348SOL    HW2 7049   4.175   1.536   1.332
 2349SOL     OW 7050   4.126   0.751   1.598
 2349SOL    HW1 7051   4.194   0.806   1.551
 2349SOL    HW2 7052   4.166   0.663   1.625
 2350SOL     OW 7053   4.228   0.050   1.740
 2350SOL    HW1 7054   4.186  -0.007   1.670
 2350SOL    HW2 7055   4.162   0.119   1.772
 2351SOL     OW 7056   4.297   0.870   1.029
 2351SOL    HW1 7057   4.341   0.959   1.020
 2351SOL    HW2 7058   4.234   0.870   1.106
 2352SOL     OW 7059   4.031   0.213   1.231
 2352SOL    HW1 7060   4.008   0.250   1.321
 2352SOL    HW2 7061   4.001   0.118   1.225
 2353SOL     OW 7062   3.761   1.310   1.282
 2353SOL    HW1 7063   3.814   1.261   1.350
 2353SOL    HW2 7064   3.783   1.408   1.287
 2354SOL     OW 7065   4.031   0.063   0.618
 2354SOL    HW1 7066   4.020   0.157   0.651
 2354SOL    HW2 7067   4.026   0.000   0.695
 2355SOL     OW 7068   4.074   0.898   1.804
 2355SOL    HW1 7069   4.150   0.942   1.852
 2355SOL    HW2 7070   4.109   0.851   1.722
 2356SOL     OW 7071   4.043   0.810   0.949
 2356SOL    HW1 7072   4.136   0.846   0.954
 2356SOL    HW2 7073   4.037   0.725   1.001
 2357SOL     OW 7074   4.063   0.509   1.006
 2357SOL    HW1 7075   4.011   0.426   0.989
 2357SOL    HW2 7076   4.140   0.514   0.942
 2358SOL     OW 7077   3.732   1.326   0.200
 2358SOL    HW1 7078   3.639   1.347   0.169
 2358SOL    HW2 7079   3.742   1.227   0.213
 2359SOL     OW 7080   3.812   1.801   0.927
 2359SOL    HW1 7081   3.770   1.715   0.900
 2359SOL    HW2 7082   3.906   1.804   0.893
 2360SOL     OW 7083   4.228   1.568   0.910
 2360SOL    HW1 7084   4.294   1.642   0.919
 2360SOL    HW2 7085   4.272   1.489   0.868
 2361SOL     OW 7086   3.764   0.544   1.114
 2361SOL    HW1 7087   3.849   0.511   1.073
 2361SOL    HW2 7088   3.777   0.559   1.212
 2362SOL     OW 7089   3.913   0.520   1.722
 2362SOL    HW1 7090   3.972   0.480   1.652
 2362SOL    HW2 7091   3.855   0.591   1.681
 2363SOL     OW 7092   4.539   0.572   0.325
 2363SOL    HW1 7093   4.546   0.483   0.279
 2363SOL    HW2 7094   4.445   0.606   0.317
 2364SOL     OW 7095   3.976   1.564   1.744
 2364SOL    HW1 7096   3.946   1.621   1.820
 2364SOL    HW2 7097   3.969   1.467   1.770
 2365SOL     OW 7098   4.197   0.500   0.191
 2365SOL    HW1 7099   4.258   0.580   0.195
 2365SOL    HW2 7100   4.102   0.531   0.198
 2366SOL     OW 7101   3.883   1.137   1.466
 2366SOL    HW1 7102   3.905   1.076   1.542
 2366SOL    HW2 7103   3.893   1.088   1.380
 2367SOL     OW 7104   3.807   1.258   1.022
 2367SOL    HW1 7105   3.802   1.257   1.122
 2367SOL    HW2 7106   3.724   1.217   0.984
 2368SOL     OW 7107   4.412   1.662   1.716
 2368SOL    HW1 7108   4.356   1.743   1.725
 2368SOL    HW2 7109   4.464   1.666   1.630
 2369SOL     OW 7110   3.854   1.794   1.851
 2369SOL    HW1 7111   3.813   1.720   1.904
 2369SOL    HW2 7112   3.918   1.845   1.909
 2370SOL     OW 7113   3.987   0.326   0.720
 2370SOL    HW1 7114   3.908   0.377   0.686
 2370SOL    HW2 7115   3.978   0.311   0.818
 2371SOL     OW 7116   4.096   1.288   1.490
 2371SOL    HW1 7117   4.083   1.381   1.456
 2371SOL    HW2 7118   4.012   1.236   1.477
 2372SOL     OW 7119   4.314   1.487   0.491
 2372SOL    HW1 7120   4.356   1.429   0.421
 2372SOL    HW2 7121   4.270   1.566   0.447
 2373SOL     OW 7122   3.979   1.348   0.290
 2373SOL    HW1 7123   3.883   1.349   0.263
 2373SOL    HW2 7124   3.991   1.401   0.374
 2374SOL     OW 7125   3.829   1.013   1.726
 2374SOL    HW1 7126   3.752   0.980   1.780
 2374SOL    HW2 7127   3.914   0.983   1.768
 2375SOL     OW 7128   3.799   0.345   0.033
 2375SOL    HW1 7129   3.707   0.317   0.004
 2375SOL    HW2 7130   3.830   0.422  -0.023
 2376SOL     OW 7131   3.796   0.166   0.318
 2376SOL    HW1 7132   3.779   0.249   0.264
 2376SOL    HW2 7133   3.886   0.129   0.296
 2377SOL     OW 7134   4.337   0.842   1.431
 2377SOL    HW1 7135   4.393   0.923   1.414
 2377SOL    HW2 7136   4.396   0.762   1.434
 2378SOL     OW 7137   4.114   1.741   1.560
 2378SOL    HW1 7138   4.023   1.782   1.558
 2378SOL    HW2 7139   4.107   1.647   1.592
 2379SOL     OW 7140   4.318   0.745   0.652
 2379SOL    HW1 7141   4.368   0.830   0.633
 2379SOL    HW2 7142   4.230   0.747   0.604
 2380SOL     OW 7143   3.945   1.314   1.844
 2380SOL    HW1 7144   3.880   1.241   1.823
 2380SOL    HW2 7145   3.949   1.328   1.942
 2381SOL     OW 7146   3.803   1.240   0.653
 2381SOL    HW1 7147   3.802   1.193   0.741
 2381SOL    HW2 7148   3.885   1.212   0.602
 2382SOL     OW 7149   4.396   1.391   1.624
 2382SOL    HW1 7150   4.318   1.341   1.662
 2382SOL    HW2 7151   4.393   1.486   1.655
 2383SOL     OW 7152   4.152   0.424   0.520
 2383SOL    HW1 7153   4.182   0.352   0.458
 2383SOL    HW2 7154   4.113   0.384   0.603
 2384SOL     OW 7155   4.041   0.547   1.280
 2384SOL    HW1 7156   4.079   0.488   1.352
 2384SOL    HW2 7157   4.081   0.521   1.192
 2385SOL     OW 7158   3.763   1.077   0.300
 2385SOL    HW1 7159   3.862   1.066   0.291
 2385SOL    HW2 7160   3.723   0.991   0.332
 2386SOL     OW 7161   3.954   0.628   1.975
 2386SOL    HW1 7162   3.861   0.626   2.012
 2386SOL    HW2 7163   3.955   0.589   1.883
 2387SOL     OW 7164   3.949   0.275   2.858
 2387SOL    HW1 7165   3.984   0.258   2.950
 2387SOL    HW2 7166   3.861   0.230   2.846
 2388SOL     OW 7167   3.743   0.368   2.509
 2388SOL    HW1 7168   3.661   0.411   2.548
 2388SOL    HW2 7169   3.715   0.295   2.446
 2389SOL     OW 7170   4.574   0.798   3.685
 2389SOL    HW1 7171   4.570   0.874   3.750
 2389SOL    HW2 7172   4.596   0.834   3.594
 2390SOL     OW 7173   4.059   1.435   2.923
 2390SOL    HW1 7174   3.981   1.404   2.870
 2390SOL    HW2 7175   4.117   1.493   2.866
 2391SOL     OW 7176   4.162   0.392   3.361
 2391SOL    HW1 7177   4.244   0.336   3.370
 2391SOL    HW2 7178   4.081   0.334   3.365
 2392SOL     OW 7179   3.955   1.713   2.345
 2392SOL    HW1 7180   3.989   1.790   2.399
 2392SOL    HW2 7181   3.999   1.713   2.255
 2393SOL     OW 7182   3.954   1.434   2.400
 2393SOL    HW1 7183   3.928   1.530   2.400
 2393SOL    HW2 7184   3.883   1.380   2.445
 2394SOL     OW 7185   3.964   1.091   2.748
 2394SOL    HW1 7186   3.978   1.007   2.800
 2394SOL    HW2 7187   3.909   1.155   2.803
 2395SOL     OW 7188   3.846   0.643   2.425
 2395SOL    HW1 7189   3.801   0.555   2.442
 2395SOL    HW2 7190   3.845   0.697   2.509
 2396SOL     OW 7191   3.751   1.596   1.979
 2396SOL    HW1 7192   3.732   1.500   2.000
 2396SOL    HW2 7193   3.718   1.654   2.054
 2397SOL     OW 7194   3.837   0.737   3.459
 2397SOL    HW1 7195   3.925   0.724   3.504
 2397SOL    HW2 7196   3.824   0.834   3.437
 2398SOL     OW 7197   4.337   1.365   2.588
 2398SOL    HW1 7198   4.288   1.278   2.597
 2398SOL    HW2 7199   4.314   1.408   2.501
 2399SOL     OW 7200   3.921   0.976   3.126
 2399SOL    HW1 7201   4.010   0.931   3.112
 2399SOL    HW2 7202   3.848   0.911   3.107
 2400SOL     OW 7203   4.041   0.251   3.663
 2400SOL    HW1 7204   4.112   0.322   3.669
 2400SOL    HW2 7205   3.953   0.290   3.691
 2401SOL     OW 7206   4.322   0.729   2.132
 2401SOL    HW1 7207   4.346   0.798   2.064
 2401SOL    HW2 7208   4.244   0.762   2.186
 2402SOL     OW 7209   3.800   0.811   2.651
 2402SOL    HW1 7210   3.899   0.799   2.660
 2402SOL    HW2 7211   3.776   0.906   2.672
 2403SOL     OW 7212   3.854   1.821   3.433
 2403SOL    HW1 7213   3.844   1.806   3.532
 2403SOL    HW2 7214   3.768   1.857   3.397
 2404SOL     OW 7215   4.589   0.348   2.057
 2404SOL    HW1 7216   4.648   0.411   2.008
 2404SOL    HW2 7217   4.608   0.254   2.028
 2405SOL     OW 7218   4.274   0.196   2.747
 2405SOL    HW1 7219   4.269   0.191   2.847
 2405SOL    HW2 7220   4.276   0.292   2.718
 2406SOL     OW 7221   4.075   1.801   2.715
 2406SOL    HW1 7222   4.125   1.715   2.721
 2406SOL    HW2 7223   4.140   1.878   2.712
 2407SOL     OW 7224   4.045   0.943   2.104
 2407SOL    HW1 7225   4.127   0.982   2.062
 2407SOL    HW2 7226   4.018   0.861   2.055
 2408SOL     OW 7227   4.185   1.266   3.589
 2408SOL    HW1 7228   4.135   1.267   3.503
 2408SOL    HW2 7229   4.122   1.248   3.665
 2409SOL     OW 7230   3.926   0.285   3.360
 2409SOL    HW1 7231   3.846   0.345   3.347
 2409SOL    HW2 7232   3.916   0.236   3.446
 2410SOL     OW 7233   4.188   1.743   2.185
 2410SOL    HW1 7234   4.221   1.782   2.271
 2410SOL    HW2 7235   4.264   1.736   2.120
 2411SOL     OW 7236   3.973   1.785   3.103
 2411SOL    HW1 7237   4.030   1.720   3.153
 2411SOL    HW2 7238   3.957   1.752   3.010
 2412SOL     OW 7239   4.106   0.700   2.342
 2412SOL    HW1 7240   4.151   0.610   2.339
 2412SOL    HW2 7241   4.012   0.689   2.375
 2413SOL     OW 7242   4.338   0.122   1.979
 2413SOL    HW1 7243   4.436   0.100   1.986
 2413SOL    HW2 7244   4.307   0.105   1.886
 2414SOL     OW 7245   4.263   0.064   2.374
 2414SOL    HW1 7246   4.182   0.065   2.432
 2414SOL    HW2 7247   4.266   0.147   2.319
 2415SOL     OW 7248   4.021   0.035   2.033
 2415SOL    HW1 7249   4.070   0.119   2.012
 2415SOL    HW2 7250   4.083  -0.030   2.078
 2416SOL     OW 7251   4.659   0.236   2.342
 2416SOL    HW1 7252   4.611   0.277   2.264
 2416SOL    HW2 7253   4.758   0.234   2.323
 2417SOL     OW 7254   4.183   1.152   2.603
 2417SOL    HW1 7255   4.112   1.125   2.668
 2417SOL    HW2 7256   4.157   1.124   2.510
 2418SOL     OW 7257   3.802   0.556   3.248
 2418SOL    HW1 7258   3.894   0.555   3.207
 2418SOL    HW2 7259   3.796   0.630   3.315
 2419SOL     OW 7260   4.285   0.222   3.009
 2419SOL    HW1 7261   4.323   0.138   3.046
 2419SOL    HW2 7262   4.197   0.241   3.053
 2420SOL     OW 7263   4.251   0.256   2.190
 2420SOL    HW1 7264   4.278   0.197   2.115
 2420SOL    HW2 7265   4.251   0.351   2.159
 2421SOL     OW 7266   4.704   1.116   3.581
 2421SOL    HW1 7267   4.605   1.122   3.591
 2421SOL    HW2 7268   4.727   1.036   3.525
 2422SOL     OW 7269   4.134   0.813   3.113
 2422SOL    HW1 7270   4.220   0.825   3.163
 2422SOL    HW2 7271   4.092   0.726   3.140
 2423SOL     OW 7272   3.788   1.564   3.193
 2423SOL    HW1 7273   3.742   1.646   3.159
 2423SOL    HW2 7274   3.886   1.583   3.202
 2424SOL     OW 7275   4.091   1.100   2.363
 2424SOL    HW1 7276   4.084   1.183   2.307
 2424SOL    HW2 7277   4.095   1.020   2.303
 2425SOL     OW 7278   4.290   0.537   2.727
 2425SOL    HW1 7279   4.302   0.603   2.653
 2425SOL    HW2 7280   4.336   0.571   2.810
 2426SOL     OW 7281   4.078   1.510   3.191
 2426SOL    HW1 7282   4.057   1.466   3.104
 2426SOL    HW2 7283   4.175   1.536   3.194
 2427SOL     OW 7284   4.126   0.751   3.460
 2427SOL    HW1 7285   4.194   0.806   3.413
 2427SOL    HW2 7286   4.166   0.663   3.487
 2428SOL     OW 7287   4.228   0.050   3.602
 2428SOL    HW1 7288   4.186  -0.007   3.532
 2428SOL    HW2 7289   4.162   0.119   3.634
 2429SOL     OW 7290   4.297   0.870   2.891
 2429SOL    HW1 7291   4.341   0.959   2.882
 2429SOL    HW2 7292   4.234   0.870   2.968
 2430SOL     OW 7293   4.031   0.213   3.093
 2430SOL    HW1 7294   4.008   0.250   3.183
 2430SOL    HW2 7295   4.001   0.118   3.087
 2431SOL     OW 7296   3.761   1.310   3.144
 2431SOL    HW1 7297   3.814   1.261   3.212
 2431SOL    HW2 7298   3.783   1.408   3.149
 2432SOL     OW 7299   4.031   0.063   2.480
 2432SOL    HW1 7300   4.020   0.157   2.513
 2432SOL    HW2 7301   4.026   0.000   2.557
 2433SOL     OW 7302   4.074   0.898   3.666
 2433SOL    HW1 7303   4.150   0.942   3.714
 2433SOL    HW2 7304   4.109   0.851   3.584
 2434SOL     OW 7305   4.043   0.810   2.811
 2434SOL    HW1 7306   4.136   0.846   2.816
 2434SOL    HW2 7307   4.037   0.725   2.863
 2435SOL     OW 7308   4.063   0.509   2.868
 2435SOL    HW1 7309   4.011   0.426   2.851
 2435SOL    HW2 7310   4.140   0.514   2.804
 2436SOL     OW 7311   3.732   1.326   2.062
 2436SOL    HW1 7312   3.639   1.347   2.031
 2436SOL    HW2 7313   3.742   1.227   2.075
 2437SOL     OW 7314   3.812   1.801   2.789
 2437SOL    HW1 7315   3.770   1.715   2.762
 2437SOL    HW2 7316   3.906   1.804   2.755
 2438SOL     OW 7317   4.228   1.568   2.772
 2438SOL    HW1 7318   4.294   1.642   2.781
 2438SOL    HW2 7319   4.272   1.489   2.730
 2439SOL     OW 7320   3.764   0.544   2.976
 2439SOL    HW1 7321   3.849   0.511   2.935
 2439SOL    HW2 7322   3.777   0.559   3.074
 2440SOL     OW 7323   3.913   0.520   3.584
 2440SOL    HW1 7324   3.972   0.480   3.514
 2440SOL    HW2 7325   3.855   0.591   3.543
 2441SOL     OW 7326   4.539   0.572   2.187
 2441SOL    HW1 7327   4.546   0.483   2.141
 2441SOL    HW2 7328   4.445   0.606   2.179
 2442SOL     OW 7329   3.976   1.564   3.606
 2442SOL    HW1 7330   3.946   1.621   3.682
 2442SOL    HW2 7331   3.969   1.467   3.632
 2443SOL     OW 7332   4.197   0.500   2.053
 2443SOL    HW1 7333   4.258   0.580   2.057
 2443SOL    HW2 7334   4.102   0.531   2.060
 2444SOL     OW 7335   3.883   1.137   3.328
 2444SOL    HW1 7336   3.905   1.076   3.404
 2444SOL    HW2 7337   3.893   1.088   3.242
 2445SOL     OW 7338   3.807   1.258   2.884
 2445SOL    HW1 7339   3.802   1.257   2.984
 2445SOL    HW2 7340   3.724   1.217   2.846
 2446SOL     OW 7341   4.412   1.662   3.578
 2446SOL    HW1 7342   4.356   1.743   3.587
 2446SOL    HW2 7343   4.464   1.666   3.492
 2447SOL     OW 7344   3.854   1.794   3.713
 2447SOL    HW1 7345   3.813   1.720   3.766
 2447SOL    HW2 7346   3.918   1.845   3.771
 2448SOL     OW 7347   3.987   0.326   2.582
 2448SOL    HW1 7348   3.908   0.377   2.548
 2448SOL    HW2 7349   3.978   0.311   2.680
 2449SOL     OW 7350   4.096   1.288   3.352
 2449SOL    HW1 7351   4.083   1.381   3.318
 2449SOL    HW2 7352   4.012   1.236   3.339
 2450SOL     OW 7353   4.314   1.487   2.353
 2450SOL    HW1 7354   4.356   1.429   2.283
 2450SOL    HW2 7355   4.270   1.566   2.309
 2451SOL     OW 7356   3.979   1.348   2.152
 2451SOL    HW1 7357   3.883   1.349   2.125
 2451SOL    HW2 7358   3.991   1.401   2.236
 2452SOL     OW 7359   3.829   1.013   3.588
 2452SOL    HW1 7360   3.752   0.980   3.642
 2452SOL    HW2 7361   3.914   0.983   3.630
 2453SOL     OW 7362   3.799   0.345   1.895
 2453SOL    HW1 7363   3.707   0.317   1.866
 2453SOL    HW2 7364   3.830   0.422   1.839
 2454SOL     OW 7365   3.796   0.166   2.180
 2454SOL    HW1 7366   3.779   0.249   2.126
 2454SOL    HW2 7367   3.886   0.129   2.158
 2455SOL     OW 7368   4.337   0.842   3.293
 2455SOL    HW1 7369   4.393   0.923   3.276
 2455SOL    HW2 7370   4.396   0.762   3.296
 2456SOL     OW 7371   4.114   1.741   3.422
 2456SOL    HW1 7372   4.023   1.782   3.420
 2456SOL    HW2 7373   4.107   1.647   3.454
 2457SOL     OW 7374   4.318   0.745   2.514
 2457SOL    HW1 7375   4.368   0.830   2.495
 2457SOL    HW2 7376   4.230   0.747   2.466
 2458SOL     OW 7377   3.945   1.314   3.706
 2458SOL    HW1 7378   3.880   1.241   3.685
 2458SOL    HW2 7379   3.949   1.328   3.804
 2459SOL     OW 7380   3.803   1.240   2.515
 2459SOL    HW1 7381   3.802   1.193   2.603
 2459SOL    HW2 7382   3.885   1.212   2.464
 2460SOL     OW 7383   4.396   1.391   3.486
 2460SOL    HW1 7384   4.318   1.341   3.524
 2460SOL    HW2 7385   4.393   1.486   3.517
 2461SOL     OW 7386   4.152   0.424   2.382
 2461SOL    HW1 7387   4.182   0.352   2.320
 2461SOL    HW2 7388   4.113   0.384   2.465
 2462SOL     OW 7389   4.041   0.547   3.142
 2462SOL    HW1 7390   4.079   0.488   3.214
 2462SOL    HW2 7391   4.081   0.521   3.054
 2463SOL     OW 7392   3.763   1.077   2.162
 2463SOL    HW1 7393   3.862   1.066   2.153
 2463SOL    HW2 7394   3.723   0.991   2.194
 2464SOL     OW 7395   3.954   0.628   3.837
 2464SOL    HW1 7396   3.861   0.626   3.874
 2464SOL    HW2 7397   3.955   0.589   3.745
 2465SOL     OW 7398   3.955   1.713   4.207
 2465SOL    HW1 7399   3.989   1.790   4.261
 2465SOL    HW2 7400   3.999   1.713   4.117
 2466SOL     OW 7401   3.954   1.434   4.262
 2466SOL    HW1 7402   3.928   1.530   4.262
 2466SOL    HW2 7403   3.883   1.380   4.307
 2467SOL     OW 7404   3.846   0.643   4.287
 2467SOL    HW1 7405   3.801   0.555   4.304
 2467SOL    HW2 7406   3.845   0.697   4.371
 2468SOL     OW 7407   3.751   1.596   3.841
 2468SOL    HW1 7408   3.732   1.500   3.862
 2468SOL    HW2 7409   3.718   1.654   3.916
 2469SOL     OW 7410   4.322   0.729   3.994
 2469SOL    HW1 7411   4.346   0.798   3.926
 2469SOL    HW2 7412   4.244   0.762   4.048
 2470SOL     OW 7413   3.800   0.811   4.513
 2470SOL    HW1 7414   3.899   0.799   4.522
 2470SOL    HW2 7415   3.776   0.906   4.534
 2471SOL     OW 7416   4.589   0.348   3.919
 2471SOL    HW1 7417   4.648   0.411   3.870
 2471SOL    HW2 7418   4.608   0.254   3.890
 2472SOL     OW 7419   4.045   0.943   3.966
 2472SOL    HW1 7420   4.127   0.982   3.924
 2472SOL    HW2 7421   4.018   0.861   3.917
 2473SOL     OW 7422   4.188   1.743   4.047
 2473SOL    HW1 7423   4.221   1.782   4.133
 2473SOL    HW2 7424   4.264   1.736   3.982
 2474SOL     OW 7425   4.106   0.700   4.204
 2474SOL    HW1 7426   4.151   0.610   4.201
 2474SOL    HW2 7427   4.012   0.689   4.237
 2475SOL     OW 7428   4.338   0.122   3.841
 2475SOL    HW1 7429   4.436   0.100   3.848
 2475SOL    HW2 7430   4.307   0.105   3.748
 2476SOL     OW 7431   4.263   0.064   4.236
 2476SOL    HW1 7432   4.182   0.065   4.294
 2476SOL    HW2 7433   4.266   0.147   4.181
 2477SOL     OW 7434   4.021   0.035   3.895
 2477SOL    HW1 7435   4.070   0.119   3.874
 2477SOL    HW2 7436   4.083  -0.030   3.940
 2478SOL     OW 7437   4.659   0.236   4.204
 2478SOL    HW1 7438   4.611   0.277   4.126
 2478SOL    HW2 7439   4.758   0.234   4.185
 2479SOL     OW 7440   4.183   1.152   4.465
 2479SOL    HW1 7441   4.112   1.125   4.530
 2479SOL    HW2 7442   4.157   1.124   4.372
 2480SOL     OW 7443   4.251   0.256   4.052
 2480SOL    HW1 7444   4.278   0.197   3.977
 2480SOL    HW2 7445   4.251   0.351   4.021
 2481SOL     OW 7446   4.091   1.100   4.225
 2481SOL    HW1 7447   4.084   1.183   4.169
 2481SOL    HW2 7448   4.095   1.020   4.165
 2482SOL     OW 7449   3.732   1.326   3.924
 2482SOL    HW1 7450   3.639   1.347   3.893
 2482SOL    HW2 7451   3.742   1.227   3.937
 2483SOL     OW 7452   4.539   0.572   4.049
 2483SOL    HW1 7453   4.546   0.483   4.003
 2483SOL    HW2 7454   4.445   0.606   4.041
 2484SOL     OW 7455   4.197   0.500   3.915
 2484SOL    HW1 7456   4.258   0.580   3.919
 2484SOL    HW2 7457   4.102   0.531   3.922
 2485SOL     OW 7458   4.314   1.487   4.215
 2485SOL    HW1 7459   4.356   1.429   4.145
 2485SOL    HW2 7460   4.270   1.566   4.171
 2486SOL     OW 7461   3.979   1.348   4.014
 2486SOL    HW1 7462   3.883   1.349   3.987
 2486SOL    HW2 7463   3.991   1.401   4.098
 2487SOL     OW 7464   3.799   0.345   3.757
 2487SOL    HW1 7465   3.707   0.317   3.728
 2487SOL    HW2 7466   3.830   0.422   3.701
 2488SOL     OW 7467   3.796   0.166   4.042
 2488SOL    HW1 7468   3.779   0.249   3.988
 2488SOL    HW2 7469   3.886   0.129   4.020
 2489SOL     OW 7470   4.318   0.745   4.376
 2489SOL    HW1 7471   4.368   0.830   4.357
 2489SOL    HW2 7472   4.230   0.747   4.328
 2490SOL     OW 7473   3.803   1.240   4.377
 2490SOL    HW1 7474   3.802   1.193   4.465
 2490SOL    HW2 7475   3.885   1.212   4.326
 2491SOL     OW 7476   4.152   0.424   4.244
 2491SOL    HW1 7477   4.182   0.352   4.182
 2491SOL    HW2 7478   4.113   0.384   4.327
 2492SOL     OW 7479   3.763   1.077   4.024
 2492SOL    HW1 7480   3.862   1.066   4.015
 2492SOL    HW2 7481   3.723   0.991   4.056
 2493SOL     OW 7482   3.954   2.490   0.113
 2493SOL    HW1 7483   3.861   2.488   0.150
 2493SOL    HW2 7484   3.955   2.451   0.021
 2494SOL     OW 7485   3.949   2.137   0.996
 2494SOL    HW1 7486   3.984   2.120   1.088
 2494SOL    HW2 7487   3.861   2.092   0.984
 2495SOL     OW 7488   3.743   2.230   0.647
 2495SOL    HW1 7489   3.661   2.273   0.686
 2495SOL    HW2 7490   3.715   2.157   0.584
 2496SOL     OW 7491   4.574   2.660   1.823
 2496SOL    HW1 7492   4.570   2.736   1.888
 2496SOL    HW2 7493   4.596   2.696   1.732
 2497SOL     OW 7494   4.059   3.297   1.061
 2497SOL    HW1 7495   3.981   3.266   1.008
 2497SOL    HW2 7496   4.117   3.355   1.004
 2498SOL     OW 7497   4.162   2.254   1.499
 2498SOL    HW1 7498   4.244   2.198   1.508
 2498SOL    HW2 7499   4.081   2.196   1.503
 2499SOL     OW 7500   3.955   3.575   0.483
 2499SOL    HW1 7501   3.989   3.652   0.537
 2499SOL    HW2 7502   3.999   3.575   0.393
 2500SOL     OW 7503   3.954   3.296   0.538
 2500SOL    HW1 7504   3.928   3.392   0.538
 2500SOL    HW2 7505   3.883   3.242   0.583
 2501SOL     OW 7506   3.964   2.953   0.886
 2501SOL    HW1 7507   3.978   2.869   0.938
 2501SOL    HW2 7508   3.909   3.017   0.941
 2502SOL     OW 7509   3.846   2.505   0.563
 2502SOL    HW1 7510   3.801   2.417   0.580
 2502SOL    HW2 7511   3.845   2.559   0.647
 2503SOL     OW 7512   3.751   3.458   0.117
 2503SOL    HW1 7513   3.732   3.362   0.138
 2503SOL    HW2 7514   3.718   3.516   0.192
 2504SOL     OW 7515   3.837   2.599   1.597
 2504SOL    HW1 7516   3.925   2.586   1.642
 2504SOL    HW2 7517   3.824   2.696   1.575
 2505SOL     OW 7518   4.337   3.227   0.726
 2505SOL    HW1 7519   4.288   3.140   0.735
 2505SOL    HW2 7520   4.314   3.270   0.639
 2506SOL     OW 7521   3.921   2.838   1.264
 2506SOL    HW1 7522   4.010   2.793   1.250
 2506SOL    HW2 7523   3.848   2.773   1.245
 2507SOL     OW 7524   4.041   2.113   1.801
 2507SOL    HW1 7525   4.112   2.184   1.807
 2507SOL    HW2 7526   3.953   2.152   1.829
 2508SOL     OW 7527   3.800   2.673   0.789
 2508SOL    HW1 7528   3.899   2.661   0.798
 2508SOL    HW2 7529   3.776   2.768   0.810
 2509SOL     OW 7530   3.854   3.683   1.571
 2509SOL    HW1 7531   3.844   3.668   1.670
 2509SOL    HW2 7532   3.768   3.719   1.535
 2510SOL     OW 7533   4.589   2.210   0.195
 2510SOL    HW1 7534   4.648   2.273   0.146
 2510SOL    HW2 7535   4.608   2.116   0.166
 2511SOL     OW 7536   4.274   2.058   0.885
 2511SOL    HW1 7537   4.269   2.053   0.985
 2511SOL    HW2 7538   4.276   2.154   0.856
 2512SOL     OW 7539   4.075   3.663   0.853
 2512SOL    HW1 7540   4.125   3.577   0.859
 2512SOL    HW2 7541   4.140   3.740   0.850
 2513SOL     OW 7542   4.045   2.805   0.242
 2513SOL    HW1 7543   4.127   2.844   0.200
 2513SOL    HW2 7544   4.018   2.723   0.193
 2514SOL     OW 7545   4.185   3.128   1.727
 2514SOL    HW1 7546   4.135   3.129   1.641
 2514SOL    HW2 7547   4.122   3.110   1.803
 2515SOL     OW 7548   3.926   2.147   1.498
 2515SOL    HW1 7549   3.846   2.207   1.485
 2515SOL    HW2 7550   3.916   2.098   1.584
 2516SOL     OW 7551   4.188   3.605   0.323
 2516SOL    HW1 7552   4.221   3.644   0.409
 2516SOL    HW2 7553   4.264   3.598   0.258
 2517SOL     OW 7554   3.973   3.647   1.241
 2517SOL    HW1 7555   4.030   3.582   1.291
 2517SOL    HW2 7556   3.957   3.614   1.148
 2518SOL     OW 7557   4.106   2.562   0.480
 2518SOL    HW1 7558   4.151   2.472   0.477
 2518SOL    HW2 7559   4.012   2.551   0.513
 2519SOL     OW 7560   4.338   1.984   0.117
 2519SOL    HW1 7561   4.436   1.962   0.124
 2519SOL    HW2 7562   4.307   1.967   0.024
 2520SOL     OW 7563   4.263   1.926   0.512
 2520SOL    HW1 7564   4.182   1.927   0.570
 2520SOL    HW2 7565   4.266   2.009   0.457
 2521SOL     OW 7566   4.021   1.897   0.171
 2521SOL    HW1 7567   4.070   1.981   0.150
 2521SOL    HW2 7568   4.083   1.832   0.216
 2522SOL     OW 7569   4.659   2.098   0.480
 2522SOL    HW1 7570   4.611   2.139   0.402
 2522SOL    HW2 7571   4.758   2.096   0.461
 2523SOL     OW 7572   4.183   3.014   0.741
 2523SOL    HW1 7573   4.112   2.987   0.806
 2523SOL    HW2 7574   4.157   2.986   0.648
 2524SOL     OW 7575   3.802   2.418   1.386
 2524SOL    HW1 7576   3.894   2.417   1.345
 2524SOL    HW2 7577   3.796   2.492   1.453
 2525SOL     OW 7578   4.285   2.084   1.147
 2525SOL    HW1 7579   4.323   2.000   1.184
 2525SOL    HW2 7580   4.197   2.103   1.191
 2526SOL     OW 7581   4.251   2.118   0.328
 2526SOL    HW1 7582   4.278   2.059   0.253
 2526SOL    HW2 7583   4.251   2.213   0.297
 2527SOL     OW 7584   4.704   2.978   1.719
 2527SOL    HW1 7585   4.605   2.984   1.729
 2527SOL    HW2 7586   4.727   2.898   1.663
 2528SOL     OW 7587   4.134   2.675   1.251
 2528SOL    HW1 7588   4.220   2.687   1.301
 2528SOL    HW2 7589   4.092   2.588   1.278
 2529SOL     OW 7590   3.788   3.426   1.331
 2529SOL    HW1 7591   3.742   3.508   1.297
 2529SOL    HW2 7592   3.886   3.445   1.340
 2530SOL     OW 7593   4.091   2.962   0.501
 2530SOL    HW1 7594   4.084   3.045   0.445
 2530SOL    HW2 7595   4.095   2.882   0.441
 2531SOL     OW 7596   4.290   2.399   0.865
 2531SOL    HW1 7597   4.302   2.465   0.791
 2531SOL    HW2 7598   4.336   2.433   0.948
 2532SOL     OW 7599   4.078   3.372   1.329
 2532SOL    HW1 7600   4.057   3.328   1.242
 2532SOL    HW2 7601   4.175   3.398   1.332
 2533SOL     OW 7602   4.126   2.613   1.598
 2533SOL    HW1 7603   4.194   2.668   1.551
 2533SOL    HW2 7604   4.166   2.525   1.625
 2534SOL     OW 7605   4.228   1.912   1.740
 2534SOL    HW1 7606   4.186   1.855   1.670
 2534SOL    HW2 7607   4.162   1.981   1.772
 2535SOL     OW 7608   4.297   2.732   1.029
 2535SOL    HW1 7609   4.341   2.821   1.020
 2535SOL    HW2 7610   4.234   2.732   1.106
 2536SOL     OW 7611   4.031   2.075   1.231
 2536SOL    HW1 7612   4.008   2.112   1.321
 2536SOL    HW2 7613   4.001   1.980   1.225
 2537SOL     OW 7614   3.761   3.172   1.282
 2537SOL    HW1 7615   3.814   3.123   1.350
 2537SOL    HW2 7616   3.783   3.270   1.287
 2538SOL     OW 7617   4.031   1.925   0.618
 2538SOL    HW1 7618   4.020   2.019   0.651
 2538SOL    HW2 7619   4.026   1.862   0.695
 2539SOL     OW 7620   4.074   2.760   1.804
 2539SOL    HW1 7621   4.150   2.804   1.852
 2539SOL    HW2 7622   4.109   2.713   1.722
 2540SOL     OW 7623   4.043   2.672   0.949
 2540SOL    HW1 7624   4.136   2.708   0.954
 2540SOL    HW2 7625   4.037   2.587   1.001
 2541SOL     OW 7626   4.063   2.371   1.006
 2541SOL    HW1 7627   4.011   2.288   0.989
 2541SOL    HW2 7628   4.140   2.376   0.942
 2542SOL     OW 7629   3.732   3.188   0.200
 2542SOL    HW1 7630   3.639   3.209   0.169
 2542SOL    HW2 7631   3.742   3.089   0.213
 2543SOL     OW 7632   3.812   3.663   0.927
 2543SOL    HW1 7633   3.770   3.577   0.900
 2543SOL    HW2 7634   3.906   3.666   0.893
 2544SOL     OW 7635   4.228   3.430   0.910
 2544SOL    HW1 7636   4.294   3.504   0.919
 2544SOL    HW2 7637   4.272   3.351   0.868
 2545SOL     OW 7638   3.764   2.406   1.114
 2545SOL    HW1 7639   3.849   2.373   1.073
 2545SOL    HW2 7640   3.777   2.421   1.212
 2546SOL     OW 7641   3.913   2.382   1.722
 2546SOL    HW1 7642   3.972   2.342   1.652
 2546SOL    HW2 7643   3.855   2.453   1.681
 2547SOL     OW 7644   4.539   2.434   0.325
 2547SOL    HW1 7645   4.546   2.345   0.279
 2547SOL    HW2 7646   4.445   2.468   0.317
 2548SOL     OW 7647   3.976   3.426   1.744
 2548SOL    HW1 7648   3.946   3.483   1.820
 2548SOL    HW2 7649   3.969   3.329   1.770
 2549SOL     OW 7650   4.197   2.362   0.191
 2549SOL    HW1 7651   4.258   2.442   0.195
 2549SOL    HW2 7652   4.102   2.393   0.198
 2550SOL     OW 7653   3.883   2.999   1.466
 2550SOL    HW1 7654   3.905   2.938   1.542
 2550SOL    HW2 7655   3.893   2.950   1.380
 2551SOL     OW 7656   3.807   3.120   1.022
 2551SOL    HW1 7657   3.802   3.119   1.122
 2551SOL    HW2 7658   3.724   3.079   0.984
 2552SOL     OW 7659   4.412   3.524   1.716
 2552SOL    HW1 7660   4.356   3.605   1.725
 2552SOL    HW2 7661   4.464   3.528   1.630
 2553SOL     OW 7662   3.854   3.656   1.851
 2553SOL    HW1 7663   3.813   3.582   1.904
 2553SOL    HW2 7664   3.918   3.707   1.909
 2554SOL     OW 7665   3.987   2.188   0.720
 2554SOL    HW1 7666   3.908   2.239   0.686
 2554SOL    HW2 7667   3.978   2.173   0.818
 2555SOL     OW 7668   4.096   3.150   1.490
 2555SOL    HW1 7669   4.083   3.243   1.456
 2555SOL    HW2 7670   4.012   3.098   1.477
 2556SOL     OW 7671   4.314   3.349   0.491
 2556SOL    HW1 7672   4.356   3.291   0.421
 2556SOL    HW2 7673   4.270   3.428   0.447
 2557SOL     OW 7674   3.979   3.210   0.290
 2557SOL    HW1 7675   3.883   3.211   0.263
 2557SOL    HW2 7676   3.991   3.263   0.374
 2558SOL     OW 7677   3.829   2.875   1.726
 2558SOL    HW1 7678   3.752   2.842   1.780
 2558SOL    HW2 7679   3.914   2.845   1.768
 2559SOL     OW 7680   3.799   2.207   0.033
 2559SOL    HW1 7681   3.707   2.179   0.004
 2559SOL    HW2 7682   3.830   2.284  -0.023
 2560SOL     OW 7683   3.796   2.028   0.318
 2560SOL    HW1 7684   3.779   2.111   0.264
 2560SOL    HW2 7685   3.886   1.991   0.296
 2561SOL     OW 7686   4.337   2.704   1.431
 2561SOL    HW1 7687   4.393   2.785   1.414
 2561SOL    HW2 7688   4.396   2.624   1.434
 2562SOL     OW 7689   4.114   3.603   1.560
 2562SOL    HW1 7690   4.023   3.644   1.558
 2562SOL    HW2 7691   4.107   3.509   1.592
 2563SOL     OW 7692   4.318   2.607   0.652
 2563SOL    HW1 7693   4.368   2.692   0.633
 2563SOL    HW2 7694   4.230   2.609   0.604
 2564SOL     OW 7695   3.945   3.176   1.844
 2564SOL    HW1 7696   3.880   3.103   1.823
 2564SOL    HW2 7697   3.949   3.190   1.942
 2565SOL     OW 7698   3.803   3.102   0.653
 2565SOL    HW1 7699   3.802   3.055   0.741
 2565SOL    HW2 7700   3.885   3.074   0.602
 2566SOL     OW 7701   4.396   3.253   1.624
 2566SOL    HW1 7702   4.318   3.203   1.662
 2566SOL    HW2 7703   4.393   3.348   1.655
 2567SOL     OW 7704   4.152   2.286   0.520
 2567SOL    HW1 7705   4.182   2.214   0.458
 2567SOL    HW2 7706   4.113   2.246   0.603
 2568SOL     OW 7707   4.041   2.409   1.280
 2568SOL    HW1 7708   4.079   2.350   1.352
 2568SOL    HW2 7709   4.081   2.383   1.192
 2569SOL     OW 7710   3.763   2.939   0.300
 2569SOL    HW1 7711   3.862   2.928   0.291
 2569SOL    HW2 7712   3.723   2.853   0.332
 2570SOL     OW 7713   3.954   2.490   1.975
 2570SOL    HW1 7714   3.861   2.488   2.012
 2570SOL    HW2 7715   3.955   2.451   1.883
 2571SOL     OW 7716   3.949   2.137   2.858
 2571SOL    HW1 7717   3.984   2.120   2.950
 2571SOL    HW2 7718   3.861   2.092   2.846
 2572SOL     OW 7719   3.743   2.230   2.509
 2572SOL    HW1 7720   3.661   2.273   2.548
 2572SOL    HW2 7721   3.715   2.157   2.446
 2573SOL     OW 7722   4.574   2.660   3.685
 2573SOL    HW1 7723   4.570   2.736   3.750
 2573SOL    HW2 7724   4.596   2.696   3.594
 2574SOL     OW 7725   4.059   3.297   2.923
 2574SOL    HW1 7726   3.981   3.266   2.870
 2574SOL    HW2 7727   4.117   3.355   2.866
 2575SOL     OW 7728   4.162   2.254   3.361
 2575SOL    HW1 7729   4.244   2.198   3.370
 2575SOL    HW2 7730   4.081   2.196   3.365
 2576SOL     OW 7731   3.955   3.575   2.345
 2576SOL    HW1 7732   3.989   3.652   2.399
 2576SOL    HW2 7733   3.999   3.575   2.255
 2577SOL     OW 7734   3.954   3.296   2.400
 2577SOL    HW1 7735   3.928   3.392   2.400
 2577SOL    HW2 7736   3.883   3.242   2.445
 2578SOL     OW 7737   3.964   2.953   2.748
 2578SOL    HW1 7738   3.978   2.869   2.800
 2578SOL    HW2 7739   3.909   3.017   2.803
 2579SOL     OW 7740   3.846   2.505   2.425
 2579SOL    HW1 7741   3.801   2.417   2.442
 2579SOL    HW2 7742   3.845   2.559   2.509
 2580SOL     OW 7743   3.751   3.458   1.979
 2580SOL    HW1 7744   3.732   3.362   2.000
 2580SOL    HW2 7745   3.718   3.516   2.054
 2581SOL     OW 7746   3.837   2.599   3.459
 2581SOL    HW1 7747   3.925   2.586   3.504
 2581SOL    HW2 7748   3.824   2.696   3.437
 2582SOL     OW 7749   4.337   3.227   2.588
 2582SOL    HW1 7750   4.288   3.140   2.597
 2582SOL    HW2 7751   4.314   3.270   2.501
 2583SOL     OW 7752   3.921   2.838   3.126
 2583SOL    HW1 7753   4.010   2.793   3.112
 2583SOL    HW2 7754   3.848   2.773   3.107
 2584SOL     OW 7755   4.041   2.113   3.663
 2584SOL    HW1 7756   4.112   2.184   3.669
 2584SOL    HW2 7757   3.953   2.152   3.691
 2585SOL     OW 7758   4.322   2.591   2.132
 2585SOL    HW1 7759   4.346   2.660   2.064
 2585SOL    HW2 7760   4.244   2.624   2.186
 2586SOL     OW 7761   3.800   2.673   2.651
 2586SOL    HW1 7762   3.899   2.661   2.660
 2586SOL    HW2 7763   3.776   2.768   2.672
 2587SOL     OW 7764   3.854   3.683   3.433
 2587SOL    HW1 7765   3.844   3.668   3.532
 2587SOL    HW2 7766   3.768   3.719   3.397
 2588SOL     OW 7767   4.589   2.210   2.057
 2588SOL    HW1 7768   4.648   2.273   2.008
 2588SOL    HW2 7769   4.608   2.116   2.028
 2589SOL     OW 7770   4.274   2.058   2.747
 2589SOL    HW1 7771   4.269   2.053   2.847
 2589SOL    HW2 7772   4.276   2.154   2.718
 2590SOL     OW 7773   4.075   3.663   2.715
 2590SOL    HW1 7774   4.125   3.577   2.721
 2590SOL    HW2 7775   4.140   3.740   2.712
 2591SOL     OW 7776   4.045   2.805   2.104
 2591SOL    HW1 7777   4.127   2.844   2.062
 2591SOL    HW2 7778   4.018   2.723   2.055
 2592SOL     OW 7779   4.185   3.128   3.589
 2592SOL    HW1 7780   4.135   3.129   3.503
 2592SOL    HW2 7781   4.122   3.110   3.665
 2593SOL     OW 7782   3.926   2.147   3.360
 2593SOL    HW1 7783   3.846   2.207   3.347
 2593SOL    HW2 7784   3.916   2.098   3.446
 2594SOL     OW 7785   4.188   3.605   2.185
 2594SOL    HW1 7786   4.221   3.644   2.271
 2594SOL    HW2 7787   4.264   3.598   2.120
 2595SOL     OW 7788   3.973   3.647   3.103
 2595SOL    HW1 7789   4.030   3.582   3.153
 2595SOL    HW2 7790   3.957   3.614   3.010
 2596SOL     OW 7791   4.106   2.562   2.342
 2596SOL    HW1 7792   4.151   2.472   2.339
 2596SOL    HW2 7793   4.012   2.551   2.375
 2597SOL     OW 7794   4.338   1.984   1.979
 2597SOL    HW1 7795   4.436   1.962   1.986
 2597SOL    HW2 7796   4.307   1.967   1.886
 2598SOL     OW 7797   4.263   1.926   2.374
 2598SOL    HW1 7798   4.182   1.927   2.432
 2598SOL    HW2 7799   4.266   2.009   2.319
 2599SOL     OW 7800   4.021   1.897   2.033
 2599SOL    HW1 7801   4.070   1.981   2.012
 2599SOL    HW2 7802   4.083   1.832   2.078
 2600SOL     OW 7803   4.659   2.098   2.342
 2600SOL    HW1 7804   4.611   2.139   2.264
 2600SOL    HW2 7805   4.758   2.096   2.323
 2601SOL     OW 7806   4.183   3.014   2.603
 2601SOL    HW1 7807   4.112   2.987   2.668
 2601SOL    HW2 7808   4.157   2.986   2.510
 2602SOL     OW 7809   3.802   2.418   3.248
 2602SOL    HW1 7810   3.894   2.417   3.207
 2602SOL    HW2 7811   3.796   2.492   3.315
 2603SOL     OW 7812   4.285   2.084   3.009
 2603SOL    HW1 7813   4.323   2.000   3.046
 2603SOL    HW2 7814   4.197   2.103   3.053
 2604SOL     OW 7815   4.251   2.118   2.190
 2604SOL    HW1 7816   4.278   2.059   2.115
 2604SOL    HW2 7817   4.251   2.213   2.159
 2605SOL     OW 7818   4.704   2.978   3.581
 2605SOL    HW1 7819   4.605   2.984   3.591
 2605SOL    HW2 7820   4.727   2.898   3.525
 2606SOL     OW 7821   4.134   2.675   3.113
 2606SOL    HW1 7822   4.220   2.687   3.163
 2606SOL    HW2 7823   4.092   2.588   3.140
 2607SOL     OW 7824   3.788   3.426   3.193
 2607SOL    HW1 7825   3.742   3.508   3.159
 2607SOL    HW2 7826   3.886   3.445   3.202
 2608SOL     OW 7827   4.091   2.962   2.363
 2608SOL    HW1 7828   4.084   3.045   2.307
 2608SOL    HW2 7829   4.095   2.882   2.303
 2609SOL     OW 7830   4.290   2.399   2.727
 2609SOL    HW1 7831   4.302   2.465   2.653
 2609SOL    HW2 7832   4.336   2.433   2.810
 2610SOL     OW 7833   4.078   3.372   3.191
 2610SOL    HW1 7834   4.057   3.328   3.104
 2610SOL    HW2 7835   4.175   3.398   3.194
 2611SOL     OW 7836   4.126   2.613   3.460
 2611SOL    HW1 7837   4.194   2.668   3.413
 2611SOL    HW2 7838   4.166   2.525   3.487
 2612SOL     OW 7839   4.228   1.912   3.602
 2612SOL    HW1 7840   4.186   1.855   3.532
 2612SOL    HW2 7841   4.162   1.981   3.634
 2613SOL     OW 7842   4.297   2.732   2.891
 2613SOL    HW1 7843   4.341   2.821   2.882
 2613SOL    HW2 7844   4.234   2.732   2.968
 2614SOL     OW 7845   4.031   2.075   3.093
 2614SOL    HW1 7846   4.008   2.112   3.183
 2614SOL    HW2 7847   4.001   1.980   3.087
 2615SOL     OW 7848   3.761   3.172   3.144
 2615SOL    HW1 7849   3.814   3.123   3.212
 2615SOL    HW2 7850   3.783   3.270   3.149
 2616SOL     OW 7851   4.031   1.925   2.480
 2616SOL    HW1 7852   4.020   2.019   2.513
 2616SOL    HW2 7853   4.026   1.862   2.557
 2617SOL     OW 7854   4.074   2.760   3.666
 2617SOL    HW1 7855   4.150   2.804   3.714
 2617SOL    HW2 7856   4.109   2.713   3.584
 2618SOL     OW 7857   4.043   2.672   2.811
 2618SOL    HW1 7858   4.136   2.708   2.816
 2618SOL    HW2 7859   4.037   2.587   2.863
 2619SOL     OW 7860   4.063   2.371   2.868
 2619SOL    HW1 7861   4.011   2.288   2.851
 2619SOL    HW2 7862   4.140   2.376   2.804
 2620SOL     OW 7863   3.732   3.188   2.062
 2620SOL    HW1 7864   3.639   3.209   2.031
 2620SOL    HW2 7865   3.742   3.089   2.075
 2621SOL     OW 7866   3.812   3.663   2.789
 2621SOL    HW1 7867   3.770   3.577   2.762
 2621SOL    HW2 7868   3.906   3.666   2.755
 2622SOL     OW 7869   4.228   3.430   2.772
 2622SOL    HW1 7870   4.294   3.504   2.781
 2622SOL    HW2 7871   4.272   3.351   2.730
 2623SOL     OW 7872   3.764   2.406   2.976
 2623SOL    HW1 7873   3.849   2.373   2.935
 2623SOL    HW2 7874   3.777   2.421   3.074
 2624SOL     OW 7875   3.913   2.382   3.584
 2624SOL    HW1 7876   3.972   2.342   3.514
 2624SOL    HW2 7877   3.855   2.453   3.543
 2625SOL     OW 7878   4.539   2.434   2.187
 2625SOL    HW1 7879   4.546   2.345   2.141
 2625SOL    HW2 7880   4.445   2.468   2.179
 2626SOL     OW 7881   3.976   3.426   3.606
 2626SOL    HW1 7882   3.946   3.483   3.682
 2626SOL    HW2 7883   3.969   3.329   3.632
 2627SOL     OW 7884   4.197   2.362   2.053
 2627SOL    HW1 7885   4.258   2.442   2.057
 2627SOL    HW2 7886   4.102   2.393   2.060
 2628SOL     OW 7887   3.883   2.999   3.328
 2628SOL    HW1 7888   3.905   2.938   3.404
 2628SOL    HW2 7889   3.893   2.950   3.242
 2629SOL     OW 7890   3.807   3.120   2.884
 2629SOL    HW1 7891   3.802   3.119   2.984
 2629SOL    HW2 7892   3.724   3.079   2.846
 2630SOL     OW 7893   4.412   3.524   3.578
 2630SOL    HW1 7894   4.356   3.605   3.587
 2630SOL    HW2 7895   4.464   3.528   3.492
 2631SOL     OW 7896   3.854   3.656   3.713
 2631SOL    HW1 7897   3.813   3.582   3.766
 2631SOL    HW2 7898   3.918   3.707   3.771
 2632SOL     OW 7899   3.987   2.188   2.582
 2632SOL    HW1 7900   3.908   2.239   2.548
 2632SOL    HW2 7901   3.978   2.173   2.680
 2633SOL     OW 7902   4.096   3.150   3.352
 2633SOL    HW1 7903   4.083   3.243   3.318
 2633SOL    HW2 7904   4.012   3.098   3.339
 2634SOL     OW 7905   4.314   3.349   2.353
 2634SOL    HW1 7906   4.356   3.291   2.283
 2634SOL    HW2 7907   4.270   3.428   2.309
 2635SOL     OW 7908   3.979   3.210   2.152
 2635SOL    HW1 7909   3.883   3.211   2.125
 2635SOL    HW2 7910   3.991   3.263   2.236
 2636SOL     OW 7911   3.829   2.875   3.588
 2636SOL    HW1 7912   3.752   2.842   3.642
 2636SOL    HW2 7913   3.914   2.845   3.630
 2637SOL     OW 7914   3.799   2.207   1.895
 2637SOL    HW1 7915   3.707   2.179   1.866
 2637SOL    HW2 7916   3.830   2.284   1.839
 2638SOL     OW 7917   3.796   2.028   2.180
 2638SOL    HW1 7918   3.779   2.111   2.126
 2638SOL    HW2 7919   3.886   1.991   2.158
 2639SOL     OW 7920   4.337   2.704   3.293
 2639SOL    HW1 7921   4.393   2.785   3.276
 2639SOL    HW2 7922   4.396   2.624   3.296
 2640SOL     OW 7923   4.114   3.603   3.422
 2640SOL    HW1 7924   4.023   3.644   3.420
 2640SOL    HW2 7925   4.107   3.509   3.454
 2641SOL     OW 7926   4.318   2.607   2.514
 2641SOL    HW1 7927   4.368   2.692   2.495
 2641SOL    HW2 7928   4.230   2.609   2.466
 2642SOL     OW 7929   3.945   3.176   3.706
 2642SOL    HW1 7930   3.880   3.103   3.685
 2642SOL    HW2 7931   3.949   3.190   3.804
 2643SOL     OW 7932   3.803   3.102   2.515
 2643SOL    HW1 7933   3.802   3.055   2.603
 2643SOL    HW2 7934   3.885   3.074   2.464
 2644SOL     OW 7935   4.396   3.253   3.486
 2644SOL    HW1 7936   4.318   3.203   3.524
 2644SOL    HW2 7937   4.393   3.348   3.517
 2645SOL     OW 7938   4.152   2.286   2.382
 2645SOL    HW1 7939   4.182   2.214   2.320
 2645SOL    HW2 7940   4.113   2.246   2.465
 2646SOL     OW 7941   4.041   2.409   3.142
 2646SOL    HW1 7942   4.079   2.350   3.214
 2646SOL    HW2 7943   4.081   2.383   3.054
 2647SOL     OW 7944   3.763   2.939   2.162
 2647SOL    HW1 7945   3.862   2.928   2.153
 2647SOL    HW2 7946   3.723   2.853   2.194
 2648SOL     OW 7947   3.954   2.490   3.837
 2648SOL    HW1 7948   3.861   2.488   3.874
 2648SOL    HW2 7949   3.955   2.451   3.745
 2649SOL     OW 7950   3.955   3.575   4.207
 2649SOL    HW1 7951   3.989   3.652   4.261
 2649SOL    HW2 7952   3.999   3.575   4.117
 2650SOL     OW 7953   3.954   3.296   4.262
 2650SOL    HW1 7954   3.928   3.392   4.262
 2650SOL    HW2 7955   3.883   3.242   4.307
 2651SOL     OW 7956   3.846   2.505   4.287
 2651SOL    HW1 7957   3.801   2.417   4.304
 2651SOL    HW2 7958   3.845   2.559   4.371
 2652SOL     OW 7959   3.751   3.458   3.841
 2652SOL    HW1 7960   3.732   3.362   3.862
 2652SOL    HW2 7961   3.718   3.516   3.916
 2653SOL     OW 7962   4.322   2.591   3.994
 2653SOL    HW1 7963   4.346   2.660   3.926
 2653SOL    HW2 7964   4.244   2.624   4.048
 2654SOL     OW 7965   3.800   2.673   4.513
 2654SOL    HW1 7966   3.899   2.661   4.522
 2654SOL    HW2 7967   3.776   2.768   4.534
 2655SOL     OW 7968   4.589   2.210   3.919
 2655SOL    HW1 7969   4.648   2.273   3.870
 2655SOL    HW2 7970   4.608   2.116   3.890
 2656SOL     OW 7971   4.045   2.805   3.966
 2656SOL    HW1 7972   4.127   2.844   3.924
 2656SOL    HW2 7973   4.018   2.723   3.917
 2657SOL     OW 7974   4.188   3.605   4.047
 2657SOL    HW1 7975   4.221   3.644   4.133
 2657SOL    HW2 7976   4.264   3.598   3.982
 2658SOL     OW 7977   4.106   2.562   4.204
 2658SOL    HW1 7978   4.151   2.472   4.201
 2658SOL    HW2 7979   4.012   2.551   4.237
 2659SOL     OW 7980   4.338   1.984   3.841
 2659SOL    HW1 7981   4.436   1.962   3.848
 2659SOL    HW2 7982   4.307   1.967   3.748
 2660SOL     OW 7983   4.263   1.926   4.236
 2660SOL    HW1 7984   4.182   1.927   4.294
 2660SOL    HW2 7985   4.266   2.009   4.181
 2661SOL     OW 7986   4.021   1.897   3.895
 2661SOL    HW1 7987   4.070   1.981   3.874
 2661SOL    HW2 7988   4.083   1.832   3.940
 2662SOL     OW 7989   4.659   2.098   4.204
 2662SOL    HW1 7990   4.611   2.139   4.126
 2662SOL    HW2 7991   4.758   2.096   4.185
 2663SOL     OW 7992   4.183   3.014   4.465
 2663SOL    HW1 7993   4.112   2.987   4.530
 2663SOL    HW2 7994   4.157   2.986   4.372
 2664SOL     OW 7995   4.251   2.118   4.052
 2664SOL    HW1 7996   4.278   2.059   3.977
 2664SOL    HW2 7997   4.251   2.213   4.021
 2665SOL     OW 7998   4.091   2.962   4.225
 2665SOL    HW1 7999   4.084   3.045   4.169
 2665SOL    HW2 8000   4.095   2.882   4.165
 2666SOL     OW 8001   3.732   3.188   3.924
 2666SOL    HW1 8002   3.639   3.209   3.893
 2666SOL    HW2 8003   3.742   3.089   3.937
 2667SOL     OW 8004   4.539   2.434   4.049
 2667SOL    HW1 8005   4.546   2.345   4.003
 2667SOL    HW2 8006   4.445   2.468   4.041
 2668SOL     OW 8007   4.197   2.362   3.915
 2668SOL    HW1 8008   4.258   2.442   3.919
 2668SOL    HW2 8009   4.102   2.393   3.922
 2669SOL     OW 8010   4.314   3.349   4.215
 2669SOL    HW1 8011   4.356   3.291   4.145
 2669SOL    HW2 8012   4.270   3.428   4.171
 2670SOL     OW 8013   3.979   3.210   4.014
 2670SOL    HW1 8014   3.883   3.211   3.987
 2670SOL    HW2 8015   3.991   3.263   4.098
 2671SOL     OW 8016   3.799   2.207   3.757
 2671SOL    HW1 8017   3.707   2.179   3.728
 2671SOL    HW2 8018   3.830   2.284   3.701
 2672SOL     OW 8019   3.796   2.028   4.042
 2672SOL    HW1 8020   3.779   2.111   3.988
 2672SOL    HW2 8021   3.886   1.991   4.020
 2673SOL     OW 8022   4.318   2.607   4.376
 2673SOL    HW1 8023   4.368   2.692   4.357
 2673SOL    HW2 8024   4.230   2.609   4.328
 2674SOL     OW 8025   3.803   3.102   4.377
 2674SOL    HW1 8026   3.802   3.055   4.465
 2674SOL    HW2 8027   3.885   3.074   4.326
 2675SOL     OW 8028   4.152   2.286   4.244
 2675SOL    HW1 8029   4.182   2.214   4.182
 2675SOL    HW2 8030   4.113   2.246   4.327
 2676SOL     OW 8031   3.763   2.939   4.024
 2676SOL    HW1 8032   3.862   2.928   4.015
 2676SOL    HW2 8033   3.723   2.853   4.056
 2677SOL     OW 8034   3.949   3.999   0.996
 2677SOL    HW1 8035   3.984   3.982   1.088
 2677SOL    HW2 8036   3.861   3.954   0.984
 2678SOL     OW 8037   3.743   4.092   0.647
 2678SOL    HW1 8038   3.661   4.135   0.686
 2678SOL    HW2 8039   3.715   4.019   0.584
 2679SOL     OW 8040   4.162   4.116   1.499
 2679SOL    HW1 8041   4.244   4.060   1.508
 2679SOL    HW2 8042   4.081   4.058   1.503
 2680SOL     OW 8043   3.846   4.367   0.563
 2680SOL    HW1 8044   3.801   4.279   0.580
 2680SOL    HW2 8045   3.845   4.421   0.647
 2681SOL     OW 8046   4.041   3.975   1.801
 2681SOL    HW1 8047   4.112   4.046   1.807
 2681SOL    HW2 8048   3.953   4.014   1.829
 2682SOL     OW 8049   3.800   4.535   0.789
 2682SOL    HW1 8050   3.899   4.523   0.798
 2682SOL    HW2 8051   3.776   4.630   0.810
 2683SOL     OW 8052   4.589   4.072   0.195
 2683SOL    HW1 8053   4.648   4.135   0.146
 2683SOL    HW2 8054   4.608   3.978   0.166
 2684SOL     OW 8055   4.274   3.920   0.885
 2684SOL    HW1 8056   4.269   3.915   0.985
 2684SOL    HW2 8057   4.276   4.016   0.856
 2685SOL     OW 8058   3.926   4.009   1.498
 2685SOL    HW1 8059   3.846   4.069   1.485
 2685SOL    HW2 8060   3.916   3.960   1.584
 2686SOL     OW 8061   4.338   3.846   0.117
 2686SOL    HW1 8062   4.436   3.824   0.124
 2686SOL    HW2 8063   4.307   3.829   0.024
 2687SOL     OW 8064   4.263   3.788   0.512
 2687SOL    HW1 8065   4.182   3.789   0.570
 2687SOL    HW2 8066   4.266   3.871   0.457
 2688SOL     OW 8067   4.021   3.759   0.171
 2688SOL    HW1 8068   4.070   3.843   0.150
 2688SOL    HW2 8069   4.083   3.694   0.216
 2689SOL     OW 8070   4.659   3.960   0.480
 2689SOL    HW1 8071   4.611   4.001   0.402
 2689SOL    HW2 8072   4.758   3.958   0.461
 2690SOL     OW 8073   3.802   4.280   1.386
 2690SOL    HW1 8074   3.894   4.279   1.345
 2690SOL    HW2 8075   3.796   4.354   1.453
 2691SOL     OW 8076   4.285   3.946   1.147
 2691SOL    HW1 8077   4.323   3.862   1.184
 2691SOL    HW2 8078   4.197   3.965   1.191
 2692SOL     OW 8079   4.251   3.980   0.328
 2692SOL    HW1 8080   4.278   3.921   0.253
 2692SOL    HW2 8081   4.251   4.075   0.297
 2693SOL     OW 8082   4.290   4.261   0.865
 2693SOL    HW1 8083   4.302   4.327   0.791
 2693SOL    HW2 8084   4.336   4.295   0.948
 2694SOL     OW 8085   4.228   3.774   1.740
 2694SOL    HW1 8086   4.186   3.717   1.670
 2694SOL    HW2 8087   4.162   3.843   1.772
 2695SOL     OW 8088   4.031   3.937   1.231
 2695SOL    HW1 8089   4.008   3.974   1.321
 2695SOL    HW2 8090   4.001   3.842   1.225
 2696SOL     OW 8091   4.031   3.787   0.618
 2696SOL    HW1 8092   4.020   3.881   0.651
 2696SOL    HW2 8093   4.026   3.724   0.695
 2697SOL     OW 8094   4.063   4.233   1.006
 2697SOL    HW1 8095   4.011   4.150   0.989
 2697SOL    HW2 8096   4.140   4.238   0.942
 2698SOL     OW 8097   3.764   4.268   1.114
 2698SOL    HW1 8098   3.849   4.235   1.073
 2698SOL    HW2 8099   3.777   4.283   1.212
 2699SOL     OW 8100   3.913   4.244   1.722
 2699SOL    HW1 8101   3.972   4.204   1.652
 2699SOL    HW2 8102   3.855   4.315   1.681
 2700SOL     OW 8103   4.539   4.296   0.325
 2700SOL    HW1 8104   4.546   4.207   0.279
 2700SOL    HW2 8105   4.445   4.330   0.317
 2701SOL     OW 8106   3.987   4.050   0.720
 2701SOL    HW1 8107   3.908   4.101   0.686
 2701SOL    HW2 8108   3.978   4.035   0.818
 2702SOL     OW 8109   3.799   4.069   0.033
 2702SOL    HW1 8110   3.707   4.041   0.004
 2702SOL    HW2 8111   3.830   4.146  -0.023
 2703SOL     OW 8112   3.796   3.890   0.318
 2703SOL    HW1 8113   3.779   3.973   0.264
 2703SOL    HW2 8114   3.886   3.853   0.296
 2704SOL     OW 8115   4.337   4.566   1.431
 2704SOL    HW1 8116   4.393   4.647   1.414
 2704SOL    HW2 8117   4.396   4.486   1.434
 2705SOL     OW 8118   4.152   4.148   0.520
 2705SOL    HW1 8119   4.182   4.076   0.458
 2705SOL    HW2 8120   4.113   4.108   0.603
 2706SOL     OW 8121   4.041   4.271   1.280
 2706SOL    HW1 8122   4.079   4.212   1.352
 2706SOL    HW2 8123   4.081   4.245   1.192
 2707SOL     OW 8124   3.949   3.999   2.858
 2707SOL    HW1 8125   3.984   3.982   2.950
 2707SOL    HW2 8126   3.861   3.954   2.846
 2708SOL     OW 8127   3.743   4.092   2.509
 2708SOL    HW1 8128   3.661   4.135   2.548
 2708SOL    HW2 8129   3.715   4.019   2.446
 2709SOL     OW 8130   4.162   4.116   3.361
 2709SOL    HW1 8131   4.244   4.060   3.370
 2709SOL    HW2 8132   4.081   4.058   3.365
 2710SOL     OW 8133   3.846   4.367   2.425
 2710SOL    HW1 8134   3.801   4.279   2.442
 2710SOL    HW2 8135   3.845   4.421   2.509
 2711SOL     OW 8136   4.041   3.975   3.663
 2711SOL    HW1 8137   4.112   4.046   3.669
 2711SOL    HW2 8138   3.953   4.014   3.691
 2712SOL     OW 8139   3.800   4.535   2.651
 2712SOL    HW1 8140   3.899   4.523   2.660
 2712SOL    HW2 8141   3.776   4.630   2.672
 2713SOL     OW 8142   4.589   4.072   2.057
 2713SOL    HW1 8143   4.648   4.135   2.008
 2713SOL    HW2 8144   4.608   3.978   2.028
 2714SOL     OW 8145   4.274   3.920   2.747
 2714SOL    HW1 8146   4.269   3.915   2.847
 2714SOL    HW2 8147   4.276   4.016   2.718
 2715SOL     OW 8148   3.926   4.009   3.360
 2715SOL    HW1 8149   3.846   4.069   3.347
 2715SOL    HW2 8150   3.916   3.960   3.446
 2716SOL     OW 8151   4.338   3.846   1.979
 2716SOL    HW1 8152   4.436   3.824   1.986
 2716SOL    HW2 8153   4.307   3.829   1.886
 2717SOL     OW 8154   4.263   3.788   2.374
 2717SOL    HW1 8155   4.182   3.789   2.432
 2717SOL    HW2 8156   4.266   3.871   2.319
 2718SOL     OW 8157   4.021   3.759   2.033
 2718SOL    HW1 8158   4.070   3.843   2.012
 2718SOL    HW2 8159   4.083   3.694   2.078
 2719SOL     OW 8160   4.659   3.960   2.342
 2719SOL    HW1 8161   4.611   4.001   2.264
 2719SOL    HW2 8162   4.758   3.958   2.323
 2720SOL     OW 8163   3.802   4.280   3.248
 2720SOL    HW1 8164   3.894   4.279   3.207
 2720SOL    HW2 8165   3.796   4.354   3.315
 2721SOL     OW 8166   4.285   3.946   3.009
 2721SOL    HW1 8167   4.323   3.862   3.046
 2721SOL    HW2 8168   4.197   3.965   3.053
 2722SOL     OW 8169   4.251   3.980   2.190
 2722SOL    HW1 8170   4.278   3.921   2.115
 2722SOL    HW2 8171   4.251   4.075   2.159
 2723SOL     OW 8172   4.290   4.261   2.727
 2723SOL    HW1 8173   4.302   4.327   2.653
 2723SOL    HW2 8174   4.336   4.295   2.810
 2724SOL     OW 8175   4.228   3.774   3.602
 2724SOL    HW1 8176   4.186   3.717   3.532
 2724SOL    HW2 8177   4.162   3.843   3.634
 2725SOL     OW 8178   4.031   3.937   3.093
 2725SOL    HW1 8179   4.008   3.974   3.183
 2725SOL    HW2 8180   4.001   3.842   3.087
 2726SOL     OW 8181   4.031   3.787   2.480
 2726SOL    HW1 8182   4.020   3.881   2.513
 2726SOL    HW2 8183   4.026   3.724   2.557
 2727SOL     OW 8184   4.063   4.233   2.868
 2727SOL    HW1 8185   4.011   4.150   2.851
 2727SOL    HW2 8186   4.140   4.238   2.804
 2728SOL     OW 8187   3.764   4.268   2.976
 2728SOL    HW1 8188   3.849   4.235   2.935
 2728SOL    HW2 8189   3.777   4.283   3.074
 2729SOL     OW 8190   3.913   4.244   3.584
 2729SOL    HW1 8191   3.972   4.204   3.514
 2729SOL    HW2 8192   3.855   4.315   3.543
 2730SOL     OW 8193   4.539   4.296   2.187
 2730SOL    HW1 8194   4.546   4.207   2.141
 2730SOL    HW2 8195   4.445   4.330   2.179
 2731SOL     OW 8196   3.987   4.050   2.582
 2731SOL    HW1 8197   3.908   4.101   2.548
 2731SOL    HW2 8198   3.978   4.035   2.680
 2732SOL     OW 8199   3.799   4.069   1.895
 2732SOL    HW1 8200   3.707   4.041   1.866
 2732SOL    HW2 8201   3.830   4.146   1.839
 2733SOL     OW 8202   3.796   3.890   2.180
 2733SOL    HW1 8203   3.779   3.973   2.126
 2733SOL    HW2 8204   3.886   3.853   2.158
 2734SOL     OW 8205   4.337   4.566   3.293
 2734SOL    HW1 8206   4.393   4.647   3.276
 2734SOL    HW2 8207   4.396   4.486   3.296
 2735SOL     OW 8208   4.152   4.148   2.382
 2735SOL    HW1 8209   4.182   4.076   2.320
 2735SOL    HW2 8210   4.113   4.108   2.465
 2736SOL     OW 8211   4.041   4.271   3.142
 2736SOL    HW1 8212   4.079   4.212   3.214
 2736SOL    HW2 8213   4.081   4.245   3.054
 2737SOL     OW 8214   3.846   4.367   4.287
 2737SOL    HW1 8215   3.801   4.279   4.304
 2737SOL    HW2 8216   3.845   4.421   4.371
 2738SOL     OW 8217   4.589   4.072   3.919
 2738SOL    HW1 8218   4.648   4.135   3.870
 2738SOL    HW2 8219   4.608   3.978   3.890
 2739SOL     OW 8220   4.338   3.846   3.841
 2739SOL    HW1 8221   4.436   3.824   3.848
 2739SOL    HW2 8222   4.307   3.829   3.748
 2740SOL     OW 8223   4.263   3.788   4.236
 2740SOL    HW1 8224   4.182   3.789   4.294
 2740SOL    HW2 8225   4.266   3.871   4.181
 2741SOL     OW 8226   4.021   3.759   3.895
 2741SOL    HW1 8227   4.070   3.843   3.874
 2741SOL    HW2 8228   4.083   3.694   3.940
 2742SOL     OW 8229   4.659   3.960   4.204
 2742SOL    HW1 8230   4.611   4.001   4.126
 2742SOL    HW2 8231   4.758   3.958   4.185
 2743SOL     OW 8232   4.251   3.980   4.052
 2743SOL    HW1 8233   4.278   3.921   3.977
 2743SOL    HW2 8234   4.251   4.075   4.021
 2744SOL     OW 8235   4.539   4.296   4.049
 2744SOL    HW1 8236   4.546   4.207   4.003
 2744SOL    HW2 8237   4.445   4.330   4.041
 2745SOL     OW 8238   3.799   4.069   3.757
 2745SOL    HW1 8239   3.707   4.041   3.728
 2745SOL    HW2 8240   3.830   4.146   3.701
 2746SOL     OW 8241   3.796   3.890   4.042
 2746SOL    HW1 8242   3.779   3.973   3.988
 2746SOL    HW2 8243   3.886   3.853   4.020
 2747SOL     OW 8244   4.152   4.148   4.244
 2747SOL    HW1 8245   4.182   4.076   4.182
 2747SOL    HW2 8246   4.113   4.108   4.327
   4.37230   4.37230   4.37230
