mobley_1855337_GMX.gro created by acpype (v: 2023.10.27) on Wed May 20 23:52:15 2026
   12
    1MOL     C1    1   2.208   2.369   2.236
    1MOL     C2    2   2.420   2.253   2.242
    1MOL     C3    3   2.315   2.310   2.169
    1MOL     C4    4   2.206   2.372   2.376
    1MOL     C5    5   2.418   2.256   2.381
    1MOL     C6    6   2.311   2.316   2.448
    1MOL    CL1    7   2.317   2.305   1.997
    1MOL    CL2    8   2.070   2.448   2.452
    1MOL    CL3    9   2.552   2.185   2.465
    1MOL    CL4   10   2.309   2.320   2.622
    1MOL     H1   11   2.126   2.413   2.180
    1MOL     H2   12   2.503   2.207   2.189
   4.62523   4.62523   4.62523
