mobley_8861672_GMX.gro created by acpype (v: 2023.10.27) on Wed May 20 23:44:25 2026
   17
    1MOL     C1    1   2.251   2.349   2.176
    1MOL     C2    2   2.386   2.343   2.375
    1MOL     C3    3   2.163   2.264   2.240
    1MOL     C4    4   2.365   2.389   2.246
    1MOL     C5    5   2.291   2.258   2.430
    1MOL     C6    6   2.463   2.481   2.182
    1MOL     C7    7   2.310   2.207   2.569
    1MOL     N1    8   2.180   2.217   2.365
    1MOL     H1    9   2.232   2.383   2.075
    1MOL     H2   10   2.473   2.373   2.432
    1MOL     H3   11   2.073   2.230   2.190
    1MOL     H4   12   2.566   2.444   2.198
    1MOL     H5   13   2.446   2.489   2.074
    1MOL     H6   14   2.456   2.583   2.224
    1MOL     H7   15   2.390   2.262   2.619
    1MOL     H8   16   2.218   2.217   2.628
    1MOL     H9   17   2.336   2.100   2.569
   4.65794   4.65794   4.65794
