mobley_3969312_GMX.gro created by acpype (v: 2023.10.27) on Wed May 20 23:42:48 2026
 9584
    1MOL     C1    1   2.307   2.301   2.114
    1MOL     C2    2   2.200   2.361   2.181
    1MOL     C3    3   2.412   2.245   2.186
    1MOL     C4    4   2.198   2.364   2.321
    1MOL     C5    5   2.410   2.248   2.326
    1MOL     C6    6   2.303   2.307   2.393
    1MOL     C7    7   2.301   2.310   2.538
    1MOL     O1    8   2.391   2.262   2.608
    1MOL     H1    9   2.308   2.299   2.005
    1MOL     H2   10   2.118   2.405   2.125
    1MOL     H3   11   2.495   2.198   2.134
    1MOL     H4   12   2.114   2.411   2.372
    1MOL     H5   13   2.492   2.203   2.381
    1MOL     H6   14   2.214   2.359   2.587
    2SOL     OW   15   0.230   0.628   0.113
    2SOL    HW1   16   0.137   0.626   0.150
    2SOL    HW2   17   0.231   0.589   0.021
    3SOL     OW   18   0.225   0.275   0.996
    3SOL    HW1   19   0.260   0.258   1.088
    3SOL    HW2   20   0.137   0.230   0.984
    4SOL     OW   21   0.019   0.368   0.647
    4SOL    HW1   22  -0.063   0.411   0.686
    4SOL    HW2   23  -0.009   0.295   0.584
    5SOL     OW   24   0.569   1.275   1.165
    5SOL    HW1   25   0.476   1.268   1.128
    5SOL    HW2   26   0.580   1.364   1.209
    6SOL     OW   27   1.555   1.511   0.703
    6SOL    HW1   28   1.498   1.495   0.784
    6SOL    HW2   29   1.496   1.521   0.623
    7SOL     OW   30   1.135   0.703   0.717
    7SOL    HW1   31   1.192   0.781   0.692
    7SOL    HW2   32   1.075   0.729   0.793
    8SOL     OW   33   1.755   0.607   0.231
    8SOL    HW1   34   1.743   0.594   0.132
    8SOL    HW2   35   1.725   0.526   0.280
    9SOL     OW   36   0.768   1.144   1.023
    9SOL    HW1   37   0.690   1.161   1.083
    9SOL    HW2   38   0.802   1.231   0.987
   10SOL     OW   39   0.850   0.798   1.823
   10SOL    HW1   40   0.846   0.874   1.888
   10SOL    HW2   41   0.872   0.834   1.732
   11SOL     OW   42   0.685   1.012   0.665
   11SOL    HW1   43   0.754   0.996   0.735
   11SOL    HW2   44   0.612   1.069   0.703
   12SOL     OW   45   0.686   1.161   1.803
   12SOL    HW1   46   0.746   1.240   1.817
   12SOL    HW2   47   0.600   1.192   1.762
   13SOL     OW   48   0.335   1.435   1.061
   13SOL    HW1   49   0.257   1.404   1.008
   13SOL    HW2   50   0.393   1.493   1.004
   14SOL     OW   51   1.460   1.505   1.339
   14SOL    HW1   52   1.484   1.599   1.365
   14SOL    HW2   53   1.444   1.451   1.421
   15SOL     OW   54   0.438   0.392   1.499
   15SOL    HW1   55   0.520   0.336   1.508
   15SOL    HW2   56   0.357   0.334   1.503
   16SOL     OW   57   1.603   0.447   0.737
   16SOL    HW1   58   1.529   0.493   0.687
   16SOL    HW2   59   1.654   0.515   0.790
   17SOL     OW   60   0.231   1.713   0.483
   17SOL    HW1   61   0.265   1.790   0.537
   17SOL    HW2   62   0.275   1.713   0.393
   18SOL     OW   63   1.127   1.341   1.690
   18SOL    HW1   64   1.174   1.341   1.778
   18SOL    HW2   65   1.079   1.254   1.679
   19SOL     OW   66   0.230   1.434   0.538
   19SOL    HW1   67   0.204   1.530   0.538
   19SOL    HW2   68   0.159   1.380   0.583
   20SOL     OW   69   0.240   1.091   0.886
   20SOL    HW1   70   0.254   1.007   0.938
   20SOL    HW2   71   0.185   1.155   0.941
   21SOL     OW   72   0.620   1.786   1.439
   21SOL    HW1   73   0.528   1.769   1.474
   21SOL    HW2   74   0.648   1.878   1.465
   22SOL     OW   75   0.606   0.964   0.123
   22SOL    HW1   76   0.613   1.048   0.069
   22SOL    HW2   77   0.652   0.977   0.211
   23SOL     OW   78   1.594   0.114   1.480
   23SOL    HW1   79   1.576   0.181   1.408
   23SOL    HW2   80   1.591   0.160   1.569
   24SOL     OW   81   0.122   0.643   0.563
   24SOL    HW1   82   0.077   0.555   0.580
   24SOL    HW2   83   0.121   0.697   0.647
   25SOL     OW   84   1.842   1.767   0.359
   25SOL    HW1   85   1.896   1.738   0.439
   25SOL    HW2   86   1.872   1.857   0.330
   26SOL     OW   87   0.027   1.596   0.117
   26SOL    HW1   88   0.008   1.500   0.138
   26SOL    HW2   89  -0.006   1.654   0.192
   27SOL     OW   90   1.689   0.922   0.612
   27SOL    HW1   91   1.784   0.893   0.620
   27SOL    HW2   92   1.681   0.987   0.537
   28SOL     OW   93   1.641   1.108   0.432
   28SOL    HW1   94   1.727   1.110   0.380
   28SOL    HW2   95   1.655   1.155   0.520
   29SOL     OW   96   0.113   0.737   1.597
   29SOL    HW1   97   0.201   0.724   1.642
   29SOL    HW2   98   0.100   0.834   1.575
   30SOL     OW   99   0.613   1.365   0.726
   30SOL    HW1  100   0.564   1.278   0.735
   30SOL    HW2  101   0.590   1.408   0.639
   31SOL     OW  102   1.293   1.228   1.423
   31SOL    HW1  103   1.330   1.155   1.365
   31SOL    HW2  104   1.345   1.233   1.508
   32SOL     OW  105   0.809   0.004   0.502
   32SOL    HW1  106   0.849   0.095   0.493
   32SOL    HW2  107   0.709   0.012   0.508
   33SOL     OW  108   0.197   0.976   1.264
   33SOL    HW1  109   0.286   0.931   1.250
   33SOL    HW2  110   0.124   0.911   1.245
   34SOL     OW  111   1.525   0.999   0.190
   34SOL    HW1  112   1.462   0.923   0.203
   34SOL    HW2  113   1.573   1.017   0.276
   35SOL     OW  114   1.187   1.792   1.616
   35SOL    HW1  115   1.211   1.852   1.540
   35SOL    HW2  116   1.194   1.697   1.586
   36SOL     OW  117   0.317   0.251   1.801
   36SOL    HW1  118   0.388   0.322   1.807
   36SOL    HW2  119   0.229   0.290   1.829
   37SOL     OW  120   1.466   1.417   0.953
   37SOL    HW1  121   1.407   1.423   1.033
   37SOL    HW2  122   1.451   1.329   0.907
   38SOL     OW  123   1.667   1.714   0.572
   38SOL    HW1  124   1.626   1.691   0.484
   38SOL    HW2  125   1.649   1.640   0.637
   39SOL     OW  126   0.598   0.729   0.270
   39SOL    HW1  127   0.622   0.798   0.202
   39SOL    HW2  128   0.520   0.762   0.324
   40SOL     OW  129   1.281   0.345   0.944
   40SOL    HW1  130   1.195   0.295   0.931
   40SOL    HW2  131   1.343   0.291   1.000
   41SOL     OW  132   1.576   1.662   0.307
   41SOL    HW1  133   1.665   1.708   0.310
   41SOL    HW2  134   1.555   1.638   0.212
   42SOL     OW  135   0.807   0.605   1.465
   42SOL    HW1  136   0.760   0.602   1.554
   42SOL    HW2  137   0.756   0.550   1.399
   43SOL     OW  138   1.394   0.469   1.674
   43SOL    HW1  139   1.374   0.512   1.762
   43SOL    HW2  140   1.472   0.407   1.683
   44SOL     OW  141   0.973   0.890   1.572
   44SOL    HW1  142   1.019   0.806   1.543
   44SOL    HW2  143   0.917   0.924   1.497
   45SOL     OW  144   0.991   0.410   1.242
   45SOL    HW1  145   0.914   0.444   1.296
   45SOL    HW2  146   0.957   0.359   1.163
   46SOL     OW  147   1.041   0.701   0.429
   46SOL    HW1  148   1.067   0.697   0.525
   46SOL    HW2  149   0.956   0.650   0.415
   47SOL     OW  150   0.076   0.811   0.789
   47SOL    HW1  151   0.175   0.799   0.798
   47SOL    HW2  152   0.052   0.906   0.810
   48SOL     OW  153   0.130   1.821   1.571
   48SOL    HW1  154   0.120   1.806   1.670
   48SOL    HW2  155   0.044   1.857   1.535
   49SOL     OW  156   0.865   0.348   0.195
   49SOL    HW1  157   0.924   0.411   0.146
   49SOL    HW2  158   0.884   0.254   0.166
   50SOL     OW  159   1.719   0.585   1.831
   50SOL    HW1  160   1.693   0.674   1.795
   50SOL    HW2  161   1.717   0.517   1.758
   51SOL     OW  162   1.362   1.144   0.545
   51SOL    HW1  163   1.445   1.115   0.497
   51SOL    HW2  164   1.313   1.211   0.489
   52SOL     OW  165   0.550   0.196   0.885
   52SOL    HW1  166   0.545   0.191   0.985
   52SOL    HW2  167   0.552   0.292   0.856
   53SOL     OW  168   1.008   1.456   0.477
   53SOL    HW1  169   0.962   1.528   0.425
   53SOL    HW2  170   1.004   1.476   0.575
   54SOL     OW  171   0.351   1.801   0.853
   54SOL    HW1  172   0.401   1.715   0.859
   54SOL    HW2  173   0.416   1.878   0.850
   55SOL     OW  174   1.795   1.066   0.873
   55SOL    HW1  175   1.733   1.051   0.797
   55SOL    HW2  176   1.743   1.077   0.958
   56SOL     OW  177   1.227   1.550   1.506
   56SOL    HW1  178   1.233   1.473   1.570
   56SOL    HW2  179   1.175   1.524   1.426
   57SOL     OW  180   0.321   0.943   0.242
   57SOL    HW1  181   0.403   0.982   0.200
   57SOL    HW2  182   0.294   0.861   0.193
   58SOL     OW  183   1.458   0.735   0.728
   58SOL    HW1  184   1.453   0.670   0.803
   58SOL    HW2  185   1.538   0.794   0.741
   59SOL     OW  186   0.461   1.266   1.727
   59SOL    HW1  187   0.411   1.267   1.641
   59SOL    HW2  188   0.398   1.248   1.803
   60SOL     OW  189   1.111   1.776   0.237
   60SOL    HW1  190   1.051   1.714   0.287
   60SOL    HW2  191   1.142   1.732   0.152
   61SOL     OW  192   0.202   0.285   1.498
   61SOL    HW1  193   0.122   0.345   1.485
   61SOL    HW2  194   0.192   0.236   1.584
   62SOL     OW  195   1.632   1.377   0.081
   62SOL    HW1  196   1.600   1.471   0.071
   62SOL    HW2  197   1.556   1.314   0.069
   63SOL     OW  198   0.464   1.743   0.323
   63SOL    HW1  199   0.497   1.782   0.409
   63SOL    HW2  200   0.540   1.736   0.258
   64SOL     OW  201   1.400   0.107   0.426
   64SOL    HW1  202   1.376   0.070   0.336
   64SOL    HW2  203   1.499   0.123   0.430
   65SOL     OW  204   0.249   1.785   1.241
   65SOL    HW1  205   0.306   1.720   1.291
   65SOL    HW2  206   0.233   1.752   1.148
   66SOL     OW  207   0.940   1.698   0.904
   66SOL    HW1  208   1.020   1.641   0.925
   66SOL    HW2  209   0.891   1.658   0.827
   67SOL     OW  210   0.382   0.700   0.480
   67SOL    HW1  211   0.427   0.610   0.477
   67SOL    HW2  212   0.288   0.689   0.513
   68SOL     OW  213   1.547   0.222   1.729
   68SOL    HW1  214   1.542   0.259   1.821
   68SOL    HW2  215   1.475   0.153   1.717
   69SOL     OW  216   0.614   0.122   0.117
   69SOL    HW1  217   0.712   0.100   0.124
   69SOL    HW2  218   0.583   0.105   0.024
   70SOL     OW  219   0.781   0.264   1.749
   70SOL    HW1  220   0.848   0.203   1.792
   70SOL    HW2  221   0.708   0.283   1.814
   71SOL     OW  222   0.888   1.514   1.195
   71SOL    HW1  223   0.865   1.489   1.101
   71SOL    HW2  224   0.949   1.445   1.234
   72SOL     OW  225   1.351   0.590   1.433
   72SOL    HW1  226   1.379   0.547   1.518
   72SOL    HW2  227   1.376   0.686   1.434
   73SOL     OW  228   0.803   1.402   0.924
   73SOL    HW1  229   0.893   1.416   0.882
   73SOL    HW2  230   0.732   1.404   0.853
   74SOL     OW  231   0.922   0.503   0.899
   74SOL    HW1  232   0.897   0.494   0.803
   74SOL    HW2  233   0.970   0.421   0.930
   75SOL     OW  234   0.539   0.064   0.512
   75SOL    HW1  235   0.458   0.065   0.570
   75SOL    HW2  236   0.542   0.147   0.457
   76SOL     OW  237   1.434   1.188   0.041
   76SOL    HW1  238   1.466   1.112   0.098
   76SOL    HW2  239   1.342   1.215   0.071
   77SOL     OW  240   0.297   0.035   0.171
   77SOL    HW1  241   0.346   0.119   0.150
   77SOL    HW2  242   0.359  -0.030   0.216
   78SOL     OW  243   0.935   0.236   0.480
   78SOL    HW1  244   0.887   0.277   0.402
   78SOL    HW2  245   1.034   0.234   0.461
   79SOL     OW  246   1.076   0.683   1.464
   79SOL    HW1  247   0.996   0.622   1.467
   79SOL    HW2  248   1.157   0.630   1.440
   80SOL     OW  249   1.227   1.570   0.793
   80SOL    HW1  250   1.248   1.644   0.728
   80SOL    HW2  251   1.295   1.570   0.866
   81SOL     OW  252   0.459   1.152   0.741
   81SOL    HW1  253   0.388   1.125   0.806
   81SOL    HW2  254   0.433   1.124   0.648
   82SOL     OW  255   1.271   1.797   0.591
   82SOL    HW1  256   1.315   1.861   0.527
   82SOL    HW2  257   1.221   1.849   0.661
   83SOL     OW  258   1.032   0.549   0.016
   83SOL    HW1  259   0.991   0.631  -0.023
   83SOL    HW2  260   1.096   0.575   0.089
   84SOL     OW  261   0.078   0.556   1.386
   84SOL    HW1  262   0.170   0.555   1.345
   84SOL    HW2  263   0.072   0.630   1.453
   85SOL     OW  264   0.561   0.222   1.147
   85SOL    HW1  265   0.599   0.138   1.184
   85SOL    HW2  266   0.473   0.241   1.191
   86SOL     OW  267   0.866   0.454   0.642
   86SOL    HW1  268   0.834   0.526   0.580
   86SOL    HW2  269   0.890   0.373   0.589
   87SOL     OW  270   1.017   0.039   0.753
   87SOL    HW1  271   0.945   0.044   0.684
   87SOL    HW2  272   0.993  -0.030   0.822
   88SOL     OW  273   1.429   1.173   0.867
   88SOL    HW1  274   1.374   1.089   0.860
   88SOL    HW2  275   1.455   1.202   0.775
   89SOL     OW  276   1.466   0.590   0.992
   89SOL    HW1  277   1.436   0.495   0.999
   89SOL    HW2  278   1.539   0.606   1.058
   90SOL     OW  279   1.857   0.833   0.377
   90SOL    HW1  280   1.899   0.769   0.441
   90SOL    HW2  281   1.819   0.782   0.299
   91SOL     OW  282   0.488   1.385   0.174
   91SOL    HW1  283   0.401   1.370   0.221
   91SOL    HW2  284   0.471   1.411   0.079
   92SOL     OW  285   1.664   1.280   0.657
   92SOL    HW1  286   1.763   1.288   0.671
   92SOL    HW2  287   1.619   1.364   0.688
   93SOL     OW  288   1.390   0.575   0.078
   93SOL    HW1  289   1.336   0.554   0.159
   93SOL    HW2  290   1.481   0.534   0.087
   94SOL     OW  291   0.527   0.256   0.328
   94SOL    HW1  292   0.554   0.197   0.253
   94SOL    HW2  293   0.527   0.351   0.297
   95SOL     OW  294   1.754   1.223   1.588
   95SOL    HW1  295   1.845   1.184   1.575
   95SOL    HW2  296   1.762   1.319   1.612
   96SOL     OW  297   1.064   1.347   1.340
   96SOL    HW1  298   0.984   1.324   1.395
   96SOL    HW2  299   1.147   1.321   1.389
   97SOL     OW  300   1.592   1.629   1.625
   97SOL    HW1  301   1.619   1.663   1.535
   97SOL    HW2  302   1.671   1.591   1.671
   98SOL     OW  303   1.111   1.195   1.100
   98SOL    HW1  304   1.071   1.239   1.181
   98SOL    HW2  305   1.070   1.232   1.017
   99SOL     OW  306   1.638   1.099   1.079
   99SOL    HW1  307   1.643   1.180   1.138
   99SOL    HW2  308   1.552   1.101   1.028
  100SOL     OW  309   0.915   0.089   1.402
  100SOL    HW1  310   0.940   0.069   1.307
  100SOL    HW2  311   0.987   0.145   1.444
  101SOL     OW  312   0.980   1.116   1.719
  101SOL    HW1  313   0.881   1.122   1.729
  101SOL    HW2  314   1.003   1.036   1.663
  102SOL     OW  315   0.705   1.050   0.368
  102SOL    HW1  316   0.691   1.057   0.467
  102SOL    HW2  317   0.789   0.999   0.350
  103SOL     OW  318   0.410   0.813   1.251
  103SOL    HW1  319   0.496   0.825   1.301
  103SOL    HW2  320   0.368   0.726   1.278
  104SOL     OW  321   1.274   0.386   1.262
  104SOL    HW1  322   1.295   0.460   1.326
  104SOL    HW2  323   1.185   0.403   1.219
  105SOL     OW  324   0.064   1.564   1.331
  105SOL    HW1  325   0.018   1.646   1.297
  105SOL    HW2  326   0.162   1.583   1.340
  106SOL     OW  327   0.367   1.100   0.501
  106SOL    HW1  328   0.360   1.183   0.445
  106SOL    HW2  329   0.371   1.020   0.441
  107SOL     OW  330   0.566   0.537   0.865
  107SOL    HW1  331   0.578   0.603   0.791
  107SOL    HW2  332   0.612   0.571   0.948
  108SOL     OW  333   1.252   1.348   0.388
  108SOL    HW1  334   1.302   1.425   0.428
  108SOL    HW2  335   1.157   1.350   0.420
  109SOL     OW  336   1.272   1.445   1.142
  109SOL    HW1  337   1.319   1.458   1.229
  109SOL    HW2  338   1.206   1.371   1.151
  110SOL     OW  339   1.582   0.639   0.472
  110SOL    HW1  340   1.551   0.700   0.545
  110SOL    HW2  341   1.632   0.691   0.403
  111SOL     OW  342   0.354   1.510   1.329
  111SOL    HW1  343   0.333   1.466   1.242
  111SOL    HW2  344   0.451   1.536   1.332
  112SOL     OW  345   0.402   0.751   1.598
  112SOL    HW1  346   0.470   0.806   1.551
  112SOL    HW2  347   0.442   0.663   1.625
  113SOL     OW  348   1.587   0.779   1.670
  113SOL    HW1  349   1.495   0.817   1.665
  113SOL    HW2  350   1.647   0.826   1.605
  114SOL     OW  351   1.013   0.105   1.770
  114SOL    HW1  352   1.019   0.190   1.718
  114SOL    HW2  353   1.045   0.029   1.713
  115SOL     OW  354   0.504   0.050   1.740
  115SOL    HW1  355   0.462  -0.007   1.670
  115SOL    HW2  356   0.438   0.119   1.772
  116SOL     OW  357   0.573   0.870   1.029
  116SOL    HW1  358   0.617   0.959   1.020
  116SOL    HW2  359   0.510   0.870   1.106
  117SOL     OW  360   1.360   0.862   1.045
  117SOL    HW1  361   1.285   0.862   0.979
  117SOL    HW2  362   1.397   0.770   1.054
  118SOL     OW  363   1.209   0.525   0.275
  118SOL    HW1  364   1.222   0.441   0.329
  118SOL    HW2  365   1.180   0.599   0.335
  119SOL     OW  366   0.307   0.213   1.231
  119SOL    HW1  367   0.284   0.250   1.321
  119SOL    HW2  368   0.277   0.118   1.225
  120SOL     OW  369   0.037   1.310   1.282
  120SOL    HW1  370   0.090   1.261   1.350
  120SOL    HW2  371   0.059   1.408   1.287
  121SOL     OW  372   0.732   0.634   1.064
  121SOL    HW1  373   0.791   0.608   0.988
  121SOL    HW2  374   0.704   0.730   1.053
  122SOL     OW  375   1.728   0.935   1.854
  122SOL    HW1  376   1.682   0.928   1.765
  122SOL    HW2  377   1.666   0.979   1.920
  123SOL     OW  378   0.307   0.063   0.618
  123SOL    HW1  379   0.296   0.157   0.651
  123SOL    HW2  380   0.302   0.000   0.695
  124SOL     OW  381   1.622   0.367   0.374
  124SOL    HW1  382   1.624   0.291   0.438
  124SOL    HW2  383   1.574   0.444   0.414
  125SOL     OW  384   1.023   0.766   0.966
  125SOL    HW1  385   1.038   0.787   1.062
  125SOL    HW2  386   0.993   0.671   0.957
  126SOL     OW  387   0.980   1.573   1.700
  126SOL    HW1  388   0.960   1.617   1.612
  126SOL    HW2  389   1.019   1.482   1.684
  127SOL     OW  390   1.859   1.518   1.605
  127SOL    HW1  391   1.873   1.545   1.510
  127SOL    HW2  392   1.942   1.540   1.658
  128SOL     OW  393   0.350   0.898   1.804
  128SOL    HW1  394   0.426   0.942   1.852
  128SOL    HW2  395   0.385   0.851   1.722
  129SOL     OW  396   1.540   0.274   0.125
  129SOL    HW1  397   1.479   0.199   0.148
  129SOL    HW2  398   1.562   0.326   0.208
  130SOL     OW  399   1.303   0.838   0.042
  130SOL    HW1  400   1.337   0.745   0.057
  130SOL    HW2  401   1.321   0.865  -0.053
  131SOL     OW  402   1.068   1.333   0.849
  131SOL    HW1  403   1.075   1.249   0.794
  131SOL    HW2  404   1.130   1.402   0.813
  132SOL     OW  405   0.319   0.810   0.949
  132SOL    HW1  406   0.412   0.846   0.954
  132SOL    HW2  407   0.313   0.725   1.001
  133SOL     OW  408   0.339   0.509   1.006
  133SOL    HW1  409   0.287   0.426   0.989
  133SOL    HW2  410   0.416   0.514   0.942
  134SOL     OW  411   1.138   0.380   1.678
  134SOL    HW1  412   1.093   0.443   1.742
  134SOL    HW2  413   1.231   0.411   1.661
  135SOL     OW  414   1.160   0.207   1.477
  135SOL    HW1  415   1.160   0.271   1.554
  135SOL    HW2  416   1.188   0.255   1.394
  136SOL     OW  417   0.008   1.326   0.200
  136SOL    HW1  418  -0.085   1.347   0.169
  136SOL    HW2  419   0.018   1.227   0.213
  137SOL     OW  420   0.088   1.801   0.927
  137SOL    HW1  421   0.046   1.715   0.900
  137SOL    HW2  422   0.182   1.804   0.893
  138SOL     OW  423   0.504   1.568   0.910
  138SOL    HW1  424   0.570   1.642   0.919
  138SOL    HW2  425   0.548   1.489   0.868
  139SOL     OW  426   1.002   0.796   1.238
  139SOL    HW1  427   1.043   0.764   1.324
  139SOL    HW2  428   0.906   0.769   1.235
  140SOL     OW  429   0.040   0.544   1.114
  140SOL    HW1  430   0.125   0.511   1.073
  140SOL    HW2  431   0.053   0.559   1.212
  141SOL     OW  432   0.189   0.520   1.722
  141SOL    HW1  433   0.248   0.480   1.652
  141SOL    HW2  434   0.131   0.591   1.681
  142SOL     OW  435   1.369   0.950   1.660
  142SOL    HW1  436   1.408   1.039   1.680
  142SOL    HW2  437   1.379   0.930   1.563
  143SOL     OW  438   0.815   0.572   0.325
  143SOL    HW1  439   0.822   0.483   0.279
  143SOL    HW2  440   0.721   0.606   0.317
  144SOL     OW  441   1.657   0.604   1.206
  144SOL    HW1  442   1.619   0.535   1.268
  144SOL    HW2  443   1.739   0.568   1.162
  145SOL     OW  444   0.252   1.564   1.744
  145SOL    HW1  445   0.222   1.621   1.820
  145SOL    HW2  446   0.245   1.467   1.770
  146SOL     OW  447   0.671   0.464   1.269
  146SOL    HW1  448   0.637   0.375   1.239
  146SOL    HW2  449   0.697   0.518   1.189
  147SOL     OW  450   0.930   1.678   1.465
  147SOL    HW1  451   0.906   1.660   1.370
  147SOL    HW2  452   0.960   1.772   1.475
  148SOL     OW  453   0.473   0.500   0.191
  148SOL    HW1  454   0.534   0.580   0.195
  148SOL    HW2  455   0.378   0.531   0.198
  149SOL     OW  456   0.159   1.137   1.466
  149SOL    HW1  457   0.181   1.076   1.542
  149SOL    HW2  458   0.169   1.088   1.380
  150SOL     OW  459   1.347   1.059   1.234
  150SOL    HW1  460   1.371   0.996   1.160
  150SOL    HW2  461   1.257   1.099   1.216
  151SOL     OW  462   1.302   0.855   0.309
  151SOL    HW1  463   1.216   0.824   0.351
  151SOL    HW2  464   1.298   0.841   0.210
  152SOL     OW  465   1.759   1.747   1.154
  152SOL    HW1  466   1.820   1.777   1.081
  152SOL    HW2  467   1.721   1.658   1.132
  153SOL     OW  468   1.252   1.731   1.128
  153SOL    HW1  469   1.336   1.736   1.074
  153SOL    HW2  470   1.229   1.635   1.146
  154SOL     OW  471   0.083   1.258   1.022
  154SOL    HW1  472   0.078   1.257   1.122
  154SOL    HW2  473   0.000   1.217   0.984
  155SOL     OW  474   0.688   1.662   1.716
  155SOL    HW1  475   0.632   1.743   1.725
  155SOL    HW2  476   0.740   1.666   1.630
  156SOL     OW  477   0.903   0.086   0.133
  156SOL    HW1  478   0.954   0.087   0.047
  156SOL    HW2  479   0.959   0.044   0.204
  157SOL     OW  480   1.726   0.135   0.523
  157SOL    HW1  481   1.799   0.118   0.456
  157SOL    HW2  482   1.695   0.048   0.561
  158SOL     OW  483   1.388   1.573   0.477
  158SOL    HW1  484   1.455   1.585   0.403
  158SOL    HW2  485   1.348   1.662   0.500
  159SOL     OW  486   0.130   1.794   1.851
  159SOL    HW1  487   0.089   1.720   1.904
  159SOL    HW2  488   0.194   1.845   1.909
  160SOL     OW  489   1.280   0.927   0.672
  160SOL    HW1  490   1.340   0.846   0.674
  160SOL    HW2  491   1.320   0.996   0.612
  161SOL     OW  492   0.830   1.273   1.422
  161SOL    HW1  493   0.825   1.306   1.517
  161SOL    HW2  494   0.744   1.292   1.376
  162SOL     OW  495   0.672   1.616   0.154
  162SOL    HW1  496   0.681   1.626   0.055
  162SOL    HW2  497   0.632   1.527   0.175
  163SOL     OW  498   1.650   1.720   1.394
  163SOL    HW1  499   1.703   1.730   1.310
  163SOL    HW2  500   1.623   1.810   1.428
  164SOL     OW  501   1.841   0.175   0.963
  164SOL    HW1  502   1.880   0.090   0.927
  164SOL    HW2  503   1.743   0.177   0.944
  165SOL     OW  504   0.263   0.326   0.720
  165SOL    HW1  505   0.184   0.377   0.686
  165SOL    HW2  506   0.254   0.311   0.818
  166SOL     OW  507   1.194   1.612   0.031
  166SOL    HW1  508   1.200   1.519   0.068
  166SOL    HW2  509   1.135   1.612  -0.049
  167SOL     OW  510   0.822   1.002   1.372
  167SOL    HW1  511   0.862   1.001   1.280
  167SOL    HW2  512   0.832   1.094   1.412
  168SOL     OW  513   0.916   0.910   0.291
  168SOL    HW1  514   0.979   0.948   0.223
  168SOL    HW2  515   0.956   0.827   0.330
  169SOL     OW  516   1.504   1.607   0.044
  169SOL    HW1  517   1.412   1.644   0.051
  169SOL    HW2  518   1.542   1.627  -0.046
  170SOL     OW  519   0.372   1.288   1.490
  170SOL    HW1  520   0.359   1.381   1.456
  170SOL    HW2  521   0.288   1.236   1.477
  171SOL     OW  522   1.614   1.292   1.289
  171SOL    HW1  523   1.674   1.295   1.369
  171SOL    HW2  524   1.539   1.356   1.302
  172SOL     OW  525   1.039   1.098   0.696
  172SOL    HW1  526   0.969   1.051   0.750
  172SOL    HW2  527   1.098   1.030   0.653
  173SOL     OW  528   1.014   0.236   0.971
  173SOL    HW1  529   1.006   0.200   0.878
  173SOL    HW2  530   1.012   0.160   1.036
  174SOL     OW  531   0.590   1.487   0.491
  174SOL    HW1  532   0.632   1.429   0.421
  174SOL    HW2  533   0.546   1.566   0.447
  175SOL     OW  534   1.709   0.385   1.381
  175SOL    HW1  535   1.782   0.454   1.385
  175SOL    HW2  536   1.737   0.310   1.322
  176SOL     OW  537   0.255   1.348   0.290
  176SOL    HW1  538   0.159   1.349   0.263
  176SOL    HW2  539   0.267   1.401   0.374
  177SOL     OW  540   0.105   1.013   1.726
  177SOL    HW1  541   0.028   0.980   1.780
  177SOL    HW2  542   0.190   0.983   1.768
  178SOL     OW  543   0.672   0.203   1.489
  178SOL    HW1  544   0.762   0.187   1.449
  178SOL    HW2  545   0.680   0.208   1.588
  179SOL     OW  546   0.075   0.345   0.033
  179SOL    HW1  547  -0.017   0.317   0.004
  179SOL    HW2  548   0.106   0.422  -0.023
  180SOL     OW  549   1.440   0.856   1.398
  180SOL    HW1  550   1.383   0.908   1.335
  180SOL    HW2  551   1.536   0.868   1.374
  181SOL     OW  552   0.072   0.166   0.318
  181SOL    HW1  553   0.055   0.249   0.264
  181SOL    HW2  554   0.162   0.129   0.296
  182SOL     OW  555   1.183   1.335   0.119
  182SOL    HW1  556   1.084   1.324   0.121
  182SOL    HW2  557   1.217   1.350   0.212
  183SOL     OW  558   0.613   0.842   1.431
  183SOL    HW1  559   0.669   0.923   1.414
  183SOL    HW2  560   0.672   0.762   1.434
  184SOL     OW  561   1.493   1.767   0.959
  184SOL    HW1  562   1.526   1.831   0.890
  184SOL    HW2  563   1.559   1.761   1.034
  185SOL     OW  564   0.716   0.565   1.708
  185SOL    HW1  565   0.735   0.630   1.782
  185SOL    HW2  566   0.776   0.485   1.717
  186SOL     OW  567   1.450   1.220   1.633
  186SOL    HW1  568   1.441   1.210   1.732
  186SOL    HW2  569   1.546   1.213   1.607
  187SOL     OW  570   0.390   1.741   1.560
  187SOL    HW1  571   0.299   1.782   1.558
  187SOL    HW2  572   0.383   1.647   1.592
  188SOL     OW  573   1.674   0.883   1.254
  188SOL    HW1  574   1.647   0.794   1.217
  188SOL    HW2  575   1.675   0.951   1.181
  189SOL     OW  576   1.225   0.325   0.449
  189SOL    HW1  577   1.290   0.251   0.438
  189SOL    HW2  578   1.245   0.375   0.533
  190SOL     OW  579   0.594   0.745   0.652
  190SOL    HW1  580   0.644   0.830   0.633
  190SOL    HW2  581   0.506   0.747   0.604
  191SOL     OW  582   1.777   0.342   1.642
  191SOL    HW1  583   1.760   0.373   1.548
  191SOL    HW2  584   1.693   0.305   1.680
  192SOL     OW  585   1.730   0.934   1.517
  192SOL    HW1  586   1.768   1.025   1.532
  192SOL    HW2  587   1.722   0.917   1.418
  193SOL     OW  588   0.859   1.374   0.016
  193SOL    HW1  589   0.813   1.389   0.104
  193SOL    HW2  590   0.903   1.459  -0.014
  194SOL     OW  591   0.661   1.790   0.953
  194SOL    HW1  592   0.615   1.878   0.940
  194SOL    HW2  593   0.760   1.802   0.946
  195SOL     OW  594   0.859   0.956   0.861
  195SOL    HW1  595   0.913   0.887   0.909
  195SOL    HW2  596   0.827   1.025   0.927
  196SOL     OW  597   1.083   0.984   0.087
  196SOL    HW1  598   1.060   1.037   0.005
  196SOL    HW2  599   1.164   0.928   0.068
  197SOL     OW  600   1.861   1.569   0.851
  197SOL    HW1  601   1.790   1.557   0.781
  197SOL    HW2  602   1.862   1.490   0.911
  198SOL     OW  603   0.221   1.314   1.844
  198SOL    HW1  604   0.156   1.241   1.823
  198SOL    HW2  605   0.225   1.328   1.942
  199SOL     OW  606   0.079   1.240   0.653
  199SOL    HW1  607   0.078   1.193   0.741
  199SOL    HW2  608   0.161   1.212   0.602
  200SOL     OW  609   0.672   1.391   1.624
  200SOL    HW1  610   0.594   1.341   1.662
  200SOL    HW2  611   0.669   1.486   1.655
  201SOL     OW  612   1.824   0.192   1.227
  201SOL    HW1  613   1.820   0.102   1.271
  201SOL    HW2  614   1.827   0.181   1.128
  202SOL     OW  615   0.428   0.424   0.520
  202SOL    HW1  616   0.458   0.352   0.458
  202SOL    HW2  617   0.389   0.384   0.603
  203SOL     OW  618   1.705   1.487   1.104
  203SOL    HW1  619   1.612   1.462   1.077
  203SOL    HW2  620   1.731   1.437   1.186
  204SOL     OW  621   0.317   0.547   1.280
  204SOL    HW1  622   0.355   0.488   1.352
  204SOL    HW2  623   0.357   0.521   1.192
  205SOL     OW  624   0.812   1.586   0.687
  205SOL    HW1  625   0.844   1.596   0.593
  205SOL    HW2  626   0.733   1.524   0.689
  206SOL     OW  627   1.424   0.214   1.112
  206SOL    HW1  628   1.476   0.149   1.167
  206SOL    HW2  629   1.375   0.277   1.173
  207SOL     OW  630   1.001   0.034   1.154
  207SOL    HW1  631   0.938  -0.038   1.123
  207SOL    HW2  632   1.094  -0.002   1.154
  208SOL     OW  633   0.770   1.330   0.301
  208SOL    HW1  634   0.724   1.243   0.318
  208SOL    HW2  635   0.861   1.327   0.342
  209SOL     OW  636   0.618   1.567   1.284
  209SOL    HW1  637   0.613   1.649   1.341
  209SOL    HW2  638   0.707   1.564   1.239
  210SOL     OW  639   1.352   0.052   0.168
  210SOL    HW1  640   1.387   0.011   0.084
  210SOL    HW2  641   1.262   0.014   0.188
  211SOL     OW  642   1.300   0.453   0.691
  211SOL    HW1  643   1.241   0.533   0.695
  211SOL    HW2  644   1.315   0.418   0.784
  212SOL     OW  645   1.593   0.221   0.882
  212SOL    HW1  646   1.509   0.220   0.936
  212SOL    HW2  647   1.595   0.304   0.826
  213SOL     OW  648   0.039   1.077   0.300
  213SOL    HW1  649   0.138   1.066   0.291
  213SOL    HW2  650  -0.001   0.991   0.332
  214SOL     OW  651   0.875   1.646   0.337
  214SOL    HW1  652   0.798   1.611   0.283
  214SOL    HW2  653   0.843   1.717   0.399
  215SOL     OW  654   0.230   0.628   1.975
  215SOL    HW1  655   0.137   0.626   2.012
  215SOL    HW2  656   0.231   0.589   1.883
  216SOL     OW  657   0.225   0.275   2.858
  216SOL    HW1  658   0.260   0.258   2.950
  216SOL    HW2  659   0.137   0.230   2.846
  217SOL     OW  660   0.019   0.368   2.509
  217SOL    HW1  661  -0.063   0.411   2.548
  217SOL    HW2  662  -0.009   0.295   2.446
  218SOL     OW  663   0.569   1.275   3.027
  218SOL    HW1  664   0.476   1.268   2.990
  218SOL    HW2  665   0.580   1.364   3.071
  219SOL     OW  666   1.555   1.511   2.565
  219SOL    HW1  667   1.498   1.495   2.646
  219SOL    HW2  668   1.496   1.521   2.485
  220SOL     OW  669   1.135   0.703   2.579
  220SOL    HW1  670   1.192   0.781   2.554
  220SOL    HW2  671   1.075   0.729   2.655
  221SOL     OW  672   1.755   0.607   2.093
  221SOL    HW1  673   1.743   0.594   1.994
  221SOL    HW2  674   1.725   0.526   2.142
  222SOL     OW  675   0.768   1.144   2.885
  222SOL    HW1  676   0.690   1.161   2.945
  222SOL    HW2  677   0.802   1.231   2.849
  223SOL     OW  678   0.850   0.798   3.685
  223SOL    HW1  679   0.846   0.874   3.750
  223SOL    HW2  680   0.872   0.834   3.594
  224SOL     OW  681   0.685   1.012   2.527
  224SOL    HW1  682   0.754   0.996   2.597
  224SOL    HW2  683   0.612   1.069   2.565
  225SOL     OW  684   0.686   1.161   3.665
  225SOL    HW1  685   0.746   1.240   3.679
  225SOL    HW2  686   0.600   1.192   3.624
  226SOL     OW  687   0.335   1.435   2.923
  226SOL    HW1  688   0.257   1.404   2.870
  226SOL    HW2  689   0.393   1.493   2.866
  227SOL     OW  690   1.460   1.505   3.201
  227SOL    HW1  691   1.484   1.599   3.227
  227SOL    HW2  692   1.444   1.451   3.283
  228SOL     OW  693   0.438   0.392   3.361
  228SOL    HW1  694   0.520   0.336   3.370
  228SOL    HW2  695   0.357   0.334   3.365
  229SOL     OW  696   1.603   0.447   2.599
  229SOL    HW1  697   1.529   0.493   2.549
  229SOL    HW2  698   1.654   0.515   2.652
  230SOL     OW  699   0.231   1.713   2.345
  230SOL    HW1  700   0.265   1.790   2.399
  230SOL    HW2  701   0.275   1.713   2.255
  231SOL     OW  702   1.127   1.341   3.552
  231SOL    HW1  703   1.174   1.341   3.640
  231SOL    HW2  704   1.079   1.254   3.541
  232SOL     OW  705   0.230   1.434   2.400
  232SOL    HW1  706   0.204   1.530   2.400
  232SOL    HW2  707   0.159   1.380   2.445
  233SOL     OW  708   0.240   1.091   2.748
  233SOL    HW1  709   0.254   1.007   2.800
  233SOL    HW2  710   0.185   1.155   2.803
  234SOL     OW  711   0.620   1.786   3.301
  234SOL    HW1  712   0.528   1.769   3.336
  234SOL    HW2  713   0.648   1.878   3.327
  235SOL     OW  714   0.606   0.964   1.985
  235SOL    HW1  715   0.613   1.048   1.931
  235SOL    HW2  716   0.652   0.977   2.073
  236SOL     OW  717   1.594   0.114   3.342
  236SOL    HW1  718   1.576   0.181   3.270
  236SOL    HW2  719   1.591   0.160   3.431
  237SOL     OW  720   0.122   0.643   2.425
  237SOL    HW1  721   0.077   0.555   2.442
  237SOL    HW2  722   0.121   0.697   2.509
  238SOL     OW  723   1.842   1.767   2.221
  238SOL    HW1  724   1.896   1.738   2.301
  238SOL    HW2  725   1.872   1.857   2.192
  239SOL     OW  726   0.027   1.596   1.979
  239SOL    HW1  727   0.008   1.500   2.000
  239SOL    HW2  728  -0.006   1.654   2.054
  240SOL     OW  729   1.689   0.922   2.474
  240SOL    HW1  730   1.784   0.893   2.482
  240SOL    HW2  731   1.681   0.987   2.399
  241SOL     OW  732   1.641   1.108   2.294
  241SOL    HW1  733   1.727   1.110   2.242
  241SOL    HW2  734   1.655   1.155   2.382
  242SOL     OW  735   0.113   0.737   3.459
  242SOL    HW1  736   0.201   0.724   3.504
  242SOL    HW2  737   0.100   0.834   3.437
  243SOL     OW  738   0.613   1.365   2.588
  243SOL    HW1  739   0.564   1.278   2.597
  243SOL    HW2  740   0.590   1.408   2.501
  244SOL     OW  741   1.293   1.228   3.285
  244SOL    HW1  742   1.330   1.155   3.227
  244SOL    HW2  743   1.345   1.233   3.370
  245SOL     OW  744   0.809   0.004   2.364
  245SOL    HW1  745   0.849   0.095   2.355
  245SOL    HW2  746   0.709   0.012   2.370
  246SOL     OW  747   0.197   0.976   3.126
  246SOL    HW1  748   0.286   0.931   3.112
  246SOL    HW2  749   0.124   0.911   3.107
  247SOL     OW  750   1.525   0.999   2.052
  247SOL    HW1  751   1.462   0.923   2.065
  247SOL    HW2  752   1.573   1.017   2.138
  248SOL     OW  753   1.187   1.792   3.478
  248SOL    HW1  754   1.211   1.852   3.402
  248SOL    HW2  755   1.194   1.697   3.448
  249SOL     OW  756   0.317   0.251   3.663
  249SOL    HW1  757   0.388   0.322   3.669
  249SOL    HW2  758   0.229   0.290   3.691
  250SOL     OW  759   1.466   1.417   2.815
  250SOL    HW1  760   1.407   1.423   2.895
  250SOL    HW2  761   1.451   1.329   2.769
  251SOL     OW  762   1.667   1.714   2.434
  251SOL    HW1  763   1.626   1.691   2.346
  251SOL    HW2  764   1.649   1.640   2.499
  252SOL     OW  765   0.598   0.729   2.132
  252SOL    HW1  766   0.622   0.798   2.064
  252SOL    HW2  767   0.520   0.762   2.186
  253SOL     OW  768   1.281   0.345   2.806
  253SOL    HW1  769   1.195   0.295   2.793
  253SOL    HW2  770   1.343   0.291   2.862
  254SOL     OW  771   1.576   1.662   2.169
  254SOL    HW1  772   1.665   1.708   2.172
  254SOL    HW2  773   1.555   1.638   2.074
  255SOL     OW  774   0.807   0.605   3.327
  255SOL    HW1  775   0.760   0.602   3.416
  255SOL    HW2  776   0.756   0.550   3.261
  256SOL     OW  777   1.394   0.469   3.536
  256SOL    HW1  778   1.374   0.512   3.624
  256SOL    HW2  779   1.472   0.407   3.545
  257SOL     OW  780   0.973   0.890   3.434
  257SOL    HW1  781   1.019   0.806   3.405
  257SOL    HW2  782   0.917   0.924   3.359
  258SOL     OW  783   0.991   0.410   3.104
  258SOL    HW1  784   0.914   0.444   3.158
  258SOL    HW2  785   0.957   0.359   3.025
  259SOL     OW  786   1.041   0.701   2.291
  259SOL    HW1  787   1.067   0.697   2.387
  259SOL    HW2  788   0.956   0.650   2.277
  260SOL     OW  789   0.076   0.811   2.651
  260SOL    HW1  790   0.175   0.799   2.660
  260SOL    HW2  791   0.052   0.906   2.672
  261SOL     OW  792   0.130   1.821   3.433
  261SOL    HW1  793   0.120   1.806   3.532
  261SOL    HW2  794   0.044   1.857   3.397
  262SOL     OW  795   0.865   0.348   2.057
  262SOL    HW1  796   0.924   0.411   2.008
  262SOL    HW2  797   0.884   0.254   2.028
  263SOL     OW  798   1.719   0.585   3.693
  263SOL    HW1  799   1.693   0.674   3.657
  263SOL    HW2  800   1.717   0.517   3.620
  264SOL     OW  801   1.362   1.144   2.407
  264SOL    HW1  802   1.445   1.115   2.359
  264SOL    HW2  803   1.313   1.211   2.351
  265SOL     OW  804   0.550   0.196   2.747
  265SOL    HW1  805   0.545   0.191   2.847
  265SOL    HW2  806   0.552   0.292   2.718
  266SOL     OW  807   1.008   1.456   2.339
  266SOL    HW1  808   0.962   1.528   2.287
  266SOL    HW2  809   1.004   1.476   2.437
  267SOL     OW  810   0.351   1.801   2.715
  267SOL    HW1  811   0.401   1.715   2.721
  267SOL    HW2  812   0.416   1.878   2.712
  268SOL     OW  813   1.795   1.066   2.735
  268SOL    HW1  814   1.733   1.051   2.659
  268SOL    HW2  815   1.743   1.077   2.820
  269SOL     OW  816   1.227   1.550   3.368
  269SOL    HW1  817   1.233   1.473   3.432
  269SOL    HW2  818   1.175   1.524   3.288
  270SOL     OW  819   0.321   0.943   2.104
  270SOL    HW1  820   0.403   0.982   2.062
  270SOL    HW2  821   0.294   0.861   2.055
  271SOL     OW  822   1.458   0.735   2.590
  271SOL    HW1  823   1.453   0.670   2.665
  271SOL    HW2  824   1.538   0.794   2.603
  272SOL     OW  825   0.461   1.266   3.589
  272SOL    HW1  826   0.411   1.267   3.503
  272SOL    HW2  827   0.398   1.248   3.665
  273SOL     OW  828   1.111   1.776   2.099
  273SOL    HW1  829   1.051   1.714   2.149
  273SOL    HW2  830   1.142   1.732   2.014
  274SOL     OW  831   0.202   0.285   3.360
  274SOL    HW1  832   0.122   0.345   3.347
  274SOL    HW2  833   0.192   0.236   3.446
  275SOL     OW  834   1.632   1.377   1.943
  275SOL    HW1  835   1.600   1.471   1.933
  275SOL    HW2  836   1.556   1.314   1.931
  276SOL     OW  837   0.464   1.743   2.185
  276SOL    HW1  838   0.497   1.782   2.271
  276SOL    HW2  839   0.540   1.736   2.120
  277SOL     OW  840   1.400   0.107   2.288
  277SOL    HW1  841   1.376   0.070   2.198
  277SOL    HW2  842   1.499   0.123   2.292
  278SOL     OW  843   0.249   1.785   3.103
  278SOL    HW1  844   0.306   1.720   3.153
  278SOL    HW2  845   0.233   1.752   3.010
  279SOL     OW  846   0.940   1.698   2.766
  279SOL    HW1  847   1.020   1.641   2.787
  279SOL    HW2  848   0.891   1.658   2.689
  280SOL     OW  849   0.382   0.700   2.342
  280SOL    HW1  850   0.427   0.610   2.339
  280SOL    HW2  851   0.288   0.689   2.375
  281SOL     OW  852   1.547   0.222   3.591
  281SOL    HW1  853   1.542   0.259   3.683
  281SOL    HW2  854   1.475   0.153   3.579
  282SOL     OW  855   0.614   0.122   1.979
  282SOL    HW1  856   0.712   0.100   1.986
  282SOL    HW2  857   0.583   0.105   1.886
  283SOL     OW  858   0.781   0.264   3.611
  283SOL    HW1  859   0.848   0.203   3.654
  283SOL    HW2  860   0.708   0.283   3.676
  284SOL     OW  861   0.888   1.514   3.057
  284SOL    HW1  862   0.865   1.489   2.963
  284SOL    HW2  863   0.949   1.445   3.096
  285SOL     OW  864   1.351   0.590   3.295
  285SOL    HW1  865   1.379   0.547   3.380
  285SOL    HW2  866   1.376   0.686   3.296
  286SOL     OW  867   0.803   1.402   2.786
  286SOL    HW1  868   0.893   1.416   2.744
  286SOL    HW2  869   0.732   1.404   2.715
  287SOL     OW  870   0.922   0.503   2.761
  287SOL    HW1  871   0.897   0.494   2.665
  287SOL    HW2  872   0.970   0.421   2.792
  288SOL     OW  873   0.539   0.064   2.374
  288SOL    HW1  874   0.458   0.065   2.432
  288SOL    HW2  875   0.542   0.147   2.319
  289SOL     OW  876   1.434   1.188   1.903
  289SOL    HW1  877   1.466   1.112   1.960
  289SOL    HW2  878   1.342   1.215   1.933
  290SOL     OW  879   0.297   0.035   2.033
  290SOL    HW1  880   0.346   0.119   2.012
  290SOL    HW2  881   0.359  -0.030   2.078
  291SOL     OW  882   0.935   0.236   2.342
  291SOL    HW1  883   0.887   0.277   2.264
  291SOL    HW2  884   1.034   0.234   2.323
  292SOL     OW  885   1.076   0.683   3.326
  292SOL    HW1  886   0.996   0.622   3.329
  292SOL    HW2  887   1.157   0.630   3.302
  293SOL     OW  888   1.227   1.570   2.655
  293SOL    HW1  889   1.248   1.644   2.590
  293SOL    HW2  890   1.295   1.570   2.728
  294SOL     OW  891   0.459   1.152   2.603
  294SOL    HW1  892   0.388   1.125   2.668
  294SOL    HW2  893   0.433   1.124   2.510
  295SOL     OW  894   1.271   1.797   2.453
  295SOL    HW1  895   1.315   1.861   2.389
  295SOL    HW2  896   1.221   1.849   2.523
  296SOL     OW  897   1.032   0.549   1.878
  296SOL    HW1  898   0.991   0.631   1.839
  296SOL    HW2  899   1.096   0.575   1.951
  297SOL     OW  900   0.078   0.556   3.248
  297SOL    HW1  901   0.170   0.555   3.207
  297SOL    HW2  902   0.072   0.630   3.315
  298SOL     OW  903   0.561   0.222   3.009
  298SOL    HW1  904   0.599   0.138   3.046
  298SOL    HW2  905   0.473   0.241   3.053
  299SOL     OW  906   0.866   0.454   2.504
  299SOL    HW1  907   0.834   0.526   2.442
  299SOL    HW2  908   0.890   0.373   2.451
  300SOL     OW  909   1.017   0.039   2.615
  300SOL    HW1  910   0.945   0.044   2.546
  300SOL    HW2  911   0.993  -0.030   2.684
  301SOL     OW  912   1.429   1.173   2.729
  301SOL    HW1  913   1.374   1.089   2.722
  301SOL    HW2  914   1.455   1.202   2.637
  302SOL     OW  915   1.466   0.590   2.854
  302SOL    HW1  916   1.436   0.495   2.861
  302SOL    HW2  917   1.539   0.606   2.920
  303SOL     OW  918   1.857   0.833   2.239
  303SOL    HW1  919   1.899   0.769   2.303
  303SOL    HW2  920   1.819   0.782   2.161
  304SOL     OW  921   0.488   1.385   2.036
  304SOL    HW1  922   0.401   1.370   2.083
  304SOL    HW2  923   0.471   1.411   1.941
  305SOL     OW  924   1.664   1.280   2.519
  305SOL    HW1  925   1.763   1.288   2.533
  305SOL    HW2  926   1.619   1.364   2.550
  306SOL     OW  927   1.390   0.575   1.940
  306SOL    HW1  928   1.336   0.554   2.021
  306SOL    HW2  929   1.481   0.534   1.949
  307SOL     OW  930   0.527   0.256   2.190
  307SOL    HW1  931   0.554   0.197   2.115
  307SOL    HW2  932   0.527   0.351   2.159
  308SOL     OW  933   1.754   1.223   3.450
  308SOL    HW1  934   1.845   1.184   3.437
  308SOL    HW2  935   1.762   1.319   3.474
  309SOL     OW  936   1.064   1.347   3.202
  309SOL    HW1  937   0.984   1.324   3.257
  309SOL    HW2  938   1.147   1.321   3.251
  310SOL     OW  939   1.592   1.629   3.487
  310SOL    HW1  940   1.619   1.663   3.397
  310SOL    HW2  941   1.671   1.591   3.533
  311SOL     OW  942   1.111   1.195   2.962
  311SOL    HW1  943   1.071   1.239   3.043
  311SOL    HW2  944   1.070   1.232   2.879
  312SOL     OW  945   1.638   1.099   2.941
  312SOL    HW1  946   1.643   1.180   3.000
  312SOL    HW2  947   1.552   1.101   2.890
  313SOL     OW  948   0.915   0.089   3.264
  313SOL    HW1  949   0.940   0.069   3.169
  313SOL    HW2  950   0.987   0.145   3.306
  314SOL     OW  951   0.980   1.116   3.581
  314SOL    HW1  952   0.881   1.122   3.591
  314SOL    HW2  953   1.003   1.036   3.525
  315SOL     OW  954   0.705   1.050   2.230
  315SOL    HW1  955   0.691   1.057   2.329
  315SOL    HW2  956   0.789   0.999   2.212
  316SOL     OW  957   0.410   0.813   3.113
  316SOL    HW1  958   0.496   0.825   3.163
  316SOL    HW2  959   0.368   0.726   3.140
  317SOL     OW  960   1.274   0.386   3.124
  317SOL    HW1  961   1.295   0.460   3.188
  317SOL    HW2  962   1.185   0.403   3.081
  318SOL     OW  963   0.064   1.564   3.193
  318SOL    HW1  964   0.018   1.646   3.159
  318SOL    HW2  965   0.162   1.583   3.202
  319SOL     OW  966   0.367   1.100   2.363
  319SOL    HW1  967   0.360   1.183   2.307
  319SOL    HW2  968   0.371   1.020   2.303
  320SOL     OW  969   0.566   0.537   2.727
  320SOL    HW1  970   0.578   0.603   2.653
  320SOL    HW2  971   0.612   0.571   2.810
  321SOL     OW  972   1.252   1.348   2.250
  321SOL    HW1  973   1.302   1.425   2.290
  321SOL    HW2  974   1.157   1.350   2.282
  322SOL     OW  975   1.272   1.445   3.004
  322SOL    HW1  976   1.319   1.458   3.091
  322SOL    HW2  977   1.206   1.371   3.013
  323SOL     OW  978   1.582   0.639   2.334
  323SOL    HW1  979   1.551   0.700   2.407
  323SOL    HW2  980   1.632   0.691   2.265
  324SOL     OW  981   0.354   1.510   3.191
  324SOL    HW1  982   0.333   1.466   3.104
  324SOL    HW2  983   0.451   1.536   3.194
  325SOL     OW  984   0.402   0.751   3.460
  325SOL    HW1  985   0.470   0.806   3.413
  325SOL    HW2  986   0.442   0.663   3.487
  326SOL     OW  987   1.587   0.779   3.532
  326SOL    HW1  988   1.495   0.817   3.527
  326SOL    HW2  989   1.647   0.826   3.467
  327SOL     OW  990   1.013   0.105   3.632
  327SOL    HW1  991   1.019   0.190   3.580
  327SOL    HW2  992   1.045   0.029   3.575
  328SOL     OW  993   0.504   0.050   3.602
  328SOL    HW1  994   0.462  -0.007   3.532
  328SOL    HW2  995   0.438   0.119   3.634
  329SOL     OW  996   0.573   0.870   2.891
  329SOL    HW1  997   0.617   0.959   2.882
  329SOL    HW2  998   0.510   0.870   2.968
  330SOL     OW  999   1.360   0.862   2.907
  330SOL    HW1 1000   1.285   0.862   2.841
  330SOL    HW2 1001   1.397   0.770   2.916
  331SOL     OW 1002   1.209   0.525   2.137
  331SOL    HW1 1003   1.222   0.441   2.191
  331SOL    HW2 1004   1.180   0.599   2.197
  332SOL     OW 1005   0.307   0.213   3.093
  332SOL    HW1 1006   0.284   0.250   3.183
  332SOL    HW2 1007   0.277   0.118   3.087
  333SOL     OW 1008   0.037   1.310   3.144
  333SOL    HW1 1009   0.090   1.261   3.212
  333SOL    HW2 1010   0.059   1.408   3.149
  334SOL     OW 1011   0.732   0.634   2.926
  334SOL    HW1 1012   0.791   0.608   2.850
  334SOL    HW2 1013   0.704   0.730   2.915
  335SOL     OW 1014   1.728   0.935   3.716
  335SOL    HW1 1015   1.682   0.928   3.627
  335SOL    HW2 1016   1.666   0.979   3.782
  336SOL     OW 1017   0.307   0.063   2.480
  336SOL    HW1 1018   0.296   0.157   2.513
  336SOL    HW2 1019   0.302   0.000   2.557
  337SOL     OW 1020   1.622   0.367   2.236
  337SOL    HW1 1021   1.624   0.291   2.300
  337SOL    HW2 1022   1.574   0.444   2.276
  338SOL     OW 1023   1.023   0.766   2.828
  338SOL    HW1 1024   1.038   0.787   2.924
  338SOL    HW2 1025   0.993   0.671   2.819
  339SOL     OW 1026   0.980   1.573   3.562
  339SOL    HW1 1027   0.960   1.617   3.474
  339SOL    HW2 1028   1.019   1.482   3.546
  340SOL     OW 1029   1.859   1.518   3.467
  340SOL    HW1 1030   1.873   1.545   3.372
  340SOL    HW2 1031   1.942   1.540   3.520
  341SOL     OW 1032   0.350   0.898   3.666
  341SOL    HW1 1033   0.426   0.942   3.714
  341SOL    HW2 1034   0.385   0.851   3.584
  342SOL     OW 1035   1.540   0.274   1.987
  342SOL    HW1 1036   1.479   0.199   2.010
  342SOL    HW2 1037   1.562   0.326   2.070
  343SOL     OW 1038   1.303   0.838   1.904
  343SOL    HW1 1039   1.337   0.745   1.919
  343SOL    HW2 1040   1.321   0.865   1.809
  344SOL     OW 1041   1.068   1.333   2.711
  344SOL    HW1 1042   1.075   1.249   2.656
  344SOL    HW2 1043   1.130   1.402   2.675
  345SOL     OW 1044   0.319   0.810   2.811
  345SOL    HW1 1045   0.412   0.846   2.816
  345SOL    HW2 1046   0.313   0.725   2.863
  346SOL     OW 1047   0.339   0.509   2.868
  346SOL    HW1 1048   0.287   0.426   2.851
  346SOL    HW2 1049   0.416   0.514   2.804
  347SOL     OW 1050   1.138   0.380   3.540
  347SOL    HW1 1051   1.093   0.443   3.604
  347SOL    HW2 1052   1.231   0.411   3.523
  348SOL     OW 1053   1.160   0.207   3.339
  348SOL    HW1 1054   1.160   0.271   3.416
  348SOL    HW2 1055   1.188   0.255   3.256
  349SOL     OW 1056   0.008   1.326   2.062
  349SOL    HW1 1057  -0.085   1.347   2.031
  349SOL    HW2 1058   0.018   1.227   2.075
  350SOL     OW 1059   0.088   1.801   2.789
  350SOL    HW1 1060   0.046   1.715   2.762
  350SOL    HW2 1061   0.182   1.804   2.755
  351SOL     OW 1062   0.504   1.568   2.772
  351SOL    HW1 1063   0.570   1.642   2.781
  351SOL    HW2 1064   0.548   1.489   2.730
  352SOL     OW 1065   1.002   0.796   3.100
  352SOL    HW1 1066   1.043   0.764   3.186
  352SOL    HW2 1067   0.906   0.769   3.097
  353SOL     OW 1068   0.040   0.544   2.976
  353SOL    HW1 1069   0.125   0.511   2.935
  353SOL    HW2 1070   0.053   0.559   3.074
  354SOL     OW 1071   0.189   0.520   3.584
  354SOL    HW1 1072   0.248   0.480   3.514
  354SOL    HW2 1073   0.131   0.591   3.543
  355SOL     OW 1074   1.369   0.950   3.522
  355SOL    HW1 1075   1.408   1.039   3.542
  355SOL    HW2 1076   1.379   0.930   3.425
  356SOL     OW 1077   0.815   0.572   2.187
  356SOL    HW1 1078   0.822   0.483   2.141
  356SOL    HW2 1079   0.721   0.606   2.179
  357SOL     OW 1080   1.657   0.604   3.068
  357SOL    HW1 1081   1.619   0.535   3.130
  357SOL    HW2 1082   1.739   0.568   3.024
  358SOL     OW 1083   0.252   1.564   3.606
  358SOL    HW1 1084   0.222   1.621   3.682
  358SOL    HW2 1085   0.245   1.467   3.632
  359SOL     OW 1086   0.671   0.464   3.131
  359SOL    HW1 1087   0.637   0.375   3.101
  359SOL    HW2 1088   0.697   0.518   3.051
  360SOL     OW 1089   0.930   1.678   3.327
  360SOL    HW1 1090   0.906   1.660   3.232
  360SOL    HW2 1091   0.960   1.772   3.337
  361SOL     OW 1092   0.473   0.500   2.053
  361SOL    HW1 1093   0.534   0.580   2.057
  361SOL    HW2 1094   0.378   0.531   2.060
  362SOL     OW 1095   0.159   1.137   3.328
  362SOL    HW1 1096   0.181   1.076   3.404
  362SOL    HW2 1097   0.169   1.088   3.242
  363SOL     OW 1098   1.347   1.059   3.096
  363SOL    HW1 1099   1.371   0.996   3.022
  363SOL    HW2 1100   1.257   1.099   3.078
  364SOL     OW 1101   1.302   0.855   2.171
  364SOL    HW1 1102   1.216   0.824   2.213
  364SOL    HW2 1103   1.298   0.841   2.072
  365SOL     OW 1104   1.759   1.747   3.016
  365SOL    HW1 1105   1.820   1.777   2.943
  365SOL    HW2 1106   1.721   1.658   2.994
  366SOL     OW 1107   1.252   1.731   2.990
  366SOL    HW1 1108   1.336   1.736   2.936
  366SOL    HW2 1109   1.229   1.635   3.008
  367SOL     OW 1110   0.083   1.258   2.884
  367SOL    HW1 1111   0.078   1.257   2.984
  367SOL    HW2 1112   0.000   1.217   2.846
  368SOL     OW 1113   0.688   1.662   3.578
  368SOL    HW1 1114   0.632   1.743   3.587
  368SOL    HW2 1115   0.740   1.666   3.492
  369SOL     OW 1116   1.726   0.135   2.385
  369SOL    HW1 1117   1.799   0.118   2.318
  369SOL    HW2 1118   1.695   0.048   2.423
  370SOL     OW 1119   1.388   1.573   2.339
  370SOL    HW1 1120   1.455   1.585   2.265
  370SOL    HW2 1121   1.348   1.662   2.362
  371SOL     OW 1122   0.130   1.794   3.713
  371SOL    HW1 1123   0.089   1.720   3.766
  371SOL    HW2 1124   0.194   1.845   3.771
  372SOL     OW 1125   1.280   0.927   2.534
  372SOL    HW1 1126   1.340   0.846   2.536
  372SOL    HW2 1127   1.320   0.996   2.474
  373SOL     OW 1128   0.830   1.273   3.284
  373SOL    HW1 1129   0.825   1.306   3.379
  373SOL    HW2 1130   0.744   1.292   3.238
  374SOL     OW 1131   0.672   1.616   2.016
  374SOL    HW1 1132   0.681   1.626   1.917
  374SOL    HW2 1133   0.632   1.527   2.037
  375SOL     OW 1134   1.650   1.720   3.256
  375SOL    HW1 1135   1.703   1.730   3.172
  375SOL    HW2 1136   1.623   1.810   3.290
  376SOL     OW 1137   1.841   0.175   2.825
  376SOL    HW1 1138   1.880   0.090   2.789
  376SOL    HW2 1139   1.743   0.177   2.806
  377SOL     OW 1140   0.263   0.326   2.582
  377SOL    HW1 1141   0.184   0.377   2.548
  377SOL    HW2 1142   0.254   0.311   2.680
  378SOL     OW 1143   1.194   1.612   1.893
  378SOL    HW1 1144   1.200   1.519   1.930
  378SOL    HW2 1145   1.135   1.612   1.813
  379SOL     OW 1146   0.822   1.002   3.234
  379SOL    HW1 1147   0.862   1.001   3.142
  379SOL    HW2 1148   0.832   1.094   3.274
  380SOL     OW 1149   0.916   0.910   2.153
  380SOL    HW1 1150   0.979   0.948   2.085
  380SOL    HW2 1151   0.956   0.827   2.192
  381SOL     OW 1152   1.504   1.607   1.906
  381SOL    HW1 1153   1.412   1.644   1.913
  381SOL    HW2 1154   1.542   1.627   1.816
  382SOL     OW 1155   0.372   1.288   3.352
  382SOL    HW1 1156   0.359   1.381   3.318
  382SOL    HW2 1157   0.288   1.236   3.339
  383SOL     OW 1158   1.614   1.292   3.151
  383SOL    HW1 1159   1.674   1.295   3.231
  383SOL    HW2 1160   1.539   1.356   3.164
  384SOL     OW 1161   1.039   1.098   2.558
  384SOL    HW1 1162   0.969   1.051   2.612
  384SOL    HW2 1163   1.098   1.030   2.515
  385SOL     OW 1164   1.014   0.236   2.833
  385SOL    HW1 1165   1.006   0.200   2.740
  385SOL    HW2 1166   1.012   0.160   2.898
  386SOL     OW 1167   0.590   1.487   2.353
  386SOL    HW1 1168   0.632   1.429   2.283
  386SOL    HW2 1169   0.546   1.566   2.309
  387SOL     OW 1170   1.709   0.385   3.243
  387SOL    HW1 1171   1.782   0.454   3.247
  387SOL    HW2 1172   1.737   0.310   3.184
  388SOL     OW 1173   0.255   1.348   2.152
  388SOL    HW1 1174   0.159   1.349   2.125
  388SOL    HW2 1175   0.267   1.401   2.236
  389SOL     OW 1176   0.105   1.013   3.588
  389SOL    HW1 1177   0.028   0.980   3.642
  389SOL    HW2 1178   0.190   0.983   3.630
  390SOL     OW 1179   0.672   0.203   3.351
  390SOL    HW1 1180   0.762   0.187   3.311
  390SOL    HW2 1181   0.680   0.208   3.450
  391SOL     OW 1182   0.075   0.345   1.895
  391SOL    HW1 1183  -0.017   0.317   1.866
  391SOL    HW2 1184   0.106   0.422   1.839
  392SOL     OW 1185   1.440   0.856   3.260
  392SOL    HW1 1186   1.383   0.908   3.197
  392SOL    HW2 1187   1.536   0.868   3.236
  393SOL     OW 1188   0.072   0.166   2.180
  393SOL    HW1 1189   0.055   0.249   2.126
  393SOL    HW2 1190   0.162   0.129   2.158
  394SOL     OW 1191   1.183   1.335   1.981
  394SOL    HW1 1192   1.084   1.324   1.983
  394SOL    HW2 1193   1.217   1.350   2.074
  395SOL     OW 1194   0.613   0.842   3.293
  395SOL    HW1 1195   0.669   0.923   3.276
  395SOL    HW2 1196   0.672   0.762   3.296
  396SOL     OW 1197   1.493   1.767   2.821
  396SOL    HW1 1198   1.526   1.831   2.752
  396SOL    HW2 1199   1.559   1.761   2.896
  397SOL     OW 1200   0.716   0.565   3.570
  397SOL    HW1 1201   0.735   0.630   3.644
  397SOL    HW2 1202   0.776   0.485   3.579
  398SOL     OW 1203   1.450   1.220   3.495
  398SOL    HW1 1204   1.441   1.210   3.594
  398SOL    HW2 1205   1.546   1.213   3.469
  399SOL     OW 1206   0.390   1.741   3.422
  399SOL    HW1 1207   0.299   1.782   3.420
  399SOL    HW2 1208   0.383   1.647   3.454
  400SOL     OW 1209   1.674   0.883   3.116
  400SOL    HW1 1210   1.647   0.794   3.079
  400SOL    HW2 1211   1.675   0.951   3.043
  401SOL     OW 1212   1.225   0.325   2.311
  401SOL    HW1 1213   1.290   0.251   2.300
  401SOL    HW2 1214   1.245   0.375   2.395
  402SOL     OW 1215   0.594   0.745   2.514
  402SOL    HW1 1216   0.644   0.830   2.495
  402SOL    HW2 1217   0.506   0.747   2.466
  403SOL     OW 1218   1.777   0.342   3.504
  403SOL    HW1 1219   1.760   0.373   3.410
  403SOL    HW2 1220   1.693   0.305   3.542
  404SOL     OW 1221   1.730   0.934   3.379
  404SOL    HW1 1222   1.768   1.025   3.394
  404SOL    HW2 1223   1.722   0.917   3.280
  405SOL     OW 1224   0.859   1.374   1.878
  405SOL    HW1 1225   0.813   1.389   1.966
  405SOL    HW2 1226   0.903   1.459   1.848
  406SOL     OW 1227   0.661   1.790   2.815
  406SOL    HW1 1228   0.615   1.878   2.802
  406SOL    HW2 1229   0.760   1.802   2.808
  407SOL     OW 1230   0.859   0.956   2.723
  407SOL    HW1 1231   0.913   0.887   2.771
  407SOL    HW2 1232   0.827   1.025   2.789
  408SOL     OW 1233   1.083   0.984   1.949
  408SOL    HW1 1234   1.060   1.037   1.867
  408SOL    HW2 1235   1.164   0.928   1.930
  409SOL     OW 1236   1.861   1.569   2.713
  409SOL    HW1 1237   1.790   1.557   2.643
  409SOL    HW2 1238   1.862   1.490   2.773
  410SOL     OW 1239   0.221   1.314   3.706
  410SOL    HW1 1240   0.156   1.241   3.685
  410SOL    HW2 1241   0.225   1.328   3.804
  411SOL     OW 1242   0.079   1.240   2.515
  411SOL    HW1 1243   0.078   1.193   2.603
  411SOL    HW2 1244   0.161   1.212   2.464
  412SOL     OW 1245   0.672   1.391   3.486
  412SOL    HW1 1246   0.594   1.341   3.524
  412SOL    HW2 1247   0.669   1.486   3.517
  413SOL     OW 1248   1.824   0.192   3.089
  413SOL    HW1 1249   1.820   0.102   3.133
  413SOL    HW2 1250   1.827   0.181   2.990
  414SOL     OW 1251   0.428   0.424   2.382
  414SOL    HW1 1252   0.458   0.352   2.320
  414SOL    HW2 1253   0.389   0.384   2.465
  415SOL     OW 1254   1.705   1.487   2.966
  415SOL    HW1 1255   1.612   1.462   2.939
  415SOL    HW2 1256   1.731   1.437   3.048
  416SOL     OW 1257   0.317   0.547   3.142
  416SOL    HW1 1258   0.355   0.488   3.214
  416SOL    HW2 1259   0.357   0.521   3.054
  417SOL     OW 1260   0.812   1.586   2.549
  417SOL    HW1 1261   0.844   1.596   2.455
  417SOL    HW2 1262   0.733   1.524   2.551
  418SOL     OW 1263   1.424   0.214   2.974
  418SOL    HW1 1264   1.476   0.149   3.029
  418SOL    HW2 1265   1.375   0.277   3.035
  419SOL     OW 1266   1.001   0.034   3.016
  419SOL    HW1 1267   0.938  -0.038   2.985
  419SOL    HW2 1268   1.094  -0.002   3.016
  420SOL     OW 1269   0.770   1.330   2.163
  420SOL    HW1 1270   0.724   1.243   2.180
  420SOL    HW2 1271   0.861   1.327   2.204
  421SOL     OW 1272   0.618   1.567   3.146
  421SOL    HW1 1273   0.613   1.649   3.203
  421SOL    HW2 1274   0.707   1.564   3.101
  422SOL     OW 1275   1.352   0.052   2.030
  422SOL    HW1 1276   1.387   0.011   1.946
  422SOL    HW2 1277   1.262   0.014   2.050
  423SOL     OW 1278   1.300   0.453   2.553
  423SOL    HW1 1279   1.241   0.533   2.557
  423SOL    HW2 1280   1.315   0.418   2.646
  424SOL     OW 1281   1.593   0.221   2.744
  424SOL    HW1 1282   1.509   0.220   2.798
  424SOL    HW2 1283   1.595   0.304   2.688
  425SOL     OW 1284   0.039   1.077   2.162
  425SOL    HW1 1285   0.138   1.066   2.153
  425SOL    HW2 1286  -0.001   0.991   2.194
  426SOL     OW 1287   0.875   1.646   2.199
  426SOL    HW1 1288   0.798   1.611   2.145
  426SOL    HW2 1289   0.843   1.717   2.261
  427SOL     OW 1290   0.230   0.628   3.837
  427SOL    HW1 1291   0.137   0.626   3.874
  427SOL    HW2 1292   0.231   0.589   3.745
  428SOL     OW 1293   0.019   0.368   4.371
  428SOL    HW1 1294  -0.063   0.411   4.410
  428SOL    HW2 1295  -0.009   0.295   4.308
  429SOL     OW 1296   1.555   1.511   4.427
  429SOL    HW1 1297   1.498   1.495   4.508
  429SOL    HW2 1298   1.496   1.521   4.347
  430SOL     OW 1299   1.135   0.703   4.441
  430SOL    HW1 1300   1.192   0.781   4.416
  430SOL    HW2 1301   1.075   0.729   4.517
  431SOL     OW 1302   1.755   0.607   3.955
  431SOL    HW1 1303   1.743   0.594   3.856
  431SOL    HW2 1304   1.725   0.526   4.004
  432SOL     OW 1305   0.768   1.144   4.747
  432SOL    HW1 1306   0.690   1.161   4.807
  432SOL    HW2 1307   0.802   1.231   4.711
  433SOL     OW 1308   0.685   1.012   4.389
  433SOL    HW1 1309   0.754   0.996   4.459
  433SOL    HW2 1310   0.612   1.069   4.427
  434SOL     OW 1311   1.603   0.447   4.461
  434SOL    HW1 1312   1.529   0.493   4.411
  434SOL    HW2 1313   1.654   0.515   4.514
  435SOL     OW 1314   0.231   1.713   4.207
  435SOL    HW1 1315   0.265   1.790   4.261
  435SOL    HW2 1316   0.275   1.713   4.117
  436SOL     OW 1317   0.230   1.434   4.262
  436SOL    HW1 1318   0.204   1.530   4.262
  436SOL    HW2 1319   0.159   1.380   4.307
  437SOL     OW 1320   0.240   1.091   4.610
  437SOL    HW1 1321   0.254   1.007   4.662
  437SOL    HW2 1322   0.185   1.155   4.665
  438SOL     OW 1323   0.606   0.964   3.847
  438SOL    HW1 1324   0.613   1.048   3.793
  438SOL    HW2 1325   0.652   0.977   3.935
  439SOL     OW 1326   0.122   0.643   4.287
  439SOL    HW1 1327   0.077   0.555   4.304
  439SOL    HW2 1328   0.121   0.697   4.371
  440SOL     OW 1329   1.842   1.767   4.083
  440SOL    HW1 1330   1.896   1.738   4.163
  440SOL    HW2 1331   1.872   1.857   4.054
  441SOL     OW 1332   0.027   1.596   3.841
  441SOL    HW1 1333   0.008   1.500   3.862
  441SOL    HW2 1334  -0.006   1.654   3.916
  442SOL     OW 1335   1.689   0.922   4.336
  442SOL    HW1 1336   1.784   0.893   4.344
  442SOL    HW2 1337   1.681   0.987   4.261
  443SOL     OW 1338   1.641   1.108   4.156
  443SOL    HW1 1339   1.727   1.110   4.104
  443SOL    HW2 1340   1.655   1.155   4.244
  444SOL     OW 1341   0.613   1.365   4.450
  444SOL    HW1 1342   0.564   1.278   4.459
  444SOL    HW2 1343   0.590   1.408   4.363
  445SOL     OW 1344   0.809   0.004   4.226
  445SOL    HW1 1345   0.849   0.095   4.217
  445SOL    HW2 1346   0.709   0.012   4.232
  446SOL     OW 1347   1.525   0.999   3.914
  446SOL    HW1 1348   1.462   0.923   3.927
  446SOL    HW2 1349   1.573   1.017   4.000
  447SOL     OW 1350   1.667   1.714   4.296
  447SOL    HW1 1351   1.626   1.691   4.208
  447SOL    HW2 1352   1.649   1.640   4.361
  448SOL     OW 1353   0.598   0.729   3.994
  448SOL    HW1 1354   0.622   0.798   3.926
  448SOL    HW2 1355   0.520   0.762   4.048
  449SOL     OW 1356   1.281   0.345   4.668
  449SOL    HW1 1357   1.195   0.295   4.655
  449SOL    HW2 1358   1.343   0.291   4.724
  450SOL     OW 1359   1.576   1.662   4.031
  450SOL    HW1 1360   1.665   1.708   4.034
  450SOL    HW2 1361   1.555   1.638   3.936
  451SOL     OW 1362   1.041   0.701   4.153
  451SOL    HW1 1363   1.067   0.697   4.249
  451SOL    HW2 1364   0.956   0.650   4.139
  452SOL     OW 1365   0.076   0.811   4.513
  452SOL    HW1 1366   0.175   0.799   4.522
  452SOL    HW2 1367   0.052   0.906   4.534
  453SOL     OW 1368   0.865   0.348   3.919
  453SOL    HW1 1369   0.924   0.411   3.870
  453SOL    HW2 1370   0.884   0.254   3.890
  454SOL     OW 1371   1.362   1.144   4.269
  454SOL    HW1 1372   1.445   1.115   4.221
  454SOL    HW2 1373   1.313   1.211   4.213
  455SOL     OW 1374   1.008   1.456   4.201
  455SOL    HW1 1375   0.962   1.528   4.149
  455SOL    HW2 1376   1.004   1.476   4.299
  456SOL     OW 1377   0.351   1.801   4.577
  456SOL    HW1 1378   0.401   1.715   4.583
  456SOL    HW2 1379   0.416   1.878   4.574
  457SOL     OW 1380   1.795   1.066   4.597
  457SOL    HW1 1381   1.733   1.051   4.521
  457SOL    HW2 1382   1.743   1.077   4.682
  458SOL     OW 1383   0.321   0.943   3.966
  458SOL    HW1 1384   0.403   0.982   3.924
  458SOL    HW2 1385   0.294   0.861   3.917
  459SOL     OW 1386   1.458   0.735   4.452
  459SOL    HW1 1387   1.453   0.670   4.527
  459SOL    HW2 1388   1.538   0.794   4.465
  460SOL     OW 1389   1.111   1.776   3.961
  460SOL    HW1 1390   1.051   1.714   4.011
  460SOL    HW2 1391   1.142   1.732   3.876
  461SOL     OW 1392   1.632   1.377   3.805
  461SOL    HW1 1393   1.600   1.471   3.795
  461SOL    HW2 1394   1.556   1.314   3.793
  462SOL     OW 1395   0.464   1.743   4.047
  462SOL    HW1 1396   0.497   1.782   4.133
  462SOL    HW2 1397   0.540   1.736   3.982
  463SOL     OW 1398   1.400   0.107   4.150
  463SOL    HW1 1399   1.376   0.070   4.060
  463SOL    HW2 1400   1.499   0.123   4.154
  464SOL     OW 1401   0.940   1.698   4.628
  464SOL    HW1 1402   1.020   1.641   4.649
  464SOL    HW2 1403   0.891   1.658   4.551
  465SOL     OW 1404   0.382   0.700   4.204
  465SOL    HW1 1405   0.427   0.610   4.201
  465SOL    HW2 1406   0.288   0.689   4.237
  466SOL     OW 1407   0.614   0.122   3.841
  466SOL    HW1 1408   0.712   0.100   3.848
  466SOL    HW2 1409   0.583   0.105   3.748
  467SOL     OW 1410   0.539   0.064   4.236
  467SOL    HW1 1411   0.458   0.065   4.294
  467SOL    HW2 1412   0.542   0.147   4.181
  468SOL     OW 1413   1.434   1.188   3.765
  468SOL    HW1 1414   1.466   1.112   3.822
  468SOL    HW2 1415   1.342   1.215   3.795
  469SOL     OW 1416   0.297   0.035   3.895
  469SOL    HW1 1417   0.346   0.119   3.874
  469SOL    HW2 1418   0.359  -0.030   3.940
  470SOL     OW 1419   0.935   0.236   4.204
  470SOL    HW1 1420   0.887   0.277   4.126
  470SOL    HW2 1421   1.034   0.234   4.185
  471SOL     OW 1422   0.459   1.152   4.465
  471SOL    HW1 1423   0.388   1.125   4.530
  471SOL    HW2 1424   0.433   1.124   4.372
  472SOL     OW 1425   1.271   1.797   4.315
  472SOL    HW1 1426   1.315   1.861   4.251
  472SOL    HW2 1427   1.221   1.849   4.385
  473SOL     OW 1428   1.032   0.549   3.740
  473SOL    HW1 1429   0.991   0.631   3.701
  473SOL    HW2 1430   1.096   0.575   3.813
  474SOL     OW 1431   0.866   0.454   4.366
  474SOL    HW1 1432   0.834   0.526   4.304
  474SOL    HW2 1433   0.890   0.373   4.313
  475SOL     OW 1434   1.017   0.039   4.477
  475SOL    HW1 1435   0.945   0.044   4.408
  475SOL    HW2 1436   0.993  -0.030   4.546
  476SOL     OW 1437   1.857   0.833   4.101
  476SOL    HW1 1438   1.899   0.769   4.165
  476SOL    HW2 1439   1.819   0.782   4.023
  477SOL     OW 1440   0.488   1.385   3.898
  477SOL    HW1 1441   0.401   1.370   3.945
  477SOL    HW2 1442   0.471   1.411   3.803
  478SOL     OW 1443   1.664   1.280   4.381
  478SOL    HW1 1444   1.763   1.288   4.395
  478SOL    HW2 1445   1.619   1.364   4.412
  479SOL     OW 1446   1.390   0.575   3.802
  479SOL    HW1 1447   1.336   0.554   3.883
  479SOL    HW2 1448   1.481   0.534   3.811
  480SOL     OW 1449   0.527   0.256   4.052
  480SOL    HW1 1450   0.554   0.197   3.977
  480SOL    HW2 1451   0.527   0.351   4.021
  481SOL     OW 1452   0.705   1.050   4.092
  481SOL    HW1 1453   0.691   1.057   4.191
  481SOL    HW2 1454   0.789   0.999   4.074
  482SOL     OW 1455   0.367   1.100   4.225
  482SOL    HW1 1456   0.360   1.183   4.169
  482SOL    HW2 1457   0.371   1.020   4.165
  483SOL     OW 1458   0.566   0.537   4.589
  483SOL    HW1 1459   0.578   0.603   4.515
  483SOL    HW2 1460   0.612   0.571   4.672
  484SOL     OW 1461   1.252   1.348   4.112
  484SOL    HW1 1462   1.302   1.425   4.152
  484SOL    HW2 1463   1.157   1.350   4.144
  485SOL     OW 1464   1.582   0.639   4.196
  485SOL    HW1 1465   1.551   0.700   4.269
  485SOL    HW2 1466   1.632   0.691   4.127
  486SOL     OW 1467   1.209   0.525   3.999
  486SOL    HW1 1468   1.222   0.441   4.053
  486SOL    HW2 1469   1.180   0.599   4.059
  487SOL     OW 1470   0.307   0.063   4.342
  487SOL    HW1 1471   0.296   0.157   4.375
  487SOL    HW2 1472   0.302   0.000   4.419
  488SOL     OW 1473   1.622   0.367   4.098
  488SOL    HW1 1474   1.624   0.291   4.162
  488SOL    HW2 1475   1.574   0.444   4.138
  489SOL     OW 1476   1.540   0.274   3.849
  489SOL    HW1 1477   1.479   0.199   3.872
  489SOL    HW2 1478   1.562   0.326   3.932
  490SOL     OW 1479   1.303   0.838   3.766
  490SOL    HW1 1480   1.337   0.745   3.781
  490SOL    HW2 1481   1.321   0.865   3.671
  491SOL     OW 1482   1.068   1.333   4.573
  491SOL    HW1 1483   1.075   1.249   4.518
  491SOL    HW2 1484   1.130   1.402   4.537
  492SOL     OW 1485   0.008   1.326   3.924
  492SOL    HW1 1486  -0.085   1.347   3.893
  492SOL    HW2 1487   0.018   1.227   3.937
  493SOL     OW 1488   0.088   1.801   4.651
  493SOL    HW1 1489   0.046   1.715   4.624
  493SOL    HW2 1490   0.182   1.804   4.617
  494SOL     OW 1491   0.815   0.572   4.049
  494SOL    HW1 1492   0.822   0.483   4.003
  494SOL    HW2 1493   0.721   0.606   4.041
  495SOL     OW 1494   0.473   0.500   3.915
  495SOL    HW1 1495   0.534   0.580   3.919
  495SOL    HW2 1496   0.378   0.531   3.922
  496SOL     OW 1497   1.302   0.855   4.033
  496SOL    HW1 1498   1.216   0.824   4.075
  496SOL    HW2 1499   1.298   0.841   3.934
  497SOL     OW 1500   1.726   0.135   4.247
  497SOL    HW1 1501   1.799   0.118   4.180
  497SOL    HW2 1502   1.695   0.048   4.285
  498SOL     OW 1503   1.388   1.573   4.201
  498SOL    HW1 1504   1.455   1.585   4.127
  498SOL    HW2 1505   1.348   1.662   4.224
  499SOL     OW 1506   1.280   0.927   4.396
  499SOL    HW1 1507   1.340   0.846   4.398
  499SOL    HW2 1508   1.320   0.996   4.336
  500SOL     OW 1509   0.672   1.616   3.878
  500SOL    HW1 1510   0.681   1.626   3.779
  500SOL    HW2 1511   0.632   1.527   3.899
  501SOL     OW 1512   1.841   0.175   4.687
  501SOL    HW1 1513   1.880   0.090   4.651
  501SOL    HW2 1514   1.743   0.177   4.668
  502SOL     OW 1515   0.263   0.326   4.444
  502SOL    HW1 1516   0.184   0.377   4.410
  502SOL    HW2 1517   0.254   0.311   4.542
  503SOL     OW 1518   1.194   1.612   3.755
  503SOL    HW1 1519   1.200   1.519   3.792
  503SOL    HW2 1520   1.135   1.612   3.675
  504SOL     OW 1521   0.916   0.910   4.015
  504SOL    HW1 1522   0.979   0.948   3.947
  504SOL    HW2 1523   0.956   0.827   4.054
  505SOL     OW 1524   1.504   1.607   3.768
  505SOL    HW1 1525   1.412   1.644   3.775
  505SOL    HW2 1526   1.542   1.627   3.678
  506SOL     OW 1527   1.039   1.098   4.420
  506SOL    HW1 1528   0.969   1.051   4.474
  506SOL    HW2 1529   1.098   1.030   4.377
  507SOL     OW 1530   0.590   1.487   4.215
  507SOL    HW1 1531   0.632   1.429   4.145
  507SOL    HW2 1532   0.546   1.566   4.171
  508SOL     OW 1533   0.255   1.348   4.014
  508SOL    HW1 1534   0.159   1.349   3.987
  508SOL    HW2 1535   0.267   1.401   4.098
  509SOL     OW 1536   0.075   0.345   3.757
  509SOL    HW1 1537  -0.017   0.317   3.728
  509SOL    HW2 1538   0.106   0.422   3.701
  510SOL     OW 1539   0.072   0.166   4.042
  510SOL    HW1 1540   0.055   0.249   3.988
  510SOL    HW2 1541   0.162   0.129   4.020
  511SOL     OW 1542   1.183   1.335   3.843
  511SOL    HW1 1543   1.084   1.324   3.845
  511SOL    HW2 1544   1.217   1.350   3.936
  512SOL     OW 1545   1.225   0.325   4.173
  512SOL    HW1 1546   1.290   0.251   4.162
  512SOL    HW2 1547   1.245   0.375   4.257
  513SOL     OW 1548   0.594   0.745   4.376
  513SOL    HW1 1549   0.644   0.830   4.357
  513SOL    HW2 1550   0.506   0.747   4.328
  514SOL     OW 1551   0.859   1.374   3.740
  514SOL    HW1 1552   0.813   1.389   3.828
  514SOL    HW2 1553   0.903   1.459   3.710
  515SOL     OW 1554   0.661   1.790   4.677
  515SOL    HW1 1555   0.615   1.878   4.664
  515SOL    HW2 1556   0.760   1.802   4.670
  516SOL     OW 1557   0.859   0.956   4.585
  516SOL    HW1 1558   0.913   0.887   4.633
  516SOL    HW2 1559   0.827   1.025   4.651
  517SOL     OW 1560   1.083   0.984   3.811
  517SOL    HW1 1561   1.060   1.037   3.729
  517SOL    HW2 1562   1.164   0.928   3.792
  518SOL     OW 1563   0.079   1.240   4.377
  518SOL    HW1 1564   0.078   1.193   4.465
  518SOL    HW2 1565   0.161   1.212   4.326
  519SOL     OW 1566   0.428   0.424   4.244
  519SOL    HW1 1567   0.458   0.352   4.182
  519SOL    HW2 1568   0.389   0.384   4.327
  520SOL     OW 1569   0.812   1.586   4.411
  520SOL    HW1 1570   0.844   1.596   4.317
  520SOL    HW2 1571   0.733   1.524   4.413
  521SOL     OW 1572   0.770   1.330   4.025
  521SOL    HW1 1573   0.724   1.243   4.042
  521SOL    HW2 1574   0.861   1.327   4.066
  522SOL     OW 1575   1.352   0.052   3.892
  522SOL    HW1 1576   1.387   0.011   3.808
  522SOL    HW2 1577   1.262   0.014   3.912
  523SOL     OW 1578   1.300   0.453   4.415
  523SOL    HW1 1579   1.241   0.533   4.419
  523SOL    HW2 1580   1.315   0.418   4.508
  524SOL     OW 1581   0.039   1.077   4.024
  524SOL    HW1 1582   0.138   1.066   4.015
  524SOL    HW2 1583  -0.001   0.991   4.056
  525SOL     OW 1584   0.875   1.646   4.061
  525SOL    HW1 1585   0.798   1.611   4.007
  525SOL    HW2 1586   0.843   1.717   4.123
  526SOL     OW 1587   0.230   2.490   0.113
  526SOL    HW1 1588   0.137   2.488   0.150
  526SOL    HW2 1589   0.231   2.451   0.021
  527SOL     OW 1590   0.225   2.137   0.996
  527SOL    HW1 1591   0.260   2.120   1.088
  527SOL    HW2 1592   0.137   2.092   0.984
  528SOL     OW 1593   0.019   2.230   0.647
  528SOL    HW1 1594  -0.063   2.273   0.686
  528SOL    HW2 1595  -0.009   2.157   0.584
  529SOL     OW 1596   0.569   3.137   1.165
  529SOL    HW1 1597   0.476   3.130   1.128
  529SOL    HW2 1598   0.580   3.226   1.209
  530SOL     OW 1599   1.555   3.373   0.703
  530SOL    HW1 1600   1.498   3.357   0.784
  530SOL    HW2 1601   1.496   3.383   0.623
  531SOL     OW 1602   1.135   2.565   0.717
  531SOL    HW1 1603   1.192   2.643   0.692
  531SOL    HW2 1604   1.075   2.591   0.793
  532SOL     OW 1605   1.755   2.469   0.231
  532SOL    HW1 1606   1.743   2.456   0.132
  532SOL    HW2 1607   1.725   2.388   0.280
  533SOL     OW 1608   0.768   3.006   1.023
  533SOL    HW1 1609   0.690   3.023   1.083
  533SOL    HW2 1610   0.802   3.093   0.987
  534SOL     OW 1611   0.850   2.660   1.823
  534SOL    HW1 1612   0.846   2.736   1.888
  534SOL    HW2 1613   0.872   2.696   1.732
  535SOL     OW 1614   0.685   2.874   0.665
  535SOL    HW1 1615   0.754   2.858   0.735
  535SOL    HW2 1616   0.612   2.931   0.703
  536SOL     OW 1617   0.686   3.023   1.803
  536SOL    HW1 1618   0.746   3.102   1.817
  536SOL    HW2 1619   0.600   3.054   1.762
  537SOL     OW 1620   0.335   3.297   1.061
  537SOL    HW1 1621   0.257   3.266   1.008
  537SOL    HW2 1622   0.393   3.355   1.004
  538SOL     OW 1623   1.460   3.367   1.339
  538SOL    HW1 1624   1.484   3.461   1.365
  538SOL    HW2 1625   1.444   3.313   1.421
  539SOL     OW 1626   0.438   2.254   1.499
  539SOL    HW1 1627   0.520   2.198   1.508
  539SOL    HW2 1628   0.357   2.196   1.503
  540SOL     OW 1629   1.603   2.309   0.737
  540SOL    HW1 1630   1.529   2.355   0.687
  540SOL    HW2 1631   1.654   2.377   0.790
  541SOL     OW 1632   0.231   3.575   0.483
  541SOL    HW1 1633   0.265   3.652   0.537
  541SOL    HW2 1634   0.275   3.575   0.393
  542SOL     OW 1635   1.127   3.203   1.690
  542SOL    HW1 1636   1.174   3.203   1.778
  542SOL    HW2 1637   1.079   3.116   1.679
  543SOL     OW 1638   0.230   3.296   0.538
  543SOL    HW1 1639   0.204   3.392   0.538
  543SOL    HW2 1640   0.159   3.242   0.583
  544SOL     OW 1641   0.240   2.953   0.886
  544SOL    HW1 1642   0.254   2.869   0.938
  544SOL    HW2 1643   0.185   3.017   0.941
  545SOL     OW 1644   0.620   3.648   1.439
  545SOL    HW1 1645   0.528   3.631   1.474
  545SOL    HW2 1646   0.648   3.740   1.465
  546SOL     OW 1647   0.606   2.826   0.123
  546SOL    HW1 1648   0.613   2.910   0.069
  546SOL    HW2 1649   0.652   2.839   0.211
  547SOL     OW 1650   1.594   1.976   1.480
  547SOL    HW1 1651   1.576   2.043   1.408
  547SOL    HW2 1652   1.591   2.022   1.569
  548SOL     OW 1653   0.122   2.505   0.563
  548SOL    HW1 1654   0.077   2.417   0.580
  548SOL    HW2 1655   0.121   2.559   0.647
  549SOL     OW 1656   1.842   3.629   0.359
  549SOL    HW1 1657   1.896   3.600   0.439
  549SOL    HW2 1658   1.872   3.719   0.330
  550SOL     OW 1659   0.027   3.458   0.117
  550SOL    HW1 1660   0.008   3.362   0.138
  550SOL    HW2 1661  -0.006   3.516   0.192
  551SOL     OW 1662   1.689   2.784   0.612
  551SOL    HW1 1663   1.784   2.755   0.620
  551SOL    HW2 1664   1.681   2.849   0.537
  552SOL     OW 1665   1.641   2.970   0.432
  552SOL    HW1 1666   1.727   2.972   0.380
  552SOL    HW2 1667   1.655   3.017   0.520
  553SOL     OW 1668   0.113   2.599   1.597
  553SOL    HW1 1669   0.201   2.586   1.642
  553SOL    HW2 1670   0.100   2.696   1.575
  554SOL     OW 1671   0.613   3.227   0.726
  554SOL    HW1 1672   0.564   3.140   0.735
  554SOL    HW2 1673   0.590   3.270   0.639
  555SOL     OW 1674   1.293   3.090   1.423
  555SOL    HW1 1675   1.330   3.017   1.365
  555SOL    HW2 1676   1.345   3.095   1.508
  556SOL     OW 1677   0.809   1.866   0.502
  556SOL    HW1 1678   0.849   1.957   0.493
  556SOL    HW2 1679   0.709   1.874   0.508
  557SOL     OW 1680   0.197   2.838   1.264
  557SOL    HW1 1681   0.286   2.793   1.250
  557SOL    HW2 1682   0.124   2.773   1.245
  558SOL     OW 1683   1.525   2.861   0.190
  558SOL    HW1 1684   1.462   2.785   0.203
  558SOL    HW2 1685   1.573   2.879   0.276
  559SOL     OW 1686   1.187   3.654   1.616
  559SOL    HW1 1687   1.211   3.714   1.540
  559SOL    HW2 1688   1.194   3.559   1.586
  560SOL     OW 1689   0.317   2.113   1.801
  560SOL    HW1 1690   0.388   2.184   1.807
  560SOL    HW2 1691   0.229   2.152   1.829
  561SOL     OW 1692   1.466   3.279   0.953
  561SOL    HW1 1693   1.407   3.285   1.033
  561SOL    HW2 1694   1.451   3.191   0.907
  562SOL     OW 1695   1.667   3.576   0.572
  562SOL    HW1 1696   1.626   3.553   0.484
  562SOL    HW2 1697   1.649   3.502   0.637
  563SOL     OW 1698   0.598   2.591   0.270
  563SOL    HW1 1699   0.622   2.660   0.202
  563SOL    HW2 1700   0.520   2.624   0.324
  564SOL     OW 1701   1.281   2.207   0.944
  564SOL    HW1 1702   1.195   2.157   0.931
  564SOL    HW2 1703   1.343   2.153   1.000
  565SOL     OW 1704   1.576   3.524   0.307
  565SOL    HW1 1705   1.665   3.570   0.310
  565SOL    HW2 1706   1.555   3.500   0.212
  566SOL     OW 1707   0.807   2.467   1.465
  566SOL    HW1 1708   0.760   2.464   1.554
  566SOL    HW2 1709   0.756   2.412   1.399
  567SOL     OW 1710   1.394   2.331   1.674
  567SOL    HW1 1711   1.374   2.374   1.762
  567SOL    HW2 1712   1.472   2.269   1.683
  568SOL     OW 1713   0.973   2.752   1.572
  568SOL    HW1 1714   1.019   2.668   1.543
  568SOL    HW2 1715   0.917   2.786   1.497
  569SOL     OW 1716   0.991   2.272   1.242
  569SOL    HW1 1717   0.914   2.306   1.296
  569SOL    HW2 1718   0.957   2.221   1.163
  570SOL     OW 1719   1.041   2.563   0.429
  570SOL    HW1 1720   1.067   2.559   0.525
  570SOL    HW2 1721   0.956   2.512   0.415
  571SOL     OW 1722   0.076   2.673   0.789
  571SOL    HW1 1723   0.175   2.661   0.798
  571SOL    HW2 1724   0.052   2.768   0.810
  572SOL     OW 1725   0.130   3.683   1.571
  572SOL    HW1 1726   0.120   3.668   1.670
  572SOL    HW2 1727   0.044   3.719   1.535
  573SOL     OW 1728   0.865   2.210   0.195
  573SOL    HW1 1729   0.924   2.273   0.146
  573SOL    HW2 1730   0.884   2.116   0.166
  574SOL     OW 1731   1.719   2.447   1.831
  574SOL    HW1 1732   1.693   2.536   1.795
  574SOL    HW2 1733   1.717   2.379   1.758
  575SOL     OW 1734   1.362   3.006   0.545
  575SOL    HW1 1735   1.445   2.977   0.497
  575SOL    HW2 1736   1.313   3.073   0.489
  576SOL     OW 1737   0.550   2.058   0.885
  576SOL    HW1 1738   0.545   2.053   0.985
  576SOL    HW2 1739   0.552   2.154   0.856
  577SOL     OW 1740   1.008   3.318   0.477
  577SOL    HW1 1741   0.962   3.390   0.425
  577SOL    HW2 1742   1.004   3.338   0.575
  578SOL     OW 1743   0.351   3.663   0.853
  578SOL    HW1 1744   0.401   3.577   0.859
  578SOL    HW2 1745   0.416   3.740   0.850
  579SOL     OW 1746   1.795   2.928   0.873
  579SOL    HW1 1747   1.733   2.913   0.797
  579SOL    HW2 1748   1.743   2.939   0.958
  580SOL     OW 1749   1.227   3.412   1.506
  580SOL    HW1 1750   1.233   3.335   1.570
  580SOL    HW2 1751   1.175   3.386   1.426
  581SOL     OW 1752   0.321   2.805   0.242
  581SOL    HW1 1753   0.403   2.844   0.200
  581SOL    HW2 1754   0.294   2.723   0.193
  582SOL     OW 1755   1.458   2.597   0.728
  582SOL    HW1 1756   1.453   2.532   0.803
  582SOL    HW2 1757   1.538   2.656   0.741
  583SOL     OW 1758   0.461   3.128   1.727
  583SOL    HW1 1759   0.411   3.129   1.641
  583SOL    HW2 1760   0.398   3.110   1.803
  584SOL     OW 1761   1.111   3.638   0.237
  584SOL    HW1 1762   1.051   3.576   0.287
  584SOL    HW2 1763   1.142   3.594   0.152
  585SOL     OW 1764   0.202   2.147   1.498
  585SOL    HW1 1765   0.122   2.207   1.485
  585SOL    HW2 1766   0.192   2.098   1.584
  586SOL     OW 1767   1.632   3.239   0.081
  586SOL    HW1 1768   1.600   3.333   0.071
  586SOL    HW2 1769   1.556   3.176   0.069
  587SOL     OW 1770   0.464   3.605   0.323
  587SOL    HW1 1771   0.497   3.644   0.409
  587SOL    HW2 1772   0.540   3.598   0.258
  588SOL     OW 1773   1.400   1.969   0.426
  588SOL    HW1 1774   1.376   1.932   0.336
  588SOL    HW2 1775   1.499   1.985   0.430
  589SOL     OW 1776   0.249   3.647   1.241
  589SOL    HW1 1777   0.306   3.582   1.291
  589SOL    HW2 1778   0.233   3.614   1.148
  590SOL     OW 1779   0.940   3.560   0.904
  590SOL    HW1 1780   1.020   3.503   0.925
  590SOL    HW2 1781   0.891   3.520   0.827
  591SOL     OW 1782   0.382   2.562   0.480
  591SOL    HW1 1783   0.427   2.472   0.477
  591SOL    HW2 1784   0.288   2.551   0.513
  592SOL     OW 1785   1.547   2.084   1.729
  592SOL    HW1 1786   1.542   2.121   1.821
  592SOL    HW2 1787   1.475   2.015   1.717
  593SOL     OW 1788   0.781   2.126   1.749
  593SOL    HW1 1789   0.848   2.065   1.792
  593SOL    HW2 1790   0.708   2.145   1.814
  594SOL     OW 1791   0.888   3.376   1.195
  594SOL    HW1 1792   0.865   3.351   1.101
  594SOL    HW2 1793   0.949   3.307   1.234
  595SOL     OW 1794   1.351   2.452   1.433
  595SOL    HW1 1795   1.379   2.409   1.518
  595SOL    HW2 1796   1.376   2.548   1.434
  596SOL     OW 1797   0.803   3.264   0.924
  596SOL    HW1 1798   0.893   3.278   0.882
  596SOL    HW2 1799   0.732   3.266   0.853
  597SOL     OW 1800   0.922   2.365   0.899
  597SOL    HW1 1801   0.897   2.356   0.803
  597SOL    HW2 1802   0.970   2.283   0.930
  598SOL     OW 1803   0.539   1.926   0.512
  598SOL    HW1 1804   0.458   1.927   0.570
  598SOL    HW2 1805   0.542   2.009   0.457
  599SOL     OW 1806   1.434   3.050   0.041
  599SOL    HW1 1807   1.466   2.974   0.098
  599SOL    HW2 1808   1.342   3.077   0.071
  600SOL     OW 1809   0.297   1.897   0.171
  600SOL    HW1 1810   0.346   1.981   0.150
  600SOL    HW2 1811   0.359   1.832   0.216
  601SOL     OW 1812   0.935   2.098   0.480
  601SOL    HW1 1813   0.887   2.139   0.402
  601SOL    HW2 1814   1.034   2.096   0.461
  602SOL     OW 1815   1.076   2.545   1.464
  602SOL    HW1 1816   0.996   2.484   1.467
  602SOL    HW2 1817   1.157   2.492   1.440
  603SOL     OW 1818   1.227   3.432   0.793
  603SOL    HW1 1819   1.248   3.506   0.728
  603SOL    HW2 1820   1.295   3.432   0.866
  604SOL     OW 1821   0.459   3.014   0.741
  604SOL    HW1 1822   0.388   2.987   0.806
  604SOL    HW2 1823   0.433   2.986   0.648
  605SOL     OW 1824   1.271   3.659   0.591
  605SOL    HW1 1825   1.315   3.723   0.527
  605SOL    HW2 1826   1.221   3.711   0.661
  606SOL     OW 1827   1.032   2.411   0.016
  606SOL    HW1 1828   0.991   2.493  -0.023
  606SOL    HW2 1829   1.096   2.437   0.089
  607SOL     OW 1830   0.078   2.418   1.386
  607SOL    HW1 1831   0.170   2.417   1.345
  607SOL    HW2 1832   0.072   2.492   1.453
  608SOL     OW 1833   0.561   2.084   1.147
  608SOL    HW1 1834   0.599   2.000   1.184
  608SOL    HW2 1835   0.473   2.103   1.191
  609SOL     OW 1836   0.866   2.316   0.642
  609SOL    HW1 1837   0.834   2.388   0.580
  609SOL    HW2 1838   0.890   2.235   0.589
  610SOL     OW 1839   1.017   1.901   0.753
  610SOL    HW1 1840   0.945   1.906   0.684
  610SOL    HW2 1841   0.993   1.832   0.822
  611SOL     OW 1842   1.429   3.035   0.867
  611SOL    HW1 1843   1.374   2.951   0.860
  611SOL    HW2 1844   1.455   3.064   0.775
  612SOL     OW 1845   1.466   2.452   0.992
  612SOL    HW1 1846   1.436   2.357   0.999
  612SOL    HW2 1847   1.539   2.468   1.058
  613SOL     OW 1848   1.857   2.695   0.377
  613SOL    HW1 1849   1.899   2.631   0.441
  613SOL    HW2 1850   1.819   2.644   0.299
  614SOL     OW 1851   0.488   3.247   0.174
  614SOL    HW1 1852   0.401   3.232   0.221
  614SOL    HW2 1853   0.471   3.273   0.079
  615SOL     OW 1854   1.664   3.142   0.657
  615SOL    HW1 1855   1.763   3.150   0.671
  615SOL    HW2 1856   1.619   3.226   0.688
  616SOL     OW 1857   1.390   2.437   0.078
  616SOL    HW1 1858   1.336   2.416   0.159
  616SOL    HW2 1859   1.481   2.396   0.087
  617SOL     OW 1860   0.527   2.118   0.328
  617SOL    HW1 1861   0.554   2.059   0.253
  617SOL    HW2 1862   0.527   2.213   0.297
  618SOL     OW 1863   1.754   3.085   1.588
  618SOL    HW1 1864   1.845   3.046   1.575
  618SOL    HW2 1865   1.762   3.181   1.612
  619SOL     OW 1866   1.064   3.209   1.340
  619SOL    HW1 1867   0.984   3.186   1.395
  619SOL    HW2 1868   1.147   3.183   1.389
  620SOL     OW 1869   1.592   3.491   1.625
  620SOL    HW1 1870   1.619   3.525   1.535
  620SOL    HW2 1871   1.671   3.453   1.671
  621SOL     OW 1872   1.111   3.057   1.100
  621SOL    HW1 1873   1.071   3.101   1.181
  621SOL    HW2 1874   1.070   3.094   1.017
  622SOL     OW 1875   1.638   2.961   1.079
  622SOL    HW1 1876   1.643   3.042   1.138
  622SOL    HW2 1877   1.552   2.963   1.028
  623SOL     OW 1878   0.915   1.951   1.402
  623SOL    HW1 1879   0.940   1.931   1.307
  623SOL    HW2 1880   0.987   2.007   1.444
  624SOL     OW 1881   0.980   2.978   1.719
  624SOL    HW1 1882   0.881   2.984   1.729
  624SOL    HW2 1883   1.003   2.898   1.663
  625SOL     OW 1884   0.705   2.912   0.368
  625SOL    HW1 1885   0.691   2.919   0.467
  625SOL    HW2 1886   0.789   2.861   0.350
  626SOL     OW 1887   0.410   2.675   1.251
  626SOL    HW1 1888   0.496   2.687   1.301
  626SOL    HW2 1889   0.368   2.588   1.278
  627SOL     OW 1890   1.274   2.248   1.262
  627SOL    HW1 1891   1.295   2.322   1.326
  627SOL    HW2 1892   1.185   2.265   1.219
  628SOL     OW 1893   0.064   3.426   1.331
  628SOL    HW1 1894   0.018   3.508   1.297
  628SOL    HW2 1895   0.162   3.445   1.340
  629SOL     OW 1896   0.367   2.962   0.501
  629SOL    HW1 1897   0.360   3.045   0.445
  629SOL    HW2 1898   0.371   2.882   0.441
  630SOL     OW 1899   0.566   2.399   0.865
  630SOL    HW1 1900   0.578   2.465   0.791
  630SOL    HW2 1901   0.612   2.433   0.948
  631SOL     OW 1902   1.252   3.210   0.388
  631SOL    HW1 1903   1.302   3.287   0.428
  631SOL    HW2 1904   1.157   3.212   0.420
  632SOL     OW 1905   1.272   3.307   1.142
  632SOL    HW1 1906   1.319   3.320   1.229
  632SOL    HW2 1907   1.206   3.233   1.151
  633SOL     OW 1908   1.582   2.501   0.472
  633SOL    HW1 1909   1.551   2.562   0.545
  633SOL    HW2 1910   1.632   2.553   0.403
  634SOL     OW 1911   0.354   3.372   1.329
  634SOL    HW1 1912   0.333   3.328   1.242
  634SOL    HW2 1913   0.451   3.398   1.332
  635SOL     OW 1914   0.402   2.613   1.598
  635SOL    HW1 1915   0.470   2.668   1.551
  635SOL    HW2 1916   0.442   2.525   1.625
  636SOL     OW 1917   1.587   2.641   1.670
  636SOL    HW1 1918   1.495   2.679   1.665
  636SOL    HW2 1919   1.647   2.688   1.605
  637SOL     OW 1920   1.013   1.967   1.770
  637SOL    HW1 1921   1.019   2.052   1.718
  637SOL    HW2 1922   1.045   1.891   1.713
  638SOL     OW 1923   0.504   1.912   1.740
  638SOL    HW1 1924   0.462   1.855   1.670
  638SOL    HW2 1925   0.438   1.981   1.772
  639SOL     OW 1926   0.573   2.732   1.029
  639SOL    HW1 1927   0.617   2.821   1.020
  639SOL    HW2 1928   0.510   2.732   1.106
  640SOL     OW 1929   1.360   2.724   1.045
  640SOL    HW1 1930   1.285   2.724   0.979
  640SOL    HW2 1931   1.397   2.632   1.054
  641SOL     OW 1932   1.209   2.387   0.275
  641SOL    HW1 1933   1.222   2.303   0.329
  641SOL    HW2 1934   1.180   2.461   0.335
  642SOL     OW 1935   0.307   2.075   1.231
  642SOL    HW1 1936   0.284   2.112   1.321
  642SOL    HW2 1937   0.277   1.980   1.225
  643SOL     OW 1938   0.037   3.172   1.282
  643SOL    HW1 1939   0.090   3.123   1.350
  643SOL    HW2 1940   0.059   3.270   1.287
  644SOL     OW 1941   0.732   2.496   1.064
  644SOL    HW1 1942   0.791   2.470   0.988
  644SOL    HW2 1943   0.704   2.592   1.053
  645SOL     OW 1944   1.728   2.797   1.854
  645SOL    HW1 1945   1.682   2.790   1.765
  645SOL    HW2 1946   1.666   2.841   1.920
  646SOL     OW 1947   0.307   1.925   0.618
  646SOL    HW1 1948   0.296   2.019   0.651
  646SOL    HW2 1949   0.302   1.862   0.695
  647SOL     OW 1950   1.622   2.229   0.374
  647SOL    HW1 1951   1.624   2.153   0.438
  647SOL    HW2 1952   1.574   2.306   0.414
  648SOL     OW 1953   1.023   2.628   0.966
  648SOL    HW1 1954   1.038   2.649   1.062
  648SOL    HW2 1955   0.993   2.533   0.957
  649SOL     OW 1956   0.980   3.435   1.700
  649SOL    HW1 1957   0.960   3.479   1.612
  649SOL    HW2 1958   1.019   3.344   1.684
  650SOL     OW 1959   1.859   3.380   1.605
  650SOL    HW1 1960   1.873   3.407   1.510
  650SOL    HW2 1961   1.942   3.402   1.658
  651SOL     OW 1962   0.350   2.760   1.804
  651SOL    HW1 1963   0.426   2.804   1.852
  651SOL    HW2 1964   0.385   2.713   1.722
  652SOL     OW 1965   1.540   2.136   0.125
  652SOL    HW1 1966   1.479   2.061   0.148
  652SOL    HW2 1967   1.562   2.188   0.208
  653SOL     OW 1968   1.303   2.700   0.042
  653SOL    HW1 1969   1.337   2.607   0.057
  653SOL    HW2 1970   1.321   2.727  -0.053
  654SOL     OW 1971   1.068   3.195   0.849
  654SOL    HW1 1972   1.075   3.111   0.794
  654SOL    HW2 1973   1.130   3.264   0.813
  655SOL     OW 1974   0.319   2.672   0.949
  655SOL    HW1 1975   0.412   2.708   0.954
  655SOL    HW2 1976   0.313   2.587   1.001
  656SOL     OW 1977   0.339   2.371   1.006
  656SOL    HW1 1978   0.287   2.288   0.989
  656SOL    HW2 1979   0.416   2.376   0.942
  657SOL     OW 1980   1.138   2.242   1.678
  657SOL    HW1 1981   1.093   2.305   1.742
  657SOL    HW2 1982   1.231   2.273   1.661
  658SOL     OW 1983   1.160   2.069   1.477
  658SOL    HW1 1984   1.160   2.133   1.554
  658SOL    HW2 1985   1.188   2.117   1.394
  659SOL     OW 1986   0.008   3.188   0.200
  659SOL    HW1 1987  -0.085   3.209   0.169
  659SOL    HW2 1988   0.018   3.089   0.213
  660SOL     OW 1989   0.088   3.663   0.927
  660SOL    HW1 1990   0.046   3.577   0.900
  660SOL    HW2 1991   0.182   3.666   0.893
  661SOL     OW 1992   0.504   3.430   0.910
  661SOL    HW1 1993   0.570   3.504   0.919
  661SOL    HW2 1994   0.548   3.351   0.868
  662SOL     OW 1995   1.002   2.658   1.238
  662SOL    HW1 1996   1.043   2.626   1.324
  662SOL    HW2 1997   0.906   2.631   1.235
  663SOL     OW 1998   0.040   2.406   1.114
  663SOL    HW1 1999   0.125   2.373   1.073
  663SOL    HW2 2000   0.053   2.421   1.212
  664SOL     OW 2001   0.189   2.382   1.722
  664SOL    HW1 2002   0.248   2.342   1.652
  664SOL    HW2 2003   0.131   2.453   1.681
  665SOL     OW 2004   1.369   2.812   1.660
  665SOL    HW1 2005   1.408   2.901   1.680
  665SOL    HW2 2006   1.379   2.792   1.563
  666SOL     OW 2007   0.815   2.434   0.325
  666SOL    HW1 2008   0.822   2.345   0.279
  666SOL    HW2 2009   0.721   2.468   0.317
  667SOL     OW 2010   1.657   2.466   1.206
  667SOL    HW1 2011   1.619   2.397   1.268
  667SOL    HW2 2012   1.739   2.430   1.162
  668SOL     OW 2013   0.252   3.426   1.744
  668SOL    HW1 2014   0.222   3.483   1.820
  668SOL    HW2 2015   0.245   3.329   1.770
  669SOL     OW 2016   0.671   2.326   1.269
  669SOL    HW1 2017   0.637   2.237   1.239
  669SOL    HW2 2018   0.697   2.380   1.189
  670SOL     OW 2019   0.930   3.540   1.465
  670SOL    HW1 2020   0.906   3.522   1.370
  670SOL    HW2 2021   0.960   3.634   1.475
  671SOL     OW 2022   0.473   2.362   0.191
  671SOL    HW1 2023   0.534   2.442   0.195
  671SOL    HW2 2024   0.378   2.393   0.198
  672SOL     OW 2025   0.159   2.999   1.466
  672SOL    HW1 2026   0.181   2.938   1.542
  672SOL    HW2 2027   0.169   2.950   1.380
  673SOL     OW 2028   1.347   2.921   1.234
  673SOL    HW1 2029   1.371   2.858   1.160
  673SOL    HW2 2030   1.257   2.961   1.216
  674SOL     OW 2031   1.302   2.717   0.309
  674SOL    HW1 2032   1.216   2.686   0.351
  674SOL    HW2 2033   1.298   2.703   0.210
  675SOL     OW 2034   1.759   3.609   1.154
  675SOL    HW1 2035   1.820   3.639   1.081
  675SOL    HW2 2036   1.721   3.520   1.132
  676SOL     OW 2037   1.252   3.593   1.128
  676SOL    HW1 2038   1.336   3.598   1.074
  676SOL    HW2 2039   1.229   3.497   1.146
  677SOL     OW 2040   0.083   3.120   1.022
  677SOL    HW1 2041   0.078   3.119   1.122
  677SOL    HW2 2042   0.000   3.079   0.984
  678SOL     OW 2043   0.688   3.524   1.716
  678SOL    HW1 2044   0.632   3.605   1.725
  678SOL    HW2 2045   0.740   3.528   1.630
  679SOL     OW 2046   0.903   1.948   0.133
  679SOL    HW1 2047   0.954   1.949   0.047
  679SOL    HW2 2048   0.959   1.906   0.204
  680SOL     OW 2049   1.726   1.997   0.523
  680SOL    HW1 2050   1.799   1.980   0.456
  680SOL    HW2 2051   1.695   1.910   0.561
  681SOL     OW 2052   1.388   3.435   0.477
  681SOL    HW1 2053   1.455   3.447   0.403
  681SOL    HW2 2054   1.348   3.524   0.500
  682SOL     OW 2055   0.130   3.656   1.851
  682SOL    HW1 2056   0.089   3.582   1.904
  682SOL    HW2 2057   0.194   3.707   1.909
  683SOL     OW 2058   1.280   2.789   0.672
  683SOL    HW1 2059   1.340   2.708   0.674
  683SOL    HW2 2060   1.320   2.858   0.612
  684SOL     OW 2061   0.830   3.135   1.422
  684SOL    HW1 2062   0.825   3.168   1.517
  684SOL    HW2 2063   0.744   3.154   1.376
  685SOL     OW 2064   0.672   3.478   0.154
  685SOL    HW1 2065   0.681   3.488   0.055
  685SOL    HW2 2066   0.632   3.389   0.175
  686SOL     OW 2067   1.650   3.582   1.394
  686SOL    HW1 2068   1.703   3.592   1.310
  686SOL    HW2 2069   1.623   3.672   1.428
  687SOL     OW 2070   1.841   2.037   0.963
  687SOL    HW1 2071   1.880   1.952   0.927
  687SOL    HW2 2072   1.743   2.039   0.944
  688SOL     OW 2073   0.263   2.188   0.720
  688SOL    HW1 2074   0.184   2.239   0.686
  688SOL    HW2 2075   0.254   2.173   0.818
  689SOL     OW 2076   1.194   3.474   0.031
  689SOL    HW1 2077   1.200   3.381   0.068
  689SOL    HW2 2078   1.135   3.474  -0.049
  690SOL     OW 2079   0.822   2.864   1.372
  690SOL    HW1 2080   0.862   2.863   1.280
  690SOL    HW2 2081   0.832   2.956   1.412
  691SOL     OW 2082   0.916   2.772   0.291
  691SOL    HW1 2083   0.979   2.810   0.223
  691SOL    HW2 2084   0.956   2.689   0.330
  692SOL     OW 2085   1.504   3.469   0.044
  692SOL    HW1 2086   1.412   3.506   0.051
  692SOL    HW2 2087   1.542   3.489  -0.046
  693SOL     OW 2088   0.372   3.150   1.490
  693SOL    HW1 2089   0.359   3.243   1.456
  693SOL    HW2 2090   0.288   3.098   1.477
  694SOL     OW 2091   1.614   3.154   1.289
  694SOL    HW1 2092   1.674   3.157   1.369
  694SOL    HW2 2093   1.539   3.218   1.302
  695SOL     OW 2094   1.039   2.960   0.696
  695SOL    HW1 2095   0.969   2.913   0.750
  695SOL    HW2 2096   1.098   2.892   0.653
  696SOL     OW 2097   1.014   2.098   0.971
  696SOL    HW1 2098   1.006   2.062   0.878
  696SOL    HW2 2099   1.012   2.022   1.036
  697SOL     OW 2100   0.590   3.349   0.491
  697SOL    HW1 2101   0.632   3.291   0.421
  697SOL    HW2 2102   0.546   3.428   0.447
  698SOL     OW 2103   1.709   2.247   1.381
  698SOL    HW1 2104   1.782   2.316   1.385
  698SOL    HW2 2105   1.737   2.172   1.322
  699SOL     OW 2106   0.255   3.210   0.290
  699SOL    HW1 2107   0.159   3.211   0.263
  699SOL    HW2 2108   0.267   3.263   0.374
  700SOL     OW 2109   0.105   2.875   1.726
  700SOL    HW1 2110   0.028   2.842   1.780
  700SOL    HW2 2111   0.190   2.845   1.768
  701SOL     OW 2112   0.672   2.065   1.489
  701SOL    HW1 2113   0.762   2.049   1.449
  701SOL    HW2 2114   0.680   2.070   1.588
  702SOL     OW 2115   0.075   2.207   0.033
  702SOL    HW1 2116  -0.017   2.179   0.004
  702SOL    HW2 2117   0.106   2.284  -0.023
  703SOL     OW 2118   1.440   2.718   1.398
  703SOL    HW1 2119   1.383   2.770   1.335
  703SOL    HW2 2120   1.536   2.730   1.374
  704SOL     OW 2121   0.072   2.028   0.318
  704SOL    HW1 2122   0.055   2.111   0.264
  704SOL    HW2 2123   0.162   1.991   0.296
  705SOL     OW 2124   1.183   3.197   0.119
  705SOL    HW1 2125   1.084   3.186   0.121
  705SOL    HW2 2126   1.217   3.212   0.212
  706SOL     OW 2127   0.613   2.704   1.431
  706SOL    HW1 2128   0.669   2.785   1.414
  706SOL    HW2 2129   0.672   2.624   1.434
  707SOL     OW 2130   1.493   3.629   0.959
  707SOL    HW1 2131   1.526   3.693   0.890
  707SOL    HW2 2132   1.559   3.623   1.034
  708SOL     OW 2133   0.716   2.427   1.708
  708SOL    HW1 2134   0.735   2.492   1.782
  708SOL    HW2 2135   0.776   2.347   1.717
  709SOL     OW 2136   1.450   3.082   1.633
  709SOL    HW1 2137   1.441   3.072   1.732
  709SOL    HW2 2138   1.546   3.075   1.607
  710SOL     OW 2139   0.390   3.603   1.560
  710SOL    HW1 2140   0.299   3.644   1.558
  710SOL    HW2 2141   0.383   3.509   1.592
  711SOL     OW 2142   1.674   2.745   1.254
  711SOL    HW1 2143   1.647   2.656   1.217
  711SOL    HW2 2144   1.675   2.813   1.181
  712SOL     OW 2145   1.225   2.187   0.449
  712SOL    HW1 2146   1.290   2.113   0.438
  712SOL    HW2 2147   1.245   2.237   0.533
  713SOL     OW 2148   0.594   2.607   0.652
  713SOL    HW1 2149   0.644   2.692   0.633
  713SOL    HW2 2150   0.506   2.609   0.604
  714SOL     OW 2151   1.777   2.204   1.642
  714SOL    HW1 2152   1.760   2.235   1.548
  714SOL    HW2 2153   1.693   2.167   1.680
  715SOL     OW 2154   1.730   2.796   1.517
  715SOL    HW1 2155   1.768   2.887   1.532
  715SOL    HW2 2156   1.722   2.779   1.418
  716SOL     OW 2157   0.859   3.236   0.016
  716SOL    HW1 2158   0.813   3.251   0.104
  716SOL    HW2 2159   0.903   3.321  -0.014
  717SOL     OW 2160   0.661   3.652   0.953
  717SOL    HW1 2161   0.615   3.740   0.940
  717SOL    HW2 2162   0.760   3.664   0.946
  718SOL     OW 2163   0.859   2.818   0.861
  718SOL    HW1 2164   0.913   2.749   0.909
  718SOL    HW2 2165   0.827   2.887   0.927
  719SOL     OW 2166   1.083   2.846   0.087
  719SOL    HW1 2167   1.060   2.899   0.005
  719SOL    HW2 2168   1.164   2.790   0.068
  720SOL     OW 2169   1.861   3.431   0.851
  720SOL    HW1 2170   1.790   3.419   0.781
  720SOL    HW2 2171   1.862   3.352   0.911
  721SOL     OW 2172   0.221   3.176   1.844
  721SOL    HW1 2173   0.156   3.103   1.823
  721SOL    HW2 2174   0.225   3.190   1.942
  722SOL     OW 2175   0.079   3.102   0.653
  722SOL    HW1 2176   0.078   3.055   0.741
  722SOL    HW2 2177   0.161   3.074   0.602
  723SOL     OW 2178   0.672   3.253   1.624
  723SOL    HW1 2179   0.594   3.203   1.662
  723SOL    HW2 2180   0.669   3.348   1.655
  724SOL     OW 2181   1.824   2.054   1.227
  724SOL    HW1 2182   1.820   1.964   1.271
  724SOL    HW2 2183   1.827   2.043   1.128
  725SOL     OW 2184   0.428   2.286   0.520
  725SOL    HW1 2185   0.458   2.214   0.458
  725SOL    HW2 2186   0.389   2.246   0.603
  726SOL     OW 2187   1.705   3.349   1.104
  726SOL    HW1 2188   1.612   3.324   1.077
  726SOL    HW2 2189   1.731   3.299   1.186
  727SOL     OW 2190   0.317   2.409   1.280
  727SOL    HW1 2191   0.355   2.350   1.352
  727SOL    HW2 2192   0.357   2.383   1.192
  728SOL     OW 2193   0.812   3.448   0.687
  728SOL    HW1 2194   0.844   3.458   0.593
  728SOL    HW2 2195   0.733   3.386   0.689
  729SOL     OW 2196   1.424   2.076   1.112
  729SOL    HW1 2197   1.476   2.011   1.167
  729SOL    HW2 2198   1.375   2.139   1.173
  730SOL     OW 2199   1.001   1.896   1.154
  730SOL    HW1 2200   0.938   1.824   1.123
  730SOL    HW2 2201   1.094   1.860   1.154
  731SOL     OW 2202   0.770   3.192   0.301
  731SOL    HW1 2203   0.724   3.105   0.318
  731SOL    HW2 2204   0.861   3.189   0.342
  732SOL     OW 2205   0.618   3.429   1.284
  732SOL    HW1 2206   0.613   3.511   1.341
  732SOL    HW2 2207   0.707   3.426   1.239
  733SOL     OW 2208   1.352   1.914   0.168
  733SOL    HW1 2209   1.387   1.873   0.084
  733SOL    HW2 2210   1.262   1.876   0.188
  734SOL     OW 2211   1.300   2.315   0.691
  734SOL    HW1 2212   1.241   2.395   0.695
  734SOL    HW2 2213   1.315   2.280   0.784
  735SOL     OW 2214   1.593   2.083   0.882
  735SOL    HW1 2215   1.509   2.082   0.936
  735SOL    HW2 2216   1.595   2.166   0.826
  736SOL     OW 2217   0.039   2.939   0.300
  736SOL    HW1 2218   0.138   2.928   0.291
  736SOL    HW2 2219  -0.001   2.853   0.332
  737SOL     OW 2220   0.875   3.508   0.337
  737SOL    HW1 2221   0.798   3.473   0.283
  737SOL    HW2 2222   0.843   3.579   0.399
  738SOL     OW 2223   0.230   2.490   1.975
  738SOL    HW1 2224   0.137   2.488   2.012
  738SOL    HW2 2225   0.231   2.451   1.883
  739SOL     OW 2226   0.225   2.137   2.858
  739SOL    HW1 2227   0.260   2.120   2.950
  739SOL    HW2 2228   0.137   2.092   2.846
  740SOL     OW 2229   0.019   2.230   2.509
  740SOL    HW1 2230  -0.063   2.273   2.548
  740SOL    HW2 2231  -0.009   2.157   2.446
  741SOL     OW 2232   0.569   3.137   3.027
  741SOL    HW1 2233   0.476   3.130   2.990
  741SOL    HW2 2234   0.580   3.226   3.071
  742SOL     OW 2235   1.555   3.373   2.565
  742SOL    HW1 2236   1.498   3.357   2.646
  742SOL    HW2 2237   1.496   3.383   2.485
  743SOL     OW 2238   1.135   2.565   2.579
  743SOL    HW1 2239   1.192   2.643   2.554
  743SOL    HW2 2240   1.075   2.591   2.655
  744SOL     OW 2241   1.755   2.469   2.093
  744SOL    HW1 2242   1.743   2.456   1.994
  744SOL    HW2 2243   1.725   2.388   2.142
  745SOL     OW 2244   0.768   3.006   2.885
  745SOL    HW1 2245   0.690   3.023   2.945
  745SOL    HW2 2246   0.802   3.093   2.849
  746SOL     OW 2247   0.850   2.660   3.685
  746SOL    HW1 2248   0.846   2.736   3.750
  746SOL    HW2 2249   0.872   2.696   3.594
  747SOL     OW 2250   0.685   2.874   2.527
  747SOL    HW1 2251   0.754   2.858   2.597
  747SOL    HW2 2252   0.612   2.931   2.565
  748SOL     OW 2253   0.686   3.023   3.665
  748SOL    HW1 2254   0.746   3.102   3.679
  748SOL    HW2 2255   0.600   3.054   3.624
  749SOL     OW 2256   0.335   3.297   2.923
  749SOL    HW1 2257   0.257   3.266   2.870
  749SOL    HW2 2258   0.393   3.355   2.866
  750SOL     OW 2259   1.460   3.367   3.201
  750SOL    HW1 2260   1.484   3.461   3.227
  750SOL    HW2 2261   1.444   3.313   3.283
  751SOL     OW 2262   0.438   2.254   3.361
  751SOL    HW1 2263   0.520   2.198   3.370
  751SOL    HW2 2264   0.357   2.196   3.365
  752SOL     OW 2265   1.603   2.309   2.599
  752SOL    HW1 2266   1.529   2.355   2.549
  752SOL    HW2 2267   1.654   2.377   2.652
  753SOL     OW 2268   0.231   3.575   2.345
  753SOL    HW1 2269   0.265   3.652   2.399
  753SOL    HW2 2270   0.275   3.575   2.255
  754SOL     OW 2271   1.127   3.203   3.552
  754SOL    HW1 2272   1.174   3.203   3.640
  754SOL    HW2 2273   1.079   3.116   3.541
  755SOL     OW 2274   0.230   3.296   2.400
  755SOL    HW1 2275   0.204   3.392   2.400
  755SOL    HW2 2276   0.159   3.242   2.445
  756SOL     OW 2277   0.240   2.953   2.748
  756SOL    HW1 2278   0.254   2.869   2.800
  756SOL    HW2 2279   0.185   3.017   2.803
  757SOL     OW 2280   0.620   3.648   3.301
  757SOL    HW1 2281   0.528   3.631   3.336
  757SOL    HW2 2282   0.648   3.740   3.327
  758SOL     OW 2283   0.606   2.826   1.985
  758SOL    HW1 2284   0.613   2.910   1.931
  758SOL    HW2 2285   0.652   2.839   2.073
  759SOL     OW 2286   1.594   1.976   3.342
  759SOL    HW1 2287   1.576   2.043   3.270
  759SOL    HW2 2288   1.591   2.022   3.431
  760SOL     OW 2289   0.122   2.505   2.425
  760SOL    HW1 2290   0.077   2.417   2.442
  760SOL    HW2 2291   0.121   2.559   2.509
  761SOL     OW 2292   1.842   3.629   2.221
  761SOL    HW1 2293   1.896   3.600   2.301
  761SOL    HW2 2294   1.872   3.719   2.192
  762SOL     OW 2295   0.027   3.458   1.979
  762SOL    HW1 2296   0.008   3.362   2.000
  762SOL    HW2 2297  -0.006   3.516   2.054
  763SOL     OW 2298   1.689   2.784   2.474
  763SOL    HW1 2299   1.784   2.755   2.482
  763SOL    HW2 2300   1.681   2.849   2.399
  764SOL     OW 2301   1.641   2.970   2.294
  764SOL    HW1 2302   1.727   2.972   2.242
  764SOL    HW2 2303   1.655   3.017   2.382
  765SOL     OW 2304   0.113   2.599   3.459
  765SOL    HW1 2305   0.201   2.586   3.504
  765SOL    HW2 2306   0.100   2.696   3.437
  766SOL     OW 2307   0.613   3.227   2.588
  766SOL    HW1 2308   0.564   3.140   2.597
  766SOL    HW2 2309   0.590   3.270   2.501
  767SOL     OW 2310   1.293   3.090   3.285
  767SOL    HW1 2311   1.330   3.017   3.227
  767SOL    HW2 2312   1.345   3.095   3.370
  768SOL     OW 2313   0.809   1.866   2.364
  768SOL    HW1 2314   0.849   1.957   2.355
  768SOL    HW2 2315   0.709   1.874   2.370
  769SOL     OW 2316   0.197   2.838   3.126
  769SOL    HW1 2317   0.286   2.793   3.112
  769SOL    HW2 2318   0.124   2.773   3.107
  770SOL     OW 2319   1.525   2.861   2.052
  770SOL    HW1 2320   1.462   2.785   2.065
  770SOL    HW2 2321   1.573   2.879   2.138
  771SOL     OW 2322   1.187   3.654   3.478
  771SOL    HW1 2323   1.211   3.714   3.402
  771SOL    HW2 2324   1.194   3.559   3.448
  772SOL     OW 2325   0.317   2.113   3.663
  772SOL    HW1 2326   0.388   2.184   3.669
  772SOL    HW2 2327   0.229   2.152   3.691
  773SOL     OW 2328   1.466   3.279   2.815
  773SOL    HW1 2329   1.407   3.285   2.895
  773SOL    HW2 2330   1.451   3.191   2.769
  774SOL     OW 2331   1.667   3.576   2.434
  774SOL    HW1 2332   1.626   3.553   2.346
  774SOL    HW2 2333   1.649   3.502   2.499
  775SOL     OW 2334   0.598   2.591   2.132
  775SOL    HW1 2335   0.622   2.660   2.064
  775SOL    HW2 2336   0.520   2.624   2.186
  776SOL     OW 2337   1.281   2.207   2.806
  776SOL    HW1 2338   1.195   2.157   2.793
  776SOL    HW2 2339   1.343   2.153   2.862
  777SOL     OW 2340   1.576   3.524   2.169
  777SOL    HW1 2341   1.665   3.570   2.172
  777SOL    HW2 2342   1.555   3.500   2.074
  778SOL     OW 2343   0.807   2.467   3.327
  778SOL    HW1 2344   0.760   2.464   3.416
  778SOL    HW2 2345   0.756   2.412   3.261
  779SOL     OW 2346   1.394   2.331   3.536
  779SOL    HW1 2347   1.374   2.374   3.624
  779SOL    HW2 2348   1.472   2.269   3.545
  780SOL     OW 2349   0.973   2.752   3.434
  780SOL    HW1 2350   1.019   2.668   3.405
  780SOL    HW2 2351   0.917   2.786   3.359
  781SOL     OW 2352   0.991   2.272   3.104
  781SOL    HW1 2353   0.914   2.306   3.158
  781SOL    HW2 2354   0.957   2.221   3.025
  782SOL     OW 2355   1.041   2.563   2.291
  782SOL    HW1 2356   1.067   2.559   2.387
  782SOL    HW2 2357   0.956   2.512   2.277
  783SOL     OW 2358   0.076   2.673   2.651
  783SOL    HW1 2359   0.175   2.661   2.660
  783SOL    HW2 2360   0.052   2.768   2.672
  784SOL     OW 2361   0.130   3.683   3.433
  784SOL    HW1 2362   0.120   3.668   3.532
  784SOL    HW2 2363   0.044   3.719   3.397
  785SOL     OW 2364   0.865   2.210   2.057
  785SOL    HW1 2365   0.924   2.273   2.008
  785SOL    HW2 2366   0.884   2.116   2.028
  786SOL     OW 2367   1.719   2.447   3.693
  786SOL    HW1 2368   1.693   2.536   3.657
  786SOL    HW2 2369   1.717   2.379   3.620
  787SOL     OW 2370   1.362   3.006   2.407
  787SOL    HW1 2371   1.445   2.977   2.359
  787SOL    HW2 2372   1.313   3.073   2.351
  788SOL     OW 2373   0.550   2.058   2.747
  788SOL    HW1 2374   0.545   2.053   2.847
  788SOL    HW2 2375   0.552   2.154   2.718
  789SOL     OW 2376   1.008   3.318   2.339
  789SOL    HW1 2377   0.962   3.390   2.287
  789SOL    HW2 2378   1.004   3.338   2.437
  790SOL     OW 2379   0.351   3.663   2.715
  790SOL    HW1 2380   0.401   3.577   2.721
  790SOL    HW2 2381   0.416   3.740   2.712
  791SOL     OW 2382   1.795   2.928   2.735
  791SOL    HW1 2383   1.733   2.913   2.659
  791SOL    HW2 2384   1.743   2.939   2.820
  792SOL     OW 2385   1.227   3.412   3.368
  792SOL    HW1 2386   1.233   3.335   3.432
  792SOL    HW2 2387   1.175   3.386   3.288
  793SOL     OW 2388   0.321   2.805   2.104
  793SOL    HW1 2389   0.403   2.844   2.062
  793SOL    HW2 2390   0.294   2.723   2.055
  794SOL     OW 2391   1.458   2.597   2.590
  794SOL    HW1 2392   1.453   2.532   2.665
  794SOL    HW2 2393   1.538   2.656   2.603
  795SOL     OW 2394   0.461   3.128   3.589
  795SOL    HW1 2395   0.411   3.129   3.503
  795SOL    HW2 2396   0.398   3.110   3.665
  796SOL     OW 2397   1.111   3.638   2.099
  796SOL    HW1 2398   1.051   3.576   2.149
  796SOL    HW2 2399   1.142   3.594   2.014
  797SOL     OW 2400   0.202   2.147   3.360
  797SOL    HW1 2401   0.122   2.207   3.347
  797SOL    HW2 2402   0.192   2.098   3.446
  798SOL     OW 2403   1.632   3.239   1.943
  798SOL    HW1 2404   1.600   3.333   1.933
  798SOL    HW2 2405   1.556   3.176   1.931
  799SOL     OW 2406   0.464   3.605   2.185
  799SOL    HW1 2407   0.497   3.644   2.271
  799SOL    HW2 2408   0.540   3.598   2.120
  800SOL     OW 2409   1.400   1.969   2.288
  800SOL    HW1 2410   1.376   1.932   2.198
  800SOL    HW2 2411   1.499   1.985   2.292
  801SOL     OW 2412   0.249   3.647   3.103
  801SOL    HW1 2413   0.306   3.582   3.153
  801SOL    HW2 2414   0.233   3.614   3.010
  802SOL     OW 2415   0.940   3.560   2.766
  802SOL    HW1 2416   1.020   3.503   2.787
  802SOL    HW2 2417   0.891   3.520   2.689
  803SOL     OW 2418   0.382   2.562   2.342
  803SOL    HW1 2419   0.427   2.472   2.339
  803SOL    HW2 2420   0.288   2.551   2.375
  804SOL     OW 2421   1.547   2.084   3.591
  804SOL    HW1 2422   1.542   2.121   3.683
  804SOL    HW2 2423   1.475   2.015   3.579
  805SOL     OW 2424   0.614   1.984   1.979
  805SOL    HW1 2425   0.712   1.962   1.986
  805SOL    HW2 2426   0.583   1.967   1.886
  806SOL     OW 2427   0.781   2.126   3.611
  806SOL    HW1 2428   0.848   2.065   3.654
  806SOL    HW2 2429   0.708   2.145   3.676
  807SOL     OW 2430   0.888   3.376   3.057
  807SOL    HW1 2431   0.865   3.351   2.963
  807SOL    HW2 2432   0.949   3.307   3.096
  808SOL     OW 2433   1.351   2.452   3.295
  808SOL    HW1 2434   1.379   2.409   3.380
  808SOL    HW2 2435   1.376   2.548   3.296
  809SOL     OW 2436   0.803   3.264   2.786
  809SOL    HW1 2437   0.893   3.278   2.744
  809SOL    HW2 2438   0.732   3.266   2.715
  810SOL     OW 2439   0.922   2.365   2.761
  810SOL    HW1 2440   0.897   2.356   2.665
  810SOL    HW2 2441   0.970   2.283   2.792
  811SOL     OW 2442   0.539   1.926   2.374
  811SOL    HW1 2443   0.458   1.927   2.432
  811SOL    HW2 2444   0.542   2.009   2.319
  812SOL     OW 2445   1.434   3.050   1.903
  812SOL    HW1 2446   1.466   2.974   1.960
  812SOL    HW2 2447   1.342   3.077   1.933
  813SOL     OW 2448   0.297   1.897   2.033
  813SOL    HW1 2449   0.346   1.981   2.012
  813SOL    HW2 2450   0.359   1.832   2.078
  814SOL     OW 2451   0.935   2.098   2.342
  814SOL    HW1 2452   0.887   2.139   2.264
  814SOL    HW2 2453   1.034   2.096   2.323
  815SOL     OW 2454   1.076   2.545   3.326
  815SOL    HW1 2455   0.996   2.484   3.329
  815SOL    HW2 2456   1.157   2.492   3.302
  816SOL     OW 2457   1.227   3.432   2.655
  816SOL    HW1 2458   1.248   3.506   2.590
  816SOL    HW2 2459   1.295   3.432   2.728
  817SOL     OW 2460   0.459   3.014   2.603
  817SOL    HW1 2461   0.388   2.987   2.668
  817SOL    HW2 2462   0.433   2.986   2.510
  818SOL     OW 2463   1.271   3.659   2.453
  818SOL    HW1 2464   1.315   3.723   2.389
  818SOL    HW2 2465   1.221   3.711   2.523
  819SOL     OW 2466   1.032   2.411   1.878
  819SOL    HW1 2467   0.991   2.493   1.839
  819SOL    HW2 2468   1.096   2.437   1.951
  820SOL     OW 2469   0.078   2.418   3.248
  820SOL    HW1 2470   0.170   2.417   3.207
  820SOL    HW2 2471   0.072   2.492   3.315
  821SOL     OW 2472   0.561   2.084   3.009
  821SOL    HW1 2473   0.599   2.000   3.046
  821SOL    HW2 2474   0.473   2.103   3.053
  822SOL     OW 2475   0.866   2.316   2.504
  822SOL    HW1 2476   0.834   2.388   2.442
  822SOL    HW2 2477   0.890   2.235   2.451
  823SOL     OW 2478   1.017   1.901   2.615
  823SOL    HW1 2479   0.945   1.906   2.546
  823SOL    HW2 2480   0.993   1.832   2.684
  824SOL     OW 2481   1.429   3.035   2.729
  824SOL    HW1 2482   1.374   2.951   2.722
  824SOL    HW2 2483   1.455   3.064   2.637
  825SOL     OW 2484   1.466   2.452   2.854
  825SOL    HW1 2485   1.436   2.357   2.861
  825SOL    HW2 2486   1.539   2.468   2.920
  826SOL     OW 2487   1.857   2.695   2.239
  826SOL    HW1 2488   1.899   2.631   2.303
  826SOL    HW2 2489   1.819   2.644   2.161
  827SOL     OW 2490   0.488   3.247   2.036
  827SOL    HW1 2491   0.401   3.232   2.083
  827SOL    HW2 2492   0.471   3.273   1.941
  828SOL     OW 2493   1.664   3.142   2.519
  828SOL    HW1 2494   1.763   3.150   2.533
  828SOL    HW2 2495   1.619   3.226   2.550
  829SOL     OW 2496   1.390   2.437   1.940
  829SOL    HW1 2497   1.336   2.416   2.021
  829SOL    HW2 2498   1.481   2.396   1.949
  830SOL     OW 2499   0.527   2.118   2.190
  830SOL    HW1 2500   0.554   2.059   2.115
  830SOL    HW2 2501   0.527   2.213   2.159
  831SOL     OW 2502   1.754   3.085   3.450
  831SOL    HW1 2503   1.845   3.046   3.437
  831SOL    HW2 2504   1.762   3.181   3.474
  832SOL     OW 2505   1.064   3.209   3.202
  832SOL    HW1 2506   0.984   3.186   3.257
  832SOL    HW2 2507   1.147   3.183   3.251
  833SOL     OW 2508   1.592   3.491   3.487
  833SOL    HW1 2509   1.619   3.525   3.397
  833SOL    HW2 2510   1.671   3.453   3.533
  834SOL     OW 2511   1.111   3.057   2.962
  834SOL    HW1 2512   1.071   3.101   3.043
  834SOL    HW2 2513   1.070   3.094   2.879
  835SOL     OW 2514   1.638   2.961   2.941
  835SOL    HW1 2515   1.643   3.042   3.000
  835SOL    HW2 2516   1.552   2.963   2.890
  836SOL     OW 2517   0.915   1.951   3.264
  836SOL    HW1 2518   0.940   1.931   3.169
  836SOL    HW2 2519   0.987   2.007   3.306
  837SOL     OW 2520   0.980   2.978   3.581
  837SOL    HW1 2521   0.881   2.984   3.591
  837SOL    HW2 2522   1.003   2.898   3.525
  838SOL     OW 2523   0.705   2.912   2.230
  838SOL    HW1 2524   0.691   2.919   2.329
  838SOL    HW2 2525   0.789   2.861   2.212
  839SOL     OW 2526   0.410   2.675   3.113
  839SOL    HW1 2527   0.496   2.687   3.163
  839SOL    HW2 2528   0.368   2.588   3.140
  840SOL     OW 2529   1.274   2.248   3.124
  840SOL    HW1 2530   1.295   2.322   3.188
  840SOL    HW2 2531   1.185   2.265   3.081
  841SOL     OW 2532   0.064   3.426   3.193
  841SOL    HW1 2533   0.018   3.508   3.159
  841SOL    HW2 2534   0.162   3.445   3.202
  842SOL     OW 2535   0.367   2.962   2.363
  842SOL    HW1 2536   0.360   3.045   2.307
  842SOL    HW2 2537   0.371   2.882   2.303
  843SOL     OW 2538   0.566   2.399   2.727
  843SOL    HW1 2539   0.578   2.465   2.653
  843SOL    HW2 2540   0.612   2.433   2.810
  844SOL     OW 2541   1.252   3.210   2.250
  844SOL    HW1 2542   1.302   3.287   2.290
  844SOL    HW2 2543   1.157   3.212   2.282
  845SOL     OW 2544   1.272   3.307   3.004
  845SOL    HW1 2545   1.319   3.320   3.091
  845SOL    HW2 2546   1.206   3.233   3.013
  846SOL     OW 2547   1.582   2.501   2.334
  846SOL    HW1 2548   1.551   2.562   2.407
  846SOL    HW2 2549   1.632   2.553   2.265
  847SOL     OW 2550   0.354   3.372   3.191
  847SOL    HW1 2551   0.333   3.328   3.104
  847SOL    HW2 2552   0.451   3.398   3.194
  848SOL     OW 2553   0.402   2.613   3.460
  848SOL    HW1 2554   0.470   2.668   3.413
  848SOL    HW2 2555   0.442   2.525   3.487
  849SOL     OW 2556   1.587   2.641   3.532
  849SOL    HW1 2557   1.495   2.679   3.527
  849SOL    HW2 2558   1.647   2.688   3.467
  850SOL     OW 2559   1.013   1.967   3.632
  850SOL    HW1 2560   1.019   2.052   3.580
  850SOL    HW2 2561   1.045   1.891   3.575
  851SOL     OW 2562   0.504   1.912   3.602
  851SOL    HW1 2563   0.462   1.855   3.532
  851SOL    HW2 2564   0.438   1.981   3.634
  852SOL     OW 2565   0.573   2.732   2.891
  852SOL    HW1 2566   0.617   2.821   2.882
  852SOL    HW2 2567   0.510   2.732   2.968
  853SOL     OW 2568   1.360   2.724   2.907
  853SOL    HW1 2569   1.285   2.724   2.841
  853SOL    HW2 2570   1.397   2.632   2.916
  854SOL     OW 2571   1.209   2.387   2.137
  854SOL    HW1 2572   1.222   2.303   2.191
  854SOL    HW2 2573   1.180   2.461   2.197
  855SOL     OW 2574   0.307   2.075   3.093
  855SOL    HW1 2575   0.284   2.112   3.183
  855SOL    HW2 2576   0.277   1.980   3.087
  856SOL     OW 2577   0.037   3.172   3.144
  856SOL    HW1 2578   0.090   3.123   3.212
  856SOL    HW2 2579   0.059   3.270   3.149
  857SOL     OW 2580   0.732   2.496   2.926
  857SOL    HW1 2581   0.791   2.470   2.850
  857SOL    HW2 2582   0.704   2.592   2.915
  858SOL     OW 2583   1.728   2.797   3.716
  858SOL    HW1 2584   1.682   2.790   3.627
  858SOL    HW2 2585   1.666   2.841   3.782
  859SOL     OW 2586   0.307   1.925   2.480
  859SOL    HW1 2587   0.296   2.019   2.513
  859SOL    HW2 2588   0.302   1.862   2.557
  860SOL     OW 2589   1.622   2.229   2.236
  860SOL    HW1 2590   1.624   2.153   2.300
  860SOL    HW2 2591   1.574   2.306   2.276
  861SOL     OW 2592   1.023   2.628   2.828
  861SOL    HW1 2593   1.038   2.649   2.924
  861SOL    HW2 2594   0.993   2.533   2.819
  862SOL     OW 2595   0.980   3.435   3.562
  862SOL    HW1 2596   0.960   3.479   3.474
  862SOL    HW2 2597   1.019   3.344   3.546
  863SOL     OW 2598   1.859   3.380   3.467
  863SOL    HW1 2599   1.873   3.407   3.372
  863SOL    HW2 2600   1.942   3.402   3.520
  864SOL     OW 2601   0.350   2.760   3.666
  864SOL    HW1 2602   0.426   2.804   3.714
  864SOL    HW2 2603   0.385   2.713   3.584
  865SOL     OW 2604   1.540   2.136   1.987
  865SOL    HW1 2605   1.479   2.061   2.010
  865SOL    HW2 2606   1.562   2.188   2.070
  866SOL     OW 2607   1.303   2.700   1.904
  866SOL    HW1 2608   1.337   2.607   1.919
  866SOL    HW2 2609   1.321   2.727   1.809
  867SOL     OW 2610   1.068   3.195   2.711
  867SOL    HW1 2611   1.075   3.111   2.656
  867SOL    HW2 2612   1.130   3.264   2.675
  868SOL     OW 2613   0.319   2.672   2.811
  868SOL    HW1 2614   0.412   2.708   2.816
  868SOL    HW2 2615   0.313   2.587   2.863
  869SOL     OW 2616   0.339   2.371   2.868
  869SOL    HW1 2617   0.287   2.288   2.851
  869SOL    HW2 2618   0.416   2.376   2.804
  870SOL     OW 2619   1.138   2.242   3.540
  870SOL    HW1 2620   1.093   2.305   3.604
  870SOL    HW2 2621   1.231   2.273   3.523
  871SOL     OW 2622   1.160   2.069   3.339
  871SOL    HW1 2623   1.160   2.133   3.416
  871SOL    HW2 2624   1.188   2.117   3.256
  872SOL     OW 2625   0.008   3.188   2.062
  872SOL    HW1 2626  -0.085   3.209   2.031
  872SOL    HW2 2627   0.018   3.089   2.075
  873SOL     OW 2628   0.088   3.663   2.789
  873SOL    HW1 2629   0.046   3.577   2.762
  873SOL    HW2 2630   0.182   3.666   2.755
  874SOL     OW 2631   0.504   3.430   2.772
  874SOL    HW1 2632   0.570   3.504   2.781
  874SOL    HW2 2633   0.548   3.351   2.730
  875SOL     OW 2634   1.002   2.658   3.100
  875SOL    HW1 2635   1.043   2.626   3.186
  875SOL    HW2 2636   0.906   2.631   3.097
  876SOL     OW 2637   0.040   2.406   2.976
  876SOL    HW1 2638   0.125   2.373   2.935
  876SOL    HW2 2639   0.053   2.421   3.074
  877SOL     OW 2640   0.189   2.382   3.584
  877SOL    HW1 2641   0.248   2.342   3.514
  877SOL    HW2 2642   0.131   2.453   3.543
  878SOL     OW 2643   1.369   2.812   3.522
  878SOL    HW1 2644   1.408   2.901   3.542
  878SOL    HW2 2645   1.379   2.792   3.425
  879SOL     OW 2646   0.815   2.434   2.187
  879SOL    HW1 2647   0.822   2.345   2.141
  879SOL    HW2 2648   0.721   2.468   2.179
  880SOL     OW 2649   1.657   2.466   3.068
  880SOL    HW1 2650   1.619   2.397   3.130
  880SOL    HW2 2651   1.739   2.430   3.024
  881SOL     OW 2652   0.252   3.426   3.606
  881SOL    HW1 2653   0.222   3.483   3.682
  881SOL    HW2 2654   0.245   3.329   3.632
  882SOL     OW 2655   0.671   2.326   3.131
  882SOL    HW1 2656   0.637   2.237   3.101
  882SOL    HW2 2657   0.697   2.380   3.051
  883SOL     OW 2658   0.930   3.540   3.327
  883SOL    HW1 2659   0.906   3.522   3.232
  883SOL    HW2 2660   0.960   3.634   3.337
  884SOL     OW 2661   0.473   2.362   2.053
  884SOL    HW1 2662   0.534   2.442   2.057
  884SOL    HW2 2663   0.378   2.393   2.060
  885SOL     OW 2664   0.159   2.999   3.328
  885SOL    HW1 2665   0.181   2.938   3.404
  885SOL    HW2 2666   0.169   2.950   3.242
  886SOL     OW 2667   1.347   2.921   3.096
  886SOL    HW1 2668   1.371   2.858   3.022
  886SOL    HW2 2669   1.257   2.961   3.078
  887SOL     OW 2670   1.302   2.717   2.171
  887SOL    HW1 2671   1.216   2.686   2.213
  887SOL    HW2 2672   1.298   2.703   2.072
  888SOL     OW 2673   1.759   3.609   3.016
  888SOL    HW1 2674   1.820   3.639   2.943
  888SOL    HW2 2675   1.721   3.520   2.994
  889SOL     OW 2676   1.252   3.593   2.990
  889SOL    HW1 2677   1.336   3.598   2.936
  889SOL    HW2 2678   1.229   3.497   3.008
  890SOL     OW 2679   0.083   3.120   2.884
  890SOL    HW1 2680   0.078   3.119   2.984
  890SOL    HW2 2681   0.000   3.079   2.846
  891SOL     OW 2682   0.688   3.524   3.578
  891SOL    HW1 2683   0.632   3.605   3.587
  891SOL    HW2 2684   0.740   3.528   3.492
  892SOL     OW 2685   1.726   1.997   2.385
  892SOL    HW1 2686   1.799   1.980   2.318
  892SOL    HW2 2687   1.695   1.910   2.423
  893SOL     OW 2688   1.388   3.435   2.339
  893SOL    HW1 2689   1.455   3.447   2.265
  893SOL    HW2 2690   1.348   3.524   2.362
  894SOL     OW 2691   0.130   3.656   3.713
  894SOL    HW1 2692   0.089   3.582   3.766
  894SOL    HW2 2693   0.194   3.707   3.771
  895SOL     OW 2694   1.280   2.789   2.534
  895SOL    HW1 2695   1.340   2.708   2.536
  895SOL    HW2 2696   1.320   2.858   2.474
  896SOL     OW 2697   0.830   3.135   3.284
  896SOL    HW1 2698   0.825   3.168   3.379
  896SOL    HW2 2699   0.744   3.154   3.238
  897SOL     OW 2700   0.672   3.478   2.016
  897SOL    HW1 2701   0.681   3.488   1.917
  897SOL    HW2 2702   0.632   3.389   2.037
  898SOL     OW 2703   1.650   3.582   3.256
  898SOL    HW1 2704   1.703   3.592   3.172
  898SOL    HW2 2705   1.623   3.672   3.290
  899SOL     OW 2706   1.841   2.037   2.825
  899SOL    HW1 2707   1.880   1.952   2.789
  899SOL    HW2 2708   1.743   2.039   2.806
  900SOL     OW 2709   0.263   2.188   2.582
  900SOL    HW1 2710   0.184   2.239   2.548
  900SOL    HW2 2711   0.254   2.173   2.680
  901SOL     OW 2712   1.194   3.474   1.893
  901SOL    HW1 2713   1.200   3.381   1.930
  901SOL    HW2 2714   1.135   3.474   1.813
  902SOL     OW 2715   0.822   2.864   3.234
  902SOL    HW1 2716   0.862   2.863   3.142
  902SOL    HW2 2717   0.832   2.956   3.274
  903SOL     OW 2718   0.916   2.772   2.153
  903SOL    HW1 2719   0.979   2.810   2.085
  903SOL    HW2 2720   0.956   2.689   2.192
  904SOL     OW 2721   1.504   3.469   1.906
  904SOL    HW1 2722   1.412   3.506   1.913
  904SOL    HW2 2723   1.542   3.489   1.816
  905SOL     OW 2724   0.372   3.150   3.352
  905SOL    HW1 2725   0.359   3.243   3.318
  905SOL    HW2 2726   0.288   3.098   3.339
  906SOL     OW 2727   1.614   3.154   3.151
  906SOL    HW1 2728   1.674   3.157   3.231
  906SOL    HW2 2729   1.539   3.218   3.164
  907SOL     OW 2730   1.039   2.960   2.558
  907SOL    HW1 2731   0.969   2.913   2.612
  907SOL    HW2 2732   1.098   2.892   2.515
  908SOL     OW 2733   1.014   2.098   2.833
  908SOL    HW1 2734   1.006   2.062   2.740
  908SOL    HW2 2735   1.012   2.022   2.898
  909SOL     OW 2736   0.590   3.349   2.353
  909SOL    HW1 2737   0.632   3.291   2.283
  909SOL    HW2 2738   0.546   3.428   2.309
  910SOL     OW 2739   1.709   2.247   3.243
  910SOL    HW1 2740   1.782   2.316   3.247
  910SOL    HW2 2741   1.737   2.172   3.184
  911SOL     OW 2742   0.255   3.210   2.152
  911SOL    HW1 2743   0.159   3.211   2.125
  911SOL    HW2 2744   0.267   3.263   2.236
  912SOL     OW 2745   0.105   2.875   3.588
  912SOL    HW1 2746   0.028   2.842   3.642
  912SOL    HW2 2747   0.190   2.845   3.630
  913SOL     OW 2748   0.672   2.065   3.351
  913SOL    HW1 2749   0.762   2.049   3.311
  913SOL    HW2 2750   0.680   2.070   3.450
  914SOL     OW 2751   0.075   2.207   1.895
  914SOL    HW1 2752  -0.017   2.179   1.866
  914SOL    HW2 2753   0.106   2.284   1.839
  915SOL     OW 2754   1.440   2.718   3.260
  915SOL    HW1 2755   1.383   2.770   3.197
  915SOL    HW2 2756   1.536   2.730   3.236
  916SOL     OW 2757   0.072   2.028   2.180
  916SOL    HW1 2758   0.055   2.111   2.126
  916SOL    HW2 2759   0.162   1.991   2.158
  917SOL     OW 2760   1.183   3.197   1.981
  917SOL    HW1 2761   1.084   3.186   1.983
  917SOL    HW2 2762   1.217   3.212   2.074
  918SOL     OW 2763   0.613   2.704   3.293
  918SOL    HW1 2764   0.669   2.785   3.276
  918SOL    HW2 2765   0.672   2.624   3.296
  919SOL     OW 2766   1.493   3.629   2.821
  919SOL    HW1 2767   1.526   3.693   2.752
  919SOL    HW2 2768   1.559   3.623   2.896
  920SOL     OW 2769   0.716   2.427   3.570
  920SOL    HW1 2770   0.735   2.492   3.644
  920SOL    HW2 2771   0.776   2.347   3.579
  921SOL     OW 2772   1.450   3.082   3.495
  921SOL    HW1 2773   1.441   3.072   3.594
  921SOL    HW2 2774   1.546   3.075   3.469
  922SOL     OW 2775   0.390   3.603   3.422
  922SOL    HW1 2776   0.299   3.644   3.420
  922SOL    HW2 2777   0.383   3.509   3.454
  923SOL     OW 2778   1.674   2.745   3.116
  923SOL    HW1 2779   1.647   2.656   3.079
  923SOL    HW2 2780   1.675   2.813   3.043
  924SOL     OW 2781   1.225   2.187   2.311
  924SOL    HW1 2782   1.290   2.113   2.300
  924SOL    HW2 2783   1.245   2.237   2.395
  925SOL     OW 2784   0.594   2.607   2.514
  925SOL    HW1 2785   0.644   2.692   2.495
  925SOL    HW2 2786   0.506   2.609   2.466
  926SOL     OW 2787   1.777   2.204   3.504
  926SOL    HW1 2788   1.760   2.235   3.410
  926SOL    HW2 2789   1.693   2.167   3.542
  927SOL     OW 2790   1.730   2.796   3.379
  927SOL    HW1 2791   1.768   2.887   3.394
  927SOL    HW2 2792   1.722   2.779   3.280
  928SOL     OW 2793   0.859   3.236   1.878
  928SOL    HW1 2794   0.813   3.251   1.966
  928SOL    HW2 2795   0.903   3.321   1.848
  929SOL     OW 2796   0.661   3.652   2.815
  929SOL    HW1 2797   0.615   3.740   2.802
  929SOL    HW2 2798   0.760   3.664   2.808
  930SOL     OW 2799   0.859   2.818   2.723
  930SOL    HW1 2800   0.913   2.749   2.771
  930SOL    HW2 2801   0.827   2.887   2.789
  931SOL     OW 2802   1.083   2.846   1.949
  931SOL    HW1 2803   1.060   2.899   1.867
  931SOL    HW2 2804   1.164   2.790   1.930
  932SOL     OW 2805   1.861   3.431   2.713
  932SOL    HW1 2806   1.790   3.419   2.643
  932SOL    HW2 2807   1.862   3.352   2.773
  933SOL     OW 2808   0.221   3.176   3.706
  933SOL    HW1 2809   0.156   3.103   3.685
  933SOL    HW2 2810   0.225   3.190   3.804
  934SOL     OW 2811   0.079   3.102   2.515
  934SOL    HW1 2812   0.078   3.055   2.603
  934SOL    HW2 2813   0.161   3.074   2.464
  935SOL     OW 2814   0.672   3.253   3.486
  935SOL    HW1 2815   0.594   3.203   3.524
  935SOL    HW2 2816   0.669   3.348   3.517
  936SOL     OW 2817   1.824   2.054   3.089
  936SOL    HW1 2818   1.820   1.964   3.133
  936SOL    HW2 2819   1.827   2.043   2.990
  937SOL     OW 2820   0.428   2.286   2.382
  937SOL    HW1 2821   0.458   2.214   2.320
  937SOL    HW2 2822   0.389   2.246   2.465
  938SOL     OW 2823   1.705   3.349   2.966
  938SOL    HW1 2824   1.612   3.324   2.939
  938SOL    HW2 2825   1.731   3.299   3.048
  939SOL     OW 2826   0.317   2.409   3.142
  939SOL    HW1 2827   0.355   2.350   3.214
  939SOL    HW2 2828   0.357   2.383   3.054
  940SOL     OW 2829   0.812   3.448   2.549
  940SOL    HW1 2830   0.844   3.458   2.455
  940SOL    HW2 2831   0.733   3.386   2.551
  941SOL     OW 2832   1.424   2.076   2.974
  941SOL    HW1 2833   1.476   2.011   3.029
  941SOL    HW2 2834   1.375   2.139   3.035
  942SOL     OW 2835   1.001   1.896   3.016
  942SOL    HW1 2836   0.938   1.824   2.985
  942SOL    HW2 2837   1.094   1.860   3.016
  943SOL     OW 2838   0.770   3.192   2.163
  943SOL    HW1 2839   0.724   3.105   2.180
  943SOL    HW2 2840   0.861   3.189   2.204
  944SOL     OW 2841   0.618   3.429   3.146
  944SOL    HW1 2842   0.613   3.511   3.203
  944SOL    HW2 2843   0.707   3.426   3.101
  945SOL     OW 2844   1.352   1.914   2.030
  945SOL    HW1 2845   1.387   1.873   1.946
  945SOL    HW2 2846   1.262   1.876   2.050
  946SOL     OW 2847   1.300   2.315   2.553
  946SOL    HW1 2848   1.241   2.395   2.557
  946SOL    HW2 2849   1.315   2.280   2.646
  947SOL     OW 2850   1.593   2.083   2.744
  947SOL    HW1 2851   1.509   2.082   2.798
  947SOL    HW2 2852   1.595   2.166   2.688
  948SOL     OW 2853   0.039   2.939   2.162
  948SOL    HW1 2854   0.138   2.928   2.153
  948SOL    HW2 2855  -0.001   2.853   2.194
  949SOL     OW 2856   0.875   3.508   2.199
  949SOL    HW1 2857   0.798   3.473   2.145
  949SOL    HW2 2858   0.843   3.579   2.261
  950SOL     OW 2859   0.230   2.490   3.837
  950SOL    HW1 2860   0.137   2.488   3.874
  950SOL    HW2 2861   0.231   2.451   3.745
  951SOL     OW 2862   0.019   2.230   4.371
  951SOL    HW1 2863  -0.063   2.273   4.410
  951SOL    HW2 2864  -0.009   2.157   4.308
  952SOL     OW 2865   1.555   3.373   4.427
  952SOL    HW1 2866   1.498   3.357   4.508
  952SOL    HW2 2867   1.496   3.383   4.347
  953SOL     OW 2868   1.135   2.565   4.441
  953SOL    HW1 2869   1.192   2.643   4.416
  953SOL    HW2 2870   1.075   2.591   4.517
  954SOL     OW 2871   1.755   2.469   3.955
  954SOL    HW1 2872   1.743   2.456   3.856
  954SOL    HW2 2873   1.725   2.388   4.004
  955SOL     OW 2874   0.768   3.006   4.747
  955SOL    HW1 2875   0.690   3.023   4.807
  955SOL    HW2 2876   0.802   3.093   4.711
  956SOL     OW 2877   0.685   2.874   4.389
  956SOL    HW1 2878   0.754   2.858   4.459
  956SOL    HW2 2879   0.612   2.931   4.427
  957SOL     OW 2880   1.603   2.309   4.461
  957SOL    HW1 2881   1.529   2.355   4.411
  957SOL    HW2 2882   1.654   2.377   4.514
  958SOL     OW 2883   0.231   3.575   4.207
  958SOL    HW1 2884   0.265   3.652   4.261
  958SOL    HW2 2885   0.275   3.575   4.117
  959SOL     OW 2886   0.230   3.296   4.262
  959SOL    HW1 2887   0.204   3.392   4.262
  959SOL    HW2 2888   0.159   3.242   4.307
  960SOL     OW 2889   0.240   2.953   4.610
  960SOL    HW1 2890   0.254   2.869   4.662
  960SOL    HW2 2891   0.185   3.017   4.665
  961SOL     OW 2892   0.606   2.826   3.847
  961SOL    HW1 2893   0.613   2.910   3.793
  961SOL    HW2 2894   0.652   2.839   3.935
  962SOL     OW 2895   0.122   2.505   4.287
  962SOL    HW1 2896   0.077   2.417   4.304
  962SOL    HW2 2897   0.121   2.559   4.371
  963SOL     OW 2898   1.842   3.629   4.083
  963SOL    HW1 2899   1.896   3.600   4.163
  963SOL    HW2 2900   1.872   3.719   4.054
  964SOL     OW 2901   0.027   3.458   3.841
  964SOL    HW1 2902   0.008   3.362   3.862
  964SOL    HW2 2903  -0.006   3.516   3.916
  965SOL     OW 2904   1.689   2.784   4.336
  965SOL    HW1 2905   1.784   2.755   4.344
  965SOL    HW2 2906   1.681   2.849   4.261
  966SOL     OW 2907   1.641   2.970   4.156
  966SOL    HW1 2908   1.727   2.972   4.104
  966SOL    HW2 2909   1.655   3.017   4.244
  967SOL     OW 2910   0.613   3.227   4.450
  967SOL    HW1 2911   0.564   3.140   4.459
  967SOL    HW2 2912   0.590   3.270   4.363
  968SOL     OW 2913   0.809   1.866   4.226
  968SOL    HW1 2914   0.849   1.957   4.217
  968SOL    HW2 2915   0.709   1.874   4.232
  969SOL     OW 2916   1.525   2.861   3.914
  969SOL    HW1 2917   1.462   2.785   3.927
  969SOL    HW2 2918   1.573   2.879   4.000
  970SOL     OW 2919   1.667   3.576   4.296
  970SOL    HW1 2920   1.626   3.553   4.208
  970SOL    HW2 2921   1.649   3.502   4.361
  971SOL     OW 2922   0.598   2.591   3.994
  971SOL    HW1 2923   0.622   2.660   3.926
  971SOL    HW2 2924   0.520   2.624   4.048
  972SOL     OW 2925   1.281   2.207   4.668
  972SOL    HW1 2926   1.195   2.157   4.655
  972SOL    HW2 2927   1.343   2.153   4.724
  973SOL     OW 2928   1.576   3.524   4.031
  973SOL    HW1 2929   1.665   3.570   4.034
  973SOL    HW2 2930   1.555   3.500   3.936
  974SOL     OW 2931   1.041   2.563   4.153
  974SOL    HW1 2932   1.067   2.559   4.249
  974SOL    HW2 2933   0.956   2.512   4.139
  975SOL     OW 2934   0.076   2.673   4.513
  975SOL    HW1 2935   0.175   2.661   4.522
  975SOL    HW2 2936   0.052   2.768   4.534
  976SOL     OW 2937   0.865   2.210   3.919
  976SOL    HW1 2938   0.924   2.273   3.870
  976SOL    HW2 2939   0.884   2.116   3.890
  977SOL     OW 2940   1.362   3.006   4.269
  977SOL    HW1 2941   1.445   2.977   4.221
  977SOL    HW2 2942   1.313   3.073   4.213
  978SOL     OW 2943   0.550   2.058   4.609
  978SOL    HW1 2944   0.545   2.053   4.709
  978SOL    HW2 2945   0.552   2.154   4.580
  979SOL     OW 2946   1.008   3.318   4.201
  979SOL    HW1 2947   0.962   3.390   4.149
  979SOL    HW2 2948   1.004   3.338   4.299
  980SOL     OW 2949   0.351   3.663   4.577
  980SOL    HW1 2950   0.401   3.577   4.583
  980SOL    HW2 2951   0.416   3.740   4.574
  981SOL     OW 2952   1.795   2.928   4.597
  981SOL    HW1 2953   1.733   2.913   4.521
  981SOL    HW2 2954   1.743   2.939   4.682
  982SOL     OW 2955   0.321   2.805   3.966
  982SOL    HW1 2956   0.403   2.844   3.924
  982SOL    HW2 2957   0.294   2.723   3.917
  983SOL     OW 2958   1.458   2.597   4.452
  983SOL    HW1 2959   1.453   2.532   4.527
  983SOL    HW2 2960   1.538   2.656   4.465
  984SOL     OW 2961   1.111   3.638   3.961
  984SOL    HW1 2962   1.051   3.576   4.011
  984SOL    HW2 2963   1.142   3.594   3.876
  985SOL     OW 2964   1.632   3.239   3.805
  985SOL    HW1 2965   1.600   3.333   3.795
  985SOL    HW2 2966   1.556   3.176   3.793
  986SOL     OW 2967   0.464   3.605   4.047
  986SOL    HW1 2968   0.497   3.644   4.133
  986SOL    HW2 2969   0.540   3.598   3.982
  987SOL     OW 2970   1.400   1.969   4.150
  987SOL    HW1 2971   1.376   1.932   4.060
  987SOL    HW2 2972   1.499   1.985   4.154
  988SOL     OW 2973   0.940   3.560   4.628
  988SOL    HW1 2974   1.020   3.503   4.649
  988SOL    HW2 2975   0.891   3.520   4.551
  989SOL     OW 2976   0.382   2.562   4.204
  989SOL    HW1 2977   0.427   2.472   4.201
  989SOL    HW2 2978   0.288   2.551   4.237
  990SOL     OW 2979   0.614   1.984   3.841
  990SOL    HW1 2980   0.712   1.962   3.848
  990SOL    HW2 2981   0.583   1.967   3.748
  991SOL     OW 2982   0.539   1.926   4.236
  991SOL    HW1 2983   0.458   1.927   4.294
  991SOL    HW2 2984   0.542   2.009   4.181
  992SOL     OW 2985   1.434   3.050   3.765
  992SOL    HW1 2986   1.466   2.974   3.822
  992SOL    HW2 2987   1.342   3.077   3.795
  993SOL     OW 2988   0.297   1.897   3.895
  993SOL    HW1 2989   0.346   1.981   3.874
  993SOL    HW2 2990   0.359   1.832   3.940
  994SOL     OW 2991   0.935   2.098   4.204
  994SOL    HW1 2992   0.887   2.139   4.126
  994SOL    HW2 2993   1.034   2.096   4.185
  995SOL     OW 2994   0.459   3.014   4.465
  995SOL    HW1 2995   0.388   2.987   4.530
  995SOL    HW2 2996   0.433   2.986   4.372
  996SOL     OW 2997   1.271   3.659   4.315
  996SOL    HW1 2998   1.315   3.723   4.251
  996SOL    HW2 2999   1.221   3.711   4.385
  997SOL     OW 3000   1.032   2.411   3.740
  997SOL    HW1 3001   0.991   2.493   3.701
  997SOL    HW2 3002   1.096   2.437   3.813
  998SOL     OW 3003   0.866   2.316   4.366
  998SOL    HW1 3004   0.834   2.388   4.304
  998SOL    HW2 3005   0.890   2.235   4.313
  999SOL     OW 3006   1.017   1.901   4.477
  999SOL    HW1 3007   0.945   1.906   4.408
  999SOL    HW2 3008   0.993   1.832   4.546
 1000SOL     OW 3009   1.857   2.695   4.101
 1000SOL    HW1 3010   1.899   2.631   4.165
 1000SOL    HW2 3011   1.819   2.644   4.023
 1001SOL     OW 3012   0.488   3.247   3.898
 1001SOL    HW1 3013   0.401   3.232   3.945
 1001SOL    HW2 3014   0.471   3.273   3.803
 1002SOL     OW 3015   1.664   3.142   4.381
 1002SOL    HW1 3016   1.763   3.150   4.395
 1002SOL    HW2 3017   1.619   3.226   4.412
 1003SOL     OW 3018   1.390   2.437   3.802
 1003SOL    HW1 3019   1.336   2.416   3.883
 1003SOL    HW2 3020   1.481   2.396   3.811
 1004SOL     OW 3021   0.527   2.118   4.052
 1004SOL    HW1 3022   0.554   2.059   3.977
 1004SOL    HW2 3023   0.527   2.213   4.021
 1005SOL     OW 3024   0.705   2.912   4.092
 1005SOL    HW1 3025   0.691   2.919   4.191
 1005SOL    HW2 3026   0.789   2.861   4.074
 1006SOL     OW 3027   0.367   2.962   4.225
 1006SOL    HW1 3028   0.360   3.045   4.169
 1006SOL    HW2 3029   0.371   2.882   4.165
 1007SOL     OW 3030   0.566   2.399   4.589
 1007SOL    HW1 3031   0.578   2.465   4.515
 1007SOL    HW2 3032   0.612   2.433   4.672
 1008SOL     OW 3033   1.252   3.210   4.112
 1008SOL    HW1 3034   1.302   3.287   4.152
 1008SOL    HW2 3035   1.157   3.212   4.144
 1009SOL     OW 3036   1.582   2.501   4.196
 1009SOL    HW1 3037   1.551   2.562   4.269
 1009SOL    HW2 3038   1.632   2.553   4.127
 1010SOL     OW 3039   1.209   2.387   3.999
 1010SOL    HW1 3040   1.222   2.303   4.053
 1010SOL    HW2 3041   1.180   2.461   4.059
 1011SOL     OW 3042   0.307   1.925   4.342
 1011SOL    HW1 3043   0.296   2.019   4.375
 1011SOL    HW2 3044   0.302   1.862   4.419
 1012SOL     OW 3045   1.622   2.229   4.098
 1012SOL    HW1 3046   1.624   2.153   4.162
 1012SOL    HW2 3047   1.574   2.306   4.138
 1013SOL     OW 3048   1.540   2.136   3.849
 1013SOL    HW1 3049   1.479   2.061   3.872
 1013SOL    HW2 3050   1.562   2.188   3.932
 1014SOL     OW 3051   1.303   2.700   3.766
 1014SOL    HW1 3052   1.337   2.607   3.781
 1014SOL    HW2 3053   1.321   2.727   3.671
 1015SOL     OW 3054   1.068   3.195   4.573
 1015SOL    HW1 3055   1.075   3.111   4.518
 1015SOL    HW2 3056   1.130   3.264   4.537
 1016SOL     OW 3057   0.008   3.188   3.924
 1016SOL    HW1 3058  -0.085   3.209   3.893
 1016SOL    HW2 3059   0.018   3.089   3.937
 1017SOL     OW 3060   0.088   3.663   4.651
 1017SOL    HW1 3061   0.046   3.577   4.624
 1017SOL    HW2 3062   0.182   3.666   4.617
 1018SOL     OW 3063   0.815   2.434   4.049
 1018SOL    HW1 3064   0.822   2.345   4.003
 1018SOL    HW2 3065   0.721   2.468   4.041
 1019SOL     OW 3066   0.473   2.362   3.915
 1019SOL    HW1 3067   0.534   2.442   3.919
 1019SOL    HW2 3068   0.378   2.393   3.922
 1020SOL     OW 3069   1.302   2.717   4.033
 1020SOL    HW1 3070   1.216   2.686   4.075
 1020SOL    HW2 3071   1.298   2.703   3.934
 1021SOL     OW 3072   1.726   1.997   4.247
 1021SOL    HW1 3073   1.799   1.980   4.180
 1021SOL    HW2 3074   1.695   1.910   4.285
 1022SOL     OW 3075   1.388   3.435   4.201
 1022SOL    HW1 3076   1.455   3.447   4.127
 1022SOL    HW2 3077   1.348   3.524   4.224
 1023SOL     OW 3078   1.280   2.789   4.396
 1023SOL    HW1 3079   1.340   2.708   4.398
 1023SOL    HW2 3080   1.320   2.858   4.336
 1024SOL     OW 3081   0.672   3.478   3.878
 1024SOL    HW1 3082   0.681   3.488   3.779
 1024SOL    HW2 3083   0.632   3.389   3.899
 1025SOL     OW 3084   1.841   2.037   4.687
 1025SOL    HW1 3085   1.880   1.952   4.651
 1025SOL    HW2 3086   1.743   2.039   4.668
 1026SOL     OW 3087   0.263   2.188   4.444
 1026SOL    HW1 3088   0.184   2.239   4.410
 1026SOL    HW2 3089   0.254   2.173   4.542
 1027SOL     OW 3090   1.194   3.474   3.755
 1027SOL    HW1 3091   1.200   3.381   3.792
 1027SOL    HW2 3092   1.135   3.474   3.675
 1028SOL     OW 3093   0.916   2.772   4.015
 1028SOL    HW1 3094   0.979   2.810   3.947
 1028SOL    HW2 3095   0.956   2.689   4.054
 1029SOL     OW 3096   1.504   3.469   3.768
 1029SOL    HW1 3097   1.412   3.506   3.775
 1029SOL    HW2 3098   1.542   3.489   3.678
 1030SOL     OW 3099   1.039   2.960   4.420
 1030SOL    HW1 3100   0.969   2.913   4.474
 1030SOL    HW2 3101   1.098   2.892   4.377
 1031SOL     OW 3102   0.590   3.349   4.215
 1031SOL    HW1 3103   0.632   3.291   4.145
 1031SOL    HW2 3104   0.546   3.428   4.171
 1032SOL     OW 3105   0.255   3.210   4.014
 1032SOL    HW1 3106   0.159   3.211   3.987
 1032SOL    HW2 3107   0.267   3.263   4.098
 1033SOL     OW 3108   0.075   2.207   3.757
 1033SOL    HW1 3109  -0.017   2.179   3.728
 1033SOL    HW2 3110   0.106   2.284   3.701
 1034SOL     OW 3111   0.072   2.028   4.042
 1034SOL    HW1 3112   0.055   2.111   3.988
 1034SOL    HW2 3113   0.162   1.991   4.020
 1035SOL     OW 3114   1.183   3.197   3.843
 1035SOL    HW1 3115   1.084   3.186   3.845
 1035SOL    HW2 3116   1.217   3.212   3.936
 1036SOL     OW 3117   1.225   2.187   4.173
 1036SOL    HW1 3118   1.290   2.113   4.162
 1036SOL    HW2 3119   1.245   2.237   4.257
 1037SOL     OW 3120   0.594   2.607   4.376
 1037SOL    HW1 3121   0.644   2.692   4.357
 1037SOL    HW2 3122   0.506   2.609   4.328
 1038SOL     OW 3123   0.859   3.236   3.740
 1038SOL    HW1 3124   0.813   3.251   3.828
 1038SOL    HW2 3125   0.903   3.321   3.710
 1039SOL     OW 3126   0.661   3.652   4.677
 1039SOL    HW1 3127   0.615   3.740   4.664
 1039SOL    HW2 3128   0.760   3.664   4.670
 1040SOL     OW 3129   0.859   2.818   4.585
 1040SOL    HW1 3130   0.913   2.749   4.633
 1040SOL    HW2 3131   0.827   2.887   4.651
 1041SOL     OW 3132   1.083   2.846   3.811
 1041SOL    HW1 3133   1.060   2.899   3.729
 1041SOL    HW2 3134   1.164   2.790   3.792
 1042SOL     OW 3135   0.079   3.102   4.377
 1042SOL    HW1 3136   0.078   3.055   4.465
 1042SOL    HW2 3137   0.161   3.074   4.326
 1043SOL     OW 3138   0.428   2.286   4.244
 1043SOL    HW1 3139   0.458   2.214   4.182
 1043SOL    HW2 3140   0.389   2.246   4.327
 1044SOL     OW 3141   0.812   3.448   4.411
 1044SOL    HW1 3142   0.844   3.458   4.317
 1044SOL    HW2 3143   0.733   3.386   4.413
 1045SOL     OW 3144   0.770   3.192   4.025
 1045SOL    HW1 3145   0.724   3.105   4.042
 1045SOL    HW2 3146   0.861   3.189   4.066
 1046SOL     OW 3147   1.352   1.914   3.892
 1046SOL    HW1 3148   1.387   1.873   3.808
 1046SOL    HW2 3149   1.262   1.876   3.912
 1047SOL     OW 3150   1.300   2.315   4.415
 1047SOL    HW1 3151   1.241   2.395   4.419
 1047SOL    HW2 3152   1.315   2.280   4.508
 1048SOL     OW 3153   0.039   2.939   4.024
 1048SOL    HW1 3154   0.138   2.928   4.015
 1048SOL    HW2 3155  -0.001   2.853   4.056
 1049SOL     OW 3156   0.875   3.508   4.061
 1049SOL    HW1 3157   0.798   3.473   4.007
 1049SOL    HW2 3158   0.843   3.579   4.123
 1050SOL     OW 3159   0.230   4.352   0.113
 1050SOL    HW1 3160   0.137   4.350   0.150
 1050SOL    HW2 3161   0.231   4.313   0.021
 1051SOL     OW 3162   0.225   3.999   0.996
 1051SOL    HW1 3163   0.260   3.982   1.088
 1051SOL    HW2 3164   0.137   3.954   0.984
 1052SOL     OW 3165   0.019   4.092   0.647
 1052SOL    HW1 3166  -0.063   4.135   0.686
 1052SOL    HW2 3167  -0.009   4.019   0.584
 1053SOL     OW 3168   1.135   4.427   0.717
 1053SOL    HW1 3169   1.192   4.505   0.692
 1053SOL    HW2 3170   1.075   4.453   0.793
 1054SOL     OW 3171   1.755   4.331   0.231
 1054SOL    HW1 3172   1.743   4.318   0.132
 1054SOL    HW2 3173   1.725   4.250   0.280
 1055SOL     OW 3174   0.850   4.522   1.823
 1055SOL    HW1 3175   0.846   4.598   1.888
 1055SOL    HW2 3176   0.872   4.558   1.732
 1056SOL     OW 3177   0.685   4.736   0.665
 1056SOL    HW1 3178   0.754   4.720   0.735
 1056SOL    HW2 3179   0.612   4.793   0.703
 1057SOL     OW 3180   0.438   4.116   1.499
 1057SOL    HW1 3181   0.520   4.060   1.508
 1057SOL    HW2 3182   0.357   4.058   1.503
 1058SOL     OW 3183   1.603   4.171   0.737
 1058SOL    HW1 3184   1.529   4.217   0.687
 1058SOL    HW2 3185   1.654   4.239   0.790
 1059SOL     OW 3186   1.594   3.838   1.480
 1059SOL    HW1 3187   1.576   3.905   1.408
 1059SOL    HW2 3188   1.591   3.884   1.569
 1060SOL     OW 3189   0.122   4.367   0.563
 1060SOL    HW1 3190   0.077   4.279   0.580
 1060SOL    HW2 3191   0.121   4.421   0.647
 1061SOL     OW 3192   0.113   4.461   1.597
 1061SOL    HW1 3193   0.201   4.448   1.642
 1061SOL    HW2 3194   0.100   4.558   1.575
 1062SOL     OW 3195   0.809   3.728   0.502
 1062SOL    HW1 3196   0.849   3.819   0.493
 1062SOL    HW2 3197   0.709   3.736   0.508
 1063SOL     OW 3198   0.317   3.975   1.801
 1063SOL    HW1 3199   0.388   4.046   1.807
 1063SOL    HW2 3200   0.229   4.014   1.829
 1064SOL     OW 3201   0.598   4.453   0.270
 1064SOL    HW1 3202   0.622   4.522   0.202
 1064SOL    HW2 3203   0.520   4.486   0.324
 1065SOL     OW 3204   1.281   4.069   0.944
 1065SOL    HW1 3205   1.195   4.019   0.931
 1065SOL    HW2 3206   1.343   4.015   1.000
 1066SOL     OW 3207   0.807   4.329   1.465
 1066SOL    HW1 3208   0.760   4.326   1.554
 1066SOL    HW2 3209   0.756   4.274   1.399
 1067SOL     OW 3210   1.394   4.193   1.674
 1067SOL    HW1 3211   1.374   4.236   1.762
 1067SOL    HW2 3212   1.472   4.131   1.683
 1068SOL     OW 3213   0.991   4.134   1.242
 1068SOL    HW1 3214   0.914   4.168   1.296
 1068SOL    HW2 3215   0.957   4.083   1.163
 1069SOL     OW 3216   1.041   4.425   0.429
 1069SOL    HW1 3217   1.067   4.421   0.525
 1069SOL    HW2 3218   0.956   4.374   0.415
 1070SOL     OW 3219   0.076   4.535   0.789
 1070SOL    HW1 3220   0.175   4.523   0.798
 1070SOL    HW2 3221   0.052   4.630   0.810
 1071SOL     OW 3222   0.865   4.072   0.195
 1071SOL    HW1 3223   0.924   4.135   0.146
 1071SOL    HW2 3224   0.884   3.978   0.166
 1072SOL     OW 3225   1.719   4.309   1.831
 1072SOL    HW1 3226   1.693   4.398   1.795
 1072SOL    HW2 3227   1.717   4.241   1.758
 1073SOL     OW 3228   0.550   3.920   0.885
 1073SOL    HW1 3229   0.545   3.915   0.985
 1073SOL    HW2 3230   0.552   4.016   0.856
 1074SOL     OW 3231   1.458   4.459   0.728
 1074SOL    HW1 3232   1.453   4.394   0.803
 1074SOL    HW2 3233   1.538   4.518   0.741
 1075SOL     OW 3234   0.202   4.009   1.498
 1075SOL    HW1 3235   0.122   4.069   1.485
 1075SOL    HW2 3236   0.192   3.960   1.584
 1076SOL     OW 3237   1.400   3.831   0.426
 1076SOL    HW1 3238   1.376   3.794   0.336
 1076SOL    HW2 3239   1.499   3.847   0.430
 1077SOL     OW 3240   0.382   4.424   0.480
 1077SOL    HW1 3241   0.427   4.334   0.477
 1077SOL    HW2 3242   0.288   4.413   0.513
 1078SOL     OW 3243   1.547   3.946   1.729
 1078SOL    HW1 3244   1.542   3.983   1.821
 1078SOL    HW2 3245   1.475   3.877   1.717
 1079SOL     OW 3246   0.781   3.988   1.749
 1079SOL    HW1 3247   0.848   3.927   1.792
 1079SOL    HW2 3248   0.708   4.007   1.814
 1080SOL     OW 3249   1.351   4.314   1.433
 1080SOL    HW1 3250   1.379   4.271   1.518
 1080SOL    HW2 3251   1.376   4.410   1.434
 1081SOL     OW 3252   0.922   4.227   0.899
 1081SOL    HW1 3253   0.897   4.218   0.803
 1081SOL    HW2 3254   0.970   4.145   0.930
 1082SOL     OW 3255   0.539   3.788   0.512
 1082SOL    HW1 3256   0.458   3.789   0.570
 1082SOL    HW2 3257   0.542   3.871   0.457
 1083SOL     OW 3258   0.297   3.759   0.171
 1083SOL    HW1 3259   0.346   3.843   0.150
 1083SOL    HW2 3260   0.359   3.694   0.216
 1084SOL     OW 3261   0.935   3.960   0.480
 1084SOL    HW1 3262   0.887   4.001   0.402
 1084SOL    HW2 3263   1.034   3.958   0.461
 1085SOL     OW 3264   1.076   4.407   1.464
 1085SOL    HW1 3265   0.996   4.346   1.467
 1085SOL    HW2 3266   1.157   4.354   1.440
 1086SOL     OW 3267   1.032   4.273   0.016
 1086SOL    HW1 3268   0.991   4.355  -0.023
 1086SOL    HW2 3269   1.096   4.299   0.089
 1087SOL     OW 3270   0.078   4.280   1.386
 1087SOL    HW1 3271   0.170   4.279   1.345
 1087SOL    HW2 3272   0.072   4.354   1.453
 1088SOL     OW 3273   0.561   3.946   1.147
 1088SOL    HW1 3274   0.599   3.862   1.184
 1088SOL    HW2 3275   0.473   3.965   1.191
 1089SOL     OW 3276   0.866   4.178   0.642
 1089SOL    HW1 3277   0.834   4.250   0.580
 1089SOL    HW2 3278   0.890   4.097   0.589
 1090SOL     OW 3279   1.017   3.763   0.753
 1090SOL    HW1 3280   0.945   3.768   0.684
 1090SOL    HW2 3281   0.993   3.694   0.822
 1091SOL     OW 3282   1.466   4.314   0.992
 1091SOL    HW1 3283   1.436   4.219   0.999
 1091SOL    HW2 3284   1.539   4.330   1.058
 1092SOL     OW 3285   1.857   4.557   0.377
 1092SOL    HW1 3286   1.899   4.493   0.441
 1092SOL    HW2 3287   1.819   4.506   0.299
 1093SOL     OW 3288   1.390   4.299   0.078
 1093SOL    HW1 3289   1.336   4.278   0.159
 1093SOL    HW2 3290   1.481   4.258   0.087
 1094SOL     OW 3291   0.527   3.980   0.328
 1094SOL    HW1 3292   0.554   3.921   0.253
 1094SOL    HW2 3293   0.527   4.075   0.297
 1095SOL     OW 3294   0.915   3.813   1.402
 1095SOL    HW1 3295   0.940   3.793   1.307
 1095SOL    HW2 3296   0.987   3.869   1.444
 1096SOL     OW 3297   0.705   4.774   0.368
 1096SOL    HW1 3298   0.691   4.781   0.467
 1096SOL    HW2 3299   0.789   4.723   0.350
 1097SOL     OW 3300   0.410   4.537   1.251
 1097SOL    HW1 3301   0.496   4.549   1.301
 1097SOL    HW2 3302   0.368   4.450   1.278
 1098SOL     OW 3303   1.274   4.110   1.262
 1098SOL    HW1 3304   1.295   4.184   1.326
 1098SOL    HW2 3305   1.185   4.127   1.219
 1099SOL     OW 3306   0.566   4.261   0.865
 1099SOL    HW1 3307   0.578   4.327   0.791
 1099SOL    HW2 3308   0.612   4.295   0.948
 1100SOL     OW 3309   1.582   4.363   0.472
 1100SOL    HW1 3310   1.551   4.424   0.545
 1100SOL    HW2 3311   1.632   4.415   0.403
 1101SOL     OW 3312   0.402   4.475   1.598
 1101SOL    HW1 3313   0.470   4.530   1.551
 1101SOL    HW2 3314   0.442   4.387   1.625
 1102SOL     OW 3315   1.587   4.503   1.670
 1102SOL    HW1 3316   1.495   4.541   1.665
 1102SOL    HW2 3317   1.647   4.550   1.605
 1103SOL     OW 3318   1.013   3.829   1.770
 1103SOL    HW1 3319   1.019   3.914   1.718
 1103SOL    HW2 3320   1.045   3.753   1.713
 1104SOL     OW 3321   0.504   3.774   1.740
 1104SOL    HW1 3322   0.462   3.717   1.670
 1104SOL    HW2 3323   0.438   3.843   1.772
 1105SOL     OW 3324   0.573   4.594   1.029
 1105SOL    HW1 3325   0.617   4.683   1.020
 1105SOL    HW2 3326   0.510   4.594   1.106
 1106SOL     OW 3327   1.360   4.586   1.045
 1106SOL    HW1 3328   1.285   4.586   0.979
 1106SOL    HW2 3329   1.397   4.494   1.054
 1107SOL     OW 3330   1.209   4.249   0.275
 1107SOL    HW1 3331   1.222   4.165   0.329
 1107SOL    HW2 3332   1.180   4.323   0.335
 1108SOL     OW 3333   0.307   3.937   1.231
 1108SOL    HW1 3334   0.284   3.974   1.321
 1108SOL    HW2 3335   0.277   3.842   1.225
 1109SOL     OW 3336   0.732   4.358   1.064
 1109SOL    HW1 3337   0.791   4.332   0.988
 1109SOL    HW2 3338   0.704   4.454   1.053
 1110SOL     OW 3339   1.728   4.659   1.854
 1110SOL    HW1 3340   1.682   4.652   1.765
 1110SOL    HW2 3341   1.666   4.703   1.920
 1111SOL     OW 3342   0.307   3.787   0.618
 1111SOL    HW1 3343   0.296   3.881   0.651
 1111SOL    HW2 3344   0.302   3.724   0.695
 1112SOL     OW 3345   1.622   4.091   0.374
 1112SOL    HW1 3346   1.624   4.015   0.438
 1112SOL    HW2 3347   1.574   4.168   0.414
 1113SOL     OW 3348   1.540   3.998   0.125
 1113SOL    HW1 3349   1.479   3.923   0.148
 1113SOL    HW2 3350   1.562   4.050   0.208
 1114SOL     OW 3351   0.319   4.534   0.949
 1114SOL    HW1 3352   0.412   4.570   0.954
 1114SOL    HW2 3353   0.313   4.449   1.001
 1115SOL     OW 3354   0.339   4.233   1.006
 1115SOL    HW1 3355   0.287   4.150   0.989
 1115SOL    HW2 3356   0.416   4.238   0.942
 1116SOL     OW 3357   1.138   4.104   1.678
 1116SOL    HW1 3358   1.093   4.167   1.742
 1116SOL    HW2 3359   1.231   4.135   1.661
 1117SOL     OW 3360   1.160   3.931   1.477
 1117SOL    HW1 3361   1.160   3.995   1.554
 1117SOL    HW2 3362   1.188   3.979   1.394
 1118SOL     OW 3363   0.040   4.268   1.114
 1118SOL    HW1 3364   0.125   4.235   1.073
 1118SOL    HW2 3365   0.053   4.283   1.212
 1119SOL     OW 3366   0.189   4.244   1.722
 1119SOL    HW1 3367   0.248   4.204   1.652
 1119SOL    HW2 3368   0.131   4.315   1.681
 1120SOL     OW 3369   0.815   4.296   0.325
 1120SOL    HW1 3370   0.822   4.207   0.279
 1120SOL    HW2 3371   0.721   4.330   0.317
 1121SOL     OW 3372   1.657   4.328   1.206
 1121SOL    HW1 3373   1.619   4.259   1.268
 1121SOL    HW2 3374   1.739   4.292   1.162
 1122SOL     OW 3375   0.671   4.188   1.269
 1122SOL    HW1 3376   0.637   4.099   1.239
 1122SOL    HW2 3377   0.697   4.242   1.189
 1123SOL     OW 3378   0.473   4.224   0.191
 1123SOL    HW1 3379   0.534   4.304   0.195
 1123SOL    HW2 3380   0.378   4.255   0.198
 1124SOL     OW 3381   0.903   3.810   0.133
 1124SOL    HW1 3382   0.954   3.811   0.047
 1124SOL    HW2 3383   0.959   3.768   0.204
 1125SOL     OW 3384   1.726   3.859   0.523
 1125SOL    HW1 3385   1.799   3.842   0.456
 1125SOL    HW2 3386   1.695   3.772   0.561
 1126SOL     OW 3387   1.280   4.651   0.672
 1126SOL    HW1 3388   1.340   4.570   0.674
 1126SOL    HW2 3389   1.320   4.720   0.612
 1127SOL     OW 3390   1.841   3.899   0.963
 1127SOL    HW1 3391   1.880   3.814   0.927
 1127SOL    HW2 3392   1.743   3.901   0.944
 1128SOL     OW 3393   0.263   4.050   0.720
 1128SOL    HW1 3394   0.184   4.101   0.686
 1128SOL    HW2 3395   0.254   4.035   0.818
 1129SOL     OW 3396   1.014   3.960   0.971
 1129SOL    HW1 3397   1.006   3.924   0.878
 1129SOL    HW2 3398   1.012   3.884   1.036
 1130SOL     OW 3399   1.709   4.109   1.381
 1130SOL    HW1 3400   1.782   4.178   1.385
 1130SOL    HW2 3401   1.737   4.034   1.322
 1131SOL     OW 3402   0.105   4.737   1.726
 1131SOL    HW1 3403   0.028   4.704   1.780
 1131SOL    HW2 3404   0.190   4.707   1.768
 1132SOL     OW 3405   0.672   3.927   1.489
 1132SOL    HW1 3406   0.762   3.911   1.449
 1132SOL    HW2 3407   0.680   3.932   1.588
 1133SOL     OW 3408   0.075   4.069   0.033
 1133SOL    HW1 3409  -0.017   4.041   0.004
 1133SOL    HW2 3410   0.106   4.146  -0.023
 1134SOL     OW 3411   1.440   4.580   1.398
 1134SOL    HW1 3412   1.383   4.632   1.335
 1134SOL    HW2 3413   1.536   4.592   1.374
 1135SOL     OW 3414   0.072   3.890   0.318
 1135SOL    HW1 3415   0.055   3.973   0.264
 1135SOL    HW2 3416   0.162   3.853   0.296
 1136SOL     OW 3417   0.613   4.566   1.431
 1136SOL    HW1 3418   0.669   4.647   1.414
 1136SOL    HW2 3419   0.672   4.486   1.434
 1137SOL     OW 3420   0.716   4.289   1.708
 1137SOL    HW1 3421   0.735   4.354   1.782
 1137SOL    HW2 3422   0.776   4.209   1.717
 1138SOL     OW 3423   1.674   4.607   1.254
 1138SOL    HW1 3424   1.647   4.518   1.217
 1138SOL    HW2 3425   1.675   4.675   1.181
 1139SOL     OW 3426   1.225   4.049   0.449
 1139SOL    HW1 3427   1.290   3.975   0.438
 1139SOL    HW2 3428   1.245   4.099   0.533
 1140SOL     OW 3429   0.594   4.469   0.652
 1140SOL    HW1 3430   0.644   4.554   0.633
 1140SOL    HW2 3431   0.506   4.471   0.604
 1141SOL     OW 3432   1.777   4.066   1.642
 1141SOL    HW1 3433   1.760   4.097   1.548
 1141SOL    HW2 3434   1.693   4.029   1.680
 1142SOL     OW 3435   1.824   3.916   1.227
 1142SOL    HW1 3436   1.820   3.826   1.271
 1142SOL    HW2 3437   1.827   3.905   1.128
 1143SOL     OW 3438   0.428   4.148   0.520
 1143SOL    HW1 3439   0.458   4.076   0.458
 1143SOL    HW2 3440   0.389   4.108   0.603
 1144SOL     OW 3441   0.317   4.271   1.280
 1144SOL    HW1 3442   0.355   4.212   1.352
 1144SOL    HW2 3443   0.357   4.245   1.192
 1145SOL     OW 3444   1.424   3.938   1.112
 1145SOL    HW1 3445   1.476   3.873   1.167
 1145SOL    HW2 3446   1.375   4.001   1.173
 1146SOL     OW 3447   1.001   3.758   1.154
 1146SOL    HW1 3448   0.938   3.686   1.123
 1146SOL    HW2 3449   1.094   3.722   1.154
 1147SOL     OW 3450   1.352   3.776   0.168
 1147SOL    HW1 3451   1.387   3.735   0.084
 1147SOL    HW2 3452   1.262   3.738   0.188
 1148SOL     OW 3453   1.300   4.177   0.691
 1148SOL    HW1 3454   1.241   4.257   0.695
 1148SOL    HW2 3455   1.315   4.142   0.784
 1149SOL     OW 3456   1.593   3.945   0.882
 1149SOL    HW1 3457   1.509   3.944   0.936
 1149SOL    HW2 3458   1.595   4.028   0.826
 1150SOL     OW 3459   0.230   4.352   1.975
 1150SOL    HW1 3460   0.137   4.350   2.012
 1150SOL    HW2 3461   0.231   4.313   1.883
 1151SOL     OW 3462   0.225   3.999   2.858
 1151SOL    HW1 3463   0.260   3.982   2.950
 1151SOL    HW2 3464   0.137   3.954   2.846
 1152SOL     OW 3465   0.019   4.092   2.509
 1152SOL    HW1 3466  -0.063   4.135   2.548
 1152SOL    HW2 3467  -0.009   4.019   2.446
 1153SOL     OW 3468   1.135   4.427   2.579
 1153SOL    HW1 3469   1.192   4.505   2.554
 1153SOL    HW2 3470   1.075   4.453   2.655
 1154SOL     OW 3471   1.755   4.331   2.093
 1154SOL    HW1 3472   1.743   4.318   1.994
 1154SOL    HW2 3473   1.725   4.250   2.142
 1155SOL     OW 3474   0.850   4.522   3.685
 1155SOL    HW1 3475   0.846   4.598   3.750
 1155SOL    HW2 3476   0.872   4.558   3.594
 1156SOL     OW 3477   0.685   4.736   2.527
 1156SOL    HW1 3478   0.754   4.720   2.597
 1156SOL    HW2 3479   0.612   4.793   2.565
 1157SOL     OW 3480   0.438   4.116   3.361
 1157SOL    HW1 3481   0.520   4.060   3.370
 1157SOL    HW2 3482   0.357   4.058   3.365
 1158SOL     OW 3483   1.603   4.171   2.599
 1158SOL    HW1 3484   1.529   4.217   2.549
 1158SOL    HW2 3485   1.654   4.239   2.652
 1159SOL     OW 3486   1.594   3.838   3.342
 1159SOL    HW1 3487   1.576   3.905   3.270
 1159SOL    HW2 3488   1.591   3.884   3.431
 1160SOL     OW 3489   0.122   4.367   2.425
 1160SOL    HW1 3490   0.077   4.279   2.442
 1160SOL    HW2 3491   0.121   4.421   2.509
 1161SOL     OW 3492   0.113   4.461   3.459
 1161SOL    HW1 3493   0.201   4.448   3.504
 1161SOL    HW2 3494   0.100   4.558   3.437
 1162SOL     OW 3495   0.809   3.728   2.364
 1162SOL    HW1 3496   0.849   3.819   2.355
 1162SOL    HW2 3497   0.709   3.736   2.370
 1163SOL     OW 3498   0.317   3.975   3.663
 1163SOL    HW1 3499   0.388   4.046   3.669
 1163SOL    HW2 3500   0.229   4.014   3.691
 1164SOL     OW 3501   0.598   4.453   2.132
 1164SOL    HW1 3502   0.622   4.522   2.064
 1164SOL    HW2 3503   0.520   4.486   2.186
 1165SOL     OW 3504   1.281   4.069   2.806
 1165SOL    HW1 3505   1.195   4.019   2.793
 1165SOL    HW2 3506   1.343   4.015   2.862
 1166SOL     OW 3507   0.807   4.329   3.327
 1166SOL    HW1 3508   0.760   4.326   3.416
 1166SOL    HW2 3509   0.756   4.274   3.261
 1167SOL     OW 3510   1.394   4.193   3.536
 1167SOL    HW1 3511   1.374   4.236   3.624
 1167SOL    HW2 3512   1.472   4.131   3.545
 1168SOL     OW 3513   0.991   4.134   3.104
 1168SOL    HW1 3514   0.914   4.168   3.158
 1168SOL    HW2 3515   0.957   4.083   3.025
 1169SOL     OW 3516   1.041   4.425   2.291
 1169SOL    HW1 3517   1.067   4.421   2.387
 1169SOL    HW2 3518   0.956   4.374   2.277
 1170SOL     OW 3519   0.076   4.535   2.651
 1170SOL    HW1 3520   0.175   4.523   2.660
 1170SOL    HW2 3521   0.052   4.630   2.672
 1171SOL     OW 3522   0.865   4.072   2.057
 1171SOL    HW1 3523   0.924   4.135   2.008
 1171SOL    HW2 3524   0.884   3.978   2.028
 1172SOL     OW 3525   1.719   4.309   3.693
 1172SOL    HW1 3526   1.693   4.398   3.657
 1172SOL    HW2 3527   1.717   4.241   3.620
 1173SOL     OW 3528   0.550   3.920   2.747
 1173SOL    HW1 3529   0.545   3.915   2.847
 1173SOL    HW2 3530   0.552   4.016   2.718
 1174SOL     OW 3531   1.458   4.459   2.590
 1174SOL    HW1 3532   1.453   4.394   2.665
 1174SOL    HW2 3533   1.538   4.518   2.603
 1175SOL     OW 3534   0.202   4.009   3.360
 1175SOL    HW1 3535   0.122   4.069   3.347
 1175SOL    HW2 3536   0.192   3.960   3.446
 1176SOL     OW 3537   1.400   3.831   2.288
 1176SOL    HW1 3538   1.376   3.794   2.198
 1176SOL    HW2 3539   1.499   3.847   2.292
 1177SOL     OW 3540   0.382   4.424   2.342
 1177SOL    HW1 3541   0.427   4.334   2.339
 1177SOL    HW2 3542   0.288   4.413   2.375
 1178SOL     OW 3543   1.547   3.946   3.591
 1178SOL    HW1 3544   1.542   3.983   3.683
 1178SOL    HW2 3545   1.475   3.877   3.579
 1179SOL     OW 3546   0.614   3.846   1.979
 1179SOL    HW1 3547   0.712   3.824   1.986
 1179SOL    HW2 3548   0.583   3.829   1.886
 1180SOL     OW 3549   0.781   3.988   3.611
 1180SOL    HW1 3550   0.848   3.927   3.654
 1180SOL    HW2 3551   0.708   4.007   3.676
 1181SOL     OW 3552   1.351   4.314   3.295
 1181SOL    HW1 3553   1.379   4.271   3.380
 1181SOL    HW2 3554   1.376   4.410   3.296
 1182SOL     OW 3555   0.922   4.227   2.761
 1182SOL    HW1 3556   0.897   4.218   2.665
 1182SOL    HW2 3557   0.970   4.145   2.792
 1183SOL     OW 3558   0.539   3.788   2.374
 1183SOL    HW1 3559   0.458   3.789   2.432
 1183SOL    HW2 3560   0.542   3.871   2.319
 1184SOL     OW 3561   0.297   3.759   2.033
 1184SOL    HW1 3562   0.346   3.843   2.012
 1184SOL    HW2 3563   0.359   3.694   2.078
 1185SOL     OW 3564   0.935   3.960   2.342
 1185SOL    HW1 3565   0.887   4.001   2.264
 1185SOL    HW2 3566   1.034   3.958   2.323
 1186SOL     OW 3567   1.076   4.407   3.326
 1186SOL    HW1 3568   0.996   4.346   3.329
 1186SOL    HW2 3569   1.157   4.354   3.302
 1187SOL     OW 3570   1.032   4.273   1.878
 1187SOL    HW1 3571   0.991   4.355   1.839
 1187SOL    HW2 3572   1.096   4.299   1.951
 1188SOL     OW 3573   0.078   4.280   3.248
 1188SOL    HW1 3574   0.170   4.279   3.207
 1188SOL    HW2 3575   0.072   4.354   3.315
 1189SOL     OW 3576   0.561   3.946   3.009
 1189SOL    HW1 3577   0.599   3.862   3.046
 1189SOL    HW2 3578   0.473   3.965   3.053
 1190SOL     OW 3579   0.866   4.178   2.504
 1190SOL    HW1 3580   0.834   4.250   2.442
 1190SOL    HW2 3581   0.890   4.097   2.451
 1191SOL     OW 3582   1.017   3.763   2.615
 1191SOL    HW1 3583   0.945   3.768   2.546
 1191SOL    HW2 3584   0.993   3.694   2.684
 1192SOL     OW 3585   1.466   4.314   2.854
 1192SOL    HW1 3586   1.436   4.219   2.861
 1192SOL    HW2 3587   1.539   4.330   2.920
 1193SOL     OW 3588   1.857   4.557   2.239
 1193SOL    HW1 3589   1.899   4.493   2.303
 1193SOL    HW2 3590   1.819   4.506   2.161
 1194SOL     OW 3591   1.390   4.299   1.940
 1194SOL    HW1 3592   1.336   4.278   2.021
 1194SOL    HW2 3593   1.481   4.258   1.949
 1195SOL     OW 3594   0.527   3.980   2.190
 1195SOL    HW1 3595   0.554   3.921   2.115
 1195SOL    HW2 3596   0.527   4.075   2.159
 1196SOL     OW 3597   0.915   3.813   3.264
 1196SOL    HW1 3598   0.940   3.793   3.169
 1196SOL    HW2 3599   0.987   3.869   3.306
 1197SOL     OW 3600   0.705   4.774   2.230
 1197SOL    HW1 3601   0.691   4.781   2.329
 1197SOL    HW2 3602   0.789   4.723   2.212
 1198SOL     OW 3603   0.410   4.537   3.113
 1198SOL    HW1 3604   0.496   4.549   3.163
 1198SOL    HW2 3605   0.368   4.450   3.140
 1199SOL     OW 3606   1.274   4.110   3.124
 1199SOL    HW1 3607   1.295   4.184   3.188
 1199SOL    HW2 3608   1.185   4.127   3.081
 1200SOL     OW 3609   0.566   4.261   2.727
 1200SOL    HW1 3610   0.578   4.327   2.653
 1200SOL    HW2 3611   0.612   4.295   2.810
 1201SOL     OW 3612   1.582   4.363   2.334
 1201SOL    HW1 3613   1.551   4.424   2.407
 1201SOL    HW2 3614   1.632   4.415   2.265
 1202SOL     OW 3615   0.402   4.475   3.460
 1202SOL    HW1 3616   0.470   4.530   3.413
 1202SOL    HW2 3617   0.442   4.387   3.487
 1203SOL     OW 3618   1.587   4.503   3.532
 1203SOL    HW1 3619   1.495   4.541   3.527
 1203SOL    HW2 3620   1.647   4.550   3.467
 1204SOL     OW 3621   1.013   3.829   3.632
 1204SOL    HW1 3622   1.019   3.914   3.580
 1204SOL    HW2 3623   1.045   3.753   3.575
 1205SOL     OW 3624   0.504   3.774   3.602
 1205SOL    HW1 3625   0.462   3.717   3.532
 1205SOL    HW2 3626   0.438   3.843   3.634
 1206SOL     OW 3627   0.573   4.594   2.891
 1206SOL    HW1 3628   0.617   4.683   2.882
 1206SOL    HW2 3629   0.510   4.594   2.968
 1207SOL     OW 3630   1.360   4.586   2.907
 1207SOL    HW1 3631   1.285   4.586   2.841
 1207SOL    HW2 3632   1.397   4.494   2.916
 1208SOL     OW 3633   1.209   4.249   2.137
 1208SOL    HW1 3634   1.222   4.165   2.191
 1208SOL    HW2 3635   1.180   4.323   2.197
 1209SOL     OW 3636   0.307   3.937   3.093
 1209SOL    HW1 3637   0.284   3.974   3.183
 1209SOL    HW2 3638   0.277   3.842   3.087
 1210SOL     OW 3639   0.732   4.358   2.926
 1210SOL    HW1 3640   0.791   4.332   2.850
 1210SOL    HW2 3641   0.704   4.454   2.915
 1211SOL     OW 3642   1.728   4.659   3.716
 1211SOL    HW1 3643   1.682   4.652   3.627
 1211SOL    HW2 3644   1.666   4.703   3.782
 1212SOL     OW 3645   0.307   3.787   2.480
 1212SOL    HW1 3646   0.296   3.881   2.513
 1212SOL    HW2 3647   0.302   3.724   2.557
 1213SOL     OW 3648   1.622   4.091   2.236
 1213SOL    HW1 3649   1.624   4.015   2.300
 1213SOL    HW2 3650   1.574   4.168   2.276
 1214SOL     OW 3651   1.540   3.998   1.987
 1214SOL    HW1 3652   1.479   3.923   2.010
 1214SOL    HW2 3653   1.562   4.050   2.070
 1215SOL     OW 3654   0.319   4.534   2.811
 1215SOL    HW1 3655   0.412   4.570   2.816
 1215SOL    HW2 3656   0.313   4.449   2.863
 1216SOL     OW 3657   0.339   4.233   2.868
 1216SOL    HW1 3658   0.287   4.150   2.851
 1216SOL    HW2 3659   0.416   4.238   2.804
 1217SOL     OW 3660   1.138   4.104   3.540
 1217SOL    HW1 3661   1.093   4.167   3.604
 1217SOL    HW2 3662   1.231   4.135   3.523
 1218SOL     OW 3663   1.160   3.931   3.339
 1218SOL    HW1 3664   1.160   3.995   3.416
 1218SOL    HW2 3665   1.188   3.979   3.256
 1219SOL     OW 3666   0.040   4.268   2.976
 1219SOL    HW1 3667   0.125   4.235   2.935
 1219SOL    HW2 3668   0.053   4.283   3.074
 1220SOL     OW 3669   0.189   4.244   3.584
 1220SOL    HW1 3670   0.248   4.204   3.514
 1220SOL    HW2 3671   0.131   4.315   3.543
 1221SOL     OW 3672   0.815   4.296   2.187
 1221SOL    HW1 3673   0.822   4.207   2.141
 1221SOL    HW2 3674   0.721   4.330   2.179
 1222SOL     OW 3675   1.657   4.328   3.068
 1222SOL    HW1 3676   1.619   4.259   3.130
 1222SOL    HW2 3677   1.739   4.292   3.024
 1223SOL     OW 3678   0.671   4.188   3.131
 1223SOL    HW1 3679   0.637   4.099   3.101
 1223SOL    HW2 3680   0.697   4.242   3.051
 1224SOL     OW 3681   0.473   4.224   2.053
 1224SOL    HW1 3682   0.534   4.304   2.057
 1224SOL    HW2 3683   0.378   4.255   2.060
 1225SOL     OW 3684   1.726   3.859   2.385
 1225SOL    HW1 3685   1.799   3.842   2.318
 1225SOL    HW2 3686   1.695   3.772   2.423
 1226SOL     OW 3687   1.280   4.651   2.534
 1226SOL    HW1 3688   1.340   4.570   2.536
 1226SOL    HW2 3689   1.320   4.720   2.474
 1227SOL     OW 3690   1.841   3.899   2.825
 1227SOL    HW1 3691   1.880   3.814   2.789
 1227SOL    HW2 3692   1.743   3.901   2.806
 1228SOL     OW 3693   0.263   4.050   2.582
 1228SOL    HW1 3694   0.184   4.101   2.548
 1228SOL    HW2 3695   0.254   4.035   2.680
 1229SOL     OW 3696   0.916   4.634   2.153
 1229SOL    HW1 3697   0.979   4.672   2.085
 1229SOL    HW2 3698   0.956   4.551   2.192
 1230SOL     OW 3699   1.014   3.960   2.833
 1230SOL    HW1 3700   1.006   3.924   2.740
 1230SOL    HW2 3701   1.012   3.884   2.898
 1231SOL     OW 3702   1.709   4.109   3.243
 1231SOL    HW1 3703   1.782   4.178   3.247
 1231SOL    HW2 3704   1.737   4.034   3.184
 1232SOL     OW 3705   0.105   4.737   3.588
 1232SOL    HW1 3706   0.028   4.704   3.642
 1232SOL    HW2 3707   0.190   4.707   3.630
 1233SOL     OW 3708   0.672   3.927   3.351
 1233SOL    HW1 3709   0.762   3.911   3.311
 1233SOL    HW2 3710   0.680   3.932   3.450
 1234SOL     OW 3711   0.075   4.069   1.895
 1234SOL    HW1 3712  -0.017   4.041   1.866
 1234SOL    HW2 3713   0.106   4.146   1.839
 1235SOL     OW 3714   1.440   4.580   3.260
 1235SOL    HW1 3715   1.383   4.632   3.197
 1235SOL    HW2 3716   1.536   4.592   3.236
 1236SOL     OW 3717   0.072   3.890   2.180
 1236SOL    HW1 3718   0.055   3.973   2.126
 1236SOL    HW2 3719   0.162   3.853   2.158
 1237SOL     OW 3720   0.613   4.566   3.293
 1237SOL    HW1 3721   0.669   4.647   3.276
 1237SOL    HW2 3722   0.672   4.486   3.296
 1238SOL     OW 3723   0.716   4.289   3.570
 1238SOL    HW1 3724   0.735   4.354   3.644
 1238SOL    HW2 3725   0.776   4.209   3.579
 1239SOL     OW 3726   1.674   4.607   3.116
 1239SOL    HW1 3727   1.647   4.518   3.079
 1239SOL    HW2 3728   1.675   4.675   3.043
 1240SOL     OW 3729   1.225   4.049   2.311
 1240SOL    HW1 3730   1.290   3.975   2.300
 1240SOL    HW2 3731   1.245   4.099   2.395
 1241SOL     OW 3732   0.594   4.469   2.514
 1241SOL    HW1 3733   0.644   4.554   2.495
 1241SOL    HW2 3734   0.506   4.471   2.466
 1242SOL     OW 3735   1.777   4.066   3.504
 1242SOL    HW1 3736   1.760   4.097   3.410
 1242SOL    HW2 3737   1.693   4.029   3.542
 1243SOL     OW 3738   1.824   3.916   3.089
 1243SOL    HW1 3739   1.820   3.826   3.133
 1243SOL    HW2 3740   1.827   3.905   2.990
 1244SOL     OW 3741   0.428   4.148   2.382
 1244SOL    HW1 3742   0.458   4.076   2.320
 1244SOL    HW2 3743   0.389   4.108   2.465
 1245SOL     OW 3744   0.317   4.271   3.142
 1245SOL    HW1 3745   0.355   4.212   3.214
 1245SOL    HW2 3746   0.357   4.245   3.054
 1246SOL     OW 3747   1.424   3.938   2.974
 1246SOL    HW1 3748   1.476   3.873   3.029
 1246SOL    HW2 3749   1.375   4.001   3.035
 1247SOL     OW 3750   1.001   3.758   3.016
 1247SOL    HW1 3751   0.938   3.686   2.985
 1247SOL    HW2 3752   1.094   3.722   3.016
 1248SOL     OW 3753   1.352   3.776   2.030
 1248SOL    HW1 3754   1.387   3.735   1.946
 1248SOL    HW2 3755   1.262   3.738   2.050
 1249SOL     OW 3756   1.300   4.177   2.553
 1249SOL    HW1 3757   1.241   4.257   2.557
 1249SOL    HW2 3758   1.315   4.142   2.646
 1250SOL     OW 3759   1.593   3.945   2.744
 1250SOL    HW1 3760   1.509   3.944   2.798
 1250SOL    HW2 3761   1.595   4.028   2.688
 1251SOL     OW 3762   0.230   4.352   3.837
 1251SOL    HW1 3763   0.137   4.350   3.874
 1251SOL    HW2 3764   0.231   4.313   3.745
 1252SOL     OW 3765   0.019   4.092   4.371
 1252SOL    HW1 3766  -0.063   4.135   4.410
 1252SOL    HW2 3767  -0.009   4.019   4.308
 1253SOL     OW 3768   1.135   4.427   4.441
 1253SOL    HW1 3769   1.192   4.505   4.416
 1253SOL    HW2 3770   1.075   4.453   4.517
 1254SOL     OW 3771   1.755   4.331   3.955
 1254SOL    HW1 3772   1.743   4.318   3.856
 1254SOL    HW2 3773   1.725   4.250   4.004
 1255SOL     OW 3774   0.685   4.736   4.389
 1255SOL    HW1 3775   0.754   4.720   4.459
 1255SOL    HW2 3776   0.612   4.793   4.427
 1256SOL     OW 3777   1.603   4.171   4.461
 1256SOL    HW1 3778   1.529   4.217   4.411
 1256SOL    HW2 3779   1.654   4.239   4.514
 1257SOL     OW 3780   0.122   4.367   4.287
 1257SOL    HW1 3781   0.077   4.279   4.304
 1257SOL    HW2 3782   0.121   4.421   4.371
 1258SOL     OW 3783   0.809   3.728   4.226
 1258SOL    HW1 3784   0.849   3.819   4.217
 1258SOL    HW2 3785   0.709   3.736   4.232
 1259SOL     OW 3786   0.598   4.453   3.994
 1259SOL    HW1 3787   0.622   4.522   3.926
 1259SOL    HW2 3788   0.520   4.486   4.048
 1260SOL     OW 3789   1.281   4.069   4.668
 1260SOL    HW1 3790   1.195   4.019   4.655
 1260SOL    HW2 3791   1.343   4.015   4.724
 1261SOL     OW 3792   1.041   4.425   4.153
 1261SOL    HW1 3793   1.067   4.421   4.249
 1261SOL    HW2 3794   0.956   4.374   4.139
 1262SOL     OW 3795   0.076   4.535   4.513
 1262SOL    HW1 3796   0.175   4.523   4.522
 1262SOL    HW2 3797   0.052   4.630   4.534
 1263SOL     OW 3798   0.865   4.072   3.919
 1263SOL    HW1 3799   0.924   4.135   3.870
 1263SOL    HW2 3800   0.884   3.978   3.890
 1264SOL     OW 3801   0.550   3.920   4.609
 1264SOL    HW1 3802   0.545   3.915   4.709
 1264SOL    HW2 3803   0.552   4.016   4.580
 1265SOL     OW 3804   1.458   4.459   4.452
 1265SOL    HW1 3805   1.453   4.394   4.527
 1265SOL    HW2 3806   1.538   4.518   4.465
 1266SOL     OW 3807   1.400   3.831   4.150
 1266SOL    HW1 3808   1.376   3.794   4.060
 1266SOL    HW2 3809   1.499   3.847   4.154
 1267SOL     OW 3810   0.382   4.424   4.204
 1267SOL    HW1 3811   0.427   4.334   4.201
 1267SOL    HW2 3812   0.288   4.413   4.237
 1268SOL     OW 3813   0.614   3.846   3.841
 1268SOL    HW1 3814   0.712   3.824   3.848
 1268SOL    HW2 3815   0.583   3.829   3.748
 1269SOL     OW 3816   0.539   3.788   4.236
 1269SOL    HW1 3817   0.458   3.789   4.294
 1269SOL    HW2 3818   0.542   3.871   4.181
 1270SOL     OW 3819   0.297   3.759   3.895
 1270SOL    HW1 3820   0.346   3.843   3.874
 1270SOL    HW2 3821   0.359   3.694   3.940
 1271SOL     OW 3822   0.935   3.960   4.204
 1271SOL    HW1 3823   0.887   4.001   4.126
 1271SOL    HW2 3824   1.034   3.958   4.185
 1272SOL     OW 3825   0.459   4.876   4.465
 1272SOL    HW1 3826   0.388   4.849   4.530
 1272SOL    HW2 3827   0.433   4.848   4.372
 1273SOL     OW 3828   1.032   4.273   3.740
 1273SOL    HW1 3829   0.991   4.355   3.701
 1273SOL    HW2 3830   1.096   4.299   3.813
 1274SOL     OW 3831   0.866   4.178   4.366
 1274SOL    HW1 3832   0.834   4.250   4.304
 1274SOL    HW2 3833   0.890   4.097   4.313
 1275SOL     OW 3834   1.017   3.763   4.477
 1275SOL    HW1 3835   0.945   3.768   4.408
 1275SOL    HW2 3836   0.993   3.694   4.546
 1276SOL     OW 3837   1.429   4.897   4.591
 1276SOL    HW1 3838   1.374   4.813   4.584
 1276SOL    HW2 3839   1.455   4.926   4.499
 1277SOL     OW 3840   1.857   4.557   4.101
 1277SOL    HW1 3841   1.899   4.493   4.165
 1277SOL    HW2 3842   1.819   4.506   4.023
 1278SOL     OW 3843   1.390   4.299   3.802
 1278SOL    HW1 3844   1.336   4.278   3.883
 1278SOL    HW2 3845   1.481   4.258   3.811
 1279SOL     OW 3846   0.527   3.980   4.052
 1279SOL    HW1 3847   0.554   3.921   3.977
 1279SOL    HW2 3848   0.527   4.075   4.021
 1280SOL     OW 3849   0.705   4.774   4.092
 1280SOL    HW1 3850   0.691   4.781   4.191
 1280SOL    HW2 3851   0.789   4.723   4.074
 1281SOL     OW 3852   0.566   4.261   4.589
 1281SOL    HW1 3853   0.578   4.327   4.515
 1281SOL    HW2 3854   0.612   4.295   4.672
 1282SOL     OW 3855   1.582   4.363   4.196
 1282SOL    HW1 3856   1.551   4.424   4.269
 1282SOL    HW2 3857   1.632   4.415   4.127
 1283SOL     OW 3858   1.209   4.249   3.999
 1283SOL    HW1 3859   1.222   4.165   4.053
 1283SOL    HW2 3860   1.180   4.323   4.059
 1284SOL     OW 3861   0.307   3.787   4.342
 1284SOL    HW1 3862   0.296   3.881   4.375
 1284SOL    HW2 3863   0.302   3.724   4.419
 1285SOL     OW 3864   1.622   4.091   4.098
 1285SOL    HW1 3865   1.624   4.015   4.162
 1285SOL    HW2 3866   1.574   4.168   4.138
 1286SOL     OW 3867   1.540   3.998   3.849
 1286SOL    HW1 3868   1.479   3.923   3.872
 1286SOL    HW2 3869   1.562   4.050   3.932
 1287SOL     OW 3870   0.815   4.296   4.049
 1287SOL    HW1 3871   0.822   4.207   4.003
 1287SOL    HW2 3872   0.721   4.330   4.041
 1288SOL     OW 3873   0.473   4.224   3.915
 1288SOL    HW1 3874   0.534   4.304   3.919
 1288SOL    HW2 3875   0.378   4.255   3.922
 1289SOL     OW 3876   1.726   3.859   4.247
 1289SOL    HW1 3877   1.799   3.842   4.180
 1289SOL    HW2 3878   1.695   3.772   4.285
 1290SOL     OW 3879   1.280   4.651   4.396
 1290SOL    HW1 3880   1.340   4.570   4.398
 1290SOL    HW2 3881   1.320   4.720   4.336
 1291SOL     OW 3882   1.841   3.899   4.687
 1291SOL    HW1 3883   1.880   3.814   4.651
 1291SOL    HW2 3884   1.743   3.901   4.668
 1292SOL     OW 3885   0.263   4.050   4.444
 1292SOL    HW1 3886   0.184   4.101   4.410
 1292SOL    HW2 3887   0.254   4.035   4.542
 1293SOL     OW 3888   0.916   4.634   4.015
 1293SOL    HW1 3889   0.979   4.672   3.947
 1293SOL    HW2 3890   0.956   4.551   4.054
 1294SOL     OW 3891   0.075   4.069   3.757
 1294SOL    HW1 3892  -0.017   4.041   3.728
 1294SOL    HW2 3893   0.106   4.146   3.701
 1295SOL     OW 3894   0.072   3.890   4.042
 1295SOL    HW1 3895   0.055   3.973   3.988
 1295SOL    HW2 3896   0.162   3.853   4.020
 1296SOL     OW 3897   1.225   4.049   4.173
 1296SOL    HW1 3898   1.290   3.975   4.162
 1296SOL    HW2 3899   1.245   4.099   4.257
 1297SOL     OW 3900   0.594   4.469   4.376
 1297SOL    HW1 3901   0.644   4.554   4.357
 1297SOL    HW2 3902   0.506   4.471   4.328
 1298SOL     OW 3903   0.428   4.148   4.244
 1298SOL    HW1 3904   0.458   4.076   4.182
 1298SOL    HW2 3905   0.389   4.108   4.327
 1299SOL     OW 3906   1.352   3.776   3.892
 1299SOL    HW1 3907   1.387   3.735   3.808
 1299SOL    HW2 3908   1.262   3.738   3.912
 1300SOL     OW 3909   1.300   4.177   4.415
 1300SOL    HW1 3910   1.241   4.257   4.419
 1300SOL    HW2 3911   1.315   4.142   4.508
 1301SOL     OW 3912   2.092   0.628   0.113
 1301SOL    HW1 3913   1.999   0.626   0.150
 1301SOL    HW2 3914   2.093   0.589   0.021
 1302SOL     OW 3915   2.087   0.275   0.996
 1302SOL    HW1 3916   2.122   0.258   1.088
 1302SOL    HW2 3917   1.999   0.230   0.984
 1303SOL     OW 3918   1.881   0.368   0.647
 1303SOL    HW1 3919   1.799   0.411   0.686
 1303SOL    HW2 3920   1.853   0.295   0.584
 1304SOL     OW 3921   2.431   1.275   1.165
 1304SOL    HW1 3922   2.338   1.268   1.128
 1304SOL    HW2 3923   2.442   1.364   1.209
 1305SOL     OW 3924   3.417   1.511   0.703
 1305SOL    HW1 3925   3.360   1.495   0.784
 1305SOL    HW2 3926   3.358   1.521   0.623
 1306SOL     OW 3927   2.997   0.703   0.717
 1306SOL    HW1 3928   3.054   0.781   0.692
 1306SOL    HW2 3929   2.937   0.729   0.793
 1307SOL     OW 3930   3.617   0.607   0.231
 1307SOL    HW1 3931   3.605   0.594   0.132
 1307SOL    HW2 3932   3.587   0.526   0.280
 1308SOL     OW 3933   2.630   1.144   1.023
 1308SOL    HW1 3934   2.552   1.161   1.083
 1308SOL    HW2 3935   2.664   1.231   0.987
 1309SOL     OW 3936   2.712   0.798   1.823
 1309SOL    HW1 3937   2.708   0.874   1.888
 1309SOL    HW2 3938   2.734   0.834   1.732
 1310SOL     OW 3939   2.547   1.012   0.665
 1310SOL    HW1 3940   2.616   0.996   0.735
 1310SOL    HW2 3941   2.474   1.069   0.703
 1311SOL     OW 3942   2.548   1.161   1.803
 1311SOL    HW1 3943   2.608   1.240   1.817
 1311SOL    HW2 3944   2.462   1.192   1.762
 1312SOL     OW 3945   2.197   1.435   1.061
 1312SOL    HW1 3946   2.119   1.404   1.008
 1312SOL    HW2 3947   2.255   1.493   1.004
 1313SOL     OW 3948   3.322   1.505   1.339
 1313SOL    HW1 3949   3.346   1.599   1.365
 1313SOL    HW2 3950   3.306   1.451   1.421
 1314SOL     OW 3951   2.300   0.392   1.499
 1314SOL    HW1 3952   2.382   0.336   1.508
 1314SOL    HW2 3953   2.219   0.334   1.503
 1315SOL     OW 3954   3.465   0.447   0.737
 1315SOL    HW1 3955   3.391   0.493   0.687
 1315SOL    HW2 3956   3.516   0.515   0.790
 1316SOL     OW 3957   2.093   1.713   0.483
 1316SOL    HW1 3958   2.127   1.790   0.537
 1316SOL    HW2 3959   2.137   1.713   0.393
 1317SOL     OW 3960   2.989   1.341   1.690
 1317SOL    HW1 3961   3.036   1.341   1.778
 1317SOL    HW2 3962   2.941   1.254   1.679
 1318SOL     OW 3963   2.092   1.434   0.538
 1318SOL    HW1 3964   2.066   1.530   0.538
 1318SOL    HW2 3965   2.021   1.380   0.583
 1319SOL     OW 3966   2.102   1.091   0.886
 1319SOL    HW1 3967   2.116   1.007   0.938
 1319SOL    HW2 3968   2.047   1.155   0.941
 1320SOL     OW 3969   2.482   1.786   1.439
 1320SOL    HW1 3970   2.390   1.769   1.474
 1320SOL    HW2 3971   2.510   1.878   1.465
 1321SOL     OW 3972   2.468   0.964   0.123
 1321SOL    HW1 3973   2.475   1.048   0.069
 1321SOL    HW2 3974   2.514   0.977   0.211
 1322SOL     OW 3975   3.456   0.114   1.480
 1322SOL    HW1 3976   3.438   0.181   1.408
 1322SOL    HW2 3977   3.453   0.160   1.569
 1323SOL     OW 3978   1.984   0.643   0.563
 1323SOL    HW1 3979   1.939   0.555   0.580
 1323SOL    HW2 3980   1.983   0.697   0.647
 1324SOL     OW 3981   3.704   1.767   0.359
 1324SOL    HW1 3982   3.758   1.738   0.439
 1324SOL    HW2 3983   3.734   1.857   0.330
 1325SOL     OW 3984   1.889   1.596   0.117
 1325SOL    HW1 3985   1.870   1.500   0.138
 1325SOL    HW2 3986   1.856   1.654   0.192
 1326SOL     OW 3987   3.551   0.922   0.612
 1326SOL    HW1 3988   3.646   0.893   0.620
 1326SOL    HW2 3989   3.543   0.987   0.537
 1327SOL     OW 3990   3.503   1.108   0.432
 1327SOL    HW1 3991   3.589   1.110   0.380
 1327SOL    HW2 3992   3.517   1.155   0.520
 1328SOL     OW 3993   1.975   0.737   1.597
 1328SOL    HW1 3994   2.063   0.724   1.642
 1328SOL    HW2 3995   1.962   0.834   1.575
 1329SOL     OW 3996   2.475   1.365   0.726
 1329SOL    HW1 3997   2.426   1.278   0.735
 1329SOL    HW2 3998   2.452   1.408   0.639
 1330SOL     OW 3999   3.155   1.228   1.423
 1330SOL    HW1 4000   3.192   1.155   1.365
 1330SOL    HW2 4001   3.207   1.233   1.508
 1331SOL     OW 4002   2.671   0.004   0.502
 1331SOL    HW1 4003   2.711   0.095   0.493
 1331SOL    HW2 4004   2.571   0.012   0.508
 1332SOL     OW 4005   2.059   0.976   1.264
 1332SOL    HW1 4006   2.148   0.931   1.250
 1332SOL    HW2 4007   1.986   0.911   1.245
 1333SOL     OW 4008   3.387   0.999   0.190
 1333SOL    HW1 4009   3.324   0.923   0.203
 1333SOL    HW2 4010   3.435   1.017   0.276
 1334SOL     OW 4011   3.049   1.792   1.616
 1334SOL    HW1 4012   3.073   1.852   1.540
 1334SOL    HW2 4013   3.056   1.697   1.586
 1335SOL     OW 4014   2.179   0.251   1.801
 1335SOL    HW1 4015   2.250   0.322   1.807
 1335SOL    HW2 4016   2.091   0.290   1.829
 1336SOL     OW 4017   3.328   1.417   0.953
 1336SOL    HW1 4018   3.269   1.423   1.033
 1336SOL    HW2 4019   3.313   1.329   0.907
 1337SOL     OW 4020   3.529   1.714   0.572
 1337SOL    HW1 4021   3.488   1.691   0.484
 1337SOL    HW2 4022   3.511   1.640   0.637
 1338SOL     OW 4023   2.460   0.729   0.270
 1338SOL    HW1 4024   2.484   0.798   0.202
 1338SOL    HW2 4025   2.382   0.762   0.324
 1339SOL     OW 4026   3.143   0.345   0.944
 1339SOL    HW1 4027   3.057   0.295   0.931
 1339SOL    HW2 4028   3.205   0.291   1.000
 1340SOL     OW 4029   3.438   1.662   0.307
 1340SOL    HW1 4030   3.527   1.708   0.310
 1340SOL    HW2 4031   3.417   1.638   0.212
 1341SOL     OW 4032   2.669   0.605   1.465
 1341SOL    HW1 4033   2.622   0.602   1.554
 1341SOL    HW2 4034   2.618   0.550   1.399
 1342SOL     OW 4035   3.256   0.469   1.674
 1342SOL    HW1 4036   3.236   0.512   1.762
 1342SOL    HW2 4037   3.334   0.407   1.683
 1343SOL     OW 4038   2.835   0.890   1.572
 1343SOL    HW1 4039   2.881   0.806   1.543
 1343SOL    HW2 4040   2.779   0.924   1.497
 1344SOL     OW 4041   2.853   0.410   1.242
 1344SOL    HW1 4042   2.776   0.444   1.296
 1344SOL    HW2 4043   2.819   0.359   1.163
 1345SOL     OW 4044   2.903   0.701   0.429
 1345SOL    HW1 4045   2.929   0.697   0.525
 1345SOL    HW2 4046   2.818   0.650   0.415
 1346SOL     OW 4047   1.938   0.811   0.789
 1346SOL    HW1 4048   2.037   0.799   0.798
 1346SOL    HW2 4049   1.914   0.906   0.810
 1347SOL     OW 4050   1.992   1.821   1.571
 1347SOL    HW1 4051   1.982   1.806   1.670
 1347SOL    HW2 4052   1.906   1.857   1.535
 1348SOL     OW 4053   2.727   0.348   0.195
 1348SOL    HW1 4054   2.786   0.411   0.146
 1348SOL    HW2 4055   2.746   0.254   0.166
 1349SOL     OW 4056   3.581   0.585   1.831
 1349SOL    HW1 4057   3.555   0.674   1.795
 1349SOL    HW2 4058   3.579   0.517   1.758
 1350SOL     OW 4059   3.224   1.144   0.545
 1350SOL    HW1 4060   3.307   1.115   0.497
 1350SOL    HW2 4061   3.175   1.211   0.489
 1351SOL     OW 4062   2.412   0.196   0.885
 1351SOL    HW1 4063   2.407   0.191   0.985
 1351SOL    HW2 4064   2.414   0.292   0.856
 1352SOL     OW 4065   2.870   1.456   0.477
 1352SOL    HW1 4066   2.824   1.528   0.425
 1352SOL    HW2 4067   2.866   1.476   0.575
 1353SOL     OW 4068   2.213   1.801   0.853
 1353SOL    HW1 4069   2.263   1.715   0.859
 1353SOL    HW2 4070   2.278   1.878   0.850
 1354SOL     OW 4071   3.657   1.066   0.873
 1354SOL    HW1 4072   3.595   1.051   0.797
 1354SOL    HW2 4073   3.605   1.077   0.958
 1355SOL     OW 4074   3.089   1.550   1.506
 1355SOL    HW1 4075   3.095   1.473   1.570
 1355SOL    HW2 4076   3.037   1.524   1.426
 1356SOL     OW 4077   2.183   0.943   0.242
 1356SOL    HW1 4078   2.265   0.982   0.200
 1356SOL    HW2 4079   2.156   0.861   0.193
 1357SOL     OW 4080   3.320   0.735   0.728
 1357SOL    HW1 4081   3.315   0.670   0.803
 1357SOL    HW2 4082   3.400   0.794   0.741
 1358SOL     OW 4083   2.323   1.266   1.727
 1358SOL    HW1 4084   2.273   1.267   1.641
 1358SOL    HW2 4085   2.260   1.248   1.803
 1359SOL     OW 4086   2.973   1.776   0.237
 1359SOL    HW1 4087   2.913   1.714   0.287
 1359SOL    HW2 4088   3.004   1.732   0.152
 1360SOL     OW 4089   2.064   0.285   1.498
 1360SOL    HW1 4090   1.984   0.345   1.485
 1360SOL    HW2 4091   2.054   0.236   1.584
 1361SOL     OW 4092   3.494   1.377   0.081
 1361SOL    HW1 4093   3.462   1.471   0.071
 1361SOL    HW2 4094   3.418   1.314   0.069
 1362SOL     OW 4095   2.326   1.743   0.323
 1362SOL    HW1 4096   2.359   1.782   0.409
 1362SOL    HW2 4097   2.402   1.736   0.258
 1363SOL     OW 4098   3.262   0.107   0.426
 1363SOL    HW1 4099   3.238   0.070   0.336
 1363SOL    HW2 4100   3.361   0.123   0.430
 1364SOL     OW 4101   2.111   1.785   1.241
 1364SOL    HW1 4102   2.168   1.720   1.291
 1364SOL    HW2 4103   2.095   1.752   1.148
 1365SOL     OW 4104   2.802   1.698   0.904
 1365SOL    HW1 4105   2.882   1.641   0.925
 1365SOL    HW2 4106   2.753   1.658   0.827
 1366SOL     OW 4107   2.244   0.700   0.480
 1366SOL    HW1 4108   2.289   0.610   0.477
 1366SOL    HW2 4109   2.150   0.689   0.513
 1367SOL     OW 4110   3.409   0.222   1.729
 1367SOL    HW1 4111   3.404   0.259   1.821
 1367SOL    HW2 4112   3.337   0.153   1.717
 1368SOL     OW 4113   2.476   0.122   0.117
 1368SOL    HW1 4114   2.574   0.100   0.124
 1368SOL    HW2 4115   2.445   0.105   0.024
 1369SOL     OW 4116   2.643   0.264   1.749
 1369SOL    HW1 4117   2.710   0.203   1.792
 1369SOL    HW2 4118   2.570   0.283   1.814
 1370SOL     OW 4119   2.750   1.514   1.195
 1370SOL    HW1 4120   2.727   1.489   1.101
 1370SOL    HW2 4121   2.811   1.445   1.234
 1371SOL     OW 4122   3.213   0.590   1.433
 1371SOL    HW1 4123   3.241   0.547   1.518
 1371SOL    HW2 4124   3.238   0.686   1.434
 1372SOL     OW 4125   2.665   1.402   0.924
 1372SOL    HW1 4126   2.755   1.416   0.882
 1372SOL    HW2 4127   2.594   1.404   0.853
 1373SOL     OW 4128   2.784   0.503   0.899
 1373SOL    HW1 4129   2.759   0.494   0.803
 1373SOL    HW2 4130   2.832   0.421   0.930
 1374SOL     OW 4131   2.401   0.064   0.512
 1374SOL    HW1 4132   2.320   0.065   0.570
 1374SOL    HW2 4133   2.404   0.147   0.457
 1375SOL     OW 4134   3.296   1.188   0.041
 1375SOL    HW1 4135   3.328   1.112   0.098
 1375SOL    HW2 4136   3.204   1.215   0.071
 1376SOL     OW 4137   2.159   0.035   0.171
 1376SOL    HW1 4138   2.208   0.119   0.150
 1376SOL    HW2 4139   2.221  -0.030   0.216
 1377SOL     OW 4140   2.797   0.236   0.480
 1377SOL    HW1 4141   2.749   0.277   0.402
 1377SOL    HW2 4142   2.896   0.234   0.461
 1378SOL     OW 4143   2.938   0.683   1.464
 1378SOL    HW1 4144   2.858   0.622   1.467
 1378SOL    HW2 4145   3.019   0.630   1.440
 1379SOL     OW 4146   3.089   1.570   0.793
 1379SOL    HW1 4147   3.110   1.644   0.728
 1379SOL    HW2 4148   3.157   1.570   0.866
 1380SOL     OW 4149   2.321   1.152   0.741
 1380SOL    HW1 4150   2.250   1.125   0.806
 1380SOL    HW2 4151   2.295   1.124   0.648
 1381SOL     OW 4152   3.133   1.797   0.591
 1381SOL    HW1 4153   3.177   1.861   0.527
 1381SOL    HW2 4154   3.083   1.849   0.661
 1382SOL     OW 4155   2.894   0.549   0.016
 1382SOL    HW1 4156   2.853   0.631  -0.023
 1382SOL    HW2 4157   2.958   0.575   0.089
 1383SOL     OW 4158   1.940   0.556   1.386
 1383SOL    HW1 4159   2.032   0.555   1.345
 1383SOL    HW2 4160   1.934   0.630   1.453
 1384SOL     OW 4161   2.423   0.222   1.147
 1384SOL    HW1 4162   2.461   0.138   1.184
 1384SOL    HW2 4163   2.335   0.241   1.191
 1385SOL     OW 4164   2.728   0.454   0.642
 1385SOL    HW1 4165   2.696   0.526   0.580
 1385SOL    HW2 4166   2.752   0.373   0.589
 1386SOL     OW 4167   2.879   0.039   0.753
 1386SOL    HW1 4168   2.807   0.044   0.684
 1386SOL    HW2 4169   2.855  -0.030   0.822
 1387SOL     OW 4170   3.291   1.173   0.867
 1387SOL    HW1 4171   3.236   1.089   0.860
 1387SOL    HW2 4172   3.317   1.202   0.775
 1388SOL     OW 4173   3.328   0.590   0.992
 1388SOL    HW1 4174   3.298   0.495   0.999
 1388SOL    HW2 4175   3.401   0.606   1.058
 1389SOL     OW 4176   3.719   0.833   0.377
 1389SOL    HW1 4177   3.761   0.769   0.441
 1389SOL    HW2 4178   3.681   0.782   0.299
 1390SOL     OW 4179   2.350   1.385   0.174
 1390SOL    HW1 4180   2.263   1.370   0.221
 1390SOL    HW2 4181   2.333   1.411   0.079
 1391SOL     OW 4182   3.526   1.280   0.657
 1391SOL    HW1 4183   3.625   1.288   0.671
 1391SOL    HW2 4184   3.481   1.364   0.688
 1392SOL     OW 4185   3.252   0.575   0.078
 1392SOL    HW1 4186   3.198   0.554   0.159
 1392SOL    HW2 4187   3.343   0.534   0.087
 1393SOL     OW 4188   2.389   0.256   0.328
 1393SOL    HW1 4189   2.416   0.197   0.253
 1393SOL    HW2 4190   2.389   0.351   0.297
 1394SOL     OW 4191   3.616   1.223   1.588
 1394SOL    HW1 4192   3.707   1.184   1.575
 1394SOL    HW2 4193   3.624   1.319   1.612
 1395SOL     OW 4194   2.926   1.347   1.340
 1395SOL    HW1 4195   2.846   1.324   1.395
 1395SOL    HW2 4196   3.009   1.321   1.389
 1396SOL     OW 4197   3.454   1.629   1.625
 1396SOL    HW1 4198   3.481   1.663   1.535
 1396SOL    HW2 4199   3.533   1.591   1.671
 1397SOL     OW 4200   2.973   1.195   1.100
 1397SOL    HW1 4201   2.933   1.239   1.181
 1397SOL    HW2 4202   2.932   1.232   1.017
 1398SOL     OW 4203   3.500   1.099   1.079
 1398SOL    HW1 4204   3.505   1.180   1.138
 1398SOL    HW2 4205   3.414   1.101   1.028
 1399SOL     OW 4206   2.777   0.089   1.402
 1399SOL    HW1 4207   2.802   0.069   1.307
 1399SOL    HW2 4208   2.849   0.145   1.444
 1400SOL     OW 4209   2.842   1.116   1.719
 1400SOL    HW1 4210   2.743   1.122   1.729
 1400SOL    HW2 4211   2.865   1.036   1.663
 1401SOL     OW 4212   2.567   1.050   0.368
 1401SOL    HW1 4213   2.553   1.057   0.467
 1401SOL    HW2 4214   2.651   0.999   0.350
 1402SOL     OW 4215   2.272   0.813   1.251
 1402SOL    HW1 4216   2.358   0.825   1.301
 1402SOL    HW2 4217   2.230   0.726   1.278
 1403SOL     OW 4218   3.136   0.386   1.262
 1403SOL    HW1 4219   3.157   0.460   1.326
 1403SOL    HW2 4220   3.047   0.403   1.219
 1404SOL     OW 4221   1.926   1.564   1.331
 1404SOL    HW1 4222   1.880   1.646   1.297
 1404SOL    HW2 4223   2.024   1.583   1.340
 1405SOL     OW 4224   2.229   1.100   0.501
 1405SOL    HW1 4225   2.222   1.183   0.445
 1405SOL    HW2 4226   2.233   1.020   0.441
 1406SOL     OW 4227   2.428   0.537   0.865
 1406SOL    HW1 4228   2.440   0.603   0.791
 1406SOL    HW2 4229   2.474   0.571   0.948
 1407SOL     OW 4230   3.114   1.348   0.388
 1407SOL    HW1 4231   3.164   1.425   0.428
 1407SOL    HW2 4232   3.019   1.350   0.420
 1408SOL     OW 4233   3.134   1.445   1.142
 1408SOL    HW1 4234   3.181   1.458   1.229
 1408SOL    HW2 4235   3.068   1.371   1.151
 1409SOL     OW 4236   3.444   0.639   0.472
 1409SOL    HW1 4237   3.413   0.700   0.545
 1409SOL    HW2 4238   3.494   0.691   0.403
 1410SOL     OW 4239   2.216   1.510   1.329
 1410SOL    HW1 4240   2.195   1.466   1.242
 1410SOL    HW2 4241   2.313   1.536   1.332
 1411SOL     OW 4242   2.264   0.751   1.598
 1411SOL    HW1 4243   2.332   0.806   1.551
 1411SOL    HW2 4244   2.304   0.663   1.625
 1412SOL     OW 4245   3.449   0.779   1.670
 1412SOL    HW1 4246   3.357   0.817   1.665
 1412SOL    HW2 4247   3.509   0.826   1.605
 1413SOL     OW 4248   2.875   0.105   1.770
 1413SOL    HW1 4249   2.881   0.190   1.718
 1413SOL    HW2 4250   2.907   0.029   1.713
 1414SOL     OW 4251   2.366   0.050   1.740
 1414SOL    HW1 4252   2.324  -0.007   1.670
 1414SOL    HW2 4253   2.300   0.119   1.772
 1415SOL     OW 4254   2.435   0.870   1.029
 1415SOL    HW1 4255   2.479   0.959   1.020
 1415SOL    HW2 4256   2.372   0.870   1.106
 1416SOL     OW 4257   3.222   0.862   1.045
 1416SOL    HW1 4258   3.147   0.862   0.979
 1416SOL    HW2 4259   3.259   0.770   1.054
 1417SOL     OW 4260   3.071   0.525   0.275
 1417SOL    HW1 4261   3.084   0.441   0.329
 1417SOL    HW2 4262   3.042   0.599   0.335
 1418SOL     OW 4263   2.169   0.213   1.231
 1418SOL    HW1 4264   2.146   0.250   1.321
 1418SOL    HW2 4265   2.139   0.118   1.225
 1419SOL     OW 4266   1.899   1.310   1.282
 1419SOL    HW1 4267   1.952   1.261   1.350
 1419SOL    HW2 4268   1.921   1.408   1.287
 1420SOL     OW 4269   2.594   0.634   1.064
 1420SOL    HW1 4270   2.653   0.608   0.988
 1420SOL    HW2 4271   2.566   0.730   1.053
 1421SOL     OW 4272   3.590   0.935   1.854
 1421SOL    HW1 4273   3.544   0.928   1.765
 1421SOL    HW2 4274   3.528   0.979   1.920
 1422SOL     OW 4275   2.169   0.063   0.618
 1422SOL    HW1 4276   2.158   0.157   0.651
 1422SOL    HW2 4277   2.164   0.000   0.695
 1423SOL     OW 4278   3.484   0.367   0.374
 1423SOL    HW1 4279   3.486   0.291   0.438
 1423SOL    HW2 4280   3.436   0.444   0.414
 1424SOL     OW 4281   2.885   0.766   0.966
 1424SOL    HW1 4282   2.900   0.787   1.062
 1424SOL    HW2 4283   2.855   0.671   0.957
 1425SOL     OW 4284   2.842   1.573   1.700
 1425SOL    HW1 4285   2.822   1.617   1.612
 1425SOL    HW2 4286   2.881   1.482   1.684
 1426SOL     OW 4287   3.721   1.518   1.605
 1426SOL    HW1 4288   3.735   1.545   1.510
 1426SOL    HW2 4289   3.804   1.540   1.658
 1427SOL     OW 4290   2.212   0.898   1.804
 1427SOL    HW1 4291   2.288   0.942   1.852
 1427SOL    HW2 4292   2.247   0.851   1.722
 1428SOL     OW 4293   3.402   0.274   0.125
 1428SOL    HW1 4294   3.341   0.199   0.148
 1428SOL    HW2 4295   3.424   0.326   0.208
 1429SOL     OW 4296   3.165   0.838   0.042
 1429SOL    HW1 4297   3.199   0.745   0.057
 1429SOL    HW2 4298   3.183   0.865  -0.053
 1430SOL     OW 4299   2.930   1.333   0.849
 1430SOL    HW1 4300   2.937   1.249   0.794
 1430SOL    HW2 4301   2.992   1.402   0.813
 1431SOL     OW 4302   2.181   0.810   0.949
 1431SOL    HW1 4303   2.274   0.846   0.954
 1431SOL    HW2 4304   2.175   0.725   1.001
 1432SOL     OW 4305   2.201   0.509   1.006
 1432SOL    HW1 4306   2.149   0.426   0.989
 1432SOL    HW2 4307   2.278   0.514   0.942
 1433SOL     OW 4308   3.000   0.380   1.678
 1433SOL    HW1 4309   2.955   0.443   1.742
 1433SOL    HW2 4310   3.093   0.411   1.661
 1434SOL     OW 4311   3.022   0.207   1.477
 1434SOL    HW1 4312   3.022   0.271   1.554
 1434SOL    HW2 4313   3.050   0.255   1.394
 1435SOL     OW 4314   1.870   1.326   0.200
 1435SOL    HW1 4315   1.777   1.347   0.169
 1435SOL    HW2 4316   1.880   1.227   0.213
 1436SOL     OW 4317   1.950   1.801   0.927
 1436SOL    HW1 4318   1.908   1.715   0.900
 1436SOL    HW2 4319   2.044   1.804   0.893
 1437SOL     OW 4320   2.366   1.568   0.910
 1437SOL    HW1 4321   2.432   1.642   0.919
 1437SOL    HW2 4322   2.410   1.489   0.868
 1438SOL     OW 4323   2.864   0.796   1.238
 1438SOL    HW1 4324   2.905   0.764   1.324
 1438SOL    HW2 4325   2.768   0.769   1.235
 1439SOL     OW 4326   1.902   0.544   1.114
 1439SOL    HW1 4327   1.987   0.511   1.073
 1439SOL    HW2 4328   1.915   0.559   1.212
 1440SOL     OW 4329   2.051   0.520   1.722
 1440SOL    HW1 4330   2.110   0.480   1.652
 1440SOL    HW2 4331   1.993   0.591   1.681
 1441SOL     OW 4332   3.231   0.950   1.660
 1441SOL    HW1 4333   3.270   1.039   1.680
 1441SOL    HW2 4334   3.241   0.930   1.563
 1442SOL     OW 4335   2.677   0.572   0.325
 1442SOL    HW1 4336   2.684   0.483   0.279
 1442SOL    HW2 4337   2.583   0.606   0.317
 1443SOL     OW 4338   3.519   0.604   1.206
 1443SOL    HW1 4339   3.481   0.535   1.268
 1443SOL    HW2 4340   3.601   0.568   1.162
 1444SOL     OW 4341   2.114   1.564   1.744
 1444SOL    HW1 4342   2.084   1.621   1.820
 1444SOL    HW2 4343   2.107   1.467   1.770
 1445SOL     OW 4344   2.533   0.464   1.269
 1445SOL    HW1 4345   2.499   0.375   1.239
 1445SOL    HW2 4346   2.559   0.518   1.189
 1446SOL     OW 4347   2.792   1.678   1.465
 1446SOL    HW1 4348   2.768   1.660   1.370
 1446SOL    HW2 4349   2.822   1.772   1.475
 1447SOL     OW 4350   2.335   0.500   0.191
 1447SOL    HW1 4351   2.396   0.580   0.195
 1447SOL    HW2 4352   2.240   0.531   0.198
 1448SOL     OW 4353   2.021   1.137   1.466
 1448SOL    HW1 4354   2.043   1.076   1.542
 1448SOL    HW2 4355   2.031   1.088   1.380
 1449SOL     OW 4356   3.209   1.059   1.234
 1449SOL    HW1 4357   3.233   0.996   1.160
 1449SOL    HW2 4358   3.119   1.099   1.216
 1450SOL     OW 4359   3.164   0.855   0.309
 1450SOL    HW1 4360   3.078   0.824   0.351
 1450SOL    HW2 4361   3.160   0.841   0.210
 1451SOL     OW 4362   3.621   1.747   1.154
 1451SOL    HW1 4363   3.682   1.777   1.081
 1451SOL    HW2 4364   3.583   1.658   1.132
 1452SOL     OW 4365   3.114   1.731   1.128
 1452SOL    HW1 4366   3.198   1.736   1.074
 1452SOL    HW2 4367   3.091   1.635   1.146
 1453SOL     OW 4368   1.945   1.258   1.022
 1453SOL    HW1 4369   1.940   1.257   1.122
 1453SOL    HW2 4370   1.862   1.217   0.984
 1454SOL     OW 4371   2.550   1.662   1.716
 1454SOL    HW1 4372   2.494   1.743   1.725
 1454SOL    HW2 4373   2.602   1.666   1.630
 1455SOL     OW 4374   2.765   0.086   0.133
 1455SOL    HW1 4375   2.816   0.087   0.047
 1455SOL    HW2 4376   2.821   0.044   0.204
 1456SOL     OW 4377   3.588   0.135   0.523
 1456SOL    HW1 4378   3.661   0.118   0.456
 1456SOL    HW2 4379   3.557   0.048   0.561
 1457SOL     OW 4380   3.250   1.573   0.477
 1457SOL    HW1 4381   3.317   1.585   0.403
 1457SOL    HW2 4382   3.210   1.662   0.500
 1458SOL     OW 4383   1.992   1.794   1.851
 1458SOL    HW1 4384   1.951   1.720   1.904
 1458SOL    HW2 4385   2.056   1.845   1.909
 1459SOL     OW 4386   3.142   0.927   0.672
 1459SOL    HW1 4387   3.202   0.846   0.674
 1459SOL    HW2 4388   3.182   0.996   0.612
 1460SOL     OW 4389   2.692   1.273   1.422
 1460SOL    HW1 4390   2.687   1.306   1.517
 1460SOL    HW2 4391   2.606   1.292   1.376
 1461SOL     OW 4392   2.534   1.616   0.154
 1461SOL    HW1 4393   2.543   1.626   0.055
 1461SOL    HW2 4394   2.494   1.527   0.175
 1462SOL     OW 4395   3.512   1.720   1.394
 1462SOL    HW1 4396   3.565   1.730   1.310
 1462SOL    HW2 4397   3.485   1.810   1.428
 1463SOL     OW 4398   3.703   0.175   0.963
 1463SOL    HW1 4399   3.742   0.090   0.927
 1463SOL    HW2 4400   3.605   0.177   0.944
 1464SOL     OW 4401   2.125   0.326   0.720
 1464SOL    HW1 4402   2.046   0.377   0.686
 1464SOL    HW2 4403   2.116   0.311   0.818
 1465SOL     OW 4404   3.056   1.612   0.031
 1465SOL    HW1 4405   3.062   1.519   0.068
 1465SOL    HW2 4406   2.997   1.612  -0.049
 1466SOL     OW 4407   2.684   1.002   1.372
 1466SOL    HW1 4408   2.724   1.001   1.280
 1466SOL    HW2 4409   2.694   1.094   1.412
 1467SOL     OW 4410   2.778   0.910   0.291
 1467SOL    HW1 4411   2.841   0.948   0.223
 1467SOL    HW2 4412   2.818   0.827   0.330
 1468SOL     OW 4413   3.366   1.607   0.044
 1468SOL    HW1 4414   3.274   1.644   0.051
 1468SOL    HW2 4415   3.404   1.627  -0.046
 1469SOL     OW 4416   2.234   1.288   1.490
 1469SOL    HW1 4417   2.221   1.381   1.456
 1469SOL    HW2 4418   2.150   1.236   1.477
 1470SOL     OW 4419   3.476   1.292   1.289
 1470SOL    HW1 4420   3.536   1.295   1.369
 1470SOL    HW2 4421   3.401   1.356   1.302
 1471SOL     OW 4422   2.901   1.098   0.696
 1471SOL    HW1 4423   2.831   1.051   0.750
 1471SOL    HW2 4424   2.960   1.030   0.653
 1472SOL     OW 4425   2.876   0.236   0.971
 1472SOL    HW1 4426   2.868   0.200   0.878
 1472SOL    HW2 4427   2.874   0.160   1.036
 1473SOL     OW 4428   2.452   1.487   0.491
 1473SOL    HW1 4429   2.494   1.429   0.421
 1473SOL    HW2 4430   2.408   1.566   0.447
 1474SOL     OW 4431   3.571   0.385   1.381
 1474SOL    HW1 4432   3.644   0.454   1.385
 1474SOL    HW2 4433   3.599   0.310   1.322
 1475SOL     OW 4434   2.117   1.348   0.290
 1475SOL    HW1 4435   2.021   1.349   0.263
 1475SOL    HW2 4436   2.129   1.401   0.374
 1476SOL     OW 4437   1.967   1.013   1.726
 1476SOL    HW1 4438   1.890   0.980   1.780
 1476SOL    HW2 4439   2.052   0.983   1.768
 1477SOL     OW 4440   2.534   0.203   1.489
 1477SOL    HW1 4441   2.624   0.187   1.449
 1477SOL    HW2 4442   2.542   0.208   1.588
 1478SOL     OW 4443   1.937   0.345   0.033
 1478SOL    HW1 4444   1.845   0.317   0.004
 1478SOL    HW2 4445   1.968   0.422  -0.023
 1479SOL     OW 4446   3.302   0.856   1.398
 1479SOL    HW1 4447   3.245   0.908   1.335
 1479SOL    HW2 4448   3.398   0.868   1.374
 1480SOL     OW 4449   1.934   0.166   0.318
 1480SOL    HW1 4450   1.917   0.249   0.264
 1480SOL    HW2 4451   2.024   0.129   0.296
 1481SOL     OW 4452   3.045   1.335   0.119
 1481SOL    HW1 4453   2.946   1.324   0.121
 1481SOL    HW2 4454   3.079   1.350   0.212
 1482SOL     OW 4455   2.475   0.842   1.431
 1482SOL    HW1 4456   2.531   0.923   1.414
 1482SOL    HW2 4457   2.534   0.762   1.434
 1483SOL     OW 4458   3.355   1.767   0.959
 1483SOL    HW1 4459   3.388   1.831   0.890
 1483SOL    HW2 4460   3.421   1.761   1.034
 1484SOL     OW 4461   2.578   0.565   1.708
 1484SOL    HW1 4462   2.597   0.630   1.782
 1484SOL    HW2 4463   2.638   0.485   1.717
 1485SOL     OW 4464   3.312   1.220   1.633
 1485SOL    HW1 4465   3.303   1.210   1.732
 1485SOL    HW2 4466   3.408   1.213   1.607
 1486SOL     OW 4467   2.252   1.741   1.560
 1486SOL    HW1 4468   2.161   1.782   1.558
 1486SOL    HW2 4469   2.245   1.647   1.592
 1487SOL     OW 4470   3.536   0.883   1.254
 1487SOL    HW1 4471   3.509   0.794   1.217
 1487SOL    HW2 4472   3.537   0.951   1.181
 1488SOL     OW 4473   3.087   0.325   0.449
 1488SOL    HW1 4474   3.152   0.251   0.438
 1488SOL    HW2 4475   3.107   0.375   0.533
 1489SOL     OW 4476   2.456   0.745   0.652
 1489SOL    HW1 4477   2.506   0.830   0.633
 1489SOL    HW2 4478   2.368   0.747   0.604
 1490SOL     OW 4479   3.639   0.342   1.642
 1490SOL    HW1 4480   3.622   0.373   1.548
 1490SOL    HW2 4481   3.555   0.305   1.680
 1491SOL     OW 4482   3.592   0.934   1.517
 1491SOL    HW1 4483   3.630   1.025   1.532
 1491SOL    HW2 4484   3.584   0.917   1.418
 1492SOL     OW 4485   2.721   1.374   0.016
 1492SOL    HW1 4486   2.675   1.389   0.104
 1492SOL    HW2 4487   2.765   1.459  -0.014
 1493SOL     OW 4488   2.523   1.790   0.953
 1493SOL    HW1 4489   2.477   1.878   0.940
 1493SOL    HW2 4490   2.622   1.802   0.946
 1494SOL     OW 4491   2.721   0.956   0.861
 1494SOL    HW1 4492   2.775   0.887   0.909
 1494SOL    HW2 4493   2.689   1.025   0.927
 1495SOL     OW 4494   2.945   0.984   0.087
 1495SOL    HW1 4495   2.922   1.037   0.005
 1495SOL    HW2 4496   3.026   0.928   0.068
 1496SOL     OW 4497   3.723   1.569   0.851
 1496SOL    HW1 4498   3.652   1.557   0.781
 1496SOL    HW2 4499   3.724   1.490   0.911
 1497SOL     OW 4500   2.083   1.314   1.844
 1497SOL    HW1 4501   2.018   1.241   1.823
 1497SOL    HW2 4502   2.087   1.328   1.942
 1498SOL     OW 4503   1.941   1.240   0.653
 1498SOL    HW1 4504   1.940   1.193   0.741
 1498SOL    HW2 4505   2.023   1.212   0.602
 1499SOL     OW 4506   2.534   1.391   1.624
 1499SOL    HW1 4507   2.456   1.341   1.662
 1499SOL    HW2 4508   2.531   1.486   1.655
 1500SOL     OW 4509   3.686   0.192   1.227
 1500SOL    HW1 4510   3.682   0.102   1.271
 1500SOL    HW2 4511   3.689   0.181   1.128
 1501SOL     OW 4512   2.290   0.424   0.520
 1501SOL    HW1 4513   2.320   0.352   0.458
 1501SOL    HW2 4514   2.251   0.384   0.603
 1502SOL     OW 4515   3.567   1.487   1.104
 1502SOL    HW1 4516   3.474   1.462   1.077
 1502SOL    HW2 4517   3.593   1.437   1.186
 1503SOL     OW 4518   2.179   0.547   1.280
 1503SOL    HW1 4519   2.217   0.488   1.352
 1503SOL    HW2 4520   2.219   0.521   1.192
 1504SOL     OW 4521   2.674   1.586   0.687
 1504SOL    HW1 4522   2.706   1.596   0.593
 1504SOL    HW2 4523   2.595   1.524   0.689
 1505SOL     OW 4524   3.286   0.214   1.112
 1505SOL    HW1 4525   3.338   0.149   1.167
 1505SOL    HW2 4526   3.237   0.277   1.173
 1506SOL     OW 4527   2.863   0.034   1.154
 1506SOL    HW1 4528   2.800  -0.038   1.123
 1506SOL    HW2 4529   2.956  -0.002   1.154
 1507SOL     OW 4530   2.632   1.330   0.301
 1507SOL    HW1 4531   2.586   1.243   0.318
 1507SOL    HW2 4532   2.723   1.327   0.342
 1508SOL     OW 4533   2.480   1.567   1.284
 1508SOL    HW1 4534   2.475   1.649   1.341
 1508SOL    HW2 4535   2.569   1.564   1.239
 1509SOL     OW 4536   3.214   0.052   0.168
 1509SOL    HW1 4537   3.249   0.011   0.084
 1509SOL    HW2 4538   3.124   0.014   0.188
 1510SOL     OW 4539   3.162   0.453   0.691
 1510SOL    HW1 4540   3.103   0.533   0.695
 1510SOL    HW2 4541   3.177   0.418   0.784
 1511SOL     OW 4542   3.455   0.221   0.882
 1511SOL    HW1 4543   3.371   0.220   0.936
 1511SOL    HW2 4544   3.457   0.304   0.826
 1512SOL     OW 4545   1.901   1.077   0.300
 1512SOL    HW1 4546   2.000   1.066   0.291
 1512SOL    HW2 4547   1.861   0.991   0.332
 1513SOL     OW 4548   2.737   1.646   0.337
 1513SOL    HW1 4549   2.660   1.611   0.283
 1513SOL    HW2 4550   2.705   1.717   0.399
 1514SOL     OW 4551   2.092   0.628   1.975
 1514SOL    HW1 4552   1.999   0.626   2.012
 1514SOL    HW2 4553   2.093   0.589   1.883
 1515SOL     OW 4554   2.087   0.275   2.858
 1515SOL    HW1 4555   2.122   0.258   2.950
 1515SOL    HW2 4556   1.999   0.230   2.846
 1516SOL     OW 4557   1.881   0.368   2.509
 1516SOL    HW1 4558   1.799   0.411   2.548
 1516SOL    HW2 4559   1.853   0.295   2.446
 1517SOL     OW 4560   2.431   1.275   3.027
 1517SOL    HW1 4561   2.338   1.268   2.990
 1517SOL    HW2 4562   2.442   1.364   3.071
 1518SOL     OW 4563   3.417   1.511   2.565
 1518SOL    HW1 4564   3.360   1.495   2.646
 1518SOL    HW2 4565   3.358   1.521   2.485
 1519SOL     OW 4566   2.997   0.703   2.579
 1519SOL    HW1 4567   3.054   0.781   2.554
 1519SOL    HW2 4568   2.937   0.729   2.655
 1520SOL     OW 4569   3.617   0.607   2.093
 1520SOL    HW1 4570   3.605   0.594   1.994
 1520SOL    HW2 4571   3.587   0.526   2.142
 1521SOL     OW 4572   2.630   1.144   2.885
 1521SOL    HW1 4573   2.552   1.161   2.945
 1521SOL    HW2 4574   2.664   1.231   2.849
 1522SOL     OW 4575   2.712   0.798   3.685
 1522SOL    HW1 4576   2.708   0.874   3.750
 1522SOL    HW2 4577   2.734   0.834   3.594
 1523SOL     OW 4578   2.547   1.012   2.527
 1523SOL    HW1 4579   2.616   0.996   2.597
 1523SOL    HW2 4580   2.474   1.069   2.565
 1524SOL     OW 4581   2.548   1.161   3.665
 1524SOL    HW1 4582   2.608   1.240   3.679
 1524SOL    HW2 4583   2.462   1.192   3.624
 1525SOL     OW 4584   2.197   1.435   2.923
 1525SOL    HW1 4585   2.119   1.404   2.870
 1525SOL    HW2 4586   2.255   1.493   2.866
 1526SOL     OW 4587   3.322   1.505   3.201
 1526SOL    HW1 4588   3.346   1.599   3.227
 1526SOL    HW2 4589   3.306   1.451   3.283
 1527SOL     OW 4590   2.300   0.392   3.361
 1527SOL    HW1 4591   2.382   0.336   3.370
 1527SOL    HW2 4592   2.219   0.334   3.365
 1528SOL     OW 4593   3.465   0.447   2.599
 1528SOL    HW1 4594   3.391   0.493   2.549
 1528SOL    HW2 4595   3.516   0.515   2.652
 1529SOL     OW 4596   2.093   1.713   2.345
 1529SOL    HW1 4597   2.127   1.790   2.399
 1529SOL    HW2 4598   2.137   1.713   2.255
 1530SOL     OW 4599   2.989   1.341   3.552
 1530SOL    HW1 4600   3.036   1.341   3.640
 1530SOL    HW2 4601   2.941   1.254   3.541
 1531SOL     OW 4602   2.092   1.434   2.400
 1531SOL    HW1 4603   2.066   1.530   2.400
 1531SOL    HW2 4604   2.021   1.380   2.445
 1532SOL     OW 4605   2.102   1.091   2.748
 1532SOL    HW1 4606   2.116   1.007   2.800
 1532SOL    HW2 4607   2.047   1.155   2.803
 1533SOL     OW 4608   2.482   1.786   3.301
 1533SOL    HW1 4609   2.390   1.769   3.336
 1533SOL    HW2 4610   2.510   1.878   3.327
 1534SOL     OW 4611   2.468   0.964   1.985
 1534SOL    HW1 4612   2.475   1.048   1.931
 1534SOL    HW2 4613   2.514   0.977   2.073
 1535SOL     OW 4614   3.456   0.114   3.342
 1535SOL    HW1 4615   3.438   0.181   3.270
 1535SOL    HW2 4616   3.453   0.160   3.431
 1536SOL     OW 4617   1.984   0.643   2.425
 1536SOL    HW1 4618   1.939   0.555   2.442
 1536SOL    HW2 4619   1.983   0.697   2.509
 1537SOL     OW 4620   3.704   1.767   2.221
 1537SOL    HW1 4621   3.758   1.738   2.301
 1537SOL    HW2 4622   3.734   1.857   2.192
 1538SOL     OW 4623   1.889   1.596   1.979
 1538SOL    HW1 4624   1.870   1.500   2.000
 1538SOL    HW2 4625   1.856   1.654   2.054
 1539SOL     OW 4626   3.551   0.922   2.474
 1539SOL    HW1 4627   3.646   0.893   2.482
 1539SOL    HW2 4628   3.543   0.987   2.399
 1540SOL     OW 4629   3.503   1.108   2.294
 1540SOL    HW1 4630   3.589   1.110   2.242
 1540SOL    HW2 4631   3.517   1.155   2.382
 1541SOL     OW 4632   1.975   0.737   3.459
 1541SOL    HW1 4633   2.063   0.724   3.504
 1541SOL    HW2 4634   1.962   0.834   3.437
 1542SOL     OW 4635   2.475   1.365   2.588
 1542SOL    HW1 4636   2.426   1.278   2.597
 1542SOL    HW2 4637   2.452   1.408   2.501
 1543SOL     OW 4638   3.155   1.228   3.285
 1543SOL    HW1 4639   3.192   1.155   3.227
 1543SOL    HW2 4640   3.207   1.233   3.370
 1544SOL     OW 4641   2.671   0.004   2.364
 1544SOL    HW1 4642   2.711   0.095   2.355
 1544SOL    HW2 4643   2.571   0.012   2.370
 1545SOL     OW 4644   2.059   0.976   3.126
 1545SOL    HW1 4645   2.148   0.931   3.112
 1545SOL    HW2 4646   1.986   0.911   3.107
 1546SOL     OW 4647   3.387   0.999   2.052
 1546SOL    HW1 4648   3.324   0.923   2.065
 1546SOL    HW2 4649   3.435   1.017   2.138
 1547SOL     OW 4650   3.049   1.792   3.478
 1547SOL    HW1 4651   3.073   1.852   3.402
 1547SOL    HW2 4652   3.056   1.697   3.448
 1548SOL     OW 4653   2.179   0.251   3.663
 1548SOL    HW1 4654   2.250   0.322   3.669
 1548SOL    HW2 4655   2.091   0.290   3.691
 1549SOL     OW 4656   3.328   1.417   2.815
 1549SOL    HW1 4657   3.269   1.423   2.895
 1549SOL    HW2 4658   3.313   1.329   2.769
 1550SOL     OW 4659   3.529   1.714   2.434
 1550SOL    HW1 4660   3.488   1.691   2.346
 1550SOL    HW2 4661   3.511   1.640   2.499
 1551SOL     OW 4662   2.460   0.729   2.132
 1551SOL    HW1 4663   2.484   0.798   2.064
 1551SOL    HW2 4664   2.382   0.762   2.186
 1552SOL     OW 4665   3.143   0.345   2.806
 1552SOL    HW1 4666   3.057   0.295   2.793
 1552SOL    HW2 4667   3.205   0.291   2.862
 1553SOL     OW 4668   3.438   1.662   2.169
 1553SOL    HW1 4669   3.527   1.708   2.172
 1553SOL    HW2 4670   3.417   1.638   2.074
 1554SOL     OW 4671   2.669   0.605   3.327
 1554SOL    HW1 4672   2.622   0.602   3.416
 1554SOL    HW2 4673   2.618   0.550   3.261
 1555SOL     OW 4674   3.256   0.469   3.536
 1555SOL    HW1 4675   3.236   0.512   3.624
 1555SOL    HW2 4676   3.334   0.407   3.545
 1556SOL     OW 4677   2.835   0.890   3.434
 1556SOL    HW1 4678   2.881   0.806   3.405
 1556SOL    HW2 4679   2.779   0.924   3.359
 1557SOL     OW 4680   2.853   0.410   3.104
 1557SOL    HW1 4681   2.776   0.444   3.158
 1557SOL    HW2 4682   2.819   0.359   3.025
 1558SOL     OW 4683   2.903   0.701   2.291
 1558SOL    HW1 4684   2.929   0.697   2.387
 1558SOL    HW2 4685   2.818   0.650   2.277
 1559SOL     OW 4686   1.938   0.811   2.651
 1559SOL    HW1 4687   2.037   0.799   2.660
 1559SOL    HW2 4688   1.914   0.906   2.672
 1560SOL     OW 4689   1.992   1.821   3.433
 1560SOL    HW1 4690   1.982   1.806   3.532
 1560SOL    HW2 4691   1.906   1.857   3.397
 1561SOL     OW 4692   2.727   0.348   2.057
 1561SOL    HW1 4693   2.786   0.411   2.008
 1561SOL    HW2 4694   2.746   0.254   2.028
 1562SOL     OW 4695   3.581   0.585   3.693
 1562SOL    HW1 4696   3.555   0.674   3.657
 1562SOL    HW2 4697   3.579   0.517   3.620
 1563SOL     OW 4698   3.224   1.144   2.407
 1563SOL    HW1 4699   3.307   1.115   2.359
 1563SOL    HW2 4700   3.175   1.211   2.351
 1564SOL     OW 4701   2.412   0.196   2.747
 1564SOL    HW1 4702   2.407   0.191   2.847
 1564SOL    HW2 4703   2.414   0.292   2.718
 1565SOL     OW 4704   2.870   1.456   2.339
 1565SOL    HW1 4705   2.824   1.528   2.287
 1565SOL    HW2 4706   2.866   1.476   2.437
 1566SOL     OW 4707   2.213   1.801   2.715
 1566SOL    HW1 4708   2.263   1.715   2.721
 1566SOL    HW2 4709   2.278   1.878   2.712
 1567SOL     OW 4710   3.657   1.066   2.735
 1567SOL    HW1 4711   3.595   1.051   2.659
 1567SOL    HW2 4712   3.605   1.077   2.820
 1568SOL     OW 4713   3.089   1.550   3.368
 1568SOL    HW1 4714   3.095   1.473   3.432
 1568SOL    HW2 4715   3.037   1.524   3.288
 1569SOL     OW 4716   2.183   0.943   2.104
 1569SOL    HW1 4717   2.265   0.982   2.062
 1569SOL    HW2 4718   2.156   0.861   2.055
 1570SOL     OW 4719   3.320   0.735   2.590
 1570SOL    HW1 4720   3.315   0.670   2.665
 1570SOL    HW2 4721   3.400   0.794   2.603
 1571SOL     OW 4722   2.323   1.266   3.589
 1571SOL    HW1 4723   2.273   1.267   3.503
 1571SOL    HW2 4724   2.260   1.248   3.665
 1572SOL     OW 4725   2.973   1.776   2.099
 1572SOL    HW1 4726   2.913   1.714   2.149
 1572SOL    HW2 4727   3.004   1.732   2.014
 1573SOL     OW 4728   2.064   0.285   3.360
 1573SOL    HW1 4729   1.984   0.345   3.347
 1573SOL    HW2 4730   2.054   0.236   3.446
 1574SOL     OW 4731   3.494   1.377   1.943
 1574SOL    HW1 4732   3.462   1.471   1.933
 1574SOL    HW2 4733   3.418   1.314   1.931
 1575SOL     OW 4734   2.326   1.743   2.185
 1575SOL    HW1 4735   2.359   1.782   2.271
 1575SOL    HW2 4736   2.402   1.736   2.120
 1576SOL     OW 4737   3.262   0.107   2.288
 1576SOL    HW1 4738   3.238   0.070   2.198
 1576SOL    HW2 4739   3.361   0.123   2.292
 1577SOL     OW 4740   2.111   1.785   3.103
 1577SOL    HW1 4741   2.168   1.720   3.153
 1577SOL    HW2 4742   2.095   1.752   3.010
 1578SOL     OW 4743   2.802   1.698   2.766
 1578SOL    HW1 4744   2.882   1.641   2.787
 1578SOL    HW2 4745   2.753   1.658   2.689
 1579SOL     OW 4746   2.244   0.700   2.342
 1579SOL    HW1 4747   2.289   0.610   2.339
 1579SOL    HW2 4748   2.150   0.689   2.375
 1580SOL     OW 4749   3.409   0.222   3.591
 1580SOL    HW1 4750   3.404   0.259   3.683
 1580SOL    HW2 4751   3.337   0.153   3.579
 1581SOL     OW 4752   2.476   0.122   1.979
 1581SOL    HW1 4753   2.574   0.100   1.986
 1581SOL    HW2 4754   2.445   0.105   1.886
 1582SOL     OW 4755   2.643   0.264   3.611
 1582SOL    HW1 4756   2.710   0.203   3.654
 1582SOL    HW2 4757   2.570   0.283   3.676
 1583SOL     OW 4758   2.750   1.514   3.057
 1583SOL    HW1 4759   2.727   1.489   2.963
 1583SOL    HW2 4760   2.811   1.445   3.096
 1584SOL     OW 4761   3.213   0.590   3.295
 1584SOL    HW1 4762   3.241   0.547   3.380
 1584SOL    HW2 4763   3.238   0.686   3.296
 1585SOL     OW 4764   2.665   1.402   2.786
 1585SOL    HW1 4765   2.755   1.416   2.744
 1585SOL    HW2 4766   2.594   1.404   2.715
 1586SOL     OW 4767   2.784   0.503   2.761
 1586SOL    HW1 4768   2.759   0.494   2.665
 1586SOL    HW2 4769   2.832   0.421   2.792
 1587SOL     OW 4770   2.401   0.064   2.374
 1587SOL    HW1 4771   2.320   0.065   2.432
 1587SOL    HW2 4772   2.404   0.147   2.319
 1588SOL     OW 4773   3.296   1.188   1.903
 1588SOL    HW1 4774   3.328   1.112   1.960
 1588SOL    HW2 4775   3.204   1.215   1.933
 1589SOL     OW 4776   2.159   0.035   2.033
 1589SOL    HW1 4777   2.208   0.119   2.012
 1589SOL    HW2 4778   2.221  -0.030   2.078
 1590SOL     OW 4779   2.797   0.236   2.342
 1590SOL    HW1 4780   2.749   0.277   2.264
 1590SOL    HW2 4781   2.896   0.234   2.323
 1591SOL     OW 4782   2.938   0.683   3.326
 1591SOL    HW1 4783   2.858   0.622   3.329
 1591SOL    HW2 4784   3.019   0.630   3.302
 1592SOL     OW 4785   3.089   1.570   2.655
 1592SOL    HW1 4786   3.110   1.644   2.590
 1592SOL    HW2 4787   3.157   1.570   2.728
 1593SOL     OW 4788   2.321   1.152   2.603
 1593SOL    HW1 4789   2.250   1.125   2.668
 1593SOL    HW2 4790   2.295   1.124   2.510
 1594SOL     OW 4791   3.133   1.797   2.453
 1594SOL    HW1 4792   3.177   1.861   2.389
 1594SOL    HW2 4793   3.083   1.849   2.523
 1595SOL     OW 4794   2.894   0.549   1.878
 1595SOL    HW1 4795   2.853   0.631   1.839
 1595SOL    HW2 4796   2.958   0.575   1.951
 1596SOL     OW 4797   1.940   0.556   3.248
 1596SOL    HW1 4798   2.032   0.555   3.207
 1596SOL    HW2 4799   1.934   0.630   3.315
 1597SOL     OW 4800   2.423   0.222   3.009
 1597SOL    HW1 4801   2.461   0.138   3.046
 1597SOL    HW2 4802   2.335   0.241   3.053
 1598SOL     OW 4803   2.728   0.454   2.504
 1598SOL    HW1 4804   2.696   0.526   2.442
 1598SOL    HW2 4805   2.752   0.373   2.451
 1599SOL     OW 4806   2.879   0.039   2.615
 1599SOL    HW1 4807   2.807   0.044   2.546
 1599SOL    HW2 4808   2.855  -0.030   2.684
 1600SOL     OW 4809   3.291   1.173   2.729
 1600SOL    HW1 4810   3.236   1.089   2.722
 1600SOL    HW2 4811   3.317   1.202   2.637
 1601SOL     OW 4812   3.328   0.590   2.854
 1601SOL    HW1 4813   3.298   0.495   2.861
 1601SOL    HW2 4814   3.401   0.606   2.920
 1602SOL     OW 4815   3.719   0.833   2.239
 1602SOL    HW1 4816   3.761   0.769   2.303
 1602SOL    HW2 4817   3.681   0.782   2.161
 1603SOL     OW 4818   2.350   1.385   2.036
 1603SOL    HW1 4819   2.263   1.370   2.083
 1603SOL    HW2 4820   2.333   1.411   1.941
 1604SOL     OW 4821   3.526   1.280   2.519
 1604SOL    HW1 4822   3.625   1.288   2.533
 1604SOL    HW2 4823   3.481   1.364   2.550
 1605SOL     OW 4824   3.252   0.575   1.940
 1605SOL    HW1 4825   3.198   0.554   2.021
 1605SOL    HW2 4826   3.343   0.534   1.949
 1606SOL     OW 4827   2.389   0.256   2.190
 1606SOL    HW1 4828   2.416   0.197   2.115
 1606SOL    HW2 4829   2.389   0.351   2.159
 1607SOL     OW 4830   3.616   1.223   3.450
 1607SOL    HW1 4831   3.707   1.184   3.437
 1607SOL    HW2 4832   3.624   1.319   3.474
 1608SOL     OW 4833   2.926   1.347   3.202
 1608SOL    HW1 4834   2.846   1.324   3.257
 1608SOL    HW2 4835   3.009   1.321   3.251
 1609SOL     OW 4836   3.454   1.629   3.487
 1609SOL    HW1 4837   3.481   1.663   3.397
 1609SOL    HW2 4838   3.533   1.591   3.533
 1610SOL     OW 4839   2.973   1.195   2.962
 1610SOL    HW1 4840   2.933   1.239   3.043
 1610SOL    HW2 4841   2.932   1.232   2.879
 1611SOL     OW 4842   3.500   1.099   2.941
 1611SOL    HW1 4843   3.505   1.180   3.000
 1611SOL    HW2 4844   3.414   1.101   2.890
 1612SOL     OW 4845   2.777   0.089   3.264
 1612SOL    HW1 4846   2.802   0.069   3.169
 1612SOL    HW2 4847   2.849   0.145   3.306
 1613SOL     OW 4848   2.842   1.116   3.581
 1613SOL    HW1 4849   2.743   1.122   3.591
 1613SOL    HW2 4850   2.865   1.036   3.525
 1614SOL     OW 4851   2.567   1.050   2.230
 1614SOL    HW1 4852   2.553   1.057   2.329
 1614SOL    HW2 4853   2.651   0.999   2.212
 1615SOL     OW 4854   2.272   0.813   3.113
 1615SOL    HW1 4855   2.358   0.825   3.163
 1615SOL    HW2 4856   2.230   0.726   3.140
 1616SOL     OW 4857   3.136   0.386   3.124
 1616SOL    HW1 4858   3.157   0.460   3.188
 1616SOL    HW2 4859   3.047   0.403   3.081
 1617SOL     OW 4860   1.926   1.564   3.193
 1617SOL    HW1 4861   1.880   1.646   3.159
 1617SOL    HW2 4862   2.024   1.583   3.202
 1618SOL     OW 4863   2.229   1.100   2.363
 1618SOL    HW1 4864   2.222   1.183   2.307
 1618SOL    HW2 4865   2.233   1.020   2.303
 1619SOL     OW 4866   2.428   0.537   2.727
 1619SOL    HW1 4867   2.440   0.603   2.653
 1619SOL    HW2 4868   2.474   0.571   2.810
 1620SOL     OW 4869   3.114   1.348   2.250
 1620SOL    HW1 4870   3.164   1.425   2.290
 1620SOL    HW2 4871   3.019   1.350   2.282
 1621SOL     OW 4872   3.134   1.445   3.004
 1621SOL    HW1 4873   3.181   1.458   3.091
 1621SOL    HW2 4874   3.068   1.371   3.013
 1622SOL     OW 4875   3.444   0.639   2.334
 1622SOL    HW1 4876   3.413   0.700   2.407
 1622SOL    HW2 4877   3.494   0.691   2.265
 1623SOL     OW 4878   2.216   1.510   3.191
 1623SOL    HW1 4879   2.195   1.466   3.104
 1623SOL    HW2 4880   2.313   1.536   3.194
 1624SOL     OW 4881   2.264   0.751   3.460
 1624SOL    HW1 4882   2.332   0.806   3.413
 1624SOL    HW2 4883   2.304   0.663   3.487
 1625SOL     OW 4884   3.449   0.779   3.532
 1625SOL    HW1 4885   3.357   0.817   3.527
 1625SOL    HW2 4886   3.509   0.826   3.467
 1626SOL     OW 4887   2.875   0.105   3.632
 1626SOL    HW1 4888   2.881   0.190   3.580
 1626SOL    HW2 4889   2.907   0.029   3.575
 1627SOL     OW 4890   2.366   0.050   3.602
 1627SOL    HW1 4891   2.324  -0.007   3.532
 1627SOL    HW2 4892   2.300   0.119   3.634
 1628SOL     OW 4893   2.435   0.870   2.891
 1628SOL    HW1 4894   2.479   0.959   2.882
 1628SOL    HW2 4895   2.372   0.870   2.968
 1629SOL     OW 4896   3.222   0.862   2.907
 1629SOL    HW1 4897   3.147   0.862   2.841
 1629SOL    HW2 4898   3.259   0.770   2.916
 1630SOL     OW 4899   3.071   0.525   2.137
 1630SOL    HW1 4900   3.084   0.441   2.191
 1630SOL    HW2 4901   3.042   0.599   2.197
 1631SOL     OW 4902   2.169   0.213   3.093
 1631SOL    HW1 4903   2.146   0.250   3.183
 1631SOL    HW2 4904   2.139   0.118   3.087
 1632SOL     OW 4905   1.899   1.310   3.144
 1632SOL    HW1 4906   1.952   1.261   3.212
 1632SOL    HW2 4907   1.921   1.408   3.149
 1633SOL     OW 4908   2.594   0.634   2.926
 1633SOL    HW1 4909   2.653   0.608   2.850
 1633SOL    HW2 4910   2.566   0.730   2.915
 1634SOL     OW 4911   3.590   0.935   3.716
 1634SOL    HW1 4912   3.544   0.928   3.627
 1634SOL    HW2 4913   3.528   0.979   3.782
 1635SOL     OW 4914   2.169   0.063   2.480
 1635SOL    HW1 4915   2.158   0.157   2.513
 1635SOL    HW2 4916   2.164   0.000   2.557
 1636SOL     OW 4917   3.484   0.367   2.236
 1636SOL    HW1 4918   3.486   0.291   2.300
 1636SOL    HW2 4919   3.436   0.444   2.276
 1637SOL     OW 4920   2.885   0.766   2.828
 1637SOL    HW1 4921   2.900   0.787   2.924
 1637SOL    HW2 4922   2.855   0.671   2.819
 1638SOL     OW 4923   2.842   1.573   3.562
 1638SOL    HW1 4924   2.822   1.617   3.474
 1638SOL    HW2 4925   2.881   1.482   3.546
 1639SOL     OW 4926   3.721   1.518   3.467
 1639SOL    HW1 4927   3.735   1.545   3.372
 1639SOL    HW2 4928   3.804   1.540   3.520
 1640SOL     OW 4929   2.212   0.898   3.666
 1640SOL    HW1 4930   2.288   0.942   3.714
 1640SOL    HW2 4931   2.247   0.851   3.584
 1641SOL     OW 4932   3.402   0.274   1.987
 1641SOL    HW1 4933   3.341   0.199   2.010
 1641SOL    HW2 4934   3.424   0.326   2.070
 1642SOL     OW 4935   3.165   0.838   1.904
 1642SOL    HW1 4936   3.199   0.745   1.919
 1642SOL    HW2 4937   3.183   0.865   1.809
 1643SOL     OW 4938   2.930   1.333   2.711
 1643SOL    HW1 4939   2.937   1.249   2.656
 1643SOL    HW2 4940   2.992   1.402   2.675
 1644SOL     OW 4941   2.181   0.810   2.811
 1644SOL    HW1 4942   2.274   0.846   2.816
 1644SOL    HW2 4943   2.175   0.725   2.863
 1645SOL     OW 4944   2.201   0.509   2.868
 1645SOL    HW1 4945   2.149   0.426   2.851
 1645SOL    HW2 4946   2.278   0.514   2.804
 1646SOL     OW 4947   3.000   0.380   3.540
 1646SOL    HW1 4948   2.955   0.443   3.604
 1646SOL    HW2 4949   3.093   0.411   3.523
 1647SOL     OW 4950   3.022   0.207   3.339
 1647SOL    HW1 4951   3.022   0.271   3.416
 1647SOL    HW2 4952   3.050   0.255   3.256
 1648SOL     OW 4953   1.870   1.326   2.062
 1648SOL    HW1 4954   1.777   1.347   2.031
 1648SOL    HW2 4955   1.880   1.227   2.075
 1649SOL     OW 4956   1.950   1.801   2.789
 1649SOL    HW1 4957   1.908   1.715   2.762
 1649SOL    HW2 4958   2.044   1.804   2.755
 1650SOL     OW 4959   2.366   1.568   2.772
 1650SOL    HW1 4960   2.432   1.642   2.781
 1650SOL    HW2 4961   2.410   1.489   2.730
 1651SOL     OW 4962   2.864   0.796   3.100
 1651SOL    HW1 4963   2.905   0.764   3.186
 1651SOL    HW2 4964   2.768   0.769   3.097
 1652SOL     OW 4965   1.902   0.544   2.976
 1652SOL    HW1 4966   1.987   0.511   2.935
 1652SOL    HW2 4967   1.915   0.559   3.074
 1653SOL     OW 4968   2.051   0.520   3.584
 1653SOL    HW1 4969   2.110   0.480   3.514
 1653SOL    HW2 4970   1.993   0.591   3.543
 1654SOL     OW 4971   3.231   0.950   3.522
 1654SOL    HW1 4972   3.270   1.039   3.542
 1654SOL    HW2 4973   3.241   0.930   3.425
 1655SOL     OW 4974   2.677   0.572   2.187
 1655SOL    HW1 4975   2.684   0.483   2.141
 1655SOL    HW2 4976   2.583   0.606   2.179
 1656SOL     OW 4977   3.519   0.604   3.068
 1656SOL    HW1 4978   3.481   0.535   3.130
 1656SOL    HW2 4979   3.601   0.568   3.024
 1657SOL     OW 4980   2.114   1.564   3.606
 1657SOL    HW1 4981   2.084   1.621   3.682
 1657SOL    HW2 4982   2.107   1.467   3.632
 1658SOL     OW 4983   2.533   0.464   3.131
 1658SOL    HW1 4984   2.499   0.375   3.101
 1658SOL    HW2 4985   2.559   0.518   3.051
 1659SOL     OW 4986   2.792   1.678   3.327
 1659SOL    HW1 4987   2.768   1.660   3.232
 1659SOL    HW2 4988   2.822   1.772   3.337
 1660SOL     OW 4989   2.335   0.500   2.053
 1660SOL    HW1 4990   2.396   0.580   2.057
 1660SOL    HW2 4991   2.240   0.531   2.060
 1661SOL     OW 4992   2.021   1.137   3.328
 1661SOL    HW1 4993   2.043   1.076   3.404
 1661SOL    HW2 4994   2.031   1.088   3.242
 1662SOL     OW 4995   3.209   1.059   3.096
 1662SOL    HW1 4996   3.233   0.996   3.022
 1662SOL    HW2 4997   3.119   1.099   3.078
 1663SOL     OW 4998   3.164   0.855   2.171
 1663SOL    HW1 4999   3.078   0.824   2.213
 1663SOL    HW2 5000   3.160   0.841   2.072
 1664SOL     OW 5001   3.621   1.747   3.016
 1664SOL    HW1 5002   3.682   1.777   2.943
 1664SOL    HW2 5003   3.583   1.658   2.994
 1665SOL     OW 5004   3.114   1.731   2.990
 1665SOL    HW1 5005   3.198   1.736   2.936
 1665SOL    HW2 5006   3.091   1.635   3.008
 1666SOL     OW 5007   1.945   1.258   2.884
 1666SOL    HW1 5008   1.940   1.257   2.984
 1666SOL    HW2 5009   1.862   1.217   2.846
 1667SOL     OW 5010   2.550   1.662   3.578
 1667SOL    HW1 5011   2.494   1.743   3.587
 1667SOL    HW2 5012   2.602   1.666   3.492
 1668SOL     OW 5013   3.588   0.135   2.385
 1668SOL    HW1 5014   3.661   0.118   2.318
 1668SOL    HW2 5015   3.557   0.048   2.423
 1669SOL     OW 5016   3.250   1.573   2.339
 1669SOL    HW1 5017   3.317   1.585   2.265
 1669SOL    HW2 5018   3.210   1.662   2.362
 1670SOL     OW 5019   1.992   1.794   3.713
 1670SOL    HW1 5020   1.951   1.720   3.766
 1670SOL    HW2 5021   2.056   1.845   3.771
 1671SOL     OW 5022   3.142   0.927   2.534
 1671SOL    HW1 5023   3.202   0.846   2.536
 1671SOL    HW2 5024   3.182   0.996   2.474
 1672SOL     OW 5025   2.692   1.273   3.284
 1672SOL    HW1 5026   2.687   1.306   3.379
 1672SOL    HW2 5027   2.606   1.292   3.238
 1673SOL     OW 5028   2.534   1.616   2.016
 1673SOL    HW1 5029   2.543   1.626   1.917
 1673SOL    HW2 5030   2.494   1.527   2.037
 1674SOL     OW 5031   3.512   1.720   3.256
 1674SOL    HW1 5032   3.565   1.730   3.172
 1674SOL    HW2 5033   3.485   1.810   3.290
 1675SOL     OW 5034   3.703   0.175   2.825
 1675SOL    HW1 5035   3.742   0.090   2.789
 1675SOL    HW2 5036   3.605   0.177   2.806
 1676SOL     OW 5037   2.125   0.326   2.582
 1676SOL    HW1 5038   2.046   0.377   2.548
 1676SOL    HW2 5039   2.116   0.311   2.680
 1677SOL     OW 5040   3.056   1.612   1.893
 1677SOL    HW1 5041   3.062   1.519   1.930
 1677SOL    HW2 5042   2.997   1.612   1.813
 1678SOL     OW 5043   2.684   1.002   3.234
 1678SOL    HW1 5044   2.724   1.001   3.142
 1678SOL    HW2 5045   2.694   1.094   3.274
 1679SOL     OW 5046   2.778   0.910   2.153
 1679SOL    HW1 5047   2.841   0.948   2.085
 1679SOL    HW2 5048   2.818   0.827   2.192
 1680SOL     OW 5049   3.366   1.607   1.906
 1680SOL    HW1 5050   3.274   1.644   1.913
 1680SOL    HW2 5051   3.404   1.627   1.816
 1681SOL     OW 5052   2.234   1.288   3.352
 1681SOL    HW1 5053   2.221   1.381   3.318
 1681SOL    HW2 5054   2.150   1.236   3.339
 1682SOL     OW 5055   3.476   1.292   3.151
 1682SOL    HW1 5056   3.536   1.295   3.231
 1682SOL    HW2 5057   3.401   1.356   3.164
 1683SOL     OW 5058   2.901   1.098   2.558
 1683SOL    HW1 5059   2.831   1.051   2.612
 1683SOL    HW2 5060   2.960   1.030   2.515
 1684SOL     OW 5061   2.876   0.236   2.833
 1684SOL    HW1 5062   2.868   0.200   2.740
 1684SOL    HW2 5063   2.874   0.160   2.898
 1685SOL     OW 5064   2.452   1.487   2.353
 1685SOL    HW1 5065   2.494   1.429   2.283
 1685SOL    HW2 5066   2.408   1.566   2.309
 1686SOL     OW 5067   3.571   0.385   3.243
 1686SOL    HW1 5068   3.644   0.454   3.247
 1686SOL    HW2 5069   3.599   0.310   3.184
 1687SOL     OW 5070   2.117   1.348   2.152
 1687SOL    HW1 5071   2.021   1.349   2.125
 1687SOL    HW2 5072   2.129   1.401   2.236
 1688SOL     OW 5073   1.967   1.013   3.588
 1688SOL    HW1 5074   1.890   0.980   3.642
 1688SOL    HW2 5075   2.052   0.983   3.630
 1689SOL     OW 5076   2.534   0.203   3.351
 1689SOL    HW1 5077   2.624   0.187   3.311
 1689SOL    HW2 5078   2.542   0.208   3.450
 1690SOL     OW 5079   1.937   0.345   1.895
 1690SOL    HW1 5080   1.845   0.317   1.866
 1690SOL    HW2 5081   1.968   0.422   1.839
 1691SOL     OW 5082   3.302   0.856   3.260
 1691SOL    HW1 5083   3.245   0.908   3.197
 1691SOL    HW2 5084   3.398   0.868   3.236
 1692SOL     OW 5085   1.934   0.166   2.180
 1692SOL    HW1 5086   1.917   0.249   2.126
 1692SOL    HW2 5087   2.024   0.129   2.158
 1693SOL     OW 5088   3.045   1.335   1.981
 1693SOL    HW1 5089   2.946   1.324   1.983
 1693SOL    HW2 5090   3.079   1.350   2.074
 1694SOL     OW 5091   2.475   0.842   3.293
 1694SOL    HW1 5092   2.531   0.923   3.276
 1694SOL    HW2 5093   2.534   0.762   3.296
 1695SOL     OW 5094   3.355   1.767   2.821
 1695SOL    HW1 5095   3.388   1.831   2.752
 1695SOL    HW2 5096   3.421   1.761   2.896
 1696SOL     OW 5097   2.578   0.565   3.570
 1696SOL    HW1 5098   2.597   0.630   3.644
 1696SOL    HW2 5099   2.638   0.485   3.579
 1697SOL     OW 5100   3.312   1.220   3.495
 1697SOL    HW1 5101   3.303   1.210   3.594
 1697SOL    HW2 5102   3.408   1.213   3.469
 1698SOL     OW 5103   2.252   1.741   3.422
 1698SOL    HW1 5104   2.161   1.782   3.420
 1698SOL    HW2 5105   2.245   1.647   3.454
 1699SOL     OW 5106   3.536   0.883   3.116
 1699SOL    HW1 5107   3.509   0.794   3.079
 1699SOL    HW2 5108   3.537   0.951   3.043
 1700SOL     OW 5109   3.087   0.325   2.311
 1700SOL    HW1 5110   3.152   0.251   2.300
 1700SOL    HW2 5111   3.107   0.375   2.395
 1701SOL     OW 5112   2.456   0.745   2.514
 1701SOL    HW1 5113   2.506   0.830   2.495
 1701SOL    HW2 5114   2.368   0.747   2.466
 1702SOL     OW 5115   3.639   0.342   3.504
 1702SOL    HW1 5116   3.622   0.373   3.410
 1702SOL    HW2 5117   3.555   0.305   3.542
 1703SOL     OW 5118   3.592   0.934   3.379
 1703SOL    HW1 5119   3.630   1.025   3.394
 1703SOL    HW2 5120   3.584   0.917   3.280
 1704SOL     OW 5121   2.721   1.374   1.878
 1704SOL    HW1 5122   2.675   1.389   1.966
 1704SOL    HW2 5123   2.765   1.459   1.848
 1705SOL     OW 5124   2.523   1.790   2.815
 1705SOL    HW1 5125   2.477   1.878   2.802
 1705SOL    HW2 5126   2.622   1.802   2.808
 1706SOL     OW 5127   2.721   0.956   2.723
 1706SOL    HW1 5128   2.775   0.887   2.771
 1706SOL    HW2 5129   2.689   1.025   2.789
 1707SOL     OW 5130   2.945   0.984   1.949
 1707SOL    HW1 5131   2.922   1.037   1.867
 1707SOL    HW2 5132   3.026   0.928   1.930
 1708SOL     OW 5133   3.723   1.569   2.713
 1708SOL    HW1 5134   3.652   1.557   2.643
 1708SOL    HW2 5135   3.724   1.490   2.773
 1709SOL     OW 5136   2.083   1.314   3.706
 1709SOL    HW1 5137   2.018   1.241   3.685
 1709SOL    HW2 5138   2.087   1.328   3.804
 1710SOL     OW 5139   1.941   1.240   2.515
 1710SOL    HW1 5140   1.940   1.193   2.603
 1710SOL    HW2 5141   2.023   1.212   2.464
 1711SOL     OW 5142   2.534   1.391   3.486
 1711SOL    HW1 5143   2.456   1.341   3.524
 1711SOL    HW2 5144   2.531   1.486   3.517
 1712SOL     OW 5145   3.686   0.192   3.089
 1712SOL    HW1 5146   3.682   0.102   3.133
 1712SOL    HW2 5147   3.689   0.181   2.990
 1713SOL     OW 5148   2.290   0.424   2.382
 1713SOL    HW1 5149   2.320   0.352   2.320
 1713SOL    HW2 5150   2.251   0.384   2.465
 1714SOL     OW 5151   3.567   1.487   2.966
 1714SOL    HW1 5152   3.474   1.462   2.939
 1714SOL    HW2 5153   3.593   1.437   3.048
 1715SOL     OW 5154   2.179   0.547   3.142
 1715SOL    HW1 5155   2.217   0.488   3.214
 1715SOL    HW2 5156   2.219   0.521   3.054
 1716SOL     OW 5157   2.674   1.586   2.549
 1716SOL    HW1 5158   2.706   1.596   2.455
 1716SOL    HW2 5159   2.595   1.524   2.551
 1717SOL     OW 5160   3.286   0.214   2.974
 1717SOL    HW1 5161   3.338   0.149   3.029
 1717SOL    HW2 5162   3.237   0.277   3.035
 1718SOL     OW 5163   2.863   0.034   3.016
 1718SOL    HW1 5164   2.800  -0.038   2.985
 1718SOL    HW2 5165   2.956  -0.002   3.016
 1719SOL     OW 5166   2.632   1.330   2.163
 1719SOL    HW1 5167   2.586   1.243   2.180
 1719SOL    HW2 5168   2.723   1.327   2.204
 1720SOL     OW 5169   2.480   1.567   3.146
 1720SOL    HW1 5170   2.475   1.649   3.203
 1720SOL    HW2 5171   2.569   1.564   3.101
 1721SOL     OW 5172   3.214   0.052   2.030
 1721SOL    HW1 5173   3.249   0.011   1.946
 1721SOL    HW2 5174   3.124   0.014   2.050
 1722SOL     OW 5175   3.162   0.453   2.553
 1722SOL    HW1 5176   3.103   0.533   2.557
 1722SOL    HW2 5177   3.177   0.418   2.646
 1723SOL     OW 5178   3.455   0.221   2.744
 1723SOL    HW1 5179   3.371   0.220   2.798
 1723SOL    HW2 5180   3.457   0.304   2.688
 1724SOL     OW 5181   1.901   1.077   2.162
 1724SOL    HW1 5182   2.000   1.066   2.153
 1724SOL    HW2 5183   1.861   0.991   2.194
 1725SOL     OW 5184   2.737   1.646   2.199
 1725SOL    HW1 5185   2.660   1.611   2.145
 1725SOL    HW2 5186   2.705   1.717   2.261
 1726SOL     OW 5187   2.092   0.628   3.837
 1726SOL    HW1 5188   1.999   0.626   3.874
 1726SOL    HW2 5189   2.093   0.589   3.745
 1727SOL     OW 5190   1.881   0.368   4.371
 1727SOL    HW1 5191   1.799   0.411   4.410
 1727SOL    HW2 5192   1.853   0.295   4.308
 1728SOL     OW 5193   3.417   1.511   4.427
 1728SOL    HW1 5194   3.360   1.495   4.508
 1728SOL    HW2 5195   3.358   1.521   4.347
 1729SOL     OW 5196   2.997   0.703   4.441
 1729SOL    HW1 5197   3.054   0.781   4.416
 1729SOL    HW2 5198   2.937   0.729   4.517
 1730SOL     OW 5199   3.617   0.607   3.955
 1730SOL    HW1 5200   3.605   0.594   3.856
 1730SOL    HW2 5201   3.587   0.526   4.004
 1731SOL     OW 5202   2.630   1.144   4.747
 1731SOL    HW1 5203   2.552   1.161   4.807
 1731SOL    HW2 5204   2.664   1.231   4.711
 1732SOL     OW 5205   2.547   1.012   4.389
 1732SOL    HW1 5206   2.616   0.996   4.459
 1732SOL    HW2 5207   2.474   1.069   4.427
 1733SOL     OW 5208   3.465   0.447   4.461
 1733SOL    HW1 5209   3.391   0.493   4.411
 1733SOL    HW2 5210   3.516   0.515   4.514
 1734SOL     OW 5211   2.093   1.713   4.207
 1734SOL    HW1 5212   2.127   1.790   4.261
 1734SOL    HW2 5213   2.137   1.713   4.117
 1735SOL     OW 5214   2.092   1.434   4.262
 1735SOL    HW1 5215   2.066   1.530   4.262
 1735SOL    HW2 5216   2.021   1.380   4.307
 1736SOL     OW 5217   2.102   1.091   4.610
 1736SOL    HW1 5218   2.116   1.007   4.662
 1736SOL    HW2 5219   2.047   1.155   4.665
 1737SOL     OW 5220   2.468   0.964   3.847
 1737SOL    HW1 5221   2.475   1.048   3.793
 1737SOL    HW2 5222   2.514   0.977   3.935
 1738SOL     OW 5223   1.984   0.643   4.287
 1738SOL    HW1 5224   1.939   0.555   4.304
 1738SOL    HW2 5225   1.983   0.697   4.371
 1739SOL     OW 5226   3.704   1.767   4.083
 1739SOL    HW1 5227   3.758   1.738   4.163
 1739SOL    HW2 5228   3.734   1.857   4.054
 1740SOL     OW 5229   1.889   1.596   3.841
 1740SOL    HW1 5230   1.870   1.500   3.862
 1740SOL    HW2 5231   1.856   1.654   3.916
 1741SOL     OW 5232   3.551   0.922   4.336
 1741SOL    HW1 5233   3.646   0.893   4.344
 1741SOL    HW2 5234   3.543   0.987   4.261
 1742SOL     OW 5235   3.503   1.108   4.156
 1742SOL    HW1 5236   3.589   1.110   4.104
 1742SOL    HW2 5237   3.517   1.155   4.244
 1743SOL     OW 5238   2.475   1.365   4.450
 1743SOL    HW1 5239   2.426   1.278   4.459
 1743SOL    HW2 5240   2.452   1.408   4.363
 1744SOL     OW 5241   2.671   0.004   4.226
 1744SOL    HW1 5242   2.711   0.095   4.217
 1744SOL    HW2 5243   2.571   0.012   4.232
 1745SOL     OW 5244   3.387   0.999   3.914
 1745SOL    HW1 5245   3.324   0.923   3.927
 1745SOL    HW2 5246   3.435   1.017   4.000
 1746SOL     OW 5247   3.529   1.714   4.296
 1746SOL    HW1 5248   3.488   1.691   4.208
 1746SOL    HW2 5249   3.511   1.640   4.361
 1747SOL     OW 5250   2.460   0.729   3.994
 1747SOL    HW1 5251   2.484   0.798   3.926
 1747SOL    HW2 5252   2.382   0.762   4.048
 1748SOL     OW 5253   3.143   0.345   4.668
 1748SOL    HW1 5254   3.057   0.295   4.655
 1748SOL    HW2 5255   3.205   0.291   4.724
 1749SOL     OW 5256   3.438   1.662   4.031
 1749SOL    HW1 5257   3.527   1.708   4.034
 1749SOL    HW2 5258   3.417   1.638   3.936
 1750SOL     OW 5259   2.903   0.701   4.153
 1750SOL    HW1 5260   2.929   0.697   4.249
 1750SOL    HW2 5261   2.818   0.650   4.139
 1751SOL     OW 5262   1.938   0.811   4.513
 1751SOL    HW1 5263   2.037   0.799   4.522
 1751SOL    HW2 5264   1.914   0.906   4.534
 1752SOL     OW 5265   2.727   0.348   3.919
 1752SOL    HW1 5266   2.786   0.411   3.870
 1752SOL    HW2 5267   2.746   0.254   3.890
 1753SOL     OW 5268   3.224   1.144   4.269
 1753SOL    HW1 5269   3.307   1.115   4.221
 1753SOL    HW2 5270   3.175   1.211   4.213
 1754SOL     OW 5271   2.870   1.456   4.201
 1754SOL    HW1 5272   2.824   1.528   4.149
 1754SOL    HW2 5273   2.866   1.476   4.299
 1755SOL     OW 5274   2.213   1.801   4.577
 1755SOL    HW1 5275   2.263   1.715   4.583
 1755SOL    HW2 5276   2.278   1.878   4.574
 1756SOL     OW 5277   3.657   1.066   4.597
 1756SOL    HW1 5278   3.595   1.051   4.521
 1756SOL    HW2 5279   3.605   1.077   4.682
 1757SOL     OW 5280   2.183   0.943   3.966
 1757SOL    HW1 5281   2.265   0.982   3.924
 1757SOL    HW2 5282   2.156   0.861   3.917
 1758SOL     OW 5283   3.320   0.735   4.452
 1758SOL    HW1 5284   3.315   0.670   4.527
 1758SOL    HW2 5285   3.400   0.794   4.465
 1759SOL     OW 5286   2.973   1.776   3.961
 1759SOL    HW1 5287   2.913   1.714   4.011
 1759SOL    HW2 5288   3.004   1.732   3.876
 1760SOL     OW 5289   3.494   1.377   3.805
 1760SOL    HW1 5290   3.462   1.471   3.795
 1760SOL    HW2 5291   3.418   1.314   3.793
 1761SOL     OW 5292   2.326   1.743   4.047
 1761SOL    HW1 5293   2.359   1.782   4.133
 1761SOL    HW2 5294   2.402   1.736   3.982
 1762SOL     OW 5295   3.262   0.107   4.150
 1762SOL    HW1 5296   3.238   0.070   4.060
 1762SOL    HW2 5297   3.361   0.123   4.154
 1763SOL     OW 5298   2.802   1.698   4.628
 1763SOL    HW1 5299   2.882   1.641   4.649
 1763SOL    HW2 5300   2.753   1.658   4.551
 1764SOL     OW 5301   2.244   0.700   4.204
 1764SOL    HW1 5302   2.289   0.610   4.201
 1764SOL    HW2 5303   2.150   0.689   4.237
 1765SOL     OW 5304   2.476   0.122   3.841
 1765SOL    HW1 5305   2.574   0.100   3.848
 1765SOL    HW2 5306   2.445   0.105   3.748
 1766SOL     OW 5307   2.401   0.064   4.236
 1766SOL    HW1 5308   2.320   0.065   4.294
 1766SOL    HW2 5309   2.404   0.147   4.181
 1767SOL     OW 5310   3.296   1.188   3.765
 1767SOL    HW1 5311   3.328   1.112   3.822
 1767SOL    HW2 5312   3.204   1.215   3.795
 1768SOL     OW 5313   2.159   0.035   3.895
 1768SOL    HW1 5314   2.208   0.119   3.874
 1768SOL    HW2 5315   2.221  -0.030   3.940
 1769SOL     OW 5316   2.797   0.236   4.204
 1769SOL    HW1 5317   2.749   0.277   4.126
 1769SOL    HW2 5318   2.896   0.234   4.185
 1770SOL     OW 5319   2.321   1.152   4.465
 1770SOL    HW1 5320   2.250   1.125   4.530
 1770SOL    HW2 5321   2.295   1.124   4.372
 1771SOL     OW 5322   3.133   1.797   4.315
 1771SOL    HW1 5323   3.177   1.861   4.251
 1771SOL    HW2 5324   3.083   1.849   4.385
 1772SOL     OW 5325   2.894   0.549   3.740
 1772SOL    HW1 5326   2.853   0.631   3.701
 1772SOL    HW2 5327   2.958   0.575   3.813
 1773SOL     OW 5328   2.728   0.454   4.366
 1773SOL    HW1 5329   2.696   0.526   4.304
 1773SOL    HW2 5330   2.752   0.373   4.313
 1774SOL     OW 5331   2.879   0.039   4.477
 1774SOL    HW1 5332   2.807   0.044   4.408
 1774SOL    HW2 5333   2.855  -0.030   4.546
 1775SOL     OW 5334   3.719   0.833   4.101
 1775SOL    HW1 5335   3.761   0.769   4.165
 1775SOL    HW2 5336   3.681   0.782   4.023
 1776SOL     OW 5337   2.350   1.385   3.898
 1776SOL    HW1 5338   2.263   1.370   3.945
 1776SOL    HW2 5339   2.333   1.411   3.803
 1777SOL     OW 5340   3.526   1.280   4.381
 1777SOL    HW1 5341   3.625   1.288   4.395
 1777SOL    HW2 5342   3.481   1.364   4.412
 1778SOL     OW 5343   3.252   0.575   3.802
 1778SOL    HW1 5344   3.198   0.554   3.883
 1778SOL    HW2 5345   3.343   0.534   3.811
 1779SOL     OW 5346   2.389   0.256   4.052
 1779SOL    HW1 5347   2.416   0.197   3.977
 1779SOL    HW2 5348   2.389   0.351   4.021
 1780SOL     OW 5349   2.567   1.050   4.092
 1780SOL    HW1 5350   2.553   1.057   4.191
 1780SOL    HW2 5351   2.651   0.999   4.074
 1781SOL     OW 5352   2.229   1.100   4.225
 1781SOL    HW1 5353   2.222   1.183   4.169
 1781SOL    HW2 5354   2.233   1.020   4.165
 1782SOL     OW 5355   2.428   0.537   4.589
 1782SOL    HW1 5356   2.440   0.603   4.515
 1782SOL    HW2 5357   2.474   0.571   4.672
 1783SOL     OW 5358   3.114   1.348   4.112
 1783SOL    HW1 5359   3.164   1.425   4.152
 1783SOL    HW2 5360   3.019   1.350   4.144
 1784SOL     OW 5361   3.444   0.639   4.196
 1784SOL    HW1 5362   3.413   0.700   4.269
 1784SOL    HW2 5363   3.494   0.691   4.127
 1785SOL     OW 5364   3.071   0.525   3.999
 1785SOL    HW1 5365   3.084   0.441   4.053
 1785SOL    HW2 5366   3.042   0.599   4.059
 1786SOL     OW 5367   2.169   0.063   4.342
 1786SOL    HW1 5368   2.158   0.157   4.375
 1786SOL    HW2 5369   2.164   0.000   4.419
 1787SOL     OW 5370   3.484   0.367   4.098
 1787SOL    HW1 5371   3.486   0.291   4.162
 1787SOL    HW2 5372   3.436   0.444   4.138
 1788SOL     OW 5373   3.402   0.274   3.849
 1788SOL    HW1 5374   3.341   0.199   3.872
 1788SOL    HW2 5375   3.424   0.326   3.932
 1789SOL     OW 5376   3.165   0.838   3.766
 1789SOL    HW1 5377   3.199   0.745   3.781
 1789SOL    HW2 5378   3.183   0.865   3.671
 1790SOL     OW 5379   2.930   1.333   4.573
 1790SOL    HW1 5380   2.937   1.249   4.518
 1790SOL    HW2 5381   2.992   1.402   4.537
 1791SOL     OW 5382   1.870   1.326   3.924
 1791SOL    HW1 5383   1.777   1.347   3.893
 1791SOL    HW2 5384   1.880   1.227   3.937
 1792SOL     OW 5385   1.950   1.801   4.651
 1792SOL    HW1 5386   1.908   1.715   4.624
 1792SOL    HW2 5387   2.044   1.804   4.617
 1793SOL     OW 5388   2.677   0.572   4.049
 1793SOL    HW1 5389   2.684   0.483   4.003
 1793SOL    HW2 5390   2.583   0.606   4.041
 1794SOL     OW 5391   2.335   0.500   3.915
 1794SOL    HW1 5392   2.396   0.580   3.919
 1794SOL    HW2 5393   2.240   0.531   3.922
 1795SOL     OW 5394   3.164   0.855   4.033
 1795SOL    HW1 5395   3.078   0.824   4.075
 1795SOL    HW2 5396   3.160   0.841   3.934
 1796SOL     OW 5397   3.588   0.135   4.247
 1796SOL    HW1 5398   3.661   0.118   4.180
 1796SOL    HW2 5399   3.557   0.048   4.285
 1797SOL     OW 5400   3.250   1.573   4.201
 1797SOL    HW1 5401   3.317   1.585   4.127
 1797SOL    HW2 5402   3.210   1.662   4.224
 1798SOL     OW 5403   3.142   0.927   4.396
 1798SOL    HW1 5404   3.202   0.846   4.398
 1798SOL    HW2 5405   3.182   0.996   4.336
 1799SOL     OW 5406   2.534   1.616   3.878
 1799SOL    HW1 5407   2.543   1.626   3.779
 1799SOL    HW2 5408   2.494   1.527   3.899
 1800SOL     OW 5409   3.703   0.175   4.687
 1800SOL    HW1 5410   3.742   0.090   4.651
 1800SOL    HW2 5411   3.605   0.177   4.668
 1801SOL     OW 5412   2.125   0.326   4.444
 1801SOL    HW1 5413   2.046   0.377   4.410
 1801SOL    HW2 5414   2.116   0.311   4.542
 1802SOL     OW 5415   3.056   1.612   3.755
 1802SOL    HW1 5416   3.062   1.519   3.792
 1802SOL    HW2 5417   2.997   1.612   3.675
 1803SOL     OW 5418   2.778   0.910   4.015
 1803SOL    HW1 5419   2.841   0.948   3.947
 1803SOL    HW2 5420   2.818   0.827   4.054
 1804SOL     OW 5421   3.366   1.607   3.768
 1804SOL    HW1 5422   3.274   1.644   3.775
 1804SOL    HW2 5423   3.404   1.627   3.678
 1805SOL     OW 5424   2.901   1.098   4.420
 1805SOL    HW1 5425   2.831   1.051   4.474
 1805SOL    HW2 5426   2.960   1.030   4.377
 1806SOL     OW 5427   2.452   1.487   4.215
 1806SOL    HW1 5428   2.494   1.429   4.145
 1806SOL    HW2 5429   2.408   1.566   4.171
 1807SOL     OW 5430   2.117   1.348   4.014
 1807SOL    HW1 5431   2.021   1.349   3.987
 1807SOL    HW2 5432   2.129   1.401   4.098
 1808SOL     OW 5433   1.937   0.345   3.757
 1808SOL    HW1 5434   1.845   0.317   3.728
 1808SOL    HW2 5435   1.968   0.422   3.701
 1809SOL     OW 5436   1.934   0.166   4.042
 1809SOL    HW1 5437   1.917   0.249   3.988
 1809SOL    HW2 5438   2.024   0.129   4.020
 1810SOL     OW 5439   3.045   1.335   3.843
 1810SOL    HW1 5440   2.946   1.324   3.845
 1810SOL    HW2 5441   3.079   1.350   3.936
 1811SOL     OW 5442   3.087   0.325   4.173
 1811SOL    HW1 5443   3.152   0.251   4.162
 1811SOL    HW2 5444   3.107   0.375   4.257
 1812SOL     OW 5445   2.456   0.745   4.376
 1812SOL    HW1 5446   2.506   0.830   4.357
 1812SOL    HW2 5447   2.368   0.747   4.328
 1813SOL     OW 5448   2.721   1.374   3.740
 1813SOL    HW1 5449   2.675   1.389   3.828
 1813SOL    HW2 5450   2.765   1.459   3.710
 1814SOL     OW 5451   2.523   1.790   4.677
 1814SOL    HW1 5452   2.477   1.878   4.664
 1814SOL    HW2 5453   2.622   1.802   4.670
 1815SOL     OW 5454   2.721   0.956   4.585
 1815SOL    HW1 5455   2.775   0.887   4.633
 1815SOL    HW2 5456   2.689   1.025   4.651
 1816SOL     OW 5457   2.945   0.984   3.811
 1816SOL    HW1 5458   2.922   1.037   3.729
 1816SOL    HW2 5459   3.026   0.928   3.792
 1817SOL     OW 5460   1.941   1.240   4.377
 1817SOL    HW1 5461   1.940   1.193   4.465
 1817SOL    HW2 5462   2.023   1.212   4.326
 1818SOL     OW 5463   2.290   0.424   4.244
 1818SOL    HW1 5464   2.320   0.352   4.182
 1818SOL    HW2 5465   2.251   0.384   4.327
 1819SOL     OW 5466   2.674   1.586   4.411
 1819SOL    HW1 5467   2.706   1.596   4.317
 1819SOL    HW2 5468   2.595   1.524   4.413
 1820SOL     OW 5469   2.632   1.330   4.025
 1820SOL    HW1 5470   2.586   1.243   4.042
 1820SOL    HW2 5471   2.723   1.327   4.066
 1821SOL     OW 5472   3.214   0.052   3.892
 1821SOL    HW1 5473   3.249   0.011   3.808
 1821SOL    HW2 5474   3.124   0.014   3.912
 1822SOL     OW 5475   3.162   0.453   4.415
 1822SOL    HW1 5476   3.103   0.533   4.419
 1822SOL    HW2 5477   3.177   0.418   4.508
 1823SOL     OW 5478   1.901   1.077   4.024
 1823SOL    HW1 5479   2.000   1.066   4.015
 1823SOL    HW2 5480   1.861   0.991   4.056
 1824SOL     OW 5481   2.737   1.646   4.061
 1824SOL    HW1 5482   2.660   1.611   4.007
 1824SOL    HW2 5483   2.705   1.717   4.123
 1825SOL     OW 5484   2.092   2.490   0.113
 1825SOL    HW1 5485   1.999   2.488   0.150
 1825SOL    HW2 5486   2.093   2.451   0.021
 1826SOL     OW 5487   2.087   2.137   0.996
 1826SOL    HW1 5488   2.122   2.120   1.088
 1826SOL    HW2 5489   1.999   2.092   0.984
 1827SOL     OW 5490   1.881   2.230   0.647
 1827SOL    HW1 5491   1.799   2.273   0.686
 1827SOL    HW2 5492   1.853   2.157   0.584
 1828SOL     OW 5493   2.431   3.137   1.165
 1828SOL    HW1 5494   2.338   3.130   1.128
 1828SOL    HW2 5495   2.442   3.226   1.209
 1829SOL     OW 5496   3.417   3.373   0.703
 1829SOL    HW1 5497   3.360   3.357   0.784
 1829SOL    HW2 5498   3.358   3.383   0.623
 1830SOL     OW 5499   2.997   2.565   0.717
 1830SOL    HW1 5500   3.054   2.643   0.692
 1830SOL    HW2 5501   2.937   2.591   0.793
 1831SOL     OW 5502   3.617   2.469   0.231
 1831SOL    HW1 5503   3.605   2.456   0.132
 1831SOL    HW2 5504   3.587   2.388   0.280
 1832SOL     OW 5505   2.630   3.006   1.023
 1832SOL    HW1 5506   2.552   3.023   1.083
 1832SOL    HW2 5507   2.664   3.093   0.987
 1833SOL     OW 5508   2.712   2.660   1.823
 1833SOL    HW1 5509   2.708   2.736   1.888
 1833SOL    HW2 5510   2.734   2.696   1.732
 1834SOL     OW 5511   2.547   2.874   0.665
 1834SOL    HW1 5512   2.616   2.858   0.735
 1834SOL    HW2 5513   2.474   2.931   0.703
 1835SOL     OW 5514   2.548   3.023   1.803
 1835SOL    HW1 5515   2.608   3.102   1.817
 1835SOL    HW2 5516   2.462   3.054   1.762
 1836SOL     OW 5517   2.197   3.297   1.061
 1836SOL    HW1 5518   2.119   3.266   1.008
 1836SOL    HW2 5519   2.255   3.355   1.004
 1837SOL     OW 5520   3.322   3.367   1.339
 1837SOL    HW1 5521   3.346   3.461   1.365
 1837SOL    HW2 5522   3.306   3.313   1.421
 1838SOL     OW 5523   2.300   2.254   1.499
 1838SOL    HW1 5524   2.382   2.198   1.508
 1838SOL    HW2 5525   2.219   2.196   1.503
 1839SOL     OW 5526   3.465   2.309   0.737
 1839SOL    HW1 5527   3.391   2.355   0.687
 1839SOL    HW2 5528   3.516   2.377   0.790
 1840SOL     OW 5529   2.093   3.575   0.483
 1840SOL    HW1 5530   2.127   3.652   0.537
 1840SOL    HW2 5531   2.137   3.575   0.393
 1841SOL     OW 5532   2.989   3.203   1.690
 1841SOL    HW1 5533   3.036   3.203   1.778
 1841SOL    HW2 5534   2.941   3.116   1.679
 1842SOL     OW 5535   2.092   3.296   0.538
 1842SOL    HW1 5536   2.066   3.392   0.538
 1842SOL    HW2 5537   2.021   3.242   0.583
 1843SOL     OW 5538   2.102   2.953   0.886
 1843SOL    HW1 5539   2.116   2.869   0.938
 1843SOL    HW2 5540   2.047   3.017   0.941
 1844SOL     OW 5541   2.482   3.648   1.439
 1844SOL    HW1 5542   2.390   3.631   1.474
 1844SOL    HW2 5543   2.510   3.740   1.465
 1845SOL     OW 5544   2.468   2.826   0.123
 1845SOL    HW1 5545   2.475   2.910   0.069
 1845SOL    HW2 5546   2.514   2.839   0.211
 1846SOL     OW 5547   3.456   1.976   1.480
 1846SOL    HW1 5548   3.438   2.043   1.408
 1846SOL    HW2 5549   3.453   2.022   1.569
 1847SOL     OW 5550   1.984   2.505   0.563
 1847SOL    HW1 5551   1.939   2.417   0.580
 1847SOL    HW2 5552   1.983   2.559   0.647
 1848SOL     OW 5553   3.704   3.629   0.359
 1848SOL    HW1 5554   3.758   3.600   0.439
 1848SOL    HW2 5555   3.734   3.719   0.330
 1849SOL     OW 5556   1.889   3.458   0.117
 1849SOL    HW1 5557   1.870   3.362   0.138
 1849SOL    HW2 5558   1.856   3.516   0.192
 1850SOL     OW 5559   3.551   2.784   0.612
 1850SOL    HW1 5560   3.646   2.755   0.620
 1850SOL    HW2 5561   3.543   2.849   0.537
 1851SOL     OW 5562   3.503   2.970   0.432
 1851SOL    HW1 5563   3.589   2.972   0.380
 1851SOL    HW2 5564   3.517   3.017   0.520
 1852SOL     OW 5565   1.975   2.599   1.597
 1852SOL    HW1 5566   2.063   2.586   1.642
 1852SOL    HW2 5567   1.962   2.696   1.575
 1853SOL     OW 5568   2.475   3.227   0.726
 1853SOL    HW1 5569   2.426   3.140   0.735
 1853SOL    HW2 5570   2.452   3.270   0.639
 1854SOL     OW 5571   3.155   3.090   1.423
 1854SOL    HW1 5572   3.192   3.017   1.365
 1854SOL    HW2 5573   3.207   3.095   1.508
 1855SOL     OW 5574   2.671   1.866   0.502
 1855SOL    HW1 5575   2.711   1.957   0.493
 1855SOL    HW2 5576   2.571   1.874   0.508
 1856SOL     OW 5577   2.059   2.838   1.264
 1856SOL    HW1 5578   2.148   2.793   1.250
 1856SOL    HW2 5579   1.986   2.773   1.245
 1857SOL     OW 5580   3.387   2.861   0.190
 1857SOL    HW1 5581   3.324   2.785   0.203
 1857SOL    HW2 5582   3.435   2.879   0.276
 1858SOL     OW 5583   3.049   3.654   1.616
 1858SOL    HW1 5584   3.073   3.714   1.540
 1858SOL    HW2 5585   3.056   3.559   1.586
 1859SOL     OW 5586   2.179   2.113   1.801
 1859SOL    HW1 5587   2.250   2.184   1.807
 1859SOL    HW2 5588   2.091   2.152   1.829
 1860SOL     OW 5589   3.328   3.279   0.953
 1860SOL    HW1 5590   3.269   3.285   1.033
 1860SOL    HW2 5591   3.313   3.191   0.907
 1861SOL     OW 5592   3.529   3.576   0.572
 1861SOL    HW1 5593   3.488   3.553   0.484
 1861SOL    HW2 5594   3.511   3.502   0.637
 1862SOL     OW 5595   2.460   2.591   0.270
 1862SOL    HW1 5596   2.484   2.660   0.202
 1862SOL    HW2 5597   2.382   2.624   0.324
 1863SOL     OW 5598   3.143   2.207   0.944
 1863SOL    HW1 5599   3.057   2.157   0.931
 1863SOL    HW2 5600   3.205   2.153   1.000
 1864SOL     OW 5601   3.438   3.524   0.307
 1864SOL    HW1 5602   3.527   3.570   0.310
 1864SOL    HW2 5603   3.417   3.500   0.212
 1865SOL     OW 5604   2.669   2.467   1.465
 1865SOL    HW1 5605   2.622   2.464   1.554
 1865SOL    HW2 5606   2.618   2.412   1.399
 1866SOL     OW 5607   3.256   2.331   1.674
 1866SOL    HW1 5608   3.236   2.374   1.762
 1866SOL    HW2 5609   3.334   2.269   1.683
 1867SOL     OW 5610   2.835   2.752   1.572
 1867SOL    HW1 5611   2.881   2.668   1.543
 1867SOL    HW2 5612   2.779   2.786   1.497
 1868SOL     OW 5613   2.853   2.272   1.242
 1868SOL    HW1 5614   2.776   2.306   1.296
 1868SOL    HW2 5615   2.819   2.221   1.163
 1869SOL     OW 5616   2.903   2.563   0.429
 1869SOL    HW1 5617   2.929   2.559   0.525
 1869SOL    HW2 5618   2.818   2.512   0.415
 1870SOL     OW 5619   1.938   2.673   0.789
 1870SOL    HW1 5620   2.037   2.661   0.798
 1870SOL    HW2 5621   1.914   2.768   0.810
 1871SOL     OW 5622   1.992   3.683   1.571
 1871SOL    HW1 5623   1.982   3.668   1.670
 1871SOL    HW2 5624   1.906   3.719   1.535
 1872SOL     OW 5625   2.727   2.210   0.195
 1872SOL    HW1 5626   2.786   2.273   0.146
 1872SOL    HW2 5627   2.746   2.116   0.166
 1873SOL     OW 5628   3.581   2.447   1.831
 1873SOL    HW1 5629   3.555   2.536   1.795
 1873SOL    HW2 5630   3.579   2.379   1.758
 1874SOL     OW 5631   3.224   3.006   0.545
 1874SOL    HW1 5632   3.307   2.977   0.497
 1874SOL    HW2 5633   3.175   3.073   0.489
 1875SOL     OW 5634   2.412   2.058   0.885
 1875SOL    HW1 5635   2.407   2.053   0.985
 1875SOL    HW2 5636   2.414   2.154   0.856
 1876SOL     OW 5637   2.870   3.318   0.477
 1876SOL    HW1 5638   2.824   3.390   0.425
 1876SOL    HW2 5639   2.866   3.338   0.575
 1877SOL     OW 5640   2.213   3.663   0.853
 1877SOL    HW1 5641   2.263   3.577   0.859
 1877SOL    HW2 5642   2.278   3.740   0.850
 1878SOL     OW 5643   3.657   2.928   0.873
 1878SOL    HW1 5644   3.595   2.913   0.797
 1878SOL    HW2 5645   3.605   2.939   0.958
 1879SOL     OW 5646   3.089   3.412   1.506
 1879SOL    HW1 5647   3.095   3.335   1.570
 1879SOL    HW2 5648   3.037   3.386   1.426
 1880SOL     OW 5649   2.183   2.805   0.242
 1880SOL    HW1 5650   2.265   2.844   0.200
 1880SOL    HW2 5651   2.156   2.723   0.193
 1881SOL     OW 5652   3.320   2.597   0.728
 1881SOL    HW1 5653   3.315   2.532   0.803
 1881SOL    HW2 5654   3.400   2.656   0.741
 1882SOL     OW 5655   2.323   3.128   1.727
 1882SOL    HW1 5656   2.273   3.129   1.641
 1882SOL    HW2 5657   2.260   3.110   1.803
 1883SOL     OW 5658   2.973   3.638   0.237
 1883SOL    HW1 5659   2.913   3.576   0.287
 1883SOL    HW2 5660   3.004   3.594   0.152
 1884SOL     OW 5661   2.064   2.147   1.498
 1884SOL    HW1 5662   1.984   2.207   1.485
 1884SOL    HW2 5663   2.054   2.098   1.584
 1885SOL     OW 5664   3.494   3.239   0.081
 1885SOL    HW1 5665   3.462   3.333   0.071
 1885SOL    HW2 5666   3.418   3.176   0.069
 1886SOL     OW 5667   2.326   3.605   0.323
 1886SOL    HW1 5668   2.359   3.644   0.409
 1886SOL    HW2 5669   2.402   3.598   0.258
 1887SOL     OW 5670   3.262   1.969   0.426
 1887SOL    HW1 5671   3.238   1.932   0.336
 1887SOL    HW2 5672   3.361   1.985   0.430
 1888SOL     OW 5673   2.111   3.647   1.241
 1888SOL    HW1 5674   2.168   3.582   1.291
 1888SOL    HW2 5675   2.095   3.614   1.148
 1889SOL     OW 5676   2.802   3.560   0.904
 1889SOL    HW1 5677   2.882   3.503   0.925
 1889SOL    HW2 5678   2.753   3.520   0.827
 1890SOL     OW 5679   2.244   2.562   0.480
 1890SOL    HW1 5680   2.289   2.472   0.477
 1890SOL    HW2 5681   2.150   2.551   0.513
 1891SOL     OW 5682   3.409   2.084   1.729
 1891SOL    HW1 5683   3.404   2.121   1.821
 1891SOL    HW2 5684   3.337   2.015   1.717
 1892SOL     OW 5685   2.643   2.126   1.749
 1892SOL    HW1 5686   2.710   2.065   1.792
 1892SOL    HW2 5687   2.570   2.145   1.814
 1893SOL     OW 5688   2.750   3.376   1.195
 1893SOL    HW1 5689   2.727   3.351   1.101
 1893SOL    HW2 5690   2.811   3.307   1.234
 1894SOL     OW 5691   3.213   2.452   1.433
 1894SOL    HW1 5692   3.241   2.409   1.518
 1894SOL    HW2 5693   3.238   2.548   1.434
 1895SOL     OW 5694   2.665   3.264   0.924
 1895SOL    HW1 5695   2.755   3.278   0.882
 1895SOL    HW2 5696   2.594   3.266   0.853
 1896SOL     OW 5697   2.784   2.365   0.899
 1896SOL    HW1 5698   2.759   2.356   0.803
 1896SOL    HW2 5699   2.832   2.283   0.930
 1897SOL     OW 5700   2.401   1.926   0.512
 1897SOL    HW1 5701   2.320   1.927   0.570
 1897SOL    HW2 5702   2.404   2.009   0.457
 1898SOL     OW 5703   3.296   3.050   0.041
 1898SOL    HW1 5704   3.328   2.974   0.098
 1898SOL    HW2 5705   3.204   3.077   0.071
 1899SOL     OW 5706   2.159   1.897   0.171
 1899SOL    HW1 5707   2.208   1.981   0.150
 1899SOL    HW2 5708   2.221   1.832   0.216
 1900SOL     OW 5709   2.797   2.098   0.480
 1900SOL    HW1 5710   2.749   2.139   0.402
 1900SOL    HW2 5711   2.896   2.096   0.461
 1901SOL     OW 5712   2.938   2.545   1.464
 1901SOL    HW1 5713   2.858   2.484   1.467
 1901SOL    HW2 5714   3.019   2.492   1.440
 1902SOL     OW 5715   3.089   3.432   0.793
 1902SOL    HW1 5716   3.110   3.506   0.728
 1902SOL    HW2 5717   3.157   3.432   0.866
 1903SOL     OW 5718   2.321   3.014   0.741
 1903SOL    HW1 5719   2.250   2.987   0.806
 1903SOL    HW2 5720   2.295   2.986   0.648
 1904SOL     OW 5721   3.133   3.659   0.591
 1904SOL    HW1 5722   3.177   3.723   0.527
 1904SOL    HW2 5723   3.083   3.711   0.661
 1905SOL     OW 5724   2.894   2.411   0.016
 1905SOL    HW1 5725   2.853   2.493  -0.023
 1905SOL    HW2 5726   2.958   2.437   0.089
 1906SOL     OW 5727   1.940   2.418   1.386
 1906SOL    HW1 5728   2.032   2.417   1.345
 1906SOL    HW2 5729   1.934   2.492   1.453
 1907SOL     OW 5730   2.423   2.084   1.147
 1907SOL    HW1 5731   2.461   2.000   1.184
 1907SOL    HW2 5732   2.335   2.103   1.191
 1908SOL     OW 5733   2.728   2.316   0.642
 1908SOL    HW1 5734   2.696   2.388   0.580
 1908SOL    HW2 5735   2.752   2.235   0.589
 1909SOL     OW 5736   2.879   1.901   0.753
 1909SOL    HW1 5737   2.807   1.906   0.684
 1909SOL    HW2 5738   2.855   1.832   0.822
 1910SOL     OW 5739   3.291   3.035   0.867
 1910SOL    HW1 5740   3.236   2.951   0.860
 1910SOL    HW2 5741   3.317   3.064   0.775
 1911SOL     OW 5742   3.328   2.452   0.992
 1911SOL    HW1 5743   3.298   2.357   0.999
 1911SOL    HW2 5744   3.401   2.468   1.058
 1912SOL     OW 5745   3.719   2.695   0.377
 1912SOL    HW1 5746   3.761   2.631   0.441
 1912SOL    HW2 5747   3.681   2.644   0.299
 1913SOL     OW 5748   2.350   3.247   0.174
 1913SOL    HW1 5749   2.263   3.232   0.221
 1913SOL    HW2 5750   2.333   3.273   0.079
 1914SOL     OW 5751   3.526   3.142   0.657
 1914SOL    HW1 5752   3.625   3.150   0.671
 1914SOL    HW2 5753   3.481   3.226   0.688
 1915SOL     OW 5754   3.252   2.437   0.078
 1915SOL    HW1 5755   3.198   2.416   0.159
 1915SOL    HW2 5756   3.343   2.396   0.087
 1916SOL     OW 5757   2.389   2.118   0.328
 1916SOL    HW1 5758   2.416   2.059   0.253
 1916SOL    HW2 5759   2.389   2.213   0.297
 1917SOL     OW 5760   3.616   3.085   1.588
 1917SOL    HW1 5761   3.707   3.046   1.575
 1917SOL    HW2 5762   3.624   3.181   1.612
 1918SOL     OW 5763   2.926   3.209   1.340
 1918SOL    HW1 5764   2.846   3.186   1.395
 1918SOL    HW2 5765   3.009   3.183   1.389
 1919SOL     OW 5766   3.454   3.491   1.625
 1919SOL    HW1 5767   3.481   3.525   1.535
 1919SOL    HW2 5768   3.533   3.453   1.671
 1920SOL     OW 5769   2.973   3.057   1.100
 1920SOL    HW1 5770   2.933   3.101   1.181
 1920SOL    HW2 5771   2.932   3.094   1.017
 1921SOL     OW 5772   3.500   2.961   1.079
 1921SOL    HW1 5773   3.505   3.042   1.138
 1921SOL    HW2 5774   3.414   2.963   1.028
 1922SOL     OW 5775   2.777   1.951   1.402
 1922SOL    HW1 5776   2.802   1.931   1.307
 1922SOL    HW2 5777   2.849   2.007   1.444
 1923SOL     OW 5778   2.842   2.978   1.719
 1923SOL    HW1 5779   2.743   2.984   1.729
 1923SOL    HW2 5780   2.865   2.898   1.663
 1924SOL     OW 5781   2.567   2.912   0.368
 1924SOL    HW1 5782   2.553   2.919   0.467
 1924SOL    HW2 5783   2.651   2.861   0.350
 1925SOL     OW 5784   2.272   2.675   1.251
 1925SOL    HW1 5785   2.358   2.687   1.301
 1925SOL    HW2 5786   2.230   2.588   1.278
 1926SOL     OW 5787   3.136   2.248   1.262
 1926SOL    HW1 5788   3.157   2.322   1.326
 1926SOL    HW2 5789   3.047   2.265   1.219
 1927SOL     OW 5790   1.926   3.426   1.331
 1927SOL    HW1 5791   1.880   3.508   1.297
 1927SOL    HW2 5792   2.024   3.445   1.340
 1928SOL     OW 5793   2.229   2.962   0.501
 1928SOL    HW1 5794   2.222   3.045   0.445
 1928SOL    HW2 5795   2.233   2.882   0.441
 1929SOL     OW 5796   2.428   2.399   0.865
 1929SOL    HW1 5797   2.440   2.465   0.791
 1929SOL    HW2 5798   2.474   2.433   0.948
 1930SOL     OW 5799   3.114   3.210   0.388
 1930SOL    HW1 5800   3.164   3.287   0.428
 1930SOL    HW2 5801   3.019   3.212   0.420
 1931SOL     OW 5802   3.134   3.307   1.142
 1931SOL    HW1 5803   3.181   3.320   1.229
 1931SOL    HW2 5804   3.068   3.233   1.151
 1932SOL     OW 5805   3.444   2.501   0.472
 1932SOL    HW1 5806   3.413   2.562   0.545
 1932SOL    HW2 5807   3.494   2.553   0.403
 1933SOL     OW 5808   2.216   3.372   1.329
 1933SOL    HW1 5809   2.195   3.328   1.242
 1933SOL    HW2 5810   2.313   3.398   1.332
 1934SOL     OW 5811   2.264   2.613   1.598
 1934SOL    HW1 5812   2.332   2.668   1.551
 1934SOL    HW2 5813   2.304   2.525   1.625
 1935SOL     OW 5814   3.449   2.641   1.670
 1935SOL    HW1 5815   3.357   2.679   1.665
 1935SOL    HW2 5816   3.509   2.688   1.605
 1936SOL     OW 5817   2.875   1.967   1.770
 1936SOL    HW1 5818   2.881   2.052   1.718
 1936SOL    HW2 5819   2.907   1.891   1.713
 1937SOL     OW 5820   2.366   1.912   1.740
 1937SOL    HW1 5821   2.324   1.855   1.670
 1937SOL    HW2 5822   2.300   1.981   1.772
 1938SOL     OW 5823   2.435   2.732   1.029
 1938SOL    HW1 5824   2.479   2.821   1.020
 1938SOL    HW2 5825   2.372   2.732   1.106
 1939SOL     OW 5826   3.222   2.724   1.045
 1939SOL    HW1 5827   3.147   2.724   0.979
 1939SOL    HW2 5828   3.259   2.632   1.054
 1940SOL     OW 5829   3.071   2.387   0.275
 1940SOL    HW1 5830   3.084   2.303   0.329
 1940SOL    HW2 5831   3.042   2.461   0.335
 1941SOL     OW 5832   2.169   2.075   1.231
 1941SOL    HW1 5833   2.146   2.112   1.321
 1941SOL    HW2 5834   2.139   1.980   1.225
 1942SOL     OW 5835   1.899   3.172   1.282
 1942SOL    HW1 5836   1.952   3.123   1.350
 1942SOL    HW2 5837   1.921   3.270   1.287
 1943SOL     OW 5838   2.594   2.496   1.064
 1943SOL    HW1 5839   2.653   2.470   0.988
 1943SOL    HW2 5840   2.566   2.592   1.053
 1944SOL     OW 5841   3.590   2.797   1.854
 1944SOL    HW1 5842   3.544   2.790   1.765
 1944SOL    HW2 5843   3.528   2.841   1.920
 1945SOL     OW 5844   2.169   1.925   0.618
 1945SOL    HW1 5845   2.158   2.019   0.651
 1945SOL    HW2 5846   2.164   1.862   0.695
 1946SOL     OW 5847   3.484   2.229   0.374
 1946SOL    HW1 5848   3.486   2.153   0.438
 1946SOL    HW2 5849   3.436   2.306   0.414
 1947SOL     OW 5850   2.885   2.628   0.966
 1947SOL    HW1 5851   2.900   2.649   1.062
 1947SOL    HW2 5852   2.855   2.533   0.957
 1948SOL     OW 5853   2.842   3.435   1.700
 1948SOL    HW1 5854   2.822   3.479   1.612
 1948SOL    HW2 5855   2.881   3.344   1.684
 1949SOL     OW 5856   3.721   3.380   1.605
 1949SOL    HW1 5857   3.735   3.407   1.510
 1949SOL    HW2 5858   3.804   3.402   1.658
 1950SOL     OW 5859   2.212   2.760   1.804
 1950SOL    HW1 5860   2.288   2.804   1.852
 1950SOL    HW2 5861   2.247   2.713   1.722
 1951SOL     OW 5862   3.402   2.136   0.125
 1951SOL    HW1 5863   3.341   2.061   0.148
 1951SOL    HW2 5864   3.424   2.188   0.208
 1952SOL     OW 5865   3.165   2.700   0.042
 1952SOL    HW1 5866   3.199   2.607   0.057
 1952SOL    HW2 5867   3.183   2.727  -0.053
 1953SOL     OW 5868   2.930   3.195   0.849
 1953SOL    HW1 5869   2.937   3.111   0.794
 1953SOL    HW2 5870   2.992   3.264   0.813
 1954SOL     OW 5871   2.181   2.672   0.949
 1954SOL    HW1 5872   2.274   2.708   0.954
 1954SOL    HW2 5873   2.175   2.587   1.001
 1955SOL     OW 5874   2.201   2.371   1.006
 1955SOL    HW1 5875   2.149   2.288   0.989
 1955SOL    HW2 5876   2.278   2.376   0.942
 1956SOL     OW 5877   3.000   2.242   1.678
 1956SOL    HW1 5878   2.955   2.305   1.742
 1956SOL    HW2 5879   3.093   2.273   1.661
 1957SOL     OW 5880   3.022   2.069   1.477
 1957SOL    HW1 5881   3.022   2.133   1.554
 1957SOL    HW2 5882   3.050   2.117   1.394
 1958SOL     OW 5883   1.870   3.188   0.200
 1958SOL    HW1 5884   1.777   3.209   0.169
 1958SOL    HW2 5885   1.880   3.089   0.213
 1959SOL     OW 5886   1.950   3.663   0.927
 1959SOL    HW1 5887   1.908   3.577   0.900
 1959SOL    HW2 5888   2.044   3.666   0.893
 1960SOL     OW 5889   2.366   3.430   0.910
 1960SOL    HW1 5890   2.432   3.504   0.919
 1960SOL    HW2 5891   2.410   3.351   0.868
 1961SOL     OW 5892   2.864   2.658   1.238
 1961SOL    HW1 5893   2.905   2.626   1.324
 1961SOL    HW2 5894   2.768   2.631   1.235
 1962SOL     OW 5895   1.902   2.406   1.114
 1962SOL    HW1 5896   1.987   2.373   1.073
 1962SOL    HW2 5897   1.915   2.421   1.212
 1963SOL     OW 5898   2.051   2.382   1.722
 1963SOL    HW1 5899   2.110   2.342   1.652
 1963SOL    HW2 5900   1.993   2.453   1.681
 1964SOL     OW 5901   3.231   2.812   1.660
 1964SOL    HW1 5902   3.270   2.901   1.680
 1964SOL    HW2 5903   3.241   2.792   1.563
 1965SOL     OW 5904   2.677   2.434   0.325
 1965SOL    HW1 5905   2.684   2.345   0.279
 1965SOL    HW2 5906   2.583   2.468   0.317
 1966SOL     OW 5907   3.519   2.466   1.206
 1966SOL    HW1 5908   3.481   2.397   1.268
 1966SOL    HW2 5909   3.601   2.430   1.162
 1967SOL     OW 5910   2.114   3.426   1.744
 1967SOL    HW1 5911   2.084   3.483   1.820
 1967SOL    HW2 5912   2.107   3.329   1.770
 1968SOL     OW 5913   2.533   2.326   1.269
 1968SOL    HW1 5914   2.499   2.237   1.239
 1968SOL    HW2 5915   2.559   2.380   1.189
 1969SOL     OW 5916   2.792   3.540   1.465
 1969SOL    HW1 5917   2.768   3.522   1.370
 1969SOL    HW2 5918   2.822   3.634   1.475
 1970SOL     OW 5919   2.335   2.362   0.191
 1970SOL    HW1 5920   2.396   2.442   0.195
 1970SOL    HW2 5921   2.240   2.393   0.198
 1971SOL     OW 5922   2.021   2.999   1.466
 1971SOL    HW1 5923   2.043   2.938   1.542
 1971SOL    HW2 5924   2.031   2.950   1.380
 1972SOL     OW 5925   3.209   2.921   1.234
 1972SOL    HW1 5926   3.233   2.858   1.160
 1972SOL    HW2 5927   3.119   2.961   1.216
 1973SOL     OW 5928   3.164   2.717   0.309
 1973SOL    HW1 5929   3.078   2.686   0.351
 1973SOL    HW2 5930   3.160   2.703   0.210
 1974SOL     OW 5931   3.621   3.609   1.154
 1974SOL    HW1 5932   3.682   3.639   1.081
 1974SOL    HW2 5933   3.583   3.520   1.132
 1975SOL     OW 5934   3.114   3.593   1.128
 1975SOL    HW1 5935   3.198   3.598   1.074
 1975SOL    HW2 5936   3.091   3.497   1.146
 1976SOL     OW 5937   1.945   3.120   1.022
 1976SOL    HW1 5938   1.940   3.119   1.122
 1976SOL    HW2 5939   1.862   3.079   0.984
 1977SOL     OW 5940   2.550   3.524   1.716
 1977SOL    HW1 5941   2.494   3.605   1.725
 1977SOL    HW2 5942   2.602   3.528   1.630
 1978SOL     OW 5943   2.765   1.948   0.133
 1978SOL    HW1 5944   2.816   1.949   0.047
 1978SOL    HW2 5945   2.821   1.906   0.204
 1979SOL     OW 5946   3.588   1.997   0.523
 1979SOL    HW1 5947   3.661   1.980   0.456
 1979SOL    HW2 5948   3.557   1.910   0.561
 1980SOL     OW 5949   3.250   3.435   0.477
 1980SOL    HW1 5950   3.317   3.447   0.403
 1980SOL    HW2 5951   3.210   3.524   0.500
 1981SOL     OW 5952   1.992   3.656   1.851
 1981SOL    HW1 5953   1.951   3.582   1.904
 1981SOL    HW2 5954   2.056   3.707   1.909
 1982SOL     OW 5955   3.142   2.789   0.672
 1982SOL    HW1 5956   3.202   2.708   0.674
 1982SOL    HW2 5957   3.182   2.858   0.612
 1983SOL     OW 5958   2.692   3.135   1.422
 1983SOL    HW1 5959   2.687   3.168   1.517
 1983SOL    HW2 5960   2.606   3.154   1.376
 1984SOL     OW 5961   2.534   3.478   0.154
 1984SOL    HW1 5962   2.543   3.488   0.055
 1984SOL    HW2 5963   2.494   3.389   0.175
 1985SOL     OW 5964   3.512   3.582   1.394
 1985SOL    HW1 5965   3.565   3.592   1.310
 1985SOL    HW2 5966   3.485   3.672   1.428
 1986SOL     OW 5967   3.703   2.037   0.963
 1986SOL    HW1 5968   3.742   1.952   0.927
 1986SOL    HW2 5969   3.605   2.039   0.944
 1987SOL     OW 5970   2.125   2.188   0.720
 1987SOL    HW1 5971   2.046   2.239   0.686
 1987SOL    HW2 5972   2.116   2.173   0.818
 1988SOL     OW 5973   3.056   3.474   0.031
 1988SOL    HW1 5974   3.062   3.381   0.068
 1988SOL    HW2 5975   2.997   3.474  -0.049
 1989SOL     OW 5976   2.684   2.864   1.372
 1989SOL    HW1 5977   2.724   2.863   1.280
 1989SOL    HW2 5978   2.694   2.956   1.412
 1990SOL     OW 5979   2.778   2.772   0.291
 1990SOL    HW1 5980   2.841   2.810   0.223
 1990SOL    HW2 5981   2.818   2.689   0.330
 1991SOL     OW 5982   3.366   3.469   0.044
 1991SOL    HW1 5983   3.274   3.506   0.051
 1991SOL    HW2 5984   3.404   3.489  -0.046
 1992SOL     OW 5985   2.234   3.150   1.490
 1992SOL    HW1 5986   2.221   3.243   1.456
 1992SOL    HW2 5987   2.150   3.098   1.477
 1993SOL     OW 5988   3.476   3.154   1.289
 1993SOL    HW1 5989   3.536   3.157   1.369
 1993SOL    HW2 5990   3.401   3.218   1.302
 1994SOL     OW 5991   2.901   2.960   0.696
 1994SOL    HW1 5992   2.831   2.913   0.750
 1994SOL    HW2 5993   2.960   2.892   0.653
 1995SOL     OW 5994   2.876   2.098   0.971
 1995SOL    HW1 5995   2.868   2.062   0.878
 1995SOL    HW2 5996   2.874   2.022   1.036
 1996SOL     OW 5997   2.452   3.349   0.491
 1996SOL    HW1 5998   2.494   3.291   0.421
 1996SOL    HW2 5999   2.408   3.428   0.447
 1997SOL     OW 6000   3.571   2.247   1.381
 1997SOL    HW1 6001   3.644   2.316   1.385
 1997SOL    HW2 6002   3.599   2.172   1.322
 1998SOL     OW 6003   2.117   3.210   0.290
 1998SOL    HW1 6004   2.021   3.211   0.263
 1998SOL    HW2 6005   2.129   3.263   0.374
 1999SOL     OW 6006   1.967   2.875   1.726
 1999SOL    HW1 6007   1.890   2.842   1.780
 1999SOL    HW2 6008   2.052   2.845   1.768
 2000SOL     OW 6009   2.534   2.065   1.489
 2000SOL    HW1 6010   2.624   2.049   1.449
 2000SOL    HW2 6011   2.542   2.070   1.588
 2001SOL     OW 6012   1.937   2.207   0.033
 2001SOL    HW1 6013   1.845   2.179   0.004
 2001SOL    HW2 6014   1.968   2.284  -0.023
 2002SOL     OW 6015   3.302   2.718   1.398
 2002SOL    HW1 6016   3.245   2.770   1.335
 2002SOL    HW2 6017   3.398   2.730   1.374
 2003SOL     OW 6018   1.934   2.028   0.318
 2003SOL    HW1 6019   1.917   2.111   0.264
 2003SOL    HW2 6020   2.024   1.991   0.296
 2004SOL     OW 6021   3.045   3.197   0.119
 2004SOL    HW1 6022   2.946   3.186   0.121
 2004SOL    HW2 6023   3.079   3.212   0.212
 2005SOL     OW 6024   2.475   2.704   1.431
 2005SOL    HW1 6025   2.531   2.785   1.414
 2005SOL    HW2 6026   2.534   2.624   1.434
 2006SOL     OW 6027   3.355   3.629   0.959
 2006SOL    HW1 6028   3.388   3.693   0.890
 2006SOL    HW2 6029   3.421   3.623   1.034
 2007SOL     OW 6030   2.578   2.427   1.708
 2007SOL    HW1 6031   2.597   2.492   1.782
 2007SOL    HW2 6032   2.638   2.347   1.717
 2008SOL     OW 6033   3.312   3.082   1.633
 2008SOL    HW1 6034   3.303   3.072   1.732
 2008SOL    HW2 6035   3.408   3.075   1.607
 2009SOL     OW 6036   2.252   3.603   1.560
 2009SOL    HW1 6037   2.161   3.644   1.558
 2009SOL    HW2 6038   2.245   3.509   1.592
 2010SOL     OW 6039   3.536   2.745   1.254
 2010SOL    HW1 6040   3.509   2.656   1.217
 2010SOL    HW2 6041   3.537   2.813   1.181
 2011SOL     OW 6042   3.087   2.187   0.449
 2011SOL    HW1 6043   3.152   2.113   0.438
 2011SOL    HW2 6044   3.107   2.237   0.533
 2012SOL     OW 6045   2.456   2.607   0.652
 2012SOL    HW1 6046   2.506   2.692   0.633
 2012SOL    HW2 6047   2.368   2.609   0.604
 2013SOL     OW 6048   3.639   2.204   1.642
 2013SOL    HW1 6049   3.622   2.235   1.548
 2013SOL    HW2 6050   3.555   2.167   1.680
 2014SOL     OW 6051   3.592   2.796   1.517
 2014SOL    HW1 6052   3.630   2.887   1.532
 2014SOL    HW2 6053   3.584   2.779   1.418
 2015SOL     OW 6054   2.721   3.236   0.016
 2015SOL    HW1 6055   2.675   3.251   0.104
 2015SOL    HW2 6056   2.765   3.321  -0.014
 2016SOL     OW 6057   2.523   3.652   0.953
 2016SOL    HW1 6058   2.477   3.740   0.940
 2016SOL    HW2 6059   2.622   3.664   0.946
 2017SOL     OW 6060   2.721   2.818   0.861
 2017SOL    HW1 6061   2.775   2.749   0.909
 2017SOL    HW2 6062   2.689   2.887   0.927
 2018SOL     OW 6063   2.945   2.846   0.087
 2018SOL    HW1 6064   2.922   2.899   0.005
 2018SOL    HW2 6065   3.026   2.790   0.068
 2019SOL     OW 6066   3.723   3.431   0.851
 2019SOL    HW1 6067   3.652   3.419   0.781
 2019SOL    HW2 6068   3.724   3.352   0.911
 2020SOL     OW 6069   2.083   3.176   1.844
 2020SOL    HW1 6070   2.018   3.103   1.823
 2020SOL    HW2 6071   2.087   3.190   1.942
 2021SOL     OW 6072   1.941   3.102   0.653
 2021SOL    HW1 6073   1.940   3.055   0.741
 2021SOL    HW2 6074   2.023   3.074   0.602
 2022SOL     OW 6075   2.534   3.253   1.624
 2022SOL    HW1 6076   2.456   3.203   1.662
 2022SOL    HW2 6077   2.531   3.348   1.655
 2023SOL     OW 6078   3.686   2.054   1.227
 2023SOL    HW1 6079   3.682   1.964   1.271
 2023SOL    HW2 6080   3.689   2.043   1.128
 2024SOL     OW 6081   2.290   2.286   0.520
 2024SOL    HW1 6082   2.320   2.214   0.458
 2024SOL    HW2 6083   2.251   2.246   0.603
 2025SOL     OW 6084   3.567   3.349   1.104
 2025SOL    HW1 6085   3.474   3.324   1.077
 2025SOL    HW2 6086   3.593   3.299   1.186
 2026SOL     OW 6087   2.179   2.409   1.280
 2026SOL    HW1 6088   2.217   2.350   1.352
 2026SOL    HW2 6089   2.219   2.383   1.192
 2027SOL     OW 6090   2.674   3.448   0.687
 2027SOL    HW1 6091   2.706   3.458   0.593
 2027SOL    HW2 6092   2.595   3.386   0.689
 2028SOL     OW 6093   3.286   2.076   1.112
 2028SOL    HW1 6094   3.338   2.011   1.167
 2028SOL    HW2 6095   3.237   2.139   1.173
 2029SOL     OW 6096   2.863   1.896   1.154
 2029SOL    HW1 6097   2.800   1.824   1.123
 2029SOL    HW2 6098   2.956   1.860   1.154
 2030SOL     OW 6099   2.632   3.192   0.301
 2030SOL    HW1 6100   2.586   3.105   0.318
 2030SOL    HW2 6101   2.723   3.189   0.342
 2031SOL     OW 6102   2.480   3.429   1.284
 2031SOL    HW1 6103   2.475   3.511   1.341
 2031SOL    HW2 6104   2.569   3.426   1.239
 2032SOL     OW 6105   3.214   1.914   0.168
 2032SOL    HW1 6106   3.249   1.873   0.084
 2032SOL    HW2 6107   3.124   1.876   0.188
 2033SOL     OW 6108   3.162   2.315   0.691
 2033SOL    HW1 6109   3.103   2.395   0.695
 2033SOL    HW2 6110   3.177   2.280   0.784
 2034SOL     OW 6111   3.455   2.083   0.882
 2034SOL    HW1 6112   3.371   2.082   0.936
 2034SOL    HW2 6113   3.457   2.166   0.826
 2035SOL     OW 6114   1.901   2.939   0.300
 2035SOL    HW1 6115   2.000   2.928   0.291
 2035SOL    HW2 6116   1.861   2.853   0.332
 2036SOL     OW 6117   2.737   3.508   0.337
 2036SOL    HW1 6118   2.660   3.473   0.283
 2036SOL    HW2 6119   2.705   3.579   0.399
 2037SOL     OW 6120   2.092   2.490   1.975
 2037SOL    HW1 6121   1.999   2.488   2.012
 2037SOL    HW2 6122   2.093   2.451   1.883
 2038SOL     OW 6123   2.087   2.137   2.858
 2038SOL    HW1 6124   2.122   2.120   2.950
 2038SOL    HW2 6125   1.999   2.092   2.846
 2039SOL     OW 6126   1.881   2.230   2.509
 2039SOL    HW1 6127   1.799   2.273   2.548
 2039SOL    HW2 6128   1.853   2.157   2.446
 2040SOL     OW 6129   2.431   3.137   3.027
 2040SOL    HW1 6130   2.338   3.130   2.990
 2040SOL    HW2 6131   2.442   3.226   3.071
 2041SOL     OW 6132   3.417   3.373   2.565
 2041SOL    HW1 6133   3.360   3.357   2.646
 2041SOL    HW2 6134   3.358   3.383   2.485
 2042SOL     OW 6135   2.997   2.565   2.579
 2042SOL    HW1 6136   3.054   2.643   2.554
 2042SOL    HW2 6137   2.937   2.591   2.655
 2043SOL     OW 6138   3.617   2.469   2.093
 2043SOL    HW1 6139   3.605   2.456   1.994
 2043SOL    HW2 6140   3.587   2.388   2.142
 2044SOL     OW 6141   2.630   3.006   2.885
 2044SOL    HW1 6142   2.552   3.023   2.945
 2044SOL    HW2 6143   2.664   3.093   2.849
 2045SOL     OW 6144   2.712   2.660   3.685
 2045SOL    HW1 6145   2.708   2.736   3.750
 2045SOL    HW2 6146   2.734   2.696   3.594
 2046SOL     OW 6147   2.547   2.874   2.527
 2046SOL    HW1 6148   2.616   2.858   2.597
 2046SOL    HW2 6149   2.474   2.931   2.565
 2047SOL     OW 6150   2.548   3.023   3.665
 2047SOL    HW1 6151   2.608   3.102   3.679
 2047SOL    HW2 6152   2.462   3.054   3.624
 2048SOL     OW 6153   2.197   3.297   2.923
 2048SOL    HW1 6154   2.119   3.266   2.870
 2048SOL    HW2 6155   2.255   3.355   2.866
 2049SOL     OW 6156   3.322   3.367   3.201
 2049SOL    HW1 6157   3.346   3.461   3.227
 2049SOL    HW2 6158   3.306   3.313   3.283
 2050SOL     OW 6159   2.300   2.254   3.361
 2050SOL    HW1 6160   2.382   2.198   3.370
 2050SOL    HW2 6161   2.219   2.196   3.365
 2051SOL     OW 6162   3.465   2.309   2.599
 2051SOL    HW1 6163   3.391   2.355   2.549
 2051SOL    HW2 6164   3.516   2.377   2.652
 2052SOL     OW 6165   2.093   3.575   2.345
 2052SOL    HW1 6166   2.127   3.652   2.399
 2052SOL    HW2 6167   2.137   3.575   2.255
 2053SOL     OW 6168   2.989   3.203   3.552
 2053SOL    HW1 6169   3.036   3.203   3.640
 2053SOL    HW2 6170   2.941   3.116   3.541
 2054SOL     OW 6171   2.092   3.296   2.400
 2054SOL    HW1 6172   2.066   3.392   2.400
 2054SOL    HW2 6173   2.021   3.242   2.445
 2055SOL     OW 6174   2.102   2.953   2.748
 2055SOL    HW1 6175   2.116   2.869   2.800
 2055SOL    HW2 6176   2.047   3.017   2.803
 2056SOL     OW 6177   2.482   3.648   3.301
 2056SOL    HW1 6178   2.390   3.631   3.336
 2056SOL    HW2 6179   2.510   3.740   3.327
 2057SOL     OW 6180   2.468   2.826   1.985
 2057SOL    HW1 6181   2.475   2.910   1.931
 2057SOL    HW2 6182   2.514   2.839   2.073
 2058SOL     OW 6183   3.456   1.976   3.342
 2058SOL    HW1 6184   3.438   2.043   3.270
 2058SOL    HW2 6185   3.453   2.022   3.431
 2059SOL     OW 6186   1.984   2.505   2.425
 2059SOL    HW1 6187   1.939   2.417   2.442
 2059SOL    HW2 6188   1.983   2.559   2.509
 2060SOL     OW 6189   3.704   3.629   2.221
 2060SOL    HW1 6190   3.758   3.600   2.301
 2060SOL    HW2 6191   3.734   3.719   2.192
 2061SOL     OW 6192   1.889   3.458   1.979
 2061SOL    HW1 6193   1.870   3.362   2.000
 2061SOL    HW2 6194   1.856   3.516   2.054
 2062SOL     OW 6195   3.551   2.784   2.474
 2062SOL    HW1 6196   3.646   2.755   2.482
 2062SOL    HW2 6197   3.543   2.849   2.399
 2063SOL     OW 6198   3.503   2.970   2.294
 2063SOL    HW1 6199   3.589   2.972   2.242
 2063SOL    HW2 6200   3.517   3.017   2.382
 2064SOL     OW 6201   1.975   2.599   3.459
 2064SOL    HW1 6202   2.063   2.586   3.504
 2064SOL    HW2 6203   1.962   2.696   3.437
 2065SOL     OW 6204   2.475   3.227   2.588
 2065SOL    HW1 6205   2.426   3.140   2.597
 2065SOL    HW2 6206   2.452   3.270   2.501
 2066SOL     OW 6207   3.155   3.090   3.285
 2066SOL    HW1 6208   3.192   3.017   3.227
 2066SOL    HW2 6209   3.207   3.095   3.370
 2067SOL     OW 6210   2.671   1.866   2.364
 2067SOL    HW1 6211   2.711   1.957   2.355
 2067SOL    HW2 6212   2.571   1.874   2.370
 2068SOL     OW 6213   2.059   2.838   3.126
 2068SOL    HW1 6214   2.148   2.793   3.112
 2068SOL    HW2 6215   1.986   2.773   3.107
 2069SOL     OW 6216   3.387   2.861   2.052
 2069SOL    HW1 6217   3.324   2.785   2.065
 2069SOL    HW2 6218   3.435   2.879   2.138
 2070SOL     OW 6219   3.049   3.654   3.478
 2070SOL    HW1 6220   3.073   3.714   3.402
 2070SOL    HW2 6221   3.056   3.559   3.448
 2071SOL     OW 6222   2.179   2.113   3.663
 2071SOL    HW1 6223   2.250   2.184   3.669
 2071SOL    HW2 6224   2.091   2.152   3.691
 2072SOL     OW 6225   3.328   3.279   2.815
 2072SOL    HW1 6226   3.269   3.285   2.895
 2072SOL    HW2 6227   3.313   3.191   2.769
 2073SOL     OW 6228   3.529   3.576   2.434
 2073SOL    HW1 6229   3.488   3.553   2.346
 2073SOL    HW2 6230   3.511   3.502   2.499
 2074SOL     OW 6231   2.460   2.591   2.132
 2074SOL    HW1 6232   2.484   2.660   2.064
 2074SOL    HW2 6233   2.382   2.624   2.186
 2075SOL     OW 6234   3.143   2.207   2.806
 2075SOL    HW1 6235   3.057   2.157   2.793
 2075SOL    HW2 6236   3.205   2.153   2.862
 2076SOL     OW 6237   3.438   3.524   2.169
 2076SOL    HW1 6238   3.527   3.570   2.172
 2076SOL    HW2 6239   3.417   3.500   2.074
 2077SOL     OW 6240   2.669   2.467   3.327
 2077SOL    HW1 6241   2.622   2.464   3.416
 2077SOL    HW2 6242   2.618   2.412   3.261
 2078SOL     OW 6243   3.256   2.331   3.536
 2078SOL    HW1 6244   3.236   2.374   3.624
 2078SOL    HW2 6245   3.334   2.269   3.545
 2079SOL     OW 6246   2.835   2.752   3.434
 2079SOL    HW1 6247   2.881   2.668   3.405
 2079SOL    HW2 6248   2.779   2.786   3.359
 2080SOL     OW 6249   2.853   2.272   3.104
 2080SOL    HW1 6250   2.776   2.306   3.158
 2080SOL    HW2 6251   2.819   2.221   3.025
 2081SOL     OW 6252   2.903   2.563   2.291
 2081SOL    HW1 6253   2.929   2.559   2.387
 2081SOL    HW2 6254   2.818   2.512   2.277
 2082SOL     OW 6255   1.938   2.673   2.651
 2082SOL    HW1 6256   2.037   2.661   2.660
 2082SOL    HW2 6257   1.914   2.768   2.672
 2083SOL     OW 6258   1.992   3.683   3.433
 2083SOL    HW1 6259   1.982   3.668   3.532
 2083SOL    HW2 6260   1.906   3.719   3.397
 2084SOL     OW 6261   2.727   2.210   2.057
 2084SOL    HW1 6262   2.786   2.273   2.008
 2084SOL    HW2 6263   2.746   2.116   2.028
 2085SOL     OW 6264   3.581   2.447   3.693
 2085SOL    HW1 6265   3.555   2.536   3.657
 2085SOL    HW2 6266   3.579   2.379   3.620
 2086SOL     OW 6267   3.224   3.006   2.407
 2086SOL    HW1 6268   3.307   2.977   2.359
 2086SOL    HW2 6269   3.175   3.073   2.351
 2087SOL     OW 6270   2.412   2.058   2.747
 2087SOL    HW1 6271   2.407   2.053   2.847
 2087SOL    HW2 6272   2.414   2.154   2.718
 2088SOL     OW 6273   2.870   3.318   2.339
 2088SOL    HW1 6274   2.824   3.390   2.287
 2088SOL    HW2 6275   2.866   3.338   2.437
 2089SOL     OW 6276   2.213   3.663   2.715
 2089SOL    HW1 6277   2.263   3.577   2.721
 2089SOL    HW2 6278   2.278   3.740   2.712
 2090SOL     OW 6279   3.657   2.928   2.735
 2090SOL    HW1 6280   3.595   2.913   2.659
 2090SOL    HW2 6281   3.605   2.939   2.820
 2091SOL     OW 6282   3.089   3.412   3.368
 2091SOL    HW1 6283   3.095   3.335   3.432
 2091SOL    HW2 6284   3.037   3.386   3.288
 2092SOL     OW 6285   2.183   2.805   2.104
 2092SOL    HW1 6286   2.265   2.844   2.062
 2092SOL    HW2 6287   2.156   2.723   2.055
 2093SOL     OW 6288   3.320   2.597   2.590
 2093SOL    HW1 6289   3.315   2.532   2.665
 2093SOL    HW2 6290   3.400   2.656   2.603
 2094SOL     OW 6291   2.323   3.128   3.589
 2094SOL    HW1 6292   2.273   3.129   3.503
 2094SOL    HW2 6293   2.260   3.110   3.665
 2095SOL     OW 6294   2.973   3.638   2.099
 2095SOL    HW1 6295   2.913   3.576   2.149
 2095SOL    HW2 6296   3.004   3.594   2.014
 2096SOL     OW 6297   2.064   2.147   3.360
 2096SOL    HW1 6298   1.984   2.207   3.347
 2096SOL    HW2 6299   2.054   2.098   3.446
 2097SOL     OW 6300   3.494   3.239   1.943
 2097SOL    HW1 6301   3.462   3.333   1.933
 2097SOL    HW2 6302   3.418   3.176   1.931
 2098SOL     OW 6303   2.326   3.605   2.185
 2098SOL    HW1 6304   2.359   3.644   2.271
 2098SOL    HW2 6305   2.402   3.598   2.120
 2099SOL     OW 6306   3.262   1.969   2.288
 2099SOL    HW1 6307   3.238   1.932   2.198
 2099SOL    HW2 6308   3.361   1.985   2.292
 2100SOL     OW 6309   2.111   3.647   3.103
 2100SOL    HW1 6310   2.168   3.582   3.153
 2100SOL    HW2 6311   2.095   3.614   3.010
 2101SOL     OW 6312   2.802   3.560   2.766
 2101SOL    HW1 6313   2.882   3.503   2.787
 2101SOL    HW2 6314   2.753   3.520   2.689
 2102SOL     OW 6315   3.409   2.084   3.591
 2102SOL    HW1 6316   3.404   2.121   3.683
 2102SOL    HW2 6317   3.337   2.015   3.579
 2103SOL     OW 6318   2.476   1.984   1.979
 2103SOL    HW1 6319   2.574   1.962   1.986
 2103SOL    HW2 6320   2.445   1.967   1.886
 2104SOL     OW 6321   2.643   2.126   3.611
 2104SOL    HW1 6322   2.710   2.065   3.654
 2104SOL    HW2 6323   2.570   2.145   3.676
 2105SOL     OW 6324   2.750   3.376   3.057
 2105SOL    HW1 6325   2.727   3.351   2.963
 2105SOL    HW2 6326   2.811   3.307   3.096
 2106SOL     OW 6327   3.213   2.452   3.295
 2106SOL    HW1 6328   3.241   2.409   3.380
 2106SOL    HW2 6329   3.238   2.548   3.296
 2107SOL     OW 6330   2.665   3.264   2.786
 2107SOL    HW1 6331   2.755   3.278   2.744
 2107SOL    HW2 6332   2.594   3.266   2.715
 2108SOL     OW 6333   2.784   2.365   2.761
 2108SOL    HW1 6334   2.759   2.356   2.665
 2108SOL    HW2 6335   2.832   2.283   2.792
 2109SOL     OW 6336   2.401   1.926   2.374
 2109SOL    HW1 6337   2.320   1.927   2.432
 2109SOL    HW2 6338   2.404   2.009   2.319
 2110SOL     OW 6339   3.296   3.050   1.903
 2110SOL    HW1 6340   3.328   2.974   1.960
 2110SOL    HW2 6341   3.204   3.077   1.933
 2111SOL     OW 6342   2.159   1.897   2.033
 2111SOL    HW1 6343   2.208   1.981   2.012
 2111SOL    HW2 6344   2.221   1.832   2.078
 2112SOL     OW 6345   2.797   2.098   2.342
 2112SOL    HW1 6346   2.749   2.139   2.264
 2112SOL    HW2 6347   2.896   2.096   2.323
 2113SOL     OW 6348   2.938   2.545   3.326
 2113SOL    HW1 6349   2.858   2.484   3.329
 2113SOL    HW2 6350   3.019   2.492   3.302
 2114SOL     OW 6351   3.089   3.432   2.655
 2114SOL    HW1 6352   3.110   3.506   2.590
 2114SOL    HW2 6353   3.157   3.432   2.728
 2115SOL     OW 6354   2.321   3.014   2.603
 2115SOL    HW1 6355   2.250   2.987   2.668
 2115SOL    HW2 6356   2.295   2.986   2.510
 2116SOL     OW 6357   3.133   3.659   2.453
 2116SOL    HW1 6358   3.177   3.723   2.389
 2116SOL    HW2 6359   3.083   3.711   2.523
 2117SOL     OW 6360   2.894   2.411   1.878
 2117SOL    HW1 6361   2.853   2.493   1.839
 2117SOL    HW2 6362   2.958   2.437   1.951
 2118SOL     OW 6363   1.940   2.418   3.248
 2118SOL    HW1 6364   2.032   2.417   3.207
 2118SOL    HW2 6365   1.934   2.492   3.315
 2119SOL     OW 6366   2.423   2.084   3.009
 2119SOL    HW1 6367   2.461   2.000   3.046
 2119SOL    HW2 6368   2.335   2.103   3.053
 2120SOL     OW 6369   2.728   2.316   2.504
 2120SOL    HW1 6370   2.696   2.388   2.442
 2120SOL    HW2 6371   2.752   2.235   2.451
 2121SOL     OW 6372   2.879   1.901   2.615
 2121SOL    HW1 6373   2.807   1.906   2.546
 2121SOL    HW2 6374   2.855   1.832   2.684
 2122SOL     OW 6375   3.291   3.035   2.729
 2122SOL    HW1 6376   3.236   2.951   2.722
 2122SOL    HW2 6377   3.317   3.064   2.637
 2123SOL     OW 6378   3.328   2.452   2.854
 2123SOL    HW1 6379   3.298   2.357   2.861
 2123SOL    HW2 6380   3.401   2.468   2.920
 2124SOL     OW 6381   3.719   2.695   2.239
 2124SOL    HW1 6382   3.761   2.631   2.303
 2124SOL    HW2 6383   3.681   2.644   2.161
 2125SOL     OW 6384   2.350   3.247   2.036
 2125SOL    HW1 6385   2.263   3.232   2.083
 2125SOL    HW2 6386   2.333   3.273   1.941
 2126SOL     OW 6387   3.526   3.142   2.519
 2126SOL    HW1 6388   3.625   3.150   2.533
 2126SOL    HW2 6389   3.481   3.226   2.550
 2127SOL     OW 6390   3.252   2.437   1.940
 2127SOL    HW1 6391   3.198   2.416   2.021
 2127SOL    HW2 6392   3.343   2.396   1.949
 2128SOL     OW 6393   3.616   3.085   3.450
 2128SOL    HW1 6394   3.707   3.046   3.437
 2128SOL    HW2 6395   3.624   3.181   3.474
 2129SOL     OW 6396   2.926   3.209   3.202
 2129SOL    HW1 6397   2.846   3.186   3.257
 2129SOL    HW2 6398   3.009   3.183   3.251
 2130SOL     OW 6399   3.454   3.491   3.487
 2130SOL    HW1 6400   3.481   3.525   3.397
 2130SOL    HW2 6401   3.533   3.453   3.533
 2131SOL     OW 6402   2.973   3.057   2.962
 2131SOL    HW1 6403   2.933   3.101   3.043
 2131SOL    HW2 6404   2.932   3.094   2.879
 2132SOL     OW 6405   3.500   2.961   2.941
 2132SOL    HW1 6406   3.505   3.042   3.000
 2132SOL    HW2 6407   3.414   2.963   2.890
 2133SOL     OW 6408   2.777   1.951   3.264
 2133SOL    HW1 6409   2.802   1.931   3.169
 2133SOL    HW2 6410   2.849   2.007   3.306
 2134SOL     OW 6411   2.842   2.978   3.581
 2134SOL    HW1 6412   2.743   2.984   3.591
 2134SOL    HW2 6413   2.865   2.898   3.525
 2135SOL     OW 6414   2.567   2.912   2.230
 2135SOL    HW1 6415   2.553   2.919   2.329
 2135SOL    HW2 6416   2.651   2.861   2.212
 2136SOL     OW 6417   2.272   2.675   3.113
 2136SOL    HW1 6418   2.358   2.687   3.163
 2136SOL    HW2 6419   2.230   2.588   3.140
 2137SOL     OW 6420   3.136   2.248   3.124
 2137SOL    HW1 6421   3.157   2.322   3.188
 2137SOL    HW2 6422   3.047   2.265   3.081
 2138SOL     OW 6423   1.926   3.426   3.193
 2138SOL    HW1 6424   1.880   3.508   3.159
 2138SOL    HW2 6425   2.024   3.445   3.202
 2139SOL     OW 6426   2.229   2.962   2.363
 2139SOL    HW1 6427   2.222   3.045   2.307
 2139SOL    HW2 6428   2.233   2.882   2.303
 2140SOL     OW 6429   2.428   2.399   2.727
 2140SOL    HW1 6430   2.440   2.465   2.653
 2140SOL    HW2 6431   2.474   2.433   2.810
 2141SOL     OW 6432   3.114   3.210   2.250
 2141SOL    HW1 6433   3.164   3.287   2.290
 2141SOL    HW2 6434   3.019   3.212   2.282
 2142SOL     OW 6435   3.134   3.307   3.004
 2142SOL    HW1 6436   3.181   3.320   3.091
 2142SOL    HW2 6437   3.068   3.233   3.013
 2143SOL     OW 6438   3.444   2.501   2.334
 2143SOL    HW1 6439   3.413   2.562   2.407
 2143SOL    HW2 6440   3.494   2.553   2.265
 2144SOL     OW 6441   2.216   3.372   3.191
 2144SOL    HW1 6442   2.195   3.328   3.104
 2144SOL    HW2 6443   2.313   3.398   3.194
 2145SOL     OW 6444   2.264   2.613   3.460
 2145SOL    HW1 6445   2.332   2.668   3.413
 2145SOL    HW2 6446   2.304   2.525   3.487
 2146SOL     OW 6447   3.449   2.641   3.532
 2146SOL    HW1 6448   3.357   2.679   3.527
 2146SOL    HW2 6449   3.509   2.688   3.467
 2147SOL     OW 6450   2.875   1.967   3.632
 2147SOL    HW1 6451   2.881   2.052   3.580
 2147SOL    HW2 6452   2.907   1.891   3.575
 2148SOL     OW 6453   2.366   1.912   3.602
 2148SOL    HW1 6454   2.324   1.855   3.532
 2148SOL    HW2 6455   2.300   1.981   3.634
 2149SOL     OW 6456   2.435   2.732   2.891
 2149SOL    HW1 6457   2.479   2.821   2.882
 2149SOL    HW2 6458   2.372   2.732   2.968
 2150SOL     OW 6459   3.222   2.724   2.907
 2150SOL    HW1 6460   3.147   2.724   2.841
 2150SOL    HW2 6461   3.259   2.632   2.916
 2151SOL     OW 6462   3.071   2.387   2.137
 2151SOL    HW1 6463   3.084   2.303   2.191
 2151SOL    HW2 6464   3.042   2.461   2.197
 2152SOL     OW 6465   2.169   2.075   3.093
 2152SOL    HW1 6466   2.146   2.112   3.183
 2152SOL    HW2 6467   2.139   1.980   3.087
 2153SOL     OW 6468   1.899   3.172   3.144
 2153SOL    HW1 6469   1.952   3.123   3.212
 2153SOL    HW2 6470   1.921   3.270   3.149
 2154SOL     OW 6471   2.594   2.496   2.926
 2154SOL    HW1 6472   2.653   2.470   2.850
 2154SOL    HW2 6473   2.566   2.592   2.915
 2155SOL     OW 6474   3.590   2.797   3.716
 2155SOL    HW1 6475   3.544   2.790   3.627
 2155SOL    HW2 6476   3.528   2.841   3.782
 2156SOL     OW 6477   2.169   1.925   2.480
 2156SOL    HW1 6478   2.158   2.019   2.513
 2156SOL    HW2 6479   2.164   1.862   2.557
 2157SOL     OW 6480   3.484   2.229   2.236
 2157SOL    HW1 6481   3.486   2.153   2.300
 2157SOL    HW2 6482   3.436   2.306   2.276
 2158SOL     OW 6483   2.885   2.628   2.828
 2158SOL    HW1 6484   2.900   2.649   2.924
 2158SOL    HW2 6485   2.855   2.533   2.819
 2159SOL     OW 6486   2.842   3.435   3.562
 2159SOL    HW1 6487   2.822   3.479   3.474
 2159SOL    HW2 6488   2.881   3.344   3.546
 2160SOL     OW 6489   3.721   3.380   3.467
 2160SOL    HW1 6490   3.735   3.407   3.372
 2160SOL    HW2 6491   3.804   3.402   3.520
 2161SOL     OW 6492   2.212   2.760   3.666
 2161SOL    HW1 6493   2.288   2.804   3.714
 2161SOL    HW2 6494   2.247   2.713   3.584
 2162SOL     OW 6495   3.402   2.136   1.987
 2162SOL    HW1 6496   3.341   2.061   2.010
 2162SOL    HW2 6497   3.424   2.188   2.070
 2163SOL     OW 6498   3.165   2.700   1.904
 2163SOL    HW1 6499   3.199   2.607   1.919
 2163SOL    HW2 6500   3.183   2.727   1.809
 2164SOL     OW 6501   2.930   3.195   2.711
 2164SOL    HW1 6502   2.937   3.111   2.656
 2164SOL    HW2 6503   2.992   3.264   2.675
 2165SOL     OW 6504   2.181   2.672   2.811
 2165SOL    HW1 6505   2.274   2.708   2.816
 2165SOL    HW2 6506   2.175   2.587   2.863
 2166SOL     OW 6507   2.201   2.371   2.868
 2166SOL    HW1 6508   2.149   2.288   2.851
 2166SOL    HW2 6509   2.278   2.376   2.804
 2167SOL     OW 6510   3.000   2.242   3.540
 2167SOL    HW1 6511   2.955   2.305   3.604
 2167SOL    HW2 6512   3.093   2.273   3.523
 2168SOL     OW 6513   3.022   2.069   3.339
 2168SOL    HW1 6514   3.022   2.133   3.416
 2168SOL    HW2 6515   3.050   2.117   3.256
 2169SOL     OW 6516   1.870   3.188   2.062
 2169SOL    HW1 6517   1.777   3.209   2.031
 2169SOL    HW2 6518   1.880   3.089   2.075
 2170SOL     OW 6519   1.950   3.663   2.789
 2170SOL    HW1 6520   1.908   3.577   2.762
 2170SOL    HW2 6521   2.044   3.666   2.755
 2171SOL     OW 6522   2.366   3.430   2.772
 2171SOL    HW1 6523   2.432   3.504   2.781
 2171SOL    HW2 6524   2.410   3.351   2.730
 2172SOL     OW 6525   2.864   2.658   3.100
 2172SOL    HW1 6526   2.905   2.626   3.186
 2172SOL    HW2 6527   2.768   2.631   3.097
 2173SOL     OW 6528   1.902   2.406   2.976
 2173SOL    HW1 6529   1.987   2.373   2.935
 2173SOL    HW2 6530   1.915   2.421   3.074
 2174SOL     OW 6531   2.051   2.382   3.584
 2174SOL    HW1 6532   2.110   2.342   3.514
 2174SOL    HW2 6533   1.993   2.453   3.543
 2175SOL     OW 6534   3.231   2.812   3.522
 2175SOL    HW1 6535   3.270   2.901   3.542
 2175SOL    HW2 6536   3.241   2.792   3.425
 2176SOL     OW 6537   2.677   2.434   2.187
 2176SOL    HW1 6538   2.684   2.345   2.141
 2176SOL    HW2 6539   2.583   2.468   2.179
 2177SOL     OW 6540   3.519   2.466   3.068
 2177SOL    HW1 6541   3.481   2.397   3.130
 2177SOL    HW2 6542   3.601   2.430   3.024
 2178SOL     OW 6543   2.114   3.426   3.606
 2178SOL    HW1 6544   2.084   3.483   3.682
 2178SOL    HW2 6545   2.107   3.329   3.632
 2179SOL     OW 6546   2.533   2.326   3.131
 2179SOL    HW1 6547   2.499   2.237   3.101
 2179SOL    HW2 6548   2.559   2.380   3.051
 2180SOL     OW 6549   2.792   3.540   3.327
 2180SOL    HW1 6550   2.768   3.522   3.232
 2180SOL    HW2 6551   2.822   3.634   3.337
 2181SOL     OW 6552   2.021   2.999   3.328
 2181SOL    HW1 6553   2.043   2.938   3.404
 2181SOL    HW2 6554   2.031   2.950   3.242
 2182SOL     OW 6555   3.209   2.921   3.096
 2182SOL    HW1 6556   3.233   2.858   3.022
 2182SOL    HW2 6557   3.119   2.961   3.078
 2183SOL     OW 6558   3.164   2.717   2.171
 2183SOL    HW1 6559   3.078   2.686   2.213
 2183SOL    HW2 6560   3.160   2.703   2.072
 2184SOL     OW 6561   3.621   3.609   3.016
 2184SOL    HW1 6562   3.682   3.639   2.943
 2184SOL    HW2 6563   3.583   3.520   2.994
 2185SOL     OW 6564   3.114   3.593   2.990
 2185SOL    HW1 6565   3.198   3.598   2.936
 2185SOL    HW2 6566   3.091   3.497   3.008
 2186SOL     OW 6567   1.945   3.120   2.884
 2186SOL    HW1 6568   1.940   3.119   2.984
 2186SOL    HW2 6569   1.862   3.079   2.846
 2187SOL     OW 6570   2.550   3.524   3.578
 2187SOL    HW1 6571   2.494   3.605   3.587
 2187SOL    HW2 6572   2.602   3.528   3.492
 2188SOL     OW 6573   3.588   1.997   2.385
 2188SOL    HW1 6574   3.661   1.980   2.318
 2188SOL    HW2 6575   3.557   1.910   2.423
 2189SOL     OW 6576   3.250   3.435   2.339
 2189SOL    HW1 6577   3.317   3.447   2.265
 2189SOL    HW2 6578   3.210   3.524   2.362
 2190SOL     OW 6579   1.992   3.656   3.713
 2190SOL    HW1 6580   1.951   3.582   3.766
 2190SOL    HW2 6581   2.056   3.707   3.771
 2191SOL     OW 6582   3.142   2.789   2.534
 2191SOL    HW1 6583   3.202   2.708   2.536
 2191SOL    HW2 6584   3.182   2.858   2.474
 2192SOL     OW 6585   2.692   3.135   3.284
 2192SOL    HW1 6586   2.687   3.168   3.379
 2192SOL    HW2 6587   2.606   3.154   3.238
 2193SOL     OW 6588   2.534   3.478   2.016
 2193SOL    HW1 6589   2.543   3.488   1.917
 2193SOL    HW2 6590   2.494   3.389   2.037
 2194SOL     OW 6591   3.512   3.582   3.256
 2194SOL    HW1 6592   3.565   3.592   3.172
 2194SOL    HW2 6593   3.485   3.672   3.290
 2195SOL     OW 6594   3.703   2.037   2.825
 2195SOL    HW1 6595   3.742   1.952   2.789
 2195SOL    HW2 6596   3.605   2.039   2.806
 2196SOL     OW 6597   2.125   2.188   2.582
 2196SOL    HW1 6598   2.046   2.239   2.548
 2196SOL    HW2 6599   2.116   2.173   2.680
 2197SOL     OW 6600   3.056   3.474   1.893
 2197SOL    HW1 6601   3.062   3.381   1.930
 2197SOL    HW2 6602   2.997   3.474   1.813
 2198SOL     OW 6603   2.684   2.864   3.234
 2198SOL    HW1 6604   2.724   2.863   3.142
 2198SOL    HW2 6605   2.694   2.956   3.274
 2199SOL     OW 6606   2.778   2.772   2.153
 2199SOL    HW1 6607   2.841   2.810   2.085
 2199SOL    HW2 6608   2.818   2.689   2.192
 2200SOL     OW 6609   3.366   3.469   1.906
 2200SOL    HW1 6610   3.274   3.506   1.913
 2200SOL    HW2 6611   3.404   3.489   1.816
 2201SOL     OW 6612   2.234   3.150   3.352
 2201SOL    HW1 6613   2.221   3.243   3.318
 2201SOL    HW2 6614   2.150   3.098   3.339
 2202SOL     OW 6615   3.476   3.154   3.151
 2202SOL    HW1 6616   3.536   3.157   3.231
 2202SOL    HW2 6617   3.401   3.218   3.164
 2203SOL     OW 6618   2.901   2.960   2.558
 2203SOL    HW1 6619   2.831   2.913   2.612
 2203SOL    HW2 6620   2.960   2.892   2.515
 2204SOL     OW 6621   2.876   2.098   2.833
 2204SOL    HW1 6622   2.868   2.062   2.740
 2204SOL    HW2 6623   2.874   2.022   2.898
 2205SOL     OW 6624   2.452   3.349   2.353
 2205SOL    HW1 6625   2.494   3.291   2.283
 2205SOL    HW2 6626   2.408   3.428   2.309
 2206SOL     OW 6627   3.571   2.247   3.243
 2206SOL    HW1 6628   3.644   2.316   3.247
 2206SOL    HW2 6629   3.599   2.172   3.184
 2207SOL     OW 6630   2.117   3.210   2.152
 2207SOL    HW1 6631   2.021   3.211   2.125
 2207SOL    HW2 6632   2.129   3.263   2.236
 2208SOL     OW 6633   1.967   2.875   3.588
 2208SOL    HW1 6634   1.890   2.842   3.642
 2208SOL    HW2 6635   2.052   2.845   3.630
 2209SOL     OW 6636   2.534   2.065   3.351
 2209SOL    HW1 6637   2.624   2.049   3.311
 2209SOL    HW2 6638   2.542   2.070   3.450
 2210SOL     OW 6639   1.937   2.207   1.895
 2210SOL    HW1 6640   1.845   2.179   1.866
 2210SOL    HW2 6641   1.968   2.284   1.839
 2211SOL     OW 6642   3.302   2.718   3.260
 2211SOL    HW1 6643   3.245   2.770   3.197
 2211SOL    HW2 6644   3.398   2.730   3.236
 2212SOL     OW 6645   1.934   2.028   2.180
 2212SOL    HW1 6646   1.917   2.111   2.126
 2212SOL    HW2 6647   2.024   1.991   2.158
 2213SOL     OW 6648   3.045   3.197   1.981
 2213SOL    HW1 6649   2.946   3.186   1.983
 2213SOL    HW2 6650   3.079   3.212   2.074
 2214SOL     OW 6651   2.475   2.704   3.293
 2214SOL    HW1 6652   2.531   2.785   3.276
 2214SOL    HW2 6653   2.534   2.624   3.296
 2215SOL     OW 6654   3.355   3.629   2.821
 2215SOL    HW1 6655   3.388   3.693   2.752
 2215SOL    HW2 6656   3.421   3.623   2.896
 2216SOL     OW 6657   2.578   2.427   3.570
 2216SOL    HW1 6658   2.597   2.492   3.644
 2216SOL    HW2 6659   2.638   2.347   3.579
 2217SOL     OW 6660   3.312   3.082   3.495
 2217SOL    HW1 6661   3.303   3.072   3.594
 2217SOL    HW2 6662   3.408   3.075   3.469
 2218SOL     OW 6663   2.252   3.603   3.422
 2218SOL    HW1 6664   2.161   3.644   3.420
 2218SOL    HW2 6665   2.245   3.509   3.454
 2219SOL     OW 6666   3.536   2.745   3.116
 2219SOL    HW1 6667   3.509   2.656   3.079
 2219SOL    HW2 6668   3.537   2.813   3.043
 2220SOL     OW 6669   3.087   2.187   2.311
 2220SOL    HW1 6670   3.152   2.113   2.300
 2220SOL    HW2 6671   3.107   2.237   2.395
 2221SOL     OW 6672   2.456   2.607   2.514
 2221SOL    HW1 6673   2.506   2.692   2.495
 2221SOL    HW2 6674   2.368   2.609   2.466
 2222SOL     OW 6675   3.639   2.204   3.504
 2222SOL    HW1 6676   3.622   2.235   3.410
 2222SOL    HW2 6677   3.555   2.167   3.542
 2223SOL     OW 6678   3.592   2.796   3.379
 2223SOL    HW1 6679   3.630   2.887   3.394
 2223SOL    HW2 6680   3.584   2.779   3.280
 2224SOL     OW 6681   2.721   3.236   1.878
 2224SOL    HW1 6682   2.675   3.251   1.966
 2224SOL    HW2 6683   2.765   3.321   1.848
 2225SOL     OW 6684   2.523   3.652   2.815
 2225SOL    HW1 6685   2.477   3.740   2.802
 2225SOL    HW2 6686   2.622   3.664   2.808
 2226SOL     OW 6687   2.721   2.818   2.723
 2226SOL    HW1 6688   2.775   2.749   2.771
 2226SOL    HW2 6689   2.689   2.887   2.789
 2227SOL     OW 6690   2.945   2.846   1.949
 2227SOL    HW1 6691   2.922   2.899   1.867
 2227SOL    HW2 6692   3.026   2.790   1.930
 2228SOL     OW 6693   3.723   3.431   2.713
 2228SOL    HW1 6694   3.652   3.419   2.643
 2228SOL    HW2 6695   3.724   3.352   2.773
 2229SOL     OW 6696   2.083   3.176   3.706
 2229SOL    HW1 6697   2.018   3.103   3.685
 2229SOL    HW2 6698   2.087   3.190   3.804
 2230SOL     OW 6699   1.941   3.102   2.515
 2230SOL    HW1 6700   1.940   3.055   2.603
 2230SOL    HW2 6701   2.023   3.074   2.464
 2231SOL     OW 6702   2.534   3.253   3.486
 2231SOL    HW1 6703   2.456   3.203   3.524
 2231SOL    HW2 6704   2.531   3.348   3.517
 2232SOL     OW 6705   3.686   2.054   3.089
 2232SOL    HW1 6706   3.682   1.964   3.133
 2232SOL    HW2 6707   3.689   2.043   2.990
 2233SOL     OW 6708   3.567   3.349   2.966
 2233SOL    HW1 6709   3.474   3.324   2.939
 2233SOL    HW2 6710   3.593   3.299   3.048
 2234SOL     OW 6711   2.179   2.409   3.142
 2234SOL    HW1 6712   2.217   2.350   3.214
 2234SOL    HW2 6713   2.219   2.383   3.054
 2235SOL     OW 6714   2.674   3.448   2.549
 2235SOL    HW1 6715   2.706   3.458   2.455
 2235SOL    HW2 6716   2.595   3.386   2.551
 2236SOL     OW 6717   3.286   2.076   2.974
 2236SOL    HW1 6718   3.338   2.011   3.029
 2236SOL    HW2 6719   3.237   2.139   3.035
 2237SOL     OW 6720   2.863   1.896   3.016
 2237SOL    HW1 6721   2.800   1.824   2.985
 2237SOL    HW2 6722   2.956   1.860   3.016
 2238SOL     OW 6723   2.632   3.192   2.163
 2238SOL    HW1 6724   2.586   3.105   2.180
 2238SOL    HW2 6725   2.723   3.189   2.204
 2239SOL     OW 6726   2.480   3.429   3.146
 2239SOL    HW1 6727   2.475   3.511   3.203
 2239SOL    HW2 6728   2.569   3.426   3.101
 2240SOL     OW 6729   3.214   1.914   2.030
 2240SOL    HW1 6730   3.249   1.873   1.946
 2240SOL    HW2 6731   3.124   1.876   2.050
 2241SOL     OW 6732   3.162   2.315   2.553
 2241SOL    HW1 6733   3.103   2.395   2.557
 2241SOL    HW2 6734   3.177   2.280   2.646
 2242SOL     OW 6735   3.455   2.083   2.744
 2242SOL    HW1 6736   3.371   2.082   2.798
 2242SOL    HW2 6737   3.457   2.166   2.688
 2243SOL     OW 6738   1.901   2.939   2.162
 2243SOL    HW1 6739   2.000   2.928   2.153
 2243SOL    HW2 6740   1.861   2.853   2.194
 2244SOL     OW 6741   2.737   3.508   2.199
 2244SOL    HW1 6742   2.660   3.473   2.145
 2244SOL    HW2 6743   2.705   3.579   2.261
 2245SOL     OW 6744   2.092   2.490   3.837
 2245SOL    HW1 6745   1.999   2.488   3.874
 2245SOL    HW2 6746   2.093   2.451   3.745
 2246SOL     OW 6747   1.881   2.230   4.371
 2246SOL    HW1 6748   1.799   2.273   4.410
 2246SOL    HW2 6749   1.853   2.157   4.308
 2247SOL     OW 6750   3.417   3.373   4.427
 2247SOL    HW1 6751   3.360   3.357   4.508
 2247SOL    HW2 6752   3.358   3.383   4.347
 2248SOL     OW 6753   2.997   2.565   4.441
 2248SOL    HW1 6754   3.054   2.643   4.416
 2248SOL    HW2 6755   2.937   2.591   4.517
 2249SOL     OW 6756   3.617   2.469   3.955
 2249SOL    HW1 6757   3.605   2.456   3.856
 2249SOL    HW2 6758   3.587   2.388   4.004
 2250SOL     OW 6759   2.630   3.006   4.747
 2250SOL    HW1 6760   2.552   3.023   4.807
 2250SOL    HW2 6761   2.664   3.093   4.711
 2251SOL     OW 6762   2.547   2.874   4.389
 2251SOL    HW1 6763   2.616   2.858   4.459
 2251SOL    HW2 6764   2.474   2.931   4.427
 2252SOL     OW 6765   3.465   2.309   4.461
 2252SOL    HW1 6766   3.391   2.355   4.411
 2252SOL    HW2 6767   3.516   2.377   4.514
 2253SOL     OW 6768   2.093   3.575   4.207
 2253SOL    HW1 6769   2.127   3.652   4.261
 2253SOL    HW2 6770   2.137   3.575   4.117
 2254SOL     OW 6771   2.092   3.296   4.262
 2254SOL    HW1 6772   2.066   3.392   4.262
 2254SOL    HW2 6773   2.021   3.242   4.307
 2255SOL     OW 6774   2.102   2.953   4.610
 2255SOL    HW1 6775   2.116   2.869   4.662
 2255SOL    HW2 6776   2.047   3.017   4.665
 2256SOL     OW 6777   2.468   2.826   3.847
 2256SOL    HW1 6778   2.475   2.910   3.793
 2256SOL    HW2 6779   2.514   2.839   3.935
 2257SOL     OW 6780   1.984   2.505   4.287
 2257SOL    HW1 6781   1.939   2.417   4.304
 2257SOL    HW2 6782   1.983   2.559   4.371
 2258SOL     OW 6783   3.704   3.629   4.083
 2258SOL    HW1 6784   3.758   3.600   4.163
 2258SOL    HW2 6785   3.734   3.719   4.054
 2259SOL     OW 6786   1.889   3.458   3.841
 2259SOL    HW1 6787   1.870   3.362   3.862
 2259SOL    HW2 6788   1.856   3.516   3.916
 2260SOL     OW 6789   3.551   2.784   4.336
 2260SOL    HW1 6790   3.646   2.755   4.344
 2260SOL    HW2 6791   3.543   2.849   4.261
 2261SOL     OW 6792   3.503   2.970   4.156
 2261SOL    HW1 6793   3.589   2.972   4.104
 2261SOL    HW2 6794   3.517   3.017   4.244
 2262SOL     OW 6795   2.475   3.227   4.450
 2262SOL    HW1 6796   2.426   3.140   4.459
 2262SOL    HW2 6797   2.452   3.270   4.363
 2263SOL     OW 6798   2.671   1.866   4.226
 2263SOL    HW1 6799   2.711   1.957   4.217
 2263SOL    HW2 6800   2.571   1.874   4.232
 2264SOL     OW 6801   3.387   2.861   3.914
 2264SOL    HW1 6802   3.324   2.785   3.927
 2264SOL    HW2 6803   3.435   2.879   4.000
 2265SOL     OW 6804   3.529   3.576   4.296
 2265SOL    HW1 6805   3.488   3.553   4.208
 2265SOL    HW2 6806   3.511   3.502   4.361
 2266SOL     OW 6807   2.460   2.591   3.994
 2266SOL    HW1 6808   2.484   2.660   3.926
 2266SOL    HW2 6809   2.382   2.624   4.048
 2267SOL     OW 6810   3.143   2.207   4.668
 2267SOL    HW1 6811   3.057   2.157   4.655
 2267SOL    HW2 6812   3.205   2.153   4.724
 2268SOL     OW 6813   3.438   3.524   4.031
 2268SOL    HW1 6814   3.527   3.570   4.034
 2268SOL    HW2 6815   3.417   3.500   3.936
 2269SOL     OW 6816   2.903   2.563   4.153
 2269SOL    HW1 6817   2.929   2.559   4.249
 2269SOL    HW2 6818   2.818   2.512   4.139
 2270SOL     OW 6819   1.938   2.673   4.513
 2270SOL    HW1 6820   2.037   2.661   4.522
 2270SOL    HW2 6821   1.914   2.768   4.534
 2271SOL     OW 6822   2.727   2.210   3.919
 2271SOL    HW1 6823   2.786   2.273   3.870
 2271SOL    HW2 6824   2.746   2.116   3.890
 2272SOL     OW 6825   3.224   3.006   4.269
 2272SOL    HW1 6826   3.307   2.977   4.221
 2272SOL    HW2 6827   3.175   3.073   4.213
 2273SOL     OW 6828   2.412   2.058   4.609
 2273SOL    HW1 6829   2.407   2.053   4.709
 2273SOL    HW2 6830   2.414   2.154   4.580
 2274SOL     OW 6831   2.870   3.318   4.201
 2274SOL    HW1 6832   2.824   3.390   4.149
 2274SOL    HW2 6833   2.866   3.338   4.299
 2275SOL     OW 6834   2.213   3.663   4.577
 2275SOL    HW1 6835   2.263   3.577   4.583
 2275SOL    HW2 6836   2.278   3.740   4.574
 2276SOL     OW 6837   3.657   2.928   4.597
 2276SOL    HW1 6838   3.595   2.913   4.521
 2276SOL    HW2 6839   3.605   2.939   4.682
 2277SOL     OW 6840   2.183   2.805   3.966
 2277SOL    HW1 6841   2.265   2.844   3.924
 2277SOL    HW2 6842   2.156   2.723   3.917
 2278SOL     OW 6843   3.320   2.597   4.452
 2278SOL    HW1 6844   3.315   2.532   4.527
 2278SOL    HW2 6845   3.400   2.656   4.465
 2279SOL     OW 6846   2.973   3.638   3.961
 2279SOL    HW1 6847   2.913   3.576   4.011
 2279SOL    HW2 6848   3.004   3.594   3.876
 2280SOL     OW 6849   3.494   3.239   3.805
 2280SOL    HW1 6850   3.462   3.333   3.795
 2280SOL    HW2 6851   3.418   3.176   3.793
 2281SOL     OW 6852   2.326   3.605   4.047
 2281SOL    HW1 6853   2.359   3.644   4.133
 2281SOL    HW2 6854   2.402   3.598   3.982
 2282SOL     OW 6855   3.262   1.969   4.150
 2282SOL    HW1 6856   3.238   1.932   4.060
 2282SOL    HW2 6857   3.361   1.985   4.154
 2283SOL     OW 6858   2.802   3.560   4.628
 2283SOL    HW1 6859   2.882   3.503   4.649
 2283SOL    HW2 6860   2.753   3.520   4.551
 2284SOL     OW 6861   2.244   2.562   4.204
 2284SOL    HW1 6862   2.289   2.472   4.201
 2284SOL    HW2 6863   2.150   2.551   4.237
 2285SOL     OW 6864   2.476   1.984   3.841
 2285SOL    HW1 6865   2.574   1.962   3.848
 2285SOL    HW2 6866   2.445   1.967   3.748
 2286SOL     OW 6867   2.401   1.926   4.236
 2286SOL    HW1 6868   2.320   1.927   4.294
 2286SOL    HW2 6869   2.404   2.009   4.181
 2287SOL     OW 6870   3.296   3.050   3.765
 2287SOL    HW1 6871   3.328   2.974   3.822
 2287SOL    HW2 6872   3.204   3.077   3.795
 2288SOL     OW 6873   2.159   1.897   3.895
 2288SOL    HW1 6874   2.208   1.981   3.874
 2288SOL    HW2 6875   2.221   1.832   3.940
 2289SOL     OW 6876   2.797   2.098   4.204
 2289SOL    HW1 6877   2.749   2.139   4.126
 2289SOL    HW2 6878   2.896   2.096   4.185
 2290SOL     OW 6879   2.321   3.014   4.465
 2290SOL    HW1 6880   2.250   2.987   4.530
 2290SOL    HW2 6881   2.295   2.986   4.372
 2291SOL     OW 6882   3.133   3.659   4.315
 2291SOL    HW1 6883   3.177   3.723   4.251
 2291SOL    HW2 6884   3.083   3.711   4.385
 2292SOL     OW 6885   2.894   2.411   3.740
 2292SOL    HW1 6886   2.853   2.493   3.701
 2292SOL    HW2 6887   2.958   2.437   3.813
 2293SOL     OW 6888   2.728   2.316   4.366
 2293SOL    HW1 6889   2.696   2.388   4.304
 2293SOL    HW2 6890   2.752   2.235   4.313
 2294SOL     OW 6891   2.879   1.901   4.477
 2294SOL    HW1 6892   2.807   1.906   4.408
 2294SOL    HW2 6893   2.855   1.832   4.546
 2295SOL     OW 6894   3.719   2.695   4.101
 2295SOL    HW1 6895   3.761   2.631   4.165
 2295SOL    HW2 6896   3.681   2.644   4.023
 2296SOL     OW 6897   2.350   3.247   3.898
 2296SOL    HW1 6898   2.263   3.232   3.945
 2296SOL    HW2 6899   2.333   3.273   3.803
 2297SOL     OW 6900   3.526   3.142   4.381
 2297SOL    HW1 6901   3.625   3.150   4.395
 2297SOL    HW2 6902   3.481   3.226   4.412
 2298SOL     OW 6903   3.252   2.437   3.802
 2298SOL    HW1 6904   3.198   2.416   3.883
 2298SOL    HW2 6905   3.343   2.396   3.811
 2299SOL     OW 6906   2.389   2.118   4.052
 2299SOL    HW1 6907   2.416   2.059   3.977
 2299SOL    HW2 6908   2.389   2.213   4.021
 2300SOL     OW 6909   2.567   2.912   4.092
 2300SOL    HW1 6910   2.553   2.919   4.191
 2300SOL    HW2 6911   2.651   2.861   4.074
 2301SOL     OW 6912   2.229   2.962   4.225
 2301SOL    HW1 6913   2.222   3.045   4.169
 2301SOL    HW2 6914   2.233   2.882   4.165
 2302SOL     OW 6915   2.428   2.399   4.589
 2302SOL    HW1 6916   2.440   2.465   4.515
 2302SOL    HW2 6917   2.474   2.433   4.672
 2303SOL     OW 6918   3.114   3.210   4.112
 2303SOL    HW1 6919   3.164   3.287   4.152
 2303SOL    HW2 6920   3.019   3.212   4.144
 2304SOL     OW 6921   3.444   2.501   4.196
 2304SOL    HW1 6922   3.413   2.562   4.269
 2304SOL    HW2 6923   3.494   2.553   4.127
 2305SOL     OW 6924   3.071   2.387   3.999
 2305SOL    HW1 6925   3.084   2.303   4.053
 2305SOL    HW2 6926   3.042   2.461   4.059
 2306SOL     OW 6927   2.169   1.925   4.342
 2306SOL    HW1 6928   2.158   2.019   4.375
 2306SOL    HW2 6929   2.164   1.862   4.419
 2307SOL     OW 6930   3.484   2.229   4.098
 2307SOL    HW1 6931   3.486   2.153   4.162
 2307SOL    HW2 6932   3.436   2.306   4.138
 2308SOL     OW 6933   3.402   2.136   3.849
 2308SOL    HW1 6934   3.341   2.061   3.872
 2308SOL    HW2 6935   3.424   2.188   3.932
 2309SOL     OW 6936   3.165   2.700   3.766
 2309SOL    HW1 6937   3.199   2.607   3.781
 2309SOL    HW2 6938   3.183   2.727   3.671
 2310SOL     OW 6939   2.930   3.195   4.573
 2310SOL    HW1 6940   2.937   3.111   4.518
 2310SOL    HW2 6941   2.992   3.264   4.537
 2311SOL     OW 6942   1.870   3.188   3.924
 2311SOL    HW1 6943   1.777   3.209   3.893
 2311SOL    HW2 6944   1.880   3.089   3.937
 2312SOL     OW 6945   1.950   3.663   4.651
 2312SOL    HW1 6946   1.908   3.577   4.624
 2312SOL    HW2 6947   2.044   3.666   4.617
 2313SOL     OW 6948   2.677   2.434   4.049
 2313SOL    HW1 6949   2.684   2.345   4.003
 2313SOL    HW2 6950   2.583   2.468   4.041
 2314SOL     OW 6951   2.335   2.362   3.915
 2314SOL    HW1 6952   2.396   2.442   3.919
 2314SOL    HW2 6953   2.240   2.393   3.922
 2315SOL     OW 6954   3.164   2.717   4.033
 2315SOL    HW1 6955   3.078   2.686   4.075
 2315SOL    HW2 6956   3.160   2.703   3.934
 2316SOL     OW 6957   3.588   1.997   4.247
 2316SOL    HW1 6958   3.661   1.980   4.180
 2316SOL    HW2 6959   3.557   1.910   4.285
 2317SOL     OW 6960   3.250   3.435   4.201
 2317SOL    HW1 6961   3.317   3.447   4.127
 2317SOL    HW2 6962   3.210   3.524   4.224
 2318SOL     OW 6963   3.142   2.789   4.396
 2318SOL    HW1 6964   3.202   2.708   4.398
 2318SOL    HW2 6965   3.182   2.858   4.336
 2319SOL     OW 6966   2.534   3.478   3.878
 2319SOL    HW1 6967   2.543   3.488   3.779
 2319SOL    HW2 6968   2.494   3.389   3.899
 2320SOL     OW 6969   3.703   2.037   4.687
 2320SOL    HW1 6970   3.742   1.952   4.651
 2320SOL    HW2 6971   3.605   2.039   4.668
 2321SOL     OW 6972   2.125   2.188   4.444
 2321SOL    HW1 6973   2.046   2.239   4.410
 2321SOL    HW2 6974   2.116   2.173   4.542
 2322SOL     OW 6975   3.056   3.474   3.755
 2322SOL    HW1 6976   3.062   3.381   3.792
 2322SOL    HW2 6977   2.997   3.474   3.675
 2323SOL     OW 6978   2.778   2.772   4.015
 2323SOL    HW1 6979   2.841   2.810   3.947
 2323SOL    HW2 6980   2.818   2.689   4.054
 2324SOL     OW 6981   3.366   3.469   3.768
 2324SOL    HW1 6982   3.274   3.506   3.775
 2324SOL    HW2 6983   3.404   3.489   3.678
 2325SOL     OW 6984   2.901   2.960   4.420
 2325SOL    HW1 6985   2.831   2.913   4.474
 2325SOL    HW2 6986   2.960   2.892   4.377
 2326SOL     OW 6987   2.452   3.349   4.215
 2326SOL    HW1 6988   2.494   3.291   4.145
 2326SOL    HW2 6989   2.408   3.428   4.171
 2327SOL     OW 6990   2.117   3.210   4.014
 2327SOL    HW1 6991   2.021   3.211   3.987
 2327SOL    HW2 6992   2.129   3.263   4.098
 2328SOL     OW 6993   1.937   2.207   3.757
 2328SOL    HW1 6994   1.845   2.179   3.728
 2328SOL    HW2 6995   1.968   2.284   3.701
 2329SOL     OW 6996   1.934   2.028   4.042
 2329SOL    HW1 6997   1.917   2.111   3.988
 2329SOL    HW2 6998   2.024   1.991   4.020
 2330SOL     OW 6999   3.045   3.197   3.843
 2330SOL    HW1 7000   2.946   3.186   3.845
 2330SOL    HW2 7001   3.079   3.212   3.936
 2331SOL     OW 7002   3.087   2.187   4.173
 2331SOL    HW1 7003   3.152   2.113   4.162
 2331SOL    HW2 7004   3.107   2.237   4.257
 2332SOL     OW 7005   2.456   2.607   4.376
 2332SOL    HW1 7006   2.506   2.692   4.357
 2332SOL    HW2 7007   2.368   2.609   4.328
 2333SOL     OW 7008   2.721   3.236   3.740
 2333SOL    HW1 7009   2.675   3.251   3.828
 2333SOL    HW2 7010   2.765   3.321   3.710
 2334SOL     OW 7011   2.523   3.652   4.677
 2334SOL    HW1 7012   2.477   3.740   4.664
 2334SOL    HW2 7013   2.622   3.664   4.670
 2335SOL     OW 7014   2.721   2.818   4.585
 2335SOL    HW1 7015   2.775   2.749   4.633
 2335SOL    HW2 7016   2.689   2.887   4.651
 2336SOL     OW 7017   2.945   2.846   3.811
 2336SOL    HW1 7018   2.922   2.899   3.729
 2336SOL    HW2 7019   3.026   2.790   3.792
 2337SOL     OW 7020   1.941   3.102   4.377
 2337SOL    HW1 7021   1.940   3.055   4.465
 2337SOL    HW2 7022   2.023   3.074   4.326
 2338SOL     OW 7023   2.290   2.286   4.244
 2338SOL    HW1 7024   2.320   2.214   4.182
 2338SOL    HW2 7025   2.251   2.246   4.327
 2339SOL     OW 7026   2.674   3.448   4.411
 2339SOL    HW1 7027   2.706   3.458   4.317
 2339SOL    HW2 7028   2.595   3.386   4.413
 2340SOL     OW 7029   2.632   3.192   4.025
 2340SOL    HW1 7030   2.586   3.105   4.042
 2340SOL    HW2 7031   2.723   3.189   4.066
 2341SOL     OW 7032   3.214   1.914   3.892
 2341SOL    HW1 7033   3.249   1.873   3.808
 2341SOL    HW2 7034   3.124   1.876   3.912
 2342SOL     OW 7035   3.162   2.315   4.415
 2342SOL    HW1 7036   3.103   2.395   4.419
 2342SOL    HW2 7037   3.177   2.280   4.508
 2343SOL     OW 7038   1.901   2.939   4.024
 2343SOL    HW1 7039   2.000   2.928   4.015
 2343SOL    HW2 7040   1.861   2.853   4.056
 2344SOL     OW 7041   2.737   3.508   4.061
 2344SOL    HW1 7042   2.660   3.473   4.007
 2344SOL    HW2 7043   2.705   3.579   4.123
 2345SOL     OW 7044   2.092   4.352   0.113
 2345SOL    HW1 7045   1.999   4.350   0.150
 2345SOL    HW2 7046   2.093   4.313   0.021
 2346SOL     OW 7047   2.087   3.999   0.996
 2346SOL    HW1 7048   2.122   3.982   1.088
 2346SOL    HW2 7049   1.999   3.954   0.984
 2347SOL     OW 7050   1.881   4.092   0.647
 2347SOL    HW1 7051   1.799   4.135   0.686
 2347SOL    HW2 7052   1.853   4.019   0.584
 2348SOL     OW 7053   2.997   4.427   0.717
 2348SOL    HW1 7054   3.054   4.505   0.692
 2348SOL    HW2 7055   2.937   4.453   0.793
 2349SOL     OW 7056   3.617   4.331   0.231
 2349SOL    HW1 7057   3.605   4.318   0.132
 2349SOL    HW2 7058   3.587   4.250   0.280
 2350SOL     OW 7059   2.712   4.522   1.823
 2350SOL    HW1 7060   2.708   4.598   1.888
 2350SOL    HW2 7061   2.734   4.558   1.732
 2351SOL     OW 7062   2.547   4.736   0.665
 2351SOL    HW1 7063   2.616   4.720   0.735
 2351SOL    HW2 7064   2.474   4.793   0.703
 2352SOL     OW 7065   2.300   4.116   1.499
 2352SOL    HW1 7066   2.382   4.060   1.508
 2352SOL    HW2 7067   2.219   4.058   1.503
 2353SOL     OW 7068   3.465   4.171   0.737
 2353SOL    HW1 7069   3.391   4.217   0.687
 2353SOL    HW2 7070   3.516   4.239   0.790
 2354SOL     OW 7071   3.456   3.838   1.480
 2354SOL    HW1 7072   3.438   3.905   1.408
 2354SOL    HW2 7073   3.453   3.884   1.569
 2355SOL     OW 7074   1.984   4.367   0.563
 2355SOL    HW1 7075   1.939   4.279   0.580
 2355SOL    HW2 7076   1.983   4.421   0.647
 2356SOL     OW 7077   1.975   4.461   1.597
 2356SOL    HW1 7078   2.063   4.448   1.642
 2356SOL    HW2 7079   1.962   4.558   1.575
 2357SOL     OW 7080   2.671   3.728   0.502
 2357SOL    HW1 7081   2.711   3.819   0.493
 2357SOL    HW2 7082   2.571   3.736   0.508
 2358SOL     OW 7083   2.179   3.975   1.801
 2358SOL    HW1 7084   2.250   4.046   1.807
 2358SOL    HW2 7085   2.091   4.014   1.829
 2359SOL     OW 7086   2.460   4.453   0.270
 2359SOL    HW1 7087   2.484   4.522   0.202
 2359SOL    HW2 7088   2.382   4.486   0.324
 2360SOL     OW 7089   3.143   4.069   0.944
 2360SOL    HW1 7090   3.057   4.019   0.931
 2360SOL    HW2 7091   3.205   4.015   1.000
 2361SOL     OW 7092   2.669   4.329   1.465
 2361SOL    HW1 7093   2.622   4.326   1.554
 2361SOL    HW2 7094   2.618   4.274   1.399
 2362SOL     OW 7095   3.256   4.193   1.674
 2362SOL    HW1 7096   3.236   4.236   1.762
 2362SOL    HW2 7097   3.334   4.131   1.683
 2363SOL     OW 7098   2.853   4.134   1.242
 2363SOL    HW1 7099   2.776   4.168   1.296
 2363SOL    HW2 7100   2.819   4.083   1.163
 2364SOL     OW 7101   2.903   4.425   0.429
 2364SOL    HW1 7102   2.929   4.421   0.525
 2364SOL    HW2 7103   2.818   4.374   0.415
 2365SOL     OW 7104   1.938   4.535   0.789
 2365SOL    HW1 7105   2.037   4.523   0.798
 2365SOL    HW2 7106   1.914   4.630   0.810
 2366SOL     OW 7107   2.727   4.072   0.195
 2366SOL    HW1 7108   2.786   4.135   0.146
 2366SOL    HW2 7109   2.746   3.978   0.166
 2367SOL     OW 7110   3.581   4.309   1.831
 2367SOL    HW1 7111   3.555   4.398   1.795
 2367SOL    HW2 7112   3.579   4.241   1.758
 2368SOL     OW 7113   2.412   3.920   0.885
 2368SOL    HW1 7114   2.407   3.915   0.985
 2368SOL    HW2 7115   2.414   4.016   0.856
 2369SOL     OW 7116   3.320   4.459   0.728
 2369SOL    HW1 7117   3.315   4.394   0.803
 2369SOL    HW2 7118   3.400   4.518   0.741
 2370SOL     OW 7119   2.064   4.009   1.498
 2370SOL    HW1 7120   1.984   4.069   1.485
 2370SOL    HW2 7121   2.054   3.960   1.584
 2371SOL     OW 7122   3.262   3.831   0.426
 2371SOL    HW1 7123   3.238   3.794   0.336
 2371SOL    HW2 7124   3.361   3.847   0.430
 2372SOL     OW 7125   2.244   4.424   0.480
 2372SOL    HW1 7126   2.289   4.334   0.477
 2372SOL    HW2 7127   2.150   4.413   0.513
 2373SOL     OW 7128   3.409   3.946   1.729
 2373SOL    HW1 7129   3.404   3.983   1.821
 2373SOL    HW2 7130   3.337   3.877   1.717
 2374SOL     OW 7131   2.643   3.988   1.749
 2374SOL    HW1 7132   2.710   3.927   1.792
 2374SOL    HW2 7133   2.570   4.007   1.814
 2375SOL     OW 7134   3.213   4.314   1.433
 2375SOL    HW1 7135   3.241   4.271   1.518
 2375SOL    HW2 7136   3.238   4.410   1.434
 2376SOL     OW 7137   2.784   4.227   0.899
 2376SOL    HW1 7138   2.759   4.218   0.803
 2376SOL    HW2 7139   2.832   4.145   0.930
 2377SOL     OW 7140   2.401   3.788   0.512
 2377SOL    HW1 7141   2.320   3.789   0.570
 2377SOL    HW2 7142   2.404   3.871   0.457
 2378SOL     OW 7143   2.159   3.759   0.171
 2378SOL    HW1 7144   2.208   3.843   0.150
 2378SOL    HW2 7145   2.221   3.694   0.216
 2379SOL     OW 7146   2.797   3.960   0.480
 2379SOL    HW1 7147   2.749   4.001   0.402
 2379SOL    HW2 7148   2.896   3.958   0.461
 2380SOL     OW 7149   2.938   4.407   1.464
 2380SOL    HW1 7150   2.858   4.346   1.467
 2380SOL    HW2 7151   3.019   4.354   1.440
 2381SOL     OW 7152   2.894   4.273   0.016
 2381SOL    HW1 7153   2.853   4.355  -0.023
 2381SOL    HW2 7154   2.958   4.299   0.089
 2382SOL     OW 7155   1.940   4.280   1.386
 2382SOL    HW1 7156   2.032   4.279   1.345
 2382SOL    HW2 7157   1.934   4.354   1.453
 2383SOL     OW 7158   2.423   3.946   1.147
 2383SOL    HW1 7159   2.461   3.862   1.184
 2383SOL    HW2 7160   2.335   3.965   1.191
 2384SOL     OW 7161   2.728   4.178   0.642
 2384SOL    HW1 7162   2.696   4.250   0.580
 2384SOL    HW2 7163   2.752   4.097   0.589
 2385SOL     OW 7164   2.879   3.763   0.753
 2385SOL    HW1 7165   2.807   3.768   0.684
 2385SOL    HW2 7166   2.855   3.694   0.822
 2386SOL     OW 7167   3.328   4.314   0.992
 2386SOL    HW1 7168   3.298   4.219   0.999
 2386SOL    HW2 7169   3.401   4.330   1.058
 2387SOL     OW 7170   3.719   4.557   0.377
 2387SOL    HW1 7171   3.761   4.493   0.441
 2387SOL    HW2 7172   3.681   4.506   0.299
 2388SOL     OW 7173   3.252   4.299   0.078
 2388SOL    HW1 7174   3.198   4.278   0.159
 2388SOL    HW2 7175   3.343   4.258   0.087
 2389SOL     OW 7176   2.389   3.980   0.328
 2389SOL    HW1 7177   2.416   3.921   0.253
 2389SOL    HW2 7178   2.389   4.075   0.297
 2390SOL     OW 7179   2.777   3.813   1.402
 2390SOL    HW1 7180   2.802   3.793   1.307
 2390SOL    HW2 7181   2.849   3.869   1.444
 2391SOL     OW 7182   2.567   4.774   0.368
 2391SOL    HW1 7183   2.553   4.781   0.467
 2391SOL    HW2 7184   2.651   4.723   0.350
 2392SOL     OW 7185   2.272   4.537   1.251
 2392SOL    HW1 7186   2.358   4.549   1.301
 2392SOL    HW2 7187   2.230   4.450   1.278
 2393SOL     OW 7188   3.136   4.110   1.262
 2393SOL    HW1 7189   3.157   4.184   1.326
 2393SOL    HW2 7190   3.047   4.127   1.219
 2394SOL     OW 7191   2.428   4.261   0.865
 2394SOL    HW1 7192   2.440   4.327   0.791
 2394SOL    HW2 7193   2.474   4.295   0.948
 2395SOL     OW 7194   3.444   4.363   0.472
 2395SOL    HW1 7195   3.413   4.424   0.545
 2395SOL    HW2 7196   3.494   4.415   0.403
 2396SOL     OW 7197   2.264   4.475   1.598
 2396SOL    HW1 7198   2.332   4.530   1.551
 2396SOL    HW2 7199   2.304   4.387   1.625
 2397SOL     OW 7200   3.449   4.503   1.670
 2397SOL    HW1 7201   3.357   4.541   1.665
 2397SOL    HW2 7202   3.509   4.550   1.605
 2398SOL     OW 7203   2.875   3.829   1.770
 2398SOL    HW1 7204   2.881   3.914   1.718
 2398SOL    HW2 7205   2.907   3.753   1.713
 2399SOL     OW 7206   2.366   3.774   1.740
 2399SOL    HW1 7207   2.324   3.717   1.670
 2399SOL    HW2 7208   2.300   3.843   1.772
 2400SOL     OW 7209   2.435   4.594   1.029
 2400SOL    HW1 7210   2.479   4.683   1.020
 2400SOL    HW2 7211   2.372   4.594   1.106
 2401SOL     OW 7212   3.222   4.586   1.045
 2401SOL    HW1 7213   3.147   4.586   0.979
 2401SOL    HW2 7214   3.259   4.494   1.054
 2402SOL     OW 7215   3.071   4.249   0.275
 2402SOL    HW1 7216   3.084   4.165   0.329
 2402SOL    HW2 7217   3.042   4.323   0.335
 2403SOL     OW 7218   2.169   3.937   1.231
 2403SOL    HW1 7219   2.146   3.974   1.321
 2403SOL    HW2 7220   2.139   3.842   1.225
 2404SOL     OW 7221   2.594   4.358   1.064
 2404SOL    HW1 7222   2.653   4.332   0.988
 2404SOL    HW2 7223   2.566   4.454   1.053
 2405SOL     OW 7224   3.590   4.659   1.854
 2405SOL    HW1 7225   3.544   4.652   1.765
 2405SOL    HW2 7226   3.528   4.703   1.920
 2406SOL     OW 7227   2.169   3.787   0.618
 2406SOL    HW1 7228   2.158   3.881   0.651
 2406SOL    HW2 7229   2.164   3.724   0.695
 2407SOL     OW 7230   3.484   4.091   0.374
 2407SOL    HW1 7231   3.486   4.015   0.438
 2407SOL    HW2 7232   3.436   4.168   0.414
 2408SOL     OW 7233   3.402   3.998   0.125
 2408SOL    HW1 7234   3.341   3.923   0.148
 2408SOL    HW2 7235   3.424   4.050   0.208
 2409SOL     OW 7236   2.181   4.534   0.949
 2409SOL    HW1 7237   2.274   4.570   0.954
 2409SOL    HW2 7238   2.175   4.449   1.001
 2410SOL     OW 7239   2.201   4.233   1.006
 2410SOL    HW1 7240   2.149   4.150   0.989
 2410SOL    HW2 7241   2.278   4.238   0.942
 2411SOL     OW 7242   3.000   4.104   1.678
 2411SOL    HW1 7243   2.955   4.167   1.742
 2411SOL    HW2 7244   3.093   4.135   1.661
 2412SOL     OW 7245   3.022   3.931   1.477
 2412SOL    HW1 7246   3.022   3.995   1.554
 2412SOL    HW2 7247   3.050   3.979   1.394
 2413SOL     OW 7248   1.902   4.268   1.114
 2413SOL    HW1 7249   1.987   4.235   1.073
 2413SOL    HW2 7250   1.915   4.283   1.212
 2414SOL     OW 7251   2.051   4.244   1.722
 2414SOL    HW1 7252   2.110   4.204   1.652
 2414SOL    HW2 7253   1.993   4.315   1.681
 2415SOL     OW 7254   2.677   4.296   0.325
 2415SOL    HW1 7255   2.684   4.207   0.279
 2415SOL    HW2 7256   2.583   4.330   0.317
 2416SOL     OW 7257   3.519   4.328   1.206
 2416SOL    HW1 7258   3.481   4.259   1.268
 2416SOL    HW2 7259   3.601   4.292   1.162
 2417SOL     OW 7260   2.533   4.188   1.269
 2417SOL    HW1 7261   2.499   4.099   1.239
 2417SOL    HW2 7262   2.559   4.242   1.189
 2418SOL     OW 7263   2.335   4.224   0.191
 2418SOL    HW1 7264   2.396   4.304   0.195
 2418SOL    HW2 7265   2.240   4.255   0.198
 2419SOL     OW 7266   2.765   3.810   0.133
 2419SOL    HW1 7267   2.816   3.811   0.047
 2419SOL    HW2 7268   2.821   3.768   0.204
 2420SOL     OW 7269   3.588   3.859   0.523
 2420SOL    HW1 7270   3.661   3.842   0.456
 2420SOL    HW2 7271   3.557   3.772   0.561
 2421SOL     OW 7272   3.142   4.651   0.672
 2421SOL    HW1 7273   3.202   4.570   0.674
 2421SOL    HW2 7274   3.182   4.720   0.612
 2422SOL     OW 7275   3.703   3.899   0.963
 2422SOL    HW1 7276   3.742   3.814   0.927
 2422SOL    HW2 7277   3.605   3.901   0.944
 2423SOL     OW 7278   2.125   4.050   0.720
 2423SOL    HW1 7279   2.046   4.101   0.686
 2423SOL    HW2 7280   2.116   4.035   0.818
 2424SOL     OW 7281   2.876   3.960   0.971
 2424SOL    HW1 7282   2.868   3.924   0.878
 2424SOL    HW2 7283   2.874   3.884   1.036
 2425SOL     OW 7284   3.571   4.109   1.381
 2425SOL    HW1 7285   3.644   4.178   1.385
 2425SOL    HW2 7286   3.599   4.034   1.322
 2426SOL     OW 7287   1.967   4.737   1.726
 2426SOL    HW1 7288   1.890   4.704   1.780
 2426SOL    HW2 7289   2.052   4.707   1.768
 2427SOL     OW 7290   2.534   3.927   1.489
 2427SOL    HW1 7291   2.624   3.911   1.449
 2427SOL    HW2 7292   2.542   3.932   1.588
 2428SOL     OW 7293   1.937   4.069   0.033
 2428SOL    HW1 7294   1.845   4.041   0.004
 2428SOL    HW2 7295   1.968   4.146  -0.023
 2429SOL     OW 7296   3.302   4.580   1.398
 2429SOL    HW1 7297   3.245   4.632   1.335
 2429SOL    HW2 7298   3.398   4.592   1.374
 2430SOL     OW 7299   1.934   3.890   0.318
 2430SOL    HW1 7300   1.917   3.973   0.264
 2430SOL    HW2 7301   2.024   3.853   0.296
 2431SOL     OW 7302   2.475   4.566   1.431
 2431SOL    HW1 7303   2.531   4.647   1.414
 2431SOL    HW2 7304   2.534   4.486   1.434
 2432SOL     OW 7305   2.578   4.289   1.708
 2432SOL    HW1 7306   2.597   4.354   1.782
 2432SOL    HW2 7307   2.638   4.209   1.717
 2433SOL     OW 7308   3.536   4.607   1.254
 2433SOL    HW1 7309   3.509   4.518   1.217
 2433SOL    HW2 7310   3.537   4.675   1.181
 2434SOL     OW 7311   3.087   4.049   0.449
 2434SOL    HW1 7312   3.152   3.975   0.438
 2434SOL    HW2 7313   3.107   4.099   0.533
 2435SOL     OW 7314   2.456   4.469   0.652
 2435SOL    HW1 7315   2.506   4.554   0.633
 2435SOL    HW2 7316   2.368   4.471   0.604
 2436SOL     OW 7317   3.639   4.066   1.642
 2436SOL    HW1 7318   3.622   4.097   1.548
 2436SOL    HW2 7319   3.555   4.029   1.680
 2437SOL     OW 7320   3.686   3.916   1.227
 2437SOL    HW1 7321   3.682   3.826   1.271
 2437SOL    HW2 7322   3.689   3.905   1.128
 2438SOL     OW 7323   2.290   4.148   0.520
 2438SOL    HW1 7324   2.320   4.076   0.458
 2438SOL    HW2 7325   2.251   4.108   0.603
 2439SOL     OW 7326   2.179   4.271   1.280
 2439SOL    HW1 7327   2.217   4.212   1.352
 2439SOL    HW2 7328   2.219   4.245   1.192
 2440SOL     OW 7329   3.286   3.938   1.112
 2440SOL    HW1 7330   3.338   3.873   1.167
 2440SOL    HW2 7331   3.237   4.001   1.173
 2441SOL     OW 7332   2.863   3.758   1.154
 2441SOL    HW1 7333   2.800   3.686   1.123
 2441SOL    HW2 7334   2.956   3.722   1.154
 2442SOL     OW 7335   3.214   3.776   0.168
 2442SOL    HW1 7336   3.249   3.735   0.084
 2442SOL    HW2 7337   3.124   3.738   0.188
 2443SOL     OW 7338   3.162   4.177   0.691
 2443SOL    HW1 7339   3.103   4.257   0.695
 2443SOL    HW2 7340   3.177   4.142   0.784
 2444SOL     OW 7341   3.455   3.945   0.882
 2444SOL    HW1 7342   3.371   3.944   0.936
 2444SOL    HW2 7343   3.457   4.028   0.826
 2445SOL     OW 7344   2.092   4.352   1.975
 2445SOL    HW1 7345   1.999   4.350   2.012
 2445SOL    HW2 7346   2.093   4.313   1.883
 2446SOL     OW 7347   2.087   3.999   2.858
 2446SOL    HW1 7348   2.122   3.982   2.950
 2446SOL    HW2 7349   1.999   3.954   2.846
 2447SOL     OW 7350   1.881   4.092   2.509
 2447SOL    HW1 7351   1.799   4.135   2.548
 2447SOL    HW2 7352   1.853   4.019   2.446
 2448SOL     OW 7353   2.997   4.427   2.579
 2448SOL    HW1 7354   3.054   4.505   2.554
 2448SOL    HW2 7355   2.937   4.453   2.655
 2449SOL     OW 7356   3.617   4.331   2.093
 2449SOL    HW1 7357   3.605   4.318   1.994
 2449SOL    HW2 7358   3.587   4.250   2.142
 2450SOL     OW 7359   2.712   4.522   3.685
 2450SOL    HW1 7360   2.708   4.598   3.750
 2450SOL    HW2 7361   2.734   4.558   3.594
 2451SOL     OW 7362   2.547   4.736   2.527
 2451SOL    HW1 7363   2.616   4.720   2.597
 2451SOL    HW2 7364   2.474   4.793   2.565
 2452SOL     OW 7365   2.300   4.116   3.361
 2452SOL    HW1 7366   2.382   4.060   3.370
 2452SOL    HW2 7367   2.219   4.058   3.365
 2453SOL     OW 7368   3.465   4.171   2.599
 2453SOL    HW1 7369   3.391   4.217   2.549
 2453SOL    HW2 7370   3.516   4.239   2.652
 2454SOL     OW 7371   3.456   3.838   3.342
 2454SOL    HW1 7372   3.438   3.905   3.270
 2454SOL    HW2 7373   3.453   3.884   3.431
 2455SOL     OW 7374   1.984   4.367   2.425
 2455SOL    HW1 7375   1.939   4.279   2.442
 2455SOL    HW2 7376   1.983   4.421   2.509
 2456SOL     OW 7377   1.975   4.461   3.459
 2456SOL    HW1 7378   2.063   4.448   3.504
 2456SOL    HW2 7379   1.962   4.558   3.437
 2457SOL     OW 7380   2.671   3.728   2.364
 2457SOL    HW1 7381   2.711   3.819   2.355
 2457SOL    HW2 7382   2.571   3.736   2.370
 2458SOL     OW 7383   2.179   3.975   3.663
 2458SOL    HW1 7384   2.250   4.046   3.669
 2458SOL    HW2 7385   2.091   4.014   3.691
 2459SOL     OW 7386   2.460   4.453   2.132
 2459SOL    HW1 7387   2.484   4.522   2.064
 2459SOL    HW2 7388   2.382   4.486   2.186
 2460SOL     OW 7389   3.143   4.069   2.806
 2460SOL    HW1 7390   3.057   4.019   2.793
 2460SOL    HW2 7391   3.205   4.015   2.862
 2461SOL     OW 7392   2.669   4.329   3.327
 2461SOL    HW1 7393   2.622   4.326   3.416
 2461SOL    HW2 7394   2.618   4.274   3.261
 2462SOL     OW 7395   3.256   4.193   3.536
 2462SOL    HW1 7396   3.236   4.236   3.624
 2462SOL    HW2 7397   3.334   4.131   3.545
 2463SOL     OW 7398   2.853   4.134   3.104
 2463SOL    HW1 7399   2.776   4.168   3.158
 2463SOL    HW2 7400   2.819   4.083   3.025
 2464SOL     OW 7401   2.903   4.425   2.291
 2464SOL    HW1 7402   2.929   4.421   2.387
 2464SOL    HW2 7403   2.818   4.374   2.277
 2465SOL     OW 7404   1.938   4.535   2.651
 2465SOL    HW1 7405   2.037   4.523   2.660
 2465SOL    HW2 7406   1.914   4.630   2.672
 2466SOL     OW 7407   2.727   4.072   2.057
 2466SOL    HW1 7408   2.786   4.135   2.008
 2466SOL    HW2 7409   2.746   3.978   2.028
 2467SOL     OW 7410   3.581   4.309   3.693
 2467SOL    HW1 7411   3.555   4.398   3.657
 2467SOL    HW2 7412   3.579   4.241   3.620
 2468SOL     OW 7413   2.412   3.920   2.747
 2468SOL    HW1 7414   2.407   3.915   2.847
 2468SOL    HW2 7415   2.414   4.016   2.718
 2469SOL     OW 7416   3.320   4.459   2.590
 2469SOL    HW1 7417   3.315   4.394   2.665
 2469SOL    HW2 7418   3.400   4.518   2.603
 2470SOL     OW 7419   2.064   4.009   3.360
 2470SOL    HW1 7420   1.984   4.069   3.347
 2470SOL    HW2 7421   2.054   3.960   3.446
 2471SOL     OW 7422   3.262   3.831   2.288
 2471SOL    HW1 7423   3.238   3.794   2.198
 2471SOL    HW2 7424   3.361   3.847   2.292
 2472SOL     OW 7425   2.244   4.424   2.342
 2472SOL    HW1 7426   2.289   4.334   2.339
 2472SOL    HW2 7427   2.150   4.413   2.375
 2473SOL     OW 7428   3.409   3.946   3.591
 2473SOL    HW1 7429   3.404   3.983   3.683
 2473SOL    HW2 7430   3.337   3.877   3.579
 2474SOL     OW 7431   2.476   3.846   1.979
 2474SOL    HW1 7432   2.574   3.824   1.986
 2474SOL    HW2 7433   2.445   3.829   1.886
 2475SOL     OW 7434   2.643   3.988   3.611
 2475SOL    HW1 7435   2.710   3.927   3.654
 2475SOL    HW2 7436   2.570   4.007   3.676
 2476SOL     OW 7437   3.213   4.314   3.295
 2476SOL    HW1 7438   3.241   4.271   3.380
 2476SOL    HW2 7439   3.238   4.410   3.296
 2477SOL     OW 7440   2.784   4.227   2.761
 2477SOL    HW1 7441   2.759   4.218   2.665
 2477SOL    HW2 7442   2.832   4.145   2.792
 2478SOL     OW 7443   2.401   3.788   2.374
 2478SOL    HW1 7444   2.320   3.789   2.432
 2478SOL    HW2 7445   2.404   3.871   2.319
 2479SOL     OW 7446   2.159   3.759   2.033
 2479SOL    HW1 7447   2.208   3.843   2.012
 2479SOL    HW2 7448   2.221   3.694   2.078
 2480SOL     OW 7449   2.797   3.960   2.342
 2480SOL    HW1 7450   2.749   4.001   2.264
 2480SOL    HW2 7451   2.896   3.958   2.323
 2481SOL     OW 7452   2.938   4.407   3.326
 2481SOL    HW1 7453   2.858   4.346   3.329
 2481SOL    HW2 7454   3.019   4.354   3.302
 2482SOL     OW 7455   2.894   4.273   1.878
 2482SOL    HW1 7456   2.853   4.355   1.839
 2482SOL    HW2 7457   2.958   4.299   1.951
 2483SOL     OW 7458   1.940   4.280   3.248
 2483SOL    HW1 7459   2.032   4.279   3.207
 2483SOL    HW2 7460   1.934   4.354   3.315
 2484SOL     OW 7461   2.423   3.946   3.009
 2484SOL    HW1 7462   2.461   3.862   3.046
 2484SOL    HW2 7463   2.335   3.965   3.053
 2485SOL     OW 7464   2.728   4.178   2.504
 2485SOL    HW1 7465   2.696   4.250   2.442
 2485SOL    HW2 7466   2.752   4.097   2.451
 2486SOL     OW 7467   2.879   3.763   2.615
 2486SOL    HW1 7468   2.807   3.768   2.546
 2486SOL    HW2 7469   2.855   3.694   2.684
 2487SOL     OW 7470   3.328   4.314   2.854
 2487SOL    HW1 7471   3.298   4.219   2.861
 2487SOL    HW2 7472   3.401   4.330   2.920
 2488SOL     OW 7473   3.719   4.557   2.239
 2488SOL    HW1 7474   3.761   4.493   2.303
 2488SOL    HW2 7475   3.681   4.506   2.161
 2489SOL     OW 7476   3.252   4.299   1.940
 2489SOL    HW1 7477   3.198   4.278   2.021
 2489SOL    HW2 7478   3.343   4.258   1.949
 2490SOL     OW 7479   2.389   3.980   2.190
 2490SOL    HW1 7480   2.416   3.921   2.115
 2490SOL    HW2 7481   2.389   4.075   2.159
 2491SOL     OW 7482   2.777   3.813   3.264
 2491SOL    HW1 7483   2.802   3.793   3.169
 2491SOL    HW2 7484   2.849   3.869   3.306
 2492SOL     OW 7485   2.567   4.774   2.230
 2492SOL    HW1 7486   2.553   4.781   2.329
 2492SOL    HW2 7487   2.651   4.723   2.212
 2493SOL     OW 7488   2.272   4.537   3.113
 2493SOL    HW1 7489   2.358   4.549   3.163
 2493SOL    HW2 7490   2.230   4.450   3.140
 2494SOL     OW 7491   3.136   4.110   3.124
 2494SOL    HW1 7492   3.157   4.184   3.188
 2494SOL    HW2 7493   3.047   4.127   3.081
 2495SOL     OW 7494   2.428   4.261   2.727
 2495SOL    HW1 7495   2.440   4.327   2.653
 2495SOL    HW2 7496   2.474   4.295   2.810
 2496SOL     OW 7497   3.444   4.363   2.334
 2496SOL    HW1 7498   3.413   4.424   2.407
 2496SOL    HW2 7499   3.494   4.415   2.265
 2497SOL     OW 7500   2.264   4.475   3.460
 2497SOL    HW1 7501   2.332   4.530   3.413
 2497SOL    HW2 7502   2.304   4.387   3.487
 2498SOL     OW 7503   3.449   4.503   3.532
 2498SOL    HW1 7504   3.357   4.541   3.527
 2498SOL    HW2 7505   3.509   4.550   3.467
 2499SOL     OW 7506   2.875   3.829   3.632
 2499SOL    HW1 7507   2.881   3.914   3.580
 2499SOL    HW2 7508   2.907   3.753   3.575
 2500SOL     OW 7509   2.366   3.774   3.602
 2500SOL    HW1 7510   2.324   3.717   3.532
 2500SOL    HW2 7511   2.300   3.843   3.634
 2501SOL     OW 7512   2.435   4.594   2.891
 2501SOL    HW1 7513   2.479   4.683   2.882
 2501SOL    HW2 7514   2.372   4.594   2.968
 2502SOL     OW 7515   3.222   4.586   2.907
 2502SOL    HW1 7516   3.147   4.586   2.841
 2502SOL    HW2 7517   3.259   4.494   2.916
 2503SOL     OW 7518   3.071   4.249   2.137
 2503SOL    HW1 7519   3.084   4.165   2.191
 2503SOL    HW2 7520   3.042   4.323   2.197
 2504SOL     OW 7521   2.169   3.937   3.093
 2504SOL    HW1 7522   2.146   3.974   3.183
 2504SOL    HW2 7523   2.139   3.842   3.087
 2505SOL     OW 7524   2.594   4.358   2.926
 2505SOL    HW1 7525   2.653   4.332   2.850
 2505SOL    HW2 7526   2.566   4.454   2.915
 2506SOL     OW 7527   3.590   4.659   3.716
 2506SOL    HW1 7528   3.544   4.652   3.627
 2506SOL    HW2 7529   3.528   4.703   3.782
 2507SOL     OW 7530   2.169   3.787   2.480
 2507SOL    HW1 7531   2.158   3.881   2.513
 2507SOL    HW2 7532   2.164   3.724   2.557
 2508SOL     OW 7533   3.484   4.091   2.236
 2508SOL    HW1 7534   3.486   4.015   2.300
 2508SOL    HW2 7535   3.436   4.168   2.276
 2509SOL     OW 7536   3.402   3.998   1.987
 2509SOL    HW1 7537   3.341   3.923   2.010
 2509SOL    HW2 7538   3.424   4.050   2.070
 2510SOL     OW 7539   2.181   4.534   2.811
 2510SOL    HW1 7540   2.274   4.570   2.816
 2510SOL    HW2 7541   2.175   4.449   2.863
 2511SOL     OW 7542   2.201   4.233   2.868
 2511SOL    HW1 7543   2.149   4.150   2.851
 2511SOL    HW2 7544   2.278   4.238   2.804
 2512SOL     OW 7545   3.000   4.104   3.540
 2512SOL    HW1 7546   2.955   4.167   3.604
 2512SOL    HW2 7547   3.093   4.135   3.523
 2513SOL     OW 7548   3.022   3.931   3.339
 2513SOL    HW1 7549   3.022   3.995   3.416
 2513SOL    HW2 7550   3.050   3.979   3.256
 2514SOL     OW 7551   1.902   4.268   2.976
 2514SOL    HW1 7552   1.987   4.235   2.935
 2514SOL    HW2 7553   1.915   4.283   3.074
 2515SOL     OW 7554   2.051   4.244   3.584
 2515SOL    HW1 7555   2.110   4.204   3.514
 2515SOL    HW2 7556   1.993   4.315   3.543
 2516SOL     OW 7557   2.677   4.296   2.187
 2516SOL    HW1 7558   2.684   4.207   2.141
 2516SOL    HW2 7559   2.583   4.330   2.179
 2517SOL     OW 7560   3.519   4.328   3.068
 2517SOL    HW1 7561   3.481   4.259   3.130
 2517SOL    HW2 7562   3.601   4.292   3.024
 2518SOL     OW 7563   2.533   4.188   3.131
 2518SOL    HW1 7564   2.499   4.099   3.101
 2518SOL    HW2 7565   2.559   4.242   3.051
 2519SOL     OW 7566   2.335   4.224   2.053
 2519SOL    HW1 7567   2.396   4.304   2.057
 2519SOL    HW2 7568   2.240   4.255   2.060
 2520SOL     OW 7569   3.588   3.859   2.385
 2520SOL    HW1 7570   3.661   3.842   2.318
 2520SOL    HW2 7571   3.557   3.772   2.423
 2521SOL     OW 7572   3.142   4.651   2.534
 2521SOL    HW1 7573   3.202   4.570   2.536
 2521SOL    HW2 7574   3.182   4.720   2.474
 2522SOL     OW 7575   3.703   3.899   2.825
 2522SOL    HW1 7576   3.742   3.814   2.789
 2522SOL    HW2 7577   3.605   3.901   2.806
 2523SOL     OW 7578   2.125   4.050   2.582
 2523SOL    HW1 7579   2.046   4.101   2.548
 2523SOL    HW2 7580   2.116   4.035   2.680
 2524SOL     OW 7581   2.778   4.634   2.153
 2524SOL    HW1 7582   2.841   4.672   2.085
 2524SOL    HW2 7583   2.818   4.551   2.192
 2525SOL     OW 7584   2.876   3.960   2.833
 2525SOL    HW1 7585   2.868   3.924   2.740
 2525SOL    HW2 7586   2.874   3.884   2.898
 2526SOL     OW 7587   3.571   4.109   3.243
 2526SOL    HW1 7588   3.644   4.178   3.247
 2526SOL    HW2 7589   3.599   4.034   3.184
 2527SOL     OW 7590   1.967   4.737   3.588
 2527SOL    HW1 7591   1.890   4.704   3.642
 2527SOL    HW2 7592   2.052   4.707   3.630
 2528SOL     OW 7593   2.534   3.927   3.351
 2528SOL    HW1 7594   2.624   3.911   3.311
 2528SOL    HW2 7595   2.542   3.932   3.450
 2529SOL     OW 7596   1.937   4.069   1.895
 2529SOL    HW1 7597   1.845   4.041   1.866
 2529SOL    HW2 7598   1.968   4.146   1.839
 2530SOL     OW 7599   3.302   4.580   3.260
 2530SOL    HW1 7600   3.245   4.632   3.197
 2530SOL    HW2 7601   3.398   4.592   3.236
 2531SOL     OW 7602   1.934   3.890   2.180
 2531SOL    HW1 7603   1.917   3.973   2.126
 2531SOL    HW2 7604   2.024   3.853   2.158
 2532SOL     OW 7605   2.475   4.566   3.293
 2532SOL    HW1 7606   2.531   4.647   3.276
 2532SOL    HW2 7607   2.534   4.486   3.296
 2533SOL     OW 7608   2.578   4.289   3.570
 2533SOL    HW1 7609   2.597   4.354   3.644
 2533SOL    HW2 7610   2.638   4.209   3.579
 2534SOL     OW 7611   3.536   4.607   3.116
 2534SOL    HW1 7612   3.509   4.518   3.079
 2534SOL    HW2 7613   3.537   4.675   3.043
 2535SOL     OW 7614   3.087   4.049   2.311
 2535SOL    HW1 7615   3.152   3.975   2.300
 2535SOL    HW2 7616   3.107   4.099   2.395
 2536SOL     OW 7617   2.456   4.469   2.514
 2536SOL    HW1 7618   2.506   4.554   2.495
 2536SOL    HW2 7619   2.368   4.471   2.466
 2537SOL     OW 7620   3.639   4.066   3.504
 2537SOL    HW1 7621   3.622   4.097   3.410
 2537SOL    HW2 7622   3.555   4.029   3.542
 2538SOL     OW 7623   3.686   3.916   3.089
 2538SOL    HW1 7624   3.682   3.826   3.133
 2538SOL    HW2 7625   3.689   3.905   2.990
 2539SOL     OW 7626   2.290   4.148   2.382
 2539SOL    HW1 7627   2.320   4.076   2.320
 2539SOL    HW2 7628   2.251   4.108   2.465
 2540SOL     OW 7629   2.179   4.271   3.142
 2540SOL    HW1 7630   2.217   4.212   3.214
 2540SOL    HW2 7631   2.219   4.245   3.054
 2541SOL     OW 7632   3.286   3.938   2.974
 2541SOL    HW1 7633   3.338   3.873   3.029
 2541SOL    HW2 7634   3.237   4.001   3.035
 2542SOL     OW 7635   2.863   3.758   3.016
 2542SOL    HW1 7636   2.800   3.686   2.985
 2542SOL    HW2 7637   2.956   3.722   3.016
 2543SOL     OW 7638   3.214   3.776   2.030
 2543SOL    HW1 7639   3.249   3.735   1.946
 2543SOL    HW2 7640   3.124   3.738   2.050
 2544SOL     OW 7641   3.162   4.177   2.553
 2544SOL    HW1 7642   3.103   4.257   2.557
 2544SOL    HW2 7643   3.177   4.142   2.646
 2545SOL     OW 7644   3.455   3.945   2.744
 2545SOL    HW1 7645   3.371   3.944   2.798
 2545SOL    HW2 7646   3.457   4.028   2.688
 2546SOL     OW 7647   2.092   4.352   3.837
 2546SOL    HW1 7648   1.999   4.350   3.874
 2546SOL    HW2 7649   2.093   4.313   3.745
 2547SOL     OW 7650   1.881   4.092   4.371
 2547SOL    HW1 7651   1.799   4.135   4.410
 2547SOL    HW2 7652   1.853   4.019   4.308
 2548SOL     OW 7653   2.997   4.427   4.441
 2548SOL    HW1 7654   3.054   4.505   4.416
 2548SOL    HW2 7655   2.937   4.453   4.517
 2549SOL     OW 7656   3.617   4.331   3.955
 2549SOL    HW1 7657   3.605   4.318   3.856
 2549SOL    HW2 7658   3.587   4.250   4.004
 2550SOL     OW 7659   2.547   4.736   4.389
 2550SOL    HW1 7660   2.616   4.720   4.459
 2550SOL    HW2 7661   2.474   4.793   4.427
 2551SOL     OW 7662   3.465   4.171   4.461
 2551SOL    HW1 7663   3.391   4.217   4.411
 2551SOL    HW2 7664   3.516   4.239   4.514
 2552SOL     OW 7665   1.984   4.367   4.287
 2552SOL    HW1 7666   1.939   4.279   4.304
 2552SOL    HW2 7667   1.983   4.421   4.371
 2553SOL     OW 7668   2.671   3.728   4.226
 2553SOL    HW1 7669   2.711   3.819   4.217
 2553SOL    HW2 7670   2.571   3.736   4.232
 2554SOL     OW 7671   2.460   4.453   3.994
 2554SOL    HW1 7672   2.484   4.522   3.926
 2554SOL    HW2 7673   2.382   4.486   4.048
 2555SOL     OW 7674   3.143   4.069   4.668
 2555SOL    HW1 7675   3.057   4.019   4.655
 2555SOL    HW2 7676   3.205   4.015   4.724
 2556SOL     OW 7677   2.903   4.425   4.153
 2556SOL    HW1 7678   2.929   4.421   4.249
 2556SOL    HW2 7679   2.818   4.374   4.139
 2557SOL     OW 7680   1.938   4.535   4.513
 2557SOL    HW1 7681   2.037   4.523   4.522
 2557SOL    HW2 7682   1.914   4.630   4.534
 2558SOL     OW 7683   2.727   4.072   3.919
 2558SOL    HW1 7684   2.786   4.135   3.870
 2558SOL    HW2 7685   2.746   3.978   3.890
 2559SOL     OW 7686   2.412   3.920   4.609
 2559SOL    HW1 7687   2.407   3.915   4.709
 2559SOL    HW2 7688   2.414   4.016   4.580
 2560SOL     OW 7689   3.320   4.459   4.452
 2560SOL    HW1 7690   3.315   4.394   4.527
 2560SOL    HW2 7691   3.400   4.518   4.465
 2561SOL     OW 7692   3.262   3.831   4.150
 2561SOL    HW1 7693   3.238   3.794   4.060
 2561SOL    HW2 7694   3.361   3.847   4.154
 2562SOL     OW 7695   2.244   4.424   4.204
 2562SOL    HW1 7696   2.289   4.334   4.201
 2562SOL    HW2 7697   2.150   4.413   4.237
 2563SOL     OW 7698   2.476   3.846   3.841
 2563SOL    HW1 7699   2.574   3.824   3.848
 2563SOL    HW2 7700   2.445   3.829   3.748
 2564SOL     OW 7701   2.401   3.788   4.236
 2564SOL    HW1 7702   2.320   3.789   4.294
 2564SOL    HW2 7703   2.404   3.871   4.181
 2565SOL     OW 7704   2.159   3.759   3.895
 2565SOL    HW1 7705   2.208   3.843   3.874
 2565SOL    HW2 7706   2.221   3.694   3.940
 2566SOL     OW 7707   2.797   3.960   4.204
 2566SOL    HW1 7708   2.749   4.001   4.126
 2566SOL    HW2 7709   2.896   3.958   4.185
 2567SOL     OW 7710   2.321   4.876   4.465
 2567SOL    HW1 7711   2.250   4.849   4.530
 2567SOL    HW2 7712   2.295   4.848   4.372
 2568SOL     OW 7713   2.894   4.273   3.740
 2568SOL    HW1 7714   2.853   4.355   3.701
 2568SOL    HW2 7715   2.958   4.299   3.813
 2569SOL     OW 7716   2.728   4.178   4.366
 2569SOL    HW1 7717   2.696   4.250   4.304
 2569SOL    HW2 7718   2.752   4.097   4.313
 2570SOL     OW 7719   2.879   3.763   4.477
 2570SOL    HW1 7720   2.807   3.768   4.408
 2570SOL    HW2 7721   2.855   3.694   4.546
 2571SOL     OW 7722   3.291   4.897   4.591
 2571SOL    HW1 7723   3.236   4.813   4.584
 2571SOL    HW2 7724   3.317   4.926   4.499
 2572SOL     OW 7725   3.719   4.557   4.101
 2572SOL    HW1 7726   3.761   4.493   4.165
 2572SOL    HW2 7727   3.681   4.506   4.023
 2573SOL     OW 7728   3.252   4.299   3.802
 2573SOL    HW1 7729   3.198   4.278   3.883
 2573SOL    HW2 7730   3.343   4.258   3.811
 2574SOL     OW 7731   2.389   3.980   4.052
 2574SOL    HW1 7732   2.416   3.921   3.977
 2574SOL    HW2 7733   2.389   4.075   4.021
 2575SOL     OW 7734   2.567   4.774   4.092
 2575SOL    HW1 7735   2.553   4.781   4.191
 2575SOL    HW2 7736   2.651   4.723   4.074
 2576SOL     OW 7737   2.428   4.261   4.589
 2576SOL    HW1 7738   2.440   4.327   4.515
 2576SOL    HW2 7739   2.474   4.295   4.672
 2577SOL     OW 7740   3.444   4.363   4.196
 2577SOL    HW1 7741   3.413   4.424   4.269
 2577SOL    HW2 7742   3.494   4.415   4.127
 2578SOL     OW 7743   3.071   4.249   3.999
 2578SOL    HW1 7744   3.084   4.165   4.053
 2578SOL    HW2 7745   3.042   4.323   4.059
 2579SOL     OW 7746   2.169   3.787   4.342
 2579SOL    HW1 7747   2.158   3.881   4.375
 2579SOL    HW2 7748   2.164   3.724   4.419
 2580SOL     OW 7749   3.484   4.091   4.098
 2580SOL    HW1 7750   3.486   4.015   4.162
 2580SOL    HW2 7751   3.436   4.168   4.138
 2581SOL     OW 7752   3.402   3.998   3.849
 2581SOL    HW1 7753   3.341   3.923   3.872
 2581SOL    HW2 7754   3.424   4.050   3.932
 2582SOL     OW 7755   2.677   4.296   4.049
 2582SOL    HW1 7756   2.684   4.207   4.003
 2582SOL    HW2 7757   2.583   4.330   4.041
 2583SOL     OW 7758   2.335   4.224   3.915
 2583SOL    HW1 7759   2.396   4.304   3.919
 2583SOL    HW2 7760   2.240   4.255   3.922
 2584SOL     OW 7761   3.588   3.859   4.247
 2584SOL    HW1 7762   3.661   3.842   4.180
 2584SOL    HW2 7763   3.557   3.772   4.285
 2585SOL     OW 7764   3.142   4.651   4.396
 2585SOL    HW1 7765   3.202   4.570   4.398
 2585SOL    HW2 7766   3.182   4.720   4.336
 2586SOL     OW 7767   3.703   3.899   4.687
 2586SOL    HW1 7768   3.742   3.814   4.651
 2586SOL    HW2 7769   3.605   3.901   4.668
 2587SOL     OW 7770   2.125   4.050   4.444
 2587SOL    HW1 7771   2.046   4.101   4.410
 2587SOL    HW2 7772   2.116   4.035   4.542
 2588SOL     OW 7773   2.778   4.634   4.015
 2588SOL    HW1 7774   2.841   4.672   3.947
 2588SOL    HW2 7775   2.818   4.551   4.054
 2589SOL     OW 7776   1.937   4.069   3.757
 2589SOL    HW1 7777   1.845   4.041   3.728
 2589SOL    HW2 7778   1.968   4.146   3.701
 2590SOL     OW 7779   1.934   3.890   4.042
 2590SOL    HW1 7780   1.917   3.973   3.988
 2590SOL    HW2 7781   2.024   3.853   4.020
 2591SOL     OW 7782   3.087   4.049   4.173
 2591SOL    HW1 7783   3.152   3.975   4.162
 2591SOL    HW2 7784   3.107   4.099   4.257
 2592SOL     OW 7785   2.456   4.469   4.376
 2592SOL    HW1 7786   2.506   4.554   4.357
 2592SOL    HW2 7787   2.368   4.471   4.328
 2593SOL     OW 7788   2.290   4.148   4.244
 2593SOL    HW1 7789   2.320   4.076   4.182
 2593SOL    HW2 7790   2.251   4.108   4.327
 2594SOL     OW 7791   3.214   3.776   3.892
 2594SOL    HW1 7792   3.249   3.735   3.808
 2594SOL    HW2 7793   3.124   3.738   3.912
 2595SOL     OW 7794   3.162   4.177   4.415
 2595SOL    HW1 7795   3.103   4.257   4.419
 2595SOL    HW2 7796   3.177   4.142   4.508
 2596SOL     OW 7797   3.954   0.628   0.113
 2596SOL    HW1 7798   3.861   0.626   0.150
 2596SOL    HW2 7799   3.955   0.589   0.021
 2597SOL     OW 7800   3.949   0.275   0.996
 2597SOL    HW1 7801   3.984   0.258   1.088
 2597SOL    HW2 7802   3.861   0.230   0.984
 2598SOL     OW 7803   3.743   0.368   0.647
 2598SOL    HW1 7804   3.661   0.411   0.686
 2598SOL    HW2 7805   3.715   0.295   0.584
 2599SOL     OW 7806   4.293   1.275   1.165
 2599SOL    HW1 7807   4.200   1.268   1.128
 2599SOL    HW2 7808   4.304   1.364   1.209
 2600SOL     OW 7809   4.574   0.798   1.823
 2600SOL    HW1 7810   4.570   0.874   1.888
 2600SOL    HW2 7811   4.596   0.834   1.732
 2601SOL     OW 7812   4.409   1.012   0.665
 2601SOL    HW1 7813   4.478   0.996   0.735
 2601SOL    HW2 7814   4.336   1.069   0.703
 2602SOL     OW 7815   4.410   1.161   1.803
 2602SOL    HW1 7816   4.470   1.240   1.817
 2602SOL    HW2 7817   4.324   1.192   1.762
 2603SOL     OW 7818   4.059   1.435   1.061
 2603SOL    HW1 7819   3.981   1.404   1.008
 2603SOL    HW2 7820   4.117   1.493   1.004
 2604SOL     OW 7821   4.162   0.392   1.499
 2604SOL    HW1 7822   4.244   0.336   1.508
 2604SOL    HW2 7823   4.081   0.334   1.503
 2605SOL     OW 7824   3.955   1.713   0.483
 2605SOL    HW1 7825   3.989   1.790   0.537
 2605SOL    HW2 7826   3.999   1.713   0.393
 2606SOL     OW 7827   3.954   1.434   0.538
 2606SOL    HW1 7828   3.928   1.530   0.538
 2606SOL    HW2 7829   3.883   1.380   0.583
 2607SOL     OW 7830   3.964   1.091   0.886
 2607SOL    HW1 7831   3.978   1.007   0.938
 2607SOL    HW2 7832   3.909   1.155   0.941
 2608SOL     OW 7833   4.344   1.786   1.439
 2608SOL    HW1 7834   4.252   1.769   1.474
 2608SOL    HW2 7835   4.372   1.878   1.465
 2609SOL     OW 7836   4.330   0.964   0.123
 2609SOL    HW1 7837   4.337   1.048   0.069
 2609SOL    HW2 7838   4.376   0.977   0.211
 2610SOL     OW 7839   3.846   0.643   0.563
 2610SOL    HW1 7840   3.801   0.555   0.580
 2610SOL    HW2 7841   3.845   0.697   0.647
 2611SOL     OW 7842   3.751   1.596   0.117
 2611SOL    HW1 7843   3.732   1.500   0.138
 2611SOL    HW2 7844   3.718   1.654   0.192
 2612SOL     OW 7845   3.837   0.737   1.597
 2612SOL    HW1 7846   3.925   0.724   1.642
 2612SOL    HW2 7847   3.824   0.834   1.575
 2613SOL     OW 7848   4.337   1.365   0.726
 2613SOL    HW1 7849   4.288   1.278   0.735
 2613SOL    HW2 7850   4.314   1.408   0.639
 2614SOL     OW 7851   4.533   0.004   0.502
 2614SOL    HW1 7852   4.573   0.095   0.493
 2614SOL    HW2 7853   4.433   0.012   0.508
 2615SOL     OW 7854   3.921   0.976   1.264
 2615SOL    HW1 7855   4.010   0.931   1.250
 2615SOL    HW2 7856   3.848   0.911   1.245
 2616SOL     OW 7857   4.041   0.251   1.801
 2616SOL    HW1 7858   4.112   0.322   1.807
 2616SOL    HW2 7859   3.953   0.290   1.829
 2617SOL     OW 7860   4.322   0.729   0.270
 2617SOL    HW1 7861   4.346   0.798   0.202
 2617SOL    HW2 7862   4.244   0.762   0.324
 2618SOL     OW 7863   3.800   0.811   0.789
 2618SOL    HW1 7864   3.899   0.799   0.798
 2618SOL    HW2 7865   3.776   0.906   0.810
 2619SOL     OW 7866   3.854   1.821   1.571
 2619SOL    HW1 7867   3.844   1.806   1.670
 2619SOL    HW2 7868   3.768   1.857   1.535
 2620SOL     OW 7869   4.274   0.196   0.885
 2620SOL    HW1 7870   4.269   0.191   0.985
 2620SOL    HW2 7871   4.276   0.292   0.856
 2621SOL     OW 7872   4.075   1.801   0.853
 2621SOL    HW1 7873   4.125   1.715   0.859
 2621SOL    HW2 7874   4.140   1.878   0.850
 2622SOL     OW 7875   4.045   0.943   0.242
 2622SOL    HW1 7876   4.127   0.982   0.200
 2622SOL    HW2 7877   4.018   0.861   0.193
 2623SOL     OW 7878   4.185   1.266   1.727
 2623SOL    HW1 7879   4.135   1.267   1.641
 2623SOL    HW2 7880   4.122   1.248   1.803
 2624SOL     OW 7881   3.926   0.285   1.498
 2624SOL    HW1 7882   3.846   0.345   1.485
 2624SOL    HW2 7883   3.916   0.236   1.584
 2625SOL     OW 7884   4.188   1.743   0.323
 2625SOL    HW1 7885   4.221   1.782   0.409
 2625SOL    HW2 7886   4.264   1.736   0.258
 2626SOL     OW 7887   3.973   1.785   1.241
 2626SOL    HW1 7888   4.030   1.720   1.291
 2626SOL    HW2 7889   3.957   1.752   1.148
 2627SOL     OW 7890   4.106   0.700   0.480
 2627SOL    HW1 7891   4.151   0.610   0.477
 2627SOL    HW2 7892   4.012   0.689   0.513
 2628SOL     OW 7893   4.338   0.122   0.117
 2628SOL    HW1 7894   4.436   0.100   0.124
 2628SOL    HW2 7895   4.307   0.105   0.024
 2629SOL     OW 7896   4.527   1.402   0.924
 2629SOL    HW1 7897   4.617   1.416   0.882
 2629SOL    HW2 7898   4.456   1.404   0.853
 2630SOL     OW 7899   4.646   0.503   0.899
 2630SOL    HW1 7900   4.621   0.494   0.803
 2630SOL    HW2 7901   4.694   0.421   0.930
 2631SOL     OW 7902   4.263   0.064   0.512
 2631SOL    HW1 7903   4.182   0.065   0.570
 2631SOL    HW2 7904   4.266   0.147   0.457
 2632SOL     OW 7905   4.021   0.035   0.171
 2632SOL    HW1 7906   4.070   0.119   0.150
 2632SOL    HW2 7907   4.083  -0.030   0.216
 2633SOL     OW 7908   4.183   1.152   0.741
 2633SOL    HW1 7909   4.112   1.125   0.806
 2633SOL    HW2 7910   4.157   1.124   0.648
 2634SOL     OW 7911   3.802   0.556   1.386
 2634SOL    HW1 7912   3.894   0.555   1.345
 2634SOL    HW2 7913   3.796   0.630   1.453
 2635SOL     OW 7914   4.285   0.222   1.147
 2635SOL    HW1 7915   4.323   0.138   1.184
 2635SOL    HW2 7916   4.197   0.241   1.191
 2636SOL     OW 7917   4.212   1.385   0.174
 2636SOL    HW1 7918   4.125   1.370   0.221
 2636SOL    HW2 7919   4.195   1.411   0.079
 2637SOL     OW 7920   4.251   0.256   0.328
 2637SOL    HW1 7921   4.278   0.197   0.253
 2637SOL    HW2 7922   4.251   0.351   0.297
 2638SOL     OW 7923   4.639   0.089   1.402
 2638SOL    HW1 7924   4.664   0.069   1.307
 2638SOL    HW2 7925   4.711   0.145   1.444
 2639SOL     OW 7926   4.134   0.813   1.251
 2639SOL    HW1 7927   4.220   0.825   1.301
 2639SOL    HW2 7928   4.092   0.726   1.278
 2640SOL     OW 7929   3.788   1.564   1.331
 2640SOL    HW1 7930   3.742   1.646   1.297
 2640SOL    HW2 7931   3.886   1.583   1.340
 2641SOL     OW 7932   4.091   1.100   0.501
 2641SOL    HW1 7933   4.084   1.183   0.445
 2641SOL    HW2 7934   4.095   1.020   0.441
 2642SOL     OW 7935   4.290   0.537   0.865
 2642SOL    HW1 7936   4.302   0.603   0.791
 2642SOL    HW2 7937   4.336   0.571   0.948
 2643SOL     OW 7938   4.078   1.510   1.329
 2643SOL    HW1 7939   4.057   1.466   1.242
 2643SOL    HW2 7940   4.175   1.536   1.332
 2644SOL     OW 7941   4.126   0.751   1.598
 2644SOL    HW1 7942   4.194   0.806   1.551
 2644SOL    HW2 7943   4.166   0.663   1.625
 2645SOL     OW 7944   4.228   0.050   1.740
 2645SOL    HW1 7945   4.186  -0.007   1.670
 2645SOL    HW2 7946   4.162   0.119   1.772
 2646SOL     OW 7947   4.297   0.870   1.029
 2646SOL    HW1 7948   4.341   0.959   1.020
 2646SOL    HW2 7949   4.234   0.870   1.106
 2647SOL     OW 7950   4.031   0.213   1.231
 2647SOL    HW1 7951   4.008   0.250   1.321
 2647SOL    HW2 7952   4.001   0.118   1.225
 2648SOL     OW 7953   3.761   1.310   1.282
 2648SOL    HW1 7954   3.814   1.261   1.350
 2648SOL    HW2 7955   3.783   1.408   1.287
 2649SOL     OW 7956   4.456   0.634   1.064
 2649SOL    HW1 7957   4.515   0.608   0.988
 2649SOL    HW2 7958   4.428   0.730   1.053
 2650SOL     OW 7959   4.031   0.063   0.618
 2650SOL    HW1 7960   4.020   0.157   0.651
 2650SOL    HW2 7961   4.026   0.000   0.695
 2651SOL     OW 7962   4.747   0.766   0.966
 2651SOL    HW1 7963   4.762   0.787   1.062
 2651SOL    HW2 7964   4.717   0.671   0.957
 2652SOL     OW 7965   4.074   0.898   1.804
 2652SOL    HW1 7966   4.150   0.942   1.852
 2652SOL    HW2 7967   4.109   0.851   1.722
 2653SOL     OW 7968   4.043   0.810   0.949
 2653SOL    HW1 7969   4.136   0.846   0.954
 2653SOL    HW2 7970   4.037   0.725   1.001
 2654SOL     OW 7971   4.063   0.509   1.006
 2654SOL    HW1 7972   4.011   0.426   0.989
 2654SOL    HW2 7973   4.140   0.514   0.942
 2655SOL     OW 7974   3.732   1.326   0.200
 2655SOL    HW1 7975   3.639   1.347   0.169
 2655SOL    HW2 7976   3.742   1.227   0.213
 2656SOL     OW 7977   3.812   1.801   0.927
 2656SOL    HW1 7978   3.770   1.715   0.900
 2656SOL    HW2 7979   3.906   1.804   0.893
 2657SOL     OW 7980   4.228   1.568   0.910
 2657SOL    HW1 7981   4.294   1.642   0.919
 2657SOL    HW2 7982   4.272   1.489   0.868
 2658SOL     OW 7983   3.764   0.544   1.114
 2658SOL    HW1 7984   3.849   0.511   1.073
 2658SOL    HW2 7985   3.777   0.559   1.212
 2659SOL     OW 7986   3.913   0.520   1.722
 2659SOL    HW1 7987   3.972   0.480   1.652
 2659SOL    HW2 7988   3.855   0.591   1.681
 2660SOL     OW 7989   4.539   0.572   0.325
 2660SOL    HW1 7990   4.546   0.483   0.279
 2660SOL    HW2 7991   4.445   0.606   0.317
 2661SOL     OW 7992   3.976   1.564   1.744
 2661SOL    HW1 7993   3.946   1.621   1.820
 2661SOL    HW2 7994   3.969   1.467   1.770
 2662SOL     OW 7995   4.395   0.464   1.269
 2662SOL    HW1 7996   4.361   0.375   1.239
 2662SOL    HW2 7997   4.421   0.518   1.189
 2663SOL     OW 7998   4.197   0.500   0.191
 2663SOL    HW1 7999   4.258   0.580   0.195
 2663SOL    HW2 8000   4.102   0.531   0.198
 2664SOL     OW 8001   3.883   1.137   1.466
 2664SOL    HW1 8002   3.905   1.076   1.542
 2664SOL    HW2 8003   3.893   1.088   1.380
 2665SOL     OW 8004   3.807   1.258   1.022
 2665SOL    HW1 8005   3.802   1.257   1.122
 2665SOL    HW2 8006   3.724   1.217   0.984
 2666SOL     OW 8007   4.412   1.662   1.716
 2666SOL    HW1 8008   4.356   1.743   1.725
 2666SOL    HW2 8009   4.464   1.666   1.630
 2667SOL     OW 8010   4.627   0.086   0.133
 2667SOL    HW1 8011   4.678   0.087   0.047
 2667SOL    HW2 8012   4.683   0.044   0.204
 2668SOL     OW 8013   3.854   1.794   1.851
 2668SOL    HW1 8014   3.813   1.720   1.904
 2668SOL    HW2 8015   3.918   1.845   1.909
 2669SOL     OW 8016   4.396   1.616   0.154
 2669SOL    HW1 8017   4.405   1.626   0.055
 2669SOL    HW2 8018   4.356   1.527   0.175
 2670SOL     OW 8019   3.987   0.326   0.720
 2670SOL    HW1 8020   3.908   0.377   0.686
 2670SOL    HW2 8021   3.978   0.311   0.818
 2671SOL     OW 8022   4.546   1.002   1.372
 2671SOL    HW1 8023   4.586   1.001   1.280
 2671SOL    HW2 8024   4.556   1.094   1.412
 2672SOL     OW 8025   4.096   1.288   1.490
 2672SOL    HW1 8026   4.083   1.381   1.456
 2672SOL    HW2 8027   4.012   1.236   1.477
 2673SOL     OW 8028   4.314   1.487   0.491
 2673SOL    HW1 8029   4.356   1.429   0.421
 2673SOL    HW2 8030   4.270   1.566   0.447
 2674SOL     OW 8031   3.979   1.348   0.290
 2674SOL    HW1 8032   3.883   1.349   0.263
 2674SOL    HW2 8033   3.991   1.401   0.374
 2675SOL     OW 8034   3.829   1.013   1.726
 2675SOL    HW1 8035   3.752   0.980   1.780
 2675SOL    HW2 8036   3.914   0.983   1.768
 2676SOL     OW 8037   4.396   0.203   1.489
 2676SOL    HW1 8038   4.486   0.187   1.449
 2676SOL    HW2 8039   4.404   0.208   1.588
 2677SOL     OW 8040   3.799   0.345   0.033
 2677SOL    HW1 8041   3.707   0.317   0.004
 2677SOL    HW2 8042   3.830   0.422  -0.023
 2678SOL     OW 8043   3.796   0.166   0.318
 2678SOL    HW1 8044   3.779   0.249   0.264
 2678SOL    HW2 8045   3.886   0.129   0.296
 2679SOL     OW 8046   4.337   0.842   1.431
 2679SOL    HW1 8047   4.393   0.923   1.414
 2679SOL    HW2 8048   4.396   0.762   1.434
 2680SOL     OW 8049   4.440   0.565   1.708
 2680SOL    HW1 8050   4.459   0.630   1.782
 2680SOL    HW2 8051   4.500   0.485   1.717
 2681SOL     OW 8052   4.114   1.741   1.560
 2681SOL    HW1 8053   4.023   1.782   1.558
 2681SOL    HW2 8054   4.107   1.647   1.592
 2682SOL     OW 8055   4.318   0.745   0.652
 2682SOL    HW1 8056   4.368   0.830   0.633
 2682SOL    HW2 8057   4.230   0.747   0.604
 2683SOL     OW 8058   4.385   1.790   0.953
 2683SOL    HW1 8059   4.339   1.878   0.940
 2683SOL    HW2 8060   4.484   1.802   0.946
 2684SOL     OW 8061   3.945   1.314   1.844
 2684SOL    HW1 8062   3.880   1.241   1.823
 2684SOL    HW2 8063   3.949   1.328   1.942
 2685SOL     OW 8064   3.803   1.240   0.653
 2685SOL    HW1 8065   3.802   1.193   0.741
 2685SOL    HW2 8066   3.885   1.212   0.602
 2686SOL     OW 8067   4.396   1.391   1.624
 2686SOL    HW1 8068   4.318   1.341   1.662
 2686SOL    HW2 8069   4.393   1.486   1.655
 2687SOL     OW 8070   4.152   0.424   0.520
 2687SOL    HW1 8071   4.182   0.352   0.458
 2687SOL    HW2 8072   4.113   0.384   0.603
 2688SOL     OW 8073   4.041   0.547   1.280
 2688SOL    HW1 8074   4.079   0.488   1.352
 2688SOL    HW2 8075   4.081   0.521   1.192
 2689SOL     OW 8076   4.536   1.586   0.687
 2689SOL    HW1 8077   4.568   1.596   0.593
 2689SOL    HW2 8078   4.457   1.524   0.689
 2690SOL     OW 8079   4.725   0.034   1.154
 2690SOL    HW1 8080   4.662  -0.038   1.123
 2690SOL    HW2 8081   4.818  -0.002   1.154
 2691SOL     OW 8082   4.342   1.567   1.284
 2691SOL    HW1 8083   4.337   1.649   1.341
 2691SOL    HW2 8084   4.431   1.564   1.239
 2692SOL     OW 8085   3.763   1.077   0.300
 2692SOL    HW1 8086   3.862   1.066   0.291
 2692SOL    HW2 8087   3.723   0.991   0.332
 2693SOL     OW 8088   3.954   0.628   1.975
 2693SOL    HW1 8089   3.861   0.626   2.012
 2693SOL    HW2 8090   3.955   0.589   1.883
 2694SOL     OW 8091   3.949   0.275   2.858
 2694SOL    HW1 8092   3.984   0.258   2.950
 2694SOL    HW2 8093   3.861   0.230   2.846
 2695SOL     OW 8094   3.743   0.368   2.509
 2695SOL    HW1 8095   3.661   0.411   2.548
 2695SOL    HW2 8096   3.715   0.295   2.446
 2696SOL     OW 8097   4.293   1.275   3.027
 2696SOL    HW1 8098   4.200   1.268   2.990
 2696SOL    HW2 8099   4.304   1.364   3.071
 2697SOL     OW 8100   4.574   0.798   3.685
 2697SOL    HW1 8101   4.570   0.874   3.750
 2697SOL    HW2 8102   4.596   0.834   3.594
 2698SOL     OW 8103   4.409   1.012   2.527
 2698SOL    HW1 8104   4.478   0.996   2.597
 2698SOL    HW2 8105   4.336   1.069   2.565
 2699SOL     OW 8106   4.410   1.161   3.665
 2699SOL    HW1 8107   4.470   1.240   3.679
 2699SOL    HW2 8108   4.324   1.192   3.624
 2700SOL     OW 8109   4.059   1.435   2.923
 2700SOL    HW1 8110   3.981   1.404   2.870
 2700SOL    HW2 8111   4.117   1.493   2.866
 2701SOL     OW 8112   4.162   0.392   3.361
 2701SOL    HW1 8113   4.244   0.336   3.370
 2701SOL    HW2 8114   4.081   0.334   3.365
 2702SOL     OW 8115   3.955   1.713   2.345
 2702SOL    HW1 8116   3.989   1.790   2.399
 2702SOL    HW2 8117   3.999   1.713   2.255
 2703SOL     OW 8118   3.954   1.434   2.400
 2703SOL    HW1 8119   3.928   1.530   2.400
 2703SOL    HW2 8120   3.883   1.380   2.445
 2704SOL     OW 8121   3.964   1.091   2.748
 2704SOL    HW1 8122   3.978   1.007   2.800
 2704SOL    HW2 8123   3.909   1.155   2.803
 2705SOL     OW 8124   4.344   1.786   3.301
 2705SOL    HW1 8125   4.252   1.769   3.336
 2705SOL    HW2 8126   4.372   1.878   3.327
 2706SOL     OW 8127   4.330   0.964   1.985
 2706SOL    HW1 8128   4.337   1.048   1.931
 2706SOL    HW2 8129   4.376   0.977   2.073
 2707SOL     OW 8130   3.846   0.643   2.425
 2707SOL    HW1 8131   3.801   0.555   2.442
 2707SOL    HW2 8132   3.845   0.697   2.509
 2708SOL     OW 8133   3.751   1.596   1.979
 2708SOL    HW1 8134   3.732   1.500   2.000
 2708SOL    HW2 8135   3.718   1.654   2.054
 2709SOL     OW 8136   3.837   0.737   3.459
 2709SOL    HW1 8137   3.925   0.724   3.504
 2709SOL    HW2 8138   3.824   0.834   3.437
 2710SOL     OW 8139   4.337   1.365   2.588
 2710SOL    HW1 8140   4.288   1.278   2.597
 2710SOL    HW2 8141   4.314   1.408   2.501
 2711SOL     OW 8142   4.533   0.004   2.364
 2711SOL    HW1 8143   4.573   0.095   2.355
 2711SOL    HW2 8144   4.433   0.012   2.370
 2712SOL     OW 8145   3.921   0.976   3.126
 2712SOL    HW1 8146   4.010   0.931   3.112
 2712SOL    HW2 8147   3.848   0.911   3.107
 2713SOL     OW 8148   4.041   0.251   3.663
 2713SOL    HW1 8149   4.112   0.322   3.669
 2713SOL    HW2 8150   3.953   0.290   3.691
 2714SOL     OW 8151   4.322   0.729   2.132
 2714SOL    HW1 8152   4.346   0.798   2.064
 2714SOL    HW2 8153   4.244   0.762   2.186
 2715SOL     OW 8154   3.800   0.811   2.651
 2715SOL    HW1 8155   3.899   0.799   2.660
 2715SOL    HW2 8156   3.776   0.906   2.672
 2716SOL     OW 8157   3.854   1.821   3.433
 2716SOL    HW1 8158   3.844   1.806   3.532
 2716SOL    HW2 8159   3.768   1.857   3.397
 2717SOL     OW 8160   4.274   0.196   2.747
 2717SOL    HW1 8161   4.269   0.191   2.847
 2717SOL    HW2 8162   4.276   0.292   2.718
 2718SOL     OW 8163   4.075   1.801   2.715
 2718SOL    HW1 8164   4.125   1.715   2.721
 2718SOL    HW2 8165   4.140   1.878   2.712
 2719SOL     OW 8166   4.045   0.943   2.104
 2719SOL    HW1 8167   4.127   0.982   2.062
 2719SOL    HW2 8168   4.018   0.861   2.055
 2720SOL     OW 8169   4.185   1.266   3.589
 2720SOL    HW1 8170   4.135   1.267   3.503
 2720SOL    HW2 8171   4.122   1.248   3.665
 2721SOL     OW 8172   3.926   0.285   3.360
 2721SOL    HW1 8173   3.846   0.345   3.347
 2721SOL    HW2 8174   3.916   0.236   3.446
 2722SOL     OW 8175   4.188   1.743   2.185
 2722SOL    HW1 8176   4.221   1.782   2.271
 2722SOL    HW2 8177   4.264   1.736   2.120
 2723SOL     OW 8178   3.973   1.785   3.103
 2723SOL    HW1 8179   4.030   1.720   3.153
 2723SOL    HW2 8180   3.957   1.752   3.010
 2724SOL     OW 8181   4.106   0.700   2.342
 2724SOL    HW1 8182   4.151   0.610   2.339
 2724SOL    HW2 8183   4.012   0.689   2.375
 2725SOL     OW 8184   4.338   0.122   1.979
 2725SOL    HW1 8185   4.436   0.100   1.986
 2725SOL    HW2 8186   4.307   0.105   1.886
 2726SOL     OW 8187   4.527   1.402   2.786
 2726SOL    HW1 8188   4.617   1.416   2.744
 2726SOL    HW2 8189   4.456   1.404   2.715
 2727SOL     OW 8190   4.646   0.503   2.761
 2727SOL    HW1 8191   4.621   0.494   2.665
 2727SOL    HW2 8192   4.694   0.421   2.792
 2728SOL     OW 8193   4.263   0.064   2.374
 2728SOL    HW1 8194   4.182   0.065   2.432
 2728SOL    HW2 8195   4.266   0.147   2.319
 2729SOL     OW 8196   4.021   0.035   2.033
 2729SOL    HW1 8197   4.070   0.119   2.012
 2729SOL    HW2 8198   4.083  -0.030   2.078
 2730SOL     OW 8199   4.183   1.152   2.603
 2730SOL    HW1 8200   4.112   1.125   2.668
 2730SOL    HW2 8201   4.157   1.124   2.510
 2731SOL     OW 8202   3.802   0.556   3.248
 2731SOL    HW1 8203   3.894   0.555   3.207
 2731SOL    HW2 8204   3.796   0.630   3.315
 2732SOL     OW 8205   4.285   0.222   3.009
 2732SOL    HW1 8206   4.323   0.138   3.046
 2732SOL    HW2 8207   4.197   0.241   3.053
 2733SOL     OW 8208   4.212   1.385   2.036
 2733SOL    HW1 8209   4.125   1.370   2.083
 2733SOL    HW2 8210   4.195   1.411   1.941
 2734SOL     OW 8211   4.251   0.256   2.190
 2734SOL    HW1 8212   4.278   0.197   2.115
 2734SOL    HW2 8213   4.251   0.351   2.159
 2735SOL     OW 8214   4.639   0.089   3.264
 2735SOL    HW1 8215   4.664   0.069   3.169
 2735SOL    HW2 8216   4.711   0.145   3.306
 2736SOL     OW 8217   4.134   0.813   3.113
 2736SOL    HW1 8218   4.220   0.825   3.163
 2736SOL    HW2 8219   4.092   0.726   3.140
 2737SOL     OW 8220   3.788   1.564   3.193
 2737SOL    HW1 8221   3.742   1.646   3.159
 2737SOL    HW2 8222   3.886   1.583   3.202
 2738SOL     OW 8223   4.091   1.100   2.363
 2738SOL    HW1 8224   4.084   1.183   2.307
 2738SOL    HW2 8225   4.095   1.020   2.303
 2739SOL     OW 8226   4.290   0.537   2.727
 2739SOL    HW1 8227   4.302   0.603   2.653
 2739SOL    HW2 8228   4.336   0.571   2.810
 2740SOL     OW 8229   4.078   1.510   3.191
 2740SOL    HW1 8230   4.057   1.466   3.104
 2740SOL    HW2 8231   4.175   1.536   3.194
 2741SOL     OW 8232   4.126   0.751   3.460
 2741SOL    HW1 8233   4.194   0.806   3.413
 2741SOL    HW2 8234   4.166   0.663   3.487
 2742SOL     OW 8235   4.228   0.050   3.602
 2742SOL    HW1 8236   4.186  -0.007   3.532
 2742SOL    HW2 8237   4.162   0.119   3.634
 2743SOL     OW 8238   4.297   0.870   2.891
 2743SOL    HW1 8239   4.341   0.959   2.882
 2743SOL    HW2 8240   4.234   0.870   2.968
 2744SOL     OW 8241   4.031   0.213   3.093
 2744SOL    HW1 8242   4.008   0.250   3.183
 2744SOL    HW2 8243   4.001   0.118   3.087
 2745SOL     OW 8244   3.761   1.310   3.144
 2745SOL    HW1 8245   3.814   1.261   3.212
 2745SOL    HW2 8246   3.783   1.408   3.149
 2746SOL     OW 8247   4.456   0.634   2.926
 2746SOL    HW1 8248   4.515   0.608   2.850
 2746SOL    HW2 8249   4.428   0.730   2.915
 2747SOL     OW 8250   4.031   0.063   2.480
 2747SOL    HW1 8251   4.020   0.157   2.513
 2747SOL    HW2 8252   4.026   0.000   2.557
 2748SOL     OW 8253   4.747   0.766   2.828
 2748SOL    HW1 8254   4.762   0.787   2.924
 2748SOL    HW2 8255   4.717   0.671   2.819
 2749SOL     OW 8256   4.074   0.898   3.666
 2749SOL    HW1 8257   4.150   0.942   3.714
 2749SOL    HW2 8258   4.109   0.851   3.584
 2750SOL     OW 8259   4.043   0.810   2.811
 2750SOL    HW1 8260   4.136   0.846   2.816
 2750SOL    HW2 8261   4.037   0.725   2.863
 2751SOL     OW 8262   4.063   0.509   2.868
 2751SOL    HW1 8263   4.011   0.426   2.851
 2751SOL    HW2 8264   4.140   0.514   2.804
 2752SOL     OW 8265   3.732   1.326   2.062
 2752SOL    HW1 8266   3.639   1.347   2.031
 2752SOL    HW2 8267   3.742   1.227   2.075
 2753SOL     OW 8268   3.812   1.801   2.789
 2753SOL    HW1 8269   3.770   1.715   2.762
 2753SOL    HW2 8270   3.906   1.804   2.755
 2754SOL     OW 8271   4.228   1.568   2.772
 2754SOL    HW1 8272   4.294   1.642   2.781
 2754SOL    HW2 8273   4.272   1.489   2.730
 2755SOL     OW 8274   3.764   0.544   2.976
 2755SOL    HW1 8275   3.849   0.511   2.935
 2755SOL    HW2 8276   3.777   0.559   3.074
 2756SOL     OW 8277   3.913   0.520   3.584
 2756SOL    HW1 8278   3.972   0.480   3.514
 2756SOL    HW2 8279   3.855   0.591   3.543
 2757SOL     OW 8280   4.539   0.572   2.187
 2757SOL    HW1 8281   4.546   0.483   2.141
 2757SOL    HW2 8282   4.445   0.606   2.179
 2758SOL     OW 8283   3.976   1.564   3.606
 2758SOL    HW1 8284   3.946   1.621   3.682
 2758SOL    HW2 8285   3.969   1.467   3.632
 2759SOL     OW 8286   4.395   0.464   3.131
 2759SOL    HW1 8287   4.361   0.375   3.101
 2759SOL    HW2 8288   4.421   0.518   3.051
 2760SOL     OW 8289   4.197   0.500   2.053
 2760SOL    HW1 8290   4.258   0.580   2.057
 2760SOL    HW2 8291   4.102   0.531   2.060
 2761SOL     OW 8292   3.883   1.137   3.328
 2761SOL    HW1 8293   3.905   1.076   3.404
 2761SOL    HW2 8294   3.893   1.088   3.242
 2762SOL     OW 8295   3.807   1.258   2.884
 2762SOL    HW1 8296   3.802   1.257   2.984
 2762SOL    HW2 8297   3.724   1.217   2.846
 2763SOL     OW 8298   4.412   1.662   3.578
 2763SOL    HW1 8299   4.356   1.743   3.587
 2763SOL    HW2 8300   4.464   1.666   3.492
 2764SOL     OW 8301   3.854   1.794   3.713
 2764SOL    HW1 8302   3.813   1.720   3.766
 2764SOL    HW2 8303   3.918   1.845   3.771
 2765SOL     OW 8304   4.396   1.616   2.016
 2765SOL    HW1 8305   4.405   1.626   1.917
 2765SOL    HW2 8306   4.356   1.527   2.037
 2766SOL     OW 8307   3.987   0.326   2.582
 2766SOL    HW1 8308   3.908   0.377   2.548
 2766SOL    HW2 8309   3.978   0.311   2.680
 2767SOL     OW 8310   4.546   1.002   3.234
 2767SOL    HW1 8311   4.586   1.001   3.142
 2767SOL    HW2 8312   4.556   1.094   3.274
 2768SOL     OW 8313   4.096   1.288   3.352
 2768SOL    HW1 8314   4.083   1.381   3.318
 2768SOL    HW2 8315   4.012   1.236   3.339
 2769SOL     OW 8316   4.314   1.487   2.353
 2769SOL    HW1 8317   4.356   1.429   2.283
 2769SOL    HW2 8318   4.270   1.566   2.309
 2770SOL     OW 8319   3.979   1.348   2.152
 2770SOL    HW1 8320   3.883   1.349   2.125
 2770SOL    HW2 8321   3.991   1.401   2.236
 2771SOL     OW 8322   3.829   1.013   3.588
 2771SOL    HW1 8323   3.752   0.980   3.642
 2771SOL    HW2 8324   3.914   0.983   3.630
 2772SOL     OW 8325   4.396   0.203   3.351
 2772SOL    HW1 8326   4.486   0.187   3.311
 2772SOL    HW2 8327   4.404   0.208   3.450
 2773SOL     OW 8328   3.799   0.345   1.895
 2773SOL    HW1 8329   3.707   0.317   1.866
 2773SOL    HW2 8330   3.830   0.422   1.839
 2774SOL     OW 8331   3.796   0.166   2.180
 2774SOL    HW1 8332   3.779   0.249   2.126
 2774SOL    HW2 8333   3.886   0.129   2.158
 2775SOL     OW 8334   4.337   0.842   3.293
 2775SOL    HW1 8335   4.393   0.923   3.276
 2775SOL    HW2 8336   4.396   0.762   3.296
 2776SOL     OW 8337   4.440   0.565   3.570
 2776SOL    HW1 8338   4.459   0.630   3.644
 2776SOL    HW2 8339   4.500   0.485   3.579
 2777SOL     OW 8340   4.114   1.741   3.422
 2777SOL    HW1 8341   4.023   1.782   3.420
 2777SOL    HW2 8342   4.107   1.647   3.454
 2778SOL     OW 8343   4.318   0.745   2.514
 2778SOL    HW1 8344   4.368   0.830   2.495
 2778SOL    HW2 8345   4.230   0.747   2.466
 2779SOL     OW 8346   4.385   1.790   2.815
 2779SOL    HW1 8347   4.339   1.878   2.802
 2779SOL    HW2 8348   4.484   1.802   2.808
 2780SOL     OW 8349   3.945   1.314   3.706
 2780SOL    HW1 8350   3.880   1.241   3.685
 2780SOL    HW2 8351   3.949   1.328   3.804
 2781SOL     OW 8352   3.803   1.240   2.515
 2781SOL    HW1 8353   3.802   1.193   2.603
 2781SOL    HW2 8354   3.885   1.212   2.464
 2782SOL     OW 8355   4.396   1.391   3.486
 2782SOL    HW1 8356   4.318   1.341   3.524
 2782SOL    HW2 8357   4.393   1.486   3.517
 2783SOL     OW 8358   4.152   0.424   2.382
 2783SOL    HW1 8359   4.182   0.352   2.320
 2783SOL    HW2 8360   4.113   0.384   2.465
 2784SOL     OW 8361   4.041   0.547   3.142
 2784SOL    HW1 8362   4.079   0.488   3.214
 2784SOL    HW2 8363   4.081   0.521   3.054
 2785SOL     OW 8364   4.536   1.586   2.549
 2785SOL    HW1 8365   4.568   1.596   2.455
 2785SOL    HW2 8366   4.457   1.524   2.551
 2786SOL     OW 8367   4.725   0.034   3.016
 2786SOL    HW1 8368   4.662  -0.038   2.985
 2786SOL    HW2 8369   4.818  -0.002   3.016
 2787SOL     OW 8370   4.342   1.567   3.146
 2787SOL    HW1 8371   4.337   1.649   3.203
 2787SOL    HW2 8372   4.431   1.564   3.101
 2788SOL     OW 8373   3.763   1.077   2.162
 2788SOL    HW1 8374   3.862   1.066   2.153
 2788SOL    HW2 8375   3.723   0.991   2.194
 2789SOL     OW 8376   3.954   0.628   3.837
 2789SOL    HW1 8377   3.861   0.626   3.874
 2789SOL    HW2 8378   3.955   0.589   3.745
 2790SOL     OW 8379   3.743   0.368   4.371
 2790SOL    HW1 8380   3.661   0.411   4.410
 2790SOL    HW2 8381   3.715   0.295   4.308
 2791SOL     OW 8382   4.409   1.012   4.389
 2791SOL    HW1 8383   4.478   0.996   4.459
 2791SOL    HW2 8384   4.336   1.069   4.427
 2792SOL     OW 8385   3.955   1.713   4.207
 2792SOL    HW1 8386   3.989   1.790   4.261
 2792SOL    HW2 8387   3.999   1.713   4.117
 2793SOL     OW 8388   3.954   1.434   4.262
 2793SOL    HW1 8389   3.928   1.530   4.262
 2793SOL    HW2 8390   3.883   1.380   4.307
 2794SOL     OW 8391   3.964   1.091   4.610
 2794SOL    HW1 8392   3.978   1.007   4.662
 2794SOL    HW2 8393   3.909   1.155   4.665
 2795SOL     OW 8394   4.330   0.964   3.847
 2795SOL    HW1 8395   4.337   1.048   3.793
 2795SOL    HW2 8396   4.376   0.977   3.935
 2796SOL     OW 8397   3.846   0.643   4.287
 2796SOL    HW1 8398   3.801   0.555   4.304
 2796SOL    HW2 8399   3.845   0.697   4.371
 2797SOL     OW 8400   3.751   1.596   3.841
 2797SOL    HW1 8401   3.732   1.500   3.862
 2797SOL    HW2 8402   3.718   1.654   3.916
 2798SOL     OW 8403   4.337   1.365   4.450
 2798SOL    HW1 8404   4.288   1.278   4.459
 2798SOL    HW2 8405   4.314   1.408   4.363
 2799SOL     OW 8406   4.533   0.004   4.226
 2799SOL    HW1 8407   4.573   0.095   4.217
 2799SOL    HW2 8408   4.433   0.012   4.232
 2800SOL     OW 8409   4.322   0.729   3.994
 2800SOL    HW1 8410   4.346   0.798   3.926
 2800SOL    HW2 8411   4.244   0.762   4.048
 2801SOL     OW 8412   3.800   0.811   4.513
 2801SOL    HW1 8413   3.899   0.799   4.522
 2801SOL    HW2 8414   3.776   0.906   4.534
 2802SOL     OW 8415   4.075   1.801   4.577
 2802SOL    HW1 8416   4.125   1.715   4.583
 2802SOL    HW2 8417   4.140   1.878   4.574
 2803SOL     OW 8418   4.045   0.943   3.966
 2803SOL    HW1 8419   4.127   0.982   3.924
 2803SOL    HW2 8420   4.018   0.861   3.917
 2804SOL     OW 8421   4.188   1.743   4.047
 2804SOL    HW1 8422   4.221   1.782   4.133
 2804SOL    HW2 8423   4.264   1.736   3.982
 2805SOL     OW 8424   4.106   0.700   4.204
 2805SOL    HW1 8425   4.151   0.610   4.201
 2805SOL    HW2 8426   4.012   0.689   4.237
 2806SOL     OW 8427   4.338   0.122   3.841
 2806SOL    HW1 8428   4.436   0.100   3.848
 2806SOL    HW2 8429   4.307   0.105   3.748
 2807SOL     OW 8430   4.263   0.064   4.236
 2807SOL    HW1 8431   4.182   0.065   4.294
 2807SOL    HW2 8432   4.266   0.147   4.181
 2808SOL     OW 8433   4.021   0.035   3.895
 2808SOL    HW1 8434   4.070   0.119   3.874
 2808SOL    HW2 8435   4.083  -0.030   3.940
 2809SOL     OW 8436   4.183   1.152   4.465
 2809SOL    HW1 8437   4.112   1.125   4.530
 2809SOL    HW2 8438   4.157   1.124   4.372
 2810SOL     OW 8439   4.212   1.385   3.898
 2810SOL    HW1 8440   4.125   1.370   3.945
 2810SOL    HW2 8441   4.195   1.411   3.803
 2811SOL     OW 8442   4.251   0.256   4.052
 2811SOL    HW1 8443   4.278   0.197   3.977
 2811SOL    HW2 8444   4.251   0.351   4.021
 2812SOL     OW 8445   4.091   1.100   4.225
 2812SOL    HW1 8446   4.084   1.183   4.169
 2812SOL    HW2 8447   4.095   1.020   4.165
 2813SOL     OW 8448   4.290   0.537   4.589
 2813SOL    HW1 8449   4.302   0.603   4.515
 2813SOL    HW2 8450   4.336   0.571   4.672
 2814SOL     OW 8451   4.031   0.063   4.342
 2814SOL    HW1 8452   4.020   0.157   4.375
 2814SOL    HW2 8453   4.026   0.000   4.419
 2815SOL     OW 8454   3.732   1.326   3.924
 2815SOL    HW1 8455   3.639   1.347   3.893
 2815SOL    HW2 8456   3.742   1.227   3.937
 2816SOL     OW 8457   3.812   1.801   4.651
 2816SOL    HW1 8458   3.770   1.715   4.624
 2816SOL    HW2 8459   3.906   1.804   4.617
 2817SOL     OW 8460   4.539   0.572   4.049
 2817SOL    HW1 8461   4.546   0.483   4.003
 2817SOL    HW2 8462   4.445   0.606   4.041
 2818SOL     OW 8463   4.197   0.500   3.915
 2818SOL    HW1 8464   4.258   0.580   3.919
 2818SOL    HW2 8465   4.102   0.531   3.922
 2819SOL     OW 8466   4.396   1.616   3.878
 2819SOL    HW1 8467   4.405   1.626   3.779
 2819SOL    HW2 8468   4.356   1.527   3.899
 2820SOL     OW 8469   3.987   0.326   4.444
 2820SOL    HW1 8470   3.908   0.377   4.410
 2820SOL    HW2 8471   3.978   0.311   4.542
 2821SOL     OW 8472   4.314   1.487   4.215
 2821SOL    HW1 8473   4.356   1.429   4.145
 2821SOL    HW2 8474   4.270   1.566   4.171
 2822SOL     OW 8475   3.979   1.348   4.014
 2822SOL    HW1 8476   3.883   1.349   3.987
 2822SOL    HW2 8477   3.991   1.401   4.098
 2823SOL     OW 8478   3.799   0.345   3.757
 2823SOL    HW1 8479   3.707   0.317   3.728
 2823SOL    HW2 8480   3.830   0.422   3.701
 2824SOL     OW 8481   3.796   0.166   4.042
 2824SOL    HW1 8482   3.779   0.249   3.988
 2824SOL    HW2 8483   3.886   0.129   4.020
 2825SOL     OW 8484   4.318   0.745   4.376
 2825SOL    HW1 8485   4.368   0.830   4.357
 2825SOL    HW2 8486   4.230   0.747   4.328
 2826SOL     OW 8487   4.385   1.790   4.677
 2826SOL    HW1 8488   4.339   1.878   4.664
 2826SOL    HW2 8489   4.484   1.802   4.670
 2827SOL     OW 8490   3.803   1.240   4.377
 2827SOL    HW1 8491   3.802   1.193   4.465
 2827SOL    HW2 8492   3.885   1.212   4.326
 2828SOL     OW 8493   4.152   0.424   4.244
 2828SOL    HW1 8494   4.182   0.352   4.182
 2828SOL    HW2 8495   4.113   0.384   4.327
 2829SOL     OW 8496   4.536   1.586   4.411
 2829SOL    HW1 8497   4.568   1.596   4.317
 2829SOL    HW2 8498   4.457   1.524   4.413
 2830SOL     OW 8499   3.763   1.077   4.024
 2830SOL    HW1 8500   3.862   1.066   4.015
 2830SOL    HW2 8501   3.723   0.991   4.056
 2831SOL     OW 8502   3.954   2.490   0.113
 2831SOL    HW1 8503   3.861   2.488   0.150
 2831SOL    HW2 8504   3.955   2.451   0.021
 2832SOL     OW 8505   3.949   2.137   0.996
 2832SOL    HW1 8506   3.984   2.120   1.088
 2832SOL    HW2 8507   3.861   2.092   0.984
 2833SOL     OW 8508   3.743   2.230   0.647
 2833SOL    HW1 8509   3.661   2.273   0.686
 2833SOL    HW2 8510   3.715   2.157   0.584
 2834SOL     OW 8511   4.293   3.137   1.165
 2834SOL    HW1 8512   4.200   3.130   1.128
 2834SOL    HW2 8513   4.304   3.226   1.209
 2835SOL     OW 8514   4.574   2.660   1.823
 2835SOL    HW1 8515   4.570   2.736   1.888
 2835SOL    HW2 8516   4.596   2.696   1.732
 2836SOL     OW 8517   4.409   2.874   0.665
 2836SOL    HW1 8518   4.478   2.858   0.735
 2836SOL    HW2 8519   4.336   2.931   0.703
 2837SOL     OW 8520   4.410   3.023   1.803
 2837SOL    HW1 8521   4.470   3.102   1.817
 2837SOL    HW2 8522   4.324   3.054   1.762
 2838SOL     OW 8523   4.059   3.297   1.061
 2838SOL    HW1 8524   3.981   3.266   1.008
 2838SOL    HW2 8525   4.117   3.355   1.004
 2839SOL     OW 8526   4.162   2.254   1.499
 2839SOL    HW1 8527   4.244   2.198   1.508
 2839SOL    HW2 8528   4.081   2.196   1.503
 2840SOL     OW 8529   3.955   3.575   0.483
 2840SOL    HW1 8530   3.989   3.652   0.537
 2840SOL    HW2 8531   3.999   3.575   0.393
 2841SOL     OW 8532   3.954   3.296   0.538
 2841SOL    HW1 8533   3.928   3.392   0.538
 2841SOL    HW2 8534   3.883   3.242   0.583
 2842SOL     OW 8535   3.964   2.953   0.886
 2842SOL    HW1 8536   3.978   2.869   0.938
 2842SOL    HW2 8537   3.909   3.017   0.941
 2843SOL     OW 8538   4.344   3.648   1.439
 2843SOL    HW1 8539   4.252   3.631   1.474
 2843SOL    HW2 8540   4.372   3.740   1.465
 2844SOL     OW 8541   4.330   2.826   0.123
 2844SOL    HW1 8542   4.337   2.910   0.069
 2844SOL    HW2 8543   4.376   2.839   0.211
 2845SOL     OW 8544   3.846   2.505   0.563
 2845SOL    HW1 8545   3.801   2.417   0.580
 2845SOL    HW2 8546   3.845   2.559   0.647
 2846SOL     OW 8547   3.751   3.458   0.117
 2846SOL    HW1 8548   3.732   3.362   0.138
 2846SOL    HW2 8549   3.718   3.516   0.192
 2847SOL     OW 8550   3.837   2.599   1.597
 2847SOL    HW1 8551   3.925   2.586   1.642
 2847SOL    HW2 8552   3.824   2.696   1.575
 2848SOL     OW 8553   4.337   3.227   0.726
 2848SOL    HW1 8554   4.288   3.140   0.735
 2848SOL    HW2 8555   4.314   3.270   0.639
 2849SOL     OW 8556   4.533   1.866   0.502
 2849SOL    HW1 8557   4.573   1.957   0.493
 2849SOL    HW2 8558   4.433   1.874   0.508
 2850SOL     OW 8559   3.921   2.838   1.264
 2850SOL    HW1 8560   4.010   2.793   1.250
 2850SOL    HW2 8561   3.848   2.773   1.245
 2851SOL     OW 8562   4.041   2.113   1.801
 2851SOL    HW1 8563   4.112   2.184   1.807
 2851SOL    HW2 8564   3.953   2.152   1.829
 2852SOL     OW 8565   4.322   2.591   0.270
 2852SOL    HW1 8566   4.346   2.660   0.202
 2852SOL    HW2 8567   4.244   2.624   0.324
 2853SOL     OW 8568   3.800   2.673   0.789
 2853SOL    HW1 8569   3.899   2.661   0.798
 2853SOL    HW2 8570   3.776   2.768   0.810
 2854SOL     OW 8571   3.854   3.683   1.571
 2854SOL    HW1 8572   3.844   3.668   1.670
 2854SOL    HW2 8573   3.768   3.719   1.535
 2855SOL     OW 8574   4.274   2.058   0.885
 2855SOL    HW1 8575   4.269   2.053   0.985
 2855SOL    HW2 8576   4.276   2.154   0.856
 2856SOL     OW 8577   4.075   3.663   0.853
 2856SOL    HW1 8578   4.125   3.577   0.859
 2856SOL    HW2 8579   4.140   3.740   0.850
 2857SOL     OW 8580   4.045   2.805   0.242
 2857SOL    HW1 8581   4.127   2.844   0.200
 2857SOL    HW2 8582   4.018   2.723   0.193
 2858SOL     OW 8583   4.185   3.128   1.727
 2858SOL    HW1 8584   4.135   3.129   1.641
 2858SOL    HW2 8585   4.122   3.110   1.803
 2859SOL     OW 8586   3.926   2.147   1.498
 2859SOL    HW1 8587   3.846   2.207   1.485
 2859SOL    HW2 8588   3.916   2.098   1.584
 2860SOL     OW 8589   4.188   3.605   0.323
 2860SOL    HW1 8590   4.221   3.644   0.409
 2860SOL    HW2 8591   4.264   3.598   0.258
 2861SOL     OW 8592   3.973   3.647   1.241
 2861SOL    HW1 8593   4.030   3.582   1.291
 2861SOL    HW2 8594   3.957   3.614   1.148
 2862SOL     OW 8595   4.106   2.562   0.480
 2862SOL    HW1 8596   4.151   2.472   0.477
 2862SOL    HW2 8597   4.012   2.551   0.513
 2863SOL     OW 8598   4.505   2.126   1.749
 2863SOL    HW1 8599   4.572   2.065   1.792
 2863SOL    HW2 8600   4.432   2.145   1.814
 2864SOL     OW 8601   4.527   3.264   0.924
 2864SOL    HW1 8602   4.617   3.278   0.882
 2864SOL    HW2 8603   4.456   3.266   0.853
 2865SOL     OW 8604   4.646   2.365   0.899
 2865SOL    HW1 8605   4.621   2.356   0.803
 2865SOL    HW2 8606   4.694   2.283   0.930
 2866SOL     OW 8607   4.263   1.926   0.512
 2866SOL    HW1 8608   4.182   1.927   0.570
 2866SOL    HW2 8609   4.266   2.009   0.457
 2867SOL     OW 8610   4.021   1.897   0.171
 2867SOL    HW1 8611   4.070   1.981   0.150
 2867SOL    HW2 8612   4.083   1.832   0.216
 2868SOL     OW 8613   4.183   3.014   0.741
 2868SOL    HW1 8614   4.112   2.987   0.806
 2868SOL    HW2 8615   4.157   2.986   0.648
 2869SOL     OW 8616   3.802   2.418   1.386
 2869SOL    HW1 8617   3.894   2.417   1.345
 2869SOL    HW2 8618   3.796   2.492   1.453
 2870SOL     OW 8619   4.285   2.084   1.147
 2870SOL    HW1 8620   4.323   2.000   1.184
 2870SOL    HW2 8621   4.197   2.103   1.191
 2871SOL     OW 8622   4.212   3.247   0.174
 2871SOL    HW1 8623   4.125   3.232   0.221
 2871SOL    HW2 8624   4.195   3.273   0.079
 2872SOL     OW 8625   4.251   2.118   0.328
 2872SOL    HW1 8626   4.278   2.059   0.253
 2872SOL    HW2 8627   4.251   2.213   0.297
 2873SOL     OW 8628   4.639   1.951   1.402
 2873SOL    HW1 8629   4.664   1.931   1.307
 2873SOL    HW2 8630   4.711   2.007   1.444
 2874SOL     OW 8631   4.134   2.675   1.251
 2874SOL    HW1 8632   4.220   2.687   1.301
 2874SOL    HW2 8633   4.092   2.588   1.278
 2875SOL     OW 8634   3.788   3.426   1.331
 2875SOL    HW1 8635   3.742   3.508   1.297
 2875SOL    HW2 8636   3.886   3.445   1.340
 2876SOL     OW 8637   4.091   2.962   0.501
 2876SOL    HW1 8638   4.084   3.045   0.445
 2876SOL    HW2 8639   4.095   2.882   0.441
 2877SOL     OW 8640   4.290   2.399   0.865
 2877SOL    HW1 8641   4.302   2.465   0.791
 2877SOL    HW2 8642   4.336   2.433   0.948
 2878SOL     OW 8643   4.078   3.372   1.329
 2878SOL    HW1 8644   4.057   3.328   1.242
 2878SOL    HW2 8645   4.175   3.398   1.332
 2879SOL     OW 8646   4.126   2.613   1.598
 2879SOL    HW1 8647   4.194   2.668   1.551
 2879SOL    HW2 8648   4.166   2.525   1.625
 2880SOL     OW 8649   4.228   1.912   1.740
 2880SOL    HW1 8650   4.186   1.855   1.670
 2880SOL    HW2 8651   4.162   1.981   1.772
 2881SOL     OW 8652   4.297   2.732   1.029
 2881SOL    HW1 8653   4.341   2.821   1.020
 2881SOL    HW2 8654   4.234   2.732   1.106
 2882SOL     OW 8655   4.031   2.075   1.231
 2882SOL    HW1 8656   4.008   2.112   1.321
 2882SOL    HW2 8657   4.001   1.980   1.225
 2883SOL     OW 8658   3.761   3.172   1.282
 2883SOL    HW1 8659   3.814   3.123   1.350
 2883SOL    HW2 8660   3.783   3.270   1.287
 2884SOL     OW 8661   4.456   2.496   1.064
 2884SOL    HW1 8662   4.515   2.470   0.988
 2884SOL    HW2 8663   4.428   2.592   1.053
 2885SOL     OW 8664   4.031   1.925   0.618
 2885SOL    HW1 8665   4.020   2.019   0.651
 2885SOL    HW2 8666   4.026   1.862   0.695
 2886SOL     OW 8667   4.747   2.628   0.966
 2886SOL    HW1 8668   4.762   2.649   1.062
 2886SOL    HW2 8669   4.717   2.533   0.957
 2887SOL     OW 8670   4.074   2.760   1.804
 2887SOL    HW1 8671   4.150   2.804   1.852
 2887SOL    HW2 8672   4.109   2.713   1.722
 2888SOL     OW 8673   4.043   2.672   0.949
 2888SOL    HW1 8674   4.136   2.708   0.954
 2888SOL    HW2 8675   4.037   2.587   1.001
 2889SOL     OW 8676   4.063   2.371   1.006
 2889SOL    HW1 8677   4.011   2.288   0.989
 2889SOL    HW2 8678   4.140   2.376   0.942
 2890SOL     OW 8679   3.732   3.188   0.200
 2890SOL    HW1 8680   3.639   3.209   0.169
 2890SOL    HW2 8681   3.742   3.089   0.213
 2891SOL     OW 8682   3.812   3.663   0.927
 2891SOL    HW1 8683   3.770   3.577   0.900
 2891SOL    HW2 8684   3.906   3.666   0.893
 2892SOL     OW 8685   4.228   3.430   0.910
 2892SOL    HW1 8686   4.294   3.504   0.919
 2892SOL    HW2 8687   4.272   3.351   0.868
 2893SOL     OW 8688   3.764   2.406   1.114
 2893SOL    HW1 8689   3.849   2.373   1.073
 2893SOL    HW2 8690   3.777   2.421   1.212
 2894SOL     OW 8691   3.913   2.382   1.722
 2894SOL    HW1 8692   3.972   2.342   1.652
 2894SOL    HW2 8693   3.855   2.453   1.681
 2895SOL     OW 8694   4.539   2.434   0.325
 2895SOL    HW1 8695   4.546   2.345   0.279
 2895SOL    HW2 8696   4.445   2.468   0.317
 2896SOL     OW 8697   3.976   3.426   1.744
 2896SOL    HW1 8698   3.946   3.483   1.820
 2896SOL    HW2 8699   3.969   3.329   1.770
 2897SOL     OW 8700   4.395   2.326   1.269
 2897SOL    HW1 8701   4.361   2.237   1.239
 2897SOL    HW2 8702   4.421   2.380   1.189
 2898SOL     OW 8703   4.197   2.362   0.191
 2898SOL    HW1 8704   4.258   2.442   0.195
 2898SOL    HW2 8705   4.102   2.393   0.198
 2899SOL     OW 8706   3.883   2.999   1.466
 2899SOL    HW1 8707   3.905   2.938   1.542
 2899SOL    HW2 8708   3.893   2.950   1.380
 2900SOL     OW 8709   3.807   3.120   1.022
 2900SOL    HW1 8710   3.802   3.119   1.122
 2900SOL    HW2 8711   3.724   3.079   0.984
 2901SOL     OW 8712   4.412   3.524   1.716
 2901SOL    HW1 8713   4.356   3.605   1.725
 2901SOL    HW2 8714   4.464   3.528   1.630
 2902SOL     OW 8715   3.854   3.656   1.851
 2902SOL    HW1 8716   3.813   3.582   1.904
 2902SOL    HW2 8717   3.918   3.707   1.909
 2903SOL     OW 8718   4.396   3.478   0.154
 2903SOL    HW1 8719   4.405   3.488   0.055
 2903SOL    HW2 8720   4.356   3.389   0.175
 2904SOL     OW 8721   3.987   2.188   0.720
 2904SOL    HW1 8722   3.908   2.239   0.686
 2904SOL    HW2 8723   3.978   2.173   0.818
 2905SOL     OW 8724   4.546   2.864   1.372
 2905SOL    HW1 8725   4.586   2.863   1.280
 2905SOL    HW2 8726   4.556   2.956   1.412
 2906SOL     OW 8727   4.096   3.150   1.490
 2906SOL    HW1 8728   4.083   3.243   1.456
 2906SOL    HW2 8729   4.012   3.098   1.477
 2907SOL     OW 8730   4.314   3.349   0.491
 2907SOL    HW1 8731   4.356   3.291   0.421
 2907SOL    HW2 8732   4.270   3.428   0.447
 2908SOL     OW 8733   3.979   3.210   0.290
 2908SOL    HW1 8734   3.883   3.211   0.263
 2908SOL    HW2 8735   3.991   3.263   0.374
 2909SOL     OW 8736   3.829   2.875   1.726
 2909SOL    HW1 8737   3.752   2.842   1.780
 2909SOL    HW2 8738   3.914   2.845   1.768
 2910SOL     OW 8739   4.396   2.065   1.489
 2910SOL    HW1 8740   4.486   2.049   1.449
 2910SOL    HW2 8741   4.404   2.070   1.588
 2911SOL     OW 8742   3.799   2.207   0.033
 2911SOL    HW1 8743   3.707   2.179   0.004
 2911SOL    HW2 8744   3.830   2.284  -0.023
 2912SOL     OW 8745   3.796   2.028   0.318
 2912SOL    HW1 8746   3.779   2.111   0.264
 2912SOL    HW2 8747   3.886   1.991   0.296
 2913SOL     OW 8748   4.337   2.704   1.431
 2913SOL    HW1 8749   4.393   2.785   1.414
 2913SOL    HW2 8750   4.396   2.624   1.434
 2914SOL     OW 8751   4.440   2.427   1.708
 2914SOL    HW1 8752   4.459   2.492   1.782
 2914SOL    HW2 8753   4.500   2.347   1.717
 2915SOL     OW 8754   4.114   3.603   1.560
 2915SOL    HW1 8755   4.023   3.644   1.558
 2915SOL    HW2 8756   4.107   3.509   1.592
 2916SOL     OW 8757   4.318   2.607   0.652
 2916SOL    HW1 8758   4.368   2.692   0.633
 2916SOL    HW2 8759   4.230   2.609   0.604
 2917SOL     OW 8760   4.385   3.652   0.953
 2917SOL    HW1 8761   4.339   3.740   0.940
 2917SOL    HW2 8762   4.484   3.664   0.946
 2918SOL     OW 8763   3.945   3.176   1.844
 2918SOL    HW1 8764   3.880   3.103   1.823
 2918SOL    HW2 8765   3.949   3.190   1.942
 2919SOL     OW 8766   3.803   3.102   0.653
 2919SOL    HW1 8767   3.802   3.055   0.741
 2919SOL    HW2 8768   3.885   3.074   0.602
 2920SOL     OW 8769   4.396   3.253   1.624
 2920SOL    HW1 8770   4.318   3.203   1.662
 2920SOL    HW2 8771   4.393   3.348   1.655
 2921SOL     OW 8772   4.152   2.286   0.520
 2921SOL    HW1 8773   4.182   2.214   0.458
 2921SOL    HW2 8774   4.113   2.246   0.603
 2922SOL     OW 8775   4.041   2.409   1.280
 2922SOL    HW1 8776   4.079   2.350   1.352
 2922SOL    HW2 8777   4.081   2.383   1.192
 2923SOL     OW 8778   4.536   3.448   0.687
 2923SOL    HW1 8779   4.568   3.458   0.593
 2923SOL    HW2 8780   4.457   3.386   0.689
 2924SOL     OW 8781   4.342   3.429   1.284
 2924SOL    HW1 8782   4.337   3.511   1.341
 2924SOL    HW2 8783   4.431   3.426   1.239
 2925SOL     OW 8784   3.763   2.939   0.300
 2925SOL    HW1 8785   3.862   2.928   0.291
 2925SOL    HW2 8786   3.723   2.853   0.332
 2926SOL     OW 8787   3.954   2.490   1.975
 2926SOL    HW1 8788   3.861   2.488   2.012
 2926SOL    HW2 8789   3.955   2.451   1.883
 2927SOL     OW 8790   3.949   2.137   2.858
 2927SOL    HW1 8791   3.984   2.120   2.950
 2927SOL    HW2 8792   3.861   2.092   2.846
 2928SOL     OW 8793   3.743   2.230   2.509
 2928SOL    HW1 8794   3.661   2.273   2.548
 2928SOL    HW2 8795   3.715   2.157   2.446
 2929SOL     OW 8796   4.293   3.137   3.027
 2929SOL    HW1 8797   4.200   3.130   2.990
 2929SOL    HW2 8798   4.304   3.226   3.071
 2930SOL     OW 8799   4.574   2.660   3.685
 2930SOL    HW1 8800   4.570   2.736   3.750
 2930SOL    HW2 8801   4.596   2.696   3.594
 2931SOL     OW 8802   4.409   2.874   2.527
 2931SOL    HW1 8803   4.478   2.858   2.597
 2931SOL    HW2 8804   4.336   2.931   2.565
 2932SOL     OW 8805   4.410   3.023   3.665
 2932SOL    HW1 8806   4.470   3.102   3.679
 2932SOL    HW2 8807   4.324   3.054   3.624
 2933SOL     OW 8808   4.059   3.297   2.923
 2933SOL    HW1 8809   3.981   3.266   2.870
 2933SOL    HW2 8810   4.117   3.355   2.866
 2934SOL     OW 8811   4.162   2.254   3.361
 2934SOL    HW1 8812   4.244   2.198   3.370
 2934SOL    HW2 8813   4.081   2.196   3.365
 2935SOL     OW 8814   3.955   3.575   2.345
 2935SOL    HW1 8815   3.989   3.652   2.399
 2935SOL    HW2 8816   3.999   3.575   2.255
 2936SOL     OW 8817   3.954   3.296   2.400
 2936SOL    HW1 8818   3.928   3.392   2.400
 2936SOL    HW2 8819   3.883   3.242   2.445
 2937SOL     OW 8820   3.964   2.953   2.748
 2937SOL    HW1 8821   3.978   2.869   2.800
 2937SOL    HW2 8822   3.909   3.017   2.803
 2938SOL     OW 8823   4.344   3.648   3.301
 2938SOL    HW1 8824   4.252   3.631   3.336
 2938SOL    HW2 8825   4.372   3.740   3.327
 2939SOL     OW 8826   4.330   2.826   1.985
 2939SOL    HW1 8827   4.337   2.910   1.931
 2939SOL    HW2 8828   4.376   2.839   2.073
 2940SOL     OW 8829   3.846   2.505   2.425
 2940SOL    HW1 8830   3.801   2.417   2.442
 2940SOL    HW2 8831   3.845   2.559   2.509
 2941SOL     OW 8832   3.751   3.458   1.979
 2941SOL    HW1 8833   3.732   3.362   2.000
 2941SOL    HW2 8834   3.718   3.516   2.054
 2942SOL     OW 8835   3.837   2.599   3.459
 2942SOL    HW1 8836   3.925   2.586   3.504
 2942SOL    HW2 8837   3.824   2.696   3.437
 2943SOL     OW 8838   4.337   3.227   2.588
 2943SOL    HW1 8839   4.288   3.140   2.597
 2943SOL    HW2 8840   4.314   3.270   2.501
 2944SOL     OW 8841   4.533   1.866   2.364
 2944SOL    HW1 8842   4.573   1.957   2.355
 2944SOL    HW2 8843   4.433   1.874   2.370
 2945SOL     OW 8844   3.921   2.838   3.126
 2945SOL    HW1 8845   4.010   2.793   3.112
 2945SOL    HW2 8846   3.848   2.773   3.107
 2946SOL     OW 8847   4.041   2.113   3.663
 2946SOL    HW1 8848   4.112   2.184   3.669
 2946SOL    HW2 8849   3.953   2.152   3.691
 2947SOL     OW 8850   4.322   2.591   2.132
 2947SOL    HW1 8851   4.346   2.660   2.064
 2947SOL    HW2 8852   4.244   2.624   2.186
 2948SOL     OW 8853   3.800   2.673   2.651
 2948SOL    HW1 8854   3.899   2.661   2.660
 2948SOL    HW2 8855   3.776   2.768   2.672
 2949SOL     OW 8856   3.854   3.683   3.433
 2949SOL    HW1 8857   3.844   3.668   3.532
 2949SOL    HW2 8858   3.768   3.719   3.397
 2950SOL     OW 8859   4.274   2.058   2.747
 2950SOL    HW1 8860   4.269   2.053   2.847
 2950SOL    HW2 8861   4.276   2.154   2.718
 2951SOL     OW 8862   4.075   3.663   2.715
 2951SOL    HW1 8863   4.125   3.577   2.721
 2951SOL    HW2 8864   4.140   3.740   2.712
 2952SOL     OW 8865   4.045   2.805   2.104
 2952SOL    HW1 8866   4.127   2.844   2.062
 2952SOL    HW2 8867   4.018   2.723   2.055
 2953SOL     OW 8868   4.185   3.128   3.589
 2953SOL    HW1 8869   4.135   3.129   3.503
 2953SOL    HW2 8870   4.122   3.110   3.665
 2954SOL     OW 8871   3.926   2.147   3.360
 2954SOL    HW1 8872   3.846   2.207   3.347
 2954SOL    HW2 8873   3.916   2.098   3.446
 2955SOL     OW 8874   4.188   3.605   2.185
 2955SOL    HW1 8875   4.221   3.644   2.271
 2955SOL    HW2 8876   4.264   3.598   2.120
 2956SOL     OW 8877   3.973   3.647   3.103
 2956SOL    HW1 8878   4.030   3.582   3.153
 2956SOL    HW2 8879   3.957   3.614   3.010
 2957SOL     OW 8880   4.106   2.562   2.342
 2957SOL    HW1 8881   4.151   2.472   2.339
 2957SOL    HW2 8882   4.012   2.551   2.375
 2958SOL     OW 8883   4.338   1.984   1.979
 2958SOL    HW1 8884   4.436   1.962   1.986
 2958SOL    HW2 8885   4.307   1.967   1.886
 2959SOL     OW 8886   4.505   2.126   3.611
 2959SOL    HW1 8887   4.572   2.065   3.654
 2959SOL    HW2 8888   4.432   2.145   3.676
 2960SOL     OW 8889   4.527   3.264   2.786
 2960SOL    HW1 8890   4.617   3.278   2.744
 2960SOL    HW2 8891   4.456   3.266   2.715
 2961SOL     OW 8892   4.646   2.365   2.761
 2961SOL    HW1 8893   4.621   2.356   2.665
 2961SOL    HW2 8894   4.694   2.283   2.792
 2962SOL     OW 8895   4.263   1.926   2.374
 2962SOL    HW1 8896   4.182   1.927   2.432
 2962SOL    HW2 8897   4.266   2.009   2.319
 2963SOL     OW 8898   4.021   1.897   2.033
 2963SOL    HW1 8899   4.070   1.981   2.012
 2963SOL    HW2 8900   4.083   1.832   2.078
 2964SOL     OW 8901   4.183   3.014   2.603
 2964SOL    HW1 8902   4.112   2.987   2.668
 2964SOL    HW2 8903   4.157   2.986   2.510
 2965SOL     OW 8904   3.802   2.418   3.248
 2965SOL    HW1 8905   3.894   2.417   3.207
 2965SOL    HW2 8906   3.796   2.492   3.315
 2966SOL     OW 8907   4.285   2.084   3.009
 2966SOL    HW1 8908   4.323   2.000   3.046
 2966SOL    HW2 8909   4.197   2.103   3.053
 2967SOL     OW 8910   4.212   3.247   2.036
 2967SOL    HW1 8911   4.125   3.232   2.083
 2967SOL    HW2 8912   4.195   3.273   1.941
 2968SOL     OW 8913   4.251   2.118   2.190
 2968SOL    HW1 8914   4.278   2.059   2.115
 2968SOL    HW2 8915   4.251   2.213   2.159
 2969SOL     OW 8916   4.639   1.951   3.264
 2969SOL    HW1 8917   4.664   1.931   3.169
 2969SOL    HW2 8918   4.711   2.007   3.306
 2970SOL     OW 8919   4.134   2.675   3.113
 2970SOL    HW1 8920   4.220   2.687   3.163
 2970SOL    HW2 8921   4.092   2.588   3.140
 2971SOL     OW 8922   3.788   3.426   3.193
 2971SOL    HW1 8923   3.742   3.508   3.159
 2971SOL    HW2 8924   3.886   3.445   3.202
 2972SOL     OW 8925   4.091   2.962   2.363
 2972SOL    HW1 8926   4.084   3.045   2.307
 2972SOL    HW2 8927   4.095   2.882   2.303
 2973SOL     OW 8928   4.290   2.399   2.727
 2973SOL    HW1 8929   4.302   2.465   2.653
 2973SOL    HW2 8930   4.336   2.433   2.810
 2974SOL     OW 8931   4.078   3.372   3.191
 2974SOL    HW1 8932   4.057   3.328   3.104
 2974SOL    HW2 8933   4.175   3.398   3.194
 2975SOL     OW 8934   4.126   2.613   3.460
 2975SOL    HW1 8935   4.194   2.668   3.413
 2975SOL    HW2 8936   4.166   2.525   3.487
 2976SOL     OW 8937   4.228   1.912   3.602
 2976SOL    HW1 8938   4.186   1.855   3.532
 2976SOL    HW2 8939   4.162   1.981   3.634
 2977SOL     OW 8940   4.297   2.732   2.891
 2977SOL    HW1 8941   4.341   2.821   2.882
 2977SOL    HW2 8942   4.234   2.732   2.968
 2978SOL     OW 8943   4.031   2.075   3.093
 2978SOL    HW1 8944   4.008   2.112   3.183
 2978SOL    HW2 8945   4.001   1.980   3.087
 2979SOL     OW 8946   3.761   3.172   3.144
 2979SOL    HW1 8947   3.814   3.123   3.212
 2979SOL    HW2 8948   3.783   3.270   3.149
 2980SOL     OW 8949   4.456   2.496   2.926
 2980SOL    HW1 8950   4.515   2.470   2.850
 2980SOL    HW2 8951   4.428   2.592   2.915
 2981SOL     OW 8952   4.031   1.925   2.480
 2981SOL    HW1 8953   4.020   2.019   2.513
 2981SOL    HW2 8954   4.026   1.862   2.557
 2982SOL     OW 8955   4.747   2.628   2.828
 2982SOL    HW1 8956   4.762   2.649   2.924
 2982SOL    HW2 8957   4.717   2.533   2.819
 2983SOL     OW 8958   4.074   2.760   3.666
 2983SOL    HW1 8959   4.150   2.804   3.714
 2983SOL    HW2 8960   4.109   2.713   3.584
 2984SOL     OW 8961   4.043   2.672   2.811
 2984SOL    HW1 8962   4.136   2.708   2.816
 2984SOL    HW2 8963   4.037   2.587   2.863
 2985SOL     OW 8964   4.063   2.371   2.868
 2985SOL    HW1 8965   4.011   2.288   2.851
 2985SOL    HW2 8966   4.140   2.376   2.804
 2986SOL     OW 8967   3.732   3.188   2.062
 2986SOL    HW1 8968   3.639   3.209   2.031
 2986SOL    HW2 8969   3.742   3.089   2.075
 2987SOL     OW 8970   3.812   3.663   2.789
 2987SOL    HW1 8971   3.770   3.577   2.762
 2987SOL    HW2 8972   3.906   3.666   2.755
 2988SOL     OW 8973   4.228   3.430   2.772
 2988SOL    HW1 8974   4.294   3.504   2.781
 2988SOL    HW2 8975   4.272   3.351   2.730
 2989SOL     OW 8976   3.764   2.406   2.976
 2989SOL    HW1 8977   3.849   2.373   2.935
 2989SOL    HW2 8978   3.777   2.421   3.074
 2990SOL     OW 8979   3.913   2.382   3.584
 2990SOL    HW1 8980   3.972   2.342   3.514
 2990SOL    HW2 8981   3.855   2.453   3.543
 2991SOL     OW 8982   4.539   2.434   2.187
 2991SOL    HW1 8983   4.546   2.345   2.141
 2991SOL    HW2 8984   4.445   2.468   2.179
 2992SOL     OW 8985   3.976   3.426   3.606
 2992SOL    HW1 8986   3.946   3.483   3.682
 2992SOL    HW2 8987   3.969   3.329   3.632
 2993SOL     OW 8988   4.395   2.326   3.131
 2993SOL    HW1 8989   4.361   2.237   3.101
 2993SOL    HW2 8990   4.421   2.380   3.051
 2994SOL     OW 8991   4.197   2.362   2.053
 2994SOL    HW1 8992   4.258   2.442   2.057
 2994SOL    HW2 8993   4.102   2.393   2.060
 2995SOL     OW 8994   3.883   2.999   3.328
 2995SOL    HW1 8995   3.905   2.938   3.404
 2995SOL    HW2 8996   3.893   2.950   3.242
 2996SOL     OW 8997   3.807   3.120   2.884
 2996SOL    HW1 8998   3.802   3.119   2.984
 2996SOL    HW2 8999   3.724   3.079   2.846
 2997SOL     OW 9000   4.412   3.524   3.578
 2997SOL    HW1 9001   4.356   3.605   3.587
 2997SOL    HW2 9002   4.464   3.528   3.492
 2998SOL     OW 9003   4.627   1.948   1.995
 2998SOL    HW1 9004   4.678   1.949   1.909
 2998SOL    HW2 9005   4.683   1.906   2.066
 2999SOL     OW 9006   3.854   3.656   3.713
 2999SOL    HW1 9007   3.813   3.582   3.766
 2999SOL    HW2 9008   3.918   3.707   3.771
 3000SOL     OW 9009   4.396   3.478   2.016
 3000SOL    HW1 9010   4.405   3.488   1.917
 3000SOL    HW2 9011   4.356   3.389   2.037
 3001SOL     OW 9012   3.987   2.188   2.582
 3001SOL    HW1 9013   3.908   2.239   2.548
 3001SOL    HW2 9014   3.978   2.173   2.680
 3002SOL     OW 9015   4.546   2.864   3.234
 3002SOL    HW1 9016   4.586   2.863   3.142
 3002SOL    HW2 9017   4.556   2.956   3.274
 3003SOL     OW 9018   4.096   3.150   3.352
 3003SOL    HW1 9019   4.083   3.243   3.318
 3003SOL    HW2 9020   4.012   3.098   3.339
 3004SOL     OW 9021   4.314   3.349   2.353
 3004SOL    HW1 9022   4.356   3.291   2.283
 3004SOL    HW2 9023   4.270   3.428   2.309
 3005SOL     OW 9024   3.979   3.210   2.152
 3005SOL    HW1 9025   3.883   3.211   2.125
 3005SOL    HW2 9026   3.991   3.263   2.236
 3006SOL     OW 9027   3.829   2.875   3.588
 3006SOL    HW1 9028   3.752   2.842   3.642
 3006SOL    HW2 9029   3.914   2.845   3.630
 3007SOL     OW 9030   4.396   2.065   3.351
 3007SOL    HW1 9031   4.486   2.049   3.311
 3007SOL    HW2 9032   4.404   2.070   3.450
 3008SOL     OW 9033   3.799   2.207   1.895
 3008SOL    HW1 9034   3.707   2.179   1.866
 3008SOL    HW2 9035   3.830   2.284   1.839
 3009SOL     OW 9036   3.796   2.028   2.180
 3009SOL    HW1 9037   3.779   2.111   2.126
 3009SOL    HW2 9038   3.886   1.991   2.158
 3010SOL     OW 9039   4.337   2.704   3.293
 3010SOL    HW1 9040   4.393   2.785   3.276
 3010SOL    HW2 9041   4.396   2.624   3.296
 3011SOL     OW 9042   4.440   2.427   3.570
 3011SOL    HW1 9043   4.459   2.492   3.644
 3011SOL    HW2 9044   4.500   2.347   3.579
 3012SOL     OW 9045   4.114   3.603   3.422
 3012SOL    HW1 9046   4.023   3.644   3.420
 3012SOL    HW2 9047   4.107   3.509   3.454
 3013SOL     OW 9048   4.318   2.607   2.514
 3013SOL    HW1 9049   4.368   2.692   2.495
 3013SOL    HW2 9050   4.230   2.609   2.466
 3014SOL     OW 9051   4.385   3.652   2.815
 3014SOL    HW1 9052   4.339   3.740   2.802
 3014SOL    HW2 9053   4.484   3.664   2.808
 3015SOL     OW 9054   3.945   3.176   3.706
 3015SOL    HW1 9055   3.880   3.103   3.685
 3015SOL    HW2 9056   3.949   3.190   3.804
 3016SOL     OW 9057   3.803   3.102   2.515
 3016SOL    HW1 9058   3.802   3.055   2.603
 3016SOL    HW2 9059   3.885   3.074   2.464
 3017SOL     OW 9060   4.396   3.253   3.486
 3017SOL    HW1 9061   4.318   3.203   3.524
 3017SOL    HW2 9062   4.393   3.348   3.517
 3018SOL     OW 9063   4.152   2.286   2.382
 3018SOL    HW1 9064   4.182   2.214   2.320
 3018SOL    HW2 9065   4.113   2.246   2.465
 3019SOL     OW 9066   4.041   2.409   3.142
 3019SOL    HW1 9067   4.079   2.350   3.214
 3019SOL    HW2 9068   4.081   2.383   3.054
 3020SOL     OW 9069   4.536   3.448   2.549
 3020SOL    HW1 9070   4.568   3.458   2.455
 3020SOL    HW2 9071   4.457   3.386   2.551
 3021SOL     OW 9072   4.342   3.429   3.146
 3021SOL    HW1 9073   4.337   3.511   3.203
 3021SOL    HW2 9074   4.431   3.426   3.101
 3022SOL     OW 9075   3.763   2.939   2.162
 3022SOL    HW1 9076   3.862   2.928   2.153
 3022SOL    HW2 9077   3.723   2.853   2.194
 3023SOL     OW 9078   3.954   2.490   3.837
 3023SOL    HW1 9079   3.861   2.488   3.874
 3023SOL    HW2 9080   3.955   2.451   3.745
 3024SOL     OW 9081   3.743   2.230   4.371
 3024SOL    HW1 9082   3.661   2.273   4.410
 3024SOL    HW2 9083   3.715   2.157   4.308
 3025SOL     OW 9084   4.409   2.874   4.389
 3025SOL    HW1 9085   4.478   2.858   4.459
 3025SOL    HW2 9086   4.336   2.931   4.427
 3026SOL     OW 9087   3.955   3.575   4.207
 3026SOL    HW1 9088   3.989   3.652   4.261
 3026SOL    HW2 9089   3.999   3.575   4.117
 3027SOL     OW 9090   3.954   3.296   4.262
 3027SOL    HW1 9091   3.928   3.392   4.262
 3027SOL    HW2 9092   3.883   3.242   4.307
 3028SOL     OW 9093   3.964   2.953   4.610
 3028SOL    HW1 9094   3.978   2.869   4.662
 3028SOL    HW2 9095   3.909   3.017   4.665
 3029SOL     OW 9096   4.330   2.826   3.847
 3029SOL    HW1 9097   4.337   2.910   3.793
 3029SOL    HW2 9098   4.376   2.839   3.935
 3030SOL     OW 9099   3.846   2.505   4.287
 3030SOL    HW1 9100   3.801   2.417   4.304
 3030SOL    HW2 9101   3.845   2.559   4.371
 3031SOL     OW 9102   3.751   3.458   3.841
 3031SOL    HW1 9103   3.732   3.362   3.862
 3031SOL    HW2 9104   3.718   3.516   3.916
 3032SOL     OW 9105   4.337   3.227   4.450
 3032SOL    HW1 9106   4.288   3.140   4.459
 3032SOL    HW2 9107   4.314   3.270   4.363
 3033SOL     OW 9108   4.533   1.866   4.226
 3033SOL    HW1 9109   4.573   1.957   4.217
 3033SOL    HW2 9110   4.433   1.874   4.232
 3034SOL     OW 9111   4.322   2.591   3.994
 3034SOL    HW1 9112   4.346   2.660   3.926
 3034SOL    HW2 9113   4.244   2.624   4.048
 3035SOL     OW 9114   3.800   2.673   4.513
 3035SOL    HW1 9115   3.899   2.661   4.522
 3035SOL    HW2 9116   3.776   2.768   4.534
 3036SOL     OW 9117   4.274   2.058   4.609
 3036SOL    HW1 9118   4.269   2.053   4.709
 3036SOL    HW2 9119   4.276   2.154   4.580
 3037SOL     OW 9120   4.075   3.663   4.577
 3037SOL    HW1 9121   4.125   3.577   4.583
 3037SOL    HW2 9122   4.140   3.740   4.574
 3038SOL     OW 9123   4.045   2.805   3.966
 3038SOL    HW1 9124   4.127   2.844   3.924
 3038SOL    HW2 9125   4.018   2.723   3.917
 3039SOL     OW 9126   4.188   3.605   4.047
 3039SOL    HW1 9127   4.221   3.644   4.133
 3039SOL    HW2 9128   4.264   3.598   3.982
 3040SOL     OW 9129   4.106   2.562   4.204
 3040SOL    HW1 9130   4.151   2.472   4.201
 3040SOL    HW2 9131   4.012   2.551   4.237
 3041SOL     OW 9132   4.338   1.984   3.841
 3041SOL    HW1 9133   4.436   1.962   3.848
 3041SOL    HW2 9134   4.307   1.967   3.748
 3042SOL     OW 9135   4.263   1.926   4.236
 3042SOL    HW1 9136   4.182   1.927   4.294
 3042SOL    HW2 9137   4.266   2.009   4.181
 3043SOL     OW 9138   4.021   1.897   3.895
 3043SOL    HW1 9139   4.070   1.981   3.874
 3043SOL    HW2 9140   4.083   1.832   3.940
 3044SOL     OW 9141   4.183   3.014   4.465
 3044SOL    HW1 9142   4.112   2.987   4.530
 3044SOL    HW2 9143   4.157   2.986   4.372
 3045SOL     OW 9144   4.212   3.247   3.898
 3045SOL    HW1 9145   4.125   3.232   3.945
 3045SOL    HW2 9146   4.195   3.273   3.803
 3046SOL     OW 9147   4.251   2.118   4.052
 3046SOL    HW1 9148   4.278   2.059   3.977
 3046SOL    HW2 9149   4.251   2.213   4.021
 3047SOL     OW 9150   4.091   2.962   4.225
 3047SOL    HW1 9151   4.084   3.045   4.169
 3047SOL    HW2 9152   4.095   2.882   4.165
 3048SOL     OW 9153   4.290   2.399   4.589
 3048SOL    HW1 9154   4.302   2.465   4.515
 3048SOL    HW2 9155   4.336   2.433   4.672
 3049SOL     OW 9156   4.031   1.925   4.342
 3049SOL    HW1 9157   4.020   2.019   4.375
 3049SOL    HW2 9158   4.026   1.862   4.419
 3050SOL     OW 9159   3.732   3.188   3.924
 3050SOL    HW1 9160   3.639   3.209   3.893
 3050SOL    HW2 9161   3.742   3.089   3.937
 3051SOL     OW 9162   3.812   3.663   4.651
 3051SOL    HW1 9163   3.770   3.577   4.624
 3051SOL    HW2 9164   3.906   3.666   4.617
 3052SOL     OW 9165   4.539   2.434   4.049
 3052SOL    HW1 9166   4.546   2.345   4.003
 3052SOL    HW2 9167   4.445   2.468   4.041
 3053SOL     OW 9168   4.197   2.362   3.915
 3053SOL    HW1 9169   4.258   2.442   3.919
 3053SOL    HW2 9170   4.102   2.393   3.922
 3054SOL     OW 9171   4.627   1.948   3.857
 3054SOL    HW1 9172   4.678   1.949   3.771
 3054SOL    HW2 9173   4.683   1.906   3.928
 3055SOL     OW 9174   4.396   3.478   3.878
 3055SOL    HW1 9175   4.405   3.488   3.779
 3055SOL    HW2 9176   4.356   3.389   3.899
 3056SOL     OW 9177   3.987   2.188   4.444
 3056SOL    HW1 9178   3.908   2.239   4.410
 3056SOL    HW2 9179   3.978   2.173   4.542
 3057SOL     OW 9180   4.314   3.349   4.215
 3057SOL    HW1 9181   4.356   3.291   4.145
 3057SOL    HW2 9182   4.270   3.428   4.171
 3058SOL     OW 9183   3.979   3.210   4.014
 3058SOL    HW1 9184   3.883   3.211   3.987
 3058SOL    HW2 9185   3.991   3.263   4.098
 3059SOL     OW 9186   3.799   2.207   3.757
 3059SOL    HW1 9187   3.707   2.179   3.728
 3059SOL    HW2 9188   3.830   2.284   3.701
 3060SOL     OW 9189   3.796   2.028   4.042
 3060SOL    HW1 9190   3.779   2.111   3.988
 3060SOL    HW2 9191   3.886   1.991   4.020
 3061SOL     OW 9192   4.318   2.607   4.376
 3061SOL    HW1 9193   4.368   2.692   4.357
 3061SOL    HW2 9194   4.230   2.609   4.328
 3062SOL     OW 9195   4.385   3.652   4.677
 3062SOL    HW1 9196   4.339   3.740   4.664
 3062SOL    HW2 9197   4.484   3.664   4.670
 3063SOL     OW 9198   3.803   3.102   4.377
 3063SOL    HW1 9199   3.802   3.055   4.465
 3063SOL    HW2 9200   3.885   3.074   4.326
 3064SOL     OW 9201   4.152   2.286   4.244
 3064SOL    HW1 9202   4.182   2.214   4.182
 3064SOL    HW2 9203   4.113   2.246   4.327
 3065SOL     OW 9204   4.536   3.448   4.411
 3065SOL    HW1 9205   4.568   3.458   4.317
 3065SOL    HW2 9206   4.457   3.386   4.413
 3066SOL     OW 9207   3.763   2.939   4.024
 3066SOL    HW1 9208   3.862   2.928   4.015
 3066SOL    HW2 9209   3.723   2.853   4.056
 3067SOL     OW 9210   3.954   4.352   0.113
 3067SOL    HW1 9211   3.861   4.350   0.150
 3067SOL    HW2 9212   3.955   4.313   0.021
 3068SOL     OW 9213   3.949   3.999   0.996
 3068SOL    HW1 9214   3.984   3.982   1.088
 3068SOL    HW2 9215   3.861   3.954   0.984
 3069SOL     OW 9216   3.743   4.092   0.647
 3069SOL    HW1 9217   3.661   4.135   0.686
 3069SOL    HW2 9218   3.715   4.019   0.584
 3070SOL     OW 9219   4.574   4.522   1.823
 3070SOL    HW1 9220   4.570   4.598   1.888
 3070SOL    HW2 9221   4.596   4.558   1.732
 3071SOL     OW 9222   4.409   4.736   0.665
 3071SOL    HW1 9223   4.478   4.720   0.735
 3071SOL    HW2 9224   4.336   4.793   0.703
 3072SOL     OW 9225   4.162   4.116   1.499
 3072SOL    HW1 9226   4.244   4.060   1.508
 3072SOL    HW2 9227   4.081   4.058   1.503
 3073SOL     OW 9228   3.846   4.367   0.563
 3073SOL    HW1 9229   3.801   4.279   0.580
 3073SOL    HW2 9230   3.845   4.421   0.647
 3074SOL     OW 9231   3.837   4.461   1.597
 3074SOL    HW1 9232   3.925   4.448   1.642
 3074SOL    HW2 9233   3.824   4.558   1.575
 3075SOL     OW 9234   4.533   3.728   0.502
 3075SOL    HW1 9235   4.573   3.819   0.493
 3075SOL    HW2 9236   4.433   3.736   0.508
 3076SOL     OW 9237   4.041   3.975   1.801
 3076SOL    HW1 9238   4.112   4.046   1.807
 3076SOL    HW2 9239   3.953   4.014   1.829
 3077SOL     OW 9240   4.322   4.453   0.270
 3077SOL    HW1 9241   4.346   4.522   0.202
 3077SOL    HW2 9242   4.244   4.486   0.324
 3078SOL     OW 9243   3.800   4.535   0.789
 3078SOL    HW1 9244   3.899   4.523   0.798
 3078SOL    HW2 9245   3.776   4.630   0.810
 3079SOL     OW 9246   4.274   3.920   0.885
 3079SOL    HW1 9247   4.269   3.915   0.985
 3079SOL    HW2 9248   4.276   4.016   0.856
 3080SOL     OW 9249   3.926   4.009   1.498
 3080SOL    HW1 9250   3.846   4.069   1.485
 3080SOL    HW2 9251   3.916   3.960   1.584
 3081SOL     OW 9252   4.106   4.424   0.480
 3081SOL    HW1 9253   4.151   4.334   0.477
 3081SOL    HW2 9254   4.012   4.413   0.513
 3082SOL     OW 9255   4.505   3.988   1.749
 3082SOL    HW1 9256   4.572   3.927   1.792
 3082SOL    HW2 9257   4.432   4.007   1.814
 3083SOL     OW 9258   4.646   4.227   0.899
 3083SOL    HW1 9259   4.621   4.218   0.803
 3083SOL    HW2 9260   4.694   4.145   0.930
 3084SOL     OW 9261   4.263   3.788   0.512
 3084SOL    HW1 9262   4.182   3.789   0.570
 3084SOL    HW2 9263   4.266   3.871   0.457
 3085SOL     OW 9264   4.021   3.759   0.171
 3085SOL    HW1 9265   4.070   3.843   0.150
 3085SOL    HW2 9266   4.083   3.694   0.216
 3086SOL     OW 9267   3.802   4.280   1.386
 3086SOL    HW1 9268   3.894   4.279   1.345
 3086SOL    HW2 9269   3.796   4.354   1.453
 3087SOL     OW 9270   4.285   3.946   1.147
 3087SOL    HW1 9271   4.323   3.862   1.184
 3087SOL    HW2 9272   4.197   3.965   1.191
 3088SOL     OW 9273   4.251   3.980   0.328
 3088SOL    HW1 9274   4.278   3.921   0.253
 3088SOL    HW2 9275   4.251   4.075   0.297
 3089SOL     OW 9276   4.639   3.813   1.402
 3089SOL    HW1 9277   4.664   3.793   1.307
 3089SOL    HW2 9278   4.711   3.869   1.444
 3090SOL     OW 9279   4.429   4.774   0.368
 3090SOL    HW1 9280   4.415   4.781   0.467
 3090SOL    HW2 9281   4.513   4.723   0.350
 3091SOL     OW 9282   4.134   4.537   1.251
 3091SOL    HW1 9283   4.220   4.549   1.301
 3091SOL    HW2 9284   4.092   4.450   1.278
 3092SOL     OW 9285   4.290   4.261   0.865
 3092SOL    HW1 9286   4.302   4.327   0.791
 3092SOL    HW2 9287   4.336   4.295   0.948
 3093SOL     OW 9288   4.126   4.475   1.598
 3093SOL    HW1 9289   4.194   4.530   1.551
 3093SOL    HW2 9290   4.166   4.387   1.625
 3094SOL     OW 9291   4.228   3.774   1.740
 3094SOL    HW1 9292   4.186   3.717   1.670
 3094SOL    HW2 9293   4.162   3.843   1.772
 3095SOL     OW 9294   4.297   4.594   1.029
 3095SOL    HW1 9295   4.341   4.683   1.020
 3095SOL    HW2 9296   4.234   4.594   1.106
 3096SOL     OW 9297   4.031   3.937   1.231
 3096SOL    HW1 9298   4.008   3.974   1.321
 3096SOL    HW2 9299   4.001   3.842   1.225
 3097SOL     OW 9300   4.456   4.358   1.064
 3097SOL    HW1 9301   4.515   4.332   0.988
 3097SOL    HW2 9302   4.428   4.454   1.053
 3098SOL     OW 9303   4.031   3.787   0.618
 3098SOL    HW1 9304   4.020   3.881   0.651
 3098SOL    HW2 9305   4.026   3.724   0.695
 3099SOL     OW 9306   4.043   4.534   0.949
 3099SOL    HW1 9307   4.136   4.570   0.954
 3099SOL    HW2 9308   4.037   4.449   1.001
 3100SOL     OW 9309   4.063   4.233   1.006
 3100SOL    HW1 9310   4.011   4.150   0.989
 3100SOL    HW2 9311   4.140   4.238   0.942
 3101SOL     OW 9312   3.764   4.268   1.114
 3101SOL    HW1 9313   3.849   4.235   1.073
 3101SOL    HW2 9314   3.777   4.283   1.212
 3102SOL     OW 9315   3.913   4.244   1.722
 3102SOL    HW1 9316   3.972   4.204   1.652
 3102SOL    HW2 9317   3.855   4.315   1.681
 3103SOL     OW 9318   4.539   4.296   0.325
 3103SOL    HW1 9319   4.546   4.207   0.279
 3103SOL    HW2 9320   4.445   4.330   0.317
 3104SOL     OW 9321   4.395   4.188   1.269
 3104SOL    HW1 9322   4.361   4.099   1.239
 3104SOL    HW2 9323   4.421   4.242   1.189
 3105SOL     OW 9324   4.197   4.224   0.191
 3105SOL    HW1 9325   4.258   4.304   0.195
 3105SOL    HW2 9326   4.102   4.255   0.198
 3106SOL     OW 9327   3.987   4.050   0.720
 3106SOL    HW1 9328   3.908   4.101   0.686
 3106SOL    HW2 9329   3.978   4.035   0.818
 3107SOL     OW 9330   3.829   4.737   1.726
 3107SOL    HW1 9331   3.752   4.704   1.780
 3107SOL    HW2 9332   3.914   4.707   1.768
 3108SOL     OW 9333   4.396   3.927   1.489
 3108SOL    HW1 9334   4.486   3.911   1.449
 3108SOL    HW2 9335   4.404   3.932   1.588
 3109SOL     OW 9336   3.799   4.069   0.033
 3109SOL    HW1 9337   3.707   4.041   0.004
 3109SOL    HW2 9338   3.830   4.146  -0.023
 3110SOL     OW 9339   3.796   3.890   0.318
 3110SOL    HW1 9340   3.779   3.973   0.264
 3110SOL    HW2 9341   3.886   3.853   0.296
 3111SOL     OW 9342   4.337   4.566   1.431
 3111SOL    HW1 9343   4.393   4.647   1.414
 3111SOL    HW2 9344   4.396   4.486   1.434
 3112SOL     OW 9345   4.440   4.289   1.708
 3112SOL    HW1 9346   4.459   4.354   1.782
 3112SOL    HW2 9347   4.500   4.209   1.717
 3113SOL     OW 9348   4.318   4.469   0.652
 3113SOL    HW1 9349   4.368   4.554   0.633
 3113SOL    HW2 9350   4.230   4.471   0.604
 3114SOL     OW 9351   4.152   4.148   0.520
 3114SOL    HW1 9352   4.182   4.076   0.458
 3114SOL    HW2 9353   4.113   4.108   0.603
 3115SOL     OW 9354   4.041   4.271   1.280
 3115SOL    HW1 9355   4.079   4.212   1.352
 3115SOL    HW2 9356   4.081   4.245   1.192
 3116SOL     OW 9357   3.954   4.352   1.975
 3116SOL    HW1 9358   3.861   4.350   2.012
 3116SOL    HW2 9359   3.955   4.313   1.883
 3117SOL     OW 9360   3.949   3.999   2.858
 3117SOL    HW1 9361   3.984   3.982   2.950
 3117SOL    HW2 9362   3.861   3.954   2.846
 3118SOL     OW 9363   3.743   4.092   2.509
 3118SOL    HW1 9364   3.661   4.135   2.548
 3118SOL    HW2 9365   3.715   4.019   2.446
 3119SOL     OW 9366   4.574   4.522   3.685
 3119SOL    HW1 9367   4.570   4.598   3.750
 3119SOL    HW2 9368   4.596   4.558   3.594
 3120SOL     OW 9369   4.409   4.736   2.527
 3120SOL    HW1 9370   4.478   4.720   2.597
 3120SOL    HW2 9371   4.336   4.793   2.565
 3121SOL     OW 9372   4.162   4.116   3.361
 3121SOL    HW1 9373   4.244   4.060   3.370
 3121SOL    HW2 9374   4.081   4.058   3.365
 3122SOL     OW 9375   3.846   4.367   2.425
 3122SOL    HW1 9376   3.801   4.279   2.442
 3122SOL    HW2 9377   3.845   4.421   2.509
 3123SOL     OW 9378   3.837   4.461   3.459
 3123SOL    HW1 9379   3.925   4.448   3.504
 3123SOL    HW2 9380   3.824   4.558   3.437
 3124SOL     OW 9381   4.533   3.728   2.364
 3124SOL    HW1 9382   4.573   3.819   2.355
 3124SOL    HW2 9383   4.433   3.736   2.370
 3125SOL     OW 9384   4.041   3.975   3.663
 3125SOL    HW1 9385   4.112   4.046   3.669
 3125SOL    HW2 9386   3.953   4.014   3.691
 3126SOL     OW 9387   4.322   4.453   2.132
 3126SOL    HW1 9388   4.346   4.522   2.064
 3126SOL    HW2 9389   4.244   4.486   2.186
 3127SOL     OW 9390   3.800   4.535   2.651
 3127SOL    HW1 9391   3.899   4.523   2.660
 3127SOL    HW2 9392   3.776   4.630   2.672
 3128SOL     OW 9393   4.274   3.920   2.747
 3128SOL    HW1 9394   4.269   3.915   2.847
 3128SOL    HW2 9395   4.276   4.016   2.718
 3129SOL     OW 9396   3.926   4.009   3.360
 3129SOL    HW1 9397   3.846   4.069   3.347
 3129SOL    HW2 9398   3.916   3.960   3.446
 3130SOL     OW 9399   4.106   4.424   2.342
 3130SOL    HW1 9400   4.151   4.334   2.339
 3130SOL    HW2 9401   4.012   4.413   2.375
 3131SOL     OW 9402   4.338   3.846   1.979
 3131SOL    HW1 9403   4.436   3.824   1.986
 3131SOL    HW2 9404   4.307   3.829   1.886
 3132SOL     OW 9405   4.505   3.988   3.611
 3132SOL    HW1 9406   4.572   3.927   3.654
 3132SOL    HW2 9407   4.432   4.007   3.676
 3133SOL     OW 9408   4.646   4.227   2.761
 3133SOL    HW1 9409   4.621   4.218   2.665
 3133SOL    HW2 9410   4.694   4.145   2.792
 3134SOL     OW 9411   4.263   3.788   2.374
 3134SOL    HW1 9412   4.182   3.789   2.432
 3134SOL    HW2 9413   4.266   3.871   2.319
 3135SOL     OW 9414   4.021   3.759   2.033
 3135SOL    HW1 9415   4.070   3.843   2.012
 3135SOL    HW2 9416   4.083   3.694   2.078
 3136SOL     OW 9417   3.802   4.280   3.248
 3136SOL    HW1 9418   3.894   4.279   3.207
 3136SOL    HW2 9419   3.796   4.354   3.315
 3137SOL     OW 9420   4.285   3.946   3.009
 3137SOL    HW1 9421   4.323   3.862   3.046
 3137SOL    HW2 9422   4.197   3.965   3.053
 3138SOL     OW 9423   4.251   3.980   2.190
 3138SOL    HW1 9424   4.278   3.921   2.115
 3138SOL    HW2 9425   4.251   4.075   2.159
 3139SOL     OW 9426   4.639   3.813   3.264
 3139SOL    HW1 9427   4.664   3.793   3.169
 3139SOL    HW2 9428   4.711   3.869   3.306
 3140SOL     OW 9429   4.429   4.774   2.230
 3140SOL    HW1 9430   4.415   4.781   2.329
 3140SOL    HW2 9431   4.513   4.723   2.212
 3141SOL     OW 9432   4.134   4.537   3.113
 3141SOL    HW1 9433   4.220   4.549   3.163
 3141SOL    HW2 9434   4.092   4.450   3.140
 3142SOL     OW 9435   4.290   4.261   2.727
 3142SOL    HW1 9436   4.302   4.327   2.653
 3142SOL    HW2 9437   4.336   4.295   2.810
 3143SOL     OW 9438   4.126   4.475   3.460
 3143SOL    HW1 9439   4.194   4.530   3.413
 3143SOL    HW2 9440   4.166   4.387   3.487
 3144SOL     OW 9441   4.228   3.774   3.602
 3144SOL    HW1 9442   4.186   3.717   3.532
 3144SOL    HW2 9443   4.162   3.843   3.634
 3145SOL     OW 9444   4.297   4.594   2.891
 3145SOL    HW1 9445   4.341   4.683   2.882
 3145SOL    HW2 9446   4.234   4.594   2.968
 3146SOL     OW 9447   4.031   3.937   3.093
 3146SOL    HW1 9448   4.008   3.974   3.183
 3146SOL    HW2 9449   4.001   3.842   3.087
 3147SOL     OW 9450   4.456   4.358   2.926
 3147SOL    HW1 9451   4.515   4.332   2.850
 3147SOL    HW2 9452   4.428   4.454   2.915
 3148SOL     OW 9453   4.031   3.787   2.480
 3148SOL    HW1 9454   4.020   3.881   2.513
 3148SOL    HW2 9455   4.026   3.724   2.557
 3149SOL     OW 9456   4.043   4.534   2.811
 3149SOL    HW1 9457   4.136   4.570   2.816
 3149SOL    HW2 9458   4.037   4.449   2.863
 3150SOL     OW 9459   4.063   4.233   2.868
 3150SOL    HW1 9460   4.011   4.150   2.851
 3150SOL    HW2 9461   4.140   4.238   2.804
 3151SOL     OW 9462   3.764   4.268   2.976
 3151SOL    HW1 9463   3.849   4.235   2.935
 3151SOL    HW2 9464   3.777   4.283   3.074
 3152SOL     OW 9465   3.913   4.244   3.584
 3152SOL    HW1 9466   3.972   4.204   3.514
 3152SOL    HW2 9467   3.855   4.315   3.543
 3153SOL     OW 9468   4.539   4.296   2.187
 3153SOL    HW1 9469   4.546   4.207   2.141
 3153SOL    HW2 9470   4.445   4.330   2.179
 3154SOL     OW 9471   4.395   4.188   3.131
 3154SOL    HW1 9472   4.361   4.099   3.101
 3154SOL    HW2 9473   4.421   4.242   3.051
 3155SOL     OW 9474   4.197   4.224   2.053
 3155SOL    HW1 9475   4.258   4.304   2.057
 3155SOL    HW2 9476   4.102   4.255   2.060
 3156SOL     OW 9477   4.627   3.810   1.995
 3156SOL    HW1 9478   4.678   3.811   1.909
 3156SOL    HW2 9479   4.683   3.768   2.066
 3157SOL     OW 9480   3.987   4.050   2.582
 3157SOL    HW1 9481   3.908   4.101   2.548
 3157SOL    HW2 9482   3.978   4.035   2.680
 3158SOL     OW 9483   3.829   4.737   3.588
 3158SOL    HW1 9484   3.752   4.704   3.642
 3158SOL    HW2 9485   3.914   4.707   3.630
 3159SOL     OW 9486   4.396   3.927   3.351
 3159SOL    HW1 9487   4.486   3.911   3.311
 3159SOL    HW2 9488   4.404   3.932   3.450
 3160SOL     OW 9489   3.799   4.069   1.895
 3160SOL    HW1 9490   3.707   4.041   1.866
 3160SOL    HW2 9491   3.830   4.146   1.839
 3161SOL     OW 9492   3.796   3.890   2.180
 3161SOL    HW1 9493   3.779   3.973   2.126
 3161SOL    HW2 9494   3.886   3.853   2.158
 3162SOL     OW 9495   4.337   4.566   3.293
 3162SOL    HW1 9496   4.393   4.647   3.276
 3162SOL    HW2 9497   4.396   4.486   3.296
 3163SOL     OW 9498   4.440   4.289   3.570
 3163SOL    HW1 9499   4.459   4.354   3.644
 3163SOL    HW2 9500   4.500   4.209   3.579
 3164SOL     OW 9501   4.318   4.469   2.514
 3164SOL    HW1 9502   4.368   4.554   2.495
 3164SOL    HW2 9503   4.230   4.471   2.466
 3165SOL     OW 9504   4.152   4.148   2.382
 3165SOL    HW1 9505   4.182   4.076   2.320
 3165SOL    HW2 9506   4.113   4.108   2.465
 3166SOL     OW 9507   4.041   4.271   3.142
 3166SOL    HW1 9508   4.079   4.212   3.214
 3166SOL    HW2 9509   4.081   4.245   3.054
 3167SOL     OW 9510   3.954   4.352   3.837
 3167SOL    HW1 9511   3.861   4.350   3.874
 3167SOL    HW2 9512   3.955   4.313   3.745
 3168SOL     OW 9513   3.743   4.092   4.371
 3168SOL    HW1 9514   3.661   4.135   4.410
 3168SOL    HW2 9515   3.715   4.019   4.308
 3169SOL     OW 9516   4.409   4.736   4.389
 3169SOL    HW1 9517   4.478   4.720   4.459
 3169SOL    HW2 9518   4.336   4.793   4.427
 3170SOL     OW 9519   3.846   4.367   4.287
 3170SOL    HW1 9520   3.801   4.279   4.304
 3170SOL    HW2 9521   3.845   4.421   4.371
 3171SOL     OW 9522   4.533   3.728   4.226
 3171SOL    HW1 9523   4.573   3.819   4.217
 3171SOL    HW2 9524   4.433   3.736   4.232
 3172SOL     OW 9525   4.322   4.453   3.994
 3172SOL    HW1 9526   4.346   4.522   3.926
 3172SOL    HW2 9527   4.244   4.486   4.048
 3173SOL     OW 9528   3.800   4.535   4.513
 3173SOL    HW1 9529   3.899   4.523   4.522
 3173SOL    HW2 9530   3.776   4.630   4.534
 3174SOL     OW 9531   4.274   3.920   4.609
 3174SOL    HW1 9532   4.269   3.915   4.709
 3174SOL    HW2 9533   4.276   4.016   4.580
 3175SOL     OW 9534   4.106   4.424   4.204
 3175SOL    HW1 9535   4.151   4.334   4.201
 3175SOL    HW2 9536   4.012   4.413   4.237
 3176SOL     OW 9537   4.338   3.846   3.841
 3176SOL    HW1 9538   4.436   3.824   3.848
 3176SOL    HW2 9539   4.307   3.829   3.748
 3177SOL     OW 9540   4.263   3.788   4.236
 3177SOL    HW1 9541   4.182   3.789   4.294
 3177SOL    HW2 9542   4.266   3.871   4.181
 3178SOL     OW 9543   4.021   3.759   3.895
 3178SOL    HW1 9544   4.070   3.843   3.874
 3178SOL    HW2 9545   4.083   3.694   3.940
 3179SOL     OW 9546   4.183   4.876   4.465
 3179SOL    HW1 9547   4.112   4.849   4.530
 3179SOL    HW2 9548   4.157   4.848   4.372
 3180SOL     OW 9549   4.251   3.980   4.052
 3180SOL    HW1 9550   4.278   3.921   3.977
 3180SOL    HW2 9551   4.251   4.075   4.021
 3181SOL     OW 9552   4.429   4.774   4.092
 3181SOL    HW1 9553   4.415   4.781   4.191
 3181SOL    HW2 9554   4.513   4.723   4.074
 3182SOL     OW 9555   4.290   4.261   4.589
 3182SOL    HW1 9556   4.302   4.327   4.515
 3182SOL    HW2 9557   4.336   4.295   4.672
 3183SOL     OW 9558   4.031   3.787   4.342
 3183SOL    HW1 9559   4.020   3.881   4.375
 3183SOL    HW2 9560   4.026   3.724   4.419
 3184SOL     OW 9561   4.539   4.296   4.049
 3184SOL    HW1 9562   4.546   4.207   4.003
 3184SOL    HW2 9563   4.445   4.330   4.041
 3185SOL     OW 9564   4.197   4.224   3.915
 3185SOL    HW1 9565   4.258   4.304   3.919
 3185SOL    HW2 9566   4.102   4.255   3.922
 3186SOL     OW 9567   4.627   3.810   3.857
 3186SOL    HW1 9568   4.678   3.811   3.771
 3186SOL    HW2 9569   4.683   3.768   3.928
 3187SOL     OW 9570   3.987   4.050   4.444
 3187SOL    HW1 9571   3.908   4.101   4.410
 3187SOL    HW2 9572   3.978   4.035   4.542
 3188SOL     OW 9573   3.799   4.069   3.757
 3188SOL    HW1 9574   3.707   4.041   3.728
 3188SOL    HW2 9575   3.830   4.146   3.701
 3189SOL     OW 9576   3.796   3.890   4.042
 3189SOL    HW1 9577   3.779   3.973   3.988
 3189SOL    HW2 9578   3.886   3.853   4.020
 3190SOL     OW 9579   4.318   4.469   4.376
 3190SOL    HW1 9580   4.368   4.554   4.357
 3190SOL    HW2 9581   4.230   4.471   4.328
 3191SOL     OW 9582   4.152   4.148   4.244
 3191SOL    HW1 9583   4.182   4.076   4.182
 3191SOL    HW2 9584   4.113   4.108   4.327
   4.60981   4.60981   4.60981
