mobley_4639255_GMX.gro created by acpype (v: 2023.10.27) on Wed May 20 23:58:00 2026
 10
    1  MOL   C1    1  -0.089   0.045   0.044
    1  MOL   C2    2  -0.215  -0.019  -0.012
    1  MOL   O1    3  -0.085   0.024   0.185
    1  MOL   O2    4  -0.211  -0.159   0.014
    1  MOL   H1    5  -0.089   0.153   0.026
    1  MOL   H2    6   0.000   0.000   0.000
    1  MOL   H3    7  -0.221  -0.005  -0.120
    1  MOL   H4    8  -0.304   0.022   0.036
    1  MOL   H5    9  -0.090   0.111   0.226
    1  MOL   H6   10  -0.260  -0.174   0.096
    6.07600     6.53800     6.93600
