; mobley_4639255_GMX_OPLS.top created by acpype (v: 2023.10.27) on Wed May 20 23:58:00 2026

; Include forcefield parameters
#include "ffoplsaa.itp"

; Include mobley_4639255_GMX.itp topology
#include "mobley_4639255_GMX.itp"

; Ligand position restraints
#ifdef POSRES_LIG
#include "posre_mobley_4639255.itp"
#endif

[ system ]
 mobley_4639255

[ molecules ]
; Compound        nmols
 mobley_4639255   1     
