; mobley_4639255_GMX_OPLS.itp created by acpype (v: 2023.10.27) on Wed May 20 23:58:00 2026

; For OPLS atomtypes manual fine tuning
; AC_at:OPLS_at:OPLScode: Possible_Alternatives (see ffoplsaa.atp and ffoplsaanb.itp)
; c3:CT:opls_135: ['136', '137', '149', '157', '158', '206', '209', '210', '223B', '224B', '245', '246', '274', '283', '284', '285', '292', '292B', '293B', '296', '307', '308', '505']
; oh:OH:opls_154: ['167']
; h1:HC:opls_140: []
; ho:HO:opls_155: ['168']

[ moleculetype ]
;name            nrexcl
 mobley_4639255   3

[ atoms ]
;   nr  type  resi  res  atom  cgnr     charge      mass       ; qtot   bond_type
     1 opls_135     1   MOL    C1    1     0.087900     12.01100 ; qtot  0.088  CT  
     2 opls_135     1   MOL    C2    2     0.087900     12.01100 ; qtot  0.176  CT  
     3 opls_154     1   MOL    O1    3    -0.598300     15.99940 ; qtot -0.423  OH  
     4 opls_154     1   MOL    O2    4    -0.598300     15.99940 ; qtot -1.021  OH  
     5 opls_140     1   MOL    H1    5     0.052700      1.00800 ; qtot -0.968  HC  
     6 opls_140     1   MOL    H2    6     0.052700      1.00800 ; qtot -0.915  HC  
     7 opls_140     1   MOL    H3    7     0.052700      1.00800 ; qtot -0.863  HC  
     8 opls_140     1   MOL    H4    8     0.052700      1.00800 ; qtot -0.810  HC  
     9 opls_155     1   MOL    H5    9     0.405000      1.00800 ; qtot -0.405  HO  
    10 opls_155     1   MOL    H6   10     0.405000      1.00800 ; qtot -0.000  HO  

[ bonds ]
;   ai     aj funct   r             k
     1      2   1 ;    1.5354e-01    1.9154e+05 ;     C1 - C2         CT - CT    
     1      3   1 ;    1.4242e-01    2.3861e+05 ;     C1 - O1         CT - OH    
     1      5   1 ;    1.0969e-01    2.8804e+05 ;     C1 - H1         CT - HC    
     1      6   1 ;    1.0969e-01    2.8804e+05 ;     C1 - H2         CT - HC    
     2      4   1 ;    1.4242e-01    2.3861e+05 ;     C2 - O2         CT - OH    
     2      7   1 ;    1.0969e-01    2.8804e+05 ;     C2 - H3         CT - HC    
     2      8   1 ;    1.0969e-01    2.8804e+05 ;     C2 - H4         CT - HC    
     3      9   1 ;    9.7250e-02    4.4811e+05 ;     O1 - H5         OH - HO    
     4     10   1 ;    9.7250e-02    4.4811e+05 ;     O2 - H6         OH - HO    

[ pairs ]
;   ai     aj    funct
     1     10      1 ;     C1 - H6    
     2      9      1 ;     C2 - H5    
     3      4      1 ;     O1 - O2    
     3      7      1 ;     O1 - H3    
     3      8      1 ;     O1 - H4    
     5      4      1 ;     H1 - O2    
     5      7      1 ;     H1 - H3    
     5      8      1 ;     H1 - H4    
     5      9      1 ;     H1 - H5    
     6      4      1 ;     H2 - O2    
     6      7      1 ;     H2 - H3    
     6      8      1 ;     H2 - H4    
     6      9      1 ;     H2 - H5    
     7     10      1 ;     H3 - H6    
     8     10      1 ;     H4 - H6    

[ angles ]
;   ai     aj     ak    funct   theta         cth
     1      2      4      1 ;    1.0966e+02    6.4258e+02 ;     C1 - C2   - O2       CT -   CT - OH  
     1      2      7      1 ;    1.0959e+02    3.6217e+02 ;     C1 - C2   - H3       CT -   CT - HC  
     1      2      8      1 ;    1.0959e+02    3.6217e+02 ;     C1 - C2   - H4       CT -   CT - HC  
     1      3      9      1 ;    1.0739e+02    5.4501e+02 ;     C1 - O1   - H5       CT -   OH - HO  
     2      1      3      1 ;    1.0966e+02    6.4258e+02 ;     C2 - C1   - O1       CT -   CT - OH  
     2      1      5      1 ;    1.0959e+02    3.6217e+02 ;     C2 - C1   - H1       CT -   CT - HC  
     2      1      6      1 ;    1.0959e+02    3.6217e+02 ;     C2 - C1   - H2       CT -   CT - HC  
     2      4     10      1 ;    1.0739e+02    5.4501e+02 ;     C2 - O2   - H6       CT -   OH - HO  
     3      1      5      1 ;    1.1038e+02    4.7103e+02 ;     O1 - C1   - H1       OH -   CT - HC  
     3      1      6      1 ;    1.1038e+02    4.7103e+02 ;     O1 - C1   - H2       OH -   CT - HC  
     4      2      7      1 ;    1.1038e+02    4.7103e+02 ;     O2 - C2   - H3       OH -   CT - HC  
     4      2      8      1 ;    1.1038e+02    4.7103e+02 ;     O2 - C2   - H4       OH -   CT - HC  
     5      1      6      1 ;    1.0855e+02    2.9824e+02 ;     H1 - C1   - H2       HC -   CT - HC  
     7      2      8      1 ;    1.0855e+02    2.9824e+02 ;     H3 - C2   - H4       HC -   CT - HC  

[ dihedrals ] ; propers
; for gromacs 4.5 or higher, using funct 9
;    i      j      k      l   func   phase     kd      pn
     1      2      4     10      9 ;     0.00   0.25104   3 ;     C1-    C2-    O2-    H6
     2      1      3      9      9 ;     0.00   0.25104   3 ;     C2-    C1-    O1-    H5
     3      1      2      4      9 ;     0.00   4.18400   1 ;     O1-    C1-    C2-    O2
     3      1      2      4      9 ;     0.00   6.02496   3 ;     O1-    C1-    C2-    O2
     3      1      2      7      9 ;     0.00   0.00000   0 ;     O1-    C1-    C2-    H3
     3      1      2      7      9 ;     0.00   1.04600   1 ;     O1-    C1-    C2-    H3
     3      1      2      8      9 ;     0.00   0.00000   0 ;     O1-    C1-    C2-    H4
     3      1      2      8      9 ;     0.00   1.04600   1 ;     O1-    C1-    C2-    H4
     5      1      2      4      9 ;     0.00   0.00000   0 ;     H1-    C1-    C2-    O2
     5      1      2      4      9 ;     0.00   1.04600   1 ;     H1-    C1-    C2-    O2
     5      1      2      7      9 ;     0.00   0.65084   3 ;     H1-    C1-    C2-    H3
     5      1      2      8      9 ;     0.00   0.65084   3 ;     H1-    C1-    C2-    H4
     5      1      3      9      9 ;     0.00   0.51463   3 ;     H1-    C1-    O1-    H5
     6      1      2      4      9 ;     0.00   0.00000   0 ;     H2-    C1-    C2-    O2
     6      1      2      4      9 ;     0.00   1.04600   1 ;     H2-    C1-    C2-    O2
     6      1      2      7      9 ;     0.00   0.65084   3 ;     H2-    C1-    C2-    H3
     6      1      2      8      9 ;     0.00   0.65084   3 ;     H2-    C1-    C2-    H4
     6      1      3      9      9 ;     0.00   0.51463   3 ;     H2-    C1-    O1-    H5
     7      2      4     10      9 ;     0.00   0.51463   3 ;     H3-    C2-    O2-    H6
     8      2      4     10      9 ;     0.00   0.51463   3 ;     H4-    C2-    O2-    H6
