12_ethanediol
    10
  -0.8940000   0.4510000   0.4420000  -2.1460000  -0.1940000  -0.1210000
  -0.8530000   0.2360000   1.8470000  -2.1050000  -1.5920000   0.1370000
  -0.8900000   1.5300000   0.2610000   0.0000000   0.0000000   0.0000000
  -2.2120000  -0.0490000  -1.2040000  -3.0380000   0.2180000   0.3610000
  -0.9000000   1.1110000   2.2640000  -2.6040000  -1.7390000   0.9560000
