; mobley_1838110_GMX_OPLS.itp created by acpype (v: 2023.10.27) on Wed May 20 23:42:01 2026

; For OPLS atomtypes manual fine tuning
; AC_at:OPLS_at:OPLScode: Possible_Alternatives (see ffoplsaa.atp and ffoplsaanb.itp)
; c3:CT:opls_135: ['136', '137', '149', '157', '158', '206', '209', '210', '223B', '224B', '245', '246', '274', '283', '284', '285', '292', '292B', '293B', '296', '307', '308', '505']
; f:x:opls_x: []
; cl:x:opls_x: []

[ moleculetype ]
;name            nrexcl
 mobley_1838110   3

[ atoms ]
;   nr  type  resi  res  atom  cgnr     charge      mass       ; qtot   bond_type
     1 opls_135     1   MOL    C1    1     0.491000     12.01100 ; qtot  0.491  CT  
     2 opls_135     1   MOL    C2    2     0.337100     12.01100 ; qtot  0.828  CT  
     3 opls_x     1   MOL    F1    3    -0.186300      0.00000 ; qtot  0.642  x   
     4 opls_x     1   MOL    F2    4    -0.186300      0.00000 ; qtot  0.456  x   
     5 opls_x     1   MOL    F3    5    -0.161300      0.00000 ; qtot  0.294  x   
     6 opls_x     1   MOL   CL1    6    -0.113400      0.00000 ; qtot  0.181  x   
     7 opls_x     1   MOL   CL2    7    -0.090400      0.00000 ; qtot  0.090  x   
     8 opls_x     1   MOL   CL3    8    -0.090400      0.00000 ; qtot  0.000  x   

[ bonds ]
;   ai     aj funct   r             k
     1      2   1 ;    1.5354e-01    1.9154e+05 ;     C1 - C2         CT - CT    
     1      3   1 ;    1.3512e-01    2.7973e+05 ;     C1 - F1         CT - x     
     1      4   1 ;    1.3512e-01    2.7973e+05 ;     C1 - F2         CT - x     
     1      6   1 ;    1.8092e-01    1.3724e+05 ;     C1 - CL1        CT - x     
     2      5   1 ;    1.3512e-01    2.7973e+05 ;     C2 - F3         CT - x     
     2      7   1 ;    1.8092e-01    1.3724e+05 ;     C2 - CL2        CT - x     
     2      8   1 ;    1.8092e-01    1.3724e+05 ;     C2 - CL3        CT - x     

[ pairs ]
;   ai     aj    funct
     3      5      1 ;     F1 - F3    
     3      7      1 ;     F1 - CL2   
     3      8      1 ;     F1 - CL3   
     4      5      1 ;     F2 - F3    
     4      7      1 ;     F2 - CL2   
     4      8      1 ;     F2 - CL3   
     6      5      1 ;    CL1 - F3    
     6      7      1 ;    CL1 - CL2   
     6      8      1 ;    CL1 - CL3   

[ angles ]
;   ai     aj     ak    funct   theta         cth
     1      2      5      1 ;    1.0948e+02    6.6408e+02 ;     C1 - C2   - F3       CT -   CT - x   
     1      2      7      1 ;    1.1039e+02    5.3254e+02 ;     C1 - C2   - CL2      CT -   CT - x   
     1      2      8      1 ;    1.1039e+02    5.3254e+02 ;     C1 - C2   - CL3      CT -   CT - x   
     2      1      3      1 ;    1.0948e+02    6.6408e+02 ;     C2 - C1   - F1       CT -   CT - x   
     2      1      4      1 ;    1.0948e+02    6.6408e+02 ;     C2 - C1   - F2       CT -   CT - x   
     2      1      6      1 ;    1.1039e+02    5.3254e+02 ;     C2 - C1   - CL1      CT -   CT - x   
     3      1      4      1 ;    1.0737e+02    8.9437e+02 ;     F1 - C1   - F2        x -   CT - x   
     3      1      6      1 ;    1.0914e+02    6.8216e+02 ;     F1 - C1   - CL1       x -   CT - x   
     4      1      6      1 ;    1.0914e+02    6.8216e+02 ;     F2 - C1   - CL1       x -   CT - x   
     5      2      7      1 ;    1.0914e+02    6.8216e+02 ;     F3 - C2   - CL2       x -   CT - x   
     5      2      8      1 ;    1.0914e+02    6.8216e+02 ;     F3 - C2   - CL3       x -   CT - x   
     7      2      8      1 ;    1.0934e+02    5.8225e+02 ;    CL2 - C2   - CL3       x -   CT - x   

[ dihedrals ] ; propers
; for gromacs 4.5 or higher, using funct 9
;    i      j      k      l   func   phase     kd      pn
     3      1      2      5      9 ;     0.00   7.57304   2 ;     F1-    C1-    C2-    F3
     3      1      2      7      9 ;     0.00   0.65084   3 ;     F1-    C1-    C2-   CL2
     3      1      2      8      9 ;     0.00   0.65084   3 ;     F1-    C1-    C2-   CL3
     4      1      2      5      9 ;     0.00   0.65084   3 ;     F2-    C1-    C2-    F3
     4      1      2      5      9 ;     0.00   7.57304   2 ;     F2-    C1-    C2-    F3
     4      1      2      7      9 ;     0.00   0.65084   3 ;     F2-    C1-    C2-   CL2
     4      1      2      8      9 ;     0.00   0.65084   3 ;     F2-    C1-    C2-   CL3
     6      1      2      5      9 ;     0.00   0.65084   3 ;    CL1-    C1-    C2-    F3
     6      1      2      7      9 ;     0.00   5.94128   3 ;    CL1-    C1-    C2-   CL2
     6      1      2      8      9 ;     0.00   5.94128   3 ;    CL1-    C1-    C2-   CL3
