mobley_1838110_GMX.gro created by acpype (v: 2023.10.27) on Wed May 20 23:42:01 2026
 8
    1  MOL   C1    1   0.138   0.003   0.064
    1  MOL   C2    2   0.000   0.000   0.000
    1  MOL   F1    3   0.176  -0.124   0.095
    1  MOL   F2    4   0.229   0.048  -0.028
    1  MOL   F3    5   0.009  -0.077  -0.113
    1  MOL  CL1    6   0.149   0.104   0.210
    1  MOL  CL2    7  -0.054   0.163  -0.049
    1  MOL  CL3    8  -0.121  -0.075   0.108
    6.99400     5.72000     6.44000
