%VERSION  VERSION_STAMP = V0001.000  DATE = 05/20/26  23:42:01                  
%FLAG TITLE                                                                     
%FORMAT(20a4)                                                                   
112_trichloro_122_trifluoroetha                                                 
%FLAG POINTERS                                                                  
%FORMAT(10I8)                                                                   
       8       3       0       7       0      12       0      10       0       0
      29       1       7      12      10       3       5       3       3       0
       0       0       0       0       0       0       0       0       8       0
       0
%FLAG ATOM_NAME                                                                 
%FORMAT(20a4)                                                                   
C1  C2  F1  F2  F3  Cl1 Cl2 Cl3 
%FLAG CHARGE                                                                    
%FORMAT(5E16.8)                                                                 
  8.94714930E+00  6.14273733E+00 -3.39481449E+00 -3.39481449E+00 -2.93925699E+00
 -2.06640882E+00 -1.64729592E+00 -1.64729592E+00
%FLAG ATOMIC_NUMBER                                                             
%FORMAT(10I8)                                                                   
       6       6       9       9       9      17      17      17
%FLAG MASS                                                                      
%FORMAT(5E16.8)                                                                 
  1.20100000E+01  1.20100000E+01  1.90000000E+01  1.90000000E+01  1.90000000E+01
  3.54500000E+01  3.54500000E+01  3.54500000E+01
%FLAG ATOM_TYPE_INDEX                                                           
%FORMAT(10I8)                                                                   
       1       1       2       2       2       3       3       3
%FLAG NUMBER_EXCLUDED_ATOMS                                                     
%FORMAT(10I8)                                                                   
       7       6       5       4       3       2       1       1
%FLAG NONBONDED_PARM_INDEX                                                      
%FORMAT(10I8)                                                                   
       1       2       4       2       3       5       4       5       6
%FLAG RESIDUE_LABEL                                                             
%FORMAT(20a4)                                                                   
MOL 
%FLAG RESIDUE_POINTER                                                           
%FORMAT(10I8)                                                                   
       1
%FLAG BOND_FORCE_CONSTANT                                                       
%FORMAT(5E16.8)                                                                 
  2.28890000E+02  3.34280000E+02  1.64000000E+02
%FLAG BOND_EQUIL_VALUE                                                          
%FORMAT(5E16.8)                                                                 
  1.53540000E+00  1.35120000E+00  1.80920000E+00
%FLAG ANGLE_FORCE_CONSTANT                                                      
%FORMAT(5E16.8)                                                                 
  7.93600000E+01  6.36400000E+01  1.06880000E+02  8.15200000E+01  6.95800000E+01
%FLAG ANGLE_EQUIL_VALUE                                                         
%FORMAT(5E16.8)                                                                 
  1.91078728E+00  1.92666979E+00  1.87396082E+00  1.90485316E+00  1.90834382E+00
%FLAG DIHEDRAL_FORCE_CONSTANT                                                   
%FORMAT(5E16.8)                                                                 
  1.81000000E+00  1.55555556E-01  1.42000000E+00
%FLAG DIHEDRAL_PERIODICITY                                                      
%FORMAT(5E16.8)                                                                 
  2.00000000E+00  3.00000000E+00  3.00000000E+00
%FLAG DIHEDRAL_PHASE                                                            
%FORMAT(5E16.8)                                                                 
  0.00000000E+00  0.00000000E+00  0.00000000E+00
%FLAG SCEE_SCALE_FACTOR                                                         
%FORMAT(5E16.8)                                                                 
  1.20000000E+00  1.20000000E+00  1.20000000E+00
%FLAG SCNB_SCALE_FACTOR                                                         
%FORMAT(5E16.8)                                                                 
  2.00000000E+00  2.00000000E+00  2.00000000E+00
%FLAG SOLTY                                                                     
%FORMAT(5E16.8)                                                                 
  0.00000000E+00  0.00000000E+00  0.00000000E+00
%FLAG LENNARD_JONES_ACOEF                                                       
%FORMAT(5E16.8)                                                                 
  1.02073671E+06  4.63627012E+05  2.02652992E+05  1.80018612E+06  8.23189596E+05
  3.17107030E+06
%FLAG LENNARD_JONES_BCOEF                                                       
%FORMAT(5E16.8)                                                                 
  6.63431737E+02  4.19082844E+02  2.59697739E+02  1.10195051E+03  6.98440575E+02
  1.82923847E+03
%FLAG BONDS_INC_HYDROGEN                                                        
%FORMAT(10I8)                                                                   

%FLAG BONDS_WITHOUT_HYDROGEN                                                    
%FORMAT(10I8)                                                                   
       0       3       1       0       6       2       0       9       2       0
      15       3       3      12       2       3      18       3       3      21
       3
%FLAG ANGLES_INC_HYDROGEN                                                       
%FORMAT(10I8)                                                                   

%FLAG ANGLES_WITHOUT_HYDROGEN                                                   
%FORMAT(10I8)                                                                   
       0       3      12       1       0       3      18       2       0       3
      21       2       3       0       6       1       3       0       9       1
       3       0      15       2       6       0       9       3       6       0
      15       4       9       0      15       4      12       3      18       4
      12       3      21       4      18       3      21       5
%FLAG DIHEDRALS_INC_HYDROGEN                                                    
%FORMAT(10I8)                                                                   

%FLAG DIHEDRALS_WITHOUT_HYDROGEN                                                
%FORMAT(10I8)                                                                   
       6       0       3      12       1       6       0       3      18       2
       6       0       3      21       2       9       0       3      12       1
       9       0      -3      12       2       9       0       3      18       2
       9       0       3      21       2      15       0       3      12       2
      15       0       3      18       3      15       0       3      21       3
%FLAG EXCLUDED_ATOMS_LIST                                                       
%FORMAT(10I8)                                                                   
       2       3       4       5       6       7       8       3       4       5
       6       7       8       4       5       6       7       8       5       6
       7       8       6       7       8       7       8       8       0
%FLAG HBOND_ACOEF                                                               
%FORMAT(5E16.8)                                                                 

%FLAG HBOND_BCOEF                                                               
%FORMAT(5E16.8)                                                                 

%FLAG HBCUT                                                                     
%FORMAT(5E16.8)                                                                 

%FLAG AMBER_ATOM_TYPE                                                           
%FORMAT(20a4)                                                                   
c3  c3  f   f   f   cl  cl  cl  
%FLAG TREE_CHAIN_CLASSIFICATION                                                 
%FORMAT(20a4)                                                                   
BLA BLA BLA BLA BLA BLA BLA BLA 
%FLAG JOIN_ARRAY                                                                
%FORMAT(10I8)                                                                   
       0       0       0       0       0       0       0       0
%FLAG IROTAT                                                                    
%FORMAT(10I8)                                                                   
       0       0       0       0       0       0       0       0
%FLAG RADIUS_SET                                                                
%FORMAT(1a80)                                                                   
modified Bondi radii (mbondi)                                                   
%FLAG RADII                                                                     
%FORMAT(5E16.8)                                                                 
  1.70000000E+00  1.70000000E+00  1.50000000E+00  1.50000000E+00  1.50000000E+00
  1.70000000E+00  1.70000000E+00  1.70000000E+00
%FLAG SCREEN                                                                    
%FORMAT(5E16.8)                                                                 
  7.20000000E-01  7.20000000E-01  8.80000000E-01  8.80000000E-01  8.80000000E-01
  8.00000000E-01  8.00000000E-01  8.00000000E-01
%FLAG IPOL                                                                      
%FORMAT(1I8)                                                                    
       0
