mobley_6935906_GMX.gro created by acpype (v: 2023.10.27) on Wed May 20 23:45:15 2026
   34
    1MOL     C1    1   2.342   2.337   2.365
    1MOL     C2    2   2.457   2.405   2.374
    1MOL     C3    3   2.619   2.567   2.751
    1MOL     C4    4   2.559   2.507   2.855
    1MOL     C5    5   2.595   2.560   2.185
    1MOL     C6    6   2.570   2.552   2.998
    1MOL     C7    7   2.475   2.384   2.835
    1MOL     C8    8   2.726   2.603   2.126
    1MOL     C9    9   2.362   2.639   2.323
    1MOL    C10   10   2.612   2.528   2.606
    1MOL    C11   11   2.494   2.595   2.536
    1MOL    C12   12   2.473   2.555   2.388
    1MOL     O1   13   2.505   2.507   2.122
    1MOL     O2   14   2.594   2.591   2.318
    1MOL     H1   15   2.340   2.229   2.355
    1MOL     H2   16   2.247   2.389   2.368
    1MOL     H3   17   2.549   2.348   2.371
    1MOL     H4   18   2.681   2.655   2.770
    1MOL     H5   19   2.490   2.623   3.022
    1MOL     H6   20   2.667   2.602   3.015
    1MOL     H7   21   2.562   2.471   3.070
    1MOL     H8   22   2.537   2.294   2.843
    1MOL     H9   23   2.395   2.376   2.909
    1MOL    H10   24   2.429   2.386   2.735
    1MOL    H11   25   2.719   2.706   2.090
    1MOL    H12   26   2.753   2.535   2.044
    1MOL    H13   27   2.804   2.598   2.202
    1MOL    H14   28   2.381   2.746   2.337
    1MOL    H15   29   2.352   2.620   2.215
    1MOL    H16   30   2.265   2.619   2.370
    1MOL    H17   31   2.706   2.558   2.559
    1MOL    H18   32   2.607   2.419   2.595
    1MOL    H19   33   2.505   2.705   2.542
    1MOL    H20   34   2.401   2.574   2.592
   5.04559   5.04559   5.04559
