mobley_6935906_GMX.gro created by acpype (v: 2023.10.27) on Wed May 20 23:45:15 2026
12475
    1MOL     C1    1   2.342   2.337   2.365
    1MOL     C2    2   2.457   2.405   2.374
    1MOL     C3    3   2.619   2.567   2.751
    1MOL     C4    4   2.559   2.507   2.855
    1MOL     C5    5   2.595   2.560   2.185
    1MOL     C6    6   2.570   2.552   2.998
    1MOL     C7    7   2.475   2.384   2.835
    1MOL     C8    8   2.726   2.603   2.126
    1MOL     C9    9   2.362   2.639   2.323
    1MOL    C10   10   2.612   2.528   2.606
    1MOL    C11   11   2.494   2.595   2.536
    1MOL    C12   12   2.473   2.555   2.388
    1MOL     O1   13   2.505   2.507   2.122
    1MOL     O2   14   2.594   2.591   2.318
    1MOL     H1   15   2.340   2.229   2.355
    1MOL     H2   16   2.247   2.389   2.368
    1MOL     H3   17   2.549   2.348   2.371
    1MOL     H4   18   2.681   2.655   2.770
    1MOL     H5   19   2.490   2.623   3.022
    1MOL     H6   20   2.667   2.602   3.015
    1MOL     H7   21   2.562   2.471   3.070
    1MOL     H8   22   2.537   2.294   2.843
    1MOL     H9   23   2.395   2.376   2.909
    1MOL    H10   24   2.429   2.386   2.735
    1MOL    H11   25   2.719   2.706   2.090
    1MOL    H12   26   2.753   2.535   2.044
    1MOL    H13   27   2.804   2.598   2.202
    1MOL    H14   28   2.381   2.746   2.337
    1MOL    H15   29   2.352   2.620   2.215
    1MOL    H16   30   2.265   2.619   2.370
    1MOL    H17   31   2.706   2.558   2.559
    1MOL    H18   32   2.607   2.419   2.595
    1MOL    H19   33   2.505   2.705   2.542
    1MOL    H20   34   2.401   2.574   2.592
    2SOL     OW   35   0.230   0.628   0.113
    2SOL    HW1   36   0.137   0.626   0.150
    2SOL    HW2   37   0.231   0.589   0.021
    3SOL     OW   38   0.225   0.275   0.996
    3SOL    HW1   39   0.260   0.258   1.088
    3SOL    HW2   40   0.137   0.230   0.984
    4SOL     OW   41   0.019   0.368   0.647
    4SOL    HW1   42  -0.063   0.411   0.686
    4SOL    HW2   43  -0.009   0.295   0.584
    5SOL     OW   44   0.569   1.275   1.165
    5SOL    HW1   45   0.476   1.268   1.128
    5SOL    HW2   46   0.580   1.364   1.209
    6SOL     OW   47   1.555   1.511   0.703
    6SOL    HW1   48   1.498   1.495   0.784
    6SOL    HW2   49   1.496   1.521   0.623
    7SOL     OW   50   1.135   0.703   0.717
    7SOL    HW1   51   1.192   0.781   0.692
    7SOL    HW2   52   1.075   0.729   0.793
    8SOL     OW   53   1.755   0.607   0.231
    8SOL    HW1   54   1.743   0.594   0.132
    8SOL    HW2   55   1.725   0.526   0.280
    9SOL     OW   56   0.768   1.144   1.023
    9SOL    HW1   57   0.690   1.161   1.083
    9SOL    HW2   58   0.802   1.231   0.987
   10SOL     OW   59   0.850   0.798   1.823
   10SOL    HW1   60   0.846   0.874   1.888
   10SOL    HW2   61   0.872   0.834   1.732
   11SOL     OW   62   0.685   1.012   0.665
   11SOL    HW1   63   0.754   0.996   0.735
   11SOL    HW2   64   0.612   1.069   0.703
   12SOL     OW   65   0.686   1.161   1.803
   12SOL    HW1   66   0.746   1.240   1.817
   12SOL    HW2   67   0.600   1.192   1.762
   13SOL     OW   68   0.335   1.435   1.061
   13SOL    HW1   69   0.257   1.404   1.008
   13SOL    HW2   70   0.393   1.493   1.004
   14SOL     OW   71   1.460   1.505   1.339
   14SOL    HW1   72   1.484   1.599   1.365
   14SOL    HW2   73   1.444   1.451   1.421
   15SOL     OW   74   0.438   0.392   1.499
   15SOL    HW1   75   0.520   0.336   1.508
   15SOL    HW2   76   0.357   0.334   1.503
   16SOL     OW   77   1.603   0.447   0.737
   16SOL    HW1   78   1.529   0.493   0.687
   16SOL    HW2   79   1.654   0.515   0.790
   17SOL     OW   80   0.231   1.713   0.483
   17SOL    HW1   81   0.265   1.790   0.537
   17SOL    HW2   82   0.275   1.713   0.393
   18SOL     OW   83   1.127   1.341   1.690
   18SOL    HW1   84   1.174   1.341   1.778
   18SOL    HW2   85   1.079   1.254   1.679
   19SOL     OW   86   0.230   1.434   0.538
   19SOL    HW1   87   0.204   1.530   0.538
   19SOL    HW2   88   0.159   1.380   0.583
   20SOL     OW   89   0.240   1.091   0.886
   20SOL    HW1   90   0.254   1.007   0.938
   20SOL    HW2   91   0.185   1.155   0.941
   21SOL     OW   92   0.620   1.786   1.439
   21SOL    HW1   93   0.528   1.769   1.474
   21SOL    HW2   94   0.648   1.878   1.465
   22SOL     OW   95   0.606   0.964   0.123
   22SOL    HW1   96   0.613   1.048   0.069
   22SOL    HW2   97   0.652   0.977   0.211
   23SOL     OW   98   1.594   0.114   1.480
   23SOL    HW1   99   1.576   0.181   1.408
   23SOL    HW2  100   1.591   0.160   1.569
   24SOL     OW  101   0.122   0.643   0.563
   24SOL    HW1  102   0.077   0.555   0.580
   24SOL    HW2  103   0.121   0.697   0.647
   25SOL     OW  104   1.842   1.767   0.359
   25SOL    HW1  105   1.896   1.738   0.439
   25SOL    HW2  106   1.872   1.857   0.330
   26SOL     OW  107   0.027   1.596   0.117
   26SOL    HW1  108   0.008   1.500   0.138
   26SOL    HW2  109  -0.006   1.654   0.192
   27SOL     OW  110   1.689   0.922   0.612
   27SOL    HW1  111   1.784   0.893   0.620
   27SOL    HW2  112   1.681   0.987   0.537
   28SOL     OW  113   1.641   1.108   0.432
   28SOL    HW1  114   1.727   1.110   0.380
   28SOL    HW2  115   1.655   1.155   0.520
   29SOL     OW  116   0.113   0.737   1.597
   29SOL    HW1  117   0.201   0.724   1.642
   29SOL    HW2  118   0.100   0.834   1.575
   30SOL     OW  119   0.613   1.365   0.726
   30SOL    HW1  120   0.564   1.278   0.735
   30SOL    HW2  121   0.590   1.408   0.639
   31SOL     OW  122   1.293   1.228   1.423
   31SOL    HW1  123   1.330   1.155   1.365
   31SOL    HW2  124   1.345   1.233   1.508
   32SOL     OW  125   0.809   0.004   0.502
   32SOL    HW1  126   0.849   0.095   0.493
   32SOL    HW2  127   0.709   0.012   0.508
   33SOL     OW  128   0.197   0.976   1.264
   33SOL    HW1  129   0.286   0.931   1.250
   33SOL    HW2  130   0.124   0.911   1.245
   34SOL     OW  131   1.525   0.999   0.190
   34SOL    HW1  132   1.462   0.923   0.203
   34SOL    HW2  133   1.573   1.017   0.276
   35SOL     OW  134   1.187   1.792   1.616
   35SOL    HW1  135   1.211   1.852   1.540
   35SOL    HW2  136   1.194   1.697   1.586
   36SOL     OW  137   0.317   0.251   1.801
   36SOL    HW1  138   0.388   0.322   1.807
   36SOL    HW2  139   0.229   0.290   1.829
   37SOL     OW  140   1.466   1.417   0.953
   37SOL    HW1  141   1.407   1.423   1.033
   37SOL    HW2  142   1.451   1.329   0.907
   38SOL     OW  143   1.667   1.714   0.572
   38SOL    HW1  144   1.626   1.691   0.484
   38SOL    HW2  145   1.649   1.640   0.637
   39SOL     OW  146   0.598   0.729   0.270
   39SOL    HW1  147   0.622   0.798   0.202
   39SOL    HW2  148   0.520   0.762   0.324
   40SOL     OW  149   1.281   0.345   0.944
   40SOL    HW1  150   1.195   0.295   0.931
   40SOL    HW2  151   1.343   0.291   1.000
   41SOL     OW  152   1.576   1.662   0.307
   41SOL    HW1  153   1.665   1.708   0.310
   41SOL    HW2  154   1.555   1.638   0.212
   42SOL     OW  155   0.807   0.605   1.465
   42SOL    HW1  156   0.760   0.602   1.554
   42SOL    HW2  157   0.756   0.550   1.399
   43SOL     OW  158   1.394   0.469   1.674
   43SOL    HW1  159   1.374   0.512   1.762
   43SOL    HW2  160   1.472   0.407   1.683
   44SOL     OW  161   0.973   0.890   1.572
   44SOL    HW1  162   1.019   0.806   1.543
   44SOL    HW2  163   0.917   0.924   1.497
   45SOL     OW  164   0.991   0.410   1.242
   45SOL    HW1  165   0.914   0.444   1.296
   45SOL    HW2  166   0.957   0.359   1.163
   46SOL     OW  167   1.041   0.701   0.429
   46SOL    HW1  168   1.067   0.697   0.525
   46SOL    HW2  169   0.956   0.650   0.415
   47SOL     OW  170   0.076   0.811   0.789
   47SOL    HW1  171   0.175   0.799   0.798
   47SOL    HW2  172   0.052   0.906   0.810
   48SOL     OW  173   0.130   1.821   1.571
   48SOL    HW1  174   0.120   1.806   1.670
   48SOL    HW2  175   0.044   1.857   1.535
   49SOL     OW  176   0.865   0.348   0.195
   49SOL    HW1  177   0.924   0.411   0.146
   49SOL    HW2  178   0.884   0.254   0.166
   50SOL     OW  179   1.719   0.585   1.831
   50SOL    HW1  180   1.693   0.674   1.795
   50SOL    HW2  181   1.717   0.517   1.758
   51SOL     OW  182   1.362   1.144   0.545
   51SOL    HW1  183   1.445   1.115   0.497
   51SOL    HW2  184   1.313   1.211   0.489
   52SOL     OW  185   0.550   0.196   0.885
   52SOL    HW1  186   0.545   0.191   0.985
   52SOL    HW2  187   0.552   0.292   0.856
   53SOL     OW  188   1.008   1.456   0.477
   53SOL    HW1  189   0.962   1.528   0.425
   53SOL    HW2  190   1.004   1.476   0.575
   54SOL     OW  191   0.351   1.801   0.853
   54SOL    HW1  192   0.401   1.715   0.859
   54SOL    HW2  193   0.416   1.878   0.850
   55SOL     OW  194   1.795   1.066   0.873
   55SOL    HW1  195   1.733   1.051   0.797
   55SOL    HW2  196   1.743   1.077   0.958
   56SOL     OW  197   1.227   1.550   1.506
   56SOL    HW1  198   1.233   1.473   1.570
   56SOL    HW2  199   1.175   1.524   1.426
   57SOL     OW  200   0.321   0.943   0.242
   57SOL    HW1  201   0.403   0.982   0.200
   57SOL    HW2  202   0.294   0.861   0.193
   58SOL     OW  203   1.458   0.735   0.728
   58SOL    HW1  204   1.453   0.670   0.803
   58SOL    HW2  205   1.538   0.794   0.741
   59SOL     OW  206   0.461   1.266   1.727
   59SOL    HW1  207   0.411   1.267   1.641
   59SOL    HW2  208   0.398   1.248   1.803
   60SOL     OW  209   1.111   1.776   0.237
   60SOL    HW1  210   1.051   1.714   0.287
   60SOL    HW2  211   1.142   1.732   0.152
   61SOL     OW  212   0.202   0.285   1.498
   61SOL    HW1  213   0.122   0.345   1.485
   61SOL    HW2  214   0.192   0.236   1.584
   62SOL     OW  215   1.632   1.377   0.081
   62SOL    HW1  216   1.600   1.471   0.071
   62SOL    HW2  217   1.556   1.314   0.069
   63SOL     OW  218   0.464   1.743   0.323
   63SOL    HW1  219   0.497   1.782   0.409
   63SOL    HW2  220   0.540   1.736   0.258
   64SOL     OW  221   1.400   0.107   0.426
   64SOL    HW1  222   1.376   0.070   0.336
   64SOL    HW2  223   1.499   0.123   0.430
   65SOL     OW  224   0.249   1.785   1.241
   65SOL    HW1  225   0.306   1.720   1.291
   65SOL    HW2  226   0.233   1.752   1.148
   66SOL     OW  227   0.940   1.698   0.904
   66SOL    HW1  228   1.020   1.641   0.925
   66SOL    HW2  229   0.891   1.658   0.827
   67SOL     OW  230   0.382   0.700   0.480
   67SOL    HW1  231   0.427   0.610   0.477
   67SOL    HW2  232   0.288   0.689   0.513
   68SOL     OW  233   1.547   0.222   1.729
   68SOL    HW1  234   1.542   0.259   1.821
   68SOL    HW2  235   1.475   0.153   1.717
   69SOL     OW  236   0.614   0.122   0.117
   69SOL    HW1  237   0.712   0.100   0.124
   69SOL    HW2  238   0.583   0.105   0.024
   70SOL     OW  239   0.781   0.264   1.749
   70SOL    HW1  240   0.848   0.203   1.792
   70SOL    HW2  241   0.708   0.283   1.814
   71SOL     OW  242   0.888   1.514   1.195
   71SOL    HW1  243   0.865   1.489   1.101
   71SOL    HW2  244   0.949   1.445   1.234
   72SOL     OW  245   1.351   0.590   1.433
   72SOL    HW1  246   1.379   0.547   1.518
   72SOL    HW2  247   1.376   0.686   1.434
   73SOL     OW  248   0.803   1.402   0.924
   73SOL    HW1  249   0.893   1.416   0.882
   73SOL    HW2  250   0.732   1.404   0.853
   74SOL     OW  251   0.922   0.503   0.899
   74SOL    HW1  252   0.897   0.494   0.803
   74SOL    HW2  253   0.970   0.421   0.930
   75SOL     OW  254   0.539   0.064   0.512
   75SOL    HW1  255   0.458   0.065   0.570
   75SOL    HW2  256   0.542   0.147   0.457
   76SOL     OW  257   1.434   1.188   0.041
   76SOL    HW1  258   1.466   1.112   0.098
   76SOL    HW2  259   1.342   1.215   0.071
   77SOL     OW  260   0.297   0.035   0.171
   77SOL    HW1  261   0.346   0.119   0.150
   77SOL    HW2  262   0.359  -0.030   0.216
   78SOL     OW  263   0.935   0.236   0.480
   78SOL    HW1  264   0.887   0.277   0.402
   78SOL    HW2  265   1.034   0.234   0.461
   79SOL     OW  266   1.076   0.683   1.464
   79SOL    HW1  267   0.996   0.622   1.467
   79SOL    HW2  268   1.157   0.630   1.440
   80SOL     OW  269   1.227   1.570   0.793
   80SOL    HW1  270   1.248   1.644   0.728
   80SOL    HW2  271   1.295   1.570   0.866
   81SOL     OW  272   0.459   1.152   0.741
   81SOL    HW1  273   0.388   1.125   0.806
   81SOL    HW2  274   0.433   1.124   0.648
   82SOL     OW  275   1.271   1.797   0.591
   82SOL    HW1  276   1.315   1.861   0.527
   82SOL    HW2  277   1.221   1.849   0.661
   83SOL     OW  278   1.032   0.549   0.016
   83SOL    HW1  279   0.991   0.631  -0.023
   83SOL    HW2  280   1.096   0.575   0.089
   84SOL     OW  281   0.078   0.556   1.386
   84SOL    HW1  282   0.170   0.555   1.345
   84SOL    HW2  283   0.072   0.630   1.453
   85SOL     OW  284   0.561   0.222   1.147
   85SOL    HW1  285   0.599   0.138   1.184
   85SOL    HW2  286   0.473   0.241   1.191
   86SOL     OW  287   0.866   0.454   0.642
   86SOL    HW1  288   0.834   0.526   0.580
   86SOL    HW2  289   0.890   0.373   0.589
   87SOL     OW  290   1.017   0.039   0.753
   87SOL    HW1  291   0.945   0.044   0.684
   87SOL    HW2  292   0.993  -0.030   0.822
   88SOL     OW  293   1.429   1.173   0.867
   88SOL    HW1  294   1.374   1.089   0.860
   88SOL    HW2  295   1.455   1.202   0.775
   89SOL     OW  296   1.466   0.590   0.992
   89SOL    HW1  297   1.436   0.495   0.999
   89SOL    HW2  298   1.539   0.606   1.058
   90SOL     OW  299   1.857   0.833   0.377
   90SOL    HW1  300   1.899   0.769   0.441
   90SOL    HW2  301   1.819   0.782   0.299
   91SOL     OW  302   0.488   1.385   0.174
   91SOL    HW1  303   0.401   1.370   0.221
   91SOL    HW2  304   0.471   1.411   0.079
   92SOL     OW  305   1.664   1.280   0.657
   92SOL    HW1  306   1.763   1.288   0.671
   92SOL    HW2  307   1.619   1.364   0.688
   93SOL     OW  308   1.390   0.575   0.078
   93SOL    HW1  309   1.336   0.554   0.159
   93SOL    HW2  310   1.481   0.534   0.087
   94SOL     OW  311   0.527   0.256   0.328
   94SOL    HW1  312   0.554   0.197   0.253
   94SOL    HW2  313   0.527   0.351   0.297
   95SOL     OW  314   1.754   1.223   1.588
   95SOL    HW1  315   1.845   1.184   1.575
   95SOL    HW2  316   1.762   1.319   1.612
   96SOL     OW  317   1.064   1.347   1.340
   96SOL    HW1  318   0.984   1.324   1.395
   96SOL    HW2  319   1.147   1.321   1.389
   97SOL     OW  320   1.592   1.629   1.625
   97SOL    HW1  321   1.619   1.663   1.535
   97SOL    HW2  322   1.671   1.591   1.671
   98SOL     OW  323   1.111   1.195   1.100
   98SOL    HW1  324   1.071   1.239   1.181
   98SOL    HW2  325   1.070   1.232   1.017
   99SOL     OW  326   1.638   1.099   1.079
   99SOL    HW1  327   1.643   1.180   1.138
   99SOL    HW2  328   1.552   1.101   1.028
  100SOL     OW  329   0.915   0.089   1.402
  100SOL    HW1  330   0.940   0.069   1.307
  100SOL    HW2  331   0.987   0.145   1.444
  101SOL     OW  332   0.980   1.116   1.719
  101SOL    HW1  333   0.881   1.122   1.729
  101SOL    HW2  334   1.003   1.036   1.663
  102SOL     OW  335   0.705   1.050   0.368
  102SOL    HW1  336   0.691   1.057   0.467
  102SOL    HW2  337   0.789   0.999   0.350
  103SOL     OW  338   0.410   0.813   1.251
  103SOL    HW1  339   0.496   0.825   1.301
  103SOL    HW2  340   0.368   0.726   1.278
  104SOL     OW  341   1.274   0.386   1.262
  104SOL    HW1  342   1.295   0.460   1.326
  104SOL    HW2  343   1.185   0.403   1.219
  105SOL     OW  344   0.064   1.564   1.331
  105SOL    HW1  345   0.018   1.646   1.297
  105SOL    HW2  346   0.162   1.583   1.340
  106SOL     OW  347   0.367   1.100   0.501
  106SOL    HW1  348   0.360   1.183   0.445
  106SOL    HW2  349   0.371   1.020   0.441
  107SOL     OW  350   0.566   0.537   0.865
  107SOL    HW1  351   0.578   0.603   0.791
  107SOL    HW2  352   0.612   0.571   0.948
  108SOL     OW  353   1.252   1.348   0.388
  108SOL    HW1  354   1.302   1.425   0.428
  108SOL    HW2  355   1.157   1.350   0.420
  109SOL     OW  356   1.272   1.445   1.142
  109SOL    HW1  357   1.319   1.458   1.229
  109SOL    HW2  358   1.206   1.371   1.151
  110SOL     OW  359   1.582   0.639   0.472
  110SOL    HW1  360   1.551   0.700   0.545
  110SOL    HW2  361   1.632   0.691   0.403
  111SOL     OW  362   0.354   1.510   1.329
  111SOL    HW1  363   0.333   1.466   1.242
  111SOL    HW2  364   0.451   1.536   1.332
  112SOL     OW  365   0.402   0.751   1.598
  112SOL    HW1  366   0.470   0.806   1.551
  112SOL    HW2  367   0.442   0.663   1.625
  113SOL     OW  368   1.587   0.779   1.670
  113SOL    HW1  369   1.495   0.817   1.665
  113SOL    HW2  370   1.647   0.826   1.605
  114SOL     OW  371   1.013   0.105   1.770
  114SOL    HW1  372   1.019   0.190   1.718
  114SOL    HW2  373   1.045   0.029   1.713
  115SOL     OW  374   0.504   0.050   1.740
  115SOL    HW1  375   0.462  -0.007   1.670
  115SOL    HW2  376   0.438   0.119   1.772
  116SOL     OW  377   0.573   0.870   1.029
  116SOL    HW1  378   0.617   0.959   1.020
  116SOL    HW2  379   0.510   0.870   1.106
  117SOL     OW  380   1.360   0.862   1.045
  117SOL    HW1  381   1.285   0.862   0.979
  117SOL    HW2  382   1.397   0.770   1.054
  118SOL     OW  383   1.209   0.525   0.275
  118SOL    HW1  384   1.222   0.441   0.329
  118SOL    HW2  385   1.180   0.599   0.335
  119SOL     OW  386   0.307   0.213   1.231
  119SOL    HW1  387   0.284   0.250   1.321
  119SOL    HW2  388   0.277   0.118   1.225
  120SOL     OW  389   0.037   1.310   1.282
  120SOL    HW1  390   0.090   1.261   1.350
  120SOL    HW2  391   0.059   1.408   1.287
  121SOL     OW  392   0.732   0.634   1.064
  121SOL    HW1  393   0.791   0.608   0.988
  121SOL    HW2  394   0.704   0.730   1.053
  122SOL     OW  395   1.728   0.935   1.854
  122SOL    HW1  396   1.682   0.928   1.765
  122SOL    HW2  397   1.666   0.979   1.920
  123SOL     OW  398   0.307   0.063   0.618
  123SOL    HW1  399   0.296   0.157   0.651
  123SOL    HW2  400   0.302   0.000   0.695
  124SOL     OW  401   1.622   0.367   0.374
  124SOL    HW1  402   1.624   0.291   0.438
  124SOL    HW2  403   1.574   0.444   0.414
  125SOL     OW  404   1.023   0.766   0.966
  125SOL    HW1  405   1.038   0.787   1.062
  125SOL    HW2  406   0.993   0.671   0.957
  126SOL     OW  407   0.980   1.573   1.700
  126SOL    HW1  408   0.960   1.617   1.612
  126SOL    HW2  409   1.019   1.482   1.684
  127SOL     OW  410   1.859   1.518   1.605
  127SOL    HW1  411   1.873   1.545   1.510
  127SOL    HW2  412   1.942   1.540   1.658
  128SOL     OW  413   0.350   0.898   1.804
  128SOL    HW1  414   0.426   0.942   1.852
  128SOL    HW2  415   0.385   0.851   1.722
  129SOL     OW  416   1.540   0.274   0.125
  129SOL    HW1  417   1.479   0.199   0.148
  129SOL    HW2  418   1.562   0.326   0.208
  130SOL     OW  419   1.303   0.838   0.042
  130SOL    HW1  420   1.337   0.745   0.057
  130SOL    HW2  421   1.321   0.865  -0.053
  131SOL     OW  422   1.068   1.333   0.849
  131SOL    HW1  423   1.075   1.249   0.794
  131SOL    HW2  424   1.130   1.402   0.813
  132SOL     OW  425   0.319   0.810   0.949
  132SOL    HW1  426   0.412   0.846   0.954
  132SOL    HW2  427   0.313   0.725   1.001
  133SOL     OW  428   0.339   0.509   1.006
  133SOL    HW1  429   0.287   0.426   0.989
  133SOL    HW2  430   0.416   0.514   0.942
  134SOL     OW  431   1.138   0.380   1.678
  134SOL    HW1  432   1.093   0.443   1.742
  134SOL    HW2  433   1.231   0.411   1.661
  135SOL     OW  434   1.160   0.207   1.477
  135SOL    HW1  435   1.160   0.271   1.554
  135SOL    HW2  436   1.188   0.255   1.394
  136SOL     OW  437   0.008   1.326   0.200
  136SOL    HW1  438  -0.085   1.347   0.169
  136SOL    HW2  439   0.018   1.227   0.213
  137SOL     OW  440   0.088   1.801   0.927
  137SOL    HW1  441   0.046   1.715   0.900
  137SOL    HW2  442   0.182   1.804   0.893
  138SOL     OW  443   0.504   1.568   0.910
  138SOL    HW1  444   0.570   1.642   0.919
  138SOL    HW2  445   0.548   1.489   0.868
  139SOL     OW  446   1.002   0.796   1.238
  139SOL    HW1  447   1.043   0.764   1.324
  139SOL    HW2  448   0.906   0.769   1.235
  140SOL     OW  449   0.040   0.544   1.114
  140SOL    HW1  450   0.125   0.511   1.073
  140SOL    HW2  451   0.053   0.559   1.212
  141SOL     OW  452   0.189   0.520   1.722
  141SOL    HW1  453   0.248   0.480   1.652
  141SOL    HW2  454   0.131   0.591   1.681
  142SOL     OW  455   1.369   0.950   1.660
  142SOL    HW1  456   1.408   1.039   1.680
  142SOL    HW2  457   1.379   0.930   1.563
  143SOL     OW  458   0.815   0.572   0.325
  143SOL    HW1  459   0.822   0.483   0.279
  143SOL    HW2  460   0.721   0.606   0.317
  144SOL     OW  461   1.657   0.604   1.206
  144SOL    HW1  462   1.619   0.535   1.268
  144SOL    HW2  463   1.739   0.568   1.162
  145SOL     OW  464   0.252   1.564   1.744
  145SOL    HW1  465   0.222   1.621   1.820
  145SOL    HW2  466   0.245   1.467   1.770
  146SOL     OW  467   0.671   0.464   1.269
  146SOL    HW1  468   0.637   0.375   1.239
  146SOL    HW2  469   0.697   0.518   1.189
  147SOL     OW  470   0.930   1.678   1.465
  147SOL    HW1  471   0.906   1.660   1.370
  147SOL    HW2  472   0.960   1.772   1.475
  148SOL     OW  473   0.473   0.500   0.191
  148SOL    HW1  474   0.534   0.580   0.195
  148SOL    HW2  475   0.378   0.531   0.198
  149SOL     OW  476   0.159   1.137   1.466
  149SOL    HW1  477   0.181   1.076   1.542
  149SOL    HW2  478   0.169   1.088   1.380
  150SOL     OW  479   1.347   1.059   1.234
  150SOL    HW1  480   1.371   0.996   1.160
  150SOL    HW2  481   1.257   1.099   1.216
  151SOL     OW  482   1.302   0.855   0.309
  151SOL    HW1  483   1.216   0.824   0.351
  151SOL    HW2  484   1.298   0.841   0.210
  152SOL     OW  485   1.759   1.747   1.154
  152SOL    HW1  486   1.820   1.777   1.081
  152SOL    HW2  487   1.721   1.658   1.132
  153SOL     OW  488   1.252   1.731   1.128
  153SOL    HW1  489   1.336   1.736   1.074
  153SOL    HW2  490   1.229   1.635   1.146
  154SOL     OW  491   0.083   1.258   1.022
  154SOL    HW1  492   0.078   1.257   1.122
  154SOL    HW2  493   0.000   1.217   0.984
  155SOL     OW  494   0.688   1.662   1.716
  155SOL    HW1  495   0.632   1.743   1.725
  155SOL    HW2  496   0.740   1.666   1.630
  156SOL     OW  497   0.903   0.086   0.133
  156SOL    HW1  498   0.954   0.087   0.047
  156SOL    HW2  499   0.959   0.044   0.204
  157SOL     OW  500   1.726   0.135   0.523
  157SOL    HW1  501   1.799   0.118   0.456
  157SOL    HW2  502   1.695   0.048   0.561
  158SOL     OW  503   1.388   1.573   0.477
  158SOL    HW1  504   1.455   1.585   0.403
  158SOL    HW2  505   1.348   1.662   0.500
  159SOL     OW  506   0.130   1.794   1.851
  159SOL    HW1  507   0.089   1.720   1.904
  159SOL    HW2  508   0.194   1.845   1.909
  160SOL     OW  509   1.280   0.927   0.672
  160SOL    HW1  510   1.340   0.846   0.674
  160SOL    HW2  511   1.320   0.996   0.612
  161SOL     OW  512   0.830   1.273   1.422
  161SOL    HW1  513   0.825   1.306   1.517
  161SOL    HW2  514   0.744   1.292   1.376
  162SOL     OW  515   0.672   1.616   0.154
  162SOL    HW1  516   0.681   1.626   0.055
  162SOL    HW2  517   0.632   1.527   0.175
  163SOL     OW  518   1.650   1.720   1.394
  163SOL    HW1  519   1.703   1.730   1.310
  163SOL    HW2  520   1.623   1.810   1.428
  164SOL     OW  521   1.841   0.175   0.963
  164SOL    HW1  522   1.880   0.090   0.927
  164SOL    HW2  523   1.743   0.177   0.944
  165SOL     OW  524   0.263   0.326   0.720
  165SOL    HW1  525   0.184   0.377   0.686
  165SOL    HW2  526   0.254   0.311   0.818
  166SOL     OW  527   1.194   1.612   0.031
  166SOL    HW1  528   1.200   1.519   0.068
  166SOL    HW2  529   1.135   1.612  -0.049
  167SOL     OW  530   0.822   1.002   1.372
  167SOL    HW1  531   0.862   1.001   1.280
  167SOL    HW2  532   0.832   1.094   1.412
  168SOL     OW  533   0.916   0.910   0.291
  168SOL    HW1  534   0.979   0.948   0.223
  168SOL    HW2  535   0.956   0.827   0.330
  169SOL     OW  536   1.504   1.607   0.044
  169SOL    HW1  537   1.412   1.644   0.051
  169SOL    HW2  538   1.542   1.627  -0.046
  170SOL     OW  539   0.372   1.288   1.490
  170SOL    HW1  540   0.359   1.381   1.456
  170SOL    HW2  541   0.288   1.236   1.477
  171SOL     OW  542   1.614   1.292   1.289
  171SOL    HW1  543   1.674   1.295   1.369
  171SOL    HW2  544   1.539   1.356   1.302
  172SOL     OW  545   1.039   1.098   0.696
  172SOL    HW1  546   0.969   1.051   0.750
  172SOL    HW2  547   1.098   1.030   0.653
  173SOL     OW  548   1.014   0.236   0.971
  173SOL    HW1  549   1.006   0.200   0.878
  173SOL    HW2  550   1.012   0.160   1.036
  174SOL     OW  551   0.590   1.487   0.491
  174SOL    HW1  552   0.632   1.429   0.421
  174SOL    HW2  553   0.546   1.566   0.447
  175SOL     OW  554   1.709   0.385   1.381
  175SOL    HW1  555   1.782   0.454   1.385
  175SOL    HW2  556   1.737   0.310   1.322
  176SOL     OW  557   0.255   1.348   0.290
  176SOL    HW1  558   0.159   1.349   0.263
  176SOL    HW2  559   0.267   1.401   0.374
  177SOL     OW  560   0.105   1.013   1.726
  177SOL    HW1  561   0.028   0.980   1.780
  177SOL    HW2  562   0.190   0.983   1.768
  178SOL     OW  563   0.672   0.203   1.489
  178SOL    HW1  564   0.762   0.187   1.449
  178SOL    HW2  565   0.680   0.208   1.588
  179SOL     OW  566   0.075   0.345   0.033
  179SOL    HW1  567  -0.017   0.317   0.004
  179SOL    HW2  568   0.106   0.422  -0.023
  180SOL     OW  569   1.440   0.856   1.398
  180SOL    HW1  570   1.383   0.908   1.335
  180SOL    HW2  571   1.536   0.868   1.374
  181SOL     OW  572   0.072   0.166   0.318
  181SOL    HW1  573   0.055   0.249   0.264
  181SOL    HW2  574   0.162   0.129   0.296
  182SOL     OW  575   1.183   1.335   0.119
  182SOL    HW1  576   1.084   1.324   0.121
  182SOL    HW2  577   1.217   1.350   0.212
  183SOL     OW  578   0.613   0.842   1.431
  183SOL    HW1  579   0.669   0.923   1.414
  183SOL    HW2  580   0.672   0.762   1.434
  184SOL     OW  581   1.493   1.767   0.959
  184SOL    HW1  582   1.526   1.831   0.890
  184SOL    HW2  583   1.559   1.761   1.034
  185SOL     OW  584   0.716   0.565   1.708
  185SOL    HW1  585   0.735   0.630   1.782
  185SOL    HW2  586   0.776   0.485   1.717
  186SOL     OW  587   1.450   1.220   1.633
  186SOL    HW1  588   1.441   1.210   1.732
  186SOL    HW2  589   1.546   1.213   1.607
  187SOL     OW  590   0.390   1.741   1.560
  187SOL    HW1  591   0.299   1.782   1.558
  187SOL    HW2  592   0.383   1.647   1.592
  188SOL     OW  593   1.674   0.883   1.254
  188SOL    HW1  594   1.647   0.794   1.217
  188SOL    HW2  595   1.675   0.951   1.181
  189SOL     OW  596   1.225   0.325   0.449
  189SOL    HW1  597   1.290   0.251   0.438
  189SOL    HW2  598   1.245   0.375   0.533
  190SOL     OW  599   0.594   0.745   0.652
  190SOL    HW1  600   0.644   0.830   0.633
  190SOL    HW2  601   0.506   0.747   0.604
  191SOL     OW  602   1.777   0.342   1.642
  191SOL    HW1  603   1.760   0.373   1.548
  191SOL    HW2  604   1.693   0.305   1.680
  192SOL     OW  605   1.730   0.934   1.517
  192SOL    HW1  606   1.768   1.025   1.532
  192SOL    HW2  607   1.722   0.917   1.418
  193SOL     OW  608   0.859   1.374   0.016
  193SOL    HW1  609   0.813   1.389   0.104
  193SOL    HW2  610   0.903   1.459  -0.014
  194SOL     OW  611   0.661   1.790   0.953
  194SOL    HW1  612   0.615   1.878   0.940
  194SOL    HW2  613   0.760   1.802   0.946
  195SOL     OW  614   0.859   0.956   0.861
  195SOL    HW1  615   0.913   0.887   0.909
  195SOL    HW2  616   0.827   1.025   0.927
  196SOL     OW  617   1.083   0.984   0.087
  196SOL    HW1  618   1.060   1.037   0.005
  196SOL    HW2  619   1.164   0.928   0.068
  197SOL     OW  620   1.861   1.569   0.851
  197SOL    HW1  621   1.790   1.557   0.781
  197SOL    HW2  622   1.862   1.490   0.911
  198SOL     OW  623   0.221   1.314   1.844
  198SOL    HW1  624   0.156   1.241   1.823
  198SOL    HW2  625   0.225   1.328   1.942
  199SOL     OW  626   0.079   1.240   0.653
  199SOL    HW1  627   0.078   1.193   0.741
  199SOL    HW2  628   0.161   1.212   0.602
  200SOL     OW  629   0.672   1.391   1.624
  200SOL    HW1  630   0.594   1.341   1.662
  200SOL    HW2  631   0.669   1.486   1.655
  201SOL     OW  632   1.824   0.192   1.227
  201SOL    HW1  633   1.820   0.102   1.271
  201SOL    HW2  634   1.827   0.181   1.128
  202SOL     OW  635   0.428   0.424   0.520
  202SOL    HW1  636   0.458   0.352   0.458
  202SOL    HW2  637   0.389   0.384   0.603
  203SOL     OW  638   1.705   1.487   1.104
  203SOL    HW1  639   1.612   1.462   1.077
  203SOL    HW2  640   1.731   1.437   1.186
  204SOL     OW  641   0.317   0.547   1.280
  204SOL    HW1  642   0.355   0.488   1.352
  204SOL    HW2  643   0.357   0.521   1.192
  205SOL     OW  644   0.812   1.586   0.687
  205SOL    HW1  645   0.844   1.596   0.593
  205SOL    HW2  646   0.733   1.524   0.689
  206SOL     OW  647   1.424   0.214   1.112
  206SOL    HW1  648   1.476   0.149   1.167
  206SOL    HW2  649   1.375   0.277   1.173
  207SOL     OW  650   1.001   0.034   1.154
  207SOL    HW1  651   0.938  -0.038   1.123
  207SOL    HW2  652   1.094  -0.002   1.154
  208SOL     OW  653   0.770   1.330   0.301
  208SOL    HW1  654   0.724   1.243   0.318
  208SOL    HW2  655   0.861   1.327   0.342
  209SOL     OW  656   0.618   1.567   1.284
  209SOL    HW1  657   0.613   1.649   1.341
  209SOL    HW2  658   0.707   1.564   1.239
  210SOL     OW  659   1.352   0.052   0.168
  210SOL    HW1  660   1.387   0.011   0.084
  210SOL    HW2  661   1.262   0.014   0.188
  211SOL     OW  662   1.300   0.453   0.691
  211SOL    HW1  663   1.241   0.533   0.695
  211SOL    HW2  664   1.315   0.418   0.784
  212SOL     OW  665   1.593   0.221   0.882
  212SOL    HW1  666   1.509   0.220   0.936
  212SOL    HW2  667   1.595   0.304   0.826
  213SOL     OW  668   0.039   1.077   0.300
  213SOL    HW1  669   0.138   1.066   0.291
  213SOL    HW2  670  -0.001   0.991   0.332
  214SOL     OW  671   0.875   1.646   0.337
  214SOL    HW1  672   0.798   1.611   0.283
  214SOL    HW2  673   0.843   1.717   0.399
  215SOL     OW  674   0.230   0.628   1.975
  215SOL    HW1  675   0.137   0.626   2.012
  215SOL    HW2  676   0.231   0.589   1.883
  216SOL     OW  677   0.225   0.275   2.858
  216SOL    HW1  678   0.260   0.258   2.950
  216SOL    HW2  679   0.137   0.230   2.846
  217SOL     OW  680   0.019   0.368   2.509
  217SOL    HW1  681  -0.063   0.411   2.548
  217SOL    HW2  682  -0.009   0.295   2.446
  218SOL     OW  683   0.569   1.275   3.027
  218SOL    HW1  684   0.476   1.268   2.990
  218SOL    HW2  685   0.580   1.364   3.071
  219SOL     OW  686   1.555   1.511   2.565
  219SOL    HW1  687   1.498   1.495   2.646
  219SOL    HW2  688   1.496   1.521   2.485
  220SOL     OW  689   1.135   0.703   2.579
  220SOL    HW1  690   1.192   0.781   2.554
  220SOL    HW2  691   1.075   0.729   2.655
  221SOL     OW  692   1.755   0.607   2.093
  221SOL    HW1  693   1.743   0.594   1.994
  221SOL    HW2  694   1.725   0.526   2.142
  222SOL     OW  695   0.768   1.144   2.885
  222SOL    HW1  696   0.690   1.161   2.945
  222SOL    HW2  697   0.802   1.231   2.849
  223SOL     OW  698   0.850   0.798   3.685
  223SOL    HW1  699   0.846   0.874   3.750
  223SOL    HW2  700   0.872   0.834   3.594
  224SOL     OW  701   0.685   1.012   2.527
  224SOL    HW1  702   0.754   0.996   2.597
  224SOL    HW2  703   0.612   1.069   2.565
  225SOL     OW  704   0.686   1.161   3.665
  225SOL    HW1  705   0.746   1.240   3.679
  225SOL    HW2  706   0.600   1.192   3.624
  226SOL     OW  707   0.335   1.435   2.923
  226SOL    HW1  708   0.257   1.404   2.870
  226SOL    HW2  709   0.393   1.493   2.866
  227SOL     OW  710   1.460   1.505   3.201
  227SOL    HW1  711   1.484   1.599   3.227
  227SOL    HW2  712   1.444   1.451   3.283
  228SOL     OW  713   0.438   0.392   3.361
  228SOL    HW1  714   0.520   0.336   3.370
  228SOL    HW2  715   0.357   0.334   3.365
  229SOL     OW  716   1.603   0.447   2.599
  229SOL    HW1  717   1.529   0.493   2.549
  229SOL    HW2  718   1.654   0.515   2.652
  230SOL     OW  719   0.231   1.713   2.345
  230SOL    HW1  720   0.265   1.790   2.399
  230SOL    HW2  721   0.275   1.713   2.255
  231SOL     OW  722   1.127   1.341   3.552
  231SOL    HW1  723   1.174   1.341   3.640
  231SOL    HW2  724   1.079   1.254   3.541
  232SOL     OW  725   0.230   1.434   2.400
  232SOL    HW1  726   0.204   1.530   2.400
  232SOL    HW2  727   0.159   1.380   2.445
  233SOL     OW  728   0.240   1.091   2.748
  233SOL    HW1  729   0.254   1.007   2.800
  233SOL    HW2  730   0.185   1.155   2.803
  234SOL     OW  731   0.620   1.786   3.301
  234SOL    HW1  732   0.528   1.769   3.336
  234SOL    HW2  733   0.648   1.878   3.327
  235SOL     OW  734   0.606   0.964   1.985
  235SOL    HW1  735   0.613   1.048   1.931
  235SOL    HW2  736   0.652   0.977   2.073
  236SOL     OW  737   1.594   0.114   3.342
  236SOL    HW1  738   1.576   0.181   3.270
  236SOL    HW2  739   1.591   0.160   3.431
  237SOL     OW  740   0.122   0.643   2.425
  237SOL    HW1  741   0.077   0.555   2.442
  237SOL    HW2  742   0.121   0.697   2.509
  238SOL     OW  743   1.842   1.767   2.221
  238SOL    HW1  744   1.896   1.738   2.301
  238SOL    HW2  745   1.872   1.857   2.192
  239SOL     OW  746   0.027   1.596   1.979
  239SOL    HW1  747   0.008   1.500   2.000
  239SOL    HW2  748  -0.006   1.654   2.054
  240SOL     OW  749   1.689   0.922   2.474
  240SOL    HW1  750   1.784   0.893   2.482
  240SOL    HW2  751   1.681   0.987   2.399
  241SOL     OW  752   1.641   1.108   2.294
  241SOL    HW1  753   1.727   1.110   2.242
  241SOL    HW2  754   1.655   1.155   2.382
  242SOL     OW  755   0.113   0.737   3.459
  242SOL    HW1  756   0.201   0.724   3.504
  242SOL    HW2  757   0.100   0.834   3.437
  243SOL     OW  758   0.613   1.365   2.588
  243SOL    HW1  759   0.564   1.278   2.597
  243SOL    HW2  760   0.590   1.408   2.501
  244SOL     OW  761   1.293   1.228   3.285
  244SOL    HW1  762   1.330   1.155   3.227
  244SOL    HW2  763   1.345   1.233   3.370
  245SOL     OW  764   0.809   0.004   2.364
  245SOL    HW1  765   0.849   0.095   2.355
  245SOL    HW2  766   0.709   0.012   2.370
  246SOL     OW  767   0.197   0.976   3.126
  246SOL    HW1  768   0.286   0.931   3.112
  246SOL    HW2  769   0.124   0.911   3.107
  247SOL     OW  770   1.525   0.999   2.052
  247SOL    HW1  771   1.462   0.923   2.065
  247SOL    HW2  772   1.573   1.017   2.138
  248SOL     OW  773   1.187   1.792   3.478
  248SOL    HW1  774   1.211   1.852   3.402
  248SOL    HW2  775   1.194   1.697   3.448
  249SOL     OW  776   0.317   0.251   3.663
  249SOL    HW1  777   0.388   0.322   3.669
  249SOL    HW2  778   0.229   0.290   3.691
  250SOL     OW  779   1.466   1.417   2.815
  250SOL    HW1  780   1.407   1.423   2.895
  250SOL    HW2  781   1.451   1.329   2.769
  251SOL     OW  782   1.667   1.714   2.434
  251SOL    HW1  783   1.626   1.691   2.346
  251SOL    HW2  784   1.649   1.640   2.499
  252SOL     OW  785   0.598   0.729   2.132
  252SOL    HW1  786   0.622   0.798   2.064
  252SOL    HW2  787   0.520   0.762   2.186
  253SOL     OW  788   1.281   0.345   2.806
  253SOL    HW1  789   1.195   0.295   2.793
  253SOL    HW2  790   1.343   0.291   2.862
  254SOL     OW  791   1.576   1.662   2.169
  254SOL    HW1  792   1.665   1.708   2.172
  254SOL    HW2  793   1.555   1.638   2.074
  255SOL     OW  794   0.807   0.605   3.327
  255SOL    HW1  795   0.760   0.602   3.416
  255SOL    HW2  796   0.756   0.550   3.261
  256SOL     OW  797   1.394   0.469   3.536
  256SOL    HW1  798   1.374   0.512   3.624
  256SOL    HW2  799   1.472   0.407   3.545
  257SOL     OW  800   0.973   0.890   3.434
  257SOL    HW1  801   1.019   0.806   3.405
  257SOL    HW2  802   0.917   0.924   3.359
  258SOL     OW  803   0.991   0.410   3.104
  258SOL    HW1  804   0.914   0.444   3.158
  258SOL    HW2  805   0.957   0.359   3.025
  259SOL     OW  806   1.041   0.701   2.291
  259SOL    HW1  807   1.067   0.697   2.387
  259SOL    HW2  808   0.956   0.650   2.277
  260SOL     OW  809   0.076   0.811   2.651
  260SOL    HW1  810   0.175   0.799   2.660
  260SOL    HW2  811   0.052   0.906   2.672
  261SOL     OW  812   0.130   1.821   3.433
  261SOL    HW1  813   0.120   1.806   3.532
  261SOL    HW2  814   0.044   1.857   3.397
  262SOL     OW  815   0.865   0.348   2.057
  262SOL    HW1  816   0.924   0.411   2.008
  262SOL    HW2  817   0.884   0.254   2.028
  263SOL     OW  818   1.719   0.585   3.693
  263SOL    HW1  819   1.693   0.674   3.657
  263SOL    HW2  820   1.717   0.517   3.620
  264SOL     OW  821   1.362   1.144   2.407
  264SOL    HW1  822   1.445   1.115   2.359
  264SOL    HW2  823   1.313   1.211   2.351
  265SOL     OW  824   0.550   0.196   2.747
  265SOL    HW1  825   0.545   0.191   2.847
  265SOL    HW2  826   0.552   0.292   2.718
  266SOL     OW  827   1.008   1.456   2.339
  266SOL    HW1  828   0.962   1.528   2.287
  266SOL    HW2  829   1.004   1.476   2.437
  267SOL     OW  830   0.351   1.801   2.715
  267SOL    HW1  831   0.401   1.715   2.721
  267SOL    HW2  832   0.416   1.878   2.712
  268SOL     OW  833   1.795   1.066   2.735
  268SOL    HW1  834   1.733   1.051   2.659
  268SOL    HW2  835   1.743   1.077   2.820
  269SOL     OW  836   1.227   1.550   3.368
  269SOL    HW1  837   1.233   1.473   3.432
  269SOL    HW2  838   1.175   1.524   3.288
  270SOL     OW  839   0.321   0.943   2.104
  270SOL    HW1  840   0.403   0.982   2.062
  270SOL    HW2  841   0.294   0.861   2.055
  271SOL     OW  842   1.458   0.735   2.590
  271SOL    HW1  843   1.453   0.670   2.665
  271SOL    HW2  844   1.538   0.794   2.603
  272SOL     OW  845   0.461   1.266   3.589
  272SOL    HW1  846   0.411   1.267   3.503
  272SOL    HW2  847   0.398   1.248   3.665
  273SOL     OW  848   1.111   1.776   2.099
  273SOL    HW1  849   1.051   1.714   2.149
  273SOL    HW2  850   1.142   1.732   2.014
  274SOL     OW  851   0.202   0.285   3.360
  274SOL    HW1  852   0.122   0.345   3.347
  274SOL    HW2  853   0.192   0.236   3.446
  275SOL     OW  854   1.632   1.377   1.943
  275SOL    HW1  855   1.600   1.471   1.933
  275SOL    HW2  856   1.556   1.314   1.931
  276SOL     OW  857   0.464   1.743   2.185
  276SOL    HW1  858   0.497   1.782   2.271
  276SOL    HW2  859   0.540   1.736   2.120
  277SOL     OW  860   1.400   0.107   2.288
  277SOL    HW1  861   1.376   0.070   2.198
  277SOL    HW2  862   1.499   0.123   2.292
  278SOL     OW  863   0.249   1.785   3.103
  278SOL    HW1  864   0.306   1.720   3.153
  278SOL    HW2  865   0.233   1.752   3.010
  279SOL     OW  866   0.940   1.698   2.766
  279SOL    HW1  867   1.020   1.641   2.787
  279SOL    HW2  868   0.891   1.658   2.689
  280SOL     OW  869   0.382   0.700   2.342
  280SOL    HW1  870   0.427   0.610   2.339
  280SOL    HW2  871   0.288   0.689   2.375
  281SOL     OW  872   1.547   0.222   3.591
  281SOL    HW1  873   1.542   0.259   3.683
  281SOL    HW2  874   1.475   0.153   3.579
  282SOL     OW  875   0.614   0.122   1.979
  282SOL    HW1  876   0.712   0.100   1.986
  282SOL    HW2  877   0.583   0.105   1.886
  283SOL     OW  878   0.781   0.264   3.611
  283SOL    HW1  879   0.848   0.203   3.654
  283SOL    HW2  880   0.708   0.283   3.676
  284SOL     OW  881   0.888   1.514   3.057
  284SOL    HW1  882   0.865   1.489   2.963
  284SOL    HW2  883   0.949   1.445   3.096
  285SOL     OW  884   1.351   0.590   3.295
  285SOL    HW1  885   1.379   0.547   3.380
  285SOL    HW2  886   1.376   0.686   3.296
  286SOL     OW  887   0.803   1.402   2.786
  286SOL    HW1  888   0.893   1.416   2.744
  286SOL    HW2  889   0.732   1.404   2.715
  287SOL     OW  890   0.922   0.503   2.761
  287SOL    HW1  891   0.897   0.494   2.665
  287SOL    HW2  892   0.970   0.421   2.792
  288SOL     OW  893   0.539   0.064   2.374
  288SOL    HW1  894   0.458   0.065   2.432
  288SOL    HW2  895   0.542   0.147   2.319
  289SOL     OW  896   1.434   1.188   1.903
  289SOL    HW1  897   1.466   1.112   1.960
  289SOL    HW2  898   1.342   1.215   1.933
  290SOL     OW  899   0.297   0.035   2.033
  290SOL    HW1  900   0.346   0.119   2.012
  290SOL    HW2  901   0.359  -0.030   2.078
  291SOL     OW  902   0.935   0.236   2.342
  291SOL    HW1  903   0.887   0.277   2.264
  291SOL    HW2  904   1.034   0.234   2.323
  292SOL     OW  905   1.076   0.683   3.326
  292SOL    HW1  906   0.996   0.622   3.329
  292SOL    HW2  907   1.157   0.630   3.302
  293SOL     OW  908   1.227   1.570   2.655
  293SOL    HW1  909   1.248   1.644   2.590
  293SOL    HW2  910   1.295   1.570   2.728
  294SOL     OW  911   0.459   1.152   2.603
  294SOL    HW1  912   0.388   1.125   2.668
  294SOL    HW2  913   0.433   1.124   2.510
  295SOL     OW  914   1.271   1.797   2.453
  295SOL    HW1  915   1.315   1.861   2.389
  295SOL    HW2  916   1.221   1.849   2.523
  296SOL     OW  917   1.032   0.549   1.878
  296SOL    HW1  918   0.991   0.631   1.839
  296SOL    HW2  919   1.096   0.575   1.951
  297SOL     OW  920   0.078   0.556   3.248
  297SOL    HW1  921   0.170   0.555   3.207
  297SOL    HW2  922   0.072   0.630   3.315
  298SOL     OW  923   0.561   0.222   3.009
  298SOL    HW1  924   0.599   0.138   3.046
  298SOL    HW2  925   0.473   0.241   3.053
  299SOL     OW  926   0.866   0.454   2.504
  299SOL    HW1  927   0.834   0.526   2.442
  299SOL    HW2  928   0.890   0.373   2.451
  300SOL     OW  929   1.017   0.039   2.615
  300SOL    HW1  930   0.945   0.044   2.546
  300SOL    HW2  931   0.993  -0.030   2.684
  301SOL     OW  932   1.429   1.173   2.729
  301SOL    HW1  933   1.374   1.089   2.722
  301SOL    HW2  934   1.455   1.202   2.637
  302SOL     OW  935   1.466   0.590   2.854
  302SOL    HW1  936   1.436   0.495   2.861
  302SOL    HW2  937   1.539   0.606   2.920
  303SOL     OW  938   1.857   0.833   2.239
  303SOL    HW1  939   1.899   0.769   2.303
  303SOL    HW2  940   1.819   0.782   2.161
  304SOL     OW  941   0.488   1.385   2.036
  304SOL    HW1  942   0.401   1.370   2.083
  304SOL    HW2  943   0.471   1.411   1.941
  305SOL     OW  944   1.664   1.280   2.519
  305SOL    HW1  945   1.763   1.288   2.533
  305SOL    HW2  946   1.619   1.364   2.550
  306SOL     OW  947   1.390   0.575   1.940
  306SOL    HW1  948   1.336   0.554   2.021
  306SOL    HW2  949   1.481   0.534   1.949
  307SOL     OW  950   0.527   0.256   2.190
  307SOL    HW1  951   0.554   0.197   2.115
  307SOL    HW2  952   0.527   0.351   2.159
  308SOL     OW  953   1.754   1.223   3.450
  308SOL    HW1  954   1.845   1.184   3.437
  308SOL    HW2  955   1.762   1.319   3.474
  309SOL     OW  956   1.064   1.347   3.202
  309SOL    HW1  957   0.984   1.324   3.257
  309SOL    HW2  958   1.147   1.321   3.251
  310SOL     OW  959   1.592   1.629   3.487
  310SOL    HW1  960   1.619   1.663   3.397
  310SOL    HW2  961   1.671   1.591   3.533
  311SOL     OW  962   1.111   1.195   2.962
  311SOL    HW1  963   1.071   1.239   3.043
  311SOL    HW2  964   1.070   1.232   2.879
  312SOL     OW  965   1.638   1.099   2.941
  312SOL    HW1  966   1.643   1.180   3.000
  312SOL    HW2  967   1.552   1.101   2.890
  313SOL     OW  968   0.915   0.089   3.264
  313SOL    HW1  969   0.940   0.069   3.169
  313SOL    HW2  970   0.987   0.145   3.306
  314SOL     OW  971   0.980   1.116   3.581
  314SOL    HW1  972   0.881   1.122   3.591
  314SOL    HW2  973   1.003   1.036   3.525
  315SOL     OW  974   0.705   1.050   2.230
  315SOL    HW1  975   0.691   1.057   2.329
  315SOL    HW2  976   0.789   0.999   2.212
  316SOL     OW  977   0.410   0.813   3.113
  316SOL    HW1  978   0.496   0.825   3.163
  316SOL    HW2  979   0.368   0.726   3.140
  317SOL     OW  980   1.274   0.386   3.124
  317SOL    HW1  981   1.295   0.460   3.188
  317SOL    HW2  982   1.185   0.403   3.081
  318SOL     OW  983   0.064   1.564   3.193
  318SOL    HW1  984   0.018   1.646   3.159
  318SOL    HW2  985   0.162   1.583   3.202
  319SOL     OW  986   0.367   1.100   2.363
  319SOL    HW1  987   0.360   1.183   2.307
  319SOL    HW2  988   0.371   1.020   2.303
  320SOL     OW  989   0.566   0.537   2.727
  320SOL    HW1  990   0.578   0.603   2.653
  320SOL    HW2  991   0.612   0.571   2.810
  321SOL     OW  992   1.252   1.348   2.250
  321SOL    HW1  993   1.302   1.425   2.290
  321SOL    HW2  994   1.157   1.350   2.282
  322SOL     OW  995   1.272   1.445   3.004
  322SOL    HW1  996   1.319   1.458   3.091
  322SOL    HW2  997   1.206   1.371   3.013
  323SOL     OW  998   1.582   0.639   2.334
  323SOL    HW1  999   1.551   0.700   2.407
  323SOL    HW2 1000   1.632   0.691   2.265
  324SOL     OW 1001   0.354   1.510   3.191
  324SOL    HW1 1002   0.333   1.466   3.104
  324SOL    HW2 1003   0.451   1.536   3.194
  325SOL     OW 1004   0.402   0.751   3.460
  325SOL    HW1 1005   0.470   0.806   3.413
  325SOL    HW2 1006   0.442   0.663   3.487
  326SOL     OW 1007   1.587   0.779   3.532
  326SOL    HW1 1008   1.495   0.817   3.527
  326SOL    HW2 1009   1.647   0.826   3.467
  327SOL     OW 1010   1.013   0.105   3.632
  327SOL    HW1 1011   1.019   0.190   3.580
  327SOL    HW2 1012   1.045   0.029   3.575
  328SOL     OW 1013   0.504   0.050   3.602
  328SOL    HW1 1014   0.462  -0.007   3.532
  328SOL    HW2 1015   0.438   0.119   3.634
  329SOL     OW 1016   0.573   0.870   2.891
  329SOL    HW1 1017   0.617   0.959   2.882
  329SOL    HW2 1018   0.510   0.870   2.968
  330SOL     OW 1019   1.360   0.862   2.907
  330SOL    HW1 1020   1.285   0.862   2.841
  330SOL    HW2 1021   1.397   0.770   2.916
  331SOL     OW 1022   1.209   0.525   2.137
  331SOL    HW1 1023   1.222   0.441   2.191
  331SOL    HW2 1024   1.180   0.599   2.197
  332SOL     OW 1025   0.307   0.213   3.093
  332SOL    HW1 1026   0.284   0.250   3.183
  332SOL    HW2 1027   0.277   0.118   3.087
  333SOL     OW 1028   0.037   1.310   3.144
  333SOL    HW1 1029   0.090   1.261   3.212
  333SOL    HW2 1030   0.059   1.408   3.149
  334SOL     OW 1031   0.732   0.634   2.926
  334SOL    HW1 1032   0.791   0.608   2.850
  334SOL    HW2 1033   0.704   0.730   2.915
  335SOL     OW 1034   1.728   0.935   3.716
  335SOL    HW1 1035   1.682   0.928   3.627
  335SOL    HW2 1036   1.666   0.979   3.782
  336SOL     OW 1037   0.307   0.063   2.480
  336SOL    HW1 1038   0.296   0.157   2.513
  336SOL    HW2 1039   0.302   0.000   2.557
  337SOL     OW 1040   1.622   0.367   2.236
  337SOL    HW1 1041   1.624   0.291   2.300
  337SOL    HW2 1042   1.574   0.444   2.276
  338SOL     OW 1043   1.023   0.766   2.828
  338SOL    HW1 1044   1.038   0.787   2.924
  338SOL    HW2 1045   0.993   0.671   2.819
  339SOL     OW 1046   0.980   1.573   3.562
  339SOL    HW1 1047   0.960   1.617   3.474
  339SOL    HW2 1048   1.019   1.482   3.546
  340SOL     OW 1049   1.859   1.518   3.467
  340SOL    HW1 1050   1.873   1.545   3.372
  340SOL    HW2 1051   1.942   1.540   3.520
  341SOL     OW 1052   0.350   0.898   3.666
  341SOL    HW1 1053   0.426   0.942   3.714
  341SOL    HW2 1054   0.385   0.851   3.584
  342SOL     OW 1055   1.540   0.274   1.987
  342SOL    HW1 1056   1.479   0.199   2.010
  342SOL    HW2 1057   1.562   0.326   2.070
  343SOL     OW 1058   1.303   0.838   1.904
  343SOL    HW1 1059   1.337   0.745   1.919
  343SOL    HW2 1060   1.321   0.865   1.809
  344SOL     OW 1061   1.068   1.333   2.711
  344SOL    HW1 1062   1.075   1.249   2.656
  344SOL    HW2 1063   1.130   1.402   2.675
  345SOL     OW 1064   0.319   0.810   2.811
  345SOL    HW1 1065   0.412   0.846   2.816
  345SOL    HW2 1066   0.313   0.725   2.863
  346SOL     OW 1067   0.339   0.509   2.868
  346SOL    HW1 1068   0.287   0.426   2.851
  346SOL    HW2 1069   0.416   0.514   2.804
  347SOL     OW 1070   1.138   0.380   3.540
  347SOL    HW1 1071   1.093   0.443   3.604
  347SOL    HW2 1072   1.231   0.411   3.523
  348SOL     OW 1073   1.160   0.207   3.339
  348SOL    HW1 1074   1.160   0.271   3.416
  348SOL    HW2 1075   1.188   0.255   3.256
  349SOL     OW 1076   0.008   1.326   2.062
  349SOL    HW1 1077  -0.085   1.347   2.031
  349SOL    HW2 1078   0.018   1.227   2.075
  350SOL     OW 1079   0.088   1.801   2.789
  350SOL    HW1 1080   0.046   1.715   2.762
  350SOL    HW2 1081   0.182   1.804   2.755
  351SOL     OW 1082   0.504   1.568   2.772
  351SOL    HW1 1083   0.570   1.642   2.781
  351SOL    HW2 1084   0.548   1.489   2.730
  352SOL     OW 1085   1.002   0.796   3.100
  352SOL    HW1 1086   1.043   0.764   3.186
  352SOL    HW2 1087   0.906   0.769   3.097
  353SOL     OW 1088   0.040   0.544   2.976
  353SOL    HW1 1089   0.125   0.511   2.935
  353SOL    HW2 1090   0.053   0.559   3.074
  354SOL     OW 1091   0.189   0.520   3.584
  354SOL    HW1 1092   0.248   0.480   3.514
  354SOL    HW2 1093   0.131   0.591   3.543
  355SOL     OW 1094   1.369   0.950   3.522
  355SOL    HW1 1095   1.408   1.039   3.542
  355SOL    HW2 1096   1.379   0.930   3.425
  356SOL     OW 1097   0.815   0.572   2.187
  356SOL    HW1 1098   0.822   0.483   2.141
  356SOL    HW2 1099   0.721   0.606   2.179
  357SOL     OW 1100   1.657   0.604   3.068
  357SOL    HW1 1101   1.619   0.535   3.130
  357SOL    HW2 1102   1.739   0.568   3.024
  358SOL     OW 1103   0.252   1.564   3.606
  358SOL    HW1 1104   0.222   1.621   3.682
  358SOL    HW2 1105   0.245   1.467   3.632
  359SOL     OW 1106   0.671   0.464   3.131
  359SOL    HW1 1107   0.637   0.375   3.101
  359SOL    HW2 1108   0.697   0.518   3.051
  360SOL     OW 1109   0.930   1.678   3.327
  360SOL    HW1 1110   0.906   1.660   3.232
  360SOL    HW2 1111   0.960   1.772   3.337
  361SOL     OW 1112   0.473   0.500   2.053
  361SOL    HW1 1113   0.534   0.580   2.057
  361SOL    HW2 1114   0.378   0.531   2.060
  362SOL     OW 1115   0.159   1.137   3.328
  362SOL    HW1 1116   0.181   1.076   3.404
  362SOL    HW2 1117   0.169   1.088   3.242
  363SOL     OW 1118   1.347   1.059   3.096
  363SOL    HW1 1119   1.371   0.996   3.022
  363SOL    HW2 1120   1.257   1.099   3.078
  364SOL     OW 1121   1.302   0.855   2.171
  364SOL    HW1 1122   1.216   0.824   2.213
  364SOL    HW2 1123   1.298   0.841   2.072
  365SOL     OW 1124   1.759   1.747   3.016
  365SOL    HW1 1125   1.820   1.777   2.943
  365SOL    HW2 1126   1.721   1.658   2.994
  366SOL     OW 1127   1.252   1.731   2.990
  366SOL    HW1 1128   1.336   1.736   2.936
  366SOL    HW2 1129   1.229   1.635   3.008
  367SOL     OW 1130   0.083   1.258   2.884
  367SOL    HW1 1131   0.078   1.257   2.984
  367SOL    HW2 1132   0.000   1.217   2.846
  368SOL     OW 1133   0.688   1.662   3.578
  368SOL    HW1 1134   0.632   1.743   3.587
  368SOL    HW2 1135   0.740   1.666   3.492
  369SOL     OW 1136   1.726   0.135   2.385
  369SOL    HW1 1137   1.799   0.118   2.318
  369SOL    HW2 1138   1.695   0.048   2.423
  370SOL     OW 1139   1.388   1.573   2.339
  370SOL    HW1 1140   1.455   1.585   2.265
  370SOL    HW2 1141   1.348   1.662   2.362
  371SOL     OW 1142   0.130   1.794   3.713
  371SOL    HW1 1143   0.089   1.720   3.766
  371SOL    HW2 1144   0.194   1.845   3.771
  372SOL     OW 1145   1.280   0.927   2.534
  372SOL    HW1 1146   1.340   0.846   2.536
  372SOL    HW2 1147   1.320   0.996   2.474
  373SOL     OW 1148   0.830   1.273   3.284
  373SOL    HW1 1149   0.825   1.306   3.379
  373SOL    HW2 1150   0.744   1.292   3.238
  374SOL     OW 1151   0.672   1.616   2.016
  374SOL    HW1 1152   0.681   1.626   1.917
  374SOL    HW2 1153   0.632   1.527   2.037
  375SOL     OW 1154   1.650   1.720   3.256
  375SOL    HW1 1155   1.703   1.730   3.172
  375SOL    HW2 1156   1.623   1.810   3.290
  376SOL     OW 1157   1.841   0.175   2.825
  376SOL    HW1 1158   1.880   0.090   2.789
  376SOL    HW2 1159   1.743   0.177   2.806
  377SOL     OW 1160   0.263   0.326   2.582
  377SOL    HW1 1161   0.184   0.377   2.548
  377SOL    HW2 1162   0.254   0.311   2.680
  378SOL     OW 1163   1.194   1.612   1.893
  378SOL    HW1 1164   1.200   1.519   1.930
  378SOL    HW2 1165   1.135   1.612   1.813
  379SOL     OW 1166   0.822   1.002   3.234
  379SOL    HW1 1167   0.862   1.001   3.142
  379SOL    HW2 1168   0.832   1.094   3.274
  380SOL     OW 1169   0.916   0.910   2.153
  380SOL    HW1 1170   0.979   0.948   2.085
  380SOL    HW2 1171   0.956   0.827   2.192
  381SOL     OW 1172   1.504   1.607   1.906
  381SOL    HW1 1173   1.412   1.644   1.913
  381SOL    HW2 1174   1.542   1.627   1.816
  382SOL     OW 1175   0.372   1.288   3.352
  382SOL    HW1 1176   0.359   1.381   3.318
  382SOL    HW2 1177   0.288   1.236   3.339
  383SOL     OW 1178   1.614   1.292   3.151
  383SOL    HW1 1179   1.674   1.295   3.231
  383SOL    HW2 1180   1.539   1.356   3.164
  384SOL     OW 1181   1.039   1.098   2.558
  384SOL    HW1 1182   0.969   1.051   2.612
  384SOL    HW2 1183   1.098   1.030   2.515
  385SOL     OW 1184   1.014   0.236   2.833
  385SOL    HW1 1185   1.006   0.200   2.740
  385SOL    HW2 1186   1.012   0.160   2.898
  386SOL     OW 1187   0.590   1.487   2.353
  386SOL    HW1 1188   0.632   1.429   2.283
  386SOL    HW2 1189   0.546   1.566   2.309
  387SOL     OW 1190   1.709   0.385   3.243
  387SOL    HW1 1191   1.782   0.454   3.247
  387SOL    HW2 1192   1.737   0.310   3.184
  388SOL     OW 1193   0.255   1.348   2.152
  388SOL    HW1 1194   0.159   1.349   2.125
  388SOL    HW2 1195   0.267   1.401   2.236
  389SOL     OW 1196   0.105   1.013   3.588
  389SOL    HW1 1197   0.028   0.980   3.642
  389SOL    HW2 1198   0.190   0.983   3.630
  390SOL     OW 1199   0.672   0.203   3.351
  390SOL    HW1 1200   0.762   0.187   3.311
  390SOL    HW2 1201   0.680   0.208   3.450
  391SOL     OW 1202   0.075   0.345   1.895
  391SOL    HW1 1203  -0.017   0.317   1.866
  391SOL    HW2 1204   0.106   0.422   1.839
  392SOL     OW 1205   1.440   0.856   3.260
  392SOL    HW1 1206   1.383   0.908   3.197
  392SOL    HW2 1207   1.536   0.868   3.236
  393SOL     OW 1208   0.072   0.166   2.180
  393SOL    HW1 1209   0.055   0.249   2.126
  393SOL    HW2 1210   0.162   0.129   2.158
  394SOL     OW 1211   1.183   1.335   1.981
  394SOL    HW1 1212   1.084   1.324   1.983
  394SOL    HW2 1213   1.217   1.350   2.074
  395SOL     OW 1214   0.613   0.842   3.293
  395SOL    HW1 1215   0.669   0.923   3.276
  395SOL    HW2 1216   0.672   0.762   3.296
  396SOL     OW 1217   1.493   1.767   2.821
  396SOL    HW1 1218   1.526   1.831   2.752
  396SOL    HW2 1219   1.559   1.761   2.896
  397SOL     OW 1220   0.716   0.565   3.570
  397SOL    HW1 1221   0.735   0.630   3.644
  397SOL    HW2 1222   0.776   0.485   3.579
  398SOL     OW 1223   1.450   1.220   3.495
  398SOL    HW1 1224   1.441   1.210   3.594
  398SOL    HW2 1225   1.546   1.213   3.469
  399SOL     OW 1226   0.390   1.741   3.422
  399SOL    HW1 1227   0.299   1.782   3.420
  399SOL    HW2 1228   0.383   1.647   3.454
  400SOL     OW 1229   1.674   0.883   3.116
  400SOL    HW1 1230   1.647   0.794   3.079
  400SOL    HW2 1231   1.675   0.951   3.043
  401SOL     OW 1232   1.225   0.325   2.311
  401SOL    HW1 1233   1.290   0.251   2.300
  401SOL    HW2 1234   1.245   0.375   2.395
  402SOL     OW 1235   0.594   0.745   2.514
  402SOL    HW1 1236   0.644   0.830   2.495
  402SOL    HW2 1237   0.506   0.747   2.466
  403SOL     OW 1238   1.777   0.342   3.504
  403SOL    HW1 1239   1.760   0.373   3.410
  403SOL    HW2 1240   1.693   0.305   3.542
  404SOL     OW 1241   1.730   0.934   3.379
  404SOL    HW1 1242   1.768   1.025   3.394
  404SOL    HW2 1243   1.722   0.917   3.280
  405SOL     OW 1244   0.859   1.374   1.878
  405SOL    HW1 1245   0.813   1.389   1.966
  405SOL    HW2 1246   0.903   1.459   1.848
  406SOL     OW 1247   0.661   1.790   2.815
  406SOL    HW1 1248   0.615   1.878   2.802
  406SOL    HW2 1249   0.760   1.802   2.808
  407SOL     OW 1250   0.859   0.956   2.723
  407SOL    HW1 1251   0.913   0.887   2.771
  407SOL    HW2 1252   0.827   1.025   2.789
  408SOL     OW 1253   1.083   0.984   1.949
  408SOL    HW1 1254   1.060   1.037   1.867
  408SOL    HW2 1255   1.164   0.928   1.930
  409SOL     OW 1256   1.861   1.569   2.713
  409SOL    HW1 1257   1.790   1.557   2.643
  409SOL    HW2 1258   1.862   1.490   2.773
  410SOL     OW 1259   0.221   1.314   3.706
  410SOL    HW1 1260   0.156   1.241   3.685
  410SOL    HW2 1261   0.225   1.328   3.804
  411SOL     OW 1262   0.079   1.240   2.515
  411SOL    HW1 1263   0.078   1.193   2.603
  411SOL    HW2 1264   0.161   1.212   2.464
  412SOL     OW 1265   0.672   1.391   3.486
  412SOL    HW1 1266   0.594   1.341   3.524
  412SOL    HW2 1267   0.669   1.486   3.517
  413SOL     OW 1268   1.824   0.192   3.089
  413SOL    HW1 1269   1.820   0.102   3.133
  413SOL    HW2 1270   1.827   0.181   2.990
  414SOL     OW 1271   0.428   0.424   2.382
  414SOL    HW1 1272   0.458   0.352   2.320
  414SOL    HW2 1273   0.389   0.384   2.465
  415SOL     OW 1274   1.705   1.487   2.966
  415SOL    HW1 1275   1.612   1.462   2.939
  415SOL    HW2 1276   1.731   1.437   3.048
  416SOL     OW 1277   0.317   0.547   3.142
  416SOL    HW1 1278   0.355   0.488   3.214
  416SOL    HW2 1279   0.357   0.521   3.054
  417SOL     OW 1280   0.812   1.586   2.549
  417SOL    HW1 1281   0.844   1.596   2.455
  417SOL    HW2 1282   0.733   1.524   2.551
  418SOL     OW 1283   1.424   0.214   2.974
  418SOL    HW1 1284   1.476   0.149   3.029
  418SOL    HW2 1285   1.375   0.277   3.035
  419SOL     OW 1286   1.001   0.034   3.016
  419SOL    HW1 1287   0.938  -0.038   2.985
  419SOL    HW2 1288   1.094  -0.002   3.016
  420SOL     OW 1289   0.770   1.330   2.163
  420SOL    HW1 1290   0.724   1.243   2.180
  420SOL    HW2 1291   0.861   1.327   2.204
  421SOL     OW 1292   0.618   1.567   3.146
  421SOL    HW1 1293   0.613   1.649   3.203
  421SOL    HW2 1294   0.707   1.564   3.101
  422SOL     OW 1295   1.352   0.052   2.030
  422SOL    HW1 1296   1.387   0.011   1.946
  422SOL    HW2 1297   1.262   0.014   2.050
  423SOL     OW 1298   1.300   0.453   2.553
  423SOL    HW1 1299   1.241   0.533   2.557
  423SOL    HW2 1300   1.315   0.418   2.646
  424SOL     OW 1301   1.593   0.221   2.744
  424SOL    HW1 1302   1.509   0.220   2.798
  424SOL    HW2 1303   1.595   0.304   2.688
  425SOL     OW 1304   0.039   1.077   2.162
  425SOL    HW1 1305   0.138   1.066   2.153
  425SOL    HW2 1306  -0.001   0.991   2.194
  426SOL     OW 1307   0.875   1.646   2.199
  426SOL    HW1 1308   0.798   1.611   2.145
  426SOL    HW2 1309   0.843   1.717   2.261
  427SOL     OW 1310   0.230   0.628   3.837
  427SOL    HW1 1311   0.137   0.626   3.874
  427SOL    HW2 1312   0.231   0.589   3.745
  428SOL     OW 1313   0.225   0.275   4.720
  428SOL    HW1 1314   0.260   0.258   4.812
  428SOL    HW2 1315   0.137   0.230   4.708
  429SOL     OW 1316   0.019   0.368   4.371
  429SOL    HW1 1317  -0.063   0.411   4.410
  429SOL    HW2 1318  -0.009   0.295   4.308
  430SOL     OW 1319   0.569   1.275   4.889
  430SOL    HW1 1320   0.476   1.268   4.852
  430SOL    HW2 1321   0.580   1.364   4.933
  431SOL     OW 1322   1.555   1.511   4.427
  431SOL    HW1 1323   1.498   1.495   4.508
  431SOL    HW2 1324   1.496   1.521   4.347
  432SOL     OW 1325   1.135   0.703   4.441
  432SOL    HW1 1326   1.192   0.781   4.416
  432SOL    HW2 1327   1.075   0.729   4.517
  433SOL     OW 1328   1.755   0.607   3.955
  433SOL    HW1 1329   1.743   0.594   3.856
  433SOL    HW2 1330   1.725   0.526   4.004
  434SOL     OW 1331   0.768   1.144   4.747
  434SOL    HW1 1332   0.690   1.161   4.807
  434SOL    HW2 1333   0.802   1.231   4.711
  435SOL     OW 1334   0.685   1.012   4.389
  435SOL    HW1 1335   0.754   0.996   4.459
  435SOL    HW2 1336   0.612   1.069   4.427
  436SOL     OW 1337   0.335   1.435   4.785
  436SOL    HW1 1338   0.257   1.404   4.732
  436SOL    HW2 1339   0.393   1.493   4.728
  437SOL     OW 1340   1.603   0.447   4.461
  437SOL    HW1 1341   1.529   0.493   4.411
  437SOL    HW2 1342   1.654   0.515   4.514
  438SOL     OW 1343   0.231   1.713   4.207
  438SOL    HW1 1344   0.265   1.790   4.261
  438SOL    HW2 1345   0.275   1.713   4.117
  439SOL     OW 1346   0.230   1.434   4.262
  439SOL    HW1 1347   0.204   1.530   4.262
  439SOL    HW2 1348   0.159   1.380   4.307
  440SOL     OW 1349   0.240   1.091   4.610
  440SOL    HW1 1350   0.254   1.007   4.662
  440SOL    HW2 1351   0.185   1.155   4.665
  441SOL     OW 1352   0.606   0.964   3.847
  441SOL    HW1 1353   0.613   1.048   3.793
  441SOL    HW2 1354   0.652   0.977   3.935
  442SOL     OW 1355   0.122   0.643   4.287
  442SOL    HW1 1356   0.077   0.555   4.304
  442SOL    HW2 1357   0.121   0.697   4.371
  443SOL     OW 1358   1.842   1.767   4.083
  443SOL    HW1 1359   1.896   1.738   4.163
  443SOL    HW2 1360   1.872   1.857   4.054
  444SOL     OW 1361   0.027   1.596   3.841
  444SOL    HW1 1362   0.008   1.500   3.862
  444SOL    HW2 1363  -0.006   1.654   3.916
  445SOL     OW 1364   1.689   0.922   4.336
  445SOL    HW1 1365   1.784   0.893   4.344
  445SOL    HW2 1366   1.681   0.987   4.261
  446SOL     OW 1367   1.641   1.108   4.156
  446SOL    HW1 1368   1.727   1.110   4.104
  446SOL    HW2 1369   1.655   1.155   4.244
  447SOL     OW 1370   0.113   0.737   5.321
  447SOL    HW1 1371   0.201   0.724   5.366
  447SOL    HW2 1372   0.100   0.834   5.299
  448SOL     OW 1373   0.613   1.365   4.450
  448SOL    HW1 1374   0.564   1.278   4.459
  448SOL    HW2 1375   0.590   1.408   4.363
  449SOL     OW 1376   0.809   0.004   4.226
  449SOL    HW1 1377   0.849   0.095   4.217
  449SOL    HW2 1378   0.709   0.012   4.232
  450SOL     OW 1379   0.197   0.976   4.988
  450SOL    HW1 1380   0.286   0.931   4.974
  450SOL    HW2 1381   0.124   0.911   4.969
  451SOL     OW 1382   1.525   0.999   3.914
  451SOL    HW1 1383   1.462   0.923   3.927
  451SOL    HW2 1384   1.573   1.017   4.000
  452SOL     OW 1385   1.466   1.417   4.677
  452SOL    HW1 1386   1.407   1.423   4.757
  452SOL    HW2 1387   1.451   1.329   4.631
  453SOL     OW 1388   1.667   1.714   4.296
  453SOL    HW1 1389   1.626   1.691   4.208
  453SOL    HW2 1390   1.649   1.640   4.361
  454SOL     OW 1391   0.598   0.729   3.994
  454SOL    HW1 1392   0.622   0.798   3.926
  454SOL    HW2 1393   0.520   0.762   4.048
  455SOL     OW 1394   1.281   0.345   4.668
  455SOL    HW1 1395   1.195   0.295   4.655
  455SOL    HW2 1396   1.343   0.291   4.724
  456SOL     OW 1397   1.576   1.662   4.031
  456SOL    HW1 1398   1.665   1.708   4.034
  456SOL    HW2 1399   1.555   1.638   3.936
  457SOL     OW 1400   0.991   0.410   4.966
  457SOL    HW1 1401   0.914   0.444   5.020
  457SOL    HW2 1402   0.957   0.359   4.887
  458SOL     OW 1403   1.041   0.701   4.153
  458SOL    HW1 1404   1.067   0.697   4.249
  458SOL    HW2 1405   0.956   0.650   4.139
  459SOL     OW 1406   0.076   0.811   4.513
  459SOL    HW1 1407   0.175   0.799   4.522
  459SOL    HW2 1408   0.052   0.906   4.534
  460SOL     OW 1409   0.130   1.821   5.295
  460SOL    HW1 1410   0.120   1.806   5.394
  460SOL    HW2 1411   0.044   1.857   5.259
  461SOL     OW 1412   0.865   0.348   3.919
  461SOL    HW1 1413   0.924   0.411   3.870
  461SOL    HW2 1414   0.884   0.254   3.890
  462SOL     OW 1415   1.362   1.144   4.269
  462SOL    HW1 1416   1.445   1.115   4.221
  462SOL    HW2 1417   1.313   1.211   4.213
  463SOL     OW 1418   0.550   0.196   4.609
  463SOL    HW1 1419   0.545   0.191   4.709
  463SOL    HW2 1420   0.552   0.292   4.580
  464SOL     OW 1421   1.008   1.456   4.201
  464SOL    HW1 1422   0.962   1.528   4.149
  464SOL    HW2 1423   1.004   1.476   4.299
  465SOL     OW 1424   0.351   1.801   4.577
  465SOL    HW1 1425   0.401   1.715   4.583
  465SOL    HW2 1426   0.416   1.878   4.574
  466SOL     OW 1427   1.795   1.066   4.597
  466SOL    HW1 1428   1.733   1.051   4.521
  466SOL    HW2 1429   1.743   1.077   4.682
  467SOL     OW 1430   0.321   0.943   3.966
  467SOL    HW1 1431   0.403   0.982   3.924
  467SOL    HW2 1432   0.294   0.861   3.917
  468SOL     OW 1433   1.458   0.735   4.452
  468SOL    HW1 1434   1.453   0.670   4.527
  468SOL    HW2 1435   1.538   0.794   4.465
  469SOL     OW 1436   1.111   1.776   3.961
  469SOL    HW1 1437   1.051   1.714   4.011
  469SOL    HW2 1438   1.142   1.732   3.876
  470SOL     OW 1439   1.632   1.377   3.805
  470SOL    HW1 1440   1.600   1.471   3.795
  470SOL    HW2 1441   1.556   1.314   3.793
  471SOL     OW 1442   0.464   1.743   4.047
  471SOL    HW1 1443   0.497   1.782   4.133
  471SOL    HW2 1444   0.540   1.736   3.982
  472SOL     OW 1445   1.400   0.107   4.150
  472SOL    HW1 1446   1.376   0.070   4.060
  472SOL    HW2 1447   1.499   0.123   4.154
  473SOL     OW 1448   0.249   1.785   4.965
  473SOL    HW1 1449   0.306   1.720   5.015
  473SOL    HW2 1450   0.233   1.752   4.872
  474SOL     OW 1451   0.940   1.698   4.628
  474SOL    HW1 1452   1.020   1.641   4.649
  474SOL    HW2 1453   0.891   1.658   4.551
  475SOL     OW 1454   0.382   0.700   4.204
  475SOL    HW1 1455   0.427   0.610   4.201
  475SOL    HW2 1456   0.288   0.689   4.237
  476SOL     OW 1457   0.614   0.122   3.841
  476SOL    HW1 1458   0.712   0.100   3.848
  476SOL    HW2 1459   0.583   0.105   3.748
  477SOL     OW 1460   0.803   1.402   4.648
  477SOL    HW1 1461   0.893   1.416   4.606
  477SOL    HW2 1462   0.732   1.404   4.577
  478SOL     OW 1463   0.922   0.503   4.623
  478SOL    HW1 1464   0.897   0.494   4.527
  478SOL    HW2 1465   0.970   0.421   4.654
  479SOL     OW 1466   0.539   0.064   4.236
  479SOL    HW1 1467   0.458   0.065   4.294
  479SOL    HW2 1468   0.542   0.147   4.181
  480SOL     OW 1469   1.434   1.188   3.765
  480SOL    HW1 1470   1.466   1.112   3.822
  480SOL    HW2 1471   1.342   1.215   3.795
  481SOL     OW 1472   0.297   0.035   3.895
  481SOL    HW1 1473   0.346   0.119   3.874
  481SOL    HW2 1474   0.359  -0.030   3.940
  482SOL     OW 1475   0.935   0.236   4.204
  482SOL    HW1 1476   0.887   0.277   4.126
  482SOL    HW2 1477   1.034   0.234   4.185
  483SOL     OW 1478   1.227   1.570   4.517
  483SOL    HW1 1479   1.248   1.644   4.452
  483SOL    HW2 1480   1.295   1.570   4.590
  484SOL     OW 1481   0.459   1.152   4.465
  484SOL    HW1 1482   0.388   1.125   4.530
  484SOL    HW2 1483   0.433   1.124   4.372
  485SOL     OW 1484   1.271   1.797   4.315
  485SOL    HW1 1485   1.315   1.861   4.251
  485SOL    HW2 1486   1.221   1.849   4.385
  486SOL     OW 1487   1.032   0.549   3.740
  486SOL    HW1 1488   0.991   0.631   3.701
  486SOL    HW2 1489   1.096   0.575   3.813
  487SOL     OW 1490   0.561   0.222   4.871
  487SOL    HW1 1491   0.599   0.138   4.908
  487SOL    HW2 1492   0.473   0.241   4.915
  488SOL     OW 1493   0.866   0.454   4.366
  488SOL    HW1 1494   0.834   0.526   4.304
  488SOL    HW2 1495   0.890   0.373   4.313
  489SOL     OW 1496   1.017   0.039   4.477
  489SOL    HW1 1497   0.945   0.044   4.408
  489SOL    HW2 1498   0.993  -0.030   4.546
  490SOL     OW 1499   1.429   1.173   4.591
  490SOL    HW1 1500   1.374   1.089   4.584
  490SOL    HW2 1501   1.455   1.202   4.499
  491SOL     OW 1502   1.466   0.590   4.716
  491SOL    HW1 1503   1.436   0.495   4.723
  491SOL    HW2 1504   1.539   0.606   4.782
  492SOL     OW 1505   1.857   0.833   4.101
  492SOL    HW1 1506   1.899   0.769   4.165
  492SOL    HW2 1507   1.819   0.782   4.023
  493SOL     OW 1508   0.488   1.385   3.898
  493SOL    HW1 1509   0.401   1.370   3.945
  493SOL    HW2 1510   0.471   1.411   3.803
  494SOL     OW 1511   1.664   1.280   4.381
  494SOL    HW1 1512   1.763   1.288   4.395
  494SOL    HW2 1513   1.619   1.364   4.412
  495SOL     OW 1514   1.390   0.575   3.802
  495SOL    HW1 1515   1.336   0.554   3.883
  495SOL    HW2 1516   1.481   0.534   3.811
  496SOL     OW 1517   0.527   0.256   4.052
  496SOL    HW1 1518   0.554   0.197   3.977
  496SOL    HW2 1519   0.527   0.351   4.021
  497SOL     OW 1520   1.111   1.195   4.824
  497SOL    HW1 1521   1.071   1.239   4.905
  497SOL    HW2 1522   1.070   1.232   4.741
  498SOL     OW 1523   1.638   1.099   4.803
  498SOL    HW1 1524   1.643   1.180   4.862
  498SOL    HW2 1525   1.552   1.101   4.752
  499SOL     OW 1526   0.705   1.050   4.092
  499SOL    HW1 1527   0.691   1.057   4.191
  499SOL    HW2 1528   0.789   0.999   4.074
  500SOL     OW 1529   0.410   0.813   4.975
  500SOL    HW1 1530   0.496   0.825   5.025
  500SOL    HW2 1531   0.368   0.726   5.002
  501SOL     OW 1532   1.274   0.386   4.986
  501SOL    HW1 1533   1.295   0.460   5.050
  501SOL    HW2 1534   1.185   0.403   4.943
  502SOL     OW 1535   0.367   1.100   4.225
  502SOL    HW1 1536   0.360   1.183   4.169
  502SOL    HW2 1537   0.371   1.020   4.165
  503SOL     OW 1538   0.566   0.537   4.589
  503SOL    HW1 1539   0.578   0.603   4.515
  503SOL    HW2 1540   0.612   0.571   4.672
  504SOL     OW 1541   1.252   1.348   4.112
  504SOL    HW1 1542   1.302   1.425   4.152
  504SOL    HW2 1543   1.157   1.350   4.144
  505SOL     OW 1544   1.272   1.445   4.866
  505SOL    HW1 1545   1.319   1.458   4.953
  505SOL    HW2 1546   1.206   1.371   4.875
  506SOL     OW 1547   1.582   0.639   4.196
  506SOL    HW1 1548   1.551   0.700   4.269
  506SOL    HW2 1549   1.632   0.691   4.127
  507SOL     OW 1550   0.354   1.510   5.053
  507SOL    HW1 1551   0.333   1.466   4.966
  507SOL    HW2 1552   0.451   1.536   5.056
  508SOL     OW 1553   0.573   0.870   4.753
  508SOL    HW1 1554   0.617   0.959   4.744
  508SOL    HW2 1555   0.510   0.870   4.830
  509SOL     OW 1556   1.360   0.862   4.769
  509SOL    HW1 1557   1.285   0.862   4.703
  509SOL    HW2 1558   1.397   0.770   4.778
  510SOL     OW 1559   1.209   0.525   3.999
  510SOL    HW1 1560   1.222   0.441   4.053
  510SOL    HW2 1561   1.180   0.599   4.059
  511SOL     OW 1562   0.307   0.213   4.955
  511SOL    HW1 1563   0.284   0.250   5.045
  511SOL    HW2 1564   0.277   0.118   4.949
  512SOL     OW 1565   0.037   1.310   5.006
  512SOL    HW1 1566   0.090   1.261   5.074
  512SOL    HW2 1567   0.059   1.408   5.011
  513SOL     OW 1568   0.732   0.634   4.788
  513SOL    HW1 1569   0.791   0.608   4.712
  513SOL    HW2 1570   0.704   0.730   4.777
  514SOL     OW 1571   0.307   0.063   4.342
  514SOL    HW1 1572   0.296   0.157   4.375
  514SOL    HW2 1573   0.302   0.000   4.419
  515SOL     OW 1574   1.622   0.367   4.098
  515SOL    HW1 1575   1.624   0.291   4.162
  515SOL    HW2 1576   1.574   0.444   4.138
  516SOL     OW 1577   1.023   0.766   4.690
  516SOL    HW1 1578   1.038   0.787   4.786
  516SOL    HW2 1579   0.993   0.671   4.681
  517SOL     OW 1580   1.540   0.274   3.849
  517SOL    HW1 1581   1.479   0.199   3.872
  517SOL    HW2 1582   1.562   0.326   3.932
  518SOL     OW 1583   1.303   0.838   3.766
  518SOL    HW1 1584   1.337   0.745   3.781
  518SOL    HW2 1585   1.321   0.865   3.671
  519SOL     OW 1586   1.068   1.333   4.573
  519SOL    HW1 1587   1.075   1.249   4.518
  519SOL    HW2 1588   1.130   1.402   4.537
  520SOL     OW 1589   0.319   0.810   4.673
  520SOL    HW1 1590   0.412   0.846   4.678
  520SOL    HW2 1591   0.313   0.725   4.725
  521SOL     OW 1592   0.339   0.509   4.730
  521SOL    HW1 1593   0.287   0.426   4.713
  521SOL    HW2 1594   0.416   0.514   4.666
  522SOL     OW 1595   1.160   0.207   5.201
  522SOL    HW1 1596   1.160   0.271   5.278
  522SOL    HW2 1597   1.188   0.255   5.118
  523SOL     OW 1598   0.008   1.326   3.924
  523SOL    HW1 1599  -0.085   1.347   3.893
  523SOL    HW2 1600   0.018   1.227   3.937
  524SOL     OW 1601   0.088   1.801   4.651
  524SOL    HW1 1602   0.046   1.715   4.624
  524SOL    HW2 1603   0.182   1.804   4.617
  525SOL     OW 1604   0.504   1.568   4.634
  525SOL    HW1 1605   0.570   1.642   4.643
  525SOL    HW2 1606   0.548   1.489   4.592
  526SOL     OW 1607   1.002   0.796   4.962
  526SOL    HW1 1608   1.043   0.764   5.048
  526SOL    HW2 1609   0.906   0.769   4.959
  527SOL     OW 1610   0.040   0.544   4.838
  527SOL    HW1 1611   0.125   0.511   4.797
  527SOL    HW2 1612   0.053   0.559   4.936
  528SOL     OW 1613   0.815   0.572   4.049
  528SOL    HW1 1614   0.822   0.483   4.003
  528SOL    HW2 1615   0.721   0.606   4.041
  529SOL     OW 1616   1.657   0.604   4.930
  529SOL    HW1 1617   1.619   0.535   4.992
  529SOL    HW2 1618   1.739   0.568   4.886
  530SOL     OW 1619   0.671   0.464   4.993
  530SOL    HW1 1620   0.637   0.375   4.963
  530SOL    HW2 1621   0.697   0.518   4.913
  531SOL     OW 1622   0.930   1.678   5.189
  531SOL    HW1 1623   0.906   1.660   5.094
  531SOL    HW2 1624   0.960   1.772   5.199
  532SOL     OW 1625   0.473   0.500   3.915
  532SOL    HW1 1626   0.534   0.580   3.919
  532SOL    HW2 1627   0.378   0.531   3.922
  533SOL     OW 1628   1.347   1.059   4.958
  533SOL    HW1 1629   1.371   0.996   4.884
  533SOL    HW2 1630   1.257   1.099   4.940
  534SOL     OW 1631   1.302   0.855   4.033
  534SOL    HW1 1632   1.216   0.824   4.075
  534SOL    HW2 1633   1.298   0.841   3.934
  535SOL     OW 1634   1.759   1.747   4.878
  535SOL    HW1 1635   1.820   1.777   4.805
  535SOL    HW2 1636   1.721   1.658   4.856
  536SOL     OW 1637   1.252   1.731   4.852
  536SOL    HW1 1638   1.336   1.736   4.798
  536SOL    HW2 1639   1.229   1.635   4.870
  537SOL     OW 1640   0.083   1.258   4.746
  537SOL    HW1 1641   0.078   1.257   4.846
  537SOL    HW2 1642   0.000   1.217   4.708
  538SOL     OW 1643   1.726   0.135   4.247
  538SOL    HW1 1644   1.799   0.118   4.180
  538SOL    HW2 1645   1.695   0.048   4.285
  539SOL     OW 1646   1.388   1.573   4.201
  539SOL    HW1 1647   1.455   1.585   4.127
  539SOL    HW2 1648   1.348   1.662   4.224
  540SOL     OW 1649   1.280   0.927   4.396
  540SOL    HW1 1650   1.340   0.846   4.398
  540SOL    HW2 1651   1.320   0.996   4.336
  541SOL     OW 1652   0.672   1.616   3.878
  541SOL    HW1 1653   0.681   1.626   3.779
  541SOL    HW2 1654   0.632   1.527   3.899
  542SOL     OW 1655   1.650   1.720   5.118
  542SOL    HW1 1656   1.703   1.730   5.034
  542SOL    HW2 1657   1.623   1.810   5.152
  543SOL     OW 1658   1.841   0.175   4.687
  543SOL    HW1 1659   1.880   0.090   4.651
  543SOL    HW2 1660   1.743   0.177   4.668
  544SOL     OW 1661   0.263   0.326   4.444
  544SOL    HW1 1662   0.184   0.377   4.410
  544SOL    HW2 1663   0.254   0.311   4.542
  545SOL     OW 1664   1.194   1.612   3.755
  545SOL    HW1 1665   1.200   1.519   3.792
  545SOL    HW2 1666   1.135   1.612   3.675
  546SOL     OW 1667   0.822   1.002   5.096
  546SOL    HW1 1668   0.862   1.001   5.004
  546SOL    HW2 1669   0.832   1.094   5.136
  547SOL     OW 1670   0.916   0.910   4.015
  547SOL    HW1 1671   0.979   0.948   3.947
  547SOL    HW2 1672   0.956   0.827   4.054
  548SOL     OW 1673   1.504   1.607   3.768
  548SOL    HW1 1674   1.412   1.644   3.775
  548SOL    HW2 1675   1.542   1.627   3.678
  549SOL     OW 1676   1.039   1.098   4.420
  549SOL    HW1 1677   0.969   1.051   4.474
  549SOL    HW2 1678   1.098   1.030   4.377
  550SOL     OW 1679   1.014   0.236   4.695
  550SOL    HW1 1680   1.006   0.200   4.602
  550SOL    HW2 1681   1.012   0.160   4.760
  551SOL     OW 1682   0.590   1.487   4.215
  551SOL    HW1 1683   0.632   1.429   4.145
  551SOL    HW2 1684   0.546   1.566   4.171
  552SOL     OW 1685   1.709   0.385   5.105
  552SOL    HW1 1686   1.782   0.454   5.109
  552SOL    HW2 1687   1.737   0.310   5.046
  553SOL     OW 1688   0.255   1.348   4.014
  553SOL    HW1 1689   0.159   1.349   3.987
  553SOL    HW2 1690   0.267   1.401   4.098
  554SOL     OW 1691   0.075   0.345   3.757
  554SOL    HW1 1692  -0.017   0.317   3.728
  554SOL    HW2 1693   0.106   0.422   3.701
  555SOL     OW 1694   0.072   0.166   4.042
  555SOL    HW1 1695   0.055   0.249   3.988
  555SOL    HW2 1696   0.162   0.129   4.020
  556SOL     OW 1697   1.183   1.335   3.843
  556SOL    HW1 1698   1.084   1.324   3.845
  556SOL    HW2 1699   1.217   1.350   3.936
  557SOL     OW 1700   1.493   1.767   4.683
  557SOL    HW1 1701   1.526   1.831   4.614
  557SOL    HW2 1702   1.559   1.761   4.758
  558SOL     OW 1703   1.674   0.883   4.978
  558SOL    HW1 1704   1.647   0.794   4.941
  558SOL    HW2 1705   1.675   0.951   4.905
  559SOL     OW 1706   1.225   0.325   4.173
  559SOL    HW1 1707   1.290   0.251   4.162
  559SOL    HW2 1708   1.245   0.375   4.257
  560SOL     OW 1709   0.594   0.745   4.376
  560SOL    HW1 1710   0.644   0.830   4.357
  560SOL    HW2 1711   0.506   0.747   4.328
  561SOL     OW 1712   1.730   0.934   5.241
  561SOL    HW1 1713   1.768   1.025   5.256
  561SOL    HW2 1714   1.722   0.917   5.142
  562SOL     OW 1715   0.859   1.374   3.740
  562SOL    HW1 1716   0.813   1.389   3.828
  562SOL    HW2 1717   0.903   1.459   3.710
  563SOL     OW 1718   0.661   1.790   4.677
  563SOL    HW1 1719   0.615   1.878   4.664
  563SOL    HW2 1720   0.760   1.802   4.670
  564SOL     OW 1721   0.859   0.956   4.585
  564SOL    HW1 1722   0.913   0.887   4.633
  564SOL    HW2 1723   0.827   1.025   4.651
  565SOL     OW 1724   1.083   0.984   3.811
  565SOL    HW1 1725   1.060   1.037   3.729
  565SOL    HW2 1726   1.164   0.928   3.792
  566SOL     OW 1727   1.861   1.569   4.575
  566SOL    HW1 1728   1.790   1.557   4.505
  566SOL    HW2 1729   1.862   1.490   4.635
  567SOL     OW 1730   0.079   1.240   4.377
  567SOL    HW1 1731   0.078   1.193   4.465
  567SOL    HW2 1732   0.161   1.212   4.326
  568SOL     OW 1733   1.824   0.192   4.951
  568SOL    HW1 1734   1.820   0.102   4.995
  568SOL    HW2 1735   1.827   0.181   4.852
  569SOL     OW 1736   0.428   0.424   4.244
  569SOL    HW1 1737   0.458   0.352   4.182
  569SOL    HW2 1738   0.389   0.384   4.327
  570SOL     OW 1739   1.705   1.487   4.828
  570SOL    HW1 1740   1.612   1.462   4.801
  570SOL    HW2 1741   1.731   1.437   4.910
  571SOL     OW 1742   0.812   1.586   4.411
  571SOL    HW1 1743   0.844   1.596   4.317
  571SOL    HW2 1744   0.733   1.524   4.413
  572SOL     OW 1745   1.424   0.214   4.836
  572SOL    HW1 1746   1.476   0.149   4.891
  572SOL    HW2 1747   1.375   0.277   4.897
  573SOL     OW 1748   1.001   0.034   4.878
  573SOL    HW1 1749   0.938  -0.038   4.847
  573SOL    HW2 1750   1.094  -0.002   4.878
  574SOL     OW 1751   0.770   1.330   4.025
  574SOL    HW1 1752   0.724   1.243   4.042
  574SOL    HW2 1753   0.861   1.327   4.066
  575SOL     OW 1754   1.352   0.052   3.892
  575SOL    HW1 1755   1.387   0.011   3.808
  575SOL    HW2 1756   1.262   0.014   3.912
  576SOL     OW 1757   1.300   0.453   4.415
  576SOL    HW1 1758   1.241   0.533   4.419
  576SOL    HW2 1759   1.315   0.418   4.508
  577SOL     OW 1760   1.593   0.221   4.606
  577SOL    HW1 1761   1.509   0.220   4.660
  577SOL    HW2 1762   1.595   0.304   4.550
  578SOL     OW 1763   0.039   1.077   4.024
  578SOL    HW1 1764   0.138   1.066   4.015
  578SOL    HW2 1765  -0.001   0.991   4.056
  579SOL     OW 1766   0.875   1.646   4.061
  579SOL    HW1 1767   0.798   1.611   4.007
  579SOL    HW2 1768   0.843   1.717   4.123
  580SOL     OW 1769   0.230   2.490   0.113
  580SOL    HW1 1770   0.137   2.488   0.150
  580SOL    HW2 1771   0.231   2.451   0.021
  581SOL     OW 1772   0.225   2.137   0.996
  581SOL    HW1 1773   0.260   2.120   1.088
  581SOL    HW2 1774   0.137   2.092   0.984
  582SOL     OW 1775   0.019   2.230   0.647
  582SOL    HW1 1776  -0.063   2.273   0.686
  582SOL    HW2 1777  -0.009   2.157   0.584
  583SOL     OW 1778   0.569   3.137   1.165
  583SOL    HW1 1779   0.476   3.130   1.128
  583SOL    HW2 1780   0.580   3.226   1.209
  584SOL     OW 1781   1.555   3.373   0.703
  584SOL    HW1 1782   1.498   3.357   0.784
  584SOL    HW2 1783   1.496   3.383   0.623
  585SOL     OW 1784   1.135   2.565   0.717
  585SOL    HW1 1785   1.192   2.643   0.692
  585SOL    HW2 1786   1.075   2.591   0.793
  586SOL     OW 1787   1.755   2.469   0.231
  586SOL    HW1 1788   1.743   2.456   0.132
  586SOL    HW2 1789   1.725   2.388   0.280
  587SOL     OW 1790   0.768   3.006   1.023
  587SOL    HW1 1791   0.690   3.023   1.083
  587SOL    HW2 1792   0.802   3.093   0.987
  588SOL     OW 1793   0.850   2.660   1.823
  588SOL    HW1 1794   0.846   2.736   1.888
  588SOL    HW2 1795   0.872   2.696   1.732
  589SOL     OW 1796   0.685   2.874   0.665
  589SOL    HW1 1797   0.754   2.858   0.735
  589SOL    HW2 1798   0.612   2.931   0.703
  590SOL     OW 1799   0.686   3.023   1.803
  590SOL    HW1 1800   0.746   3.102   1.817
  590SOL    HW2 1801   0.600   3.054   1.762
  591SOL     OW 1802   0.335   3.297   1.061
  591SOL    HW1 1803   0.257   3.266   1.008
  591SOL    HW2 1804   0.393   3.355   1.004
  592SOL     OW 1805   1.460   3.367   1.339
  592SOL    HW1 1806   1.484   3.461   1.365
  592SOL    HW2 1807   1.444   3.313   1.421
  593SOL     OW 1808   0.438   2.254   1.499
  593SOL    HW1 1809   0.520   2.198   1.508
  593SOL    HW2 1810   0.357   2.196   1.503
  594SOL     OW 1811   1.603   2.309   0.737
  594SOL    HW1 1812   1.529   2.355   0.687
  594SOL    HW2 1813   1.654   2.377   0.790
  595SOL     OW 1814   0.231   3.575   0.483
  595SOL    HW1 1815   0.265   3.652   0.537
  595SOL    HW2 1816   0.275   3.575   0.393
  596SOL     OW 1817   1.127   3.203   1.690
  596SOL    HW1 1818   1.174   3.203   1.778
  596SOL    HW2 1819   1.079   3.116   1.679
  597SOL     OW 1820   0.230   3.296   0.538
  597SOL    HW1 1821   0.204   3.392   0.538
  597SOL    HW2 1822   0.159   3.242   0.583
  598SOL     OW 1823   0.240   2.953   0.886
  598SOL    HW1 1824   0.254   2.869   0.938
  598SOL    HW2 1825   0.185   3.017   0.941
  599SOL     OW 1826   0.620   3.648   1.439
  599SOL    HW1 1827   0.528   3.631   1.474
  599SOL    HW2 1828   0.648   3.740   1.465
  600SOL     OW 1829   0.606   2.826   0.123
  600SOL    HW1 1830   0.613   2.910   0.069
  600SOL    HW2 1831   0.652   2.839   0.211
  601SOL     OW 1832   1.594   1.976   1.480
  601SOL    HW1 1833   1.576   2.043   1.408
  601SOL    HW2 1834   1.591   2.022   1.569
  602SOL     OW 1835   0.122   2.505   0.563
  602SOL    HW1 1836   0.077   2.417   0.580
  602SOL    HW2 1837   0.121   2.559   0.647
  603SOL     OW 1838   1.842   3.629   0.359
  603SOL    HW1 1839   1.896   3.600   0.439
  603SOL    HW2 1840   1.872   3.719   0.330
  604SOL     OW 1841   0.027   3.458   0.117
  604SOL    HW1 1842   0.008   3.362   0.138
  604SOL    HW2 1843  -0.006   3.516   0.192
  605SOL     OW 1844   1.689   2.784   0.612
  605SOL    HW1 1845   1.784   2.755   0.620
  605SOL    HW2 1846   1.681   2.849   0.537
  606SOL     OW 1847   1.641   2.970   0.432
  606SOL    HW1 1848   1.727   2.972   0.380
  606SOL    HW2 1849   1.655   3.017   0.520
  607SOL     OW 1850   0.113   2.599   1.597
  607SOL    HW1 1851   0.201   2.586   1.642
  607SOL    HW2 1852   0.100   2.696   1.575
  608SOL     OW 1853   0.613   3.227   0.726
  608SOL    HW1 1854   0.564   3.140   0.735
  608SOL    HW2 1855   0.590   3.270   0.639
  609SOL     OW 1856   1.293   3.090   1.423
  609SOL    HW1 1857   1.330   3.017   1.365
  609SOL    HW2 1858   1.345   3.095   1.508
  610SOL     OW 1859   0.809   1.866   0.502
  610SOL    HW1 1860   0.849   1.957   0.493
  610SOL    HW2 1861   0.709   1.874   0.508
  611SOL     OW 1862   0.197   2.838   1.264
  611SOL    HW1 1863   0.286   2.793   1.250
  611SOL    HW2 1864   0.124   2.773   1.245
  612SOL     OW 1865   1.525   2.861   0.190
  612SOL    HW1 1866   1.462   2.785   0.203
  612SOL    HW2 1867   1.573   2.879   0.276
  613SOL     OW 1868   1.187   3.654   1.616
  613SOL    HW1 1869   1.211   3.714   1.540
  613SOL    HW2 1870   1.194   3.559   1.586
  614SOL     OW 1871   0.317   2.113   1.801
  614SOL    HW1 1872   0.388   2.184   1.807
  614SOL    HW2 1873   0.229   2.152   1.829
  615SOL     OW 1874   1.466   3.279   0.953
  615SOL    HW1 1875   1.407   3.285   1.033
  615SOL    HW2 1876   1.451   3.191   0.907
  616SOL     OW 1877   1.667   3.576   0.572
  616SOL    HW1 1878   1.626   3.553   0.484
  616SOL    HW2 1879   1.649   3.502   0.637
  617SOL     OW 1880   0.598   2.591   0.270
  617SOL    HW1 1881   0.622   2.660   0.202
  617SOL    HW2 1882   0.520   2.624   0.324
  618SOL     OW 1883   1.281   2.207   0.944
  618SOL    HW1 1884   1.195   2.157   0.931
  618SOL    HW2 1885   1.343   2.153   1.000
  619SOL     OW 1886   1.576   3.524   0.307
  619SOL    HW1 1887   1.665   3.570   0.310
  619SOL    HW2 1888   1.555   3.500   0.212
  620SOL     OW 1889   0.807   2.467   1.465
  620SOL    HW1 1890   0.760   2.464   1.554
  620SOL    HW2 1891   0.756   2.412   1.399
  621SOL     OW 1892   1.394   2.331   1.674
  621SOL    HW1 1893   1.374   2.374   1.762
  621SOL    HW2 1894   1.472   2.269   1.683
  622SOL     OW 1895   0.973   2.752   1.572
  622SOL    HW1 1896   1.019   2.668   1.543
  622SOL    HW2 1897   0.917   2.786   1.497
  623SOL     OW 1898   0.991   2.272   1.242
  623SOL    HW1 1899   0.914   2.306   1.296
  623SOL    HW2 1900   0.957   2.221   1.163
  624SOL     OW 1901   1.041   2.563   0.429
  624SOL    HW1 1902   1.067   2.559   0.525
  624SOL    HW2 1903   0.956   2.512   0.415
  625SOL     OW 1904   0.076   2.673   0.789
  625SOL    HW1 1905   0.175   2.661   0.798
  625SOL    HW2 1906   0.052   2.768   0.810
  626SOL     OW 1907   0.130   3.683   1.571
  626SOL    HW1 1908   0.120   3.668   1.670
  626SOL    HW2 1909   0.044   3.719   1.535
  627SOL     OW 1910   0.865   2.210   0.195
  627SOL    HW1 1911   0.924   2.273   0.146
  627SOL    HW2 1912   0.884   2.116   0.166
  628SOL     OW 1913   1.719   2.447   1.831
  628SOL    HW1 1914   1.693   2.536   1.795
  628SOL    HW2 1915   1.717   2.379   1.758
  629SOL     OW 1916   1.362   3.006   0.545
  629SOL    HW1 1917   1.445   2.977   0.497
  629SOL    HW2 1918   1.313   3.073   0.489
  630SOL     OW 1919   0.550   2.058   0.885
  630SOL    HW1 1920   0.545   2.053   0.985
  630SOL    HW2 1921   0.552   2.154   0.856
  631SOL     OW 1922   1.008   3.318   0.477
  631SOL    HW1 1923   0.962   3.390   0.425
  631SOL    HW2 1924   1.004   3.338   0.575
  632SOL     OW 1925   0.351   3.663   0.853
  632SOL    HW1 1926   0.401   3.577   0.859
  632SOL    HW2 1927   0.416   3.740   0.850
  633SOL     OW 1928   1.795   2.928   0.873
  633SOL    HW1 1929   1.733   2.913   0.797
  633SOL    HW2 1930   1.743   2.939   0.958
  634SOL     OW 1931   1.227   3.412   1.506
  634SOL    HW1 1932   1.233   3.335   1.570
  634SOL    HW2 1933   1.175   3.386   1.426
  635SOL     OW 1934   0.321   2.805   0.242
  635SOL    HW1 1935   0.403   2.844   0.200
  635SOL    HW2 1936   0.294   2.723   0.193
  636SOL     OW 1937   1.458   2.597   0.728
  636SOL    HW1 1938   1.453   2.532   0.803
  636SOL    HW2 1939   1.538   2.656   0.741
  637SOL     OW 1940   0.461   3.128   1.727
  637SOL    HW1 1941   0.411   3.129   1.641
  637SOL    HW2 1942   0.398   3.110   1.803
  638SOL     OW 1943   1.111   3.638   0.237
  638SOL    HW1 1944   1.051   3.576   0.287
  638SOL    HW2 1945   1.142   3.594   0.152
  639SOL     OW 1946   0.202   2.147   1.498
  639SOL    HW1 1947   0.122   2.207   1.485
  639SOL    HW2 1948   0.192   2.098   1.584
  640SOL     OW 1949   1.632   3.239   0.081
  640SOL    HW1 1950   1.600   3.333   0.071
  640SOL    HW2 1951   1.556   3.176   0.069
  641SOL     OW 1952   0.464   3.605   0.323
  641SOL    HW1 1953   0.497   3.644   0.409
  641SOL    HW2 1954   0.540   3.598   0.258
  642SOL     OW 1955   1.400   1.969   0.426
  642SOL    HW1 1956   1.376   1.932   0.336
  642SOL    HW2 1957   1.499   1.985   0.430
  643SOL     OW 1958   0.249   3.647   1.241
  643SOL    HW1 1959   0.306   3.582   1.291
  643SOL    HW2 1960   0.233   3.614   1.148
  644SOL     OW 1961   0.940   3.560   0.904
  644SOL    HW1 1962   1.020   3.503   0.925
  644SOL    HW2 1963   0.891   3.520   0.827
  645SOL     OW 1964   0.382   2.562   0.480
  645SOL    HW1 1965   0.427   2.472   0.477
  645SOL    HW2 1966   0.288   2.551   0.513
  646SOL     OW 1967   1.547   2.084   1.729
  646SOL    HW1 1968   1.542   2.121   1.821
  646SOL    HW2 1969   1.475   2.015   1.717
  647SOL     OW 1970   0.614   1.984   0.117
  647SOL    HW1 1971   0.712   1.962   0.124
  647SOL    HW2 1972   0.583   1.967   0.024
  648SOL     OW 1973   0.781   2.126   1.749
  648SOL    HW1 1974   0.848   2.065   1.792
  648SOL    HW2 1975   0.708   2.145   1.814
  649SOL     OW 1976   0.888   3.376   1.195
  649SOL    HW1 1977   0.865   3.351   1.101
  649SOL    HW2 1978   0.949   3.307   1.234
  650SOL     OW 1979   1.351   2.452   1.433
  650SOL    HW1 1980   1.379   2.409   1.518
  650SOL    HW2 1981   1.376   2.548   1.434
  651SOL     OW 1982   0.803   3.264   0.924
  651SOL    HW1 1983   0.893   3.278   0.882
  651SOL    HW2 1984   0.732   3.266   0.853
  652SOL     OW 1985   0.922   2.365   0.899
  652SOL    HW1 1986   0.897   2.356   0.803
  652SOL    HW2 1987   0.970   2.283   0.930
  653SOL     OW 1988   0.539   1.926   0.512
  653SOL    HW1 1989   0.458   1.927   0.570
  653SOL    HW2 1990   0.542   2.009   0.457
  654SOL     OW 1991   1.434   3.050   0.041
  654SOL    HW1 1992   1.466   2.974   0.098
  654SOL    HW2 1993   1.342   3.077   0.071
  655SOL     OW 1994   0.297   1.897   0.171
  655SOL    HW1 1995   0.346   1.981   0.150
  655SOL    HW2 1996   0.359   1.832   0.216
  656SOL     OW 1997   0.935   2.098   0.480
  656SOL    HW1 1998   0.887   2.139   0.402
  656SOL    HW2 1999   1.034   2.096   0.461
  657SOL     OW 2000   1.076   2.545   1.464
  657SOL    HW1 2001   0.996   2.484   1.467
  657SOL    HW2 2002   1.157   2.492   1.440
  658SOL     OW 2003   1.227   3.432   0.793
  658SOL    HW1 2004   1.248   3.506   0.728
  658SOL    HW2 2005   1.295   3.432   0.866
  659SOL     OW 2006   0.459   3.014   0.741
  659SOL    HW1 2007   0.388   2.987   0.806
  659SOL    HW2 2008   0.433   2.986   0.648
  660SOL     OW 2009   1.271   3.659   0.591
  660SOL    HW1 2010   1.315   3.723   0.527
  660SOL    HW2 2011   1.221   3.711   0.661
  661SOL     OW 2012   1.032   2.411   0.016
  661SOL    HW1 2013   0.991   2.493  -0.023
  661SOL    HW2 2014   1.096   2.437   0.089
  662SOL     OW 2015   0.078   2.418   1.386
  662SOL    HW1 2016   0.170   2.417   1.345
  662SOL    HW2 2017   0.072   2.492   1.453
  663SOL     OW 2018   0.561   2.084   1.147
  663SOL    HW1 2019   0.599   2.000   1.184
  663SOL    HW2 2020   0.473   2.103   1.191
  664SOL     OW 2021   0.866   2.316   0.642
  664SOL    HW1 2022   0.834   2.388   0.580
  664SOL    HW2 2023   0.890   2.235   0.589
  665SOL     OW 2024   1.017   1.901   0.753
  665SOL    HW1 2025   0.945   1.906   0.684
  665SOL    HW2 2026   0.993   1.832   0.822
  666SOL     OW 2027   1.429   3.035   0.867
  666SOL    HW1 2028   1.374   2.951   0.860
  666SOL    HW2 2029   1.455   3.064   0.775
  667SOL     OW 2030   1.466   2.452   0.992
  667SOL    HW1 2031   1.436   2.357   0.999
  667SOL    HW2 2032   1.539   2.468   1.058
  668SOL     OW 2033   1.857   2.695   0.377
  668SOL    HW1 2034   1.899   2.631   0.441
  668SOL    HW2 2035   1.819   2.644   0.299
  669SOL     OW 2036   0.488   3.247   0.174
  669SOL    HW1 2037   0.401   3.232   0.221
  669SOL    HW2 2038   0.471   3.273   0.079
  670SOL     OW 2039   1.664   3.142   0.657
  670SOL    HW1 2040   1.763   3.150   0.671
  670SOL    HW2 2041   1.619   3.226   0.688
  671SOL     OW 2042   1.390   2.437   0.078
  671SOL    HW1 2043   1.336   2.416   0.159
  671SOL    HW2 2044   1.481   2.396   0.087
  672SOL     OW 2045   0.527   2.118   0.328
  672SOL    HW1 2046   0.554   2.059   0.253
  672SOL    HW2 2047   0.527   2.213   0.297
  673SOL     OW 2048   1.754   3.085   1.588
  673SOL    HW1 2049   1.845   3.046   1.575
  673SOL    HW2 2050   1.762   3.181   1.612
  674SOL     OW 2051   1.064   3.209   1.340
  674SOL    HW1 2052   0.984   3.186   1.395
  674SOL    HW2 2053   1.147   3.183   1.389
  675SOL     OW 2054   1.592   3.491   1.625
  675SOL    HW1 2055   1.619   3.525   1.535
  675SOL    HW2 2056   1.671   3.453   1.671
  676SOL     OW 2057   1.111   3.057   1.100
  676SOL    HW1 2058   1.071   3.101   1.181
  676SOL    HW2 2059   1.070   3.094   1.017
  677SOL     OW 2060   1.638   2.961   1.079
  677SOL    HW1 2061   1.643   3.042   1.138
  677SOL    HW2 2062   1.552   2.963   1.028
  678SOL     OW 2063   0.915   1.951   1.402
  678SOL    HW1 2064   0.940   1.931   1.307
  678SOL    HW2 2065   0.987   2.007   1.444
  679SOL     OW 2066   0.980   2.978   1.719
  679SOL    HW1 2067   0.881   2.984   1.729
  679SOL    HW2 2068   1.003   2.898   1.663
  680SOL     OW 2069   0.705   2.912   0.368
  680SOL    HW1 2070   0.691   2.919   0.467
  680SOL    HW2 2071   0.789   2.861   0.350
  681SOL     OW 2072   0.410   2.675   1.251
  681SOL    HW1 2073   0.496   2.687   1.301
  681SOL    HW2 2074   0.368   2.588   1.278
  682SOL     OW 2075   1.274   2.248   1.262
  682SOL    HW1 2076   1.295   2.322   1.326
  682SOL    HW2 2077   1.185   2.265   1.219
  683SOL     OW 2078   0.064   3.426   1.331
  683SOL    HW1 2079   0.018   3.508   1.297
  683SOL    HW2 2080   0.162   3.445   1.340
  684SOL     OW 2081   0.367   2.962   0.501
  684SOL    HW1 2082   0.360   3.045   0.445
  684SOL    HW2 2083   0.371   2.882   0.441
  685SOL     OW 2084   0.566   2.399   0.865
  685SOL    HW1 2085   0.578   2.465   0.791
  685SOL    HW2 2086   0.612   2.433   0.948
  686SOL     OW 2087   1.252   3.210   0.388
  686SOL    HW1 2088   1.302   3.287   0.428
  686SOL    HW2 2089   1.157   3.212   0.420
  687SOL     OW 2090   1.272   3.307   1.142
  687SOL    HW1 2091   1.319   3.320   1.229
  687SOL    HW2 2092   1.206   3.233   1.151
  688SOL     OW 2093   1.582   2.501   0.472
  688SOL    HW1 2094   1.551   2.562   0.545
  688SOL    HW2 2095   1.632   2.553   0.403
  689SOL     OW 2096   0.354   3.372   1.329
  689SOL    HW1 2097   0.333   3.328   1.242
  689SOL    HW2 2098   0.451   3.398   1.332
  690SOL     OW 2099   0.402   2.613   1.598
  690SOL    HW1 2100   0.470   2.668   1.551
  690SOL    HW2 2101   0.442   2.525   1.625
  691SOL     OW 2102   1.587   2.641   1.670
  691SOL    HW1 2103   1.495   2.679   1.665
  691SOL    HW2 2104   1.647   2.688   1.605
  692SOL     OW 2105   1.013   1.967   1.770
  692SOL    HW1 2106   1.019   2.052   1.718
  692SOL    HW2 2107   1.045   1.891   1.713
  693SOL     OW 2108   0.504   1.912   1.740
  693SOL    HW1 2109   0.462   1.855   1.670
  693SOL    HW2 2110   0.438   1.981   1.772
  694SOL     OW 2111   0.573   2.732   1.029
  694SOL    HW1 2112   0.617   2.821   1.020
  694SOL    HW2 2113   0.510   2.732   1.106
  695SOL     OW 2114   1.360   2.724   1.045
  695SOL    HW1 2115   1.285   2.724   0.979
  695SOL    HW2 2116   1.397   2.632   1.054
  696SOL     OW 2117   1.209   2.387   0.275
  696SOL    HW1 2118   1.222   2.303   0.329
  696SOL    HW2 2119   1.180   2.461   0.335
  697SOL     OW 2120   0.307   2.075   1.231
  697SOL    HW1 2121   0.284   2.112   1.321
  697SOL    HW2 2122   0.277   1.980   1.225
  698SOL     OW 2123   0.037   3.172   1.282
  698SOL    HW1 2124   0.090   3.123   1.350
  698SOL    HW2 2125   0.059   3.270   1.287
  699SOL     OW 2126   0.732   2.496   1.064
  699SOL    HW1 2127   0.791   2.470   0.988
  699SOL    HW2 2128   0.704   2.592   1.053
  700SOL     OW 2129   1.728   2.797   1.854
  700SOL    HW1 2130   1.682   2.790   1.765
  700SOL    HW2 2131   1.666   2.841   1.920
  701SOL     OW 2132   0.307   1.925   0.618
  701SOL    HW1 2133   0.296   2.019   0.651
  701SOL    HW2 2134   0.302   1.862   0.695
  702SOL     OW 2135   1.622   2.229   0.374
  702SOL    HW1 2136   1.624   2.153   0.438
  702SOL    HW2 2137   1.574   2.306   0.414
  703SOL     OW 2138   1.023   2.628   0.966
  703SOL    HW1 2139   1.038   2.649   1.062
  703SOL    HW2 2140   0.993   2.533   0.957
  704SOL     OW 2141   0.980   3.435   1.700
  704SOL    HW1 2142   0.960   3.479   1.612
  704SOL    HW2 2143   1.019   3.344   1.684
  705SOL     OW 2144   1.859   3.380   1.605
  705SOL    HW1 2145   1.873   3.407   1.510
  705SOL    HW2 2146   1.942   3.402   1.658
  706SOL     OW 2147   0.350   2.760   1.804
  706SOL    HW1 2148   0.426   2.804   1.852
  706SOL    HW2 2149   0.385   2.713   1.722
  707SOL     OW 2150   1.540   2.136   0.125
  707SOL    HW1 2151   1.479   2.061   0.148
  707SOL    HW2 2152   1.562   2.188   0.208
  708SOL     OW 2153   1.303   2.700   0.042
  708SOL    HW1 2154   1.337   2.607   0.057
  708SOL    HW2 2155   1.321   2.727  -0.053
  709SOL     OW 2156   1.068   3.195   0.849
  709SOL    HW1 2157   1.075   3.111   0.794
  709SOL    HW2 2158   1.130   3.264   0.813
  710SOL     OW 2159   0.319   2.672   0.949
  710SOL    HW1 2160   0.412   2.708   0.954
  710SOL    HW2 2161   0.313   2.587   1.001
  711SOL     OW 2162   0.339   2.371   1.006
  711SOL    HW1 2163   0.287   2.288   0.989
  711SOL    HW2 2164   0.416   2.376   0.942
  712SOL     OW 2165   1.138   2.242   1.678
  712SOL    HW1 2166   1.093   2.305   1.742
  712SOL    HW2 2167   1.231   2.273   1.661
  713SOL     OW 2168   1.160   2.069   1.477
  713SOL    HW1 2169   1.160   2.133   1.554
  713SOL    HW2 2170   1.188   2.117   1.394
  714SOL     OW 2171   0.008   3.188   0.200
  714SOL    HW1 2172  -0.085   3.209   0.169
  714SOL    HW2 2173   0.018   3.089   0.213
  715SOL     OW 2174   0.088   3.663   0.927
  715SOL    HW1 2175   0.046   3.577   0.900
  715SOL    HW2 2176   0.182   3.666   0.893
  716SOL     OW 2177   0.504   3.430   0.910
  716SOL    HW1 2178   0.570   3.504   0.919
  716SOL    HW2 2179   0.548   3.351   0.868
  717SOL     OW 2180   1.002   2.658   1.238
  717SOL    HW1 2181   1.043   2.626   1.324
  717SOL    HW2 2182   0.906   2.631   1.235
  718SOL     OW 2183   0.040   2.406   1.114
  718SOL    HW1 2184   0.125   2.373   1.073
  718SOL    HW2 2185   0.053   2.421   1.212
  719SOL     OW 2186   0.189   2.382   1.722
  719SOL    HW1 2187   0.248   2.342   1.652
  719SOL    HW2 2188   0.131   2.453   1.681
  720SOL     OW 2189   1.369   2.812   1.660
  720SOL    HW1 2190   1.408   2.901   1.680
  720SOL    HW2 2191   1.379   2.792   1.563
  721SOL     OW 2192   0.815   2.434   0.325
  721SOL    HW1 2193   0.822   2.345   0.279
  721SOL    HW2 2194   0.721   2.468   0.317
  722SOL     OW 2195   1.657   2.466   1.206
  722SOL    HW1 2196   1.619   2.397   1.268
  722SOL    HW2 2197   1.739   2.430   1.162
  723SOL     OW 2198   0.252   3.426   1.744
  723SOL    HW1 2199   0.222   3.483   1.820
  723SOL    HW2 2200   0.245   3.329   1.770
  724SOL     OW 2201   0.671   2.326   1.269
  724SOL    HW1 2202   0.637   2.237   1.239
  724SOL    HW2 2203   0.697   2.380   1.189
  725SOL     OW 2204   0.930   3.540   1.465
  725SOL    HW1 2205   0.906   3.522   1.370
  725SOL    HW2 2206   0.960   3.634   1.475
  726SOL     OW 2207   0.473   2.362   0.191
  726SOL    HW1 2208   0.534   2.442   0.195
  726SOL    HW2 2209   0.378   2.393   0.198
  727SOL     OW 2210   0.159   2.999   1.466
  727SOL    HW1 2211   0.181   2.938   1.542
  727SOL    HW2 2212   0.169   2.950   1.380
  728SOL     OW 2213   1.347   2.921   1.234
  728SOL    HW1 2214   1.371   2.858   1.160
  728SOL    HW2 2215   1.257   2.961   1.216
  729SOL     OW 2216   1.302   2.717   0.309
  729SOL    HW1 2217   1.216   2.686   0.351
  729SOL    HW2 2218   1.298   2.703   0.210
  730SOL     OW 2219   1.759   3.609   1.154
  730SOL    HW1 2220   1.820   3.639   1.081
  730SOL    HW2 2221   1.721   3.520   1.132
  731SOL     OW 2222   1.252   3.593   1.128
  731SOL    HW1 2223   1.336   3.598   1.074
  731SOL    HW2 2224   1.229   3.497   1.146
  732SOL     OW 2225   0.083   3.120   1.022
  732SOL    HW1 2226   0.078   3.119   1.122
  732SOL    HW2 2227   0.000   3.079   0.984
  733SOL     OW 2228   0.688   3.524   1.716
  733SOL    HW1 2229   0.632   3.605   1.725
  733SOL    HW2 2230   0.740   3.528   1.630
  734SOL     OW 2231   0.903   1.948   0.133
  734SOL    HW1 2232   0.954   1.949   0.047
  734SOL    HW2 2233   0.959   1.906   0.204
  735SOL     OW 2234   1.726   1.997   0.523
  735SOL    HW1 2235   1.799   1.980   0.456
  735SOL    HW2 2236   1.695   1.910   0.561
  736SOL     OW 2237   1.388   3.435   0.477
  736SOL    HW1 2238   1.455   3.447   0.403
  736SOL    HW2 2239   1.348   3.524   0.500
  737SOL     OW 2240   0.130   3.656   1.851
  737SOL    HW1 2241   0.089   3.582   1.904
  737SOL    HW2 2242   0.194   3.707   1.909
  738SOL     OW 2243   1.280   2.789   0.672
  738SOL    HW1 2244   1.340   2.708   0.674
  738SOL    HW2 2245   1.320   2.858   0.612
  739SOL     OW 2246   0.830   3.135   1.422
  739SOL    HW1 2247   0.825   3.168   1.517
  739SOL    HW2 2248   0.744   3.154   1.376
  740SOL     OW 2249   0.672   3.478   0.154
  740SOL    HW1 2250   0.681   3.488   0.055
  740SOL    HW2 2251   0.632   3.389   0.175
  741SOL     OW 2252   1.650   3.582   1.394
  741SOL    HW1 2253   1.703   3.592   1.310
  741SOL    HW2 2254   1.623   3.672   1.428
  742SOL     OW 2255   1.841   2.037   0.963
  742SOL    HW1 2256   1.880   1.952   0.927
  742SOL    HW2 2257   1.743   2.039   0.944
  743SOL     OW 2258   0.263   2.188   0.720
  743SOL    HW1 2259   0.184   2.239   0.686
  743SOL    HW2 2260   0.254   2.173   0.818
  744SOL     OW 2261   1.194   3.474   0.031
  744SOL    HW1 2262   1.200   3.381   0.068
  744SOL    HW2 2263   1.135   3.474  -0.049
  745SOL     OW 2264   0.822   2.864   1.372
  745SOL    HW1 2265   0.862   2.863   1.280
  745SOL    HW2 2266   0.832   2.956   1.412
  746SOL     OW 2267   0.916   2.772   0.291
  746SOL    HW1 2268   0.979   2.810   0.223
  746SOL    HW2 2269   0.956   2.689   0.330
  747SOL     OW 2270   1.504   3.469   0.044
  747SOL    HW1 2271   1.412   3.506   0.051
  747SOL    HW2 2272   1.542   3.489  -0.046
  748SOL     OW 2273   0.372   3.150   1.490
  748SOL    HW1 2274   0.359   3.243   1.456
  748SOL    HW2 2275   0.288   3.098   1.477
  749SOL     OW 2276   1.614   3.154   1.289
  749SOL    HW1 2277   1.674   3.157   1.369
  749SOL    HW2 2278   1.539   3.218   1.302
  750SOL     OW 2279   1.039   2.960   0.696
  750SOL    HW1 2280   0.969   2.913   0.750
  750SOL    HW2 2281   1.098   2.892   0.653
  751SOL     OW 2282   1.014   2.098   0.971
  751SOL    HW1 2283   1.006   2.062   0.878
  751SOL    HW2 2284   1.012   2.022   1.036
  752SOL     OW 2285   0.590   3.349   0.491
  752SOL    HW1 2286   0.632   3.291   0.421
  752SOL    HW2 2287   0.546   3.428   0.447
  753SOL     OW 2288   1.709   2.247   1.381
  753SOL    HW1 2289   1.782   2.316   1.385
  753SOL    HW2 2290   1.737   2.172   1.322
  754SOL     OW 2291   0.255   3.210   0.290
  754SOL    HW1 2292   0.159   3.211   0.263
  754SOL    HW2 2293   0.267   3.263   0.374
  755SOL     OW 2294   0.105   2.875   1.726
  755SOL    HW1 2295   0.028   2.842   1.780
  755SOL    HW2 2296   0.190   2.845   1.768
  756SOL     OW 2297   0.672   2.065   1.489
  756SOL    HW1 2298   0.762   2.049   1.449
  756SOL    HW2 2299   0.680   2.070   1.588
  757SOL     OW 2300   0.075   2.207   0.033
  757SOL    HW1 2301  -0.017   2.179   0.004
  757SOL    HW2 2302   0.106   2.284  -0.023
  758SOL     OW 2303   1.440   2.718   1.398
  758SOL    HW1 2304   1.383   2.770   1.335
  758SOL    HW2 2305   1.536   2.730   1.374
  759SOL     OW 2306   0.072   2.028   0.318
  759SOL    HW1 2307   0.055   2.111   0.264
  759SOL    HW2 2308   0.162   1.991   0.296
  760SOL     OW 2309   1.183   3.197   0.119
  760SOL    HW1 2310   1.084   3.186   0.121
  760SOL    HW2 2311   1.217   3.212   0.212
  761SOL     OW 2312   0.613   2.704   1.431
  761SOL    HW1 2313   0.669   2.785   1.414
  761SOL    HW2 2314   0.672   2.624   1.434
  762SOL     OW 2315   1.493   3.629   0.959
  762SOL    HW1 2316   1.526   3.693   0.890
  762SOL    HW2 2317   1.559   3.623   1.034
  763SOL     OW 2318   0.716   2.427   1.708
  763SOL    HW1 2319   0.735   2.492   1.782
  763SOL    HW2 2320   0.776   2.347   1.717
  764SOL     OW 2321   1.450   3.082   1.633
  764SOL    HW1 2322   1.441   3.072   1.732
  764SOL    HW2 2323   1.546   3.075   1.607
  765SOL     OW 2324   0.390   3.603   1.560
  765SOL    HW1 2325   0.299   3.644   1.558
  765SOL    HW2 2326   0.383   3.509   1.592
  766SOL     OW 2327   1.674   2.745   1.254
  766SOL    HW1 2328   1.647   2.656   1.217
  766SOL    HW2 2329   1.675   2.813   1.181
  767SOL     OW 2330   1.225   2.187   0.449
  767SOL    HW1 2331   1.290   2.113   0.438
  767SOL    HW2 2332   1.245   2.237   0.533
  768SOL     OW 2333   0.594   2.607   0.652
  768SOL    HW1 2334   0.644   2.692   0.633
  768SOL    HW2 2335   0.506   2.609   0.604
  769SOL     OW 2336   1.777   2.204   1.642
  769SOL    HW1 2337   1.760   2.235   1.548
  769SOL    HW2 2338   1.693   2.167   1.680
  770SOL     OW 2339   1.730   2.796   1.517
  770SOL    HW1 2340   1.768   2.887   1.532
  770SOL    HW2 2341   1.722   2.779   1.418
  771SOL     OW 2342   0.859   3.236   0.016
  771SOL    HW1 2343   0.813   3.251   0.104
  771SOL    HW2 2344   0.903   3.321  -0.014
  772SOL     OW 2345   0.661   3.652   0.953
  772SOL    HW1 2346   0.615   3.740   0.940
  772SOL    HW2 2347   0.760   3.664   0.946
  773SOL     OW 2348   0.859   2.818   0.861
  773SOL    HW1 2349   0.913   2.749   0.909
  773SOL    HW2 2350   0.827   2.887   0.927
  774SOL     OW 2351   1.083   2.846   0.087
  774SOL    HW1 2352   1.060   2.899   0.005
  774SOL    HW2 2353   1.164   2.790   0.068
  775SOL     OW 2354   1.861   3.431   0.851
  775SOL    HW1 2355   1.790   3.419   0.781
  775SOL    HW2 2356   1.862   3.352   0.911
  776SOL     OW 2357   0.221   3.176   1.844
  776SOL    HW1 2358   0.156   3.103   1.823
  776SOL    HW2 2359   0.225   3.190   1.942
  777SOL     OW 2360   0.079   3.102   0.653
  777SOL    HW1 2361   0.078   3.055   0.741
  777SOL    HW2 2362   0.161   3.074   0.602
  778SOL     OW 2363   0.672   3.253   1.624
  778SOL    HW1 2364   0.594   3.203   1.662
  778SOL    HW2 2365   0.669   3.348   1.655
  779SOL     OW 2366   1.824   2.054   1.227
  779SOL    HW1 2367   1.820   1.964   1.271
  779SOL    HW2 2368   1.827   2.043   1.128
  780SOL     OW 2369   0.428   2.286   0.520
  780SOL    HW1 2370   0.458   2.214   0.458
  780SOL    HW2 2371   0.389   2.246   0.603
  781SOL     OW 2372   1.705   3.349   1.104
  781SOL    HW1 2373   1.612   3.324   1.077
  781SOL    HW2 2374   1.731   3.299   1.186
  782SOL     OW 2375   0.317   2.409   1.280
  782SOL    HW1 2376   0.355   2.350   1.352
  782SOL    HW2 2377   0.357   2.383   1.192
  783SOL     OW 2378   0.812   3.448   0.687
  783SOL    HW1 2379   0.844   3.458   0.593
  783SOL    HW2 2380   0.733   3.386   0.689
  784SOL     OW 2381   1.424   2.076   1.112
  784SOL    HW1 2382   1.476   2.011   1.167
  784SOL    HW2 2383   1.375   2.139   1.173
  785SOL     OW 2384   1.001   1.896   1.154
  785SOL    HW1 2385   0.938   1.824   1.123
  785SOL    HW2 2386   1.094   1.860   1.154
  786SOL     OW 2387   0.770   3.192   0.301
  786SOL    HW1 2388   0.724   3.105   0.318
  786SOL    HW2 2389   0.861   3.189   0.342
  787SOL     OW 2390   0.618   3.429   1.284
  787SOL    HW1 2391   0.613   3.511   1.341
  787SOL    HW2 2392   0.707   3.426   1.239
  788SOL     OW 2393   1.352   1.914   0.168
  788SOL    HW1 2394   1.387   1.873   0.084
  788SOL    HW2 2395   1.262   1.876   0.188
  789SOL     OW 2396   1.300   2.315   0.691
  789SOL    HW1 2397   1.241   2.395   0.695
  789SOL    HW2 2398   1.315   2.280   0.784
  790SOL     OW 2399   1.593   2.083   0.882
  790SOL    HW1 2400   1.509   2.082   0.936
  790SOL    HW2 2401   1.595   2.166   0.826
  791SOL     OW 2402   0.039   2.939   0.300
  791SOL    HW1 2403   0.138   2.928   0.291
  791SOL    HW2 2404  -0.001   2.853   0.332
  792SOL     OW 2405   0.875   3.508   0.337
  792SOL    HW1 2406   0.798   3.473   0.283
  792SOL    HW2 2407   0.843   3.579   0.399
  793SOL     OW 2408   0.230   2.490   1.975
  793SOL    HW1 2409   0.137   2.488   2.012
  793SOL    HW2 2410   0.231   2.451   1.883
  794SOL     OW 2411   0.225   2.137   2.858
  794SOL    HW1 2412   0.260   2.120   2.950
  794SOL    HW2 2413   0.137   2.092   2.846
  795SOL     OW 2414   0.019   2.230   2.509
  795SOL    HW1 2415  -0.063   2.273   2.548
  795SOL    HW2 2416  -0.009   2.157   2.446
  796SOL     OW 2417   0.569   3.137   3.027
  796SOL    HW1 2418   0.476   3.130   2.990
  796SOL    HW2 2419   0.580   3.226   3.071
  797SOL     OW 2420   1.555   3.373   2.565
  797SOL    HW1 2421   1.498   3.357   2.646
  797SOL    HW2 2422   1.496   3.383   2.485
  798SOL     OW 2423   1.135   2.565   2.579
  798SOL    HW1 2424   1.192   2.643   2.554
  798SOL    HW2 2425   1.075   2.591   2.655
  799SOL     OW 2426   1.755   2.469   2.093
  799SOL    HW1 2427   1.743   2.456   1.994
  799SOL    HW2 2428   1.725   2.388   2.142
  800SOL     OW 2429   0.768   3.006   2.885
  800SOL    HW1 2430   0.690   3.023   2.945
  800SOL    HW2 2431   0.802   3.093   2.849
  801SOL     OW 2432   0.850   2.660   3.685
  801SOL    HW1 2433   0.846   2.736   3.750
  801SOL    HW2 2434   0.872   2.696   3.594
  802SOL     OW 2435   0.685   2.874   2.527
  802SOL    HW1 2436   0.754   2.858   2.597
  802SOL    HW2 2437   0.612   2.931   2.565
  803SOL     OW 2438   0.686   3.023   3.665
  803SOL    HW1 2439   0.746   3.102   3.679
  803SOL    HW2 2440   0.600   3.054   3.624
  804SOL     OW 2441   0.335   3.297   2.923
  804SOL    HW1 2442   0.257   3.266   2.870
  804SOL    HW2 2443   0.393   3.355   2.866
  805SOL     OW 2444   1.460   3.367   3.201
  805SOL    HW1 2445   1.484   3.461   3.227
  805SOL    HW2 2446   1.444   3.313   3.283
  806SOL     OW 2447   0.438   2.254   3.361
  806SOL    HW1 2448   0.520   2.198   3.370
  806SOL    HW2 2449   0.357   2.196   3.365
  807SOL     OW 2450   1.603   2.309   2.599
  807SOL    HW1 2451   1.529   2.355   2.549
  807SOL    HW2 2452   1.654   2.377   2.652
  808SOL     OW 2453   0.231   3.575   2.345
  808SOL    HW1 2454   0.265   3.652   2.399
  808SOL    HW2 2455   0.275   3.575   2.255
  809SOL     OW 2456   1.127   3.203   3.552
  809SOL    HW1 2457   1.174   3.203   3.640
  809SOL    HW2 2458   1.079   3.116   3.541
  810SOL     OW 2459   0.230   3.296   2.400
  810SOL    HW1 2460   0.204   3.392   2.400
  810SOL    HW2 2461   0.159   3.242   2.445
  811SOL     OW 2462   0.240   2.953   2.748
  811SOL    HW1 2463   0.254   2.869   2.800
  811SOL    HW2 2464   0.185   3.017   2.803
  812SOL     OW 2465   0.620   3.648   3.301
  812SOL    HW1 2466   0.528   3.631   3.336
  812SOL    HW2 2467   0.648   3.740   3.327
  813SOL     OW 2468   0.606   2.826   1.985
  813SOL    HW1 2469   0.613   2.910   1.931
  813SOL    HW2 2470   0.652   2.839   2.073
  814SOL     OW 2471   1.594   1.976   3.342
  814SOL    HW1 2472   1.576   2.043   3.270
  814SOL    HW2 2473   1.591   2.022   3.431
  815SOL     OW 2474   0.122   2.505   2.425
  815SOL    HW1 2475   0.077   2.417   2.442
  815SOL    HW2 2476   0.121   2.559   2.509
  816SOL     OW 2477   1.842   3.629   2.221
  816SOL    HW1 2478   1.896   3.600   2.301
  816SOL    HW2 2479   1.872   3.719   2.192
  817SOL     OW 2480   0.027   3.458   1.979
  817SOL    HW1 2481   0.008   3.362   2.000
  817SOL    HW2 2482  -0.006   3.516   2.054
  818SOL     OW 2483   1.689   2.784   2.474
  818SOL    HW1 2484   1.784   2.755   2.482
  818SOL    HW2 2485   1.681   2.849   2.399
  819SOL     OW 2486   1.641   2.970   2.294
  819SOL    HW1 2487   1.727   2.972   2.242
  819SOL    HW2 2488   1.655   3.017   2.382
  820SOL     OW 2489   0.113   2.599   3.459
  820SOL    HW1 2490   0.201   2.586   3.504
  820SOL    HW2 2491   0.100   2.696   3.437
  821SOL     OW 2492   0.613   3.227   2.588
  821SOL    HW1 2493   0.564   3.140   2.597
  821SOL    HW2 2494   0.590   3.270   2.501
  822SOL     OW 2495   1.293   3.090   3.285
  822SOL    HW1 2496   1.330   3.017   3.227
  822SOL    HW2 2497   1.345   3.095   3.370
  823SOL     OW 2498   0.809   1.866   2.364
  823SOL    HW1 2499   0.849   1.957   2.355
  823SOL    HW2 2500   0.709   1.874   2.370
  824SOL     OW 2501   0.197   2.838   3.126
  824SOL    HW1 2502   0.286   2.793   3.112
  824SOL    HW2 2503   0.124   2.773   3.107
  825SOL     OW 2504   1.525   2.861   2.052
  825SOL    HW1 2505   1.462   2.785   2.065
  825SOL    HW2 2506   1.573   2.879   2.138
  826SOL     OW 2507   1.187   3.654   3.478
  826SOL    HW1 2508   1.211   3.714   3.402
  826SOL    HW2 2509   1.194   3.559   3.448
  827SOL     OW 2510   0.317   2.113   3.663
  827SOL    HW1 2511   0.388   2.184   3.669
  827SOL    HW2 2512   0.229   2.152   3.691
  828SOL     OW 2513   1.466   3.279   2.815
  828SOL    HW1 2514   1.407   3.285   2.895
  828SOL    HW2 2515   1.451   3.191   2.769
  829SOL     OW 2516   1.667   3.576   2.434
  829SOL    HW1 2517   1.626   3.553   2.346
  829SOL    HW2 2518   1.649   3.502   2.499
  830SOL     OW 2519   0.598   2.591   2.132
  830SOL    HW1 2520   0.622   2.660   2.064
  830SOL    HW2 2521   0.520   2.624   2.186
  831SOL     OW 2522   1.281   2.207   2.806
  831SOL    HW1 2523   1.195   2.157   2.793
  831SOL    HW2 2524   1.343   2.153   2.862
  832SOL     OW 2525   1.576   3.524   2.169
  832SOL    HW1 2526   1.665   3.570   2.172
  832SOL    HW2 2527   1.555   3.500   2.074
  833SOL     OW 2528   0.807   2.467   3.327
  833SOL    HW1 2529   0.760   2.464   3.416
  833SOL    HW2 2530   0.756   2.412   3.261
  834SOL     OW 2531   1.394   2.331   3.536
  834SOL    HW1 2532   1.374   2.374   3.624
  834SOL    HW2 2533   1.472   2.269   3.545
  835SOL     OW 2534   0.973   2.752   3.434
  835SOL    HW1 2535   1.019   2.668   3.405
  835SOL    HW2 2536   0.917   2.786   3.359
  836SOL     OW 2537   0.991   2.272   3.104
  836SOL    HW1 2538   0.914   2.306   3.158
  836SOL    HW2 2539   0.957   2.221   3.025
  837SOL     OW 2540   1.041   2.563   2.291
  837SOL    HW1 2541   1.067   2.559   2.387
  837SOL    HW2 2542   0.956   2.512   2.277
  838SOL     OW 2543   0.076   2.673   2.651
  838SOL    HW1 2544   0.175   2.661   2.660
  838SOL    HW2 2545   0.052   2.768   2.672
  839SOL     OW 2546   0.130   3.683   3.433
  839SOL    HW1 2547   0.120   3.668   3.532
  839SOL    HW2 2548   0.044   3.719   3.397
  840SOL     OW 2549   0.865   2.210   2.057
  840SOL    HW1 2550   0.924   2.273   2.008
  840SOL    HW2 2551   0.884   2.116   2.028
  841SOL     OW 2552   1.719   2.447   3.693
  841SOL    HW1 2553   1.693   2.536   3.657
  841SOL    HW2 2554   1.717   2.379   3.620
  842SOL     OW 2555   1.362   3.006   2.407
  842SOL    HW1 2556   1.445   2.977   2.359
  842SOL    HW2 2557   1.313   3.073   2.351
  843SOL     OW 2558   0.550   2.058   2.747
  843SOL    HW1 2559   0.545   2.053   2.847
  843SOL    HW2 2560   0.552   2.154   2.718
  844SOL     OW 2561   1.008   3.318   2.339
  844SOL    HW1 2562   0.962   3.390   2.287
  844SOL    HW2 2563   1.004   3.338   2.437
  845SOL     OW 2564   0.351   3.663   2.715
  845SOL    HW1 2565   0.401   3.577   2.721
  845SOL    HW2 2566   0.416   3.740   2.712
  846SOL     OW 2567   1.795   2.928   2.735
  846SOL    HW1 2568   1.733   2.913   2.659
  846SOL    HW2 2569   1.743   2.939   2.820
  847SOL     OW 2570   1.227   3.412   3.368
  847SOL    HW1 2571   1.233   3.335   3.432
  847SOL    HW2 2572   1.175   3.386   3.288
  848SOL     OW 2573   0.321   2.805   2.104
  848SOL    HW1 2574   0.403   2.844   2.062
  848SOL    HW2 2575   0.294   2.723   2.055
  849SOL     OW 2576   1.458   2.597   2.590
  849SOL    HW1 2577   1.453   2.532   2.665
  849SOL    HW2 2578   1.538   2.656   2.603
  850SOL     OW 2579   0.461   3.128   3.589
  850SOL    HW1 2580   0.411   3.129   3.503
  850SOL    HW2 2581   0.398   3.110   3.665
  851SOL     OW 2582   1.111   3.638   2.099
  851SOL    HW1 2583   1.051   3.576   2.149
  851SOL    HW2 2584   1.142   3.594   2.014
  852SOL     OW 2585   0.202   2.147   3.360
  852SOL    HW1 2586   0.122   2.207   3.347
  852SOL    HW2 2587   0.192   2.098   3.446
  853SOL     OW 2588   1.632   3.239   1.943
  853SOL    HW1 2589   1.600   3.333   1.933
  853SOL    HW2 2590   1.556   3.176   1.931
  854SOL     OW 2591   0.464   3.605   2.185
  854SOL    HW1 2592   0.497   3.644   2.271
  854SOL    HW2 2593   0.540   3.598   2.120
  855SOL     OW 2594   1.400   1.969   2.288
  855SOL    HW1 2595   1.376   1.932   2.198
  855SOL    HW2 2596   1.499   1.985   2.292
  856SOL     OW 2597   0.249   3.647   3.103
  856SOL    HW1 2598   0.306   3.582   3.153
  856SOL    HW2 2599   0.233   3.614   3.010
  857SOL     OW 2600   0.940   3.560   2.766
  857SOL    HW1 2601   1.020   3.503   2.787
  857SOL    HW2 2602   0.891   3.520   2.689
  858SOL     OW 2603   0.382   2.562   2.342
  858SOL    HW1 2604   0.427   2.472   2.339
  858SOL    HW2 2605   0.288   2.551   2.375
  859SOL     OW 2606   1.547   2.084   3.591
  859SOL    HW1 2607   1.542   2.121   3.683
  859SOL    HW2 2608   1.475   2.015   3.579
  860SOL     OW 2609   0.614   1.984   1.979
  860SOL    HW1 2610   0.712   1.962   1.986
  860SOL    HW2 2611   0.583   1.967   1.886
  861SOL     OW 2612   0.781   2.126   3.611
  861SOL    HW1 2613   0.848   2.065   3.654
  861SOL    HW2 2614   0.708   2.145   3.676
  862SOL     OW 2615   0.888   3.376   3.057
  862SOL    HW1 2616   0.865   3.351   2.963
  862SOL    HW2 2617   0.949   3.307   3.096
  863SOL     OW 2618   1.351   2.452   3.295
  863SOL    HW1 2619   1.379   2.409   3.380
  863SOL    HW2 2620   1.376   2.548   3.296
  864SOL     OW 2621   0.803   3.264   2.786
  864SOL    HW1 2622   0.893   3.278   2.744
  864SOL    HW2 2623   0.732   3.266   2.715
  865SOL     OW 2624   0.922   2.365   2.761
  865SOL    HW1 2625   0.897   2.356   2.665
  865SOL    HW2 2626   0.970   2.283   2.792
  866SOL     OW 2627   0.539   1.926   2.374
  866SOL    HW1 2628   0.458   1.927   2.432
  866SOL    HW2 2629   0.542   2.009   2.319
  867SOL     OW 2630   1.434   3.050   1.903
  867SOL    HW1 2631   1.466   2.974   1.960
  867SOL    HW2 2632   1.342   3.077   1.933
  868SOL     OW 2633   0.297   1.897   2.033
  868SOL    HW1 2634   0.346   1.981   2.012
  868SOL    HW2 2635   0.359   1.832   2.078
  869SOL     OW 2636   0.935   2.098   2.342
  869SOL    HW1 2637   0.887   2.139   2.264
  869SOL    HW2 2638   1.034   2.096   2.323
  870SOL     OW 2639   1.076   2.545   3.326
  870SOL    HW1 2640   0.996   2.484   3.329
  870SOL    HW2 2641   1.157   2.492   3.302
  871SOL     OW 2642   1.227   3.432   2.655
  871SOL    HW1 2643   1.248   3.506   2.590
  871SOL    HW2 2644   1.295   3.432   2.728
  872SOL     OW 2645   0.459   3.014   2.603
  872SOL    HW1 2646   0.388   2.987   2.668
  872SOL    HW2 2647   0.433   2.986   2.510
  873SOL     OW 2648   1.271   3.659   2.453
  873SOL    HW1 2649   1.315   3.723   2.389
  873SOL    HW2 2650   1.221   3.711   2.523
  874SOL     OW 2651   1.032   2.411   1.878
  874SOL    HW1 2652   0.991   2.493   1.839
  874SOL    HW2 2653   1.096   2.437   1.951
  875SOL     OW 2654   0.078   2.418   3.248
  875SOL    HW1 2655   0.170   2.417   3.207
  875SOL    HW2 2656   0.072   2.492   3.315
  876SOL     OW 2657   0.561   2.084   3.009
  876SOL    HW1 2658   0.599   2.000   3.046
  876SOL    HW2 2659   0.473   2.103   3.053
  877SOL     OW 2660   0.866   2.316   2.504
  877SOL    HW1 2661   0.834   2.388   2.442
  877SOL    HW2 2662   0.890   2.235   2.451
  878SOL     OW 2663   1.017   1.901   2.615
  878SOL    HW1 2664   0.945   1.906   2.546
  878SOL    HW2 2665   0.993   1.832   2.684
  879SOL     OW 2666   1.429   3.035   2.729
  879SOL    HW1 2667   1.374   2.951   2.722
  879SOL    HW2 2668   1.455   3.064   2.637
  880SOL     OW 2669   1.466   2.452   2.854
  880SOL    HW1 2670   1.436   2.357   2.861
  880SOL    HW2 2671   1.539   2.468   2.920
  881SOL     OW 2672   1.857   2.695   2.239
  881SOL    HW1 2673   1.899   2.631   2.303
  881SOL    HW2 2674   1.819   2.644   2.161
  882SOL     OW 2675   0.488   3.247   2.036
  882SOL    HW1 2676   0.401   3.232   2.083
  882SOL    HW2 2677   0.471   3.273   1.941
  883SOL     OW 2678   1.664   3.142   2.519
  883SOL    HW1 2679   1.763   3.150   2.533
  883SOL    HW2 2680   1.619   3.226   2.550
  884SOL     OW 2681   1.390   2.437   1.940
  884SOL    HW1 2682   1.336   2.416   2.021
  884SOL    HW2 2683   1.481   2.396   1.949
  885SOL     OW 2684   0.527   2.118   2.190
  885SOL    HW1 2685   0.554   2.059   2.115
  885SOL    HW2 2686   0.527   2.213   2.159
  886SOL     OW 2687   1.754   3.085   3.450
  886SOL    HW1 2688   1.845   3.046   3.437
  886SOL    HW2 2689   1.762   3.181   3.474
  887SOL     OW 2690   1.064   3.209   3.202
  887SOL    HW1 2691   0.984   3.186   3.257
  887SOL    HW2 2692   1.147   3.183   3.251
  888SOL     OW 2693   1.592   3.491   3.487
  888SOL    HW1 2694   1.619   3.525   3.397
  888SOL    HW2 2695   1.671   3.453   3.533
  889SOL     OW 2696   1.111   3.057   2.962
  889SOL    HW1 2697   1.071   3.101   3.043
  889SOL    HW2 2698   1.070   3.094   2.879
  890SOL     OW 2699   1.638   2.961   2.941
  890SOL    HW1 2700   1.643   3.042   3.000
  890SOL    HW2 2701   1.552   2.963   2.890
  891SOL     OW 2702   0.915   1.951   3.264
  891SOL    HW1 2703   0.940   1.931   3.169
  891SOL    HW2 2704   0.987   2.007   3.306
  892SOL     OW 2705   0.980   2.978   3.581
  892SOL    HW1 2706   0.881   2.984   3.591
  892SOL    HW2 2707   1.003   2.898   3.525
  893SOL     OW 2708   0.705   2.912   2.230
  893SOL    HW1 2709   0.691   2.919   2.329
  893SOL    HW2 2710   0.789   2.861   2.212
  894SOL     OW 2711   0.410   2.675   3.113
  894SOL    HW1 2712   0.496   2.687   3.163
  894SOL    HW2 2713   0.368   2.588   3.140
  895SOL     OW 2714   1.274   2.248   3.124
  895SOL    HW1 2715   1.295   2.322   3.188
  895SOL    HW2 2716   1.185   2.265   3.081
  896SOL     OW 2717   0.064   3.426   3.193
  896SOL    HW1 2718   0.018   3.508   3.159
  896SOL    HW2 2719   0.162   3.445   3.202
  897SOL     OW 2720   0.367   2.962   2.363
  897SOL    HW1 2721   0.360   3.045   2.307
  897SOL    HW2 2722   0.371   2.882   2.303
  898SOL     OW 2723   0.566   2.399   2.727
  898SOL    HW1 2724   0.578   2.465   2.653
  898SOL    HW2 2725   0.612   2.433   2.810
  899SOL     OW 2726   1.252   3.210   2.250
  899SOL    HW1 2727   1.302   3.287   2.290
  899SOL    HW2 2728   1.157   3.212   2.282
  900SOL     OW 2729   1.272   3.307   3.004
  900SOL    HW1 2730   1.319   3.320   3.091
  900SOL    HW2 2731   1.206   3.233   3.013
  901SOL     OW 2732   1.582   2.501   2.334
  901SOL    HW1 2733   1.551   2.562   2.407
  901SOL    HW2 2734   1.632   2.553   2.265
  902SOL     OW 2735   0.354   3.372   3.191
  902SOL    HW1 2736   0.333   3.328   3.104
  902SOL    HW2 2737   0.451   3.398   3.194
  903SOL     OW 2738   0.402   2.613   3.460
  903SOL    HW1 2739   0.470   2.668   3.413
  903SOL    HW2 2740   0.442   2.525   3.487
  904SOL     OW 2741   1.587   2.641   3.532
  904SOL    HW1 2742   1.495   2.679   3.527
  904SOL    HW2 2743   1.647   2.688   3.467
  905SOL     OW 2744   1.013   1.967   3.632
  905SOL    HW1 2745   1.019   2.052   3.580
  905SOL    HW2 2746   1.045   1.891   3.575
  906SOL     OW 2747   0.504   1.912   3.602
  906SOL    HW1 2748   0.462   1.855   3.532
  906SOL    HW2 2749   0.438   1.981   3.634
  907SOL     OW 2750   0.573   2.732   2.891
  907SOL    HW1 2751   0.617   2.821   2.882
  907SOL    HW2 2752   0.510   2.732   2.968
  908SOL     OW 2753   1.360   2.724   2.907
  908SOL    HW1 2754   1.285   2.724   2.841
  908SOL    HW2 2755   1.397   2.632   2.916
  909SOL     OW 2756   1.209   2.387   2.137
  909SOL    HW1 2757   1.222   2.303   2.191
  909SOL    HW2 2758   1.180   2.461   2.197
  910SOL     OW 2759   0.307   2.075   3.093
  910SOL    HW1 2760   0.284   2.112   3.183
  910SOL    HW2 2761   0.277   1.980   3.087
  911SOL     OW 2762   0.037   3.172   3.144
  911SOL    HW1 2763   0.090   3.123   3.212
  911SOL    HW2 2764   0.059   3.270   3.149
  912SOL     OW 2765   0.732   2.496   2.926
  912SOL    HW1 2766   0.791   2.470   2.850
  912SOL    HW2 2767   0.704   2.592   2.915
  913SOL     OW 2768   1.728   2.797   3.716
  913SOL    HW1 2769   1.682   2.790   3.627
  913SOL    HW2 2770   1.666   2.841   3.782
  914SOL     OW 2771   0.307   1.925   2.480
  914SOL    HW1 2772   0.296   2.019   2.513
  914SOL    HW2 2773   0.302   1.862   2.557
  915SOL     OW 2774   1.622   2.229   2.236
  915SOL    HW1 2775   1.624   2.153   2.300
  915SOL    HW2 2776   1.574   2.306   2.276
  916SOL     OW 2777   1.023   2.628   2.828
  916SOL    HW1 2778   1.038   2.649   2.924
  916SOL    HW2 2779   0.993   2.533   2.819
  917SOL     OW 2780   0.980   3.435   3.562
  917SOL    HW1 2781   0.960   3.479   3.474
  917SOL    HW2 2782   1.019   3.344   3.546
  918SOL     OW 2783   1.859   3.380   3.467
  918SOL    HW1 2784   1.873   3.407   3.372
  918SOL    HW2 2785   1.942   3.402   3.520
  919SOL     OW 2786   0.350   2.760   3.666
  919SOL    HW1 2787   0.426   2.804   3.714
  919SOL    HW2 2788   0.385   2.713   3.584
  920SOL     OW 2789   1.540   2.136   1.987
  920SOL    HW1 2790   1.479   2.061   2.010
  920SOL    HW2 2791   1.562   2.188   2.070
  921SOL     OW 2792   1.303   2.700   1.904
  921SOL    HW1 2793   1.337   2.607   1.919
  921SOL    HW2 2794   1.321   2.727   1.809
  922SOL     OW 2795   1.068   3.195   2.711
  922SOL    HW1 2796   1.075   3.111   2.656
  922SOL    HW2 2797   1.130   3.264   2.675
  923SOL     OW 2798   0.319   2.672   2.811
  923SOL    HW1 2799   0.412   2.708   2.816
  923SOL    HW2 2800   0.313   2.587   2.863
  924SOL     OW 2801   0.339   2.371   2.868
  924SOL    HW1 2802   0.287   2.288   2.851
  924SOL    HW2 2803   0.416   2.376   2.804
  925SOL     OW 2804   1.138   2.242   3.540
  925SOL    HW1 2805   1.093   2.305   3.604
  925SOL    HW2 2806   1.231   2.273   3.523
  926SOL     OW 2807   1.160   2.069   3.339
  926SOL    HW1 2808   1.160   2.133   3.416
  926SOL    HW2 2809   1.188   2.117   3.256
  927SOL     OW 2810   0.008   3.188   2.062
  927SOL    HW1 2811  -0.085   3.209   2.031
  927SOL    HW2 2812   0.018   3.089   2.075
  928SOL     OW 2813   0.088   3.663   2.789
  928SOL    HW1 2814   0.046   3.577   2.762
  928SOL    HW2 2815   0.182   3.666   2.755
  929SOL     OW 2816   0.504   3.430   2.772
  929SOL    HW1 2817   0.570   3.504   2.781
  929SOL    HW2 2818   0.548   3.351   2.730
  930SOL     OW 2819   1.002   2.658   3.100
  930SOL    HW1 2820   1.043   2.626   3.186
  930SOL    HW2 2821   0.906   2.631   3.097
  931SOL     OW 2822   0.040   2.406   2.976
  931SOL    HW1 2823   0.125   2.373   2.935
  931SOL    HW2 2824   0.053   2.421   3.074
  932SOL     OW 2825   0.189   2.382   3.584
  932SOL    HW1 2826   0.248   2.342   3.514
  932SOL    HW2 2827   0.131   2.453   3.543
  933SOL     OW 2828   1.369   2.812   3.522
  933SOL    HW1 2829   1.408   2.901   3.542
  933SOL    HW2 2830   1.379   2.792   3.425
  934SOL     OW 2831   0.815   2.434   2.187
  934SOL    HW1 2832   0.822   2.345   2.141
  934SOL    HW2 2833   0.721   2.468   2.179
  935SOL     OW 2834   1.657   2.466   3.068
  935SOL    HW1 2835   1.619   2.397   3.130
  935SOL    HW2 2836   1.739   2.430   3.024
  936SOL     OW 2837   0.252   3.426   3.606
  936SOL    HW1 2838   0.222   3.483   3.682
  936SOL    HW2 2839   0.245   3.329   3.632
  937SOL     OW 2840   0.671   2.326   3.131
  937SOL    HW1 2841   0.637   2.237   3.101
  937SOL    HW2 2842   0.697   2.380   3.051
  938SOL     OW 2843   0.930   3.540   3.327
  938SOL    HW1 2844   0.906   3.522   3.232
  938SOL    HW2 2845   0.960   3.634   3.337
  939SOL     OW 2846   0.473   2.362   2.053
  939SOL    HW1 2847   0.534   2.442   2.057
  939SOL    HW2 2848   0.378   2.393   2.060
  940SOL     OW 2849   0.159   2.999   3.328
  940SOL    HW1 2850   0.181   2.938   3.404
  940SOL    HW2 2851   0.169   2.950   3.242
  941SOL     OW 2852   1.347   2.921   3.096
  941SOL    HW1 2853   1.371   2.858   3.022
  941SOL    HW2 2854   1.257   2.961   3.078
  942SOL     OW 2855   1.302   2.717   2.171
  942SOL    HW1 2856   1.216   2.686   2.213
  942SOL    HW2 2857   1.298   2.703   2.072
  943SOL     OW 2858   1.759   3.609   3.016
  943SOL    HW1 2859   1.820   3.639   2.943
  943SOL    HW2 2860   1.721   3.520   2.994
  944SOL     OW 2861   1.252   3.593   2.990
  944SOL    HW1 2862   1.336   3.598   2.936
  944SOL    HW2 2863   1.229   3.497   3.008
  945SOL     OW 2864   0.083   3.120   2.884
  945SOL    HW1 2865   0.078   3.119   2.984
  945SOL    HW2 2866   0.000   3.079   2.846
  946SOL     OW 2867   0.688   3.524   3.578
  946SOL    HW1 2868   0.632   3.605   3.587
  946SOL    HW2 2869   0.740   3.528   3.492
  947SOL     OW 2870   1.726   1.997   2.385
  947SOL    HW1 2871   1.799   1.980   2.318
  947SOL    HW2 2872   1.695   1.910   2.423
  948SOL     OW 2873   1.388   3.435   2.339
  948SOL    HW1 2874   1.455   3.447   2.265
  948SOL    HW2 2875   1.348   3.524   2.362
  949SOL     OW 2876   0.130   3.656   3.713
  949SOL    HW1 2877   0.089   3.582   3.766
  949SOL    HW2 2878   0.194   3.707   3.771
  950SOL     OW 2879   1.280   2.789   2.534
  950SOL    HW1 2880   1.340   2.708   2.536
  950SOL    HW2 2881   1.320   2.858   2.474
  951SOL     OW 2882   0.830   3.135   3.284
  951SOL    HW1 2883   0.825   3.168   3.379
  951SOL    HW2 2884   0.744   3.154   3.238
  952SOL     OW 2885   0.672   3.478   2.016
  952SOL    HW1 2886   0.681   3.488   1.917
  952SOL    HW2 2887   0.632   3.389   2.037
  953SOL     OW 2888   1.650   3.582   3.256
  953SOL    HW1 2889   1.703   3.592   3.172
  953SOL    HW2 2890   1.623   3.672   3.290
  954SOL     OW 2891   1.841   2.037   2.825
  954SOL    HW1 2892   1.880   1.952   2.789
  954SOL    HW2 2893   1.743   2.039   2.806
  955SOL     OW 2894   0.263   2.188   2.582
  955SOL    HW1 2895   0.184   2.239   2.548
  955SOL    HW2 2896   0.254   2.173   2.680
  956SOL     OW 2897   1.194   3.474   1.893
  956SOL    HW1 2898   1.200   3.381   1.930
  956SOL    HW2 2899   1.135   3.474   1.813
  957SOL     OW 2900   0.822   2.864   3.234
  957SOL    HW1 2901   0.862   2.863   3.142
  957SOL    HW2 2902   0.832   2.956   3.274
  958SOL     OW 2903   0.916   2.772   2.153
  958SOL    HW1 2904   0.979   2.810   2.085
  958SOL    HW2 2905   0.956   2.689   2.192
  959SOL     OW 2906   1.504   3.469   1.906
  959SOL    HW1 2907   1.412   3.506   1.913
  959SOL    HW2 2908   1.542   3.489   1.816
  960SOL     OW 2909   0.372   3.150   3.352
  960SOL    HW1 2910   0.359   3.243   3.318
  960SOL    HW2 2911   0.288   3.098   3.339
  961SOL     OW 2912   1.614   3.154   3.151
  961SOL    HW1 2913   1.674   3.157   3.231
  961SOL    HW2 2914   1.539   3.218   3.164
  962SOL     OW 2915   1.039   2.960   2.558
  962SOL    HW1 2916   0.969   2.913   2.612
  962SOL    HW2 2917   1.098   2.892   2.515
  963SOL     OW 2918   1.014   2.098   2.833
  963SOL    HW1 2919   1.006   2.062   2.740
  963SOL    HW2 2920   1.012   2.022   2.898
  964SOL     OW 2921   0.590   3.349   2.353
  964SOL    HW1 2922   0.632   3.291   2.283
  964SOL    HW2 2923   0.546   3.428   2.309
  965SOL     OW 2924   1.709   2.247   3.243
  965SOL    HW1 2925   1.782   2.316   3.247
  965SOL    HW2 2926   1.737   2.172   3.184
  966SOL     OW 2927   0.255   3.210   2.152
  966SOL    HW1 2928   0.159   3.211   2.125
  966SOL    HW2 2929   0.267   3.263   2.236
  967SOL     OW 2930   0.105   2.875   3.588
  967SOL    HW1 2931   0.028   2.842   3.642
  967SOL    HW2 2932   0.190   2.845   3.630
  968SOL     OW 2933   0.672   2.065   3.351
  968SOL    HW1 2934   0.762   2.049   3.311
  968SOL    HW2 2935   0.680   2.070   3.450
  969SOL     OW 2936   0.075   2.207   1.895
  969SOL    HW1 2937  -0.017   2.179   1.866
  969SOL    HW2 2938   0.106   2.284   1.839
  970SOL     OW 2939   1.440   2.718   3.260
  970SOL    HW1 2940   1.383   2.770   3.197
  970SOL    HW2 2941   1.536   2.730   3.236
  971SOL     OW 2942   0.072   2.028   2.180
  971SOL    HW1 2943   0.055   2.111   2.126
  971SOL    HW2 2944   0.162   1.991   2.158
  972SOL     OW 2945   1.183   3.197   1.981
  972SOL    HW1 2946   1.084   3.186   1.983
  972SOL    HW2 2947   1.217   3.212   2.074
  973SOL     OW 2948   0.613   2.704   3.293
  973SOL    HW1 2949   0.669   2.785   3.276
  973SOL    HW2 2950   0.672   2.624   3.296
  974SOL     OW 2951   1.493   3.629   2.821
  974SOL    HW1 2952   1.526   3.693   2.752
  974SOL    HW2 2953   1.559   3.623   2.896
  975SOL     OW 2954   0.716   2.427   3.570
  975SOL    HW1 2955   0.735   2.492   3.644
  975SOL    HW2 2956   0.776   2.347   3.579
  976SOL     OW 2957   1.450   3.082   3.495
  976SOL    HW1 2958   1.441   3.072   3.594
  976SOL    HW2 2959   1.546   3.075   3.469
  977SOL     OW 2960   0.390   3.603   3.422
  977SOL    HW1 2961   0.299   3.644   3.420
  977SOL    HW2 2962   0.383   3.509   3.454
  978SOL     OW 2963   1.674   2.745   3.116
  978SOL    HW1 2964   1.647   2.656   3.079
  978SOL    HW2 2965   1.675   2.813   3.043
  979SOL     OW 2966   1.225   2.187   2.311
  979SOL    HW1 2967   1.290   2.113   2.300
  979SOL    HW2 2968   1.245   2.237   2.395
  980SOL     OW 2969   0.594   2.607   2.514
  980SOL    HW1 2970   0.644   2.692   2.495
  980SOL    HW2 2971   0.506   2.609   2.466
  981SOL     OW 2972   1.777   2.204   3.504
  981SOL    HW1 2973   1.760   2.235   3.410
  981SOL    HW2 2974   1.693   2.167   3.542
  982SOL     OW 2975   1.730   2.796   3.379
  982SOL    HW1 2976   1.768   2.887   3.394
  982SOL    HW2 2977   1.722   2.779   3.280
  983SOL     OW 2978   0.859   3.236   1.878
  983SOL    HW1 2979   0.813   3.251   1.966
  983SOL    HW2 2980   0.903   3.321   1.848
  984SOL     OW 2981   0.661   3.652   2.815
  984SOL    HW1 2982   0.615   3.740   2.802
  984SOL    HW2 2983   0.760   3.664   2.808
  985SOL     OW 2984   0.859   2.818   2.723
  985SOL    HW1 2985   0.913   2.749   2.771
  985SOL    HW2 2986   0.827   2.887   2.789
  986SOL     OW 2987   1.083   2.846   1.949
  986SOL    HW1 2988   1.060   2.899   1.867
  986SOL    HW2 2989   1.164   2.790   1.930
  987SOL     OW 2990   1.861   3.431   2.713
  987SOL    HW1 2991   1.790   3.419   2.643
  987SOL    HW2 2992   1.862   3.352   2.773
  988SOL     OW 2993   0.221   3.176   3.706
  988SOL    HW1 2994   0.156   3.103   3.685
  988SOL    HW2 2995   0.225   3.190   3.804
  989SOL     OW 2996   0.079   3.102   2.515
  989SOL    HW1 2997   0.078   3.055   2.603
  989SOL    HW2 2998   0.161   3.074   2.464
  990SOL     OW 2999   0.672   3.253   3.486
  990SOL    HW1 3000   0.594   3.203   3.524
  990SOL    HW2 3001   0.669   3.348   3.517
  991SOL     OW 3002   1.824   2.054   3.089
  991SOL    HW1 3003   1.820   1.964   3.133
  991SOL    HW2 3004   1.827   2.043   2.990
  992SOL     OW 3005   0.428   2.286   2.382
  992SOL    HW1 3006   0.458   2.214   2.320
  992SOL    HW2 3007   0.389   2.246   2.465
  993SOL     OW 3008   1.705   3.349   2.966
  993SOL    HW1 3009   1.612   3.324   2.939
  993SOL    HW2 3010   1.731   3.299   3.048
  994SOL     OW 3011   0.317   2.409   3.142
  994SOL    HW1 3012   0.355   2.350   3.214
  994SOL    HW2 3013   0.357   2.383   3.054
  995SOL     OW 3014   0.812   3.448   2.549
  995SOL    HW1 3015   0.844   3.458   2.455
  995SOL    HW2 3016   0.733   3.386   2.551
  996SOL     OW 3017   1.424   2.076   2.974
  996SOL    HW1 3018   1.476   2.011   3.029
  996SOL    HW2 3019   1.375   2.139   3.035
  997SOL     OW 3020   1.001   1.896   3.016
  997SOL    HW1 3021   0.938   1.824   2.985
  997SOL    HW2 3022   1.094   1.860   3.016
  998SOL     OW 3023   0.770   3.192   2.163
  998SOL    HW1 3024   0.724   3.105   2.180
  998SOL    HW2 3025   0.861   3.189   2.204
  999SOL     OW 3026   0.618   3.429   3.146
  999SOL    HW1 3027   0.613   3.511   3.203
  999SOL    HW2 3028   0.707   3.426   3.101
 1000SOL     OW 3029   1.352   1.914   2.030
 1000SOL    HW1 3030   1.387   1.873   1.946
 1000SOL    HW2 3031   1.262   1.876   2.050
 1001SOL     OW 3032   1.300   2.315   2.553
 1001SOL    HW1 3033   1.241   2.395   2.557
 1001SOL    HW2 3034   1.315   2.280   2.646
 1002SOL     OW 3035   1.593   2.083   2.744
 1002SOL    HW1 3036   1.509   2.082   2.798
 1002SOL    HW2 3037   1.595   2.166   2.688
 1003SOL     OW 3038   0.039   2.939   2.162
 1003SOL    HW1 3039   0.138   2.928   2.153
 1003SOL    HW2 3040  -0.001   2.853   2.194
 1004SOL     OW 3041   0.875   3.508   2.199
 1004SOL    HW1 3042   0.798   3.473   2.145
 1004SOL    HW2 3043   0.843   3.579   2.261
 1005SOL     OW 3044   0.230   2.490   3.837
 1005SOL    HW1 3045   0.137   2.488   3.874
 1005SOL    HW2 3046   0.231   2.451   3.745
 1006SOL     OW 3047   0.225   2.137   4.720
 1006SOL    HW1 3048   0.260   2.120   4.812
 1006SOL    HW2 3049   0.137   2.092   4.708
 1007SOL     OW 3050   0.019   2.230   4.371
 1007SOL    HW1 3051  -0.063   2.273   4.410
 1007SOL    HW2 3052  -0.009   2.157   4.308
 1008SOL     OW 3053   0.569   3.137   4.889
 1008SOL    HW1 3054   0.476   3.130   4.852
 1008SOL    HW2 3055   0.580   3.226   4.933
 1009SOL     OW 3056   1.555   3.373   4.427
 1009SOL    HW1 3057   1.498   3.357   4.508
 1009SOL    HW2 3058   1.496   3.383   4.347
 1010SOL     OW 3059   1.135   2.565   4.441
 1010SOL    HW1 3060   1.192   2.643   4.416
 1010SOL    HW2 3061   1.075   2.591   4.517
 1011SOL     OW 3062   1.755   2.469   3.955
 1011SOL    HW1 3063   1.743   2.456   3.856
 1011SOL    HW2 3064   1.725   2.388   4.004
 1012SOL     OW 3065   0.768   3.006   4.747
 1012SOL    HW1 3066   0.690   3.023   4.807
 1012SOL    HW2 3067   0.802   3.093   4.711
 1013SOL     OW 3068   0.685   2.874   4.389
 1013SOL    HW1 3069   0.754   2.858   4.459
 1013SOL    HW2 3070   0.612   2.931   4.427
 1014SOL     OW 3071   0.335   3.297   4.785
 1014SOL    HW1 3072   0.257   3.266   4.732
 1014SOL    HW2 3073   0.393   3.355   4.728
 1015SOL     OW 3074   1.603   2.309   4.461
 1015SOL    HW1 3075   1.529   2.355   4.411
 1015SOL    HW2 3076   1.654   2.377   4.514
 1016SOL     OW 3077   0.231   3.575   4.207
 1016SOL    HW1 3078   0.265   3.652   4.261
 1016SOL    HW2 3079   0.275   3.575   4.117
 1017SOL     OW 3080   0.230   3.296   4.262
 1017SOL    HW1 3081   0.204   3.392   4.262
 1017SOL    HW2 3082   0.159   3.242   4.307
 1018SOL     OW 3083   0.240   2.953   4.610
 1018SOL    HW1 3084   0.254   2.869   4.662
 1018SOL    HW2 3085   0.185   3.017   4.665
 1019SOL     OW 3086   0.606   2.826   3.847
 1019SOL    HW1 3087   0.613   2.910   3.793
 1019SOL    HW2 3088   0.652   2.839   3.935
 1020SOL     OW 3089   0.122   2.505   4.287
 1020SOL    HW1 3090   0.077   2.417   4.304
 1020SOL    HW2 3091   0.121   2.559   4.371
 1021SOL     OW 3092   1.842   3.629   4.083
 1021SOL    HW1 3093   1.896   3.600   4.163
 1021SOL    HW2 3094   1.872   3.719   4.054
 1022SOL     OW 3095   0.027   3.458   3.841
 1022SOL    HW1 3096   0.008   3.362   3.862
 1022SOL    HW2 3097  -0.006   3.516   3.916
 1023SOL     OW 3098   1.689   2.784   4.336
 1023SOL    HW1 3099   1.784   2.755   4.344
 1023SOL    HW2 3100   1.681   2.849   4.261
 1024SOL     OW 3101   1.641   2.970   4.156
 1024SOL    HW1 3102   1.727   2.972   4.104
 1024SOL    HW2 3103   1.655   3.017   4.244
 1025SOL     OW 3104   0.113   2.599   5.321
 1025SOL    HW1 3105   0.201   2.586   5.366
 1025SOL    HW2 3106   0.100   2.696   5.299
 1026SOL     OW 3107   0.613   3.227   4.450
 1026SOL    HW1 3108   0.564   3.140   4.459
 1026SOL    HW2 3109   0.590   3.270   4.363
 1027SOL     OW 3110   0.809   1.866   4.226
 1027SOL    HW1 3111   0.849   1.957   4.217
 1027SOL    HW2 3112   0.709   1.874   4.232
 1028SOL     OW 3113   0.197   2.838   4.988
 1028SOL    HW1 3114   0.286   2.793   4.974
 1028SOL    HW2 3115   0.124   2.773   4.969
 1029SOL     OW 3116   1.525   2.861   3.914
 1029SOL    HW1 3117   1.462   2.785   3.927
 1029SOL    HW2 3118   1.573   2.879   4.000
 1030SOL     OW 3119   1.466   3.279   4.677
 1030SOL    HW1 3120   1.407   3.285   4.757
 1030SOL    HW2 3121   1.451   3.191   4.631
 1031SOL     OW 3122   1.667   3.576   4.296
 1031SOL    HW1 3123   1.626   3.553   4.208
 1031SOL    HW2 3124   1.649   3.502   4.361
 1032SOL     OW 3125   0.598   2.591   3.994
 1032SOL    HW1 3126   0.622   2.660   3.926
 1032SOL    HW2 3127   0.520   2.624   4.048
 1033SOL     OW 3128   1.281   2.207   4.668
 1033SOL    HW1 3129   1.195   2.157   4.655
 1033SOL    HW2 3130   1.343   2.153   4.724
 1034SOL     OW 3131   1.576   3.524   4.031
 1034SOL    HW1 3132   1.665   3.570   4.034
 1034SOL    HW2 3133   1.555   3.500   3.936
 1035SOL     OW 3134   0.991   2.272   4.966
 1035SOL    HW1 3135   0.914   2.306   5.020
 1035SOL    HW2 3136   0.957   2.221   4.887
 1036SOL     OW 3137   1.041   2.563   4.153
 1036SOL    HW1 3138   1.067   2.559   4.249
 1036SOL    HW2 3139   0.956   2.512   4.139
 1037SOL     OW 3140   0.076   2.673   4.513
 1037SOL    HW1 3141   0.175   2.661   4.522
 1037SOL    HW2 3142   0.052   2.768   4.534
 1038SOL     OW 3143   0.130   3.683   5.295
 1038SOL    HW1 3144   0.120   3.668   5.394
 1038SOL    HW2 3145   0.044   3.719   5.259
 1039SOL     OW 3146   0.865   2.210   3.919
 1039SOL    HW1 3147   0.924   2.273   3.870
 1039SOL    HW2 3148   0.884   2.116   3.890
 1040SOL     OW 3149   1.362   3.006   4.269
 1040SOL    HW1 3150   1.445   2.977   4.221
 1040SOL    HW2 3151   1.313   3.073   4.213
 1041SOL     OW 3152   0.550   2.058   4.609
 1041SOL    HW1 3153   0.545   2.053   4.709
 1041SOL    HW2 3154   0.552   2.154   4.580
 1042SOL     OW 3155   1.008   3.318   4.201
 1042SOL    HW1 3156   0.962   3.390   4.149
 1042SOL    HW2 3157   1.004   3.338   4.299
 1043SOL     OW 3158   0.351   3.663   4.577
 1043SOL    HW1 3159   0.401   3.577   4.583
 1043SOL    HW2 3160   0.416   3.740   4.574
 1044SOL     OW 3161   1.795   2.928   4.597
 1044SOL    HW1 3162   1.733   2.913   4.521
 1044SOL    HW2 3163   1.743   2.939   4.682
 1045SOL     OW 3164   0.321   2.805   3.966
 1045SOL    HW1 3165   0.403   2.844   3.924
 1045SOL    HW2 3166   0.294   2.723   3.917
 1046SOL     OW 3167   1.458   2.597   4.452
 1046SOL    HW1 3168   1.453   2.532   4.527
 1046SOL    HW2 3169   1.538   2.656   4.465
 1047SOL     OW 3170   1.111   3.638   3.961
 1047SOL    HW1 3171   1.051   3.576   4.011
 1047SOL    HW2 3172   1.142   3.594   3.876
 1048SOL     OW 3173   1.632   3.239   3.805
 1048SOL    HW1 3174   1.600   3.333   3.795
 1048SOL    HW2 3175   1.556   3.176   3.793
 1049SOL     OW 3176   0.464   3.605   4.047
 1049SOL    HW1 3177   0.497   3.644   4.133
 1049SOL    HW2 3178   0.540   3.598   3.982
 1050SOL     OW 3179   1.400   1.969   4.150
 1050SOL    HW1 3180   1.376   1.932   4.060
 1050SOL    HW2 3181   1.499   1.985   4.154
 1051SOL     OW 3182   0.249   3.647   4.965
 1051SOL    HW1 3183   0.306   3.582   5.015
 1051SOL    HW2 3184   0.233   3.614   4.872
 1052SOL     OW 3185   0.940   3.560   4.628
 1052SOL    HW1 3186   1.020   3.503   4.649
 1052SOL    HW2 3187   0.891   3.520   4.551
 1053SOL     OW 3188   0.382   2.562   4.204
 1053SOL    HW1 3189   0.427   2.472   4.201
 1053SOL    HW2 3190   0.288   2.551   4.237
 1054SOL     OW 3191   0.614   1.984   3.841
 1054SOL    HW1 3192   0.712   1.962   3.848
 1054SOL    HW2 3193   0.583   1.967   3.748
 1055SOL     OW 3194   0.803   3.264   4.648
 1055SOL    HW1 3195   0.893   3.278   4.606
 1055SOL    HW2 3196   0.732   3.266   4.577
 1056SOL     OW 3197   0.922   2.365   4.623
 1056SOL    HW1 3198   0.897   2.356   4.527
 1056SOL    HW2 3199   0.970   2.283   4.654
 1057SOL     OW 3200   0.539   1.926   4.236
 1057SOL    HW1 3201   0.458   1.927   4.294
 1057SOL    HW2 3202   0.542   2.009   4.181
 1058SOL     OW 3203   1.434   3.050   3.765
 1058SOL    HW1 3204   1.466   2.974   3.822
 1058SOL    HW2 3205   1.342   3.077   3.795
 1059SOL     OW 3206   0.297   1.897   3.895
 1059SOL    HW1 3207   0.346   1.981   3.874
 1059SOL    HW2 3208   0.359   1.832   3.940
 1060SOL     OW 3209   0.935   2.098   4.204
 1060SOL    HW1 3210   0.887   2.139   4.126
 1060SOL    HW2 3211   1.034   2.096   4.185
 1061SOL     OW 3212   1.227   3.432   4.517
 1061SOL    HW1 3213   1.248   3.506   4.452
 1061SOL    HW2 3214   1.295   3.432   4.590
 1062SOL     OW 3215   0.459   3.014   4.465
 1062SOL    HW1 3216   0.388   2.987   4.530
 1062SOL    HW2 3217   0.433   2.986   4.372
 1063SOL     OW 3218   1.271   3.659   4.315
 1063SOL    HW1 3219   1.315   3.723   4.251
 1063SOL    HW2 3220   1.221   3.711   4.385
 1064SOL     OW 3221   1.032   2.411   3.740
 1064SOL    HW1 3222   0.991   2.493   3.701
 1064SOL    HW2 3223   1.096   2.437   3.813
 1065SOL     OW 3224   0.561   2.084   4.871
 1065SOL    HW1 3225   0.599   2.000   4.908
 1065SOL    HW2 3226   0.473   2.103   4.915
 1066SOL     OW 3227   0.866   2.316   4.366
 1066SOL    HW1 3228   0.834   2.388   4.304
 1066SOL    HW2 3229   0.890   2.235   4.313
 1067SOL     OW 3230   1.017   1.901   4.477
 1067SOL    HW1 3231   0.945   1.906   4.408
 1067SOL    HW2 3232   0.993   1.832   4.546
 1068SOL     OW 3233   1.429   3.035   4.591
 1068SOL    HW1 3234   1.374   2.951   4.584
 1068SOL    HW2 3235   1.455   3.064   4.499
 1069SOL     OW 3236   1.466   2.452   4.716
 1069SOL    HW1 3237   1.436   2.357   4.723
 1069SOL    HW2 3238   1.539   2.468   4.782
 1070SOL     OW 3239   1.857   2.695   4.101
 1070SOL    HW1 3240   1.899   2.631   4.165
 1070SOL    HW2 3241   1.819   2.644   4.023
 1071SOL     OW 3242   0.488   3.247   3.898
 1071SOL    HW1 3243   0.401   3.232   3.945
 1071SOL    HW2 3244   0.471   3.273   3.803
 1072SOL     OW 3245   1.664   3.142   4.381
 1072SOL    HW1 3246   1.763   3.150   4.395
 1072SOL    HW2 3247   1.619   3.226   4.412
 1073SOL     OW 3248   1.390   2.437   3.802
 1073SOL    HW1 3249   1.336   2.416   3.883
 1073SOL    HW2 3250   1.481   2.396   3.811
 1074SOL     OW 3251   0.527   2.118   4.052
 1074SOL    HW1 3252   0.554   2.059   3.977
 1074SOL    HW2 3253   0.527   2.213   4.021
 1075SOL     OW 3254   1.111   3.057   4.824
 1075SOL    HW1 3255   1.071   3.101   4.905
 1075SOL    HW2 3256   1.070   3.094   4.741
 1076SOL     OW 3257   1.638   2.961   4.803
 1076SOL    HW1 3258   1.643   3.042   4.862
 1076SOL    HW2 3259   1.552   2.963   4.752
 1077SOL     OW 3260   0.705   2.912   4.092
 1077SOL    HW1 3261   0.691   2.919   4.191
 1077SOL    HW2 3262   0.789   2.861   4.074
 1078SOL     OW 3263   0.410   2.675   4.975
 1078SOL    HW1 3264   0.496   2.687   5.025
 1078SOL    HW2 3265   0.368   2.588   5.002
 1079SOL     OW 3266   1.274   2.248   4.986
 1079SOL    HW1 3267   1.295   2.322   5.050
 1079SOL    HW2 3268   1.185   2.265   4.943
 1080SOL     OW 3269   0.367   2.962   4.225
 1080SOL    HW1 3270   0.360   3.045   4.169
 1080SOL    HW2 3271   0.371   2.882   4.165
 1081SOL     OW 3272   0.566   2.399   4.589
 1081SOL    HW1 3273   0.578   2.465   4.515
 1081SOL    HW2 3274   0.612   2.433   4.672
 1082SOL     OW 3275   1.252   3.210   4.112
 1082SOL    HW1 3276   1.302   3.287   4.152
 1082SOL    HW2 3277   1.157   3.212   4.144
 1083SOL     OW 3278   1.272   3.307   4.866
 1083SOL    HW1 3279   1.319   3.320   4.953
 1083SOL    HW2 3280   1.206   3.233   4.875
 1084SOL     OW 3281   1.582   2.501   4.196
 1084SOL    HW1 3282   1.551   2.562   4.269
 1084SOL    HW2 3283   1.632   2.553   4.127
 1085SOL     OW 3284   0.354   3.372   5.053
 1085SOL    HW1 3285   0.333   3.328   4.966
 1085SOL    HW2 3286   0.451   3.398   5.056
 1086SOL     OW 3287   0.573   2.732   4.753
 1086SOL    HW1 3288   0.617   2.821   4.744
 1086SOL    HW2 3289   0.510   2.732   4.830
 1087SOL     OW 3290   1.360   2.724   4.769
 1087SOL    HW1 3291   1.285   2.724   4.703
 1087SOL    HW2 3292   1.397   2.632   4.778
 1088SOL     OW 3293   1.209   2.387   3.999
 1088SOL    HW1 3294   1.222   2.303   4.053
 1088SOL    HW2 3295   1.180   2.461   4.059
 1089SOL     OW 3296   0.307   2.075   4.955
 1089SOL    HW1 3297   0.284   2.112   5.045
 1089SOL    HW2 3298   0.277   1.980   4.949
 1090SOL     OW 3299   0.037   3.172   5.006
 1090SOL    HW1 3300   0.090   3.123   5.074
 1090SOL    HW2 3301   0.059   3.270   5.011
 1091SOL     OW 3302   0.732   2.496   4.788
 1091SOL    HW1 3303   0.791   2.470   4.712
 1091SOL    HW2 3304   0.704   2.592   4.777
 1092SOL     OW 3305   0.307   1.925   4.342
 1092SOL    HW1 3306   0.296   2.019   4.375
 1092SOL    HW2 3307   0.302   1.862   4.419
 1093SOL     OW 3308   1.622   2.229   4.098
 1093SOL    HW1 3309   1.624   2.153   4.162
 1093SOL    HW2 3310   1.574   2.306   4.138
 1094SOL     OW 3311   1.023   2.628   4.690
 1094SOL    HW1 3312   1.038   2.649   4.786
 1094SOL    HW2 3313   0.993   2.533   4.681
 1095SOL     OW 3314   1.540   2.136   3.849
 1095SOL    HW1 3315   1.479   2.061   3.872
 1095SOL    HW2 3316   1.562   2.188   3.932
 1096SOL     OW 3317   1.303   2.700   3.766
 1096SOL    HW1 3318   1.337   2.607   3.781
 1096SOL    HW2 3319   1.321   2.727   3.671
 1097SOL     OW 3320   1.068   3.195   4.573
 1097SOL    HW1 3321   1.075   3.111   4.518
 1097SOL    HW2 3322   1.130   3.264   4.537
 1098SOL     OW 3323   0.319   2.672   4.673
 1098SOL    HW1 3324   0.412   2.708   4.678
 1098SOL    HW2 3325   0.313   2.587   4.725
 1099SOL     OW 3326   0.339   2.371   4.730
 1099SOL    HW1 3327   0.287   2.288   4.713
 1099SOL    HW2 3328   0.416   2.376   4.666
 1100SOL     OW 3329   1.160   2.069   5.201
 1100SOL    HW1 3330   1.160   2.133   5.278
 1100SOL    HW2 3331   1.188   2.117   5.118
 1101SOL     OW 3332   0.008   3.188   3.924
 1101SOL    HW1 3333  -0.085   3.209   3.893
 1101SOL    HW2 3334   0.018   3.089   3.937
 1102SOL     OW 3335   0.088   3.663   4.651
 1102SOL    HW1 3336   0.046   3.577   4.624
 1102SOL    HW2 3337   0.182   3.666   4.617
 1103SOL     OW 3338   0.504   3.430   4.634
 1103SOL    HW1 3339   0.570   3.504   4.643
 1103SOL    HW2 3340   0.548   3.351   4.592
 1104SOL     OW 3341   1.002   2.658   4.962
 1104SOL    HW1 3342   1.043   2.626   5.048
 1104SOL    HW2 3343   0.906   2.631   4.959
 1105SOL     OW 3344   0.040   2.406   4.838
 1105SOL    HW1 3345   0.125   2.373   4.797
 1105SOL    HW2 3346   0.053   2.421   4.936
 1106SOL     OW 3347   0.815   2.434   4.049
 1106SOL    HW1 3348   0.822   2.345   4.003
 1106SOL    HW2 3349   0.721   2.468   4.041
 1107SOL     OW 3350   1.657   2.466   4.930
 1107SOL    HW1 3351   1.619   2.397   4.992
 1107SOL    HW2 3352   1.739   2.430   4.886
 1108SOL     OW 3353   0.671   2.326   4.993
 1108SOL    HW1 3354   0.637   2.237   4.963
 1108SOL    HW2 3355   0.697   2.380   4.913
 1109SOL     OW 3356   0.930   3.540   5.189
 1109SOL    HW1 3357   0.906   3.522   5.094
 1109SOL    HW2 3358   0.960   3.634   5.199
 1110SOL     OW 3359   0.473   2.362   3.915
 1110SOL    HW1 3360   0.534   2.442   3.919
 1110SOL    HW2 3361   0.378   2.393   3.922
 1111SOL     OW 3362   1.347   2.921   4.958
 1111SOL    HW1 3363   1.371   2.858   4.884
 1111SOL    HW2 3364   1.257   2.961   4.940
 1112SOL     OW 3365   1.302   2.717   4.033
 1112SOL    HW1 3366   1.216   2.686   4.075
 1112SOL    HW2 3367   1.298   2.703   3.934
 1113SOL     OW 3368   1.759   3.609   4.878
 1113SOL    HW1 3369   1.820   3.639   4.805
 1113SOL    HW2 3370   1.721   3.520   4.856
 1114SOL     OW 3371   1.252   3.593   4.852
 1114SOL    HW1 3372   1.336   3.598   4.798
 1114SOL    HW2 3373   1.229   3.497   4.870
 1115SOL     OW 3374   0.083   3.120   4.746
 1115SOL    HW1 3375   0.078   3.119   4.846
 1115SOL    HW2 3376   0.000   3.079   4.708
 1116SOL     OW 3377   1.726   1.997   4.247
 1116SOL    HW1 3378   1.799   1.980   4.180
 1116SOL    HW2 3379   1.695   1.910   4.285
 1117SOL     OW 3380   1.388   3.435   4.201
 1117SOL    HW1 3381   1.455   3.447   4.127
 1117SOL    HW2 3382   1.348   3.524   4.224
 1118SOL     OW 3383   1.280   2.789   4.396
 1118SOL    HW1 3384   1.340   2.708   4.398
 1118SOL    HW2 3385   1.320   2.858   4.336
 1119SOL     OW 3386   0.672   3.478   3.878
 1119SOL    HW1 3387   0.681   3.488   3.779
 1119SOL    HW2 3388   0.632   3.389   3.899
 1120SOL     OW 3389   1.650   3.582   5.118
 1120SOL    HW1 3390   1.703   3.592   5.034
 1120SOL    HW2 3391   1.623   3.672   5.152
 1121SOL     OW 3392   1.841   2.037   4.687
 1121SOL    HW1 3393   1.880   1.952   4.651
 1121SOL    HW2 3394   1.743   2.039   4.668
 1122SOL     OW 3395   0.263   2.188   4.444
 1122SOL    HW1 3396   0.184   2.239   4.410
 1122SOL    HW2 3397   0.254   2.173   4.542
 1123SOL     OW 3398   1.194   3.474   3.755
 1123SOL    HW1 3399   1.200   3.381   3.792
 1123SOL    HW2 3400   1.135   3.474   3.675
 1124SOL     OW 3401   0.822   2.864   5.096
 1124SOL    HW1 3402   0.862   2.863   5.004
 1124SOL    HW2 3403   0.832   2.956   5.136
 1125SOL     OW 3404   0.916   2.772   4.015
 1125SOL    HW1 3405   0.979   2.810   3.947
 1125SOL    HW2 3406   0.956   2.689   4.054
 1126SOL     OW 3407   1.504   3.469   3.768
 1126SOL    HW1 3408   1.412   3.506   3.775
 1126SOL    HW2 3409   1.542   3.489   3.678
 1127SOL     OW 3410   1.039   2.960   4.420
 1127SOL    HW1 3411   0.969   2.913   4.474
 1127SOL    HW2 3412   1.098   2.892   4.377
 1128SOL     OW 3413   1.014   2.098   4.695
 1128SOL    HW1 3414   1.006   2.062   4.602
 1128SOL    HW2 3415   1.012   2.022   4.760
 1129SOL     OW 3416   0.590   3.349   4.215
 1129SOL    HW1 3417   0.632   3.291   4.145
 1129SOL    HW2 3418   0.546   3.428   4.171
 1130SOL     OW 3419   1.709   2.247   5.105
 1130SOL    HW1 3420   1.782   2.316   5.109
 1130SOL    HW2 3421   1.737   2.172   5.046
 1131SOL     OW 3422   0.255   3.210   4.014
 1131SOL    HW1 3423   0.159   3.211   3.987
 1131SOL    HW2 3424   0.267   3.263   4.098
 1132SOL     OW 3425   0.075   2.207   3.757
 1132SOL    HW1 3426  -0.017   2.179   3.728
 1132SOL    HW2 3427   0.106   2.284   3.701
 1133SOL     OW 3428   0.072   2.028   4.042
 1133SOL    HW1 3429   0.055   2.111   3.988
 1133SOL    HW2 3430   0.162   1.991   4.020
 1134SOL     OW 3431   1.183   3.197   3.843
 1134SOL    HW1 3432   1.084   3.186   3.845
 1134SOL    HW2 3433   1.217   3.212   3.936
 1135SOL     OW 3434   1.493   3.629   4.683
 1135SOL    HW1 3435   1.526   3.693   4.614
 1135SOL    HW2 3436   1.559   3.623   4.758
 1136SOL     OW 3437   1.674   2.745   4.978
 1136SOL    HW1 3438   1.647   2.656   4.941
 1136SOL    HW2 3439   1.675   2.813   4.905
 1137SOL     OW 3440   1.225   2.187   4.173
 1137SOL    HW1 3441   1.290   2.113   4.162
 1137SOL    HW2 3442   1.245   2.237   4.257
 1138SOL     OW 3443   0.594   2.607   4.376
 1138SOL    HW1 3444   0.644   2.692   4.357
 1138SOL    HW2 3445   0.506   2.609   4.328
 1139SOL     OW 3446   1.730   2.796   5.241
 1139SOL    HW1 3447   1.768   2.887   5.256
 1139SOL    HW2 3448   1.722   2.779   5.142
 1140SOL     OW 3449   0.859   3.236   3.740
 1140SOL    HW1 3450   0.813   3.251   3.828
 1140SOL    HW2 3451   0.903   3.321   3.710
 1141SOL     OW 3452   0.661   3.652   4.677
 1141SOL    HW1 3453   0.615   3.740   4.664
 1141SOL    HW2 3454   0.760   3.664   4.670
 1142SOL     OW 3455   0.859   2.818   4.585
 1142SOL    HW1 3456   0.913   2.749   4.633
 1142SOL    HW2 3457   0.827   2.887   4.651
 1143SOL     OW 3458   1.083   2.846   3.811
 1143SOL    HW1 3459   1.060   2.899   3.729
 1143SOL    HW2 3460   1.164   2.790   3.792
 1144SOL     OW 3461   1.861   3.431   4.575
 1144SOL    HW1 3462   1.790   3.419   4.505
 1144SOL    HW2 3463   1.862   3.352   4.635
 1145SOL     OW 3464   0.079   3.102   4.377
 1145SOL    HW1 3465   0.078   3.055   4.465
 1145SOL    HW2 3466   0.161   3.074   4.326
 1146SOL     OW 3467   1.824   2.054   4.951
 1146SOL    HW1 3468   1.820   1.964   4.995
 1146SOL    HW2 3469   1.827   2.043   4.852
 1147SOL     OW 3470   0.428   2.286   4.244
 1147SOL    HW1 3471   0.458   2.214   4.182
 1147SOL    HW2 3472   0.389   2.246   4.327
 1148SOL     OW 3473   1.705   3.349   4.828
 1148SOL    HW1 3474   1.612   3.324   4.801
 1148SOL    HW2 3475   1.731   3.299   4.910
 1149SOL     OW 3476   0.812   3.448   4.411
 1149SOL    HW1 3477   0.844   3.458   4.317
 1149SOL    HW2 3478   0.733   3.386   4.413
 1150SOL     OW 3479   1.424   2.076   4.836
 1150SOL    HW1 3480   1.476   2.011   4.891
 1150SOL    HW2 3481   1.375   2.139   4.897
 1151SOL     OW 3482   1.001   1.896   4.878
 1151SOL    HW1 3483   0.938   1.824   4.847
 1151SOL    HW2 3484   1.094   1.860   4.878
 1152SOL     OW 3485   0.770   3.192   4.025
 1152SOL    HW1 3486   0.724   3.105   4.042
 1152SOL    HW2 3487   0.861   3.189   4.066
 1153SOL     OW 3488   1.352   1.914   3.892
 1153SOL    HW1 3489   1.387   1.873   3.808
 1153SOL    HW2 3490   1.262   1.876   3.912
 1154SOL     OW 3491   1.300   2.315   4.415
 1154SOL    HW1 3492   1.241   2.395   4.419
 1154SOL    HW2 3493   1.315   2.280   4.508
 1155SOL     OW 3494   1.593   2.083   4.606
 1155SOL    HW1 3495   1.509   2.082   4.660
 1155SOL    HW2 3496   1.595   2.166   4.550
 1156SOL     OW 3497   0.039   2.939   4.024
 1156SOL    HW1 3498   0.138   2.928   4.015
 1156SOL    HW2 3499  -0.001   2.853   4.056
 1157SOL     OW 3500   0.875   3.508   4.061
 1157SOL    HW1 3501   0.798   3.473   4.007
 1157SOL    HW2 3502   0.843   3.579   4.123
 1158SOL     OW 3503   0.230   4.352   0.113
 1158SOL    HW1 3504   0.137   4.350   0.150
 1158SOL    HW2 3505   0.231   4.313   0.021
 1159SOL     OW 3506   0.225   3.999   0.996
 1159SOL    HW1 3507   0.260   3.982   1.088
 1159SOL    HW2 3508   0.137   3.954   0.984
 1160SOL     OW 3509   0.019   4.092   0.647
 1160SOL    HW1 3510  -0.063   4.135   0.686
 1160SOL    HW2 3511  -0.009   4.019   0.584
 1161SOL     OW 3512   1.135   4.427   0.717
 1161SOL    HW1 3513   1.192   4.505   0.692
 1161SOL    HW2 3514   1.075   4.453   0.793
 1162SOL     OW 3515   1.755   4.331   0.231
 1162SOL    HW1 3516   1.743   4.318   0.132
 1162SOL    HW2 3517   1.725   4.250   0.280
 1163SOL     OW 3518   0.768   4.868   1.023
 1163SOL    HW1 3519   0.690   4.885   1.083
 1163SOL    HW2 3520   0.802   4.955   0.987
 1164SOL     OW 3521   0.850   4.522   1.823
 1164SOL    HW1 3522   0.846   4.598   1.888
 1164SOL    HW2 3523   0.872   4.558   1.732
 1165SOL     OW 3524   0.685   4.736   0.665
 1165SOL    HW1 3525   0.754   4.720   0.735
 1165SOL    HW2 3526   0.612   4.793   0.703
 1166SOL     OW 3527   0.686   4.885   1.803
 1166SOL    HW1 3528   0.746   4.964   1.817
 1166SOL    HW2 3529   0.600   4.916   1.762
 1167SOL     OW 3530   0.335   5.159   1.061
 1167SOL    HW1 3531   0.257   5.128   1.008
 1167SOL    HW2 3532   0.393   5.217   1.004
 1168SOL     OW 3533   0.438   4.116   1.499
 1168SOL    HW1 3534   0.520   4.060   1.508
 1168SOL    HW2 3535   0.357   4.058   1.503
 1169SOL     OW 3536   1.603   4.171   0.737
 1169SOL    HW1 3537   1.529   4.217   0.687
 1169SOL    HW2 3538   1.654   4.239   0.790
 1170SOL     OW 3539   0.240   4.815   0.886
 1170SOL    HW1 3540   0.254   4.731   0.938
 1170SOL    HW2 3541   0.185   4.879   0.941
 1171SOL     OW 3542   0.606   4.688   0.123
 1171SOL    HW1 3543   0.613   4.772   0.069
 1171SOL    HW2 3544   0.652   4.701   0.211
 1172SOL     OW 3545   1.594   3.838   1.480
 1172SOL    HW1 3546   1.576   3.905   1.408
 1172SOL    HW2 3547   1.591   3.884   1.569
 1173SOL     OW 3548   0.122   4.367   0.563
 1173SOL    HW1 3549   0.077   4.279   0.580
 1173SOL    HW2 3550   0.121   4.421   0.647
 1174SOL     OW 3551   1.689   4.646   0.612
 1174SOL    HW1 3552   1.784   4.617   0.620
 1174SOL    HW2 3553   1.681   4.711   0.537
 1175SOL     OW 3554   1.641   4.832   0.432
 1175SOL    HW1 3555   1.727   4.834   0.380
 1175SOL    HW2 3556   1.655   4.879   0.520
 1176SOL     OW 3557   0.113   4.461   1.597
 1176SOL    HW1 3558   0.201   4.448   1.642
 1176SOL    HW2 3559   0.100   4.558   1.575
 1177SOL     OW 3560   1.293   4.952   1.423
 1177SOL    HW1 3561   1.330   4.879   1.365
 1177SOL    HW2 3562   1.345   4.957   1.508
 1178SOL     OW 3563   0.809   3.728   0.502
 1178SOL    HW1 3564   0.849   3.819   0.493
 1178SOL    HW2 3565   0.709   3.736   0.508
 1179SOL     OW 3566   0.197   4.700   1.264
 1179SOL    HW1 3567   0.286   4.655   1.250
 1179SOL    HW2 3568   0.124   4.635   1.245
 1180SOL     OW 3569   1.525   4.723   0.190
 1180SOL    HW1 3570   1.462   4.647   0.203
 1180SOL    HW2 3571   1.573   4.741   0.276
 1181SOL     OW 3572   0.317   3.975   1.801
 1181SOL    HW1 3573   0.388   4.046   1.807
 1181SOL    HW2 3574   0.229   4.014   1.829
 1182SOL     OW 3575   0.598   4.453   0.270
 1182SOL    HW1 3576   0.622   4.522   0.202
 1182SOL    HW2 3577   0.520   4.486   0.324
 1183SOL     OW 3578   1.281   4.069   0.944
 1183SOL    HW1 3579   1.195   4.019   0.931
 1183SOL    HW2 3580   1.343   4.015   1.000
 1184SOL     OW 3581   0.807   4.329   1.465
 1184SOL    HW1 3582   0.760   4.326   1.554
 1184SOL    HW2 3583   0.756   4.274   1.399
 1185SOL     OW 3584   1.394   4.193   1.674
 1185SOL    HW1 3585   1.374   4.236   1.762
 1185SOL    HW2 3586   1.472   4.131   1.683
 1186SOL     OW 3587   0.973   4.614   1.572
 1186SOL    HW1 3588   1.019   4.530   1.543
 1186SOL    HW2 3589   0.917   4.648   1.497
 1187SOL     OW 3590   0.991   4.134   1.242
 1187SOL    HW1 3591   0.914   4.168   1.296
 1187SOL    HW2 3592   0.957   4.083   1.163
 1188SOL     OW 3593   1.041   4.425   0.429
 1188SOL    HW1 3594   1.067   4.421   0.525
 1188SOL    HW2 3595   0.956   4.374   0.415
 1189SOL     OW 3596   0.076   4.535   0.789
 1189SOL    HW1 3597   0.175   4.523   0.798
 1189SOL    HW2 3598   0.052   4.630   0.810
 1190SOL     OW 3599   0.865   4.072   0.195
 1190SOL    HW1 3600   0.924   4.135   0.146
 1190SOL    HW2 3601   0.884   3.978   0.166
 1191SOL     OW 3602   1.719   4.309   1.831
 1191SOL    HW1 3603   1.693   4.398   1.795
 1191SOL    HW2 3604   1.717   4.241   1.758
 1192SOL     OW 3605   1.362   4.868   0.545
 1192SOL    HW1 3606   1.445   4.839   0.497
 1192SOL    HW2 3607   1.313   4.935   0.489
 1193SOL     OW 3608   0.550   3.920   0.885
 1193SOL    HW1 3609   0.545   3.915   0.985
 1193SOL    HW2 3610   0.552   4.016   0.856
 1194SOL     OW 3611   1.795   4.790   0.873
 1194SOL    HW1 3612   1.733   4.775   0.797
 1194SOL    HW2 3613   1.743   4.801   0.958
 1195SOL     OW 3614   0.321   4.667   0.242
 1195SOL    HW1 3615   0.403   4.706   0.200
 1195SOL    HW2 3616   0.294   4.585   0.193
 1196SOL     OW 3617   1.458   4.459   0.728
 1196SOL    HW1 3618   1.453   4.394   0.803
 1196SOL    HW2 3619   1.538   4.518   0.741
 1197SOL     OW 3620   0.202   4.009   1.498
 1197SOL    HW1 3621   0.122   4.069   1.485
 1197SOL    HW2 3622   0.192   3.960   1.584
 1198SOL     OW 3623   1.400   3.831   0.426
 1198SOL    HW1 3624   1.376   3.794   0.336
 1198SOL    HW2 3625   1.499   3.847   0.430
 1199SOL     OW 3626   0.382   4.424   0.480
 1199SOL    HW1 3627   0.427   4.334   0.477
 1199SOL    HW2 3628   0.288   4.413   0.513
 1200SOL     OW 3629   1.547   3.946   1.729
 1200SOL    HW1 3630   1.542   3.983   1.821
 1200SOL    HW2 3631   1.475   3.877   1.717
 1201SOL     OW 3632   0.614   3.846   0.117
 1201SOL    HW1 3633   0.712   3.824   0.124
 1201SOL    HW2 3634   0.583   3.829   0.024
 1202SOL     OW 3635   0.781   3.988   1.749
 1202SOL    HW1 3636   0.848   3.927   1.792
 1202SOL    HW2 3637   0.708   4.007   1.814
 1203SOL     OW 3638   1.351   4.314   1.433
 1203SOL    HW1 3639   1.379   4.271   1.518
 1203SOL    HW2 3640   1.376   4.410   1.434
 1204SOL     OW 3641   0.803   5.126   0.924
 1204SOL    HW1 3642   0.893   5.140   0.882
 1204SOL    HW2 3643   0.732   5.128   0.853
 1205SOL     OW 3644   0.922   4.227   0.899
 1205SOL    HW1 3645   0.897   4.218   0.803
 1205SOL    HW2 3646   0.970   4.145   0.930
 1206SOL     OW 3647   0.539   3.788   0.512
 1206SOL    HW1 3648   0.458   3.789   0.570
 1206SOL    HW2 3649   0.542   3.871   0.457
 1207SOL     OW 3650   0.297   3.759   0.171
 1207SOL    HW1 3651   0.346   3.843   0.150
 1207SOL    HW2 3652   0.359   3.694   0.216
 1208SOL     OW 3653   0.935   3.960   0.480
 1208SOL    HW1 3654   0.887   4.001   0.402
 1208SOL    HW2 3655   1.034   3.958   0.461
 1209SOL     OW 3656   1.076   4.407   1.464
 1209SOL    HW1 3657   0.996   4.346   1.467
 1209SOL    HW2 3658   1.157   4.354   1.440
 1210SOL     OW 3659   0.459   4.876   0.741
 1210SOL    HW1 3660   0.388   4.849   0.806
 1210SOL    HW2 3661   0.433   4.848   0.648
 1211SOL     OW 3662   1.032   4.273   0.016
 1211SOL    HW1 3663   0.991   4.355  -0.023
 1211SOL    HW2 3664   1.096   4.299   0.089
 1212SOL     OW 3665   0.078   4.280   1.386
 1212SOL    HW1 3666   0.170   4.279   1.345
 1212SOL    HW2 3667   0.072   4.354   1.453
 1213SOL     OW 3668   0.561   3.946   1.147
 1213SOL    HW1 3669   0.599   3.862   1.184
 1213SOL    HW2 3670   0.473   3.965   1.191
 1214SOL     OW 3671   0.866   4.178   0.642
 1214SOL    HW1 3672   0.834   4.250   0.580
 1214SOL    HW2 3673   0.890   4.097   0.589
 1215SOL     OW 3674   1.017   3.763   0.753
 1215SOL    HW1 3675   0.945   3.768   0.684
 1215SOL    HW2 3676   0.993   3.694   0.822
 1216SOL     OW 3677   1.429   4.897   0.867
 1216SOL    HW1 3678   1.374   4.813   0.860
 1216SOL    HW2 3679   1.455   4.926   0.775
 1217SOL     OW 3680   1.466   4.314   0.992
 1217SOL    HW1 3681   1.436   4.219   0.999
 1217SOL    HW2 3682   1.539   4.330   1.058
 1218SOL     OW 3683   1.857   4.557   0.377
 1218SOL    HW1 3684   1.899   4.493   0.441
 1218SOL    HW2 3685   1.819   4.506   0.299
 1219SOL     OW 3686   1.390   4.299   0.078
 1219SOL    HW1 3687   1.336   4.278   0.159
 1219SOL    HW2 3688   1.481   4.258   0.087
 1220SOL     OW 3689   0.527   3.980   0.328
 1220SOL    HW1 3690   0.554   3.921   0.253
 1220SOL    HW2 3691   0.527   4.075   0.297
 1221SOL     OW 3692   1.754   4.947   1.588
 1221SOL    HW1 3693   1.845   4.908   1.575
 1221SOL    HW2 3694   1.762   5.043   1.612
 1222SOL     OW 3695   1.638   4.823   1.079
 1222SOL    HW1 3696   1.643   4.904   1.138
 1222SOL    HW2 3697   1.552   4.825   1.028
 1223SOL     OW 3698   0.915   3.813   1.402
 1223SOL    HW1 3699   0.940   3.793   1.307
 1223SOL    HW2 3700   0.987   3.869   1.444
 1224SOL     OW 3701   0.980   4.840   1.719
 1224SOL    HW1 3702   0.881   4.846   1.729
 1224SOL    HW2 3703   1.003   4.760   1.663
 1225SOL     OW 3704   0.705   4.774   0.368
 1225SOL    HW1 3705   0.691   4.781   0.467
 1225SOL    HW2 3706   0.789   4.723   0.350
 1226SOL     OW 3707   0.410   4.537   1.251
 1226SOL    HW1 3708   0.496   4.549   1.301
 1226SOL    HW2 3709   0.368   4.450   1.278
 1227SOL     OW 3710   1.274   4.110   1.262
 1227SOL    HW1 3711   1.295   4.184   1.326
 1227SOL    HW2 3712   1.185   4.127   1.219
 1228SOL     OW 3713   0.367   4.824   0.501
 1228SOL    HW1 3714   0.360   4.907   0.445
 1228SOL    HW2 3715   0.371   4.744   0.441
 1229SOL     OW 3716   0.566   4.261   0.865
 1229SOL    HW1 3717   0.578   4.327   0.791
 1229SOL    HW2 3718   0.612   4.295   0.948
 1230SOL     OW 3719   1.582   4.363   0.472
 1230SOL    HW1 3720   1.551   4.424   0.545
 1230SOL    HW2 3721   1.632   4.415   0.403
 1231SOL     OW 3722   0.402   4.475   1.598
 1231SOL    HW1 3723   0.470   4.530   1.551
 1231SOL    HW2 3724   0.442   4.387   1.625
 1232SOL     OW 3725   1.587   4.503   1.670
 1232SOL    HW1 3726   1.495   4.541   1.665
 1232SOL    HW2 3727   1.647   4.550   1.605
 1233SOL     OW 3728   1.013   3.829   1.770
 1233SOL    HW1 3729   1.019   3.914   1.718
 1233SOL    HW2 3730   1.045   3.753   1.713
 1234SOL     OW 3731   0.504   3.774   1.740
 1234SOL    HW1 3732   0.462   3.717   1.670
 1234SOL    HW2 3733   0.438   3.843   1.772
 1235SOL     OW 3734   0.573   4.594   1.029
 1235SOL    HW1 3735   0.617   4.683   1.020
 1235SOL    HW2 3736   0.510   4.594   1.106
 1236SOL     OW 3737   1.360   4.586   1.045
 1236SOL    HW1 3738   1.285   4.586   0.979
 1236SOL    HW2 3739   1.397   4.494   1.054
 1237SOL     OW 3740   1.209   4.249   0.275
 1237SOL    HW1 3741   1.222   4.165   0.329
 1237SOL    HW2 3742   1.180   4.323   0.335
 1238SOL     OW 3743   0.307   3.937   1.231
 1238SOL    HW1 3744   0.284   3.974   1.321
 1238SOL    HW2 3745   0.277   3.842   1.225
 1239SOL     OW 3746   0.037   5.034   1.282
 1239SOL    HW1 3747   0.090   4.985   1.350
 1239SOL    HW2 3748   0.059   5.132   1.287
 1240SOL     OW 3749   0.732   4.358   1.064
 1240SOL    HW1 3750   0.791   4.332   0.988
 1240SOL    HW2 3751   0.704   4.454   1.053
 1241SOL     OW 3752   1.728   4.659   1.854
 1241SOL    HW1 3753   1.682   4.652   1.765
 1241SOL    HW2 3754   1.666   4.703   1.920
 1242SOL     OW 3755   0.307   3.787   0.618
 1242SOL    HW1 3756   0.296   3.881   0.651
 1242SOL    HW2 3757   0.302   3.724   0.695
 1243SOL     OW 3758   1.622   4.091   0.374
 1243SOL    HW1 3759   1.624   4.015   0.438
 1243SOL    HW2 3760   1.574   4.168   0.414
 1244SOL     OW 3761   1.023   4.490   0.966
 1244SOL    HW1 3762   1.038   4.511   1.062
 1244SOL    HW2 3763   0.993   4.395   0.957
 1245SOL     OW 3764   0.350   4.622   1.804
 1245SOL    HW1 3765   0.426   4.666   1.852
 1245SOL    HW2 3766   0.385   4.575   1.722
 1246SOL     OW 3767   1.540   3.998   0.125
 1246SOL    HW1 3768   1.479   3.923   0.148
 1246SOL    HW2 3769   1.562   4.050   0.208
 1247SOL     OW 3770   1.303   4.562   0.042
 1247SOL    HW1 3771   1.337   4.469   0.057
 1247SOL    HW2 3772   1.321   4.589  -0.053
 1248SOL     OW 3773   0.319   4.534   0.949
 1248SOL    HW1 3774   0.412   4.570   0.954
 1248SOL    HW2 3775   0.313   4.449   1.001
 1249SOL     OW 3776   0.339   4.233   1.006
 1249SOL    HW1 3777   0.287   4.150   0.989
 1249SOL    HW2 3778   0.416   4.238   0.942
 1250SOL     OW 3779   1.138   4.104   1.678
 1250SOL    HW1 3780   1.093   4.167   1.742
 1250SOL    HW2 3781   1.231   4.135   1.661
 1251SOL     OW 3782   1.160   3.931   1.477
 1251SOL    HW1 3783   1.160   3.995   1.554
 1251SOL    HW2 3784   1.188   3.979   1.394
 1252SOL     OW 3785   0.008   5.050   0.200
 1252SOL    HW1 3786  -0.085   5.071   0.169
 1252SOL    HW2 3787   0.018   4.951   0.213
 1253SOL     OW 3788   1.002   4.520   1.238
 1253SOL    HW1 3789   1.043   4.488   1.324
 1253SOL    HW2 3790   0.906   4.493   1.235
 1254SOL     OW 3791   0.040   4.268   1.114
 1254SOL    HW1 3792   0.125   4.235   1.073
 1254SOL    HW2 3793   0.053   4.283   1.212
 1255SOL     OW 3794   0.189   4.244   1.722
 1255SOL    HW1 3795   0.248   4.204   1.652
 1255SOL    HW2 3796   0.131   4.315   1.681
 1256SOL     OW 3797   1.369   4.674   1.660
 1256SOL    HW1 3798   1.408   4.763   1.680
 1256SOL    HW2 3799   1.379   4.654   1.563
 1257SOL     OW 3800   0.815   4.296   0.325
 1257SOL    HW1 3801   0.822   4.207   0.279
 1257SOL    HW2 3802   0.721   4.330   0.317
 1258SOL     OW 3803   1.657   4.328   1.206
 1258SOL    HW1 3804   1.619   4.259   1.268
 1258SOL    HW2 3805   1.739   4.292   1.162
 1259SOL     OW 3806   0.671   4.188   1.269
 1259SOL    HW1 3807   0.637   4.099   1.239
 1259SOL    HW2 3808   0.697   4.242   1.189
 1260SOL     OW 3809   0.473   4.224   0.191
 1260SOL    HW1 3810   0.534   4.304   0.195
 1260SOL    HW2 3811   0.378   4.255   0.198
 1261SOL     OW 3812   0.159   4.861   1.466
 1261SOL    HW1 3813   0.181   4.800   1.542
 1261SOL    HW2 3814   0.169   4.812   1.380
 1262SOL     OW 3815   1.347   4.783   1.234
 1262SOL    HW1 3816   1.371   4.720   1.160
 1262SOL    HW2 3817   1.257   4.823   1.216
 1263SOL     OW 3818   1.302   4.579   0.309
 1263SOL    HW1 3819   1.216   4.548   0.351
 1263SOL    HW2 3820   1.298   4.565   0.210
 1264SOL     OW 3821   0.083   4.982   1.022
 1264SOL    HW1 3822   0.078   4.981   1.122
 1264SOL    HW2 3823   0.000   4.941   0.984
 1265SOL     OW 3824   0.903   3.810   0.133
 1265SOL    HW1 3825   0.954   3.811   0.047
 1265SOL    HW2 3826   0.959   3.768   0.204
 1266SOL     OW 3827   1.726   3.859   0.523
 1266SOL    HW1 3828   1.799   3.842   0.456
 1266SOL    HW2 3829   1.695   3.772   0.561
 1267SOL     OW 3830   1.280   4.651   0.672
 1267SOL    HW1 3831   1.340   4.570   0.674
 1267SOL    HW2 3832   1.320   4.720   0.612
 1268SOL     OW 3833   1.841   3.899   0.963
 1268SOL    HW1 3834   1.880   3.814   0.927
 1268SOL    HW2 3835   1.743   3.901   0.944
 1269SOL     OW 3836   0.263   4.050   0.720
 1269SOL    HW1 3837   0.184   4.101   0.686
 1269SOL    HW2 3838   0.254   4.035   0.818
 1270SOL     OW 3839   0.822   4.726   1.372
 1270SOL    HW1 3840   0.862   4.725   1.280
 1270SOL    HW2 3841   0.832   4.818   1.412
 1271SOL     OW 3842   0.916   4.634   0.291
 1271SOL    HW1 3843   0.979   4.672   0.223
 1271SOL    HW2 3844   0.956   4.551   0.330
 1272SOL     OW 3845   0.372   5.012   1.490
 1272SOL    HW1 3846   0.359   5.105   1.456
 1272SOL    HW2 3847   0.288   4.960   1.477
 1273SOL     OW 3848   1.614   5.016   1.289
 1273SOL    HW1 3849   1.674   5.019   1.369
 1273SOL    HW2 3850   1.539   5.080   1.302
 1274SOL     OW 3851   1.039   4.822   0.696
 1274SOL    HW1 3852   0.969   4.775   0.750
 1274SOL    HW2 3853   1.098   4.754   0.653
 1275SOL     OW 3854   1.014   3.960   0.971
 1275SOL    HW1 3855   1.006   3.924   0.878
 1275SOL    HW2 3856   1.012   3.884   1.036
 1276SOL     OW 3857   1.709   4.109   1.381
 1276SOL    HW1 3858   1.782   4.178   1.385
 1276SOL    HW2 3859   1.737   4.034   1.322
 1277SOL     OW 3860   0.105   4.737   1.726
 1277SOL    HW1 3861   0.028   4.704   1.780
 1277SOL    HW2 3862   0.190   4.707   1.768
 1278SOL     OW 3863   0.672   3.927   1.489
 1278SOL    HW1 3864   0.762   3.911   1.449
 1278SOL    HW2 3865   0.680   3.932   1.588
 1279SOL     OW 3866   0.075   4.069   0.033
 1279SOL    HW1 3867  -0.017   4.041   0.004
 1279SOL    HW2 3868   0.106   4.146  -0.023
 1280SOL     OW 3869   1.440   4.580   1.398
 1280SOL    HW1 3870   1.383   4.632   1.335
 1280SOL    HW2 3871   1.536   4.592   1.374
 1281SOL     OW 3872   0.072   3.890   0.318
 1281SOL    HW1 3873   0.055   3.973   0.264
 1281SOL    HW2 3874   0.162   3.853   0.296
 1282SOL     OW 3875   0.613   4.566   1.431
 1282SOL    HW1 3876   0.669   4.647   1.414
 1282SOL    HW2 3877   0.672   4.486   1.434
 1283SOL     OW 3878   0.716   4.289   1.708
 1283SOL    HW1 3879   0.735   4.354   1.782
 1283SOL    HW2 3880   0.776   4.209   1.717
 1284SOL     OW 3881   1.450   4.944   1.633
 1284SOL    HW1 3882   1.441   4.934   1.732
 1284SOL    HW2 3883   1.546   4.937   1.607
 1285SOL     OW 3884   1.674   4.607   1.254
 1285SOL    HW1 3885   1.647   4.518   1.217
 1285SOL    HW2 3886   1.675   4.675   1.181
 1286SOL     OW 3887   1.225   4.049   0.449
 1286SOL    HW1 3888   1.290   3.975   0.438
 1286SOL    HW2 3889   1.245   4.099   0.533
 1287SOL     OW 3890   0.594   4.469   0.652
 1287SOL    HW1 3891   0.644   4.554   0.633
 1287SOL    HW2 3892   0.506   4.471   0.604
 1288SOL     OW 3893   1.777   4.066   1.642
 1288SOL    HW1 3894   1.760   4.097   1.548
 1288SOL    HW2 3895   1.693   4.029   1.680
 1289SOL     OW 3896   1.730   4.658   1.517
 1289SOL    HW1 3897   1.768   4.749   1.532
 1289SOL    HW2 3898   1.722   4.641   1.418
 1290SOL     OW 3899   0.859   4.680   0.861
 1290SOL    HW1 3900   0.913   4.611   0.909
 1290SOL    HW2 3901   0.827   4.749   0.927
 1291SOL     OW 3902   1.083   4.708   0.087
 1291SOL    HW1 3903   1.060   4.761   0.005
 1291SOL    HW2 3904   1.164   4.652   0.068
 1292SOL     OW 3905   0.079   4.964   0.653
 1292SOL    HW1 3906   0.078   4.917   0.741
 1292SOL    HW2 3907   0.161   4.936   0.602
 1293SOL     OW 3908   1.824   3.916   1.227
 1293SOL    HW1 3909   1.820   3.826   1.271
 1293SOL    HW2 3910   1.827   3.905   1.128
 1294SOL     OW 3911   0.428   4.148   0.520
 1294SOL    HW1 3912   0.458   4.076   0.458
 1294SOL    HW2 3913   0.389   4.108   0.603
 1295SOL     OW 3914   0.317   4.271   1.280
 1295SOL    HW1 3915   0.355   4.212   1.352
 1295SOL    HW2 3916   0.357   4.245   1.192
 1296SOL     OW 3917   1.424   3.938   1.112
 1296SOL    HW1 3918   1.476   3.873   1.167
 1296SOL    HW2 3919   1.375   4.001   1.173
 1297SOL     OW 3920   1.001   3.758   1.154
 1297SOL    HW1 3921   0.938   3.686   1.123
 1297SOL    HW2 3922   1.094   3.722   1.154
 1298SOL     OW 3923   0.770   5.054   0.301
 1298SOL    HW1 3924   0.724   4.967   0.318
 1298SOL    HW2 3925   0.861   5.051   0.342
 1299SOL     OW 3926   1.352   3.776   0.168
 1299SOL    HW1 3927   1.387   3.735   0.084
 1299SOL    HW2 3928   1.262   3.738   0.188
 1300SOL     OW 3929   1.300   4.177   0.691
 1300SOL    HW1 3930   1.241   4.257   0.695
 1300SOL    HW2 3931   1.315   4.142   0.784
 1301SOL     OW 3932   1.593   3.945   0.882
 1301SOL    HW1 3933   1.509   3.944   0.936
 1301SOL    HW2 3934   1.595   4.028   0.826
 1302SOL     OW 3935   0.039   4.801   0.300
 1302SOL    HW1 3936   0.138   4.790   0.291
 1302SOL    HW2 3937  -0.001   4.715   0.332
 1303SOL     OW 3938   0.230   4.352   1.975
 1303SOL    HW1 3939   0.137   4.350   2.012
 1303SOL    HW2 3940   0.231   4.313   1.883
 1304SOL     OW 3941   0.225   3.999   2.858
 1304SOL    HW1 3942   0.260   3.982   2.950
 1304SOL    HW2 3943   0.137   3.954   2.846
 1305SOL     OW 3944   0.019   4.092   2.509
 1305SOL    HW1 3945  -0.063   4.135   2.548
 1305SOL    HW2 3946  -0.009   4.019   2.446
 1306SOL     OW 3947   1.135   4.427   2.579
 1306SOL    HW1 3948   1.192   4.505   2.554
 1306SOL    HW2 3949   1.075   4.453   2.655
 1307SOL     OW 3950   1.755   4.331   2.093
 1307SOL    HW1 3951   1.743   4.318   1.994
 1307SOL    HW2 3952   1.725   4.250   2.142
 1308SOL     OW 3953   0.768   4.868   2.885
 1308SOL    HW1 3954   0.690   4.885   2.945
 1308SOL    HW2 3955   0.802   4.955   2.849
 1309SOL     OW 3956   0.850   4.522   3.685
 1309SOL    HW1 3957   0.846   4.598   3.750
 1309SOL    HW2 3958   0.872   4.558   3.594
 1310SOL     OW 3959   0.685   4.736   2.527
 1310SOL    HW1 3960   0.754   4.720   2.597
 1310SOL    HW2 3961   0.612   4.793   2.565
 1311SOL     OW 3962   0.686   4.885   3.665
 1311SOL    HW1 3963   0.746   4.964   3.679
 1311SOL    HW2 3964   0.600   4.916   3.624
 1312SOL     OW 3965   0.335   5.159   2.923
 1312SOL    HW1 3966   0.257   5.128   2.870
 1312SOL    HW2 3967   0.393   5.217   2.866
 1313SOL     OW 3968   0.438   4.116   3.361
 1313SOL    HW1 3969   0.520   4.060   3.370
 1313SOL    HW2 3970   0.357   4.058   3.365
 1314SOL     OW 3971   1.603   4.171   2.599
 1314SOL    HW1 3972   1.529   4.217   2.549
 1314SOL    HW2 3973   1.654   4.239   2.652
 1315SOL     OW 3974   0.240   4.815   2.748
 1315SOL    HW1 3975   0.254   4.731   2.800
 1315SOL    HW2 3976   0.185   4.879   2.803
 1316SOL     OW 3977   0.606   4.688   1.985
 1316SOL    HW1 3978   0.613   4.772   1.931
 1316SOL    HW2 3979   0.652   4.701   2.073
 1317SOL     OW 3980   1.594   3.838   3.342
 1317SOL    HW1 3981   1.576   3.905   3.270
 1317SOL    HW2 3982   1.591   3.884   3.431
 1318SOL     OW 3983   0.122   4.367   2.425
 1318SOL    HW1 3984   0.077   4.279   2.442
 1318SOL    HW2 3985   0.121   4.421   2.509
 1319SOL     OW 3986   1.689   4.646   2.474
 1319SOL    HW1 3987   1.784   4.617   2.482
 1319SOL    HW2 3988   1.681   4.711   2.399
 1320SOL     OW 3989   1.641   4.832   2.294
 1320SOL    HW1 3990   1.727   4.834   2.242
 1320SOL    HW2 3991   1.655   4.879   2.382
 1321SOL     OW 3992   0.113   4.461   3.459
 1321SOL    HW1 3993   0.201   4.448   3.504
 1321SOL    HW2 3994   0.100   4.558   3.437
 1322SOL     OW 3995   1.293   4.952   3.285
 1322SOL    HW1 3996   1.330   4.879   3.227
 1322SOL    HW2 3997   1.345   4.957   3.370
 1323SOL     OW 3998   0.809   3.728   2.364
 1323SOL    HW1 3999   0.849   3.819   2.355
 1323SOL    HW2 4000   0.709   3.736   2.370
 1324SOL     OW 4001   0.197   4.700   3.126
 1324SOL    HW1 4002   0.286   4.655   3.112
 1324SOL    HW2 4003   0.124   4.635   3.107
 1325SOL     OW 4004   1.525   4.723   2.052
 1325SOL    HW1 4005   1.462   4.647   2.065
 1325SOL    HW2 4006   1.573   4.741   2.138
 1326SOL     OW 4007   0.317   3.975   3.663
 1326SOL    HW1 4008   0.388   4.046   3.669
 1326SOL    HW2 4009   0.229   4.014   3.691
 1327SOL     OW 4010   0.598   4.453   2.132
 1327SOL    HW1 4011   0.622   4.522   2.064
 1327SOL    HW2 4012   0.520   4.486   2.186
 1328SOL     OW 4013   1.281   4.069   2.806
 1328SOL    HW1 4014   1.195   4.019   2.793
 1328SOL    HW2 4015   1.343   4.015   2.862
 1329SOL     OW 4016   0.807   4.329   3.327
 1329SOL    HW1 4017   0.760   4.326   3.416
 1329SOL    HW2 4018   0.756   4.274   3.261
 1330SOL     OW 4019   1.394   4.193   3.536
 1330SOL    HW1 4020   1.374   4.236   3.624
 1330SOL    HW2 4021   1.472   4.131   3.545
 1331SOL     OW 4022   0.973   4.614   3.434
 1331SOL    HW1 4023   1.019   4.530   3.405
 1331SOL    HW2 4024   0.917   4.648   3.359
 1332SOL     OW 4025   0.991   4.134   3.104
 1332SOL    HW1 4026   0.914   4.168   3.158
 1332SOL    HW2 4027   0.957   4.083   3.025
 1333SOL     OW 4028   1.041   4.425   2.291
 1333SOL    HW1 4029   1.067   4.421   2.387
 1333SOL    HW2 4030   0.956   4.374   2.277
 1334SOL     OW 4031   0.076   4.535   2.651
 1334SOL    HW1 4032   0.175   4.523   2.660
 1334SOL    HW2 4033   0.052   4.630   2.672
 1335SOL     OW 4034   0.865   4.072   2.057
 1335SOL    HW1 4035   0.924   4.135   2.008
 1335SOL    HW2 4036   0.884   3.978   2.028
 1336SOL     OW 4037   1.719   4.309   3.693
 1336SOL    HW1 4038   1.693   4.398   3.657
 1336SOL    HW2 4039   1.717   4.241   3.620
 1337SOL     OW 4040   1.362   4.868   2.407
 1337SOL    HW1 4041   1.445   4.839   2.359
 1337SOL    HW2 4042   1.313   4.935   2.351
 1338SOL     OW 4043   0.550   3.920   2.747
 1338SOL    HW1 4044   0.545   3.915   2.847
 1338SOL    HW2 4045   0.552   4.016   2.718
 1339SOL     OW 4046   1.795   4.790   2.735
 1339SOL    HW1 4047   1.733   4.775   2.659
 1339SOL    HW2 4048   1.743   4.801   2.820
 1340SOL     OW 4049   0.321   4.667   2.104
 1340SOL    HW1 4050   0.403   4.706   2.062
 1340SOL    HW2 4051   0.294   4.585   2.055
 1341SOL     OW 4052   1.458   4.459   2.590
 1341SOL    HW1 4053   1.453   4.394   2.665
 1341SOL    HW2 4054   1.538   4.518   2.603
 1342SOL     OW 4055   0.202   4.009   3.360
 1342SOL    HW1 4056   0.122   4.069   3.347
 1342SOL    HW2 4057   0.192   3.960   3.446
 1343SOL     OW 4058   1.400   3.831   2.288
 1343SOL    HW1 4059   1.376   3.794   2.198
 1343SOL    HW2 4060   1.499   3.847   2.292
 1344SOL     OW 4061   0.382   4.424   2.342
 1344SOL    HW1 4062   0.427   4.334   2.339
 1344SOL    HW2 4063   0.288   4.413   2.375
 1345SOL     OW 4064   1.547   3.946   3.591
 1345SOL    HW1 4065   1.542   3.983   3.683
 1345SOL    HW2 4066   1.475   3.877   3.579
 1346SOL     OW 4067   0.614   3.846   1.979
 1346SOL    HW1 4068   0.712   3.824   1.986
 1346SOL    HW2 4069   0.583   3.829   1.886
 1347SOL     OW 4070   0.781   3.988   3.611
 1347SOL    HW1 4071   0.848   3.927   3.654
 1347SOL    HW2 4072   0.708   4.007   3.676
 1348SOL     OW 4073   1.351   4.314   3.295
 1348SOL    HW1 4074   1.379   4.271   3.380
 1348SOL    HW2 4075   1.376   4.410   3.296
 1349SOL     OW 4076   0.803   5.126   2.786
 1349SOL    HW1 4077   0.893   5.140   2.744
 1349SOL    HW2 4078   0.732   5.128   2.715
 1350SOL     OW 4079   0.922   4.227   2.761
 1350SOL    HW1 4080   0.897   4.218   2.665
 1350SOL    HW2 4081   0.970   4.145   2.792
 1351SOL     OW 4082   0.539   3.788   2.374
 1351SOL    HW1 4083   0.458   3.789   2.432
 1351SOL    HW2 4084   0.542   3.871   2.319
 1352SOL     OW 4085   0.297   3.759   2.033
 1352SOL    HW1 4086   0.346   3.843   2.012
 1352SOL    HW2 4087   0.359   3.694   2.078
 1353SOL     OW 4088   0.935   3.960   2.342
 1353SOL    HW1 4089   0.887   4.001   2.264
 1353SOL    HW2 4090   1.034   3.958   2.323
 1354SOL     OW 4091   1.076   4.407   3.326
 1354SOL    HW1 4092   0.996   4.346   3.329
 1354SOL    HW2 4093   1.157   4.354   3.302
 1355SOL     OW 4094   0.459   4.876   2.603
 1355SOL    HW1 4095   0.388   4.849   2.668
 1355SOL    HW2 4096   0.433   4.848   2.510
 1356SOL     OW 4097   1.032   4.273   1.878
 1356SOL    HW1 4098   0.991   4.355   1.839
 1356SOL    HW2 4099   1.096   4.299   1.951
 1357SOL     OW 4100   0.078   4.280   3.248
 1357SOL    HW1 4101   0.170   4.279   3.207
 1357SOL    HW2 4102   0.072   4.354   3.315
 1358SOL     OW 4103   0.561   3.946   3.009
 1358SOL    HW1 4104   0.599   3.862   3.046
 1358SOL    HW2 4105   0.473   3.965   3.053
 1359SOL     OW 4106   0.866   4.178   2.504
 1359SOL    HW1 4107   0.834   4.250   2.442
 1359SOL    HW2 4108   0.890   4.097   2.451
 1360SOL     OW 4109   1.017   3.763   2.615
 1360SOL    HW1 4110   0.945   3.768   2.546
 1360SOL    HW2 4111   0.993   3.694   2.684
 1361SOL     OW 4112   1.429   4.897   2.729
 1361SOL    HW1 4113   1.374   4.813   2.722
 1361SOL    HW2 4114   1.455   4.926   2.637
 1362SOL     OW 4115   1.466   4.314   2.854
 1362SOL    HW1 4116   1.436   4.219   2.861
 1362SOL    HW2 4117   1.539   4.330   2.920
 1363SOL     OW 4118   1.857   4.557   2.239
 1363SOL    HW1 4119   1.899   4.493   2.303
 1363SOL    HW2 4120   1.819   4.506   2.161
 1364SOL     OW 4121   1.390   4.299   1.940
 1364SOL    HW1 4122   1.336   4.278   2.021
 1364SOL    HW2 4123   1.481   4.258   1.949
 1365SOL     OW 4124   0.527   3.980   2.190
 1365SOL    HW1 4125   0.554   3.921   2.115
 1365SOL    HW2 4126   0.527   4.075   2.159
 1366SOL     OW 4127   1.754   4.947   3.450
 1366SOL    HW1 4128   1.845   4.908   3.437
 1366SOL    HW2 4129   1.762   5.043   3.474
 1367SOL     OW 4130   1.638   4.823   2.941
 1367SOL    HW1 4131   1.643   4.904   3.000
 1367SOL    HW2 4132   1.552   4.825   2.890
 1368SOL     OW 4133   0.915   3.813   3.264
 1368SOL    HW1 4134   0.940   3.793   3.169
 1368SOL    HW2 4135   0.987   3.869   3.306
 1369SOL     OW 4136   0.980   4.840   3.581
 1369SOL    HW1 4137   0.881   4.846   3.591
 1369SOL    HW2 4138   1.003   4.760   3.525
 1370SOL     OW 4139   0.705   4.774   2.230
 1370SOL    HW1 4140   0.691   4.781   2.329
 1370SOL    HW2 4141   0.789   4.723   2.212
 1371SOL     OW 4142   0.410   4.537   3.113
 1371SOL    HW1 4143   0.496   4.549   3.163
 1371SOL    HW2 4144   0.368   4.450   3.140
 1372SOL     OW 4145   1.274   4.110   3.124
 1372SOL    HW1 4146   1.295   4.184   3.188
 1372SOL    HW2 4147   1.185   4.127   3.081
 1373SOL     OW 4148   0.367   4.824   2.363
 1373SOL    HW1 4149   0.360   4.907   2.307
 1373SOL    HW2 4150   0.371   4.744   2.303
 1374SOL     OW 4151   0.566   4.261   2.727
 1374SOL    HW1 4152   0.578   4.327   2.653
 1374SOL    HW2 4153   0.612   4.295   2.810
 1375SOL     OW 4154   1.582   4.363   2.334
 1375SOL    HW1 4155   1.551   4.424   2.407
 1375SOL    HW2 4156   1.632   4.415   2.265
 1376SOL     OW 4157   0.402   4.475   3.460
 1376SOL    HW1 4158   0.470   4.530   3.413
 1376SOL    HW2 4159   0.442   4.387   3.487
 1377SOL     OW 4160   1.587   4.503   3.532
 1377SOL    HW1 4161   1.495   4.541   3.527
 1377SOL    HW2 4162   1.647   4.550   3.467
 1378SOL     OW 4163   1.013   3.829   3.632
 1378SOL    HW1 4164   1.019   3.914   3.580
 1378SOL    HW2 4165   1.045   3.753   3.575
 1379SOL     OW 4166   0.504   3.774   3.602
 1379SOL    HW1 4167   0.462   3.717   3.532
 1379SOL    HW2 4168   0.438   3.843   3.634
 1380SOL     OW 4169   0.573   4.594   2.891
 1380SOL    HW1 4170   0.617   4.683   2.882
 1380SOL    HW2 4171   0.510   4.594   2.968
 1381SOL     OW 4172   1.360   4.586   2.907
 1381SOL    HW1 4173   1.285   4.586   2.841
 1381SOL    HW2 4174   1.397   4.494   2.916
 1382SOL     OW 4175   1.209   4.249   2.137
 1382SOL    HW1 4176   1.222   4.165   2.191
 1382SOL    HW2 4177   1.180   4.323   2.197
 1383SOL     OW 4178   0.307   3.937   3.093
 1383SOL    HW1 4179   0.284   3.974   3.183
 1383SOL    HW2 4180   0.277   3.842   3.087
 1384SOL     OW 4181   0.037   5.034   3.144
 1384SOL    HW1 4182   0.090   4.985   3.212
 1384SOL    HW2 4183   0.059   5.132   3.149
 1385SOL     OW 4184   0.732   4.358   2.926
 1385SOL    HW1 4185   0.791   4.332   2.850
 1385SOL    HW2 4186   0.704   4.454   2.915
 1386SOL     OW 4187   1.728   4.659   3.716
 1386SOL    HW1 4188   1.682   4.652   3.627
 1386SOL    HW2 4189   1.666   4.703   3.782
 1387SOL     OW 4190   0.307   3.787   2.480
 1387SOL    HW1 4191   0.296   3.881   2.513
 1387SOL    HW2 4192   0.302   3.724   2.557
 1388SOL     OW 4193   1.622   4.091   2.236
 1388SOL    HW1 4194   1.624   4.015   2.300
 1388SOL    HW2 4195   1.574   4.168   2.276
 1389SOL     OW 4196   1.023   4.490   2.828
 1389SOL    HW1 4197   1.038   4.511   2.924
 1389SOL    HW2 4198   0.993   4.395   2.819
 1390SOL     OW 4199   0.350   4.622   3.666
 1390SOL    HW1 4200   0.426   4.666   3.714
 1390SOL    HW2 4201   0.385   4.575   3.584
 1391SOL     OW 4202   1.540   3.998   1.987
 1391SOL    HW1 4203   1.479   3.923   2.010
 1391SOL    HW2 4204   1.562   4.050   2.070
 1392SOL     OW 4205   1.303   4.562   1.904
 1392SOL    HW1 4206   1.337   4.469   1.919
 1392SOL    HW2 4207   1.321   4.589   1.809
 1393SOL     OW 4208   0.319   4.534   2.811
 1393SOL    HW1 4209   0.412   4.570   2.816
 1393SOL    HW2 4210   0.313   4.449   2.863
 1394SOL     OW 4211   0.339   4.233   2.868
 1394SOL    HW1 4212   0.287   4.150   2.851
 1394SOL    HW2 4213   0.416   4.238   2.804
 1395SOL     OW 4214   1.138   4.104   3.540
 1395SOL    HW1 4215   1.093   4.167   3.604
 1395SOL    HW2 4216   1.231   4.135   3.523
 1396SOL     OW 4217   1.160   3.931   3.339
 1396SOL    HW1 4218   1.160   3.995   3.416
 1396SOL    HW2 4219   1.188   3.979   3.256
 1397SOL     OW 4220   0.008   5.050   2.062
 1397SOL    HW1 4221  -0.085   5.071   2.031
 1397SOL    HW2 4222   0.018   4.951   2.075
 1398SOL     OW 4223   1.002   4.520   3.100
 1398SOL    HW1 4224   1.043   4.488   3.186
 1398SOL    HW2 4225   0.906   4.493   3.097
 1399SOL     OW 4226   0.040   4.268   2.976
 1399SOL    HW1 4227   0.125   4.235   2.935
 1399SOL    HW2 4228   0.053   4.283   3.074
 1400SOL     OW 4229   0.189   4.244   3.584
 1400SOL    HW1 4230   0.248   4.204   3.514
 1400SOL    HW2 4231   0.131   4.315   3.543
 1401SOL     OW 4232   1.369   4.674   3.522
 1401SOL    HW1 4233   1.408   4.763   3.542
 1401SOL    HW2 4234   1.379   4.654   3.425
 1402SOL     OW 4235   0.815   4.296   2.187
 1402SOL    HW1 4236   0.822   4.207   2.141
 1402SOL    HW2 4237   0.721   4.330   2.179
 1403SOL     OW 4238   1.657   4.328   3.068
 1403SOL    HW1 4239   1.619   4.259   3.130
 1403SOL    HW2 4240   1.739   4.292   3.024
 1404SOL     OW 4241   0.671   4.188   3.131
 1404SOL    HW1 4242   0.637   4.099   3.101
 1404SOL    HW2 4243   0.697   4.242   3.051
 1405SOL     OW 4244   0.473   4.224   2.053
 1405SOL    HW1 4245   0.534   4.304   2.057
 1405SOL    HW2 4246   0.378   4.255   2.060
 1406SOL     OW 4247   0.159   4.861   3.328
 1406SOL    HW1 4248   0.181   4.800   3.404
 1406SOL    HW2 4249   0.169   4.812   3.242
 1407SOL     OW 4250   1.347   4.783   3.096
 1407SOL    HW1 4251   1.371   4.720   3.022
 1407SOL    HW2 4252   1.257   4.823   3.078
 1408SOL     OW 4253   1.302   4.579   2.171
 1408SOL    HW1 4254   1.216   4.548   2.213
 1408SOL    HW2 4255   1.298   4.565   2.072
 1409SOL     OW 4256   0.083   4.982   2.884
 1409SOL    HW1 4257   0.078   4.981   2.984
 1409SOL    HW2 4258   0.000   4.941   2.846
 1410SOL     OW 4259   1.726   3.859   2.385
 1410SOL    HW1 4260   1.799   3.842   2.318
 1410SOL    HW2 4261   1.695   3.772   2.423
 1411SOL     OW 4262   1.280   4.651   2.534
 1411SOL    HW1 4263   1.340   4.570   2.536
 1411SOL    HW2 4264   1.320   4.720   2.474
 1412SOL     OW 4265   1.841   3.899   2.825
 1412SOL    HW1 4266   1.880   3.814   2.789
 1412SOL    HW2 4267   1.743   3.901   2.806
 1413SOL     OW 4268   0.263   4.050   2.582
 1413SOL    HW1 4269   0.184   4.101   2.548
 1413SOL    HW2 4270   0.254   4.035   2.680
 1414SOL     OW 4271   1.194   5.336   1.893
 1414SOL    HW1 4272   1.200   5.243   1.930
 1414SOL    HW2 4273   1.135   5.336   1.813
 1415SOL     OW 4274   0.822   4.726   3.234
 1415SOL    HW1 4275   0.862   4.725   3.142
 1415SOL    HW2 4276   0.832   4.818   3.274
 1416SOL     OW 4277   0.916   4.634   2.153
 1416SOL    HW1 4278   0.979   4.672   2.085
 1416SOL    HW2 4279   0.956   4.551   2.192
 1417SOL     OW 4280   0.372   5.012   3.352
 1417SOL    HW1 4281   0.359   5.105   3.318
 1417SOL    HW2 4282   0.288   4.960   3.339
 1418SOL     OW 4283   1.614   5.016   3.151
 1418SOL    HW1 4284   1.674   5.019   3.231
 1418SOL    HW2 4285   1.539   5.080   3.164
 1419SOL     OW 4286   1.039   4.822   2.558
 1419SOL    HW1 4287   0.969   4.775   2.612
 1419SOL    HW2 4288   1.098   4.754   2.515
 1420SOL     OW 4289   1.014   3.960   2.833
 1420SOL    HW1 4290   1.006   3.924   2.740
 1420SOL    HW2 4291   1.012   3.884   2.898
 1421SOL     OW 4292   1.709   4.109   3.243
 1421SOL    HW1 4293   1.782   4.178   3.247
 1421SOL    HW2 4294   1.737   4.034   3.184
 1422SOL     OW 4295   0.105   4.737   3.588
 1422SOL    HW1 4296   0.028   4.704   3.642
 1422SOL    HW2 4297   0.190   4.707   3.630
 1423SOL     OW 4298   0.672   3.927   3.351
 1423SOL    HW1 4299   0.762   3.911   3.311
 1423SOL    HW2 4300   0.680   3.932   3.450
 1424SOL     OW 4301   0.075   4.069   1.895
 1424SOL    HW1 4302  -0.017   4.041   1.866
 1424SOL    HW2 4303   0.106   4.146   1.839
 1425SOL     OW 4304   1.440   4.580   3.260
 1425SOL    HW1 4305   1.383   4.632   3.197
 1425SOL    HW2 4306   1.536   4.592   3.236
 1426SOL     OW 4307   0.072   3.890   2.180
 1426SOL    HW1 4308   0.055   3.973   2.126
 1426SOL    HW2 4309   0.162   3.853   2.158
 1427SOL     OW 4310   0.613   4.566   3.293
 1427SOL    HW1 4311   0.669   4.647   3.276
 1427SOL    HW2 4312   0.672   4.486   3.296
 1428SOL     OW 4313   0.716   4.289   3.570
 1428SOL    HW1 4314   0.735   4.354   3.644
 1428SOL    HW2 4315   0.776   4.209   3.579
 1429SOL     OW 4316   1.450   4.944   3.495
 1429SOL    HW1 4317   1.441   4.934   3.594
 1429SOL    HW2 4318   1.546   4.937   3.469
 1430SOL     OW 4319   1.674   4.607   3.116
 1430SOL    HW1 4320   1.647   4.518   3.079
 1430SOL    HW2 4321   1.675   4.675   3.043
 1431SOL     OW 4322   1.225   4.049   2.311
 1431SOL    HW1 4323   1.290   3.975   2.300
 1431SOL    HW2 4324   1.245   4.099   2.395
 1432SOL     OW 4325   0.594   4.469   2.514
 1432SOL    HW1 4326   0.644   4.554   2.495
 1432SOL    HW2 4327   0.506   4.471   2.466
 1433SOL     OW 4328   1.777   4.066   3.504
 1433SOL    HW1 4329   1.760   4.097   3.410
 1433SOL    HW2 4330   1.693   4.029   3.542
 1434SOL     OW 4331   1.730   4.658   3.379
 1434SOL    HW1 4332   1.768   4.749   3.394
 1434SOL    HW2 4333   1.722   4.641   3.280
 1435SOL     OW 4334   0.859   4.680   2.723
 1435SOL    HW1 4335   0.913   4.611   2.771
 1435SOL    HW2 4336   0.827   4.749   2.789
 1436SOL     OW 4337   1.083   4.708   1.949
 1436SOL    HW1 4338   1.060   4.761   1.867
 1436SOL    HW2 4339   1.164   4.652   1.930
 1437SOL     OW 4340   0.079   4.964   2.515
 1437SOL    HW1 4341   0.078   4.917   2.603
 1437SOL    HW2 4342   0.161   4.936   2.464
 1438SOL     OW 4343   1.824   3.916   3.089
 1438SOL    HW1 4344   1.820   3.826   3.133
 1438SOL    HW2 4345   1.827   3.905   2.990
 1439SOL     OW 4346   0.428   4.148   2.382
 1439SOL    HW1 4347   0.458   4.076   2.320
 1439SOL    HW2 4348   0.389   4.108   2.465
 1440SOL     OW 4349   0.317   4.271   3.142
 1440SOL    HW1 4350   0.355   4.212   3.214
 1440SOL    HW2 4351   0.357   4.245   3.054
 1441SOL     OW 4352   1.424   3.938   2.974
 1441SOL    HW1 4353   1.476   3.873   3.029
 1441SOL    HW2 4354   1.375   4.001   3.035
 1442SOL     OW 4355   1.001   3.758   3.016
 1442SOL    HW1 4356   0.938   3.686   2.985
 1442SOL    HW2 4357   1.094   3.722   3.016
 1443SOL     OW 4358   0.770   5.054   2.163
 1443SOL    HW1 4359   0.724   4.967   2.180
 1443SOL    HW2 4360   0.861   5.051   2.204
 1444SOL     OW 4361   1.352   3.776   2.030
 1444SOL    HW1 4362   1.387   3.735   1.946
 1444SOL    HW2 4363   1.262   3.738   2.050
 1445SOL     OW 4364   1.300   4.177   2.553
 1445SOL    HW1 4365   1.241   4.257   2.557
 1445SOL    HW2 4366   1.315   4.142   2.646
 1446SOL     OW 4367   1.593   3.945   2.744
 1446SOL    HW1 4368   1.509   3.944   2.798
 1446SOL    HW2 4369   1.595   4.028   2.688
 1447SOL     OW 4370   0.039   4.801   2.162
 1447SOL    HW1 4371   0.138   4.790   2.153
 1447SOL    HW2 4372  -0.001   4.715   2.194
 1448SOL     OW 4373   0.230   4.352   3.837
 1448SOL    HW1 4374   0.137   4.350   3.874
 1448SOL    HW2 4375   0.231   4.313   3.745
 1449SOL     OW 4376   0.225   3.999   4.720
 1449SOL    HW1 4377   0.260   3.982   4.812
 1449SOL    HW2 4378   0.137   3.954   4.708
 1450SOL     OW 4379   0.019   4.092   4.371
 1450SOL    HW1 4380  -0.063   4.135   4.410
 1450SOL    HW2 4381  -0.009   4.019   4.308
 1451SOL     OW 4382   1.135   4.427   4.441
 1451SOL    HW1 4383   1.192   4.505   4.416
 1451SOL    HW2 4384   1.075   4.453   4.517
 1452SOL     OW 4385   1.755   4.331   3.955
 1452SOL    HW1 4386   1.743   4.318   3.856
 1452SOL    HW2 4387   1.725   4.250   4.004
 1453SOL     OW 4388   0.768   4.868   4.747
 1453SOL    HW1 4389   0.690   4.885   4.807
 1453SOL    HW2 4390   0.802   4.955   4.711
 1454SOL     OW 4391   0.685   4.736   4.389
 1454SOL    HW1 4392   0.754   4.720   4.459
 1454SOL    HW2 4393   0.612   4.793   4.427
 1455SOL     OW 4394   0.335   5.159   4.785
 1455SOL    HW1 4395   0.257   5.128   4.732
 1455SOL    HW2 4396   0.393   5.217   4.728
 1456SOL     OW 4397   1.603   4.171   4.461
 1456SOL    HW1 4398   1.529   4.217   4.411
 1456SOL    HW2 4399   1.654   4.239   4.514
 1457SOL     OW 4400   0.240   4.815   4.610
 1457SOL    HW1 4401   0.254   4.731   4.662
 1457SOL    HW2 4402   0.185   4.879   4.665
 1458SOL     OW 4403   0.606   4.688   3.847
 1458SOL    HW1 4404   0.613   4.772   3.793
 1458SOL    HW2 4405   0.652   4.701   3.935
 1459SOL     OW 4406   0.122   4.367   4.287
 1459SOL    HW1 4407   0.077   4.279   4.304
 1459SOL    HW2 4408   0.121   4.421   4.371
 1460SOL     OW 4409   1.689   4.646   4.336
 1460SOL    HW1 4410   1.784   4.617   4.344
 1460SOL    HW2 4411   1.681   4.711   4.261
 1461SOL     OW 4412   1.641   4.832   4.156
 1461SOL    HW1 4413   1.727   4.834   4.104
 1461SOL    HW2 4414   1.655   4.879   4.244
 1462SOL     OW 4415   0.113   4.461   5.321
 1462SOL    HW1 4416   0.201   4.448   5.366
 1462SOL    HW2 4417   0.100   4.558   5.299
 1463SOL     OW 4418   0.809   3.728   4.226
 1463SOL    HW1 4419   0.849   3.819   4.217
 1463SOL    HW2 4420   0.709   3.736   4.232
 1464SOL     OW 4421   0.197   4.700   4.988
 1464SOL    HW1 4422   0.286   4.655   4.974
 1464SOL    HW2 4423   0.124   4.635   4.969
 1465SOL     OW 4424   1.525   4.723   3.914
 1465SOL    HW1 4425   1.462   4.647   3.927
 1465SOL    HW2 4426   1.573   4.741   4.000
 1466SOL     OW 4427   0.598   4.453   3.994
 1466SOL    HW1 4428   0.622   4.522   3.926
 1466SOL    HW2 4429   0.520   4.486   4.048
 1467SOL     OW 4430   1.281   4.069   4.668
 1467SOL    HW1 4431   1.195   4.019   4.655
 1467SOL    HW2 4432   1.343   4.015   4.724
 1468SOL     OW 4433   0.991   4.134   4.966
 1468SOL    HW1 4434   0.914   4.168   5.020
 1468SOL    HW2 4435   0.957   4.083   4.887
 1469SOL     OW 4436   1.041   4.425   4.153
 1469SOL    HW1 4437   1.067   4.421   4.249
 1469SOL    HW2 4438   0.956   4.374   4.139
 1470SOL     OW 4439   0.076   4.535   4.513
 1470SOL    HW1 4440   0.175   4.523   4.522
 1470SOL    HW2 4441   0.052   4.630   4.534
 1471SOL     OW 4442   0.865   4.072   3.919
 1471SOL    HW1 4443   0.924   4.135   3.870
 1471SOL    HW2 4444   0.884   3.978   3.890
 1472SOL     OW 4445   1.362   4.868   4.269
 1472SOL    HW1 4446   1.445   4.839   4.221
 1472SOL    HW2 4447   1.313   4.935   4.213
 1473SOL     OW 4448   0.550   3.920   4.609
 1473SOL    HW1 4449   0.545   3.915   4.709
 1473SOL    HW2 4450   0.552   4.016   4.580
 1474SOL     OW 4451   1.795   4.790   4.597
 1474SOL    HW1 4452   1.733   4.775   4.521
 1474SOL    HW2 4453   1.743   4.801   4.682
 1475SOL     OW 4454   0.321   4.667   3.966
 1475SOL    HW1 4455   0.403   4.706   3.924
 1475SOL    HW2 4456   0.294   4.585   3.917
 1476SOL     OW 4457   1.458   4.459   4.452
 1476SOL    HW1 4458   1.453   4.394   4.527
 1476SOL    HW2 4459   1.538   4.518   4.465
 1477SOL     OW 4460   1.400   3.831   4.150
 1477SOL    HW1 4461   1.376   3.794   4.060
 1477SOL    HW2 4462   1.499   3.847   4.154
 1478SOL     OW 4463   0.382   4.424   4.204
 1478SOL    HW1 4464   0.427   4.334   4.201
 1478SOL    HW2 4465   0.288   4.413   4.237
 1479SOL     OW 4466   0.614   3.846   3.841
 1479SOL    HW1 4467   0.712   3.824   3.848
 1479SOL    HW2 4468   0.583   3.829   3.748
 1480SOL     OW 4469   0.803   5.126   4.648
 1480SOL    HW1 4470   0.893   5.140   4.606
 1480SOL    HW2 4471   0.732   5.128   4.577
 1481SOL     OW 4472   0.922   4.227   4.623
 1481SOL    HW1 4473   0.897   4.218   4.527
 1481SOL    HW2 4474   0.970   4.145   4.654
 1482SOL     OW 4475   0.539   3.788   4.236
 1482SOL    HW1 4476   0.458   3.789   4.294
 1482SOL    HW2 4477   0.542   3.871   4.181
 1483SOL     OW 4478   0.297   3.759   3.895
 1483SOL    HW1 4479   0.346   3.843   3.874
 1483SOL    HW2 4480   0.359   3.694   3.940
 1484SOL     OW 4481   0.935   3.960   4.204
 1484SOL    HW1 4482   0.887   4.001   4.126
 1484SOL    HW2 4483   1.034   3.958   4.185
 1485SOL     OW 4484   0.459   4.876   4.465
 1485SOL    HW1 4485   0.388   4.849   4.530
 1485SOL    HW2 4486   0.433   4.848   4.372
 1486SOL     OW 4487   1.032   4.273   3.740
 1486SOL    HW1 4488   0.991   4.355   3.701
 1486SOL    HW2 4489   1.096   4.299   3.813
 1487SOL     OW 4490   0.561   3.946   4.871
 1487SOL    HW1 4491   0.599   3.862   4.908
 1487SOL    HW2 4492   0.473   3.965   4.915
 1488SOL     OW 4493   0.866   4.178   4.366
 1488SOL    HW1 4494   0.834   4.250   4.304
 1488SOL    HW2 4495   0.890   4.097   4.313
 1489SOL     OW 4496   1.017   3.763   4.477
 1489SOL    HW1 4497   0.945   3.768   4.408
 1489SOL    HW2 4498   0.993   3.694   4.546
 1490SOL     OW 4499   1.429   4.897   4.591
 1490SOL    HW1 4500   1.374   4.813   4.584
 1490SOL    HW2 4501   1.455   4.926   4.499
 1491SOL     OW 4502   1.466   4.314   4.716
 1491SOL    HW1 4503   1.436   4.219   4.723
 1491SOL    HW2 4504   1.539   4.330   4.782
 1492SOL     OW 4505   1.857   4.557   4.101
 1492SOL    HW1 4506   1.899   4.493   4.165
 1492SOL    HW2 4507   1.819   4.506   4.023
 1493SOL     OW 4508   1.390   4.299   3.802
 1493SOL    HW1 4509   1.336   4.278   3.883
 1493SOL    HW2 4510   1.481   4.258   3.811
 1494SOL     OW 4511   0.527   3.980   4.052
 1494SOL    HW1 4512   0.554   3.921   3.977
 1494SOL    HW2 4513   0.527   4.075   4.021
 1495SOL     OW 4514   1.638   4.823   4.803
 1495SOL    HW1 4515   1.643   4.904   4.862
 1495SOL    HW2 4516   1.552   4.825   4.752
 1496SOL     OW 4517   0.705   4.774   4.092
 1496SOL    HW1 4518   0.691   4.781   4.191
 1496SOL    HW2 4519   0.789   4.723   4.074
 1497SOL     OW 4520   0.410   4.537   4.975
 1497SOL    HW1 4521   0.496   4.549   5.025
 1497SOL    HW2 4522   0.368   4.450   5.002
 1498SOL     OW 4523   1.274   4.110   4.986
 1498SOL    HW1 4524   1.295   4.184   5.050
 1498SOL    HW2 4525   1.185   4.127   4.943
 1499SOL     OW 4526   0.367   4.824   4.225
 1499SOL    HW1 4527   0.360   4.907   4.169
 1499SOL    HW2 4528   0.371   4.744   4.165
 1500SOL     OW 4529   0.566   4.261   4.589
 1500SOL    HW1 4530   0.578   4.327   4.515
 1500SOL    HW2 4531   0.612   4.295   4.672
 1501SOL     OW 4532   1.582   4.363   4.196
 1501SOL    HW1 4533   1.551   4.424   4.269
 1501SOL    HW2 4534   1.632   4.415   4.127
 1502SOL     OW 4535   0.573   4.594   4.753
 1502SOL    HW1 4536   0.617   4.683   4.744
 1502SOL    HW2 4537   0.510   4.594   4.830
 1503SOL     OW 4538   1.360   4.586   4.769
 1503SOL    HW1 4539   1.285   4.586   4.703
 1503SOL    HW2 4540   1.397   4.494   4.778
 1504SOL     OW 4541   1.209   4.249   3.999
 1504SOL    HW1 4542   1.222   4.165   4.053
 1504SOL    HW2 4543   1.180   4.323   4.059
 1505SOL     OW 4544   0.307   3.937   4.955
 1505SOL    HW1 4545   0.284   3.974   5.045
 1505SOL    HW2 4546   0.277   3.842   4.949
 1506SOL     OW 4547   0.037   5.034   5.006
 1506SOL    HW1 4548   0.090   4.985   5.074
 1506SOL    HW2 4549   0.059   5.132   5.011
 1507SOL     OW 4550   0.732   4.358   4.788
 1507SOL    HW1 4551   0.791   4.332   4.712
 1507SOL    HW2 4552   0.704   4.454   4.777
 1508SOL     OW 4553   0.307   3.787   4.342
 1508SOL    HW1 4554   0.296   3.881   4.375
 1508SOL    HW2 4555   0.302   3.724   4.419
 1509SOL     OW 4556   1.622   4.091   4.098
 1509SOL    HW1 4557   1.624   4.015   4.162
 1509SOL    HW2 4558   1.574   4.168   4.138
 1510SOL     OW 4559   1.023   4.490   4.690
 1510SOL    HW1 4560   1.038   4.511   4.786
 1510SOL    HW2 4561   0.993   4.395   4.681
 1511SOL     OW 4562   1.540   3.998   3.849
 1511SOL    HW1 4563   1.479   3.923   3.872
 1511SOL    HW2 4564   1.562   4.050   3.932
 1512SOL     OW 4565   1.303   4.562   3.766
 1512SOL    HW1 4566   1.337   4.469   3.781
 1512SOL    HW2 4567   1.321   4.589   3.671
 1513SOL     OW 4568   0.319   4.534   4.673
 1513SOL    HW1 4569   0.412   4.570   4.678
 1513SOL    HW2 4570   0.313   4.449   4.725
 1514SOL     OW 4571   0.339   4.233   4.730
 1514SOL    HW1 4572   0.287   4.150   4.713
 1514SOL    HW2 4573   0.416   4.238   4.666
 1515SOL     OW 4574   1.160   3.931   5.201
 1515SOL    HW1 4575   1.160   3.995   5.278
 1515SOL    HW2 4576   1.188   3.979   5.118
 1516SOL     OW 4577   0.008   5.050   3.924
 1516SOL    HW1 4578  -0.085   5.071   3.893
 1516SOL    HW2 4579   0.018   4.951   3.937
 1517SOL     OW 4580   1.002   4.520   4.962
 1517SOL    HW1 4581   1.043   4.488   5.048
 1517SOL    HW2 4582   0.906   4.493   4.959
 1518SOL     OW 4583   0.040   4.268   4.838
 1518SOL    HW1 4584   0.125   4.235   4.797
 1518SOL    HW2 4585   0.053   4.283   4.936
 1519SOL     OW 4586   0.815   4.296   4.049
 1519SOL    HW1 4587   0.822   4.207   4.003
 1519SOL    HW2 4588   0.721   4.330   4.041
 1520SOL     OW 4589   1.657   4.328   4.930
 1520SOL    HW1 4590   1.619   4.259   4.992
 1520SOL    HW2 4591   1.739   4.292   4.886
 1521SOL     OW 4592   0.671   4.188   4.993
 1521SOL    HW1 4593   0.637   4.099   4.963
 1521SOL    HW2 4594   0.697   4.242   4.913
 1522SOL     OW 4595   0.473   4.224   3.915
 1522SOL    HW1 4596   0.534   4.304   3.919
 1522SOL    HW2 4597   0.378   4.255   3.922
 1523SOL     OW 4598   1.347   4.783   4.958
 1523SOL    HW1 4599   1.371   4.720   4.884
 1523SOL    HW2 4600   1.257   4.823   4.940
 1524SOL     OW 4601   1.302   4.579   4.033
 1524SOL    HW1 4602   1.216   4.548   4.075
 1524SOL    HW2 4603   1.298   4.565   3.934
 1525SOL     OW 4604   0.083   4.982   4.746
 1525SOL    HW1 4605   0.078   4.981   4.846
 1525SOL    HW2 4606   0.000   4.941   4.708
 1526SOL     OW 4607   1.726   3.859   4.247
 1526SOL    HW1 4608   1.799   3.842   4.180
 1526SOL    HW2 4609   1.695   3.772   4.285
 1527SOL     OW 4610   1.280   4.651   4.396
 1527SOL    HW1 4611   1.340   4.570   4.398
 1527SOL    HW2 4612   1.320   4.720   4.336
 1528SOL     OW 4613   1.841   3.899   4.687
 1528SOL    HW1 4614   1.880   3.814   4.651
 1528SOL    HW2 4615   1.743   3.901   4.668
 1529SOL     OW 4616   0.263   4.050   4.444
 1529SOL    HW1 4617   0.184   4.101   4.410
 1529SOL    HW2 4618   0.254   4.035   4.542
 1530SOL     OW 4619   1.194   5.336   3.755
 1530SOL    HW1 4620   1.200   5.243   3.792
 1530SOL    HW2 4621   1.135   5.336   3.675
 1531SOL     OW 4622   0.822   4.726   5.096
 1531SOL    HW1 4623   0.862   4.725   5.004
 1531SOL    HW2 4624   0.832   4.818   5.136
 1532SOL     OW 4625   0.916   4.634   4.015
 1532SOL    HW1 4626   0.979   4.672   3.947
 1532SOL    HW2 4627   0.956   4.551   4.054
 1533SOL     OW 4628   1.614   5.016   5.013
 1533SOL    HW1 4629   1.674   5.019   5.093
 1533SOL    HW2 4630   1.539   5.080   5.026
 1534SOL     OW 4631   1.039   4.822   4.420
 1534SOL    HW1 4632   0.969   4.775   4.474
 1534SOL    HW2 4633   1.098   4.754   4.377
 1535SOL     OW 4634   1.014   3.960   4.695
 1535SOL    HW1 4635   1.006   3.924   4.602
 1535SOL    HW2 4636   1.012   3.884   4.760
 1536SOL     OW 4637   1.709   4.109   5.105
 1536SOL    HW1 4638   1.782   4.178   5.109
 1536SOL    HW2 4639   1.737   4.034   5.046
 1537SOL     OW 4640   0.075   4.069   3.757
 1537SOL    HW1 4641  -0.017   4.041   3.728
 1537SOL    HW2 4642   0.106   4.146   3.701
 1538SOL     OW 4643   0.072   3.890   4.042
 1538SOL    HW1 4644   0.055   3.973   3.988
 1538SOL    HW2 4645   0.162   3.853   4.020
 1539SOL     OW 4646   1.674   4.607   4.978
 1539SOL    HW1 4647   1.647   4.518   4.941
 1539SOL    HW2 4648   1.675   4.675   4.905
 1540SOL     OW 4649   1.225   4.049   4.173
 1540SOL    HW1 4650   1.290   3.975   4.162
 1540SOL    HW2 4651   1.245   4.099   4.257
 1541SOL     OW 4652   0.594   4.469   4.376
 1541SOL    HW1 4653   0.644   4.554   4.357
 1541SOL    HW2 4654   0.506   4.471   4.328
 1542SOL     OW 4655   1.730   4.658   5.241
 1542SOL    HW1 4656   1.768   4.749   5.256
 1542SOL    HW2 4657   1.722   4.641   5.142
 1543SOL     OW 4658   0.859   4.680   4.585
 1543SOL    HW1 4659   0.913   4.611   4.633
 1543SOL    HW2 4660   0.827   4.749   4.651
 1544SOL     OW 4661   1.083   4.708   3.811
 1544SOL    HW1 4662   1.060   4.761   3.729
 1544SOL    HW2 4663   1.164   4.652   3.792
 1545SOL     OW 4664   0.079   4.964   4.377
 1545SOL    HW1 4665   0.078   4.917   4.465
 1545SOL    HW2 4666   0.161   4.936   4.326
 1546SOL     OW 4667   1.824   3.916   4.951
 1546SOL    HW1 4668   1.820   3.826   4.995
 1546SOL    HW2 4669   1.827   3.905   4.852
 1547SOL     OW 4670   0.428   4.148   4.244
 1547SOL    HW1 4671   0.458   4.076   4.182
 1547SOL    HW2 4672   0.389   4.108   4.327
 1548SOL     OW 4673   1.424   3.938   4.836
 1548SOL    HW1 4674   1.476   3.873   4.891
 1548SOL    HW2 4675   1.375   4.001   4.897
 1549SOL     OW 4676   1.001   3.758   4.878
 1549SOL    HW1 4677   0.938   3.686   4.847
 1549SOL    HW2 4678   1.094   3.722   4.878
 1550SOL     OW 4679   0.770   5.054   4.025
 1550SOL    HW1 4680   0.724   4.967   4.042
 1550SOL    HW2 4681   0.861   5.051   4.066
 1551SOL     OW 4682   1.352   3.776   3.892
 1551SOL    HW1 4683   1.387   3.735   3.808
 1551SOL    HW2 4684   1.262   3.738   3.912
 1552SOL     OW 4685   1.300   4.177   4.415
 1552SOL    HW1 4686   1.241   4.257   4.419
 1552SOL    HW2 4687   1.315   4.142   4.508
 1553SOL     OW 4688   1.593   3.945   4.606
 1553SOL    HW1 4689   1.509   3.944   4.660
 1553SOL    HW2 4690   1.595   4.028   4.550
 1554SOL     OW 4691   0.039   4.801   4.024
 1554SOL    HW1 4692   0.138   4.790   4.015
 1554SOL    HW2 4693  -0.001   4.715   4.056
 1555SOL     OW 4694   2.092   0.628   0.113
 1555SOL    HW1 4695   1.999   0.626   0.150
 1555SOL    HW2 4696   2.093   0.589   0.021
 1556SOL     OW 4697   2.087   0.275   0.996
 1556SOL    HW1 4698   2.122   0.258   1.088
 1556SOL    HW2 4699   1.999   0.230   0.984
 1557SOL     OW 4700   1.881   0.368   0.647
 1557SOL    HW1 4701   1.799   0.411   0.686
 1557SOL    HW2 4702   1.853   0.295   0.584
 1558SOL     OW 4703   2.431   1.275   1.165
 1558SOL    HW1 4704   2.338   1.268   1.128
 1558SOL    HW2 4705   2.442   1.364   1.209
 1559SOL     OW 4706   3.417   1.511   0.703
 1559SOL    HW1 4707   3.360   1.495   0.784
 1559SOL    HW2 4708   3.358   1.521   0.623
 1560SOL     OW 4709   2.997   0.703   0.717
 1560SOL    HW1 4710   3.054   0.781   0.692
 1560SOL    HW2 4711   2.937   0.729   0.793
 1561SOL     OW 4712   3.617   0.607   0.231
 1561SOL    HW1 4713   3.605   0.594   0.132
 1561SOL    HW2 4714   3.587   0.526   0.280
 1562SOL     OW 4715   2.630   1.144   1.023
 1562SOL    HW1 4716   2.552   1.161   1.083
 1562SOL    HW2 4717   2.664   1.231   0.987
 1563SOL     OW 4718   2.712   0.798   1.823
 1563SOL    HW1 4719   2.708   0.874   1.888
 1563SOL    HW2 4720   2.734   0.834   1.732
 1564SOL     OW 4721   2.547   1.012   0.665
 1564SOL    HW1 4722   2.616   0.996   0.735
 1564SOL    HW2 4723   2.474   1.069   0.703
 1565SOL     OW 4724   2.548   1.161   1.803
 1565SOL    HW1 4725   2.608   1.240   1.817
 1565SOL    HW2 4726   2.462   1.192   1.762
 1566SOL     OW 4727   2.197   1.435   1.061
 1566SOL    HW1 4728   2.119   1.404   1.008
 1566SOL    HW2 4729   2.255   1.493   1.004
 1567SOL     OW 4730   3.322   1.505   1.339
 1567SOL    HW1 4731   3.346   1.599   1.365
 1567SOL    HW2 4732   3.306   1.451   1.421
 1568SOL     OW 4733   2.300   0.392   1.499
 1568SOL    HW1 4734   2.382   0.336   1.508
 1568SOL    HW2 4735   2.219   0.334   1.503
 1569SOL     OW 4736   3.465   0.447   0.737
 1569SOL    HW1 4737   3.391   0.493   0.687
 1569SOL    HW2 4738   3.516   0.515   0.790
 1570SOL     OW 4739   2.093   1.713   0.483
 1570SOL    HW1 4740   2.127   1.790   0.537
 1570SOL    HW2 4741   2.137   1.713   0.393
 1571SOL     OW 4742   2.989   1.341   1.690
 1571SOL    HW1 4743   3.036   1.341   1.778
 1571SOL    HW2 4744   2.941   1.254   1.679
 1572SOL     OW 4745   2.092   1.434   0.538
 1572SOL    HW1 4746   2.066   1.530   0.538
 1572SOL    HW2 4747   2.021   1.380   0.583
 1573SOL     OW 4748   2.102   1.091   0.886
 1573SOL    HW1 4749   2.116   1.007   0.938
 1573SOL    HW2 4750   2.047   1.155   0.941
 1574SOL     OW 4751   2.482   1.786   1.439
 1574SOL    HW1 4752   2.390   1.769   1.474
 1574SOL    HW2 4753   2.510   1.878   1.465
 1575SOL     OW 4754   2.468   0.964   0.123
 1575SOL    HW1 4755   2.475   1.048   0.069
 1575SOL    HW2 4756   2.514   0.977   0.211
 1576SOL     OW 4757   3.456   0.114   1.480
 1576SOL    HW1 4758   3.438   0.181   1.408
 1576SOL    HW2 4759   3.453   0.160   1.569
 1577SOL     OW 4760   1.984   0.643   0.563
 1577SOL    HW1 4761   1.939   0.555   0.580
 1577SOL    HW2 4762   1.983   0.697   0.647
 1578SOL     OW 4763   3.704   1.767   0.359
 1578SOL    HW1 4764   3.758   1.738   0.439
 1578SOL    HW2 4765   3.734   1.857   0.330
 1579SOL     OW 4766   1.889   1.596   0.117
 1579SOL    HW1 4767   1.870   1.500   0.138
 1579SOL    HW2 4768   1.856   1.654   0.192
 1580SOL     OW 4769   3.551   0.922   0.612
 1580SOL    HW1 4770   3.646   0.893   0.620
 1580SOL    HW2 4771   3.543   0.987   0.537
 1581SOL     OW 4772   3.503   1.108   0.432
 1581SOL    HW1 4773   3.589   1.110   0.380
 1581SOL    HW2 4774   3.517   1.155   0.520
 1582SOL     OW 4775   1.975   0.737   1.597
 1582SOL    HW1 4776   2.063   0.724   1.642
 1582SOL    HW2 4777   1.962   0.834   1.575
 1583SOL     OW 4778   2.475   1.365   0.726
 1583SOL    HW1 4779   2.426   1.278   0.735
 1583SOL    HW2 4780   2.452   1.408   0.639
 1584SOL     OW 4781   3.155   1.228   1.423
 1584SOL    HW1 4782   3.192   1.155   1.365
 1584SOL    HW2 4783   3.207   1.233   1.508
 1585SOL     OW 4784   2.671   0.004   0.502
 1585SOL    HW1 4785   2.711   0.095   0.493
 1585SOL    HW2 4786   2.571   0.012   0.508
 1586SOL     OW 4787   2.059   0.976   1.264
 1586SOL    HW1 4788   2.148   0.931   1.250
 1586SOL    HW2 4789   1.986   0.911   1.245
 1587SOL     OW 4790   3.387   0.999   0.190
 1587SOL    HW1 4791   3.324   0.923   0.203
 1587SOL    HW2 4792   3.435   1.017   0.276
 1588SOL     OW 4793   3.049   1.792   1.616
 1588SOL    HW1 4794   3.073   1.852   1.540
 1588SOL    HW2 4795   3.056   1.697   1.586
 1589SOL     OW 4796   2.179   0.251   1.801
 1589SOL    HW1 4797   2.250   0.322   1.807
 1589SOL    HW2 4798   2.091   0.290   1.829
 1590SOL     OW 4799   3.328   1.417   0.953
 1590SOL    HW1 4800   3.269   1.423   1.033
 1590SOL    HW2 4801   3.313   1.329   0.907
 1591SOL     OW 4802   3.529   1.714   0.572
 1591SOL    HW1 4803   3.488   1.691   0.484
 1591SOL    HW2 4804   3.511   1.640   0.637
 1592SOL     OW 4805   2.460   0.729   0.270
 1592SOL    HW1 4806   2.484   0.798   0.202
 1592SOL    HW2 4807   2.382   0.762   0.324
 1593SOL     OW 4808   3.143   0.345   0.944
 1593SOL    HW1 4809   3.057   0.295   0.931
 1593SOL    HW2 4810   3.205   0.291   1.000
 1594SOL     OW 4811   3.438   1.662   0.307
 1594SOL    HW1 4812   3.527   1.708   0.310
 1594SOL    HW2 4813   3.417   1.638   0.212
 1595SOL     OW 4814   2.669   0.605   1.465
 1595SOL    HW1 4815   2.622   0.602   1.554
 1595SOL    HW2 4816   2.618   0.550   1.399
 1596SOL     OW 4817   3.256   0.469   1.674
 1596SOL    HW1 4818   3.236   0.512   1.762
 1596SOL    HW2 4819   3.334   0.407   1.683
 1597SOL     OW 4820   2.835   0.890   1.572
 1597SOL    HW1 4821   2.881   0.806   1.543
 1597SOL    HW2 4822   2.779   0.924   1.497
 1598SOL     OW 4823   2.853   0.410   1.242
 1598SOL    HW1 4824   2.776   0.444   1.296
 1598SOL    HW2 4825   2.819   0.359   1.163
 1599SOL     OW 4826   2.903   0.701   0.429
 1599SOL    HW1 4827   2.929   0.697   0.525
 1599SOL    HW2 4828   2.818   0.650   0.415
 1600SOL     OW 4829   1.938   0.811   0.789
 1600SOL    HW1 4830   2.037   0.799   0.798
 1600SOL    HW2 4831   1.914   0.906   0.810
 1601SOL     OW 4832   1.992   1.821   1.571
 1601SOL    HW1 4833   1.982   1.806   1.670
 1601SOL    HW2 4834   1.906   1.857   1.535
 1602SOL     OW 4835   2.727   0.348   0.195
 1602SOL    HW1 4836   2.786   0.411   0.146
 1602SOL    HW2 4837   2.746   0.254   0.166
 1603SOL     OW 4838   3.581   0.585   1.831
 1603SOL    HW1 4839   3.555   0.674   1.795
 1603SOL    HW2 4840   3.579   0.517   1.758
 1604SOL     OW 4841   3.224   1.144   0.545
 1604SOL    HW1 4842   3.307   1.115   0.497
 1604SOL    HW2 4843   3.175   1.211   0.489
 1605SOL     OW 4844   2.412   0.196   0.885
 1605SOL    HW1 4845   2.407   0.191   0.985
 1605SOL    HW2 4846   2.414   0.292   0.856
 1606SOL     OW 4847   2.870   1.456   0.477
 1606SOL    HW1 4848   2.824   1.528   0.425
 1606SOL    HW2 4849   2.866   1.476   0.575
 1607SOL     OW 4850   2.213   1.801   0.853
 1607SOL    HW1 4851   2.263   1.715   0.859
 1607SOL    HW2 4852   2.278   1.878   0.850
 1608SOL     OW 4853   3.657   1.066   0.873
 1608SOL    HW1 4854   3.595   1.051   0.797
 1608SOL    HW2 4855   3.605   1.077   0.958
 1609SOL     OW 4856   3.089   1.550   1.506
 1609SOL    HW1 4857   3.095   1.473   1.570
 1609SOL    HW2 4858   3.037   1.524   1.426
 1610SOL     OW 4859   2.183   0.943   0.242
 1610SOL    HW1 4860   2.265   0.982   0.200
 1610SOL    HW2 4861   2.156   0.861   0.193
 1611SOL     OW 4862   3.320   0.735   0.728
 1611SOL    HW1 4863   3.315   0.670   0.803
 1611SOL    HW2 4864   3.400   0.794   0.741
 1612SOL     OW 4865   2.323   1.266   1.727
 1612SOL    HW1 4866   2.273   1.267   1.641
 1612SOL    HW2 4867   2.260   1.248   1.803
 1613SOL     OW 4868   2.973   1.776   0.237
 1613SOL    HW1 4869   2.913   1.714   0.287
 1613SOL    HW2 4870   3.004   1.732   0.152
 1614SOL     OW 4871   2.064   0.285   1.498
 1614SOL    HW1 4872   1.984   0.345   1.485
 1614SOL    HW2 4873   2.054   0.236   1.584
 1615SOL     OW 4874   3.494   1.377   0.081
 1615SOL    HW1 4875   3.462   1.471   0.071
 1615SOL    HW2 4876   3.418   1.314   0.069
 1616SOL     OW 4877   2.326   1.743   0.323
 1616SOL    HW1 4878   2.359   1.782   0.409
 1616SOL    HW2 4879   2.402   1.736   0.258
 1617SOL     OW 4880   3.262   0.107   0.426
 1617SOL    HW1 4881   3.238   0.070   0.336
 1617SOL    HW2 4882   3.361   0.123   0.430
 1618SOL     OW 4883   2.111   1.785   1.241
 1618SOL    HW1 4884   2.168   1.720   1.291
 1618SOL    HW2 4885   2.095   1.752   1.148
 1619SOL     OW 4886   2.802   1.698   0.904
 1619SOL    HW1 4887   2.882   1.641   0.925
 1619SOL    HW2 4888   2.753   1.658   0.827
 1620SOL     OW 4889   2.244   0.700   0.480
 1620SOL    HW1 4890   2.289   0.610   0.477
 1620SOL    HW2 4891   2.150   0.689   0.513
 1621SOL     OW 4892   3.409   0.222   1.729
 1621SOL    HW1 4893   3.404   0.259   1.821
 1621SOL    HW2 4894   3.337   0.153   1.717
 1622SOL     OW 4895   2.476   0.122   0.117
 1622SOL    HW1 4896   2.574   0.100   0.124
 1622SOL    HW2 4897   2.445   0.105   0.024
 1623SOL     OW 4898   2.643   0.264   1.749
 1623SOL    HW1 4899   2.710   0.203   1.792
 1623SOL    HW2 4900   2.570   0.283   1.814
 1624SOL     OW 4901   2.750   1.514   1.195
 1624SOL    HW1 4902   2.727   1.489   1.101
 1624SOL    HW2 4903   2.811   1.445   1.234
 1625SOL     OW 4904   3.213   0.590   1.433
 1625SOL    HW1 4905   3.241   0.547   1.518
 1625SOL    HW2 4906   3.238   0.686   1.434
 1626SOL     OW 4907   2.665   1.402   0.924
 1626SOL    HW1 4908   2.755   1.416   0.882
 1626SOL    HW2 4909   2.594   1.404   0.853
 1627SOL     OW 4910   2.784   0.503   0.899
 1627SOL    HW1 4911   2.759   0.494   0.803
 1627SOL    HW2 4912   2.832   0.421   0.930
 1628SOL     OW 4913   2.401   0.064   0.512
 1628SOL    HW1 4914   2.320   0.065   0.570
 1628SOL    HW2 4915   2.404   0.147   0.457
 1629SOL     OW 4916   3.296   1.188   0.041
 1629SOL    HW1 4917   3.328   1.112   0.098
 1629SOL    HW2 4918   3.204   1.215   0.071
 1630SOL     OW 4919   2.159   0.035   0.171
 1630SOL    HW1 4920   2.208   0.119   0.150
 1630SOL    HW2 4921   2.221  -0.030   0.216
 1631SOL     OW 4922   2.797   0.236   0.480
 1631SOL    HW1 4923   2.749   0.277   0.402
 1631SOL    HW2 4924   2.896   0.234   0.461
 1632SOL     OW 4925   2.938   0.683   1.464
 1632SOL    HW1 4926   2.858   0.622   1.467
 1632SOL    HW2 4927   3.019   0.630   1.440
 1633SOL     OW 4928   3.089   1.570   0.793
 1633SOL    HW1 4929   3.110   1.644   0.728
 1633SOL    HW2 4930   3.157   1.570   0.866
 1634SOL     OW 4931   2.321   1.152   0.741
 1634SOL    HW1 4932   2.250   1.125   0.806
 1634SOL    HW2 4933   2.295   1.124   0.648
 1635SOL     OW 4934   3.133   1.797   0.591
 1635SOL    HW1 4935   3.177   1.861   0.527
 1635SOL    HW2 4936   3.083   1.849   0.661
 1636SOL     OW 4937   2.894   0.549   0.016
 1636SOL    HW1 4938   2.853   0.631  -0.023
 1636SOL    HW2 4939   2.958   0.575   0.089
 1637SOL     OW 4940   1.940   0.556   1.386
 1637SOL    HW1 4941   2.032   0.555   1.345
 1637SOL    HW2 4942   1.934   0.630   1.453
 1638SOL     OW 4943   2.423   0.222   1.147
 1638SOL    HW1 4944   2.461   0.138   1.184
 1638SOL    HW2 4945   2.335   0.241   1.191
 1639SOL     OW 4946   2.728   0.454   0.642
 1639SOL    HW1 4947   2.696   0.526   0.580
 1639SOL    HW2 4948   2.752   0.373   0.589
 1640SOL     OW 4949   2.879   0.039   0.753
 1640SOL    HW1 4950   2.807   0.044   0.684
 1640SOL    HW2 4951   2.855  -0.030   0.822
 1641SOL     OW 4952   3.291   1.173   0.867
 1641SOL    HW1 4953   3.236   1.089   0.860
 1641SOL    HW2 4954   3.317   1.202   0.775
 1642SOL     OW 4955   3.328   0.590   0.992
 1642SOL    HW1 4956   3.298   0.495   0.999
 1642SOL    HW2 4957   3.401   0.606   1.058
 1643SOL     OW 4958   3.719   0.833   0.377
 1643SOL    HW1 4959   3.761   0.769   0.441
 1643SOL    HW2 4960   3.681   0.782   0.299
 1644SOL     OW 4961   2.350   1.385   0.174
 1644SOL    HW1 4962   2.263   1.370   0.221
 1644SOL    HW2 4963   2.333   1.411   0.079
 1645SOL     OW 4964   3.526   1.280   0.657
 1645SOL    HW1 4965   3.625   1.288   0.671
 1645SOL    HW2 4966   3.481   1.364   0.688
 1646SOL     OW 4967   3.252   0.575   0.078
 1646SOL    HW1 4968   3.198   0.554   0.159
 1646SOL    HW2 4969   3.343   0.534   0.087
 1647SOL     OW 4970   2.389   0.256   0.328
 1647SOL    HW1 4971   2.416   0.197   0.253
 1647SOL    HW2 4972   2.389   0.351   0.297
 1648SOL     OW 4973   3.616   1.223   1.588
 1648SOL    HW1 4974   3.707   1.184   1.575
 1648SOL    HW2 4975   3.624   1.319   1.612
 1649SOL     OW 4976   2.926   1.347   1.340
 1649SOL    HW1 4977   2.846   1.324   1.395
 1649SOL    HW2 4978   3.009   1.321   1.389
 1650SOL     OW 4979   3.454   1.629   1.625
 1650SOL    HW1 4980   3.481   1.663   1.535
 1650SOL    HW2 4981   3.533   1.591   1.671
 1651SOL     OW 4982   2.973   1.195   1.100
 1651SOL    HW1 4983   2.933   1.239   1.181
 1651SOL    HW2 4984   2.932   1.232   1.017
 1652SOL     OW 4985   3.500   1.099   1.079
 1652SOL    HW1 4986   3.505   1.180   1.138
 1652SOL    HW2 4987   3.414   1.101   1.028
 1653SOL     OW 4988   2.777   0.089   1.402
 1653SOL    HW1 4989   2.802   0.069   1.307
 1653SOL    HW2 4990   2.849   0.145   1.444
 1654SOL     OW 4991   2.842   1.116   1.719
 1654SOL    HW1 4992   2.743   1.122   1.729
 1654SOL    HW2 4993   2.865   1.036   1.663
 1655SOL     OW 4994   2.567   1.050   0.368
 1655SOL    HW1 4995   2.553   1.057   0.467
 1655SOL    HW2 4996   2.651   0.999   0.350
 1656SOL     OW 4997   2.272   0.813   1.251
 1656SOL    HW1 4998   2.358   0.825   1.301
 1656SOL    HW2 4999   2.230   0.726   1.278
 1657SOL     OW 5000   3.136   0.386   1.262
 1657SOL    HW1 5001   3.157   0.460   1.326
 1657SOL    HW2 5002   3.047   0.403   1.219
 1658SOL     OW 5003   1.926   1.564   1.331
 1658SOL    HW1 5004   1.880   1.646   1.297
 1658SOL    HW2 5005   2.024   1.583   1.340
 1659SOL     OW 5006   2.229   1.100   0.501
 1659SOL    HW1 5007   2.222   1.183   0.445
 1659SOL    HW2 5008   2.233   1.020   0.441
 1660SOL     OW 5009   2.428   0.537   0.865
 1660SOL    HW1 5010   2.440   0.603   0.791
 1660SOL    HW2 5011   2.474   0.571   0.948
 1661SOL     OW 5012   3.114   1.348   0.388
 1661SOL    HW1 5013   3.164   1.425   0.428
 1661SOL    HW2 5014   3.019   1.350   0.420
 1662SOL     OW 5015   3.134   1.445   1.142
 1662SOL    HW1 5016   3.181   1.458   1.229
 1662SOL    HW2 5017   3.068   1.371   1.151
 1663SOL     OW 5018   3.444   0.639   0.472
 1663SOL    HW1 5019   3.413   0.700   0.545
 1663SOL    HW2 5020   3.494   0.691   0.403
 1664SOL     OW 5021   2.216   1.510   1.329
 1664SOL    HW1 5022   2.195   1.466   1.242
 1664SOL    HW2 5023   2.313   1.536   1.332
 1665SOL     OW 5024   2.264   0.751   1.598
 1665SOL    HW1 5025   2.332   0.806   1.551
 1665SOL    HW2 5026   2.304   0.663   1.625
 1666SOL     OW 5027   3.449   0.779   1.670
 1666SOL    HW1 5028   3.357   0.817   1.665
 1666SOL    HW2 5029   3.509   0.826   1.605
 1667SOL     OW 5030   2.875   0.105   1.770
 1667SOL    HW1 5031   2.881   0.190   1.718
 1667SOL    HW2 5032   2.907   0.029   1.713
 1668SOL     OW 5033   2.366   0.050   1.740
 1668SOL    HW1 5034   2.324  -0.007   1.670
 1668SOL    HW2 5035   2.300   0.119   1.772
 1669SOL     OW 5036   2.435   0.870   1.029
 1669SOL    HW1 5037   2.479   0.959   1.020
 1669SOL    HW2 5038   2.372   0.870   1.106
 1670SOL     OW 5039   3.222   0.862   1.045
 1670SOL    HW1 5040   3.147   0.862   0.979
 1670SOL    HW2 5041   3.259   0.770   1.054
 1671SOL     OW 5042   3.071   0.525   0.275
 1671SOL    HW1 5043   3.084   0.441   0.329
 1671SOL    HW2 5044   3.042   0.599   0.335
 1672SOL     OW 5045   2.169   0.213   1.231
 1672SOL    HW1 5046   2.146   0.250   1.321
 1672SOL    HW2 5047   2.139   0.118   1.225
 1673SOL     OW 5048   1.899   1.310   1.282
 1673SOL    HW1 5049   1.952   1.261   1.350
 1673SOL    HW2 5050   1.921   1.408   1.287
 1674SOL     OW 5051   2.594   0.634   1.064
 1674SOL    HW1 5052   2.653   0.608   0.988
 1674SOL    HW2 5053   2.566   0.730   1.053
 1675SOL     OW 5054   3.590   0.935   1.854
 1675SOL    HW1 5055   3.544   0.928   1.765
 1675SOL    HW2 5056   3.528   0.979   1.920
 1676SOL     OW 5057   2.169   0.063   0.618
 1676SOL    HW1 5058   2.158   0.157   0.651
 1676SOL    HW2 5059   2.164   0.000   0.695
 1677SOL     OW 5060   3.484   0.367   0.374
 1677SOL    HW1 5061   3.486   0.291   0.438
 1677SOL    HW2 5062   3.436   0.444   0.414
 1678SOL     OW 5063   2.885   0.766   0.966
 1678SOL    HW1 5064   2.900   0.787   1.062
 1678SOL    HW2 5065   2.855   0.671   0.957
 1679SOL     OW 5066   2.842   1.573   1.700
 1679SOL    HW1 5067   2.822   1.617   1.612
 1679SOL    HW2 5068   2.881   1.482   1.684
 1680SOL     OW 5069   3.721   1.518   1.605
 1680SOL    HW1 5070   3.735   1.545   1.510
 1680SOL    HW2 5071   3.804   1.540   1.658
 1681SOL     OW 5072   2.212   0.898   1.804
 1681SOL    HW1 5073   2.288   0.942   1.852
 1681SOL    HW2 5074   2.247   0.851   1.722
 1682SOL     OW 5075   3.402   0.274   0.125
 1682SOL    HW1 5076   3.341   0.199   0.148
 1682SOL    HW2 5077   3.424   0.326   0.208
 1683SOL     OW 5078   3.165   0.838   0.042
 1683SOL    HW1 5079   3.199   0.745   0.057
 1683SOL    HW2 5080   3.183   0.865  -0.053
 1684SOL     OW 5081   2.930   1.333   0.849
 1684SOL    HW1 5082   2.937   1.249   0.794
 1684SOL    HW2 5083   2.992   1.402   0.813
 1685SOL     OW 5084   2.181   0.810   0.949
 1685SOL    HW1 5085   2.274   0.846   0.954
 1685SOL    HW2 5086   2.175   0.725   1.001
 1686SOL     OW 5087   2.201   0.509   1.006
 1686SOL    HW1 5088   2.149   0.426   0.989
 1686SOL    HW2 5089   2.278   0.514   0.942
 1687SOL     OW 5090   3.000   0.380   1.678
 1687SOL    HW1 5091   2.955   0.443   1.742
 1687SOL    HW2 5092   3.093   0.411   1.661
 1688SOL     OW 5093   3.022   0.207   1.477
 1688SOL    HW1 5094   3.022   0.271   1.554
 1688SOL    HW2 5095   3.050   0.255   1.394
 1689SOL     OW 5096   1.950   1.801   0.927
 1689SOL    HW1 5097   1.908   1.715   0.900
 1689SOL    HW2 5098   2.044   1.804   0.893
 1690SOL     OW 5099   2.366   1.568   0.910
 1690SOL    HW1 5100   2.432   1.642   0.919
 1690SOL    HW2 5101   2.410   1.489   0.868
 1691SOL     OW 5102   2.864   0.796   1.238
 1691SOL    HW1 5103   2.905   0.764   1.324
 1691SOL    HW2 5104   2.768   0.769   1.235
 1692SOL     OW 5105   1.902   0.544   1.114
 1692SOL    HW1 5106   1.987   0.511   1.073
 1692SOL    HW2 5107   1.915   0.559   1.212
 1693SOL     OW 5108   2.051   0.520   1.722
 1693SOL    HW1 5109   2.110   0.480   1.652
 1693SOL    HW2 5110   1.993   0.591   1.681
 1694SOL     OW 5111   3.231   0.950   1.660
 1694SOL    HW1 5112   3.270   1.039   1.680
 1694SOL    HW2 5113   3.241   0.930   1.563
 1695SOL     OW 5114   2.677   0.572   0.325
 1695SOL    HW1 5115   2.684   0.483   0.279
 1695SOL    HW2 5116   2.583   0.606   0.317
 1696SOL     OW 5117   3.519   0.604   1.206
 1696SOL    HW1 5118   3.481   0.535   1.268
 1696SOL    HW2 5119   3.601   0.568   1.162
 1697SOL     OW 5120   2.114   1.564   1.744
 1697SOL    HW1 5121   2.084   1.621   1.820
 1697SOL    HW2 5122   2.107   1.467   1.770
 1698SOL     OW 5123   2.533   0.464   1.269
 1698SOL    HW1 5124   2.499   0.375   1.239
 1698SOL    HW2 5125   2.559   0.518   1.189
 1699SOL     OW 5126   2.792   1.678   1.465
 1699SOL    HW1 5127   2.768   1.660   1.370
 1699SOL    HW2 5128   2.822   1.772   1.475
 1700SOL     OW 5129   2.335   0.500   0.191
 1700SOL    HW1 5130   2.396   0.580   0.195
 1700SOL    HW2 5131   2.240   0.531   0.198
 1701SOL     OW 5132   2.021   1.137   1.466
 1701SOL    HW1 5133   2.043   1.076   1.542
 1701SOL    HW2 5134   2.031   1.088   1.380
 1702SOL     OW 5135   3.209   1.059   1.234
 1702SOL    HW1 5136   3.233   0.996   1.160
 1702SOL    HW2 5137   3.119   1.099   1.216
 1703SOL     OW 5138   3.164   0.855   0.309
 1703SOL    HW1 5139   3.078   0.824   0.351
 1703SOL    HW2 5140   3.160   0.841   0.210
 1704SOL     OW 5141   3.621   1.747   1.154
 1704SOL    HW1 5142   3.682   1.777   1.081
 1704SOL    HW2 5143   3.583   1.658   1.132
 1705SOL     OW 5144   3.114   1.731   1.128
 1705SOL    HW1 5145   3.198   1.736   1.074
 1705SOL    HW2 5146   3.091   1.635   1.146
 1706SOL     OW 5147   1.945   1.258   1.022
 1706SOL    HW1 5148   1.940   1.257   1.122
 1706SOL    HW2 5149   1.862   1.217   0.984
 1707SOL     OW 5150   2.550   1.662   1.716
 1707SOL    HW1 5151   2.494   1.743   1.725
 1707SOL    HW2 5152   2.602   1.666   1.630
 1708SOL     OW 5153   2.765   0.086   0.133
 1708SOL    HW1 5154   2.816   0.087   0.047
 1708SOL    HW2 5155   2.821   0.044   0.204
 1709SOL     OW 5156   3.588   0.135   0.523
 1709SOL    HW1 5157   3.661   0.118   0.456
 1709SOL    HW2 5158   3.557   0.048   0.561
 1710SOL     OW 5159   3.250   1.573   0.477
 1710SOL    HW1 5160   3.317   1.585   0.403
 1710SOL    HW2 5161   3.210   1.662   0.500
 1711SOL     OW 5162   1.992   1.794   1.851
 1711SOL    HW1 5163   1.951   1.720   1.904
 1711SOL    HW2 5164   2.056   1.845   1.909
 1712SOL     OW 5165   3.142   0.927   0.672
 1712SOL    HW1 5166   3.202   0.846   0.674
 1712SOL    HW2 5167   3.182   0.996   0.612
 1713SOL     OW 5168   2.692   1.273   1.422
 1713SOL    HW1 5169   2.687   1.306   1.517
 1713SOL    HW2 5170   2.606   1.292   1.376
 1714SOL     OW 5171   2.534   1.616   0.154
 1714SOL    HW1 5172   2.543   1.626   0.055
 1714SOL    HW2 5173   2.494   1.527   0.175
 1715SOL     OW 5174   3.512   1.720   1.394
 1715SOL    HW1 5175   3.565   1.730   1.310
 1715SOL    HW2 5176   3.485   1.810   1.428
 1716SOL     OW 5177   3.703   0.175   0.963
 1716SOL    HW1 5178   3.742   0.090   0.927
 1716SOL    HW2 5179   3.605   0.177   0.944
 1717SOL     OW 5180   2.125   0.326   0.720
 1717SOL    HW1 5181   2.046   0.377   0.686
 1717SOL    HW2 5182   2.116   0.311   0.818
 1718SOL     OW 5183   3.056   1.612   0.031
 1718SOL    HW1 5184   3.062   1.519   0.068
 1718SOL    HW2 5185   2.997   1.612  -0.049
 1719SOL     OW 5186   2.684   1.002   1.372
 1719SOL    HW1 5187   2.724   1.001   1.280
 1719SOL    HW2 5188   2.694   1.094   1.412
 1720SOL     OW 5189   2.778   0.910   0.291
 1720SOL    HW1 5190   2.841   0.948   0.223
 1720SOL    HW2 5191   2.818   0.827   0.330
 1721SOL     OW 5192   3.366   1.607   0.044
 1721SOL    HW1 5193   3.274   1.644   0.051
 1721SOL    HW2 5194   3.404   1.627  -0.046
 1722SOL     OW 5195   2.234   1.288   1.490
 1722SOL    HW1 5196   2.221   1.381   1.456
 1722SOL    HW2 5197   2.150   1.236   1.477
 1723SOL     OW 5198   3.476   1.292   1.289
 1723SOL    HW1 5199   3.536   1.295   1.369
 1723SOL    HW2 5200   3.401   1.356   1.302
 1724SOL     OW 5201   2.901   1.098   0.696
 1724SOL    HW1 5202   2.831   1.051   0.750
 1724SOL    HW2 5203   2.960   1.030   0.653
 1725SOL     OW 5204   2.876   0.236   0.971
 1725SOL    HW1 5205   2.868   0.200   0.878
 1725SOL    HW2 5206   2.874   0.160   1.036
 1726SOL     OW 5207   2.452   1.487   0.491
 1726SOL    HW1 5208   2.494   1.429   0.421
 1726SOL    HW2 5209   2.408   1.566   0.447
 1727SOL     OW 5210   3.571   0.385   1.381
 1727SOL    HW1 5211   3.644   0.454   1.385
 1727SOL    HW2 5212   3.599   0.310   1.322
 1728SOL     OW 5213   2.117   1.348   0.290
 1728SOL    HW1 5214   2.021   1.349   0.263
 1728SOL    HW2 5215   2.129   1.401   0.374
 1729SOL     OW 5216   1.967   1.013   1.726
 1729SOL    HW1 5217   1.890   0.980   1.780
 1729SOL    HW2 5218   2.052   0.983   1.768
 1730SOL     OW 5219   2.534   0.203   1.489
 1730SOL    HW1 5220   2.624   0.187   1.449
 1730SOL    HW2 5221   2.542   0.208   1.588
 1731SOL     OW 5222   3.302   0.856   1.398
 1731SOL    HW1 5223   3.245   0.908   1.335
 1731SOL    HW2 5224   3.398   0.868   1.374
 1732SOL     OW 5225   1.934   0.166   0.318
 1732SOL    HW1 5226   1.917   0.249   0.264
 1732SOL    HW2 5227   2.024   0.129   0.296
 1733SOL     OW 5228   3.045   1.335   0.119
 1733SOL    HW1 5229   2.946   1.324   0.121
 1733SOL    HW2 5230   3.079   1.350   0.212
 1734SOL     OW 5231   2.475   0.842   1.431
 1734SOL    HW1 5232   2.531   0.923   1.414
 1734SOL    HW2 5233   2.534   0.762   1.434
 1735SOL     OW 5234   3.355   1.767   0.959
 1735SOL    HW1 5235   3.388   1.831   0.890
 1735SOL    HW2 5236   3.421   1.761   1.034
 1736SOL     OW 5237   2.578   0.565   1.708
 1736SOL    HW1 5238   2.597   0.630   1.782
 1736SOL    HW2 5239   2.638   0.485   1.717
 1737SOL     OW 5240   3.312   1.220   1.633
 1737SOL    HW1 5241   3.303   1.210   1.732
 1737SOL    HW2 5242   3.408   1.213   1.607
 1738SOL     OW 5243   2.252   1.741   1.560
 1738SOL    HW1 5244   2.161   1.782   1.558
 1738SOL    HW2 5245   2.245   1.647   1.592
 1739SOL     OW 5246   3.536   0.883   1.254
 1739SOL    HW1 5247   3.509   0.794   1.217
 1739SOL    HW2 5248   3.537   0.951   1.181
 1740SOL     OW 5249   3.087   0.325   0.449
 1740SOL    HW1 5250   3.152   0.251   0.438
 1740SOL    HW2 5251   3.107   0.375   0.533
 1741SOL     OW 5252   2.456   0.745   0.652
 1741SOL    HW1 5253   2.506   0.830   0.633
 1741SOL    HW2 5254   2.368   0.747   0.604
 1742SOL     OW 5255   3.639   0.342   1.642
 1742SOL    HW1 5256   3.622   0.373   1.548
 1742SOL    HW2 5257   3.555   0.305   1.680
 1743SOL     OW 5258   3.592   0.934   1.517
 1743SOL    HW1 5259   3.630   1.025   1.532
 1743SOL    HW2 5260   3.584   0.917   1.418
 1744SOL     OW 5261   2.721   1.374   0.016
 1744SOL    HW1 5262   2.675   1.389   0.104
 1744SOL    HW2 5263   2.765   1.459  -0.014
 1745SOL     OW 5264   2.523   1.790   0.953
 1745SOL    HW1 5265   2.477   1.878   0.940
 1745SOL    HW2 5266   2.622   1.802   0.946
 1746SOL     OW 5267   2.721   0.956   0.861
 1746SOL    HW1 5268   2.775   0.887   0.909
 1746SOL    HW2 5269   2.689   1.025   0.927
 1747SOL     OW 5270   2.945   0.984   0.087
 1747SOL    HW1 5271   2.922   1.037   0.005
 1747SOL    HW2 5272   3.026   0.928   0.068
 1748SOL     OW 5273   3.723   1.569   0.851
 1748SOL    HW1 5274   3.652   1.557   0.781
 1748SOL    HW2 5275   3.724   1.490   0.911
 1749SOL     OW 5276   2.083   1.314   1.844
 1749SOL    HW1 5277   2.018   1.241   1.823
 1749SOL    HW2 5278   2.087   1.328   1.942
 1750SOL     OW 5279   1.941   1.240   0.653
 1750SOL    HW1 5280   1.940   1.193   0.741
 1750SOL    HW2 5281   2.023   1.212   0.602
 1751SOL     OW 5282   2.534   1.391   1.624
 1751SOL    HW1 5283   2.456   1.341   1.662
 1751SOL    HW2 5284   2.531   1.486   1.655
 1752SOL     OW 5285   3.686   0.192   1.227
 1752SOL    HW1 5286   3.682   0.102   1.271
 1752SOL    HW2 5287   3.689   0.181   1.128
 1753SOL     OW 5288   2.290   0.424   0.520
 1753SOL    HW1 5289   2.320   0.352   0.458
 1753SOL    HW2 5290   2.251   0.384   0.603
 1754SOL     OW 5291   3.567   1.487   1.104
 1754SOL    HW1 5292   3.474   1.462   1.077
 1754SOL    HW2 5293   3.593   1.437   1.186
 1755SOL     OW 5294   2.179   0.547   1.280
 1755SOL    HW1 5295   2.217   0.488   1.352
 1755SOL    HW2 5296   2.219   0.521   1.192
 1756SOL     OW 5297   2.674   1.586   0.687
 1756SOL    HW1 5298   2.706   1.596   0.593
 1756SOL    HW2 5299   2.595   1.524   0.689
 1757SOL     OW 5300   3.286   0.214   1.112
 1757SOL    HW1 5301   3.338   0.149   1.167
 1757SOL    HW2 5302   3.237   0.277   1.173
 1758SOL     OW 5303   2.863   0.034   1.154
 1758SOL    HW1 5304   2.800  -0.038   1.123
 1758SOL    HW2 5305   2.956  -0.002   1.154
 1759SOL     OW 5306   2.632   1.330   0.301
 1759SOL    HW1 5307   2.586   1.243   0.318
 1759SOL    HW2 5308   2.723   1.327   0.342
 1760SOL     OW 5309   2.480   1.567   1.284
 1760SOL    HW1 5310   2.475   1.649   1.341
 1760SOL    HW2 5311   2.569   1.564   1.239
 1761SOL     OW 5312   3.214   0.052   0.168
 1761SOL    HW1 5313   3.249   0.011   0.084
 1761SOL    HW2 5314   3.124   0.014   0.188
 1762SOL     OW 5315   3.162   0.453   0.691
 1762SOL    HW1 5316   3.103   0.533   0.695
 1762SOL    HW2 5317   3.177   0.418   0.784
 1763SOL     OW 5318   3.455   0.221   0.882
 1763SOL    HW1 5319   3.371   0.220   0.936
 1763SOL    HW2 5320   3.457   0.304   0.826
 1764SOL     OW 5321   1.901   1.077   0.300
 1764SOL    HW1 5322   2.000   1.066   0.291
 1764SOL    HW2 5323   1.861   0.991   0.332
 1765SOL     OW 5324   2.737   1.646   0.337
 1765SOL    HW1 5325   2.660   1.611   0.283
 1765SOL    HW2 5326   2.705   1.717   0.399
 1766SOL     OW 5327   2.092   0.628   1.975
 1766SOL    HW1 5328   1.999   0.626   2.012
 1766SOL    HW2 5329   2.093   0.589   1.883
 1767SOL     OW 5330   2.087   0.275   2.858
 1767SOL    HW1 5331   2.122   0.258   2.950
 1767SOL    HW2 5332   1.999   0.230   2.846
 1768SOL     OW 5333   1.881   0.368   2.509
 1768SOL    HW1 5334   1.799   0.411   2.548
 1768SOL    HW2 5335   1.853   0.295   2.446
 1769SOL     OW 5336   2.431   1.275   3.027
 1769SOL    HW1 5337   2.338   1.268   2.990
 1769SOL    HW2 5338   2.442   1.364   3.071
 1770SOL     OW 5339   3.417   1.511   2.565
 1770SOL    HW1 5340   3.360   1.495   2.646
 1770SOL    HW2 5341   3.358   1.521   2.485
 1771SOL     OW 5342   2.997   0.703   2.579
 1771SOL    HW1 5343   3.054   0.781   2.554
 1771SOL    HW2 5344   2.937   0.729   2.655
 1772SOL     OW 5345   3.617   0.607   2.093
 1772SOL    HW1 5346   3.605   0.594   1.994
 1772SOL    HW2 5347   3.587   0.526   2.142
 1773SOL     OW 5348   2.630   1.144   2.885
 1773SOL    HW1 5349   2.552   1.161   2.945
 1773SOL    HW2 5350   2.664   1.231   2.849
 1774SOL     OW 5351   2.712   0.798   3.685
 1774SOL    HW1 5352   2.708   0.874   3.750
 1774SOL    HW2 5353   2.734   0.834   3.594
 1775SOL     OW 5354   2.547   1.012   2.527
 1775SOL    HW1 5355   2.616   0.996   2.597
 1775SOL    HW2 5356   2.474   1.069   2.565
 1776SOL     OW 5357   2.548   1.161   3.665
 1776SOL    HW1 5358   2.608   1.240   3.679
 1776SOL    HW2 5359   2.462   1.192   3.624
 1777SOL     OW 5360   2.197   1.435   2.923
 1777SOL    HW1 5361   2.119   1.404   2.870
 1777SOL    HW2 5362   2.255   1.493   2.866
 1778SOL     OW 5363   3.322   1.505   3.201
 1778SOL    HW1 5364   3.346   1.599   3.227
 1778SOL    HW2 5365   3.306   1.451   3.283
 1779SOL     OW 5366   2.300   0.392   3.361
 1779SOL    HW1 5367   2.382   0.336   3.370
 1779SOL    HW2 5368   2.219   0.334   3.365
 1780SOL     OW 5369   3.465   0.447   2.599
 1780SOL    HW1 5370   3.391   0.493   2.549
 1780SOL    HW2 5371   3.516   0.515   2.652
 1781SOL     OW 5372   2.093   1.713   2.345
 1781SOL    HW1 5373   2.127   1.790   2.399
 1781SOL    HW2 5374   2.137   1.713   2.255
 1782SOL     OW 5375   2.989   1.341   3.552
 1782SOL    HW1 5376   3.036   1.341   3.640
 1782SOL    HW2 5377   2.941   1.254   3.541
 1783SOL     OW 5378   2.092   1.434   2.400
 1783SOL    HW1 5379   2.066   1.530   2.400
 1783SOL    HW2 5380   2.021   1.380   2.445
 1784SOL     OW 5381   2.102   1.091   2.748
 1784SOL    HW1 5382   2.116   1.007   2.800
 1784SOL    HW2 5383   2.047   1.155   2.803
 1785SOL     OW 5384   2.482   1.786   3.301
 1785SOL    HW1 5385   2.390   1.769   3.336
 1785SOL    HW2 5386   2.510   1.878   3.327
 1786SOL     OW 5387   2.468   0.964   1.985
 1786SOL    HW1 5388   2.475   1.048   1.931
 1786SOL    HW2 5389   2.514   0.977   2.073
 1787SOL     OW 5390   3.456   0.114   3.342
 1787SOL    HW1 5391   3.438   0.181   3.270
 1787SOL    HW2 5392   3.453   0.160   3.431
 1788SOL     OW 5393   1.984   0.643   2.425
 1788SOL    HW1 5394   1.939   0.555   2.442
 1788SOL    HW2 5395   1.983   0.697   2.509
 1789SOL     OW 5396   3.704   1.767   2.221
 1789SOL    HW1 5397   3.758   1.738   2.301
 1789SOL    HW2 5398   3.734   1.857   2.192
 1790SOL     OW 5399   1.889   1.596   1.979
 1790SOL    HW1 5400   1.870   1.500   2.000
 1790SOL    HW2 5401   1.856   1.654   2.054
 1791SOL     OW 5402   3.551   0.922   2.474
 1791SOL    HW1 5403   3.646   0.893   2.482
 1791SOL    HW2 5404   3.543   0.987   2.399
 1792SOL     OW 5405   3.503   1.108   2.294
 1792SOL    HW1 5406   3.589   1.110   2.242
 1792SOL    HW2 5407   3.517   1.155   2.382
 1793SOL     OW 5408   1.975   0.737   3.459
 1793SOL    HW1 5409   2.063   0.724   3.504
 1793SOL    HW2 5410   1.962   0.834   3.437
 1794SOL     OW 5411   2.475   1.365   2.588
 1794SOL    HW1 5412   2.426   1.278   2.597
 1794SOL    HW2 5413   2.452   1.408   2.501
 1795SOL     OW 5414   3.155   1.228   3.285
 1795SOL    HW1 5415   3.192   1.155   3.227
 1795SOL    HW2 5416   3.207   1.233   3.370
 1796SOL     OW 5417   2.671   0.004   2.364
 1796SOL    HW1 5418   2.711   0.095   2.355
 1796SOL    HW2 5419   2.571   0.012   2.370
 1797SOL     OW 5420   2.059   0.976   3.126
 1797SOL    HW1 5421   2.148   0.931   3.112
 1797SOL    HW2 5422   1.986   0.911   3.107
 1798SOL     OW 5423   3.387   0.999   2.052
 1798SOL    HW1 5424   3.324   0.923   2.065
 1798SOL    HW2 5425   3.435   1.017   2.138
 1799SOL     OW 5426   3.049   1.792   3.478
 1799SOL    HW1 5427   3.073   1.852   3.402
 1799SOL    HW2 5428   3.056   1.697   3.448
 1800SOL     OW 5429   2.179   0.251   3.663
 1800SOL    HW1 5430   2.250   0.322   3.669
 1800SOL    HW2 5431   2.091   0.290   3.691
 1801SOL     OW 5432   3.328   1.417   2.815
 1801SOL    HW1 5433   3.269   1.423   2.895
 1801SOL    HW2 5434   3.313   1.329   2.769
 1802SOL     OW 5435   3.529   1.714   2.434
 1802SOL    HW1 5436   3.488   1.691   2.346
 1802SOL    HW2 5437   3.511   1.640   2.499
 1803SOL     OW 5438   2.460   0.729   2.132
 1803SOL    HW1 5439   2.484   0.798   2.064
 1803SOL    HW2 5440   2.382   0.762   2.186
 1804SOL     OW 5441   3.143   0.345   2.806
 1804SOL    HW1 5442   3.057   0.295   2.793
 1804SOL    HW2 5443   3.205   0.291   2.862
 1805SOL     OW 5444   3.438   1.662   2.169
 1805SOL    HW1 5445   3.527   1.708   2.172
 1805SOL    HW2 5446   3.417   1.638   2.074
 1806SOL     OW 5447   2.669   0.605   3.327
 1806SOL    HW1 5448   2.622   0.602   3.416
 1806SOL    HW2 5449   2.618   0.550   3.261
 1807SOL     OW 5450   3.256   0.469   3.536
 1807SOL    HW1 5451   3.236   0.512   3.624
 1807SOL    HW2 5452   3.334   0.407   3.545
 1808SOL     OW 5453   2.835   0.890   3.434
 1808SOL    HW1 5454   2.881   0.806   3.405
 1808SOL    HW2 5455   2.779   0.924   3.359
 1809SOL     OW 5456   2.853   0.410   3.104
 1809SOL    HW1 5457   2.776   0.444   3.158
 1809SOL    HW2 5458   2.819   0.359   3.025
 1810SOL     OW 5459   2.903   0.701   2.291
 1810SOL    HW1 5460   2.929   0.697   2.387
 1810SOL    HW2 5461   2.818   0.650   2.277
 1811SOL     OW 5462   1.938   0.811   2.651
 1811SOL    HW1 5463   2.037   0.799   2.660
 1811SOL    HW2 5464   1.914   0.906   2.672
 1812SOL     OW 5465   1.992   1.821   3.433
 1812SOL    HW1 5466   1.982   1.806   3.532
 1812SOL    HW2 5467   1.906   1.857   3.397
 1813SOL     OW 5468   2.727   0.348   2.057
 1813SOL    HW1 5469   2.786   0.411   2.008
 1813SOL    HW2 5470   2.746   0.254   2.028
 1814SOL     OW 5471   3.581   0.585   3.693
 1814SOL    HW1 5472   3.555   0.674   3.657
 1814SOL    HW2 5473   3.579   0.517   3.620
 1815SOL     OW 5474   3.224   1.144   2.407
 1815SOL    HW1 5475   3.307   1.115   2.359
 1815SOL    HW2 5476   3.175   1.211   2.351
 1816SOL     OW 5477   2.412   0.196   2.747
 1816SOL    HW1 5478   2.407   0.191   2.847
 1816SOL    HW2 5479   2.414   0.292   2.718
 1817SOL     OW 5480   2.870   1.456   2.339
 1817SOL    HW1 5481   2.824   1.528   2.287
 1817SOL    HW2 5482   2.866   1.476   2.437
 1818SOL     OW 5483   2.213   1.801   2.715
 1818SOL    HW1 5484   2.263   1.715   2.721
 1818SOL    HW2 5485   2.278   1.878   2.712
 1819SOL     OW 5486   3.657   1.066   2.735
 1819SOL    HW1 5487   3.595   1.051   2.659
 1819SOL    HW2 5488   3.605   1.077   2.820
 1820SOL     OW 5489   3.089   1.550   3.368
 1820SOL    HW1 5490   3.095   1.473   3.432
 1820SOL    HW2 5491   3.037   1.524   3.288
 1821SOL     OW 5492   2.183   0.943   2.104
 1821SOL    HW1 5493   2.265   0.982   2.062
 1821SOL    HW2 5494   2.156   0.861   2.055
 1822SOL     OW 5495   3.320   0.735   2.590
 1822SOL    HW1 5496   3.315   0.670   2.665
 1822SOL    HW2 5497   3.400   0.794   2.603
 1823SOL     OW 5498   2.323   1.266   3.589
 1823SOL    HW1 5499   2.273   1.267   3.503
 1823SOL    HW2 5500   2.260   1.248   3.665
 1824SOL     OW 5501   2.973   1.776   2.099
 1824SOL    HW1 5502   2.913   1.714   2.149
 1824SOL    HW2 5503   3.004   1.732   2.014
 1825SOL     OW 5504   2.064   0.285   3.360
 1825SOL    HW1 5505   1.984   0.345   3.347
 1825SOL    HW2 5506   2.054   0.236   3.446
 1826SOL     OW 5507   3.494   1.377   1.943
 1826SOL    HW1 5508   3.462   1.471   1.933
 1826SOL    HW2 5509   3.418   1.314   1.931
 1827SOL     OW 5510   2.326   1.743   2.185
 1827SOL    HW1 5511   2.359   1.782   2.271
 1827SOL    HW2 5512   2.402   1.736   2.120
 1828SOL     OW 5513   3.262   0.107   2.288
 1828SOL    HW1 5514   3.238   0.070   2.198
 1828SOL    HW2 5515   3.361   0.123   2.292
 1829SOL     OW 5516   2.111   1.785   3.103
 1829SOL    HW1 5517   2.168   1.720   3.153
 1829SOL    HW2 5518   2.095   1.752   3.010
 1830SOL     OW 5519   2.802   1.698   2.766
 1830SOL    HW1 5520   2.882   1.641   2.787
 1830SOL    HW2 5521   2.753   1.658   2.689
 1831SOL     OW 5522   2.244   0.700   2.342
 1831SOL    HW1 5523   2.289   0.610   2.339
 1831SOL    HW2 5524   2.150   0.689   2.375
 1832SOL     OW 5525   3.409   0.222   3.591
 1832SOL    HW1 5526   3.404   0.259   3.683
 1832SOL    HW2 5527   3.337   0.153   3.579
 1833SOL     OW 5528   2.476   0.122   1.979
 1833SOL    HW1 5529   2.574   0.100   1.986
 1833SOL    HW2 5530   2.445   0.105   1.886
 1834SOL     OW 5531   2.643   0.264   3.611
 1834SOL    HW1 5532   2.710   0.203   3.654
 1834SOL    HW2 5533   2.570   0.283   3.676
 1835SOL     OW 5534   2.750   1.514   3.057
 1835SOL    HW1 5535   2.727   1.489   2.963
 1835SOL    HW2 5536   2.811   1.445   3.096
 1836SOL     OW 5537   3.213   0.590   3.295
 1836SOL    HW1 5538   3.241   0.547   3.380
 1836SOL    HW2 5539   3.238   0.686   3.296
 1837SOL     OW 5540   2.665   1.402   2.786
 1837SOL    HW1 5541   2.755   1.416   2.744
 1837SOL    HW2 5542   2.594   1.404   2.715
 1838SOL     OW 5543   2.784   0.503   2.761
 1838SOL    HW1 5544   2.759   0.494   2.665
 1838SOL    HW2 5545   2.832   0.421   2.792
 1839SOL     OW 5546   2.401   0.064   2.374
 1839SOL    HW1 5547   2.320   0.065   2.432
 1839SOL    HW2 5548   2.404   0.147   2.319
 1840SOL     OW 5549   3.296   1.188   1.903
 1840SOL    HW1 5550   3.328   1.112   1.960
 1840SOL    HW2 5551   3.204   1.215   1.933
 1841SOL     OW 5552   2.159   0.035   2.033
 1841SOL    HW1 5553   2.208   0.119   2.012
 1841SOL    HW2 5554   2.221  -0.030   2.078
 1842SOL     OW 5555   2.797   0.236   2.342
 1842SOL    HW1 5556   2.749   0.277   2.264
 1842SOL    HW2 5557   2.896   0.234   2.323
 1843SOL     OW 5558   2.938   0.683   3.326
 1843SOL    HW1 5559   2.858   0.622   3.329
 1843SOL    HW2 5560   3.019   0.630   3.302
 1844SOL     OW 5561   3.089   1.570   2.655
 1844SOL    HW1 5562   3.110   1.644   2.590
 1844SOL    HW2 5563   3.157   1.570   2.728
 1845SOL     OW 5564   2.321   1.152   2.603
 1845SOL    HW1 5565   2.250   1.125   2.668
 1845SOL    HW2 5566   2.295   1.124   2.510
 1846SOL     OW 5567   3.133   1.797   2.453
 1846SOL    HW1 5568   3.177   1.861   2.389
 1846SOL    HW2 5569   3.083   1.849   2.523
 1847SOL     OW 5570   2.894   0.549   1.878
 1847SOL    HW1 5571   2.853   0.631   1.839
 1847SOL    HW2 5572   2.958   0.575   1.951
 1848SOL     OW 5573   1.940   0.556   3.248
 1848SOL    HW1 5574   2.032   0.555   3.207
 1848SOL    HW2 5575   1.934   0.630   3.315
 1849SOL     OW 5576   2.423   0.222   3.009
 1849SOL    HW1 5577   2.461   0.138   3.046
 1849SOL    HW2 5578   2.335   0.241   3.053
 1850SOL     OW 5579   2.728   0.454   2.504
 1850SOL    HW1 5580   2.696   0.526   2.442
 1850SOL    HW2 5581   2.752   0.373   2.451
 1851SOL     OW 5582   2.879   0.039   2.615
 1851SOL    HW1 5583   2.807   0.044   2.546
 1851SOL    HW2 5584   2.855  -0.030   2.684
 1852SOL     OW 5585   3.291   1.173   2.729
 1852SOL    HW1 5586   3.236   1.089   2.722
 1852SOL    HW2 5587   3.317   1.202   2.637
 1853SOL     OW 5588   3.328   0.590   2.854
 1853SOL    HW1 5589   3.298   0.495   2.861
 1853SOL    HW2 5590   3.401   0.606   2.920
 1854SOL     OW 5591   3.719   0.833   2.239
 1854SOL    HW1 5592   3.761   0.769   2.303
 1854SOL    HW2 5593   3.681   0.782   2.161
 1855SOL     OW 5594   2.350   1.385   2.036
 1855SOL    HW1 5595   2.263   1.370   2.083
 1855SOL    HW2 5596   2.333   1.411   1.941
 1856SOL     OW 5597   3.526   1.280   2.519
 1856SOL    HW1 5598   3.625   1.288   2.533
 1856SOL    HW2 5599   3.481   1.364   2.550
 1857SOL     OW 5600   3.252   0.575   1.940
 1857SOL    HW1 5601   3.198   0.554   2.021
 1857SOL    HW2 5602   3.343   0.534   1.949
 1858SOL     OW 5603   2.389   0.256   2.190
 1858SOL    HW1 5604   2.416   0.197   2.115
 1858SOL    HW2 5605   2.389   0.351   2.159
 1859SOL     OW 5606   3.616   1.223   3.450
 1859SOL    HW1 5607   3.707   1.184   3.437
 1859SOL    HW2 5608   3.624   1.319   3.474
 1860SOL     OW 5609   2.926   1.347   3.202
 1860SOL    HW1 5610   2.846   1.324   3.257
 1860SOL    HW2 5611   3.009   1.321   3.251
 1861SOL     OW 5612   3.454   1.629   3.487
 1861SOL    HW1 5613   3.481   1.663   3.397
 1861SOL    HW2 5614   3.533   1.591   3.533
 1862SOL     OW 5615   2.973   1.195   2.962
 1862SOL    HW1 5616   2.933   1.239   3.043
 1862SOL    HW2 5617   2.932   1.232   2.879
 1863SOL     OW 5618   3.500   1.099   2.941
 1863SOL    HW1 5619   3.505   1.180   3.000
 1863SOL    HW2 5620   3.414   1.101   2.890
 1864SOL     OW 5621   2.777   0.089   3.264
 1864SOL    HW1 5622   2.802   0.069   3.169
 1864SOL    HW2 5623   2.849   0.145   3.306
 1865SOL     OW 5624   2.842   1.116   3.581
 1865SOL    HW1 5625   2.743   1.122   3.591
 1865SOL    HW2 5626   2.865   1.036   3.525
 1866SOL     OW 5627   2.567   1.050   2.230
 1866SOL    HW1 5628   2.553   1.057   2.329
 1866SOL    HW2 5629   2.651   0.999   2.212
 1867SOL     OW 5630   2.272   0.813   3.113
 1867SOL    HW1 5631   2.358   0.825   3.163
 1867SOL    HW2 5632   2.230   0.726   3.140
 1868SOL     OW 5633   3.136   0.386   3.124
 1868SOL    HW1 5634   3.157   0.460   3.188
 1868SOL    HW2 5635   3.047   0.403   3.081
 1869SOL     OW 5636   1.926   1.564   3.193
 1869SOL    HW1 5637   1.880   1.646   3.159
 1869SOL    HW2 5638   2.024   1.583   3.202
 1870SOL     OW 5639   2.229   1.100   2.363
 1870SOL    HW1 5640   2.222   1.183   2.307
 1870SOL    HW2 5641   2.233   1.020   2.303
 1871SOL     OW 5642   2.428   0.537   2.727
 1871SOL    HW1 5643   2.440   0.603   2.653
 1871SOL    HW2 5644   2.474   0.571   2.810
 1872SOL     OW 5645   3.114   1.348   2.250
 1872SOL    HW1 5646   3.164   1.425   2.290
 1872SOL    HW2 5647   3.019   1.350   2.282
 1873SOL     OW 5648   3.134   1.445   3.004
 1873SOL    HW1 5649   3.181   1.458   3.091
 1873SOL    HW2 5650   3.068   1.371   3.013
 1874SOL     OW 5651   3.444   0.639   2.334
 1874SOL    HW1 5652   3.413   0.700   2.407
 1874SOL    HW2 5653   3.494   0.691   2.265
 1875SOL     OW 5654   2.216   1.510   3.191
 1875SOL    HW1 5655   2.195   1.466   3.104
 1875SOL    HW2 5656   2.313   1.536   3.194
 1876SOL     OW 5657   2.264   0.751   3.460
 1876SOL    HW1 5658   2.332   0.806   3.413
 1876SOL    HW2 5659   2.304   0.663   3.487
 1877SOL     OW 5660   3.449   0.779   3.532
 1877SOL    HW1 5661   3.357   0.817   3.527
 1877SOL    HW2 5662   3.509   0.826   3.467
 1878SOL     OW 5663   2.875   0.105   3.632
 1878SOL    HW1 5664   2.881   0.190   3.580
 1878SOL    HW2 5665   2.907   0.029   3.575
 1879SOL     OW 5666   2.366   0.050   3.602
 1879SOL    HW1 5667   2.324  -0.007   3.532
 1879SOL    HW2 5668   2.300   0.119   3.634
 1880SOL     OW 5669   2.435   0.870   2.891
 1880SOL    HW1 5670   2.479   0.959   2.882
 1880SOL    HW2 5671   2.372   0.870   2.968
 1881SOL     OW 5672   3.222   0.862   2.907
 1881SOL    HW1 5673   3.147   0.862   2.841
 1881SOL    HW2 5674   3.259   0.770   2.916
 1882SOL     OW 5675   3.071   0.525   2.137
 1882SOL    HW1 5676   3.084   0.441   2.191
 1882SOL    HW2 5677   3.042   0.599   2.197
 1883SOL     OW 5678   2.169   0.213   3.093
 1883SOL    HW1 5679   2.146   0.250   3.183
 1883SOL    HW2 5680   2.139   0.118   3.087
 1884SOL     OW 5681   1.899   1.310   3.144
 1884SOL    HW1 5682   1.952   1.261   3.212
 1884SOL    HW2 5683   1.921   1.408   3.149
 1885SOL     OW 5684   2.594   0.634   2.926
 1885SOL    HW1 5685   2.653   0.608   2.850
 1885SOL    HW2 5686   2.566   0.730   2.915
 1886SOL     OW 5687   3.590   0.935   3.716
 1886SOL    HW1 5688   3.544   0.928   3.627
 1886SOL    HW2 5689   3.528   0.979   3.782
 1887SOL     OW 5690   2.169   0.063   2.480
 1887SOL    HW1 5691   2.158   0.157   2.513
 1887SOL    HW2 5692   2.164   0.000   2.557
 1888SOL     OW 5693   3.484   0.367   2.236
 1888SOL    HW1 5694   3.486   0.291   2.300
 1888SOL    HW2 5695   3.436   0.444   2.276
 1889SOL     OW 5696   2.885   0.766   2.828
 1889SOL    HW1 5697   2.900   0.787   2.924
 1889SOL    HW2 5698   2.855   0.671   2.819
 1890SOL     OW 5699   2.842   1.573   3.562
 1890SOL    HW1 5700   2.822   1.617   3.474
 1890SOL    HW2 5701   2.881   1.482   3.546
 1891SOL     OW 5702   3.721   1.518   3.467
 1891SOL    HW1 5703   3.735   1.545   3.372
 1891SOL    HW2 5704   3.804   1.540   3.520
 1892SOL     OW 5705   2.212   0.898   3.666
 1892SOL    HW1 5706   2.288   0.942   3.714
 1892SOL    HW2 5707   2.247   0.851   3.584
 1893SOL     OW 5708   3.402   0.274   1.987
 1893SOL    HW1 5709   3.341   0.199   2.010
 1893SOL    HW2 5710   3.424   0.326   2.070
 1894SOL     OW 5711   3.165   0.838   1.904
 1894SOL    HW1 5712   3.199   0.745   1.919
 1894SOL    HW2 5713   3.183   0.865   1.809
 1895SOL     OW 5714   2.930   1.333   2.711
 1895SOL    HW1 5715   2.937   1.249   2.656
 1895SOL    HW2 5716   2.992   1.402   2.675
 1896SOL     OW 5717   2.181   0.810   2.811
 1896SOL    HW1 5718   2.274   0.846   2.816
 1896SOL    HW2 5719   2.175   0.725   2.863
 1897SOL     OW 5720   2.201   0.509   2.868
 1897SOL    HW1 5721   2.149   0.426   2.851
 1897SOL    HW2 5722   2.278   0.514   2.804
 1898SOL     OW 5723   3.000   0.380   3.540
 1898SOL    HW1 5724   2.955   0.443   3.604
 1898SOL    HW2 5725   3.093   0.411   3.523
 1899SOL     OW 5726   3.022   0.207   3.339
 1899SOL    HW1 5727   3.022   0.271   3.416
 1899SOL    HW2 5728   3.050   0.255   3.256
 1900SOL     OW 5729   1.870   1.326   2.062
 1900SOL    HW1 5730   1.777   1.347   2.031
 1900SOL    HW2 5731   1.880   1.227   2.075
 1901SOL     OW 5732   1.950   1.801   2.789
 1901SOL    HW1 5733   1.908   1.715   2.762
 1901SOL    HW2 5734   2.044   1.804   2.755
 1902SOL     OW 5735   2.366   1.568   2.772
 1902SOL    HW1 5736   2.432   1.642   2.781
 1902SOL    HW2 5737   2.410   1.489   2.730
 1903SOL     OW 5738   2.864   0.796   3.100
 1903SOL    HW1 5739   2.905   0.764   3.186
 1903SOL    HW2 5740   2.768   0.769   3.097
 1904SOL     OW 5741   1.902   0.544   2.976
 1904SOL    HW1 5742   1.987   0.511   2.935
 1904SOL    HW2 5743   1.915   0.559   3.074
 1905SOL     OW 5744   2.051   0.520   3.584
 1905SOL    HW1 5745   2.110   0.480   3.514
 1905SOL    HW2 5746   1.993   0.591   3.543
 1906SOL     OW 5747   3.231   0.950   3.522
 1906SOL    HW1 5748   3.270   1.039   3.542
 1906SOL    HW2 5749   3.241   0.930   3.425
 1907SOL     OW 5750   2.677   0.572   2.187
 1907SOL    HW1 5751   2.684   0.483   2.141
 1907SOL    HW2 5752   2.583   0.606   2.179
 1908SOL     OW 5753   3.519   0.604   3.068
 1908SOL    HW1 5754   3.481   0.535   3.130
 1908SOL    HW2 5755   3.601   0.568   3.024
 1909SOL     OW 5756   2.114   1.564   3.606
 1909SOL    HW1 5757   2.084   1.621   3.682
 1909SOL    HW2 5758   2.107   1.467   3.632
 1910SOL     OW 5759   2.533   0.464   3.131
 1910SOL    HW1 5760   2.499   0.375   3.101
 1910SOL    HW2 5761   2.559   0.518   3.051
 1911SOL     OW 5762   2.792   1.678   3.327
 1911SOL    HW1 5763   2.768   1.660   3.232
 1911SOL    HW2 5764   2.822   1.772   3.337
 1912SOL     OW 5765   2.335   0.500   2.053
 1912SOL    HW1 5766   2.396   0.580   2.057
 1912SOL    HW2 5767   2.240   0.531   2.060
 1913SOL     OW 5768   2.021   1.137   3.328
 1913SOL    HW1 5769   2.043   1.076   3.404
 1913SOL    HW2 5770   2.031   1.088   3.242
 1914SOL     OW 5771   3.209   1.059   3.096
 1914SOL    HW1 5772   3.233   0.996   3.022
 1914SOL    HW2 5773   3.119   1.099   3.078
 1915SOL     OW 5774   3.164   0.855   2.171
 1915SOL    HW1 5775   3.078   0.824   2.213
 1915SOL    HW2 5776   3.160   0.841   2.072
 1916SOL     OW 5777   3.621   1.747   3.016
 1916SOL    HW1 5778   3.682   1.777   2.943
 1916SOL    HW2 5779   3.583   1.658   2.994
 1917SOL     OW 5780   3.114   1.731   2.990
 1917SOL    HW1 5781   3.198   1.736   2.936
 1917SOL    HW2 5782   3.091   1.635   3.008
 1918SOL     OW 5783   1.945   1.258   2.884
 1918SOL    HW1 5784   1.940   1.257   2.984
 1918SOL    HW2 5785   1.862   1.217   2.846
 1919SOL     OW 5786   2.550   1.662   3.578
 1919SOL    HW1 5787   2.494   1.743   3.587
 1919SOL    HW2 5788   2.602   1.666   3.492
 1920SOL     OW 5789   3.588   0.135   2.385
 1920SOL    HW1 5790   3.661   0.118   2.318
 1920SOL    HW2 5791   3.557   0.048   2.423
 1921SOL     OW 5792   3.250   1.573   2.339
 1921SOL    HW1 5793   3.317   1.585   2.265
 1921SOL    HW2 5794   3.210   1.662   2.362
 1922SOL     OW 5795   1.992   1.794   3.713
 1922SOL    HW1 5796   1.951   1.720   3.766
 1922SOL    HW2 5797   2.056   1.845   3.771
 1923SOL     OW 5798   3.142   0.927   2.534
 1923SOL    HW1 5799   3.202   0.846   2.536
 1923SOL    HW2 5800   3.182   0.996   2.474
 1924SOL     OW 5801   2.692   1.273   3.284
 1924SOL    HW1 5802   2.687   1.306   3.379
 1924SOL    HW2 5803   2.606   1.292   3.238
 1925SOL     OW 5804   2.534   1.616   2.016
 1925SOL    HW1 5805   2.543   1.626   1.917
 1925SOL    HW2 5806   2.494   1.527   2.037
 1926SOL     OW 5807   3.512   1.720   3.256
 1926SOL    HW1 5808   3.565   1.730   3.172
 1926SOL    HW2 5809   3.485   1.810   3.290
 1927SOL     OW 5810   3.703   0.175   2.825
 1927SOL    HW1 5811   3.742   0.090   2.789
 1927SOL    HW2 5812   3.605   0.177   2.806
 1928SOL     OW 5813   2.125   0.326   2.582
 1928SOL    HW1 5814   2.046   0.377   2.548
 1928SOL    HW2 5815   2.116   0.311   2.680
 1929SOL     OW 5816   3.056   1.612   1.893
 1929SOL    HW1 5817   3.062   1.519   1.930
 1929SOL    HW2 5818   2.997   1.612   1.813
 1930SOL     OW 5819   2.684   1.002   3.234
 1930SOL    HW1 5820   2.724   1.001   3.142
 1930SOL    HW2 5821   2.694   1.094   3.274
 1931SOL     OW 5822   2.778   0.910   2.153
 1931SOL    HW1 5823   2.841   0.948   2.085
 1931SOL    HW2 5824   2.818   0.827   2.192
 1932SOL     OW 5825   3.366   1.607   1.906
 1932SOL    HW1 5826   3.274   1.644   1.913
 1932SOL    HW2 5827   3.404   1.627   1.816
 1933SOL     OW 5828   2.234   1.288   3.352
 1933SOL    HW1 5829   2.221   1.381   3.318
 1933SOL    HW2 5830   2.150   1.236   3.339
 1934SOL     OW 5831   3.476   1.292   3.151
 1934SOL    HW1 5832   3.536   1.295   3.231
 1934SOL    HW2 5833   3.401   1.356   3.164
 1935SOL     OW 5834   2.901   1.098   2.558
 1935SOL    HW1 5835   2.831   1.051   2.612
 1935SOL    HW2 5836   2.960   1.030   2.515
 1936SOL     OW 5837   2.876   0.236   2.833
 1936SOL    HW1 5838   2.868   0.200   2.740
 1936SOL    HW2 5839   2.874   0.160   2.898
 1937SOL     OW 5840   2.452   1.487   2.353
 1937SOL    HW1 5841   2.494   1.429   2.283
 1937SOL    HW2 5842   2.408   1.566   2.309
 1938SOL     OW 5843   3.571   0.385   3.243
 1938SOL    HW1 5844   3.644   0.454   3.247
 1938SOL    HW2 5845   3.599   0.310   3.184
 1939SOL     OW 5846   2.117   1.348   2.152
 1939SOL    HW1 5847   2.021   1.349   2.125
 1939SOL    HW2 5848   2.129   1.401   2.236
 1940SOL     OW 5849   1.967   1.013   3.588
 1940SOL    HW1 5850   1.890   0.980   3.642
 1940SOL    HW2 5851   2.052   0.983   3.630
 1941SOL     OW 5852   2.534   0.203   3.351
 1941SOL    HW1 5853   2.624   0.187   3.311
 1941SOL    HW2 5854   2.542   0.208   3.450
 1942SOL     OW 5855   1.937   0.345   1.895
 1942SOL    HW1 5856   1.845   0.317   1.866
 1942SOL    HW2 5857   1.968   0.422   1.839
 1943SOL     OW 5858   3.302   0.856   3.260
 1943SOL    HW1 5859   3.245   0.908   3.197
 1943SOL    HW2 5860   3.398   0.868   3.236
 1944SOL     OW 5861   1.934   0.166   2.180
 1944SOL    HW1 5862   1.917   0.249   2.126
 1944SOL    HW2 5863   2.024   0.129   2.158
 1945SOL     OW 5864   3.045   1.335   1.981
 1945SOL    HW1 5865   2.946   1.324   1.983
 1945SOL    HW2 5866   3.079   1.350   2.074
 1946SOL     OW 5867   2.475   0.842   3.293
 1946SOL    HW1 5868   2.531   0.923   3.276
 1946SOL    HW2 5869   2.534   0.762   3.296
 1947SOL     OW 5870   3.355   1.767   2.821
 1947SOL    HW1 5871   3.388   1.831   2.752
 1947SOL    HW2 5872   3.421   1.761   2.896
 1948SOL     OW 5873   2.578   0.565   3.570
 1948SOL    HW1 5874   2.597   0.630   3.644
 1948SOL    HW2 5875   2.638   0.485   3.579
 1949SOL     OW 5876   3.312   1.220   3.495
 1949SOL    HW1 5877   3.303   1.210   3.594
 1949SOL    HW2 5878   3.408   1.213   3.469
 1950SOL     OW 5879   2.252   1.741   3.422
 1950SOL    HW1 5880   2.161   1.782   3.420
 1950SOL    HW2 5881   2.245   1.647   3.454
 1951SOL     OW 5882   3.536   0.883   3.116
 1951SOL    HW1 5883   3.509   0.794   3.079
 1951SOL    HW2 5884   3.537   0.951   3.043
 1952SOL     OW 5885   3.087   0.325   2.311
 1952SOL    HW1 5886   3.152   0.251   2.300
 1952SOL    HW2 5887   3.107   0.375   2.395
 1953SOL     OW 5888   2.456   0.745   2.514
 1953SOL    HW1 5889   2.506   0.830   2.495
 1953SOL    HW2 5890   2.368   0.747   2.466
 1954SOL     OW 5891   3.639   0.342   3.504
 1954SOL    HW1 5892   3.622   0.373   3.410
 1954SOL    HW2 5893   3.555   0.305   3.542
 1955SOL     OW 5894   3.592   0.934   3.379
 1955SOL    HW1 5895   3.630   1.025   3.394
 1955SOL    HW2 5896   3.584   0.917   3.280
 1956SOL     OW 5897   2.721   1.374   1.878
 1956SOL    HW1 5898   2.675   1.389   1.966
 1956SOL    HW2 5899   2.765   1.459   1.848
 1957SOL     OW 5900   2.523   1.790   2.815
 1957SOL    HW1 5901   2.477   1.878   2.802
 1957SOL    HW2 5902   2.622   1.802   2.808
 1958SOL     OW 5903   2.721   0.956   2.723
 1958SOL    HW1 5904   2.775   0.887   2.771
 1958SOL    HW2 5905   2.689   1.025   2.789
 1959SOL     OW 5906   2.945   0.984   1.949
 1959SOL    HW1 5907   2.922   1.037   1.867
 1959SOL    HW2 5908   3.026   0.928   1.930
 1960SOL     OW 5909   3.723   1.569   2.713
 1960SOL    HW1 5910   3.652   1.557   2.643
 1960SOL    HW2 5911   3.724   1.490   2.773
 1961SOL     OW 5912   2.083   1.314   3.706
 1961SOL    HW1 5913   2.018   1.241   3.685
 1961SOL    HW2 5914   2.087   1.328   3.804
 1962SOL     OW 5915   1.941   1.240   2.515
 1962SOL    HW1 5916   1.940   1.193   2.603
 1962SOL    HW2 5917   2.023   1.212   2.464
 1963SOL     OW 5918   2.534   1.391   3.486
 1963SOL    HW1 5919   2.456   1.341   3.524
 1963SOL    HW2 5920   2.531   1.486   3.517
 1964SOL     OW 5921   3.686   0.192   3.089
 1964SOL    HW1 5922   3.682   0.102   3.133
 1964SOL    HW2 5923   3.689   0.181   2.990
 1965SOL     OW 5924   2.290   0.424   2.382
 1965SOL    HW1 5925   2.320   0.352   2.320
 1965SOL    HW2 5926   2.251   0.384   2.465
 1966SOL     OW 5927   3.567   1.487   2.966
 1966SOL    HW1 5928   3.474   1.462   2.939
 1966SOL    HW2 5929   3.593   1.437   3.048
 1967SOL     OW 5930   2.179   0.547   3.142
 1967SOL    HW1 5931   2.217   0.488   3.214
 1967SOL    HW2 5932   2.219   0.521   3.054
 1968SOL     OW 5933   2.674   1.586   2.549
 1968SOL    HW1 5934   2.706   1.596   2.455
 1968SOL    HW2 5935   2.595   1.524   2.551
 1969SOL     OW 5936   3.286   0.214   2.974
 1969SOL    HW1 5937   3.338   0.149   3.029
 1969SOL    HW2 5938   3.237   0.277   3.035
 1970SOL     OW 5939   2.863   0.034   3.016
 1970SOL    HW1 5940   2.800  -0.038   2.985
 1970SOL    HW2 5941   2.956  -0.002   3.016
 1971SOL     OW 5942   2.632   1.330   2.163
 1971SOL    HW1 5943   2.586   1.243   2.180
 1971SOL    HW2 5944   2.723   1.327   2.204
 1972SOL     OW 5945   2.480   1.567   3.146
 1972SOL    HW1 5946   2.475   1.649   3.203
 1972SOL    HW2 5947   2.569   1.564   3.101
 1973SOL     OW 5948   3.214   0.052   2.030
 1973SOL    HW1 5949   3.249   0.011   1.946
 1973SOL    HW2 5950   3.124   0.014   2.050
 1974SOL     OW 5951   3.162   0.453   2.553
 1974SOL    HW1 5952   3.103   0.533   2.557
 1974SOL    HW2 5953   3.177   0.418   2.646
 1975SOL     OW 5954   3.455   0.221   2.744
 1975SOL    HW1 5955   3.371   0.220   2.798
 1975SOL    HW2 5956   3.457   0.304   2.688
 1976SOL     OW 5957   1.901   1.077   2.162
 1976SOL    HW1 5958   2.000   1.066   2.153
 1976SOL    HW2 5959   1.861   0.991   2.194
 1977SOL     OW 5960   2.737   1.646   2.199
 1977SOL    HW1 5961   2.660   1.611   2.145
 1977SOL    HW2 5962   2.705   1.717   2.261
 1978SOL     OW 5963   2.092   0.628   3.837
 1978SOL    HW1 5964   1.999   0.626   3.874
 1978SOL    HW2 5965   2.093   0.589   3.745
 1979SOL     OW 5966   2.087   0.275   4.720
 1979SOL    HW1 5967   2.122   0.258   4.812
 1979SOL    HW2 5968   1.999   0.230   4.708
 1980SOL     OW 5969   1.881   0.368   4.371
 1980SOL    HW1 5970   1.799   0.411   4.410
 1980SOL    HW2 5971   1.853   0.295   4.308
 1981SOL     OW 5972   2.431   1.275   4.889
 1981SOL    HW1 5973   2.338   1.268   4.852
 1981SOL    HW2 5974   2.442   1.364   4.933
 1982SOL     OW 5975   3.417   1.511   4.427
 1982SOL    HW1 5976   3.360   1.495   4.508
 1982SOL    HW2 5977   3.358   1.521   4.347
 1983SOL     OW 5978   2.997   0.703   4.441
 1983SOL    HW1 5979   3.054   0.781   4.416
 1983SOL    HW2 5980   2.937   0.729   4.517
 1984SOL     OW 5981   3.617   0.607   3.955
 1984SOL    HW1 5982   3.605   0.594   3.856
 1984SOL    HW2 5983   3.587   0.526   4.004
 1985SOL     OW 5984   2.630   1.144   4.747
 1985SOL    HW1 5985   2.552   1.161   4.807
 1985SOL    HW2 5986   2.664   1.231   4.711
 1986SOL     OW 5987   2.547   1.012   4.389
 1986SOL    HW1 5988   2.616   0.996   4.459
 1986SOL    HW2 5989   2.474   1.069   4.427
 1987SOL     OW 5990   2.197   1.435   4.785
 1987SOL    HW1 5991   2.119   1.404   4.732
 1987SOL    HW2 5992   2.255   1.493   4.728
 1988SOL     OW 5993   3.465   0.447   4.461
 1988SOL    HW1 5994   3.391   0.493   4.411
 1988SOL    HW2 5995   3.516   0.515   4.514
 1989SOL     OW 5996   2.093   1.713   4.207
 1989SOL    HW1 5997   2.127   1.790   4.261
 1989SOL    HW2 5998   2.137   1.713   4.117
 1990SOL     OW 5999   2.092   1.434   4.262
 1990SOL    HW1 6000   2.066   1.530   4.262
 1990SOL    HW2 6001   2.021   1.380   4.307
 1991SOL     OW 6002   2.102   1.091   4.610
 1991SOL    HW1 6003   2.116   1.007   4.662
 1991SOL    HW2 6004   2.047   1.155   4.665
 1992SOL     OW 6005   2.468   0.964   3.847
 1992SOL    HW1 6006   2.475   1.048   3.793
 1992SOL    HW2 6007   2.514   0.977   3.935
 1993SOL     OW 6008   1.984   0.643   4.287
 1993SOL    HW1 6009   1.939   0.555   4.304
 1993SOL    HW2 6010   1.983   0.697   4.371
 1994SOL     OW 6011   3.704   1.767   4.083
 1994SOL    HW1 6012   3.758   1.738   4.163
 1994SOL    HW2 6013   3.734   1.857   4.054
 1995SOL     OW 6014   1.889   1.596   3.841
 1995SOL    HW1 6015   1.870   1.500   3.862
 1995SOL    HW2 6016   1.856   1.654   3.916
 1996SOL     OW 6017   3.551   0.922   4.336
 1996SOL    HW1 6018   3.646   0.893   4.344
 1996SOL    HW2 6019   3.543   0.987   4.261
 1997SOL     OW 6020   3.503   1.108   4.156
 1997SOL    HW1 6021   3.589   1.110   4.104
 1997SOL    HW2 6022   3.517   1.155   4.244
 1998SOL     OW 6023   1.975   0.737   5.321
 1998SOL    HW1 6024   2.063   0.724   5.366
 1998SOL    HW2 6025   1.962   0.834   5.299
 1999SOL     OW 6026   2.475   1.365   4.450
 1999SOL    HW1 6027   2.426   1.278   4.459
 1999SOL    HW2 6028   2.452   1.408   4.363
 2000SOL     OW 6029   2.671   0.004   4.226
 2000SOL    HW1 6030   2.711   0.095   4.217
 2000SOL    HW2 6031   2.571   0.012   4.232
 2001SOL     OW 6032   2.059   0.976   4.988
 2001SOL    HW1 6033   2.148   0.931   4.974
 2001SOL    HW2 6034   1.986   0.911   4.969
 2002SOL     OW 6035   3.387   0.999   3.914
 2002SOL    HW1 6036   3.324   0.923   3.927
 2002SOL    HW2 6037   3.435   1.017   4.000
 2003SOL     OW 6038   3.328   1.417   4.677
 2003SOL    HW1 6039   3.269   1.423   4.757
 2003SOL    HW2 6040   3.313   1.329   4.631
 2004SOL     OW 6041   3.529   1.714   4.296
 2004SOL    HW1 6042   3.488   1.691   4.208
 2004SOL    HW2 6043   3.511   1.640   4.361
 2005SOL     OW 6044   2.460   0.729   3.994
 2005SOL    HW1 6045   2.484   0.798   3.926
 2005SOL    HW2 6046   2.382   0.762   4.048
 2006SOL     OW 6047   3.143   0.345   4.668
 2006SOL    HW1 6048   3.057   0.295   4.655
 2006SOL    HW2 6049   3.205   0.291   4.724
 2007SOL     OW 6050   3.438   1.662   4.031
 2007SOL    HW1 6051   3.527   1.708   4.034
 2007SOL    HW2 6052   3.417   1.638   3.936
 2008SOL     OW 6053   2.853   0.410   4.966
 2008SOL    HW1 6054   2.776   0.444   5.020
 2008SOL    HW2 6055   2.819   0.359   4.887
 2009SOL     OW 6056   2.903   0.701   4.153
 2009SOL    HW1 6057   2.929   0.697   4.249
 2009SOL    HW2 6058   2.818   0.650   4.139
 2010SOL     OW 6059   1.938   0.811   4.513
 2010SOL    HW1 6060   2.037   0.799   4.522
 2010SOL    HW2 6061   1.914   0.906   4.534
 2011SOL     OW 6062   2.727   0.348   3.919
 2011SOL    HW1 6063   2.786   0.411   3.870
 2011SOL    HW2 6064   2.746   0.254   3.890
 2012SOL     OW 6065   3.224   1.144   4.269
 2012SOL    HW1 6066   3.307   1.115   4.221
 2012SOL    HW2 6067   3.175   1.211   4.213
 2013SOL     OW 6068   2.412   0.196   4.609
 2013SOL    HW1 6069   2.407   0.191   4.709
 2013SOL    HW2 6070   2.414   0.292   4.580
 2014SOL     OW 6071   2.870   1.456   4.201
 2014SOL    HW1 6072   2.824   1.528   4.149
 2014SOL    HW2 6073   2.866   1.476   4.299
 2015SOL     OW 6074   2.213   1.801   4.577
 2015SOL    HW1 6075   2.263   1.715   4.583
 2015SOL    HW2 6076   2.278   1.878   4.574
 2016SOL     OW 6077   3.657   1.066   4.597
 2016SOL    HW1 6078   3.595   1.051   4.521
 2016SOL    HW2 6079   3.605   1.077   4.682
 2017SOL     OW 6080   2.183   0.943   3.966
 2017SOL    HW1 6081   2.265   0.982   3.924
 2017SOL    HW2 6082   2.156   0.861   3.917
 2018SOL     OW 6083   3.320   0.735   4.452
 2018SOL    HW1 6084   3.315   0.670   4.527
 2018SOL    HW2 6085   3.400   0.794   4.465
 2019SOL     OW 6086   2.973   1.776   3.961
 2019SOL    HW1 6087   2.913   1.714   4.011
 2019SOL    HW2 6088   3.004   1.732   3.876
 2020SOL     OW 6089   3.494   1.377   3.805
 2020SOL    HW1 6090   3.462   1.471   3.795
 2020SOL    HW2 6091   3.418   1.314   3.793
 2021SOL     OW 6092   2.326   1.743   4.047
 2021SOL    HW1 6093   2.359   1.782   4.133
 2021SOL    HW2 6094   2.402   1.736   3.982
 2022SOL     OW 6095   3.262   0.107   4.150
 2022SOL    HW1 6096   3.238   0.070   4.060
 2022SOL    HW2 6097   3.361   0.123   4.154
 2023SOL     OW 6098   2.111   1.785   4.965
 2023SOL    HW1 6099   2.168   1.720   5.015
 2023SOL    HW2 6100   2.095   1.752   4.872
 2024SOL     OW 6101   2.802   1.698   4.628
 2024SOL    HW1 6102   2.882   1.641   4.649
 2024SOL    HW2 6103   2.753   1.658   4.551
 2025SOL     OW 6104   2.244   0.700   4.204
 2025SOL    HW1 6105   2.289   0.610   4.201
 2025SOL    HW2 6106   2.150   0.689   4.237
 2026SOL     OW 6107   2.476   0.122   3.841
 2026SOL    HW1 6108   2.574   0.100   3.848
 2026SOL    HW2 6109   2.445   0.105   3.748
 2027SOL     OW 6110   2.665   1.402   4.648
 2027SOL    HW1 6111   2.755   1.416   4.606
 2027SOL    HW2 6112   2.594   1.404   4.577
 2028SOL     OW 6113   2.784   0.503   4.623
 2028SOL    HW1 6114   2.759   0.494   4.527
 2028SOL    HW2 6115   2.832   0.421   4.654
 2029SOL     OW 6116   2.401   0.064   4.236
 2029SOL    HW1 6117   2.320   0.065   4.294
 2029SOL    HW2 6118   2.404   0.147   4.181
 2030SOL     OW 6119   3.296   1.188   3.765
 2030SOL    HW1 6120   3.328   1.112   3.822
 2030SOL    HW2 6121   3.204   1.215   3.795
 2031SOL     OW 6122   2.159   0.035   3.895
 2031SOL    HW1 6123   2.208   0.119   3.874
 2031SOL    HW2 6124   2.221  -0.030   3.940
 2032SOL     OW 6125   2.797   0.236   4.204
 2032SOL    HW1 6126   2.749   0.277   4.126
 2032SOL    HW2 6127   2.896   0.234   4.185
 2033SOL     OW 6128   3.089   1.570   4.517
 2033SOL    HW1 6129   3.110   1.644   4.452
 2033SOL    HW2 6130   3.157   1.570   4.590
 2034SOL     OW 6131   2.321   1.152   4.465
 2034SOL    HW1 6132   2.250   1.125   4.530
 2034SOL    HW2 6133   2.295   1.124   4.372
 2035SOL     OW 6134   3.133   1.797   4.315
 2035SOL    HW1 6135   3.177   1.861   4.251
 2035SOL    HW2 6136   3.083   1.849   4.385
 2036SOL     OW 6137   2.894   0.549   3.740
 2036SOL    HW1 6138   2.853   0.631   3.701
 2036SOL    HW2 6139   2.958   0.575   3.813
 2037SOL     OW 6140   2.423   0.222   4.871
 2037SOL    HW1 6141   2.461   0.138   4.908
 2037SOL    HW2 6142   2.335   0.241   4.915
 2038SOL     OW 6143   2.728   0.454   4.366
 2038SOL    HW1 6144   2.696   0.526   4.304
 2038SOL    HW2 6145   2.752   0.373   4.313
 2039SOL     OW 6146   2.879   0.039   4.477
 2039SOL    HW1 6147   2.807   0.044   4.408
 2039SOL    HW2 6148   2.855  -0.030   4.546
 2040SOL     OW 6149   3.291   1.173   4.591
 2040SOL    HW1 6150   3.236   1.089   4.584
 2040SOL    HW2 6151   3.317   1.202   4.499
 2041SOL     OW 6152   3.328   0.590   4.716
 2041SOL    HW1 6153   3.298   0.495   4.723
 2041SOL    HW2 6154   3.401   0.606   4.782
 2042SOL     OW 6155   3.719   0.833   4.101
 2042SOL    HW1 6156   3.761   0.769   4.165
 2042SOL    HW2 6157   3.681   0.782   4.023
 2043SOL     OW 6158   2.350   1.385   3.898
 2043SOL    HW1 6159   2.263   1.370   3.945
 2043SOL    HW2 6160   2.333   1.411   3.803
 2044SOL     OW 6161   3.526   1.280   4.381
 2044SOL    HW1 6162   3.625   1.288   4.395
 2044SOL    HW2 6163   3.481   1.364   4.412
 2045SOL     OW 6164   3.252   0.575   3.802
 2045SOL    HW1 6165   3.198   0.554   3.883
 2045SOL    HW2 6166   3.343   0.534   3.811
 2046SOL     OW 6167   2.389   0.256   4.052
 2046SOL    HW1 6168   2.416   0.197   3.977
 2046SOL    HW2 6169   2.389   0.351   4.021
 2047SOL     OW 6170   2.973   1.195   4.824
 2047SOL    HW1 6171   2.933   1.239   4.905
 2047SOL    HW2 6172   2.932   1.232   4.741
 2048SOL     OW 6173   3.500   1.099   4.803
 2048SOL    HW1 6174   3.505   1.180   4.862
 2048SOL    HW2 6175   3.414   1.101   4.752
 2049SOL     OW 6176   2.567   1.050   4.092
 2049SOL    HW1 6177   2.553   1.057   4.191
 2049SOL    HW2 6178   2.651   0.999   4.074
 2050SOL     OW 6179   2.272   0.813   4.975
 2050SOL    HW1 6180   2.358   0.825   5.025
 2050SOL    HW2 6181   2.230   0.726   5.002
 2051SOL     OW 6182   3.136   0.386   4.986
 2051SOL    HW1 6183   3.157   0.460   5.050
 2051SOL    HW2 6184   3.047   0.403   4.943
 2052SOL     OW 6185   2.229   1.100   4.225
 2052SOL    HW1 6186   2.222   1.183   4.169
 2052SOL    HW2 6187   2.233   1.020   4.165
 2053SOL     OW 6188   2.428   0.537   4.589
 2053SOL    HW1 6189   2.440   0.603   4.515
 2053SOL    HW2 6190   2.474   0.571   4.672
 2054SOL     OW 6191   3.114   1.348   4.112
 2054SOL    HW1 6192   3.164   1.425   4.152
 2054SOL    HW2 6193   3.019   1.350   4.144
 2055SOL     OW 6194   3.134   1.445   4.866
 2055SOL    HW1 6195   3.181   1.458   4.953
 2055SOL    HW2 6196   3.068   1.371   4.875
 2056SOL     OW 6197   3.444   0.639   4.196
 2056SOL    HW1 6198   3.413   0.700   4.269
 2056SOL    HW2 6199   3.494   0.691   4.127
 2057SOL     OW 6200   2.216   1.510   5.053
 2057SOL    HW1 6201   2.195   1.466   4.966
 2057SOL    HW2 6202   2.313   1.536   5.056
 2058SOL     OW 6203   2.435   0.870   4.753
 2058SOL    HW1 6204   2.479   0.959   4.744
 2058SOL    HW2 6205   2.372   0.870   4.830
 2059SOL     OW 6206   3.222   0.862   4.769
 2059SOL    HW1 6207   3.147   0.862   4.703
 2059SOL    HW2 6208   3.259   0.770   4.778
 2060SOL     OW 6209   3.071   0.525   3.999
 2060SOL    HW1 6210   3.084   0.441   4.053
 2060SOL    HW2 6211   3.042   0.599   4.059
 2061SOL     OW 6212   2.169   0.213   4.955
 2061SOL    HW1 6213   2.146   0.250   5.045
 2061SOL    HW2 6214   2.139   0.118   4.949
 2062SOL     OW 6215   1.899   1.310   5.006
 2062SOL    HW1 6216   1.952   1.261   5.074
 2062SOL    HW2 6217   1.921   1.408   5.011
 2063SOL     OW 6218   2.594   0.634   4.788
 2063SOL    HW1 6219   2.653   0.608   4.712
 2063SOL    HW2 6220   2.566   0.730   4.777
 2064SOL     OW 6221   2.169   0.063   4.342
 2064SOL    HW1 6222   2.158   0.157   4.375
 2064SOL    HW2 6223   2.164   0.000   4.419
 2065SOL     OW 6224   3.484   0.367   4.098
 2065SOL    HW1 6225   3.486   0.291   4.162
 2065SOL    HW2 6226   3.436   0.444   4.138
 2066SOL     OW 6227   2.885   0.766   4.690
 2066SOL    HW1 6228   2.900   0.787   4.786
 2066SOL    HW2 6229   2.855   0.671   4.681
 2067SOL     OW 6230   3.402   0.274   3.849
 2067SOL    HW1 6231   3.341   0.199   3.872
 2067SOL    HW2 6232   3.424   0.326   3.932
 2068SOL     OW 6233   3.165   0.838   3.766
 2068SOL    HW1 6234   3.199   0.745   3.781
 2068SOL    HW2 6235   3.183   0.865   3.671
 2069SOL     OW 6236   2.930   1.333   4.573
 2069SOL    HW1 6237   2.937   1.249   4.518
 2069SOL    HW2 6238   2.992   1.402   4.537
 2070SOL     OW 6239   2.181   0.810   4.673
 2070SOL    HW1 6240   2.274   0.846   4.678
 2070SOL    HW2 6241   2.175   0.725   4.725
 2071SOL     OW 6242   2.201   0.509   4.730
 2071SOL    HW1 6243   2.149   0.426   4.713
 2071SOL    HW2 6244   2.278   0.514   4.666
 2072SOL     OW 6245   3.022   0.207   5.201
 2072SOL    HW1 6246   3.022   0.271   5.278
 2072SOL    HW2 6247   3.050   0.255   5.118
 2073SOL     OW 6248   1.870   1.326   3.924
 2073SOL    HW1 6249   1.777   1.347   3.893
 2073SOL    HW2 6250   1.880   1.227   3.937
 2074SOL     OW 6251   1.950   1.801   4.651
 2074SOL    HW1 6252   1.908   1.715   4.624
 2074SOL    HW2 6253   2.044   1.804   4.617
 2075SOL     OW 6254   2.366   1.568   4.634
 2075SOL    HW1 6255   2.432   1.642   4.643
 2075SOL    HW2 6256   2.410   1.489   4.592
 2076SOL     OW 6257   2.864   0.796   4.962
 2076SOL    HW1 6258   2.905   0.764   5.048
 2076SOL    HW2 6259   2.768   0.769   4.959
 2077SOL     OW 6260   1.902   0.544   4.838
 2077SOL    HW1 6261   1.987   0.511   4.797
 2077SOL    HW2 6262   1.915   0.559   4.936
 2078SOL     OW 6263   2.677   0.572   4.049
 2078SOL    HW1 6264   2.684   0.483   4.003
 2078SOL    HW2 6265   2.583   0.606   4.041
 2079SOL     OW 6266   3.519   0.604   4.930
 2079SOL    HW1 6267   3.481   0.535   4.992
 2079SOL    HW2 6268   3.601   0.568   4.886
 2080SOL     OW 6269   2.533   0.464   4.993
 2080SOL    HW1 6270   2.499   0.375   4.963
 2080SOL    HW2 6271   2.559   0.518   4.913
 2081SOL     OW 6272   2.792   1.678   5.189
 2081SOL    HW1 6273   2.768   1.660   5.094
 2081SOL    HW2 6274   2.822   1.772   5.199
 2082SOL     OW 6275   2.335   0.500   3.915
 2082SOL    HW1 6276   2.396   0.580   3.919
 2082SOL    HW2 6277   2.240   0.531   3.922
 2083SOL     OW 6278   3.209   1.059   4.958
 2083SOL    HW1 6279   3.233   0.996   4.884
 2083SOL    HW2 6280   3.119   1.099   4.940
 2084SOL     OW 6281   3.164   0.855   4.033
 2084SOL    HW1 6282   3.078   0.824   4.075
 2084SOL    HW2 6283   3.160   0.841   3.934
 2085SOL     OW 6284   3.621   1.747   4.878
 2085SOL    HW1 6285   3.682   1.777   4.805
 2085SOL    HW2 6286   3.583   1.658   4.856
 2086SOL     OW 6287   3.114   1.731   4.852
 2086SOL    HW1 6288   3.198   1.736   4.798
 2086SOL    HW2 6289   3.091   1.635   4.870
 2087SOL     OW 6290   1.945   1.258   4.746
 2087SOL    HW1 6291   1.940   1.257   4.846
 2087SOL    HW2 6292   1.862   1.217   4.708
 2088SOL     OW 6293   3.588   0.135   4.247
 2088SOL    HW1 6294   3.661   0.118   4.180
 2088SOL    HW2 6295   3.557   0.048   4.285
 2089SOL     OW 6296   3.250   1.573   4.201
 2089SOL    HW1 6297   3.317   1.585   4.127
 2089SOL    HW2 6298   3.210   1.662   4.224
 2090SOL     OW 6299   3.142   0.927   4.396
 2090SOL    HW1 6300   3.202   0.846   4.398
 2090SOL    HW2 6301   3.182   0.996   4.336
 2091SOL     OW 6302   2.534   1.616   3.878
 2091SOL    HW1 6303   2.543   1.626   3.779
 2091SOL    HW2 6304   2.494   1.527   3.899
 2092SOL     OW 6305   3.512   1.720   5.118
 2092SOL    HW1 6306   3.565   1.730   5.034
 2092SOL    HW2 6307   3.485   1.810   5.152
 2093SOL     OW 6308   3.703   0.175   4.687
 2093SOL    HW1 6309   3.742   0.090   4.651
 2093SOL    HW2 6310   3.605   0.177   4.668
 2094SOL     OW 6311   2.125   0.326   4.444
 2094SOL    HW1 6312   2.046   0.377   4.410
 2094SOL    HW2 6313   2.116   0.311   4.542
 2095SOL     OW 6314   3.056   1.612   3.755
 2095SOL    HW1 6315   3.062   1.519   3.792
 2095SOL    HW2 6316   2.997   1.612   3.675
 2096SOL     OW 6317   2.684   1.002   5.096
 2096SOL    HW1 6318   2.724   1.001   5.004
 2096SOL    HW2 6319   2.694   1.094   5.136
 2097SOL     OW 6320   2.778   0.910   4.015
 2097SOL    HW1 6321   2.841   0.948   3.947
 2097SOL    HW2 6322   2.818   0.827   4.054
 2098SOL     OW 6323   3.366   1.607   3.768
 2098SOL    HW1 6324   3.274   1.644   3.775
 2098SOL    HW2 6325   3.404   1.627   3.678
 2099SOL     OW 6326   2.901   1.098   4.420
 2099SOL    HW1 6327   2.831   1.051   4.474
 2099SOL    HW2 6328   2.960   1.030   4.377
 2100SOL     OW 6329   2.876   0.236   4.695
 2100SOL    HW1 6330   2.868   0.200   4.602
 2100SOL    HW2 6331   2.874   0.160   4.760
 2101SOL     OW 6332   2.452   1.487   4.215
 2101SOL    HW1 6333   2.494   1.429   4.145
 2101SOL    HW2 6334   2.408   1.566   4.171
 2102SOL     OW 6335   3.571   0.385   5.105
 2102SOL    HW1 6336   3.644   0.454   5.109
 2102SOL    HW2 6337   3.599   0.310   5.046
 2103SOL     OW 6338   2.117   1.348   4.014
 2103SOL    HW1 6339   2.021   1.349   3.987
 2103SOL    HW2 6340   2.129   1.401   4.098
 2104SOL     OW 6341   1.937   0.345   3.757
 2104SOL    HW1 6342   1.845   0.317   3.728
 2104SOL    HW2 6343   1.968   0.422   3.701
 2105SOL     OW 6344   1.934   0.166   4.042
 2105SOL    HW1 6345   1.917   0.249   3.988
 2105SOL    HW2 6346   2.024   0.129   4.020
 2106SOL     OW 6347   3.045   1.335   3.843
 2106SOL    HW1 6348   2.946   1.324   3.845
 2106SOL    HW2 6349   3.079   1.350   3.936
 2107SOL     OW 6350   3.355   1.767   4.683
 2107SOL    HW1 6351   3.388   1.831   4.614
 2107SOL    HW2 6352   3.421   1.761   4.758
 2108SOL     OW 6353   3.536   0.883   4.978
 2108SOL    HW1 6354   3.509   0.794   4.941
 2108SOL    HW2 6355   3.537   0.951   4.905
 2109SOL     OW 6356   3.087   0.325   4.173
 2109SOL    HW1 6357   3.152   0.251   4.162
 2109SOL    HW2 6358   3.107   0.375   4.257
 2110SOL     OW 6359   2.456   0.745   4.376
 2110SOL    HW1 6360   2.506   0.830   4.357
 2110SOL    HW2 6361   2.368   0.747   4.328
 2111SOL     OW 6362   3.592   0.934   5.241
 2111SOL    HW1 6363   3.630   1.025   5.256
 2111SOL    HW2 6364   3.584   0.917   5.142
 2112SOL     OW 6365   2.721   1.374   3.740
 2112SOL    HW1 6366   2.675   1.389   3.828
 2112SOL    HW2 6367   2.765   1.459   3.710
 2113SOL     OW 6368   2.523   1.790   4.677
 2113SOL    HW1 6369   2.477   1.878   4.664
 2113SOL    HW2 6370   2.622   1.802   4.670
 2114SOL     OW 6371   2.721   0.956   4.585
 2114SOL    HW1 6372   2.775   0.887   4.633
 2114SOL    HW2 6373   2.689   1.025   4.651
 2115SOL     OW 6374   2.945   0.984   3.811
 2115SOL    HW1 6375   2.922   1.037   3.729
 2115SOL    HW2 6376   3.026   0.928   3.792
 2116SOL     OW 6377   3.723   1.569   4.575
 2116SOL    HW1 6378   3.652   1.557   4.505
 2116SOL    HW2 6379   3.724   1.490   4.635
 2117SOL     OW 6380   1.941   1.240   4.377
 2117SOL    HW1 6381   1.940   1.193   4.465
 2117SOL    HW2 6382   2.023   1.212   4.326
 2118SOL     OW 6383   3.686   0.192   4.951
 2118SOL    HW1 6384   3.682   0.102   4.995
 2118SOL    HW2 6385   3.689   0.181   4.852
 2119SOL     OW 6386   2.290   0.424   4.244
 2119SOL    HW1 6387   2.320   0.352   4.182
 2119SOL    HW2 6388   2.251   0.384   4.327
 2120SOL     OW 6389   3.567   1.487   4.828
 2120SOL    HW1 6390   3.474   1.462   4.801
 2120SOL    HW2 6391   3.593   1.437   4.910
 2121SOL     OW 6392   2.674   1.586   4.411
 2121SOL    HW1 6393   2.706   1.596   4.317
 2121SOL    HW2 6394   2.595   1.524   4.413
 2122SOL     OW 6395   3.286   0.214   4.836
 2122SOL    HW1 6396   3.338   0.149   4.891
 2122SOL    HW2 6397   3.237   0.277   4.897
 2123SOL     OW 6398   2.863   0.034   4.878
 2123SOL    HW1 6399   2.800  -0.038   4.847
 2123SOL    HW2 6400   2.956  -0.002   4.878
 2124SOL     OW 6401   2.632   1.330   4.025
 2124SOL    HW1 6402   2.586   1.243   4.042
 2124SOL    HW2 6403   2.723   1.327   4.066
 2125SOL     OW 6404   3.214   0.052   3.892
 2125SOL    HW1 6405   3.249   0.011   3.808
 2125SOL    HW2 6406   3.124   0.014   3.912
 2126SOL     OW 6407   3.162   0.453   4.415
 2126SOL    HW1 6408   3.103   0.533   4.419
 2126SOL    HW2 6409   3.177   0.418   4.508
 2127SOL     OW 6410   3.455   0.221   4.606
 2127SOL    HW1 6411   3.371   0.220   4.660
 2127SOL    HW2 6412   3.457   0.304   4.550
 2128SOL     OW 6413   1.901   1.077   4.024
 2128SOL    HW1 6414   2.000   1.066   4.015
 2128SOL    HW2 6415   1.861   0.991   4.056
 2129SOL     OW 6416   2.737   1.646   4.061
 2129SOL    HW1 6417   2.660   1.611   4.007
 2129SOL    HW2 6418   2.705   1.717   4.123
 2130SOL     OW 6419   2.092   2.490   0.113
 2130SOL    HW1 6420   1.999   2.488   0.150
 2130SOL    HW2 6421   2.093   2.451   0.021
 2131SOL     OW 6422   2.087   2.137   0.996
 2131SOL    HW1 6423   2.122   2.120   1.088
 2131SOL    HW2 6424   1.999   2.092   0.984
 2132SOL     OW 6425   1.881   2.230   0.647
 2132SOL    HW1 6426   1.799   2.273   0.686
 2132SOL    HW2 6427   1.853   2.157   0.584
 2133SOL     OW 6428   2.431   3.137   1.165
 2133SOL    HW1 6429   2.338   3.130   1.128
 2133SOL    HW2 6430   2.442   3.226   1.209
 2134SOL     OW 6431   3.417   3.373   0.703
 2134SOL    HW1 6432   3.360   3.357   0.784
 2134SOL    HW2 6433   3.358   3.383   0.623
 2135SOL     OW 6434   2.997   2.565   0.717
 2135SOL    HW1 6435   3.054   2.643   0.692
 2135SOL    HW2 6436   2.937   2.591   0.793
 2136SOL     OW 6437   3.617   2.469   0.231
 2136SOL    HW1 6438   3.605   2.456   0.132
 2136SOL    HW2 6439   3.587   2.388   0.280
 2137SOL     OW 6440   2.630   3.006   1.023
 2137SOL    HW1 6441   2.552   3.023   1.083
 2137SOL    HW2 6442   2.664   3.093   0.987
 2138SOL     OW 6443   2.712   2.660   1.823
 2138SOL    HW1 6444   2.708   2.736   1.888
 2138SOL    HW2 6445   2.734   2.696   1.732
 2139SOL     OW 6446   2.547   2.874   0.665
 2139SOL    HW1 6447   2.616   2.858   0.735
 2139SOL    HW2 6448   2.474   2.931   0.703
 2140SOL     OW 6449   2.548   3.023   1.803
 2140SOL    HW1 6450   2.608   3.102   1.817
 2140SOL    HW2 6451   2.462   3.054   1.762
 2141SOL     OW 6452   2.197   3.297   1.061
 2141SOL    HW1 6453   2.119   3.266   1.008
 2141SOL    HW2 6454   2.255   3.355   1.004
 2142SOL     OW 6455   3.322   3.367   1.339
 2142SOL    HW1 6456   3.346   3.461   1.365
 2142SOL    HW2 6457   3.306   3.313   1.421
 2143SOL     OW 6458   2.300   2.254   1.499
 2143SOL    HW1 6459   2.382   2.198   1.508
 2143SOL    HW2 6460   2.219   2.196   1.503
 2144SOL     OW 6461   3.465   2.309   0.737
 2144SOL    HW1 6462   3.391   2.355   0.687
 2144SOL    HW2 6463   3.516   2.377   0.790
 2145SOL     OW 6464   2.093   3.575   0.483
 2145SOL    HW1 6465   2.127   3.652   0.537
 2145SOL    HW2 6466   2.137   3.575   0.393
 2146SOL     OW 6467   2.989   3.203   1.690
 2146SOL    HW1 6468   3.036   3.203   1.778
 2146SOL    HW2 6469   2.941   3.116   1.679
 2147SOL     OW 6470   2.092   3.296   0.538
 2147SOL    HW1 6471   2.066   3.392   0.538
 2147SOL    HW2 6472   2.021   3.242   0.583
 2148SOL     OW 6473   2.102   2.953   0.886
 2148SOL    HW1 6474   2.116   2.869   0.938
 2148SOL    HW2 6475   2.047   3.017   0.941
 2149SOL     OW 6476   2.482   3.648   1.439
 2149SOL    HW1 6477   2.390   3.631   1.474
 2149SOL    HW2 6478   2.510   3.740   1.465
 2150SOL     OW 6479   2.468   2.826   0.123
 2150SOL    HW1 6480   2.475   2.910   0.069
 2150SOL    HW2 6481   2.514   2.839   0.211
 2151SOL     OW 6482   3.456   1.976   1.480
 2151SOL    HW1 6483   3.438   2.043   1.408
 2151SOL    HW2 6484   3.453   2.022   1.569
 2152SOL     OW 6485   1.984   2.505   0.563
 2152SOL    HW1 6486   1.939   2.417   0.580
 2152SOL    HW2 6487   1.983   2.559   0.647
 2153SOL     OW 6488   3.704   3.629   0.359
 2153SOL    HW1 6489   3.758   3.600   0.439
 2153SOL    HW2 6490   3.734   3.719   0.330
 2154SOL     OW 6491   1.889   3.458   0.117
 2154SOL    HW1 6492   1.870   3.362   0.138
 2154SOL    HW2 6493   1.856   3.516   0.192
 2155SOL     OW 6494   3.551   2.784   0.612
 2155SOL    HW1 6495   3.646   2.755   0.620
 2155SOL    HW2 6496   3.543   2.849   0.537
 2156SOL     OW 6497   3.503   2.970   0.432
 2156SOL    HW1 6498   3.589   2.972   0.380
 2156SOL    HW2 6499   3.517   3.017   0.520
 2157SOL     OW 6500   1.975   2.599   1.597
 2157SOL    HW1 6501   2.063   2.586   1.642
 2157SOL    HW2 6502   1.962   2.696   1.575
 2158SOL     OW 6503   2.475   3.227   0.726
 2158SOL    HW1 6504   2.426   3.140   0.735
 2158SOL    HW2 6505   2.452   3.270   0.639
 2159SOL     OW 6506   3.155   3.090   1.423
 2159SOL    HW1 6507   3.192   3.017   1.365
 2159SOL    HW2 6508   3.207   3.095   1.508
 2160SOL     OW 6509   2.671   1.866   0.502
 2160SOL    HW1 6510   2.711   1.957   0.493
 2160SOL    HW2 6511   2.571   1.874   0.508
 2161SOL     OW 6512   2.059   2.838   1.264
 2161SOL    HW1 6513   2.148   2.793   1.250
 2161SOL    HW2 6514   1.986   2.773   1.245
 2162SOL     OW 6515   3.387   2.861   0.190
 2162SOL    HW1 6516   3.324   2.785   0.203
 2162SOL    HW2 6517   3.435   2.879   0.276
 2163SOL     OW 6518   3.049   3.654   1.616
 2163SOL    HW1 6519   3.073   3.714   1.540
 2163SOL    HW2 6520   3.056   3.559   1.586
 2164SOL     OW 6521   2.179   2.113   1.801
 2164SOL    HW1 6522   2.250   2.184   1.807
 2164SOL    HW2 6523   2.091   2.152   1.829
 2165SOL     OW 6524   3.328   3.279   0.953
 2165SOL    HW1 6525   3.269   3.285   1.033
 2165SOL    HW2 6526   3.313   3.191   0.907
 2166SOL     OW 6527   3.529   3.576   0.572
 2166SOL    HW1 6528   3.488   3.553   0.484
 2166SOL    HW2 6529   3.511   3.502   0.637
 2167SOL     OW 6530   2.460   2.591   0.270
 2167SOL    HW1 6531   2.484   2.660   0.202
 2167SOL    HW2 6532   2.382   2.624   0.324
 2168SOL     OW 6533   3.143   2.207   0.944
 2168SOL    HW1 6534   3.057   2.157   0.931
 2168SOL    HW2 6535   3.205   2.153   1.000
 2169SOL     OW 6536   3.438   3.524   0.307
 2169SOL    HW1 6537   3.527   3.570   0.310
 2169SOL    HW2 6538   3.417   3.500   0.212
 2170SOL     OW 6539   2.669   2.467   1.465
 2170SOL    HW1 6540   2.622   2.464   1.554
 2170SOL    HW2 6541   2.618   2.412   1.399
 2171SOL     OW 6542   3.256   2.331   1.674
 2171SOL    HW1 6543   3.236   2.374   1.762
 2171SOL    HW2 6544   3.334   2.269   1.683
 2172SOL     OW 6545   2.835   2.752   1.572
 2172SOL    HW1 6546   2.881   2.668   1.543
 2172SOL    HW2 6547   2.779   2.786   1.497
 2173SOL     OW 6548   2.853   2.272   1.242
 2173SOL    HW1 6549   2.776   2.306   1.296
 2173SOL    HW2 6550   2.819   2.221   1.163
 2174SOL     OW 6551   2.903   2.563   0.429
 2174SOL    HW1 6552   2.929   2.559   0.525
 2174SOL    HW2 6553   2.818   2.512   0.415
 2175SOL     OW 6554   1.938   2.673   0.789
 2175SOL    HW1 6555   2.037   2.661   0.798
 2175SOL    HW2 6556   1.914   2.768   0.810
 2176SOL     OW 6557   1.992   3.683   1.571
 2176SOL    HW1 6558   1.982   3.668   1.670
 2176SOL    HW2 6559   1.906   3.719   1.535
 2177SOL     OW 6560   2.727   2.210   0.195
 2177SOL    HW1 6561   2.786   2.273   0.146
 2177SOL    HW2 6562   2.746   2.116   0.166
 2178SOL     OW 6563   3.581   2.447   1.831
 2178SOL    HW1 6564   3.555   2.536   1.795
 2178SOL    HW2 6565   3.579   2.379   1.758
 2179SOL     OW 6566   3.224   3.006   0.545
 2179SOL    HW1 6567   3.307   2.977   0.497
 2179SOL    HW2 6568   3.175   3.073   0.489
 2180SOL     OW 6569   2.412   2.058   0.885
 2180SOL    HW1 6570   2.407   2.053   0.985
 2180SOL    HW2 6571   2.414   2.154   0.856
 2181SOL     OW 6572   2.870   3.318   0.477
 2181SOL    HW1 6573   2.824   3.390   0.425
 2181SOL    HW2 6574   2.866   3.338   0.575
 2182SOL     OW 6575   2.213   3.663   0.853
 2182SOL    HW1 6576   2.263   3.577   0.859
 2182SOL    HW2 6577   2.278   3.740   0.850
 2183SOL     OW 6578   3.657   2.928   0.873
 2183SOL    HW1 6579   3.595   2.913   0.797
 2183SOL    HW2 6580   3.605   2.939   0.958
 2184SOL     OW 6581   3.089   3.412   1.506
 2184SOL    HW1 6582   3.095   3.335   1.570
 2184SOL    HW2 6583   3.037   3.386   1.426
 2185SOL     OW 6584   2.183   2.805   0.242
 2185SOL    HW1 6585   2.265   2.844   0.200
 2185SOL    HW2 6586   2.156   2.723   0.193
 2186SOL     OW 6587   3.320   2.597   0.728
 2186SOL    HW1 6588   3.315   2.532   0.803
 2186SOL    HW2 6589   3.400   2.656   0.741
 2187SOL     OW 6590   2.323   3.128   1.727
 2187SOL    HW1 6591   2.273   3.129   1.641
 2187SOL    HW2 6592   2.260   3.110   1.803
 2188SOL     OW 6593   2.973   3.638   0.237
 2188SOL    HW1 6594   2.913   3.576   0.287
 2188SOL    HW2 6595   3.004   3.594   0.152
 2189SOL     OW 6596   2.064   2.147   1.498
 2189SOL    HW1 6597   1.984   2.207   1.485
 2189SOL    HW2 6598   2.054   2.098   1.584
 2190SOL     OW 6599   3.494   3.239   0.081
 2190SOL    HW1 6600   3.462   3.333   0.071
 2190SOL    HW2 6601   3.418   3.176   0.069
 2191SOL     OW 6602   2.326   3.605   0.323
 2191SOL    HW1 6603   2.359   3.644   0.409
 2191SOL    HW2 6604   2.402   3.598   0.258
 2192SOL     OW 6605   3.262   1.969   0.426
 2192SOL    HW1 6606   3.238   1.932   0.336
 2192SOL    HW2 6607   3.361   1.985   0.430
 2193SOL     OW 6608   2.111   3.647   1.241
 2193SOL    HW1 6609   2.168   3.582   1.291
 2193SOL    HW2 6610   2.095   3.614   1.148
 2194SOL     OW 6611   2.802   3.560   0.904
 2194SOL    HW1 6612   2.882   3.503   0.925
 2194SOL    HW2 6613   2.753   3.520   0.827
 2195SOL     OW 6614   2.244   2.562   0.480
 2195SOL    HW1 6615   2.289   2.472   0.477
 2195SOL    HW2 6616   2.150   2.551   0.513
 2196SOL     OW 6617   3.409   2.084   1.729
 2196SOL    HW1 6618   3.404   2.121   1.821
 2196SOL    HW2 6619   3.337   2.015   1.717
 2197SOL     OW 6620   2.476   1.984   0.117
 2197SOL    HW1 6621   2.574   1.962   0.124
 2197SOL    HW2 6622   2.445   1.967   0.024
 2198SOL     OW 6623   2.643   2.126   1.749
 2198SOL    HW1 6624   2.710   2.065   1.792
 2198SOL    HW2 6625   2.570   2.145   1.814
 2199SOL     OW 6626   2.750   3.376   1.195
 2199SOL    HW1 6627   2.727   3.351   1.101
 2199SOL    HW2 6628   2.811   3.307   1.234
 2200SOL     OW 6629   3.213   2.452   1.433
 2200SOL    HW1 6630   3.241   2.409   1.518
 2200SOL    HW2 6631   3.238   2.548   1.434
 2201SOL     OW 6632   2.665   3.264   0.924
 2201SOL    HW1 6633   2.755   3.278   0.882
 2201SOL    HW2 6634   2.594   3.266   0.853
 2202SOL     OW 6635   2.784   2.365   0.899
 2202SOL    HW1 6636   2.759   2.356   0.803
 2202SOL    HW2 6637   2.832   2.283   0.930
 2203SOL     OW 6638   2.401   1.926   0.512
 2203SOL    HW1 6639   2.320   1.927   0.570
 2203SOL    HW2 6640   2.404   2.009   0.457
 2204SOL     OW 6641   3.296   3.050   0.041
 2204SOL    HW1 6642   3.328   2.974   0.098
 2204SOL    HW2 6643   3.204   3.077   0.071
 2205SOL     OW 6644   2.159   1.897   0.171
 2205SOL    HW1 6645   2.208   1.981   0.150
 2205SOL    HW2 6646   2.221   1.832   0.216
 2206SOL     OW 6647   2.797   2.098   0.480
 2206SOL    HW1 6648   2.749   2.139   0.402
 2206SOL    HW2 6649   2.896   2.096   0.461
 2207SOL     OW 6650   2.938   2.545   1.464
 2207SOL    HW1 6651   2.858   2.484   1.467
 2207SOL    HW2 6652   3.019   2.492   1.440
 2208SOL     OW 6653   3.089   3.432   0.793
 2208SOL    HW1 6654   3.110   3.506   0.728
 2208SOL    HW2 6655   3.157   3.432   0.866
 2209SOL     OW 6656   2.321   3.014   0.741
 2209SOL    HW1 6657   2.250   2.987   0.806
 2209SOL    HW2 6658   2.295   2.986   0.648
 2210SOL     OW 6659   3.133   3.659   0.591
 2210SOL    HW1 6660   3.177   3.723   0.527
 2210SOL    HW2 6661   3.083   3.711   0.661
 2211SOL     OW 6662   2.894   2.411   0.016
 2211SOL    HW1 6663   2.853   2.493  -0.023
 2211SOL    HW2 6664   2.958   2.437   0.089
 2212SOL     OW 6665   1.940   2.418   1.386
 2212SOL    HW1 6666   2.032   2.417   1.345
 2212SOL    HW2 6667   1.934   2.492   1.453
 2213SOL     OW 6668   2.423   2.084   1.147
 2213SOL    HW1 6669   2.461   2.000   1.184
 2213SOL    HW2 6670   2.335   2.103   1.191
 2214SOL     OW 6671   2.728   2.316   0.642
 2214SOL    HW1 6672   2.696   2.388   0.580
 2214SOL    HW2 6673   2.752   2.235   0.589
 2215SOL     OW 6674   2.879   1.901   0.753
 2215SOL    HW1 6675   2.807   1.906   0.684
 2215SOL    HW2 6676   2.855   1.832   0.822
 2216SOL     OW 6677   3.291   3.035   0.867
 2216SOL    HW1 6678   3.236   2.951   0.860
 2216SOL    HW2 6679   3.317   3.064   0.775
 2217SOL     OW 6680   3.328   2.452   0.992
 2217SOL    HW1 6681   3.298   2.357   0.999
 2217SOL    HW2 6682   3.401   2.468   1.058
 2218SOL     OW 6683   3.719   2.695   0.377
 2218SOL    HW1 6684   3.761   2.631   0.441
 2218SOL    HW2 6685   3.681   2.644   0.299
 2219SOL     OW 6686   2.350   3.247   0.174
 2219SOL    HW1 6687   2.263   3.232   0.221
 2219SOL    HW2 6688   2.333   3.273   0.079
 2220SOL     OW 6689   3.526   3.142   0.657
 2220SOL    HW1 6690   3.625   3.150   0.671
 2220SOL    HW2 6691   3.481   3.226   0.688
 2221SOL     OW 6692   3.252   2.437   0.078
 2221SOL    HW1 6693   3.198   2.416   0.159
 2221SOL    HW2 6694   3.343   2.396   0.087
 2222SOL     OW 6695   2.389   2.118   0.328
 2222SOL    HW1 6696   2.416   2.059   0.253
 2222SOL    HW2 6697   2.389   2.213   0.297
 2223SOL     OW 6698   3.616   3.085   1.588
 2223SOL    HW1 6699   3.707   3.046   1.575
 2223SOL    HW2 6700   3.624   3.181   1.612
 2224SOL     OW 6701   2.926   3.209   1.340
 2224SOL    HW1 6702   2.846   3.186   1.395
 2224SOL    HW2 6703   3.009   3.183   1.389
 2225SOL     OW 6704   3.454   3.491   1.625
 2225SOL    HW1 6705   3.481   3.525   1.535
 2225SOL    HW2 6706   3.533   3.453   1.671
 2226SOL     OW 6707   2.973   3.057   1.100
 2226SOL    HW1 6708   2.933   3.101   1.181
 2226SOL    HW2 6709   2.932   3.094   1.017
 2227SOL     OW 6710   3.500   2.961   1.079
 2227SOL    HW1 6711   3.505   3.042   1.138
 2227SOL    HW2 6712   3.414   2.963   1.028
 2228SOL     OW 6713   2.777   1.951   1.402
 2228SOL    HW1 6714   2.802   1.931   1.307
 2228SOL    HW2 6715   2.849   2.007   1.444
 2229SOL     OW 6716   2.842   2.978   1.719
 2229SOL    HW1 6717   2.743   2.984   1.729
 2229SOL    HW2 6718   2.865   2.898   1.663
 2230SOL     OW 6719   2.567   2.912   0.368
 2230SOL    HW1 6720   2.553   2.919   0.467
 2230SOL    HW2 6721   2.651   2.861   0.350
 2231SOL     OW 6722   2.272   2.675   1.251
 2231SOL    HW1 6723   2.358   2.687   1.301
 2231SOL    HW2 6724   2.230   2.588   1.278
 2232SOL     OW 6725   3.136   2.248   1.262
 2232SOL    HW1 6726   3.157   2.322   1.326
 2232SOL    HW2 6727   3.047   2.265   1.219
 2233SOL     OW 6728   1.926   3.426   1.331
 2233SOL    HW1 6729   1.880   3.508   1.297
 2233SOL    HW2 6730   2.024   3.445   1.340
 2234SOL     OW 6731   2.229   2.962   0.501
 2234SOL    HW1 6732   2.222   3.045   0.445
 2234SOL    HW2 6733   2.233   2.882   0.441
 2235SOL     OW 6734   2.428   2.399   0.865
 2235SOL    HW1 6735   2.440   2.465   0.791
 2235SOL    HW2 6736   2.474   2.433   0.948
 2236SOL     OW 6737   3.114   3.210   0.388
 2236SOL    HW1 6738   3.164   3.287   0.428
 2236SOL    HW2 6739   3.019   3.212   0.420
 2237SOL     OW 6740   3.134   3.307   1.142
 2237SOL    HW1 6741   3.181   3.320   1.229
 2237SOL    HW2 6742   3.068   3.233   1.151
 2238SOL     OW 6743   3.444   2.501   0.472
 2238SOL    HW1 6744   3.413   2.562   0.545
 2238SOL    HW2 6745   3.494   2.553   0.403
 2239SOL     OW 6746   2.216   3.372   1.329
 2239SOL    HW1 6747   2.195   3.328   1.242
 2239SOL    HW2 6748   2.313   3.398   1.332
 2240SOL     OW 6749   2.264   2.613   1.598
 2240SOL    HW1 6750   2.332   2.668   1.551
 2240SOL    HW2 6751   2.304   2.525   1.625
 2241SOL     OW 6752   3.449   2.641   1.670
 2241SOL    HW1 6753   3.357   2.679   1.665
 2241SOL    HW2 6754   3.509   2.688   1.605
 2242SOL     OW 6755   2.875   1.967   1.770
 2242SOL    HW1 6756   2.881   2.052   1.718
 2242SOL    HW2 6757   2.907   1.891   1.713
 2243SOL     OW 6758   2.366   1.912   1.740
 2243SOL    HW1 6759   2.324   1.855   1.670
 2243SOL    HW2 6760   2.300   1.981   1.772
 2244SOL     OW 6761   2.435   2.732   1.029
 2244SOL    HW1 6762   2.479   2.821   1.020
 2244SOL    HW2 6763   2.372   2.732   1.106
 2245SOL     OW 6764   3.222   2.724   1.045
 2245SOL    HW1 6765   3.147   2.724   0.979
 2245SOL    HW2 6766   3.259   2.632   1.054
 2246SOL     OW 6767   3.071   2.387   0.275
 2246SOL    HW1 6768   3.084   2.303   0.329
 2246SOL    HW2 6769   3.042   2.461   0.335
 2247SOL     OW 6770   2.169   2.075   1.231
 2247SOL    HW1 6771   2.146   2.112   1.321
 2247SOL    HW2 6772   2.139   1.980   1.225
 2248SOL     OW 6773   1.899   3.172   1.282
 2248SOL    HW1 6774   1.952   3.123   1.350
 2248SOL    HW2 6775   1.921   3.270   1.287
 2249SOL     OW 6776   2.594   2.496   1.064
 2249SOL    HW1 6777   2.653   2.470   0.988
 2249SOL    HW2 6778   2.566   2.592   1.053
 2250SOL     OW 6779   3.590   2.797   1.854
 2250SOL    HW1 6780   3.544   2.790   1.765
 2250SOL    HW2 6781   3.528   2.841   1.920
 2251SOL     OW 6782   2.169   1.925   0.618
 2251SOL    HW1 6783   2.158   2.019   0.651
 2251SOL    HW2 6784   2.164   1.862   0.695
 2252SOL     OW 6785   3.484   2.229   0.374
 2252SOL    HW1 6786   3.486   2.153   0.438
 2252SOL    HW2 6787   3.436   2.306   0.414
 2253SOL     OW 6788   2.885   2.628   0.966
 2253SOL    HW1 6789   2.900   2.649   1.062
 2253SOL    HW2 6790   2.855   2.533   0.957
 2254SOL     OW 6791   2.842   3.435   1.700
 2254SOL    HW1 6792   2.822   3.479   1.612
 2254SOL    HW2 6793   2.881   3.344   1.684
 2255SOL     OW 6794   3.721   3.380   1.605
 2255SOL    HW1 6795   3.735   3.407   1.510
 2255SOL    HW2 6796   3.804   3.402   1.658
 2256SOL     OW 6797   2.212   2.760   1.804
 2256SOL    HW1 6798   2.288   2.804   1.852
 2256SOL    HW2 6799   2.247   2.713   1.722
 2257SOL     OW 6800   3.402   2.136   0.125
 2257SOL    HW1 6801   3.341   2.061   0.148
 2257SOL    HW2 6802   3.424   2.188   0.208
 2258SOL     OW 6803   3.165   2.700   0.042
 2258SOL    HW1 6804   3.199   2.607   0.057
 2258SOL    HW2 6805   3.183   2.727  -0.053
 2259SOL     OW 6806   2.930   3.195   0.849
 2259SOL    HW1 6807   2.937   3.111   0.794
 2259SOL    HW2 6808   2.992   3.264   0.813
 2260SOL     OW 6809   2.181   2.672   0.949
 2260SOL    HW1 6810   2.274   2.708   0.954
 2260SOL    HW2 6811   2.175   2.587   1.001
 2261SOL     OW 6812   2.201   2.371   1.006
 2261SOL    HW1 6813   2.149   2.288   0.989
 2261SOL    HW2 6814   2.278   2.376   0.942
 2262SOL     OW 6815   3.000   2.242   1.678
 2262SOL    HW1 6816   2.955   2.305   1.742
 2262SOL    HW2 6817   3.093   2.273   1.661
 2263SOL     OW 6818   3.022   2.069   1.477
 2263SOL    HW1 6819   3.022   2.133   1.554
 2263SOL    HW2 6820   3.050   2.117   1.394
 2264SOL     OW 6821   1.950   3.663   0.927
 2264SOL    HW1 6822   1.908   3.577   0.900
 2264SOL    HW2 6823   2.044   3.666   0.893
 2265SOL     OW 6824   2.366   3.430   0.910
 2265SOL    HW1 6825   2.432   3.504   0.919
 2265SOL    HW2 6826   2.410   3.351   0.868
 2266SOL     OW 6827   2.864   2.658   1.238
 2266SOL    HW1 6828   2.905   2.626   1.324
 2266SOL    HW2 6829   2.768   2.631   1.235
 2267SOL     OW 6830   1.902   2.406   1.114
 2267SOL    HW1 6831   1.987   2.373   1.073
 2267SOL    HW2 6832   1.915   2.421   1.212
 2268SOL     OW 6833   2.051   2.382   1.722
 2268SOL    HW1 6834   2.110   2.342   1.652
 2268SOL    HW2 6835   1.993   2.453   1.681
 2269SOL     OW 6836   3.231   2.812   1.660
 2269SOL    HW1 6837   3.270   2.901   1.680
 2269SOL    HW2 6838   3.241   2.792   1.563
 2270SOL     OW 6839   2.677   2.434   0.325
 2270SOL    HW1 6840   2.684   2.345   0.279
 2270SOL    HW2 6841   2.583   2.468   0.317
 2271SOL     OW 6842   3.519   2.466   1.206
 2271SOL    HW1 6843   3.481   2.397   1.268
 2271SOL    HW2 6844   3.601   2.430   1.162
 2272SOL     OW 6845   2.114   3.426   1.744
 2272SOL    HW1 6846   2.084   3.483   1.820
 2272SOL    HW2 6847   2.107   3.329   1.770
 2273SOL     OW 6848   2.533   2.326   1.269
 2273SOL    HW1 6849   2.499   2.237   1.239
 2273SOL    HW2 6850   2.559   2.380   1.189
 2274SOL     OW 6851   2.792   3.540   1.465
 2274SOL    HW1 6852   2.768   3.522   1.370
 2274SOL    HW2 6853   2.822   3.634   1.475
 2275SOL     OW 6854   2.335   2.362   0.191
 2275SOL    HW1 6855   2.396   2.442   0.195
 2275SOL    HW2 6856   2.240   2.393   0.198
 2276SOL     OW 6857   2.021   2.999   1.466
 2276SOL    HW1 6858   2.043   2.938   1.542
 2276SOL    HW2 6859   2.031   2.950   1.380
 2277SOL     OW 6860   3.209   2.921   1.234
 2277SOL    HW1 6861   3.233   2.858   1.160
 2277SOL    HW2 6862   3.119   2.961   1.216
 2278SOL     OW 6863   3.164   2.717   0.309
 2278SOL    HW1 6864   3.078   2.686   0.351
 2278SOL    HW2 6865   3.160   2.703   0.210
 2279SOL     OW 6866   3.621   3.609   1.154
 2279SOL    HW1 6867   3.682   3.639   1.081
 2279SOL    HW2 6868   3.583   3.520   1.132
 2280SOL     OW 6869   3.114   3.593   1.128
 2280SOL    HW1 6870   3.198   3.598   1.074
 2280SOL    HW2 6871   3.091   3.497   1.146
 2281SOL     OW 6872   1.945   3.120   1.022
 2281SOL    HW1 6873   1.940   3.119   1.122
 2281SOL    HW2 6874   1.862   3.079   0.984
 2282SOL     OW 6875   2.550   3.524   1.716
 2282SOL    HW1 6876   2.494   3.605   1.725
 2282SOL    HW2 6877   2.602   3.528   1.630
 2283SOL     OW 6878   2.765   1.948   0.133
 2283SOL    HW1 6879   2.816   1.949   0.047
 2283SOL    HW2 6880   2.821   1.906   0.204
 2284SOL     OW 6881   3.588   1.997   0.523
 2284SOL    HW1 6882   3.661   1.980   0.456
 2284SOL    HW2 6883   3.557   1.910   0.561
 2285SOL     OW 6884   3.250   3.435   0.477
 2285SOL    HW1 6885   3.317   3.447   0.403
 2285SOL    HW2 6886   3.210   3.524   0.500
 2286SOL     OW 6887   1.992   3.656   1.851
 2286SOL    HW1 6888   1.951   3.582   1.904
 2286SOL    HW2 6889   2.056   3.707   1.909
 2287SOL     OW 6890   3.142   2.789   0.672
 2287SOL    HW1 6891   3.202   2.708   0.674
 2287SOL    HW2 6892   3.182   2.858   0.612
 2288SOL     OW 6893   2.692   3.135   1.422
 2288SOL    HW1 6894   2.687   3.168   1.517
 2288SOL    HW2 6895   2.606   3.154   1.376
 2289SOL     OW 6896   2.534   3.478   0.154
 2289SOL    HW1 6897   2.543   3.488   0.055
 2289SOL    HW2 6898   2.494   3.389   0.175
 2290SOL     OW 6899   3.512   3.582   1.394
 2290SOL    HW1 6900   3.565   3.592   1.310
 2290SOL    HW2 6901   3.485   3.672   1.428
 2291SOL     OW 6902   3.703   2.037   0.963
 2291SOL    HW1 6903   3.742   1.952   0.927
 2291SOL    HW2 6904   3.605   2.039   0.944
 2292SOL     OW 6905   2.125   2.188   0.720
 2292SOL    HW1 6906   2.046   2.239   0.686
 2292SOL    HW2 6907   2.116   2.173   0.818
 2293SOL     OW 6908   3.056   3.474   0.031
 2293SOL    HW1 6909   3.062   3.381   0.068
 2293SOL    HW2 6910   2.997   3.474  -0.049
 2294SOL     OW 6911   2.684   2.864   1.372
 2294SOL    HW1 6912   2.724   2.863   1.280
 2294SOL    HW2 6913   2.694   2.956   1.412
 2295SOL     OW 6914   2.778   2.772   0.291
 2295SOL    HW1 6915   2.841   2.810   0.223
 2295SOL    HW2 6916   2.818   2.689   0.330
 2296SOL     OW 6917   3.366   3.469   0.044
 2296SOL    HW1 6918   3.274   3.506   0.051
 2296SOL    HW2 6919   3.404   3.489  -0.046
 2297SOL     OW 6920   2.234   3.150   1.490
 2297SOL    HW1 6921   2.221   3.243   1.456
 2297SOL    HW2 6922   2.150   3.098   1.477
 2298SOL     OW 6923   3.476   3.154   1.289
 2298SOL    HW1 6924   3.536   3.157   1.369
 2298SOL    HW2 6925   3.401   3.218   1.302
 2299SOL     OW 6926   2.901   2.960   0.696
 2299SOL    HW1 6927   2.831   2.913   0.750
 2299SOL    HW2 6928   2.960   2.892   0.653
 2300SOL     OW 6929   2.876   2.098   0.971
 2300SOL    HW1 6930   2.868   2.062   0.878
 2300SOL    HW2 6931   2.874   2.022   1.036
 2301SOL     OW 6932   2.452   3.349   0.491
 2301SOL    HW1 6933   2.494   3.291   0.421
 2301SOL    HW2 6934   2.408   3.428   0.447
 2302SOL     OW 6935   3.571   2.247   1.381
 2302SOL    HW1 6936   3.644   2.316   1.385
 2302SOL    HW2 6937   3.599   2.172   1.322
 2303SOL     OW 6938   2.117   3.210   0.290
 2303SOL    HW1 6939   2.021   3.211   0.263
 2303SOL    HW2 6940   2.129   3.263   0.374
 2304SOL     OW 6941   1.967   2.875   1.726
 2304SOL    HW1 6942   1.890   2.842   1.780
 2304SOL    HW2 6943   2.052   2.845   1.768
 2305SOL     OW 6944   2.534   2.065   1.489
 2305SOL    HW1 6945   2.624   2.049   1.449
 2305SOL    HW2 6946   2.542   2.070   1.588
 2306SOL     OW 6947   3.302   2.718   1.398
 2306SOL    HW1 6948   3.245   2.770   1.335
 2306SOL    HW2 6949   3.398   2.730   1.374
 2307SOL     OW 6950   1.934   2.028   0.318
 2307SOL    HW1 6951   1.917   2.111   0.264
 2307SOL    HW2 6952   2.024   1.991   0.296
 2308SOL     OW 6953   3.045   3.197   0.119
 2308SOL    HW1 6954   2.946   3.186   0.121
 2308SOL    HW2 6955   3.079   3.212   0.212
 2309SOL     OW 6956   2.475   2.704   1.431
 2309SOL    HW1 6957   2.531   2.785   1.414
 2309SOL    HW2 6958   2.534   2.624   1.434
 2310SOL     OW 6959   3.355   3.629   0.959
 2310SOL    HW1 6960   3.388   3.693   0.890
 2310SOL    HW2 6961   3.421   3.623   1.034
 2311SOL     OW 6962   2.578   2.427   1.708
 2311SOL    HW1 6963   2.597   2.492   1.782
 2311SOL    HW2 6964   2.638   2.347   1.717
 2312SOL     OW 6965   3.312   3.082   1.633
 2312SOL    HW1 6966   3.303   3.072   1.732
 2312SOL    HW2 6967   3.408   3.075   1.607
 2313SOL     OW 6968   2.252   3.603   1.560
 2313SOL    HW1 6969   2.161   3.644   1.558
 2313SOL    HW2 6970   2.245   3.509   1.592
 2314SOL     OW 6971   3.536   2.745   1.254
 2314SOL    HW1 6972   3.509   2.656   1.217
 2314SOL    HW2 6973   3.537   2.813   1.181
 2315SOL     OW 6974   3.087   2.187   0.449
 2315SOL    HW1 6975   3.152   2.113   0.438
 2315SOL    HW2 6976   3.107   2.237   0.533
 2316SOL     OW 6977   2.456   2.607   0.652
 2316SOL    HW1 6978   2.506   2.692   0.633
 2316SOL    HW2 6979   2.368   2.609   0.604
 2317SOL     OW 6980   3.639   2.204   1.642
 2317SOL    HW1 6981   3.622   2.235   1.548
 2317SOL    HW2 6982   3.555   2.167   1.680
 2318SOL     OW 6983   3.592   2.796   1.517
 2318SOL    HW1 6984   3.630   2.887   1.532
 2318SOL    HW2 6985   3.584   2.779   1.418
 2319SOL     OW 6986   2.721   3.236   0.016
 2319SOL    HW1 6987   2.675   3.251   0.104
 2319SOL    HW2 6988   2.765   3.321  -0.014
 2320SOL     OW 6989   2.523   3.652   0.953
 2320SOL    HW1 6990   2.477   3.740   0.940
 2320SOL    HW2 6991   2.622   3.664   0.946
 2321SOL     OW 6992   2.721   2.818   0.861
 2321SOL    HW1 6993   2.775   2.749   0.909
 2321SOL    HW2 6994   2.689   2.887   0.927
 2322SOL     OW 6995   2.945   2.846   0.087
 2322SOL    HW1 6996   2.922   2.899   0.005
 2322SOL    HW2 6997   3.026   2.790   0.068
 2323SOL     OW 6998   3.723   3.431   0.851
 2323SOL    HW1 6999   3.652   3.419   0.781
 2323SOL    HW2 7000   3.724   3.352   0.911
 2324SOL     OW 7001   2.083   3.176   1.844
 2324SOL    HW1 7002   2.018   3.103   1.823
 2324SOL    HW2 7003   2.087   3.190   1.942
 2325SOL     OW 7004   1.941   3.102   0.653
 2325SOL    HW1 7005   1.940   3.055   0.741
 2325SOL    HW2 7006   2.023   3.074   0.602
 2326SOL     OW 7007   2.534   3.253   1.624
 2326SOL    HW1 7008   2.456   3.203   1.662
 2326SOL    HW2 7009   2.531   3.348   1.655
 2327SOL     OW 7010   3.686   2.054   1.227
 2327SOL    HW1 7011   3.682   1.964   1.271
 2327SOL    HW2 7012   3.689   2.043   1.128
 2328SOL     OW 7013   2.290   2.286   0.520
 2328SOL    HW1 7014   2.320   2.214   0.458
 2328SOL    HW2 7015   2.251   2.246   0.603
 2329SOL     OW 7016   3.567   3.349   1.104
 2329SOL    HW1 7017   3.474   3.324   1.077
 2329SOL    HW2 7018   3.593   3.299   1.186
 2330SOL     OW 7019   2.179   2.409   1.280
 2330SOL    HW1 7020   2.217   2.350   1.352
 2330SOL    HW2 7021   2.219   2.383   1.192
 2331SOL     OW 7022   2.674   3.448   0.687
 2331SOL    HW1 7023   2.706   3.458   0.593
 2331SOL    HW2 7024   2.595   3.386   0.689
 2332SOL     OW 7025   3.286   2.076   1.112
 2332SOL    HW1 7026   3.338   2.011   1.167
 2332SOL    HW2 7027   3.237   2.139   1.173
 2333SOL     OW 7028   2.863   1.896   1.154
 2333SOL    HW1 7029   2.800   1.824   1.123
 2333SOL    HW2 7030   2.956   1.860   1.154
 2334SOL     OW 7031   2.632   3.192   0.301
 2334SOL    HW1 7032   2.586   3.105   0.318
 2334SOL    HW2 7033   2.723   3.189   0.342
 2335SOL     OW 7034   2.480   3.429   1.284
 2335SOL    HW1 7035   2.475   3.511   1.341
 2335SOL    HW2 7036   2.569   3.426   1.239
 2336SOL     OW 7037   3.214   1.914   0.168
 2336SOL    HW1 7038   3.249   1.873   0.084
 2336SOL    HW2 7039   3.124   1.876   0.188
 2337SOL     OW 7040   3.162   2.315   0.691
 2337SOL    HW1 7041   3.103   2.395   0.695
 2337SOL    HW2 7042   3.177   2.280   0.784
 2338SOL     OW 7043   3.455   2.083   0.882
 2338SOL    HW1 7044   3.371   2.082   0.936
 2338SOL    HW2 7045   3.457   2.166   0.826
 2339SOL     OW 7046   1.901   2.939   0.300
 2339SOL    HW1 7047   2.000   2.928   0.291
 2339SOL    HW2 7048   1.861   2.853   0.332
 2340SOL     OW 7049   2.737   3.508   0.337
 2340SOL    HW1 7050   2.660   3.473   0.283
 2340SOL    HW2 7051   2.705   3.579   0.399
 2341SOL     OW 7052   2.092   2.490   1.975
 2341SOL    HW1 7053   1.999   2.488   2.012
 2341SOL    HW2 7054   2.093   2.451   1.883
 2342SOL     OW 7055   2.087   2.137   2.858
 2342SOL    HW1 7056   2.122   2.120   2.950
 2342SOL    HW2 7057   1.999   2.092   2.846
 2343SOL     OW 7058   1.881   2.230   2.509
 2343SOL    HW1 7059   1.799   2.273   2.548
 2343SOL    HW2 7060   1.853   2.157   2.446
 2344SOL     OW 7061   2.431   3.137   3.027
 2344SOL    HW1 7062   2.338   3.130   2.990
 2344SOL    HW2 7063   2.442   3.226   3.071
 2345SOL     OW 7064   3.417   3.373   2.565
 2345SOL    HW1 7065   3.360   3.357   2.646
 2345SOL    HW2 7066   3.358   3.383   2.485
 2346SOL     OW 7067   2.997   2.565   2.579
 2346SOL    HW1 7068   3.054   2.643   2.554
 2346SOL    HW2 7069   2.937   2.591   2.655
 2347SOL     OW 7070   3.617   2.469   2.093
 2347SOL    HW1 7071   3.605   2.456   1.994
 2347SOL    HW2 7072   3.587   2.388   2.142
 2348SOL     OW 7073   2.630   3.006   2.885
 2348SOL    HW1 7074   2.552   3.023   2.945
 2348SOL    HW2 7075   2.664   3.093   2.849
 2349SOL     OW 7076   2.712   2.660   3.685
 2349SOL    HW1 7077   2.708   2.736   3.750
 2349SOL    HW2 7078   2.734   2.696   3.594
 2350SOL     OW 7079   2.547   2.874   2.527
 2350SOL    HW1 7080   2.616   2.858   2.597
 2350SOL    HW2 7081   2.474   2.931   2.565
 2351SOL     OW 7082   2.548   3.023   3.665
 2351SOL    HW1 7083   2.608   3.102   3.679
 2351SOL    HW2 7084   2.462   3.054   3.624
 2352SOL     OW 7085   2.197   3.297   2.923
 2352SOL    HW1 7086   2.119   3.266   2.870
 2352SOL    HW2 7087   2.255   3.355   2.866
 2353SOL     OW 7088   3.322   3.367   3.201
 2353SOL    HW1 7089   3.346   3.461   3.227
 2353SOL    HW2 7090   3.306   3.313   3.283
 2354SOL     OW 7091   2.300   2.254   3.361
 2354SOL    HW1 7092   2.382   2.198   3.370
 2354SOL    HW2 7093   2.219   2.196   3.365
 2355SOL     OW 7094   3.465   2.309   2.599
 2355SOL    HW1 7095   3.391   2.355   2.549
 2355SOL    HW2 7096   3.516   2.377   2.652
 2356SOL     OW 7097   2.093   3.575   2.345
 2356SOL    HW1 7098   2.127   3.652   2.399
 2356SOL    HW2 7099   2.137   3.575   2.255
 2357SOL     OW 7100   2.989   3.203   3.552
 2357SOL    HW1 7101   3.036   3.203   3.640
 2357SOL    HW2 7102   2.941   3.116   3.541
 2358SOL     OW 7103   2.092   3.296   2.400
 2358SOL    HW1 7104   2.066   3.392   2.400
 2358SOL    HW2 7105   2.021   3.242   2.445
 2359SOL     OW 7106   2.102   2.953   2.748
 2359SOL    HW1 7107   2.116   2.869   2.800
 2359SOL    HW2 7108   2.047   3.017   2.803
 2360SOL     OW 7109   2.482   3.648   3.301
 2360SOL    HW1 7110   2.390   3.631   3.336
 2360SOL    HW2 7111   2.510   3.740   3.327
 2361SOL     OW 7112   2.468   2.826   1.985
 2361SOL    HW1 7113   2.475   2.910   1.931
 2361SOL    HW2 7114   2.514   2.839   2.073
 2362SOL     OW 7115   3.456   1.976   3.342
 2362SOL    HW1 7116   3.438   2.043   3.270
 2362SOL    HW2 7117   3.453   2.022   3.431
 2363SOL     OW 7118   1.984   2.505   2.425
 2363SOL    HW1 7119   1.939   2.417   2.442
 2363SOL    HW2 7120   1.983   2.559   2.509
 2364SOL     OW 7121   3.704   3.629   2.221
 2364SOL    HW1 7122   3.758   3.600   2.301
 2364SOL    HW2 7123   3.734   3.719   2.192
 2365SOL     OW 7124   1.889   3.458   1.979
 2365SOL    HW1 7125   1.870   3.362   2.000
 2365SOL    HW2 7126   1.856   3.516   2.054
 2366SOL     OW 7127   3.551   2.784   2.474
 2366SOL    HW1 7128   3.646   2.755   2.482
 2366SOL    HW2 7129   3.543   2.849   2.399
 2367SOL     OW 7130   3.503   2.970   2.294
 2367SOL    HW1 7131   3.589   2.972   2.242
 2367SOL    HW2 7132   3.517   3.017   2.382
 2368SOL     OW 7133   1.975   2.599   3.459
 2368SOL    HW1 7134   2.063   2.586   3.504
 2368SOL    HW2 7135   1.962   2.696   3.437
 2369SOL     OW 7136   2.475   3.227   2.588
 2369SOL    HW1 7137   2.426   3.140   2.597
 2369SOL    HW2 7138   2.452   3.270   2.501
 2370SOL     OW 7139   3.155   3.090   3.285
 2370SOL    HW1 7140   3.192   3.017   3.227
 2370SOL    HW2 7141   3.207   3.095   3.370
 2371SOL     OW 7142   2.671   1.866   2.364
 2371SOL    HW1 7143   2.711   1.957   2.355
 2371SOL    HW2 7144   2.571   1.874   2.370
 2372SOL     OW 7145   2.059   2.838   3.126
 2372SOL    HW1 7146   2.148   2.793   3.112
 2372SOL    HW2 7147   1.986   2.773   3.107
 2373SOL     OW 7148   3.387   2.861   2.052
 2373SOL    HW1 7149   3.324   2.785   2.065
 2373SOL    HW2 7150   3.435   2.879   2.138
 2374SOL     OW 7151   3.049   3.654   3.478
 2374SOL    HW1 7152   3.073   3.714   3.402
 2374SOL    HW2 7153   3.056   3.559   3.448
 2375SOL     OW 7154   2.179   2.113   3.663
 2375SOL    HW1 7155   2.250   2.184   3.669
 2375SOL    HW2 7156   2.091   2.152   3.691
 2376SOL     OW 7157   3.328   3.279   2.815
 2376SOL    HW1 7158   3.269   3.285   2.895
 2376SOL    HW2 7159   3.313   3.191   2.769
 2377SOL     OW 7160   3.529   3.576   2.434
 2377SOL    HW1 7161   3.488   3.553   2.346
 2377SOL    HW2 7162   3.511   3.502   2.499
 2378SOL     OW 7163   3.143   2.207   2.806
 2378SOL    HW1 7164   3.057   2.157   2.793
 2378SOL    HW2 7165   3.205   2.153   2.862
 2379SOL     OW 7166   3.438   3.524   2.169
 2379SOL    HW1 7167   3.527   3.570   2.172
 2379SOL    HW2 7168   3.417   3.500   2.074
 2380SOL     OW 7169   2.669   2.467   3.327
 2380SOL    HW1 7170   2.622   2.464   3.416
 2380SOL    HW2 7171   2.618   2.412   3.261
 2381SOL     OW 7172   3.256   2.331   3.536
 2381SOL    HW1 7173   3.236   2.374   3.624
 2381SOL    HW2 7174   3.334   2.269   3.545
 2382SOL     OW 7175   2.835   2.752   3.434
 2382SOL    HW1 7176   2.881   2.668   3.405
 2382SOL    HW2 7177   2.779   2.786   3.359
 2383SOL     OW 7178   2.853   2.272   3.104
 2383SOL    HW1 7179   2.776   2.306   3.158
 2383SOL    HW2 7180   2.819   2.221   3.025
 2384SOL     OW 7181   1.938   2.673   2.651
 2384SOL    HW1 7182   2.037   2.661   2.660
 2384SOL    HW2 7183   1.914   2.768   2.672
 2385SOL     OW 7184   1.992   3.683   3.433
 2385SOL    HW1 7185   1.982   3.668   3.532
 2385SOL    HW2 7186   1.906   3.719   3.397
 2386SOL     OW 7187   2.727   2.210   2.057
 2386SOL    HW1 7188   2.786   2.273   2.008
 2386SOL    HW2 7189   2.746   2.116   2.028
 2387SOL     OW 7190   3.581   2.447   3.693
 2387SOL    HW1 7191   3.555   2.536   3.657
 2387SOL    HW2 7192   3.579   2.379   3.620
 2388SOL     OW 7193   3.224   3.006   2.407
 2388SOL    HW1 7194   3.307   2.977   2.359
 2388SOL    HW2 7195   3.175   3.073   2.351
 2389SOL     OW 7196   2.412   2.058   2.747
 2389SOL    HW1 7197   2.407   2.053   2.847
 2389SOL    HW2 7198   2.414   2.154   2.718
 2390SOL     OW 7199   2.870   3.318   2.339
 2390SOL    HW1 7200   2.824   3.390   2.287
 2390SOL    HW2 7201   2.866   3.338   2.437
 2391SOL     OW 7202   2.213   3.663   2.715
 2391SOL    HW1 7203   2.263   3.577   2.721
 2391SOL    HW2 7204   2.278   3.740   2.712
 2392SOL     OW 7205   3.657   2.928   2.735
 2392SOL    HW1 7206   3.595   2.913   2.659
 2392SOL    HW2 7207   3.605   2.939   2.820
 2393SOL     OW 7208   3.089   3.412   3.368
 2393SOL    HW1 7209   3.095   3.335   3.432
 2393SOL    HW2 7210   3.037   3.386   3.288
 2394SOL     OW 7211   2.183   2.805   2.104
 2394SOL    HW1 7212   2.265   2.844   2.062
 2394SOL    HW2 7213   2.156   2.723   2.055
 2395SOL     OW 7214   3.320   2.597   2.590
 2395SOL    HW1 7215   3.315   2.532   2.665
 2395SOL    HW2 7216   3.400   2.656   2.603
 2396SOL     OW 7217   2.323   3.128   3.589
 2396SOL    HW1 7218   2.273   3.129   3.503
 2396SOL    HW2 7219   2.260   3.110   3.665
 2397SOL     OW 7220   2.973   3.638   2.099
 2397SOL    HW1 7221   2.913   3.576   2.149
 2397SOL    HW2 7222   3.004   3.594   2.014
 2398SOL     OW 7223   2.064   2.147   3.360
 2398SOL    HW1 7224   1.984   2.207   3.347
 2398SOL    HW2 7225   2.054   2.098   3.446
 2399SOL     OW 7226   3.494   3.239   1.943
 2399SOL    HW1 7227   3.462   3.333   1.933
 2399SOL    HW2 7228   3.418   3.176   1.931
 2400SOL     OW 7229   2.326   3.605   2.185
 2400SOL    HW1 7230   2.359   3.644   2.271
 2400SOL    HW2 7231   2.402   3.598   2.120
 2401SOL     OW 7232   3.262   1.969   2.288
 2401SOL    HW1 7233   3.238   1.932   2.198
 2401SOL    HW2 7234   3.361   1.985   2.292
 2402SOL     OW 7235   2.111   3.647   3.103
 2402SOL    HW1 7236   2.168   3.582   3.153
 2402SOL    HW2 7237   2.095   3.614   3.010
 2403SOL     OW 7238   2.802   3.560   2.766
 2403SOL    HW1 7239   2.882   3.503   2.787
 2403SOL    HW2 7240   2.753   3.520   2.689
 2404SOL     OW 7241   3.409   2.084   3.591
 2404SOL    HW1 7242   3.404   2.121   3.683
 2404SOL    HW2 7243   3.337   2.015   3.579
 2405SOL     OW 7244   2.476   1.984   1.979
 2405SOL    HW1 7245   2.574   1.962   1.986
 2405SOL    HW2 7246   2.445   1.967   1.886
 2406SOL     OW 7247   2.643   2.126   3.611
 2406SOL    HW1 7248   2.710   2.065   3.654
 2406SOL    HW2 7249   2.570   2.145   3.676
 2407SOL     OW 7250   2.750   3.376   3.057
 2407SOL    HW1 7251   2.727   3.351   2.963
 2407SOL    HW2 7252   2.811   3.307   3.096
 2408SOL     OW 7253   3.213   2.452   3.295
 2408SOL    HW1 7254   3.241   2.409   3.380
 2408SOL    HW2 7255   3.238   2.548   3.296
 2409SOL     OW 7256   2.665   3.264   2.786
 2409SOL    HW1 7257   2.755   3.278   2.744
 2409SOL    HW2 7258   2.594   3.266   2.715
 2410SOL     OW 7259   2.784   2.365   2.761
 2410SOL    HW1 7260   2.759   2.356   2.665
 2410SOL    HW2 7261   2.832   2.283   2.792
 2411SOL     OW 7262   2.401   1.926   2.374
 2411SOL    HW1 7263   2.320   1.927   2.432
 2411SOL    HW2 7264   2.404   2.009   2.319
 2412SOL     OW 7265   3.296   3.050   1.903
 2412SOL    HW1 7266   3.328   2.974   1.960
 2412SOL    HW2 7267   3.204   3.077   1.933
 2413SOL     OW 7268   2.159   1.897   2.033
 2413SOL    HW1 7269   2.208   1.981   2.012
 2413SOL    HW2 7270   2.221   1.832   2.078
 2414SOL     OW 7271   2.797   2.098   2.342
 2414SOL    HW1 7272   2.749   2.139   2.264
 2414SOL    HW2 7273   2.896   2.096   2.323
 2415SOL     OW 7274   2.938   2.545   3.326
 2415SOL    HW1 7275   2.858   2.484   3.329
 2415SOL    HW2 7276   3.019   2.492   3.302
 2416SOL     OW 7277   3.089   3.432   2.655
 2416SOL    HW1 7278   3.110   3.506   2.590
 2416SOL    HW2 7279   3.157   3.432   2.728
 2417SOL     OW 7280   2.321   3.014   2.603
 2417SOL    HW1 7281   2.250   2.987   2.668
 2417SOL    HW2 7282   2.295   2.986   2.510
 2418SOL     OW 7283   3.133   3.659   2.453
 2418SOL    HW1 7284   3.177   3.723   2.389
 2418SOL    HW2 7285   3.083   3.711   2.523
 2419SOL     OW 7286   2.894   2.411   1.878
 2419SOL    HW1 7287   2.853   2.493   1.839
 2419SOL    HW2 7288   2.958   2.437   1.951
 2420SOL     OW 7289   1.940   2.418   3.248
 2420SOL    HW1 7290   2.032   2.417   3.207
 2420SOL    HW2 7291   1.934   2.492   3.315
 2421SOL     OW 7292   2.423   2.084   3.009
 2421SOL    HW1 7293   2.461   2.000   3.046
 2421SOL    HW2 7294   2.335   2.103   3.053
 2422SOL     OW 7295   2.728   2.316   2.504
 2422SOL    HW1 7296   2.696   2.388   2.442
 2422SOL    HW2 7297   2.752   2.235   2.451
 2423SOL     OW 7298   2.879   1.901   2.615
 2423SOL    HW1 7299   2.807   1.906   2.546
 2423SOL    HW2 7300   2.855   1.832   2.684
 2424SOL     OW 7301   3.291   3.035   2.729
 2424SOL    HW1 7302   3.236   2.951   2.722
 2424SOL    HW2 7303   3.317   3.064   2.637
 2425SOL     OW 7304   3.328   2.452   2.854
 2425SOL    HW1 7305   3.298   2.357   2.861
 2425SOL    HW2 7306   3.401   2.468   2.920
 2426SOL     OW 7307   3.719   2.695   2.239
 2426SOL    HW1 7308   3.761   2.631   2.303
 2426SOL    HW2 7309   3.681   2.644   2.161
 2427SOL     OW 7310   2.350   3.247   2.036
 2427SOL    HW1 7311   2.263   3.232   2.083
 2427SOL    HW2 7312   2.333   3.273   1.941
 2428SOL     OW 7313   3.526   3.142   2.519
 2428SOL    HW1 7314   3.625   3.150   2.533
 2428SOL    HW2 7315   3.481   3.226   2.550
 2429SOL     OW 7316   3.252   2.437   1.940
 2429SOL    HW1 7317   3.198   2.416   2.021
 2429SOL    HW2 7318   3.343   2.396   1.949
 2430SOL     OW 7319   2.389   2.118   2.190
 2430SOL    HW1 7320   2.416   2.059   2.115
 2430SOL    HW2 7321   2.389   2.213   2.159
 2431SOL     OW 7322   3.616   3.085   3.450
 2431SOL    HW1 7323   3.707   3.046   3.437
 2431SOL    HW2 7324   3.624   3.181   3.474
 2432SOL     OW 7325   2.926   3.209   3.202
 2432SOL    HW1 7326   2.846   3.186   3.257
 2432SOL    HW2 7327   3.009   3.183   3.251
 2433SOL     OW 7328   3.454   3.491   3.487
 2433SOL    HW1 7329   3.481   3.525   3.397
 2433SOL    HW2 7330   3.533   3.453   3.533
 2434SOL     OW 7331   2.973   3.057   2.962
 2434SOL    HW1 7332   2.933   3.101   3.043
 2434SOL    HW2 7333   2.932   3.094   2.879
 2435SOL     OW 7334   3.500   2.961   2.941
 2435SOL    HW1 7335   3.505   3.042   3.000
 2435SOL    HW2 7336   3.414   2.963   2.890
 2436SOL     OW 7337   2.777   1.951   3.264
 2436SOL    HW1 7338   2.802   1.931   3.169
 2436SOL    HW2 7339   2.849   2.007   3.306
 2437SOL     OW 7340   2.842   2.978   3.581
 2437SOL    HW1 7341   2.743   2.984   3.591
 2437SOL    HW2 7342   2.865   2.898   3.525
 2438SOL     OW 7343   2.567   2.912   2.230
 2438SOL    HW1 7344   2.553   2.919   2.329
 2438SOL    HW2 7345   2.651   2.861   2.212
 2439SOL     OW 7346   2.272   2.675   3.113
 2439SOL    HW1 7347   2.358   2.687   3.163
 2439SOL    HW2 7348   2.230   2.588   3.140
 2440SOL     OW 7349   3.136   2.248   3.124
 2440SOL    HW1 7350   3.157   2.322   3.188
 2440SOL    HW2 7351   3.047   2.265   3.081
 2441SOL     OW 7352   1.926   3.426   3.193
 2441SOL    HW1 7353   1.880   3.508   3.159
 2441SOL    HW2 7354   2.024   3.445   3.202
 2442SOL     OW 7355   2.229   2.962   2.363
 2442SOL    HW1 7356   2.222   3.045   2.307
 2442SOL    HW2 7357   2.233   2.882   2.303
 2443SOL     OW 7358   3.114   3.210   2.250
 2443SOL    HW1 7359   3.164   3.287   2.290
 2443SOL    HW2 7360   3.019   3.212   2.282
 2444SOL     OW 7361   3.134   3.307   3.004
 2444SOL    HW1 7362   3.181   3.320   3.091
 2444SOL    HW2 7363   3.068   3.233   3.013
 2445SOL     OW 7364   3.444   2.501   2.334
 2445SOL    HW1 7365   3.413   2.562   2.407
 2445SOL    HW2 7366   3.494   2.553   2.265
 2446SOL     OW 7367   2.216   3.372   3.191
 2446SOL    HW1 7368   2.195   3.328   3.104
 2446SOL    HW2 7369   2.313   3.398   3.194
 2447SOL     OW 7370   2.264   2.613   3.460
 2447SOL    HW1 7371   2.332   2.668   3.413
 2447SOL    HW2 7372   2.304   2.525   3.487
 2448SOL     OW 7373   3.449   2.641   3.532
 2448SOL    HW1 7374   3.357   2.679   3.527
 2448SOL    HW2 7375   3.509   2.688   3.467
 2449SOL     OW 7376   2.875   1.967   3.632
 2449SOL    HW1 7377   2.881   2.052   3.580
 2449SOL    HW2 7378   2.907   1.891   3.575
 2450SOL     OW 7379   2.366   1.912   3.602
 2450SOL    HW1 7380   2.324   1.855   3.532
 2450SOL    HW2 7381   2.300   1.981   3.634
 2451SOL     OW 7382   2.435   2.732   2.891
 2451SOL    HW1 7383   2.479   2.821   2.882
 2451SOL    HW2 7384   2.372   2.732   2.968
 2452SOL     OW 7385   3.222   2.724   2.907
 2452SOL    HW1 7386   3.147   2.724   2.841
 2452SOL    HW2 7387   3.259   2.632   2.916
 2453SOL     OW 7388   3.071   2.387   2.137
 2453SOL    HW1 7389   3.084   2.303   2.191
 2453SOL    HW2 7390   3.042   2.461   2.197
 2454SOL     OW 7391   2.169   2.075   3.093
 2454SOL    HW1 7392   2.146   2.112   3.183
 2454SOL    HW2 7393   2.139   1.980   3.087
 2455SOL     OW 7394   1.899   3.172   3.144
 2455SOL    HW1 7395   1.952   3.123   3.212
 2455SOL    HW2 7396   1.921   3.270   3.149
 2456SOL     OW 7397   3.590   2.797   3.716
 2456SOL    HW1 7398   3.544   2.790   3.627
 2456SOL    HW2 7399   3.528   2.841   3.782
 2457SOL     OW 7400   2.169   1.925   2.480
 2457SOL    HW1 7401   2.158   2.019   2.513
 2457SOL    HW2 7402   2.164   1.862   2.557
 2458SOL     OW 7403   3.484   2.229   2.236
 2458SOL    HW1 7404   3.486   2.153   2.300
 2458SOL    HW2 7405   3.436   2.306   2.276
 2459SOL     OW 7406   2.885   2.628   2.828
 2459SOL    HW1 7407   2.900   2.649   2.924
 2459SOL    HW2 7408   2.855   2.533   2.819
 2460SOL     OW 7409   2.842   3.435   3.562
 2460SOL    HW1 7410   2.822   3.479   3.474
 2460SOL    HW2 7411   2.881   3.344   3.546
 2461SOL     OW 7412   3.721   3.380   3.467
 2461SOL    HW1 7413   3.735   3.407   3.372
 2461SOL    HW2 7414   3.804   3.402   3.520
 2462SOL     OW 7415   2.212   2.760   3.666
 2462SOL    HW1 7416   2.288   2.804   3.714
 2462SOL    HW2 7417   2.247   2.713   3.584
 2463SOL     OW 7418   3.402   2.136   1.987
 2463SOL    HW1 7419   3.341   2.061   2.010
 2463SOL    HW2 7420   3.424   2.188   2.070
 2464SOL     OW 7421   3.165   2.700   1.904
 2464SOL    HW1 7422   3.199   2.607   1.919
 2464SOL    HW2 7423   3.183   2.727   1.809
 2465SOL     OW 7424   2.930   3.195   2.711
 2465SOL    HW1 7425   2.937   3.111   2.656
 2465SOL    HW2 7426   2.992   3.264   2.675
 2466SOL     OW 7427   2.181   2.672   2.811
 2466SOL    HW1 7428   2.274   2.708   2.816
 2466SOL    HW2 7429   2.175   2.587   2.863
 2467SOL     OW 7430   2.201   2.371   2.868
 2467SOL    HW1 7431   2.149   2.288   2.851
 2467SOL    HW2 7432   2.278   2.376   2.804
 2468SOL     OW 7433   3.000   2.242   3.540
 2468SOL    HW1 7434   2.955   2.305   3.604
 2468SOL    HW2 7435   3.093   2.273   3.523
 2469SOL     OW 7436   3.022   2.069   3.339
 2469SOL    HW1 7437   3.022   2.133   3.416
 2469SOL    HW2 7438   3.050   2.117   3.256
 2470SOL     OW 7439   1.870   3.188   2.062
 2470SOL    HW1 7440   1.777   3.209   2.031
 2470SOL    HW2 7441   1.880   3.089   2.075
 2471SOL     OW 7442   1.950   3.663   2.789
 2471SOL    HW1 7443   1.908   3.577   2.762
 2471SOL    HW2 7444   2.044   3.666   2.755
 2472SOL     OW 7445   2.366   3.430   2.772
 2472SOL    HW1 7446   2.432   3.504   2.781
 2472SOL    HW2 7447   2.410   3.351   2.730
 2473SOL     OW 7448   1.902   2.406   2.976
 2473SOL    HW1 7449   1.987   2.373   2.935
 2473SOL    HW2 7450   1.915   2.421   3.074
 2474SOL     OW 7451   2.051   2.382   3.584
 2474SOL    HW1 7452   2.110   2.342   3.514
 2474SOL    HW2 7453   1.993   2.453   3.543
 2475SOL     OW 7454   3.231   2.812   3.522
 2475SOL    HW1 7455   3.270   2.901   3.542
 2475SOL    HW2 7456   3.241   2.792   3.425
 2476SOL     OW 7457   3.519   2.466   3.068
 2476SOL    HW1 7458   3.481   2.397   3.130
 2476SOL    HW2 7459   3.601   2.430   3.024
 2477SOL     OW 7460   2.114   3.426   3.606
 2477SOL    HW1 7461   2.084   3.483   3.682
 2477SOL    HW2 7462   2.107   3.329   3.632
 2478SOL     OW 7463   2.792   3.540   3.327
 2478SOL    HW1 7464   2.768   3.522   3.232
 2478SOL    HW2 7465   2.822   3.634   3.337
 2479SOL     OW 7466   2.021   2.999   3.328
 2479SOL    HW1 7467   2.043   2.938   3.404
 2479SOL    HW2 7468   2.031   2.950   3.242
 2480SOL     OW 7469   3.209   2.921   3.096
 2480SOL    HW1 7470   3.233   2.858   3.022
 2480SOL    HW2 7471   3.119   2.961   3.078
 2481SOL     OW 7472   3.164   2.717   2.171
 2481SOL    HW1 7473   3.078   2.686   2.213
 2481SOL    HW2 7474   3.160   2.703   2.072
 2482SOL     OW 7475   3.621   3.609   3.016
 2482SOL    HW1 7476   3.682   3.639   2.943
 2482SOL    HW2 7477   3.583   3.520   2.994
 2483SOL     OW 7478   3.114   3.593   2.990
 2483SOL    HW1 7479   3.198   3.598   2.936
 2483SOL    HW2 7480   3.091   3.497   3.008
 2484SOL     OW 7481   1.945   3.120   2.884
 2484SOL    HW1 7482   1.940   3.119   2.984
 2484SOL    HW2 7483   1.862   3.079   2.846
 2485SOL     OW 7484   2.550   3.524   3.578
 2485SOL    HW1 7485   2.494   3.605   3.587
 2485SOL    HW2 7486   2.602   3.528   3.492
 2486SOL     OW 7487   3.588   1.997   2.385
 2486SOL    HW1 7488   3.661   1.980   2.318
 2486SOL    HW2 7489   3.557   1.910   2.423
 2487SOL     OW 7490   3.250   3.435   2.339
 2487SOL    HW1 7491   3.317   3.447   2.265
 2487SOL    HW2 7492   3.210   3.524   2.362
 2488SOL     OW 7493   1.992   3.656   3.713
 2488SOL    HW1 7494   1.951   3.582   3.766
 2488SOL    HW2 7495   2.056   3.707   3.771
 2489SOL     OW 7496   3.142   2.789   2.534
 2489SOL    HW1 7497   3.202   2.708   2.536
 2489SOL    HW2 7498   3.182   2.858   2.474
 2490SOL     OW 7499   2.692   3.135   3.284
 2490SOL    HW1 7500   2.687   3.168   3.379
 2490SOL    HW2 7501   2.606   3.154   3.238
 2491SOL     OW 7502   2.534   3.478   2.016
 2491SOL    HW1 7503   2.543   3.488   1.917
 2491SOL    HW2 7504   2.494   3.389   2.037
 2492SOL     OW 7505   3.512   3.582   3.256
 2492SOL    HW1 7506   3.565   3.592   3.172
 2492SOL    HW2 7507   3.485   3.672   3.290
 2493SOL     OW 7508   3.703   2.037   2.825
 2493SOL    HW1 7509   3.742   1.952   2.789
 2493SOL    HW2 7510   3.605   2.039   2.806
 2494SOL     OW 7511   2.125   2.188   2.582
 2494SOL    HW1 7512   2.046   2.239   2.548
 2494SOL    HW2 7513   2.116   2.173   2.680
 2495SOL     OW 7514   3.056   3.474   1.893
 2495SOL    HW1 7515   3.062   3.381   1.930
 2495SOL    HW2 7516   2.997   3.474   1.813
 2496SOL     OW 7517   2.684   2.864   3.234
 2496SOL    HW1 7518   2.724   2.863   3.142
 2496SOL    HW2 7519   2.694   2.956   3.274
 2497SOL     OW 7520   3.366   3.469   1.906
 2497SOL    HW1 7521   3.274   3.506   1.913
 2497SOL    HW2 7522   3.404   3.489   1.816
 2498SOL     OW 7523   2.234   3.150   3.352
 2498SOL    HW1 7524   2.221   3.243   3.318
 2498SOL    HW2 7525   2.150   3.098   3.339
 2499SOL     OW 7526   3.476   3.154   3.151
 2499SOL    HW1 7527   3.536   3.157   3.231
 2499SOL    HW2 7528   3.401   3.218   3.164
 2500SOL     OW 7529   2.901   2.960   2.558
 2500SOL    HW1 7530   2.831   2.913   2.612
 2500SOL    HW2 7531   2.960   2.892   2.515
 2501SOL     OW 7532   2.876   2.098   2.833
 2501SOL    HW1 7533   2.868   2.062   2.740
 2501SOL    HW2 7534   2.874   2.022   2.898
 2502SOL     OW 7535   2.452   3.349   2.353
 2502SOL    HW1 7536   2.494   3.291   2.283
 2502SOL    HW2 7537   2.408   3.428   2.309
 2503SOL     OW 7538   3.571   2.247   3.243
 2503SOL    HW1 7539   3.644   2.316   3.247
 2503SOL    HW2 7540   3.599   2.172   3.184
 2504SOL     OW 7541   2.117   3.210   2.152
 2504SOL    HW1 7542   2.021   3.211   2.125
 2504SOL    HW2 7543   2.129   3.263   2.236
 2505SOL     OW 7544   1.967   2.875   3.588
 2505SOL    HW1 7545   1.890   2.842   3.642
 2505SOL    HW2 7546   2.052   2.845   3.630
 2506SOL     OW 7547   2.534   2.065   3.351
 2506SOL    HW1 7548   2.624   2.049   3.311
 2506SOL    HW2 7549   2.542   2.070   3.450
 2507SOL     OW 7550   1.937   2.207   1.895
 2507SOL    HW1 7551   1.845   2.179   1.866
 2507SOL    HW2 7552   1.968   2.284   1.839
 2508SOL     OW 7553   3.302   2.718   3.260
 2508SOL    HW1 7554   3.245   2.770   3.197
 2508SOL    HW2 7555   3.398   2.730   3.236
 2509SOL     OW 7556   1.934   2.028   2.180
 2509SOL    HW1 7557   1.917   2.111   2.126
 2509SOL    HW2 7558   2.024   1.991   2.158
 2510SOL     OW 7559   3.045   3.197   1.981
 2510SOL    HW1 7560   2.946   3.186   1.983
 2510SOL    HW2 7561   3.079   3.212   2.074
 2511SOL     OW 7562   2.475   2.704   3.293
 2511SOL    HW1 7563   2.531   2.785   3.276
 2511SOL    HW2 7564   2.534   2.624   3.296
 2512SOL     OW 7565   3.355   3.629   2.821
 2512SOL    HW1 7566   3.388   3.693   2.752
 2512SOL    HW2 7567   3.421   3.623   2.896
 2513SOL     OW 7568   2.578   2.427   3.570
 2513SOL    HW1 7569   2.597   2.492   3.644
 2513SOL    HW2 7570   2.638   2.347   3.579
 2514SOL     OW 7571   3.312   3.082   3.495
 2514SOL    HW1 7572   3.303   3.072   3.594
 2514SOL    HW2 7573   3.408   3.075   3.469
 2515SOL     OW 7574   2.252   3.603   3.422
 2515SOL    HW1 7575   2.161   3.644   3.420
 2515SOL    HW2 7576   2.245   3.509   3.454
 2516SOL     OW 7577   3.536   2.745   3.116
 2516SOL    HW1 7578   3.509   2.656   3.079
 2516SOL    HW2 7579   3.537   2.813   3.043
 2517SOL     OW 7580   3.087   2.187   2.311
 2517SOL    HW1 7581   3.152   2.113   2.300
 2517SOL    HW2 7582   3.107   2.237   2.395
 2518SOL     OW 7583   3.639   2.204   3.504
 2518SOL    HW1 7584   3.622   2.235   3.410
 2518SOL    HW2 7585   3.555   2.167   3.542
 2519SOL     OW 7586   3.592   2.796   3.379
 2519SOL    HW1 7587   3.630   2.887   3.394
 2519SOL    HW2 7588   3.584   2.779   3.280
 2520SOL     OW 7589   2.721   3.236   1.878
 2520SOL    HW1 7590   2.675   3.251   1.966
 2520SOL    HW2 7591   2.765   3.321   1.848
 2521SOL     OW 7592   2.523   3.652   2.815
 2521SOL    HW1 7593   2.477   3.740   2.802
 2521SOL    HW2 7594   2.622   3.664   2.808
 2522SOL     OW 7595   2.945   2.846   1.949
 2522SOL    HW1 7596   2.922   2.899   1.867
 2522SOL    HW2 7597   3.026   2.790   1.930
 2523SOL     OW 7598   3.723   3.431   2.713
 2523SOL    HW1 7599   3.652   3.419   2.643
 2523SOL    HW2 7600   3.724   3.352   2.773
 2524SOL     OW 7601   2.083   3.176   3.706
 2524SOL    HW1 7602   2.018   3.103   3.685
 2524SOL    HW2 7603   2.087   3.190   3.804
 2525SOL     OW 7604   1.941   3.102   2.515
 2525SOL    HW1 7605   1.940   3.055   2.603
 2525SOL    HW2 7606   2.023   3.074   2.464
 2526SOL     OW 7607   2.534   3.253   3.486
 2526SOL    HW1 7608   2.456   3.203   3.524
 2526SOL    HW2 7609   2.531   3.348   3.517
 2527SOL     OW 7610   3.686   2.054   3.089
 2527SOL    HW1 7611   3.682   1.964   3.133
 2527SOL    HW2 7612   3.689   2.043   2.990
 2528SOL     OW 7613   3.567   3.349   2.966
 2528SOL    HW1 7614   3.474   3.324   2.939
 2528SOL    HW2 7615   3.593   3.299   3.048
 2529SOL     OW 7616   2.179   2.409   3.142
 2529SOL    HW1 7617   2.217   2.350   3.214
 2529SOL    HW2 7618   2.219   2.383   3.054
 2530SOL     OW 7619   2.674   3.448   2.549
 2530SOL    HW1 7620   2.706   3.458   2.455
 2530SOL    HW2 7621   2.595   3.386   2.551
 2531SOL     OW 7622   3.286   2.076   2.974
 2531SOL    HW1 7623   3.338   2.011   3.029
 2531SOL    HW2 7624   3.237   2.139   3.035
 2532SOL     OW 7625   2.863   1.896   3.016
 2532SOL    HW1 7626   2.800   1.824   2.985
 2532SOL    HW2 7627   2.956   1.860   3.016
 2533SOL     OW 7628   2.632   3.192   2.163
 2533SOL    HW1 7629   2.586   3.105   2.180
 2533SOL    HW2 7630   2.723   3.189   2.204
 2534SOL     OW 7631   2.480   3.429   3.146
 2534SOL    HW1 7632   2.475   3.511   3.203
 2534SOL    HW2 7633   2.569   3.426   3.101
 2535SOL     OW 7634   3.214   1.914   2.030
 2535SOL    HW1 7635   3.249   1.873   1.946
 2535SOL    HW2 7636   3.124   1.876   2.050
 2536SOL     OW 7637   3.162   2.315   2.553
 2536SOL    HW1 7638   3.103   2.395   2.557
 2536SOL    HW2 7639   3.177   2.280   2.646
 2537SOL     OW 7640   3.455   2.083   2.744
 2537SOL    HW1 7641   3.371   2.082   2.798
 2537SOL    HW2 7642   3.457   2.166   2.688
 2538SOL     OW 7643   1.901   2.939   2.162
 2538SOL    HW1 7644   2.000   2.928   2.153
 2538SOL    HW2 7645   1.861   2.853   2.194
 2539SOL     OW 7646   2.737   3.508   2.199
 2539SOL    HW1 7647   2.660   3.473   2.145
 2539SOL    HW2 7648   2.705   3.579   2.261
 2540SOL     OW 7649   2.092   2.490   3.837
 2540SOL    HW1 7650   1.999   2.488   3.874
 2540SOL    HW2 7651   2.093   2.451   3.745
 2541SOL     OW 7652   2.087   2.137   4.720
 2541SOL    HW1 7653   2.122   2.120   4.812
 2541SOL    HW2 7654   1.999   2.092   4.708
 2542SOL     OW 7655   1.881   2.230   4.371
 2542SOL    HW1 7656   1.799   2.273   4.410
 2542SOL    HW2 7657   1.853   2.157   4.308
 2543SOL     OW 7658   2.431   3.137   4.889
 2543SOL    HW1 7659   2.338   3.130   4.852
 2543SOL    HW2 7660   2.442   3.226   4.933
 2544SOL     OW 7661   3.417   3.373   4.427
 2544SOL    HW1 7662   3.360   3.357   4.508
 2544SOL    HW2 7663   3.358   3.383   4.347
 2545SOL     OW 7664   2.997   2.565   4.441
 2545SOL    HW1 7665   3.054   2.643   4.416
 2545SOL    HW2 7666   2.937   2.591   4.517
 2546SOL     OW 7667   3.617   2.469   3.955
 2546SOL    HW1 7668   3.605   2.456   3.856
 2546SOL    HW2 7669   3.587   2.388   4.004
 2547SOL     OW 7670   2.630   3.006   4.747
 2547SOL    HW1 7671   2.552   3.023   4.807
 2547SOL    HW2 7672   2.664   3.093   4.711
 2548SOL     OW 7673   2.547   2.874   4.389
 2548SOL    HW1 7674   2.616   2.858   4.459
 2548SOL    HW2 7675   2.474   2.931   4.427
 2549SOL     OW 7676   2.197   3.297   4.785
 2549SOL    HW1 7677   2.119   3.266   4.732
 2549SOL    HW2 7678   2.255   3.355   4.728
 2550SOL     OW 7679   3.465   2.309   4.461
 2550SOL    HW1 7680   3.391   2.355   4.411
 2550SOL    HW2 7681   3.516   2.377   4.514
 2551SOL     OW 7682   2.093   3.575   4.207
 2551SOL    HW1 7683   2.127   3.652   4.261
 2551SOL    HW2 7684   2.137   3.575   4.117
 2552SOL     OW 7685   2.092   3.296   4.262
 2552SOL    HW1 7686   2.066   3.392   4.262
 2552SOL    HW2 7687   2.021   3.242   4.307
 2553SOL     OW 7688   2.102   2.953   4.610
 2553SOL    HW1 7689   2.116   2.869   4.662
 2553SOL    HW2 7690   2.047   3.017   4.665
 2554SOL     OW 7691   2.468   2.826   3.847
 2554SOL    HW1 7692   2.475   2.910   3.793
 2554SOL    HW2 7693   2.514   2.839   3.935
 2555SOL     OW 7694   1.984   2.505   4.287
 2555SOL    HW1 7695   1.939   2.417   4.304
 2555SOL    HW2 7696   1.983   2.559   4.371
 2556SOL     OW 7697   3.704   3.629   4.083
 2556SOL    HW1 7698   3.758   3.600   4.163
 2556SOL    HW2 7699   3.734   3.719   4.054
 2557SOL     OW 7700   1.889   3.458   3.841
 2557SOL    HW1 7701   1.870   3.362   3.862
 2557SOL    HW2 7702   1.856   3.516   3.916
 2558SOL     OW 7703   3.551   2.784   4.336
 2558SOL    HW1 7704   3.646   2.755   4.344
 2558SOL    HW2 7705   3.543   2.849   4.261
 2559SOL     OW 7706   3.503   2.970   4.156
 2559SOL    HW1 7707   3.589   2.972   4.104
 2559SOL    HW2 7708   3.517   3.017   4.244
 2560SOL     OW 7709   1.975   2.599   5.321
 2560SOL    HW1 7710   2.063   2.586   5.366
 2560SOL    HW2 7711   1.962   2.696   5.299
 2561SOL     OW 7712   2.475   3.227   4.450
 2561SOL    HW1 7713   2.426   3.140   4.459
 2561SOL    HW2 7714   2.452   3.270   4.363
 2562SOL     OW 7715   2.671   1.866   4.226
 2562SOL    HW1 7716   2.711   1.957   4.217
 2562SOL    HW2 7717   2.571   1.874   4.232
 2563SOL     OW 7718   2.059   2.838   4.988
 2563SOL    HW1 7719   2.148   2.793   4.974
 2563SOL    HW2 7720   1.986   2.773   4.969
 2564SOL     OW 7721   3.387   2.861   3.914
 2564SOL    HW1 7722   3.324   2.785   3.927
 2564SOL    HW2 7723   3.435   2.879   4.000
 2565SOL     OW 7724   3.328   3.279   4.677
 2565SOL    HW1 7725   3.269   3.285   4.757
 2565SOL    HW2 7726   3.313   3.191   4.631
 2566SOL     OW 7727   3.529   3.576   4.296
 2566SOL    HW1 7728   3.488   3.553   4.208
 2566SOL    HW2 7729   3.511   3.502   4.361
 2567SOL     OW 7730   2.460   2.591   3.994
 2567SOL    HW1 7731   2.484   2.660   3.926
 2567SOL    HW2 7732   2.382   2.624   4.048
 2568SOL     OW 7733   3.143   2.207   4.668
 2568SOL    HW1 7734   3.057   2.157   4.655
 2568SOL    HW2 7735   3.205   2.153   4.724
 2569SOL     OW 7736   3.438   3.524   4.031
 2569SOL    HW1 7737   3.527   3.570   4.034
 2569SOL    HW2 7738   3.417   3.500   3.936
 2570SOL     OW 7739   2.853   2.272   4.966
 2570SOL    HW1 7740   2.776   2.306   5.020
 2570SOL    HW2 7741   2.819   2.221   4.887
 2571SOL     OW 7742   2.903   2.563   4.153
 2571SOL    HW1 7743   2.929   2.559   4.249
 2571SOL    HW2 7744   2.818   2.512   4.139
 2572SOL     OW 7745   1.938   2.673   4.513
 2572SOL    HW1 7746   2.037   2.661   4.522
 2572SOL    HW2 7747   1.914   2.768   4.534
 2573SOL     OW 7748   2.727   2.210   3.919
 2573SOL    HW1 7749   2.786   2.273   3.870
 2573SOL    HW2 7750   2.746   2.116   3.890
 2574SOL     OW 7751   3.224   3.006   4.269
 2574SOL    HW1 7752   3.307   2.977   4.221
 2574SOL    HW2 7753   3.175   3.073   4.213
 2575SOL     OW 7754   2.412   2.058   4.609
 2575SOL    HW1 7755   2.407   2.053   4.709
 2575SOL    HW2 7756   2.414   2.154   4.580
 2576SOL     OW 7757   2.870   3.318   4.201
 2576SOL    HW1 7758   2.824   3.390   4.149
 2576SOL    HW2 7759   2.866   3.338   4.299
 2577SOL     OW 7760   2.213   3.663   4.577
 2577SOL    HW1 7761   2.263   3.577   4.583
 2577SOL    HW2 7762   2.278   3.740   4.574
 2578SOL     OW 7763   3.657   2.928   4.597
 2578SOL    HW1 7764   3.595   2.913   4.521
 2578SOL    HW2 7765   3.605   2.939   4.682
 2579SOL     OW 7766   2.183   2.805   3.966
 2579SOL    HW1 7767   2.265   2.844   3.924
 2579SOL    HW2 7768   2.156   2.723   3.917
 2580SOL     OW 7769   3.320   2.597   4.452
 2580SOL    HW1 7770   3.315   2.532   4.527
 2580SOL    HW2 7771   3.400   2.656   4.465
 2581SOL     OW 7772   2.973   3.638   3.961
 2581SOL    HW1 7773   2.913   3.576   4.011
 2581SOL    HW2 7774   3.004   3.594   3.876
 2582SOL     OW 7775   3.494   3.239   3.805
 2582SOL    HW1 7776   3.462   3.333   3.795
 2582SOL    HW2 7777   3.418   3.176   3.793
 2583SOL     OW 7778   2.326   3.605   4.047
 2583SOL    HW1 7779   2.359   3.644   4.133
 2583SOL    HW2 7780   2.402   3.598   3.982
 2584SOL     OW 7781   3.262   1.969   4.150
 2584SOL    HW1 7782   3.238   1.932   4.060
 2584SOL    HW2 7783   3.361   1.985   4.154
 2585SOL     OW 7784   2.111   3.647   4.965
 2585SOL    HW1 7785   2.168   3.582   5.015
 2585SOL    HW2 7786   2.095   3.614   4.872
 2586SOL     OW 7787   2.802   3.560   4.628
 2586SOL    HW1 7788   2.882   3.503   4.649
 2586SOL    HW2 7789   2.753   3.520   4.551
 2587SOL     OW 7790   2.244   2.562   4.204
 2587SOL    HW1 7791   2.289   2.472   4.201
 2587SOL    HW2 7792   2.150   2.551   4.237
 2588SOL     OW 7793   2.476   1.984   3.841
 2588SOL    HW1 7794   2.574   1.962   3.848
 2588SOL    HW2 7795   2.445   1.967   3.748
 2589SOL     OW 7796   2.665   3.264   4.648
 2589SOL    HW1 7797   2.755   3.278   4.606
 2589SOL    HW2 7798   2.594   3.266   4.577
 2590SOL     OW 7799   2.784   2.365   4.623
 2590SOL    HW1 7800   2.759   2.356   4.527
 2590SOL    HW2 7801   2.832   2.283   4.654
 2591SOL     OW 7802   2.401   1.926   4.236
 2591SOL    HW1 7803   2.320   1.927   4.294
 2591SOL    HW2 7804   2.404   2.009   4.181
 2592SOL     OW 7805   3.296   3.050   3.765
 2592SOL    HW1 7806   3.328   2.974   3.822
 2592SOL    HW2 7807   3.204   3.077   3.795
 2593SOL     OW 7808   2.159   1.897   3.895
 2593SOL    HW1 7809   2.208   1.981   3.874
 2593SOL    HW2 7810   2.221   1.832   3.940
 2594SOL     OW 7811   2.797   2.098   4.204
 2594SOL    HW1 7812   2.749   2.139   4.126
 2594SOL    HW2 7813   2.896   2.096   4.185
 2595SOL     OW 7814   3.089   3.432   4.517
 2595SOL    HW1 7815   3.110   3.506   4.452
 2595SOL    HW2 7816   3.157   3.432   4.590
 2596SOL     OW 7817   2.321   3.014   4.465
 2596SOL    HW1 7818   2.250   2.987   4.530
 2596SOL    HW2 7819   2.295   2.986   4.372
 2597SOL     OW 7820   3.133   3.659   4.315
 2597SOL    HW1 7821   3.177   3.723   4.251
 2597SOL    HW2 7822   3.083   3.711   4.385
 2598SOL     OW 7823   2.894   2.411   3.740
 2598SOL    HW1 7824   2.853   2.493   3.701
 2598SOL    HW2 7825   2.958   2.437   3.813
 2599SOL     OW 7826   2.423   2.084   4.871
 2599SOL    HW1 7827   2.461   2.000   4.908
 2599SOL    HW2 7828   2.335   2.103   4.915
 2600SOL     OW 7829   2.728   2.316   4.366
 2600SOL    HW1 7830   2.696   2.388   4.304
 2600SOL    HW2 7831   2.752   2.235   4.313
 2601SOL     OW 7832   2.879   1.901   4.477
 2601SOL    HW1 7833   2.807   1.906   4.408
 2601SOL    HW2 7834   2.855   1.832   4.546
 2602SOL     OW 7835   3.291   3.035   4.591
 2602SOL    HW1 7836   3.236   2.951   4.584
 2602SOL    HW2 7837   3.317   3.064   4.499
 2603SOL     OW 7838   3.328   2.452   4.716
 2603SOL    HW1 7839   3.298   2.357   4.723
 2603SOL    HW2 7840   3.401   2.468   4.782
 2604SOL     OW 7841   3.719   2.695   4.101
 2604SOL    HW1 7842   3.761   2.631   4.165
 2604SOL    HW2 7843   3.681   2.644   4.023
 2605SOL     OW 7844   2.350   3.247   3.898
 2605SOL    HW1 7845   2.263   3.232   3.945
 2605SOL    HW2 7846   2.333   3.273   3.803
 2606SOL     OW 7847   3.526   3.142   4.381
 2606SOL    HW1 7848   3.625   3.150   4.395
 2606SOL    HW2 7849   3.481   3.226   4.412
 2607SOL     OW 7850   3.252   2.437   3.802
 2607SOL    HW1 7851   3.198   2.416   3.883
 2607SOL    HW2 7852   3.343   2.396   3.811
 2608SOL     OW 7853   2.389   2.118   4.052
 2608SOL    HW1 7854   2.416   2.059   3.977
 2608SOL    HW2 7855   2.389   2.213   4.021
 2609SOL     OW 7856   2.973   3.057   4.824
 2609SOL    HW1 7857   2.933   3.101   4.905
 2609SOL    HW2 7858   2.932   3.094   4.741
 2610SOL     OW 7859   3.500   2.961   4.803
 2610SOL    HW1 7860   3.505   3.042   4.862
 2610SOL    HW2 7861   3.414   2.963   4.752
 2611SOL     OW 7862   2.567   2.912   4.092
 2611SOL    HW1 7863   2.553   2.919   4.191
 2611SOL    HW2 7864   2.651   2.861   4.074
 2612SOL     OW 7865   2.272   2.675   4.975
 2612SOL    HW1 7866   2.358   2.687   5.025
 2612SOL    HW2 7867   2.230   2.588   5.002
 2613SOL     OW 7868   3.136   2.248   4.986
 2613SOL    HW1 7869   3.157   2.322   5.050
 2613SOL    HW2 7870   3.047   2.265   4.943
 2614SOL     OW 7871   2.229   2.962   4.225
 2614SOL    HW1 7872   2.222   3.045   4.169
 2614SOL    HW2 7873   2.233   2.882   4.165
 2615SOL     OW 7874   2.428   2.399   4.589
 2615SOL    HW1 7875   2.440   2.465   4.515
 2615SOL    HW2 7876   2.474   2.433   4.672
 2616SOL     OW 7877   3.114   3.210   4.112
 2616SOL    HW1 7878   3.164   3.287   4.152
 2616SOL    HW2 7879   3.019   3.212   4.144
 2617SOL     OW 7880   3.134   3.307   4.866
 2617SOL    HW1 7881   3.181   3.320   4.953
 2617SOL    HW2 7882   3.068   3.233   4.875
 2618SOL     OW 7883   3.444   2.501   4.196
 2618SOL    HW1 7884   3.413   2.562   4.269
 2618SOL    HW2 7885   3.494   2.553   4.127
 2619SOL     OW 7886   2.216   3.372   5.053
 2619SOL    HW1 7887   2.195   3.328   4.966
 2619SOL    HW2 7888   2.313   3.398   5.056
 2620SOL     OW 7889   2.435   2.732   4.753
 2620SOL    HW1 7890   2.479   2.821   4.744
 2620SOL    HW2 7891   2.372   2.732   4.830
 2621SOL     OW 7892   3.222   2.724   4.769
 2621SOL    HW1 7893   3.147   2.724   4.703
 2621SOL    HW2 7894   3.259   2.632   4.778
 2622SOL     OW 7895   3.071   2.387   3.999
 2622SOL    HW1 7896   3.084   2.303   4.053
 2622SOL    HW2 7897   3.042   2.461   4.059
 2623SOL     OW 7898   2.169   2.075   4.955
 2623SOL    HW1 7899   2.146   2.112   5.045
 2623SOL    HW2 7900   2.139   1.980   4.949
 2624SOL     OW 7901   1.899   3.172   5.006
 2624SOL    HW1 7902   1.952   3.123   5.074
 2624SOL    HW2 7903   1.921   3.270   5.011
 2625SOL     OW 7904   2.594   2.496   4.788
 2625SOL    HW1 7905   2.653   2.470   4.712
 2625SOL    HW2 7906   2.566   2.592   4.777
 2626SOL     OW 7907   2.169   1.925   4.342
 2626SOL    HW1 7908   2.158   2.019   4.375
 2626SOL    HW2 7909   2.164   1.862   4.419
 2627SOL     OW 7910   3.484   2.229   4.098
 2627SOL    HW1 7911   3.486   2.153   4.162
 2627SOL    HW2 7912   3.436   2.306   4.138
 2628SOL     OW 7913   2.885   2.628   4.690
 2628SOL    HW1 7914   2.900   2.649   4.786
 2628SOL    HW2 7915   2.855   2.533   4.681
 2629SOL     OW 7916   3.402   2.136   3.849
 2629SOL    HW1 7917   3.341   2.061   3.872
 2629SOL    HW2 7918   3.424   2.188   3.932
 2630SOL     OW 7919   3.165   2.700   3.766
 2630SOL    HW1 7920   3.199   2.607   3.781
 2630SOL    HW2 7921   3.183   2.727   3.671
 2631SOL     OW 7922   2.930   3.195   4.573
 2631SOL    HW1 7923   2.937   3.111   4.518
 2631SOL    HW2 7924   2.992   3.264   4.537
 2632SOL     OW 7925   2.181   2.672   4.673
 2632SOL    HW1 7926   2.274   2.708   4.678
 2632SOL    HW2 7927   2.175   2.587   4.725
 2633SOL     OW 7928   2.201   2.371   4.730
 2633SOL    HW1 7929   2.149   2.288   4.713
 2633SOL    HW2 7930   2.278   2.376   4.666
 2634SOL     OW 7931   3.022   2.069   5.201
 2634SOL    HW1 7932   3.022   2.133   5.278
 2634SOL    HW2 7933   3.050   2.117   5.118
 2635SOL     OW 7934   1.870   3.188   3.924
 2635SOL    HW1 7935   1.777   3.209   3.893
 2635SOL    HW2 7936   1.880   3.089   3.937
 2636SOL     OW 7937   1.950   3.663   4.651
 2636SOL    HW1 7938   1.908   3.577   4.624
 2636SOL    HW2 7939   2.044   3.666   4.617
 2637SOL     OW 7940   2.366   3.430   4.634
 2637SOL    HW1 7941   2.432   3.504   4.643
 2637SOL    HW2 7942   2.410   3.351   4.592
 2638SOL     OW 7943   2.864   2.658   4.962
 2638SOL    HW1 7944   2.905   2.626   5.048
 2638SOL    HW2 7945   2.768   2.631   4.959
 2639SOL     OW 7946   1.902   2.406   4.838
 2639SOL    HW1 7947   1.987   2.373   4.797
 2639SOL    HW2 7948   1.915   2.421   4.936
 2640SOL     OW 7949   2.677   2.434   4.049
 2640SOL    HW1 7950   2.684   2.345   4.003
 2640SOL    HW2 7951   2.583   2.468   4.041
 2641SOL     OW 7952   3.519   2.466   4.930
 2641SOL    HW1 7953   3.481   2.397   4.992
 2641SOL    HW2 7954   3.601   2.430   4.886
 2642SOL     OW 7955   2.533   2.326   4.993
 2642SOL    HW1 7956   2.499   2.237   4.963
 2642SOL    HW2 7957   2.559   2.380   4.913
 2643SOL     OW 7958   2.792   3.540   5.189
 2643SOL    HW1 7959   2.768   3.522   5.094
 2643SOL    HW2 7960   2.822   3.634   5.199
 2644SOL     OW 7961   2.335   2.362   3.915
 2644SOL    HW1 7962   2.396   2.442   3.919
 2644SOL    HW2 7963   2.240   2.393   3.922
 2645SOL     OW 7964   3.209   2.921   4.958
 2645SOL    HW1 7965   3.233   2.858   4.884
 2645SOL    HW2 7966   3.119   2.961   4.940
 2646SOL     OW 7967   3.164   2.717   4.033
 2646SOL    HW1 7968   3.078   2.686   4.075
 2646SOL    HW2 7969   3.160   2.703   3.934
 2647SOL     OW 7970   3.621   3.609   4.878
 2647SOL    HW1 7971   3.682   3.639   4.805
 2647SOL    HW2 7972   3.583   3.520   4.856
 2648SOL     OW 7973   3.114   3.593   4.852
 2648SOL    HW1 7974   3.198   3.598   4.798
 2648SOL    HW2 7975   3.091   3.497   4.870
 2649SOL     OW 7976   1.945   3.120   4.746
 2649SOL    HW1 7977   1.940   3.119   4.846
 2649SOL    HW2 7978   1.862   3.079   4.708
 2650SOL     OW 7979   3.588   1.997   4.247
 2650SOL    HW1 7980   3.661   1.980   4.180
 2650SOL    HW2 7981   3.557   1.910   4.285
 2651SOL     OW 7982   3.250   3.435   4.201
 2651SOL    HW1 7983   3.317   3.447   4.127
 2651SOL    HW2 7984   3.210   3.524   4.224
 2652SOL     OW 7985   3.142   2.789   4.396
 2652SOL    HW1 7986   3.202   2.708   4.398
 2652SOL    HW2 7987   3.182   2.858   4.336
 2653SOL     OW 7988   2.534   3.478   3.878
 2653SOL    HW1 7989   2.543   3.488   3.779
 2653SOL    HW2 7990   2.494   3.389   3.899
 2654SOL     OW 7991   3.512   3.582   5.118
 2654SOL    HW1 7992   3.565   3.592   5.034
 2654SOL    HW2 7993   3.485   3.672   5.152
 2655SOL     OW 7994   3.703   2.037   4.687
 2655SOL    HW1 7995   3.742   1.952   4.651
 2655SOL    HW2 7996   3.605   2.039   4.668
 2656SOL     OW 7997   2.125   2.188   4.444
 2656SOL    HW1 7998   2.046   2.239   4.410
 2656SOL    HW2 7999   2.116   2.173   4.542
 2657SOL     OW 8000   3.056   3.474   3.755
 2657SOL    HW1 8001   3.062   3.381   3.792
 2657SOL    HW2 8002   2.997   3.474   3.675
 2658SOL     OW 8003   2.684   2.864   5.096
 2658SOL    HW1 8004   2.724   2.863   5.004
 2658SOL    HW2 8005   2.694   2.956   5.136
 2659SOL     OW 8006   2.778   2.772   4.015
 2659SOL    HW1 8007   2.841   2.810   3.947
 2659SOL    HW2 8008   2.818   2.689   4.054
 2660SOL     OW 8009   3.366   3.469   3.768
 2660SOL    HW1 8010   3.274   3.506   3.775
 2660SOL    HW2 8011   3.404   3.489   3.678
 2661SOL     OW 8012   2.901   2.960   4.420
 2661SOL    HW1 8013   2.831   2.913   4.474
 2661SOL    HW2 8014   2.960   2.892   4.377
 2662SOL     OW 8015   2.876   2.098   4.695
 2662SOL    HW1 8016   2.868   2.062   4.602
 2662SOL    HW2 8017   2.874   2.022   4.760
 2663SOL     OW 8018   2.452   3.349   4.215
 2663SOL    HW1 8019   2.494   3.291   4.145
 2663SOL    HW2 8020   2.408   3.428   4.171
 2664SOL     OW 8021   3.571   2.247   5.105
 2664SOL    HW1 8022   3.644   2.316   5.109
 2664SOL    HW2 8023   3.599   2.172   5.046
 2665SOL     OW 8024   2.117   3.210   4.014
 2665SOL    HW1 8025   2.021   3.211   3.987
 2665SOL    HW2 8026   2.129   3.263   4.098
 2666SOL     OW 8027   1.937   2.207   3.757
 2666SOL    HW1 8028   1.845   2.179   3.728
 2666SOL    HW2 8029   1.968   2.284   3.701
 2667SOL     OW 8030   1.934   2.028   4.042
 2667SOL    HW1 8031   1.917   2.111   3.988
 2667SOL    HW2 8032   2.024   1.991   4.020
 2668SOL     OW 8033   3.045   3.197   3.843
 2668SOL    HW1 8034   2.946   3.186   3.845
 2668SOL    HW2 8035   3.079   3.212   3.936
 2669SOL     OW 8036   3.355   3.629   4.683
 2669SOL    HW1 8037   3.388   3.693   4.614
 2669SOL    HW2 8038   3.421   3.623   4.758
 2670SOL     OW 8039   3.536   2.745   4.978
 2670SOL    HW1 8040   3.509   2.656   4.941
 2670SOL    HW2 8041   3.537   2.813   4.905
 2671SOL     OW 8042   3.087   2.187   4.173
 2671SOL    HW1 8043   3.152   2.113   4.162
 2671SOL    HW2 8044   3.107   2.237   4.257
 2672SOL     OW 8045   2.456   2.607   4.376
 2672SOL    HW1 8046   2.506   2.692   4.357
 2672SOL    HW2 8047   2.368   2.609   4.328
 2673SOL     OW 8048   3.592   2.796   5.241
 2673SOL    HW1 8049   3.630   2.887   5.256
 2673SOL    HW2 8050   3.584   2.779   5.142
 2674SOL     OW 8051   2.721   3.236   3.740
 2674SOL    HW1 8052   2.675   3.251   3.828
 2674SOL    HW2 8053   2.765   3.321   3.710
 2675SOL     OW 8054   2.523   3.652   4.677
 2675SOL    HW1 8055   2.477   3.740   4.664
 2675SOL    HW2 8056   2.622   3.664   4.670
 2676SOL     OW 8057   2.721   2.818   4.585
 2676SOL    HW1 8058   2.775   2.749   4.633
 2676SOL    HW2 8059   2.689   2.887   4.651
 2677SOL     OW 8060   2.945   2.846   3.811
 2677SOL    HW1 8061   2.922   2.899   3.729
 2677SOL    HW2 8062   3.026   2.790   3.792
 2678SOL     OW 8063   3.723   3.431   4.575
 2678SOL    HW1 8064   3.652   3.419   4.505
 2678SOL    HW2 8065   3.724   3.352   4.635
 2679SOL     OW 8066   1.941   3.102   4.377
 2679SOL    HW1 8067   1.940   3.055   4.465
 2679SOL    HW2 8068   2.023   3.074   4.326
 2680SOL     OW 8069   3.686   2.054   4.951
 2680SOL    HW1 8070   3.682   1.964   4.995
 2680SOL    HW2 8071   3.689   2.043   4.852
 2681SOL     OW 8072   2.290   2.286   4.244
 2681SOL    HW1 8073   2.320   2.214   4.182
 2681SOL    HW2 8074   2.251   2.246   4.327
 2682SOL     OW 8075   3.567   3.349   4.828
 2682SOL    HW1 8076   3.474   3.324   4.801
 2682SOL    HW2 8077   3.593   3.299   4.910
 2683SOL     OW 8078   2.674   3.448   4.411
 2683SOL    HW1 8079   2.706   3.458   4.317
 2683SOL    HW2 8080   2.595   3.386   4.413
 2684SOL     OW 8081   3.286   2.076   4.836
 2684SOL    HW1 8082   3.338   2.011   4.891
 2684SOL    HW2 8083   3.237   2.139   4.897
 2685SOL     OW 8084   2.863   1.896   4.878
 2685SOL    HW1 8085   2.800   1.824   4.847
 2685SOL    HW2 8086   2.956   1.860   4.878
 2686SOL     OW 8087   2.632   3.192   4.025
 2686SOL    HW1 8088   2.586   3.105   4.042
 2686SOL    HW2 8089   2.723   3.189   4.066
 2687SOL     OW 8090   3.214   1.914   3.892
 2687SOL    HW1 8091   3.249   1.873   3.808
 2687SOL    HW2 8092   3.124   1.876   3.912
 2688SOL     OW 8093   3.162   2.315   4.415
 2688SOL    HW1 8094   3.103   2.395   4.419
 2688SOL    HW2 8095   3.177   2.280   4.508
 2689SOL     OW 8096   3.455   2.083   4.606
 2689SOL    HW1 8097   3.371   2.082   4.660
 2689SOL    HW2 8098   3.457   2.166   4.550
 2690SOL     OW 8099   1.901   2.939   4.024
 2690SOL    HW1 8100   2.000   2.928   4.015
 2690SOL    HW2 8101   1.861   2.853   4.056
 2691SOL     OW 8102   2.737   3.508   4.061
 2691SOL    HW1 8103   2.660   3.473   4.007
 2691SOL    HW2 8104   2.705   3.579   4.123
 2692SOL     OW 8105   2.092   4.352   0.113
 2692SOL    HW1 8106   1.999   4.350   0.150
 2692SOL    HW2 8107   2.093   4.313   0.021
 2693SOL     OW 8108   2.087   3.999   0.996
 2693SOL    HW1 8109   2.122   3.982   1.088
 2693SOL    HW2 8110   1.999   3.954   0.984
 2694SOL     OW 8111   1.881   4.092   0.647
 2694SOL    HW1 8112   1.799   4.135   0.686
 2694SOL    HW2 8113   1.853   4.019   0.584
 2695SOL     OW 8114   2.997   4.427   0.717
 2695SOL    HW1 8115   3.054   4.505   0.692
 2695SOL    HW2 8116   2.937   4.453   0.793
 2696SOL     OW 8117   3.617   4.331   0.231
 2696SOL    HW1 8118   3.605   4.318   0.132
 2696SOL    HW2 8119   3.587   4.250   0.280
 2697SOL     OW 8120   2.630   4.868   1.023
 2697SOL    HW1 8121   2.552   4.885   1.083
 2697SOL    HW2 8122   2.664   4.955   0.987
 2698SOL     OW 8123   2.712   4.522   1.823
 2698SOL    HW1 8124   2.708   4.598   1.888
 2698SOL    HW2 8125   2.734   4.558   1.732
 2699SOL     OW 8126   2.547   4.736   0.665
 2699SOL    HW1 8127   2.616   4.720   0.735
 2699SOL    HW2 8128   2.474   4.793   0.703
 2700SOL     OW 8129   2.548   4.885   1.803
 2700SOL    HW1 8130   2.608   4.964   1.817
 2700SOL    HW2 8131   2.462   4.916   1.762
 2701SOL     OW 8132   2.197   5.159   1.061
 2701SOL    HW1 8133   2.119   5.128   1.008
 2701SOL    HW2 8134   2.255   5.217   1.004
 2702SOL     OW 8135   2.300   4.116   1.499
 2702SOL    HW1 8136   2.382   4.060   1.508
 2702SOL    HW2 8137   2.219   4.058   1.503
 2703SOL     OW 8138   3.465   4.171   0.737
 2703SOL    HW1 8139   3.391   4.217   0.687
 2703SOL    HW2 8140   3.516   4.239   0.790
 2704SOL     OW 8141   2.102   4.815   0.886
 2704SOL    HW1 8142   2.116   4.731   0.938
 2704SOL    HW2 8143   2.047   4.879   0.941
 2705SOL     OW 8144   2.468   4.688   0.123
 2705SOL    HW1 8145   2.475   4.772   0.069
 2705SOL    HW2 8146   2.514   4.701   0.211
 2706SOL     OW 8147   3.456   3.838   1.480
 2706SOL    HW1 8148   3.438   3.905   1.408
 2706SOL    HW2 8149   3.453   3.884   1.569
 2707SOL     OW 8150   1.984   4.367   0.563
 2707SOL    HW1 8151   1.939   4.279   0.580
 2707SOL    HW2 8152   1.983   4.421   0.647
 2708SOL     OW 8153   3.551   4.646   0.612
 2708SOL    HW1 8154   3.646   4.617   0.620
 2708SOL    HW2 8155   3.543   4.711   0.537
 2709SOL     OW 8156   3.503   4.832   0.432
 2709SOL    HW1 8157   3.589   4.834   0.380
 2709SOL    HW2 8158   3.517   4.879   0.520
 2710SOL     OW 8159   1.975   4.461   1.597
 2710SOL    HW1 8160   2.063   4.448   1.642
 2710SOL    HW2 8161   1.962   4.558   1.575
 2711SOL     OW 8162   3.155   4.952   1.423
 2711SOL    HW1 8163   3.192   4.879   1.365
 2711SOL    HW2 8164   3.207   4.957   1.508
 2712SOL     OW 8165   2.671   3.728   0.502
 2712SOL    HW1 8166   2.711   3.819   0.493
 2712SOL    HW2 8167   2.571   3.736   0.508
 2713SOL     OW 8168   2.059   4.700   1.264
 2713SOL    HW1 8169   2.148   4.655   1.250
 2713SOL    HW2 8170   1.986   4.635   1.245
 2714SOL     OW 8171   3.387   4.723   0.190
 2714SOL    HW1 8172   3.324   4.647   0.203
 2714SOL    HW2 8173   3.435   4.741   0.276
 2715SOL     OW 8174   2.179   3.975   1.801
 2715SOL    HW1 8175   2.250   4.046   1.807
 2715SOL    HW2 8176   2.091   4.014   1.829
 2716SOL     OW 8177   2.460   4.453   0.270
 2716SOL    HW1 8178   2.484   4.522   0.202
 2716SOL    HW2 8179   2.382   4.486   0.324
 2717SOL     OW 8180   3.143   4.069   0.944
 2717SOL    HW1 8181   3.057   4.019   0.931
 2717SOL    HW2 8182   3.205   4.015   1.000
 2718SOL     OW 8183   2.669   4.329   1.465
 2718SOL    HW1 8184   2.622   4.326   1.554
 2718SOL    HW2 8185   2.618   4.274   1.399
 2719SOL     OW 8186   3.256   4.193   1.674
 2719SOL    HW1 8187   3.236   4.236   1.762
 2719SOL    HW2 8188   3.334   4.131   1.683
 2720SOL     OW 8189   2.835   4.614   1.572
 2720SOL    HW1 8190   2.881   4.530   1.543
 2720SOL    HW2 8191   2.779   4.648   1.497
 2721SOL     OW 8192   2.853   4.134   1.242
 2721SOL    HW1 8193   2.776   4.168   1.296
 2721SOL    HW2 8194   2.819   4.083   1.163
 2722SOL     OW 8195   2.903   4.425   0.429
 2722SOL    HW1 8196   2.929   4.421   0.525
 2722SOL    HW2 8197   2.818   4.374   0.415
 2723SOL     OW 8198   1.938   4.535   0.789
 2723SOL    HW1 8199   2.037   4.523   0.798
 2723SOL    HW2 8200   1.914   4.630   0.810
 2724SOL     OW 8201   2.727   4.072   0.195
 2724SOL    HW1 8202   2.786   4.135   0.146
 2724SOL    HW2 8203   2.746   3.978   0.166
 2725SOL     OW 8204   3.581   4.309   1.831
 2725SOL    HW1 8205   3.555   4.398   1.795
 2725SOL    HW2 8206   3.579   4.241   1.758
 2726SOL     OW 8207   3.224   4.868   0.545
 2726SOL    HW1 8208   3.307   4.839   0.497
 2726SOL    HW2 8209   3.175   4.935   0.489
 2727SOL     OW 8210   2.412   3.920   0.885
 2727SOL    HW1 8211   2.407   3.915   0.985
 2727SOL    HW2 8212   2.414   4.016   0.856
 2728SOL     OW 8213   3.657   4.790   0.873
 2728SOL    HW1 8214   3.595   4.775   0.797
 2728SOL    HW2 8215   3.605   4.801   0.958
 2729SOL     OW 8216   2.183   4.667   0.242
 2729SOL    HW1 8217   2.265   4.706   0.200
 2729SOL    HW2 8218   2.156   4.585   0.193
 2730SOL     OW 8219   3.320   4.459   0.728
 2730SOL    HW1 8220   3.315   4.394   0.803
 2730SOL    HW2 8221   3.400   4.518   0.741
 2731SOL     OW 8222   2.064   4.009   1.498
 2731SOL    HW1 8223   1.984   4.069   1.485
 2731SOL    HW2 8224   2.054   3.960   1.584
 2732SOL     OW 8225   3.262   3.831   0.426
 2732SOL    HW1 8226   3.238   3.794   0.336
 2732SOL    HW2 8227   3.361   3.847   0.430
 2733SOL     OW 8228   2.244   4.424   0.480
 2733SOL    HW1 8229   2.289   4.334   0.477
 2733SOL    HW2 8230   2.150   4.413   0.513
 2734SOL     OW 8231   3.409   3.946   1.729
 2734SOL    HW1 8232   3.404   3.983   1.821
 2734SOL    HW2 8233   3.337   3.877   1.717
 2735SOL     OW 8234   2.476   3.846   0.117
 2735SOL    HW1 8235   2.574   3.824   0.124
 2735SOL    HW2 8236   2.445   3.829   0.024
 2736SOL     OW 8237   2.643   3.988   1.749
 2736SOL    HW1 8238   2.710   3.927   1.792
 2736SOL    HW2 8239   2.570   4.007   1.814
 2737SOL     OW 8240   3.213   4.314   1.433
 2737SOL    HW1 8241   3.241   4.271   1.518
 2737SOL    HW2 8242   3.238   4.410   1.434
 2738SOL     OW 8243   2.665   5.126   0.924
 2738SOL    HW1 8244   2.755   5.140   0.882
 2738SOL    HW2 8245   2.594   5.128   0.853
 2739SOL     OW 8246   2.784   4.227   0.899
 2739SOL    HW1 8247   2.759   4.218   0.803
 2739SOL    HW2 8248   2.832   4.145   0.930
 2740SOL     OW 8249   2.401   3.788   0.512
 2740SOL    HW1 8250   2.320   3.789   0.570
 2740SOL    HW2 8251   2.404   3.871   0.457
 2741SOL     OW 8252   2.159   3.759   0.171
 2741SOL    HW1 8253   2.208   3.843   0.150
 2741SOL    HW2 8254   2.221   3.694   0.216
 2742SOL     OW 8255   2.797   3.960   0.480
 2742SOL    HW1 8256   2.749   4.001   0.402
 2742SOL    HW2 8257   2.896   3.958   0.461
 2743SOL     OW 8258   2.938   4.407   1.464
 2743SOL    HW1 8259   2.858   4.346   1.467
 2743SOL    HW2 8260   3.019   4.354   1.440
 2744SOL     OW 8261   2.321   4.876   0.741
 2744SOL    HW1 8262   2.250   4.849   0.806
 2744SOL    HW2 8263   2.295   4.848   0.648
 2745SOL     OW 8264   2.894   4.273   0.016
 2745SOL    HW1 8265   2.853   4.355  -0.023
 2745SOL    HW2 8266   2.958   4.299   0.089
 2746SOL     OW 8267   1.940   4.280   1.386
 2746SOL    HW1 8268   2.032   4.279   1.345
 2746SOL    HW2 8269   1.934   4.354   1.453
 2747SOL     OW 8270   2.423   3.946   1.147
 2747SOL    HW1 8271   2.461   3.862   1.184
 2747SOL    HW2 8272   2.335   3.965   1.191
 2748SOL     OW 8273   2.728   4.178   0.642
 2748SOL    HW1 8274   2.696   4.250   0.580
 2748SOL    HW2 8275   2.752   4.097   0.589
 2749SOL     OW 8276   2.879   3.763   0.753
 2749SOL    HW1 8277   2.807   3.768   0.684
 2749SOL    HW2 8278   2.855   3.694   0.822
 2750SOL     OW 8279   3.291   4.897   0.867
 2750SOL    HW1 8280   3.236   4.813   0.860
 2750SOL    HW2 8281   3.317   4.926   0.775
 2751SOL     OW 8282   3.328   4.314   0.992
 2751SOL    HW1 8283   3.298   4.219   0.999
 2751SOL    HW2 8284   3.401   4.330   1.058
 2752SOL     OW 8285   3.719   4.557   0.377
 2752SOL    HW1 8286   3.761   4.493   0.441
 2752SOL    HW2 8287   3.681   4.506   0.299
 2753SOL     OW 8288   3.252   4.299   0.078
 2753SOL    HW1 8289   3.198   4.278   0.159
 2753SOL    HW2 8290   3.343   4.258   0.087
 2754SOL     OW 8291   2.389   3.980   0.328
 2754SOL    HW1 8292   2.416   3.921   0.253
 2754SOL    HW2 8293   2.389   4.075   0.297
 2755SOL     OW 8294   3.616   4.947   1.588
 2755SOL    HW1 8295   3.707   4.908   1.575
 2755SOL    HW2 8296   3.624   5.043   1.612
 2756SOL     OW 8297   3.500   4.823   1.079
 2756SOL    HW1 8298   3.505   4.904   1.138
 2756SOL    HW2 8299   3.414   4.825   1.028
 2757SOL     OW 8300   2.777   3.813   1.402
 2757SOL    HW1 8301   2.802   3.793   1.307
 2757SOL    HW2 8302   2.849   3.869   1.444
 2758SOL     OW 8303   2.842   4.840   1.719
 2758SOL    HW1 8304   2.743   4.846   1.729
 2758SOL    HW2 8305   2.865   4.760   1.663
 2759SOL     OW 8306   2.567   4.774   0.368
 2759SOL    HW1 8307   2.553   4.781   0.467
 2759SOL    HW2 8308   2.651   4.723   0.350
 2760SOL     OW 8309   2.272   4.537   1.251
 2760SOL    HW1 8310   2.358   4.549   1.301
 2760SOL    HW2 8311   2.230   4.450   1.278
 2761SOL     OW 8312   3.136   4.110   1.262
 2761SOL    HW1 8313   3.157   4.184   1.326
 2761SOL    HW2 8314   3.047   4.127   1.219
 2762SOL     OW 8315   2.229   4.824   0.501
 2762SOL    HW1 8316   2.222   4.907   0.445
 2762SOL    HW2 8317   2.233   4.744   0.441
 2763SOL     OW 8318   2.428   4.261   0.865
 2763SOL    HW1 8319   2.440   4.327   0.791
 2763SOL    HW2 8320   2.474   4.295   0.948
 2764SOL     OW 8321   3.444   4.363   0.472
 2764SOL    HW1 8322   3.413   4.424   0.545
 2764SOL    HW2 8323   3.494   4.415   0.403
 2765SOL     OW 8324   2.264   4.475   1.598
 2765SOL    HW1 8325   2.332   4.530   1.551
 2765SOL    HW2 8326   2.304   4.387   1.625
 2766SOL     OW 8327   3.449   4.503   1.670
 2766SOL    HW1 8328   3.357   4.541   1.665
 2766SOL    HW2 8329   3.509   4.550   1.605
 2767SOL     OW 8330   2.875   3.829   1.770
 2767SOL    HW1 8331   2.881   3.914   1.718
 2767SOL    HW2 8332   2.907   3.753   1.713
 2768SOL     OW 8333   2.366   3.774   1.740
 2768SOL    HW1 8334   2.324   3.717   1.670
 2768SOL    HW2 8335   2.300   3.843   1.772
 2769SOL     OW 8336   2.435   4.594   1.029
 2769SOL    HW1 8337   2.479   4.683   1.020
 2769SOL    HW2 8338   2.372   4.594   1.106
 2770SOL     OW 8339   3.222   4.586   1.045
 2770SOL    HW1 8340   3.147   4.586   0.979
 2770SOL    HW2 8341   3.259   4.494   1.054
 2771SOL     OW 8342   3.071   4.249   0.275
 2771SOL    HW1 8343   3.084   4.165   0.329
 2771SOL    HW2 8344   3.042   4.323   0.335
 2772SOL     OW 8345   2.169   3.937   1.231
 2772SOL    HW1 8346   2.146   3.974   1.321
 2772SOL    HW2 8347   2.139   3.842   1.225
 2773SOL     OW 8348   2.594   4.358   1.064
 2773SOL    HW1 8349   2.653   4.332   0.988
 2773SOL    HW2 8350   2.566   4.454   1.053
 2774SOL     OW 8351   3.590   4.659   1.854
 2774SOL    HW1 8352   3.544   4.652   1.765
 2774SOL    HW2 8353   3.528   4.703   1.920
 2775SOL     OW 8354   2.169   3.787   0.618
 2775SOL    HW1 8355   2.158   3.881   0.651
 2775SOL    HW2 8356   2.164   3.724   0.695
 2776SOL     OW 8357   3.484   4.091   0.374
 2776SOL    HW1 8358   3.486   4.015   0.438
 2776SOL    HW2 8359   3.436   4.168   0.414
 2777SOL     OW 8360   2.885   4.490   0.966
 2777SOL    HW1 8361   2.900   4.511   1.062
 2777SOL    HW2 8362   2.855   4.395   0.957
 2778SOL     OW 8363   2.212   4.622   1.804
 2778SOL    HW1 8364   2.288   4.666   1.852
 2778SOL    HW2 8365   2.247   4.575   1.722
 2779SOL     OW 8366   3.402   3.998   0.125
 2779SOL    HW1 8367   3.341   3.923   0.148
 2779SOL    HW2 8368   3.424   4.050   0.208
 2780SOL     OW 8369   3.165   4.562   0.042
 2780SOL    HW1 8370   3.199   4.469   0.057
 2780SOL    HW2 8371   3.183   4.589  -0.053
 2781SOL     OW 8372   2.181   4.534   0.949
 2781SOL    HW1 8373   2.274   4.570   0.954
 2781SOL    HW2 8374   2.175   4.449   1.001
 2782SOL     OW 8375   2.201   4.233   1.006
 2782SOL    HW1 8376   2.149   4.150   0.989
 2782SOL    HW2 8377   2.278   4.238   0.942
 2783SOL     OW 8378   3.000   4.104   1.678
 2783SOL    HW1 8379   2.955   4.167   1.742
 2783SOL    HW2 8380   3.093   4.135   1.661
 2784SOL     OW 8381   3.022   3.931   1.477
 2784SOL    HW1 8382   3.022   3.995   1.554
 2784SOL    HW2 8383   3.050   3.979   1.394
 2785SOL     OW 8384   2.864   4.520   1.238
 2785SOL    HW1 8385   2.905   4.488   1.324
 2785SOL    HW2 8386   2.768   4.493   1.235
 2786SOL     OW 8387   1.902   4.268   1.114
 2786SOL    HW1 8388   1.987   4.235   1.073
 2786SOL    HW2 8389   1.915   4.283   1.212
 2787SOL     OW 8390   2.051   4.244   1.722
 2787SOL    HW1 8391   2.110   4.204   1.652
 2787SOL    HW2 8392   1.993   4.315   1.681
 2788SOL     OW 8393   3.231   4.674   1.660
 2788SOL    HW1 8394   3.270   4.763   1.680
 2788SOL    HW2 8395   3.241   4.654   1.563
 2789SOL     OW 8396   2.677   4.296   0.325
 2789SOL    HW1 8397   2.684   4.207   0.279
 2789SOL    HW2 8398   2.583   4.330   0.317
 2790SOL     OW 8399   3.519   4.328   1.206
 2790SOL    HW1 8400   3.481   4.259   1.268
 2790SOL    HW2 8401   3.601   4.292   1.162
 2791SOL     OW 8402   2.533   4.188   1.269
 2791SOL    HW1 8403   2.499   4.099   1.239
 2791SOL    HW2 8404   2.559   4.242   1.189
 2792SOL     OW 8405   2.335   4.224   0.191
 2792SOL    HW1 8406   2.396   4.304   0.195
 2792SOL    HW2 8407   2.240   4.255   0.198
 2793SOL     OW 8408   2.021   4.861   1.466
 2793SOL    HW1 8409   2.043   4.800   1.542
 2793SOL    HW2 8410   2.031   4.812   1.380
 2794SOL     OW 8411   3.209   4.783   1.234
 2794SOL    HW1 8412   3.233   4.720   1.160
 2794SOL    HW2 8413   3.119   4.823   1.216
 2795SOL     OW 8414   3.164   4.579   0.309
 2795SOL    HW1 8415   3.078   4.548   0.351
 2795SOL    HW2 8416   3.160   4.565   0.210
 2796SOL     OW 8417   1.945   4.982   1.022
 2796SOL    HW1 8418   1.940   4.981   1.122
 2796SOL    HW2 8419   1.862   4.941   0.984
 2797SOL     OW 8420   2.765   3.810   0.133
 2797SOL    HW1 8421   2.816   3.811   0.047
 2797SOL    HW2 8422   2.821   3.768   0.204
 2798SOL     OW 8423   3.588   3.859   0.523
 2798SOL    HW1 8424   3.661   3.842   0.456
 2798SOL    HW2 8425   3.557   3.772   0.561
 2799SOL     OW 8426   3.142   4.651   0.672
 2799SOL    HW1 8427   3.202   4.570   0.674
 2799SOL    HW2 8428   3.182   4.720   0.612
 2800SOL     OW 8429   3.703   3.899   0.963
 2800SOL    HW1 8430   3.742   3.814   0.927
 2800SOL    HW2 8431   3.605   3.901   0.944
 2801SOL     OW 8432   2.125   4.050   0.720
 2801SOL    HW1 8433   2.046   4.101   0.686
 2801SOL    HW2 8434   2.116   4.035   0.818
 2802SOL     OW 8435   2.684   4.726   1.372
 2802SOL    HW1 8436   2.724   4.725   1.280
 2802SOL    HW2 8437   2.694   4.818   1.412
 2803SOL     OW 8438   2.778   4.634   0.291
 2803SOL    HW1 8439   2.841   4.672   0.223
 2803SOL    HW2 8440   2.818   4.551   0.330
 2804SOL     OW 8441   2.234   5.012   1.490
 2804SOL    HW1 8442   2.221   5.105   1.456
 2804SOL    HW2 8443   2.150   4.960   1.477
 2805SOL     OW 8444   3.476   5.016   1.289
 2805SOL    HW1 8445   3.536   5.019   1.369
 2805SOL    HW2 8446   3.401   5.080   1.302
 2806SOL     OW 8447   2.901   4.822   0.696
 2806SOL    HW1 8448   2.831   4.775   0.750
 2806SOL    HW2 8449   2.960   4.754   0.653
 2807SOL     OW 8450   2.876   3.960   0.971
 2807SOL    HW1 8451   2.868   3.924   0.878
 2807SOL    HW2 8452   2.874   3.884   1.036
 2808SOL     OW 8453   3.571   4.109   1.381
 2808SOL    HW1 8454   3.644   4.178   1.385
 2808SOL    HW2 8455   3.599   4.034   1.322
 2809SOL     OW 8456   1.967   4.737   1.726
 2809SOL    HW1 8457   1.890   4.704   1.780
 2809SOL    HW2 8458   2.052   4.707   1.768
 2810SOL     OW 8459   2.534   3.927   1.489
 2810SOL    HW1 8460   2.624   3.911   1.449
 2810SOL    HW2 8461   2.542   3.932   1.588
 2811SOL     OW 8462   3.302   4.580   1.398
 2811SOL    HW1 8463   3.245   4.632   1.335
 2811SOL    HW2 8464   3.398   4.592   1.374
 2812SOL     OW 8465   1.934   3.890   0.318
 2812SOL    HW1 8466   1.917   3.973   0.264
 2812SOL    HW2 8467   2.024   3.853   0.296
 2813SOL     OW 8468   2.475   4.566   1.431
 2813SOL    HW1 8469   2.531   4.647   1.414
 2813SOL    HW2 8470   2.534   4.486   1.434
 2814SOL     OW 8471   2.578   4.289   1.708
 2814SOL    HW1 8472   2.597   4.354   1.782
 2814SOL    HW2 8473   2.638   4.209   1.717
 2815SOL     OW 8474   3.312   4.944   1.633
 2815SOL    HW1 8475   3.303   4.934   1.732
 2815SOL    HW2 8476   3.408   4.937   1.607
 2816SOL     OW 8477   3.536   4.607   1.254
 2816SOL    HW1 8478   3.509   4.518   1.217
 2816SOL    HW2 8479   3.537   4.675   1.181
 2817SOL     OW 8480   3.087   4.049   0.449
 2817SOL    HW1 8481   3.152   3.975   0.438
 2817SOL    HW2 8482   3.107   4.099   0.533
 2818SOL     OW 8483   2.456   4.469   0.652
 2818SOL    HW1 8484   2.506   4.554   0.633
 2818SOL    HW2 8485   2.368   4.471   0.604
 2819SOL     OW 8486   3.639   4.066   1.642
 2819SOL    HW1 8487   3.622   4.097   1.548
 2819SOL    HW2 8488   3.555   4.029   1.680
 2820SOL     OW 8489   3.592   4.658   1.517
 2820SOL    HW1 8490   3.630   4.749   1.532
 2820SOL    HW2 8491   3.584   4.641   1.418
 2821SOL     OW 8492   2.721   4.680   0.861
 2821SOL    HW1 8493   2.775   4.611   0.909
 2821SOL    HW2 8494   2.689   4.749   0.927
 2822SOL     OW 8495   2.945   4.708   0.087
 2822SOL    HW1 8496   2.922   4.761   0.005
 2822SOL    HW2 8497   3.026   4.652   0.068
 2823SOL     OW 8498   1.941   4.964   0.653
 2823SOL    HW1 8499   1.940   4.917   0.741
 2823SOL    HW2 8500   2.023   4.936   0.602
 2824SOL     OW 8501   3.686   3.916   1.227
 2824SOL    HW1 8502   3.682   3.826   1.271
 2824SOL    HW2 8503   3.689   3.905   1.128
 2825SOL     OW 8504   2.290   4.148   0.520
 2825SOL    HW1 8505   2.320   4.076   0.458
 2825SOL    HW2 8506   2.251   4.108   0.603
 2826SOL     OW 8507   2.179   4.271   1.280
 2826SOL    HW1 8508   2.217   4.212   1.352
 2826SOL    HW2 8509   2.219   4.245   1.192
 2827SOL     OW 8510   3.286   3.938   1.112
 2827SOL    HW1 8511   3.338   3.873   1.167
 2827SOL    HW2 8512   3.237   4.001   1.173
 2828SOL     OW 8513   2.863   3.758   1.154
 2828SOL    HW1 8514   2.800   3.686   1.123
 2828SOL    HW2 8515   2.956   3.722   1.154
 2829SOL     OW 8516   2.632   5.054   0.301
 2829SOL    HW1 8517   2.586   4.967   0.318
 2829SOL    HW2 8518   2.723   5.051   0.342
 2830SOL     OW 8519   3.214   3.776   0.168
 2830SOL    HW1 8520   3.249   3.735   0.084
 2830SOL    HW2 8521   3.124   3.738   0.188
 2831SOL     OW 8522   3.162   4.177   0.691
 2831SOL    HW1 8523   3.103   4.257   0.695
 2831SOL    HW2 8524   3.177   4.142   0.784
 2832SOL     OW 8525   3.455   3.945   0.882
 2832SOL    HW1 8526   3.371   3.944   0.936
 2832SOL    HW2 8527   3.457   4.028   0.826
 2833SOL     OW 8528   1.901   4.801   0.300
 2833SOL    HW1 8529   2.000   4.790   0.291
 2833SOL    HW2 8530   1.861   4.715   0.332
 2834SOL     OW 8531   2.092   4.352   1.975
 2834SOL    HW1 8532   1.999   4.350   2.012
 2834SOL    HW2 8533   2.093   4.313   1.883
 2835SOL     OW 8534   2.087   3.999   2.858
 2835SOL    HW1 8535   2.122   3.982   2.950
 2835SOL    HW2 8536   1.999   3.954   2.846
 2836SOL     OW 8537   1.881   4.092   2.509
 2836SOL    HW1 8538   1.799   4.135   2.548
 2836SOL    HW2 8539   1.853   4.019   2.446
 2837SOL     OW 8540   2.997   4.427   2.579
 2837SOL    HW1 8541   3.054   4.505   2.554
 2837SOL    HW2 8542   2.937   4.453   2.655
 2838SOL     OW 8543   3.617   4.331   2.093
 2838SOL    HW1 8544   3.605   4.318   1.994
 2838SOL    HW2 8545   3.587   4.250   2.142
 2839SOL     OW 8546   2.630   4.868   2.885
 2839SOL    HW1 8547   2.552   4.885   2.945
 2839SOL    HW2 8548   2.664   4.955   2.849
 2840SOL     OW 8549   2.712   4.522   3.685
 2840SOL    HW1 8550   2.708   4.598   3.750
 2840SOL    HW2 8551   2.734   4.558   3.594
 2841SOL     OW 8552   2.547   4.736   2.527
 2841SOL    HW1 8553   2.616   4.720   2.597
 2841SOL    HW2 8554   2.474   4.793   2.565
 2842SOL     OW 8555   2.548   4.885   3.665
 2842SOL    HW1 8556   2.608   4.964   3.679
 2842SOL    HW2 8557   2.462   4.916   3.624
 2843SOL     OW 8558   2.197   5.159   2.923
 2843SOL    HW1 8559   2.119   5.128   2.870
 2843SOL    HW2 8560   2.255   5.217   2.866
 2844SOL     OW 8561   2.300   4.116   3.361
 2844SOL    HW1 8562   2.382   4.060   3.370
 2844SOL    HW2 8563   2.219   4.058   3.365
 2845SOL     OW 8564   3.465   4.171   2.599
 2845SOL    HW1 8565   3.391   4.217   2.549
 2845SOL    HW2 8566   3.516   4.239   2.652
 2846SOL     OW 8567   2.102   4.815   2.748
 2846SOL    HW1 8568   2.116   4.731   2.800
 2846SOL    HW2 8569   2.047   4.879   2.803
 2847SOL     OW 8570   2.468   4.688   1.985
 2847SOL    HW1 8571   2.475   4.772   1.931
 2847SOL    HW2 8572   2.514   4.701   2.073
 2848SOL     OW 8573   3.456   3.838   3.342
 2848SOL    HW1 8574   3.438   3.905   3.270
 2848SOL    HW2 8575   3.453   3.884   3.431
 2849SOL     OW 8576   1.984   4.367   2.425
 2849SOL    HW1 8577   1.939   4.279   2.442
 2849SOL    HW2 8578   1.983   4.421   2.509
 2850SOL     OW 8579   3.551   4.646   2.474
 2850SOL    HW1 8580   3.646   4.617   2.482
 2850SOL    HW2 8581   3.543   4.711   2.399
 2851SOL     OW 8582   3.503   4.832   2.294
 2851SOL    HW1 8583   3.589   4.834   2.242
 2851SOL    HW2 8584   3.517   4.879   2.382
 2852SOL     OW 8585   1.975   4.461   3.459
 2852SOL    HW1 8586   2.063   4.448   3.504
 2852SOL    HW2 8587   1.962   4.558   3.437
 2853SOL     OW 8588   3.155   4.952   3.285
 2853SOL    HW1 8589   3.192   4.879   3.227
 2853SOL    HW2 8590   3.207   4.957   3.370
 2854SOL     OW 8591   2.671   3.728   2.364
 2854SOL    HW1 8592   2.711   3.819   2.355
 2854SOL    HW2 8593   2.571   3.736   2.370
 2855SOL     OW 8594   2.059   4.700   3.126
 2855SOL    HW1 8595   2.148   4.655   3.112
 2855SOL    HW2 8596   1.986   4.635   3.107
 2856SOL     OW 8597   3.387   4.723   2.052
 2856SOL    HW1 8598   3.324   4.647   2.065
 2856SOL    HW2 8599   3.435   4.741   2.138
 2857SOL     OW 8600   2.179   3.975   3.663
 2857SOL    HW1 8601   2.250   4.046   3.669
 2857SOL    HW2 8602   2.091   4.014   3.691
 2858SOL     OW 8603   2.460   4.453   2.132
 2858SOL    HW1 8604   2.484   4.522   2.064
 2858SOL    HW2 8605   2.382   4.486   2.186
 2859SOL     OW 8606   3.143   4.069   2.806
 2859SOL    HW1 8607   3.057   4.019   2.793
 2859SOL    HW2 8608   3.205   4.015   2.862
 2860SOL     OW 8609   2.669   4.329   3.327
 2860SOL    HW1 8610   2.622   4.326   3.416
 2860SOL    HW2 8611   2.618   4.274   3.261
 2861SOL     OW 8612   3.256   4.193   3.536
 2861SOL    HW1 8613   3.236   4.236   3.624
 2861SOL    HW2 8614   3.334   4.131   3.545
 2862SOL     OW 8615   2.835   4.614   3.434
 2862SOL    HW1 8616   2.881   4.530   3.405
 2862SOL    HW2 8617   2.779   4.648   3.359
 2863SOL     OW 8618   2.853   4.134   3.104
 2863SOL    HW1 8619   2.776   4.168   3.158
 2863SOL    HW2 8620   2.819   4.083   3.025
 2864SOL     OW 8621   2.903   4.425   2.291
 2864SOL    HW1 8622   2.929   4.421   2.387
 2864SOL    HW2 8623   2.818   4.374   2.277
 2865SOL     OW 8624   1.938   4.535   2.651
 2865SOL    HW1 8625   2.037   4.523   2.660
 2865SOL    HW2 8626   1.914   4.630   2.672
 2866SOL     OW 8627   2.727   4.072   2.057
 2866SOL    HW1 8628   2.786   4.135   2.008
 2866SOL    HW2 8629   2.746   3.978   2.028
 2867SOL     OW 8630   3.581   4.309   3.693
 2867SOL    HW1 8631   3.555   4.398   3.657
 2867SOL    HW2 8632   3.579   4.241   3.620
 2868SOL     OW 8633   3.224   4.868   2.407
 2868SOL    HW1 8634   3.307   4.839   2.359
 2868SOL    HW2 8635   3.175   4.935   2.351
 2869SOL     OW 8636   2.412   3.920   2.747
 2869SOL    HW1 8637   2.407   3.915   2.847
 2869SOL    HW2 8638   2.414   4.016   2.718
 2870SOL     OW 8639   3.657   4.790   2.735
 2870SOL    HW1 8640   3.595   4.775   2.659
 2870SOL    HW2 8641   3.605   4.801   2.820
 2871SOL     OW 8642   2.183   4.667   2.104
 2871SOL    HW1 8643   2.265   4.706   2.062
 2871SOL    HW2 8644   2.156   4.585   2.055
 2872SOL     OW 8645   3.320   4.459   2.590
 2872SOL    HW1 8646   3.315   4.394   2.665
 2872SOL    HW2 8647   3.400   4.518   2.603
 2873SOL     OW 8648   2.064   4.009   3.360
 2873SOL    HW1 8649   1.984   4.069   3.347
 2873SOL    HW2 8650   2.054   3.960   3.446
 2874SOL     OW 8651   3.262   3.831   2.288
 2874SOL    HW1 8652   3.238   3.794   2.198
 2874SOL    HW2 8653   3.361   3.847   2.292
 2875SOL     OW 8654   2.244   4.424   2.342
 2875SOL    HW1 8655   2.289   4.334   2.339
 2875SOL    HW2 8656   2.150   4.413   2.375
 2876SOL     OW 8657   3.409   3.946   3.591
 2876SOL    HW1 8658   3.404   3.983   3.683
 2876SOL    HW2 8659   3.337   3.877   3.579
 2877SOL     OW 8660   2.476   3.846   1.979
 2877SOL    HW1 8661   2.574   3.824   1.986
 2877SOL    HW2 8662   2.445   3.829   1.886
 2878SOL     OW 8663   2.643   3.988   3.611
 2878SOL    HW1 8664   2.710   3.927   3.654
 2878SOL    HW2 8665   2.570   4.007   3.676
 2879SOL     OW 8666   3.213   4.314   3.295
 2879SOL    HW1 8667   3.241   4.271   3.380
 2879SOL    HW2 8668   3.238   4.410   3.296
 2880SOL     OW 8669   2.665   5.126   2.786
 2880SOL    HW1 8670   2.755   5.140   2.744
 2880SOL    HW2 8671   2.594   5.128   2.715
 2881SOL     OW 8672   2.784   4.227   2.761
 2881SOL    HW1 8673   2.759   4.218   2.665
 2881SOL    HW2 8674   2.832   4.145   2.792
 2882SOL     OW 8675   2.401   3.788   2.374
 2882SOL    HW1 8676   2.320   3.789   2.432
 2882SOL    HW2 8677   2.404   3.871   2.319
 2883SOL     OW 8678   2.159   3.759   2.033
 2883SOL    HW1 8679   2.208   3.843   2.012
 2883SOL    HW2 8680   2.221   3.694   2.078
 2884SOL     OW 8681   2.797   3.960   2.342
 2884SOL    HW1 8682   2.749   4.001   2.264
 2884SOL    HW2 8683   2.896   3.958   2.323
 2885SOL     OW 8684   2.938   4.407   3.326
 2885SOL    HW1 8685   2.858   4.346   3.329
 2885SOL    HW2 8686   3.019   4.354   3.302
 2886SOL     OW 8687   2.321   4.876   2.603
 2886SOL    HW1 8688   2.250   4.849   2.668
 2886SOL    HW2 8689   2.295   4.848   2.510
 2887SOL     OW 8690   2.894   4.273   1.878
 2887SOL    HW1 8691   2.853   4.355   1.839
 2887SOL    HW2 8692   2.958   4.299   1.951
 2888SOL     OW 8693   1.940   4.280   3.248
 2888SOL    HW1 8694   2.032   4.279   3.207
 2888SOL    HW2 8695   1.934   4.354   3.315
 2889SOL     OW 8696   2.423   3.946   3.009
 2889SOL    HW1 8697   2.461   3.862   3.046
 2889SOL    HW2 8698   2.335   3.965   3.053
 2890SOL     OW 8699   2.728   4.178   2.504
 2890SOL    HW1 8700   2.696   4.250   2.442
 2890SOL    HW2 8701   2.752   4.097   2.451
 2891SOL     OW 8702   2.879   3.763   2.615
 2891SOL    HW1 8703   2.807   3.768   2.546
 2891SOL    HW2 8704   2.855   3.694   2.684
 2892SOL     OW 8705   3.291   4.897   2.729
 2892SOL    HW1 8706   3.236   4.813   2.722
 2892SOL    HW2 8707   3.317   4.926   2.637
 2893SOL     OW 8708   3.328   4.314   2.854
 2893SOL    HW1 8709   3.298   4.219   2.861
 2893SOL    HW2 8710   3.401   4.330   2.920
 2894SOL     OW 8711   3.719   4.557   2.239
 2894SOL    HW1 8712   3.761   4.493   2.303
 2894SOL    HW2 8713   3.681   4.506   2.161
 2895SOL     OW 8714   3.252   4.299   1.940
 2895SOL    HW1 8715   3.198   4.278   2.021
 2895SOL    HW2 8716   3.343   4.258   1.949
 2896SOL     OW 8717   2.389   3.980   2.190
 2896SOL    HW1 8718   2.416   3.921   2.115
 2896SOL    HW2 8719   2.389   4.075   2.159
 2897SOL     OW 8720   3.616   4.947   3.450
 2897SOL    HW1 8721   3.707   4.908   3.437
 2897SOL    HW2 8722   3.624   5.043   3.474
 2898SOL     OW 8723   3.500   4.823   2.941
 2898SOL    HW1 8724   3.505   4.904   3.000
 2898SOL    HW2 8725   3.414   4.825   2.890
 2899SOL     OW 8726   2.777   3.813   3.264
 2899SOL    HW1 8727   2.802   3.793   3.169
 2899SOL    HW2 8728   2.849   3.869   3.306
 2900SOL     OW 8729   2.842   4.840   3.581
 2900SOL    HW1 8730   2.743   4.846   3.591
 2900SOL    HW2 8731   2.865   4.760   3.525
 2901SOL     OW 8732   2.567   4.774   2.230
 2901SOL    HW1 8733   2.553   4.781   2.329
 2901SOL    HW2 8734   2.651   4.723   2.212
 2902SOL     OW 8735   2.272   4.537   3.113
 2902SOL    HW1 8736   2.358   4.549   3.163
 2902SOL    HW2 8737   2.230   4.450   3.140
 2903SOL     OW 8738   3.136   4.110   3.124
 2903SOL    HW1 8739   3.157   4.184   3.188
 2903SOL    HW2 8740   3.047   4.127   3.081
 2904SOL     OW 8741   2.229   4.824   2.363
 2904SOL    HW1 8742   2.222   4.907   2.307
 2904SOL    HW2 8743   2.233   4.744   2.303
 2905SOL     OW 8744   2.428   4.261   2.727
 2905SOL    HW1 8745   2.440   4.327   2.653
 2905SOL    HW2 8746   2.474   4.295   2.810
 2906SOL     OW 8747   3.444   4.363   2.334
 2906SOL    HW1 8748   3.413   4.424   2.407
 2906SOL    HW2 8749   3.494   4.415   2.265
 2907SOL     OW 8750   2.264   4.475   3.460
 2907SOL    HW1 8751   2.332   4.530   3.413
 2907SOL    HW2 8752   2.304   4.387   3.487
 2908SOL     OW 8753   3.449   4.503   3.532
 2908SOL    HW1 8754   3.357   4.541   3.527
 2908SOL    HW2 8755   3.509   4.550   3.467
 2909SOL     OW 8756   2.875   3.829   3.632
 2909SOL    HW1 8757   2.881   3.914   3.580
 2909SOL    HW2 8758   2.907   3.753   3.575
 2910SOL     OW 8759   2.366   3.774   3.602
 2910SOL    HW1 8760   2.324   3.717   3.532
 2910SOL    HW2 8761   2.300   3.843   3.634
 2911SOL     OW 8762   2.435   4.594   2.891
 2911SOL    HW1 8763   2.479   4.683   2.882
 2911SOL    HW2 8764   2.372   4.594   2.968
 2912SOL     OW 8765   3.222   4.586   2.907
 2912SOL    HW1 8766   3.147   4.586   2.841
 2912SOL    HW2 8767   3.259   4.494   2.916
 2913SOL     OW 8768   3.071   4.249   2.137
 2913SOL    HW1 8769   3.084   4.165   2.191
 2913SOL    HW2 8770   3.042   4.323   2.197
 2914SOL     OW 8771   2.169   3.937   3.093
 2914SOL    HW1 8772   2.146   3.974   3.183
 2914SOL    HW2 8773   2.139   3.842   3.087
 2915SOL     OW 8774   2.594   4.358   2.926
 2915SOL    HW1 8775   2.653   4.332   2.850
 2915SOL    HW2 8776   2.566   4.454   2.915
 2916SOL     OW 8777   3.590   4.659   3.716
 2916SOL    HW1 8778   3.544   4.652   3.627
 2916SOL    HW2 8779   3.528   4.703   3.782
 2917SOL     OW 8780   2.169   3.787   2.480
 2917SOL    HW1 8781   2.158   3.881   2.513
 2917SOL    HW2 8782   2.164   3.724   2.557
 2918SOL     OW 8783   3.484   4.091   2.236
 2918SOL    HW1 8784   3.486   4.015   2.300
 2918SOL    HW2 8785   3.436   4.168   2.276
 2919SOL     OW 8786   2.885   4.490   2.828
 2919SOL    HW1 8787   2.900   4.511   2.924
 2919SOL    HW2 8788   2.855   4.395   2.819
 2920SOL     OW 8789   2.212   4.622   3.666
 2920SOL    HW1 8790   2.288   4.666   3.714
 2920SOL    HW2 8791   2.247   4.575   3.584
 2921SOL     OW 8792   3.402   3.998   1.987
 2921SOL    HW1 8793   3.341   3.923   2.010
 2921SOL    HW2 8794   3.424   4.050   2.070
 2922SOL     OW 8795   3.165   4.562   1.904
 2922SOL    HW1 8796   3.199   4.469   1.919
 2922SOL    HW2 8797   3.183   4.589   1.809
 2923SOL     OW 8798   2.181   4.534   2.811
 2923SOL    HW1 8799   2.274   4.570   2.816
 2923SOL    HW2 8800   2.175   4.449   2.863
 2924SOL     OW 8801   2.201   4.233   2.868
 2924SOL    HW1 8802   2.149   4.150   2.851
 2924SOL    HW2 8803   2.278   4.238   2.804
 2925SOL     OW 8804   3.000   4.104   3.540
 2925SOL    HW1 8805   2.955   4.167   3.604
 2925SOL    HW2 8806   3.093   4.135   3.523
 2926SOL     OW 8807   3.022   3.931   3.339
 2926SOL    HW1 8808   3.022   3.995   3.416
 2926SOL    HW2 8809   3.050   3.979   3.256
 2927SOL     OW 8810   1.870   5.050   2.062
 2927SOL    HW1 8811   1.777   5.071   2.031
 2927SOL    HW2 8812   1.880   4.951   2.075
 2928SOL     OW 8813   2.864   4.520   3.100
 2928SOL    HW1 8814   2.905   4.488   3.186
 2928SOL    HW2 8815   2.768   4.493   3.097
 2929SOL     OW 8816   1.902   4.268   2.976
 2929SOL    HW1 8817   1.987   4.235   2.935
 2929SOL    HW2 8818   1.915   4.283   3.074
 2930SOL     OW 8819   2.051   4.244   3.584
 2930SOL    HW1 8820   2.110   4.204   3.514
 2930SOL    HW2 8821   1.993   4.315   3.543
 2931SOL     OW 8822   3.231   4.674   3.522
 2931SOL    HW1 8823   3.270   4.763   3.542
 2931SOL    HW2 8824   3.241   4.654   3.425
 2932SOL     OW 8825   2.677   4.296   2.187
 2932SOL    HW1 8826   2.684   4.207   2.141
 2932SOL    HW2 8827   2.583   4.330   2.179
 2933SOL     OW 8828   3.519   4.328   3.068
 2933SOL    HW1 8829   3.481   4.259   3.130
 2933SOL    HW2 8830   3.601   4.292   3.024
 2934SOL     OW 8831   2.533   4.188   3.131
 2934SOL    HW1 8832   2.499   4.099   3.101
 2934SOL    HW2 8833   2.559   4.242   3.051
 2935SOL     OW 8834   2.335   4.224   2.053
 2935SOL    HW1 8835   2.396   4.304   2.057
 2935SOL    HW2 8836   2.240   4.255   2.060
 2936SOL     OW 8837   2.021   4.861   3.328
 2936SOL    HW1 8838   2.043   4.800   3.404
 2936SOL    HW2 8839   2.031   4.812   3.242
 2937SOL     OW 8840   3.209   4.783   3.096
 2937SOL    HW1 8841   3.233   4.720   3.022
 2937SOL    HW2 8842   3.119   4.823   3.078
 2938SOL     OW 8843   3.164   4.579   2.171
 2938SOL    HW1 8844   3.078   4.548   2.213
 2938SOL    HW2 8845   3.160   4.565   2.072
 2939SOL     OW 8846   1.945   4.982   2.884
 2939SOL    HW1 8847   1.940   4.981   2.984
 2939SOL    HW2 8848   1.862   4.941   2.846
 2940SOL     OW 8849   3.588   3.859   2.385
 2940SOL    HW1 8850   3.661   3.842   2.318
 2940SOL    HW2 8851   3.557   3.772   2.423
 2941SOL     OW 8852   3.142   4.651   2.534
 2941SOL    HW1 8853   3.202   4.570   2.536
 2941SOL    HW2 8854   3.182   4.720   2.474
 2942SOL     OW 8855   3.703   3.899   2.825
 2942SOL    HW1 8856   3.742   3.814   2.789
 2942SOL    HW2 8857   3.605   3.901   2.806
 2943SOL     OW 8858   2.125   4.050   2.582
 2943SOL    HW1 8859   2.046   4.101   2.548
 2943SOL    HW2 8860   2.116   4.035   2.680
 2944SOL     OW 8861   3.056   5.336   1.893
 2944SOL    HW1 8862   3.062   5.243   1.930
 2944SOL    HW2 8863   2.997   5.336   1.813
 2945SOL     OW 8864   2.684   4.726   3.234
 2945SOL    HW1 8865   2.724   4.725   3.142
 2945SOL    HW2 8866   2.694   4.818   3.274
 2946SOL     OW 8867   2.778   4.634   2.153
 2946SOL    HW1 8868   2.841   4.672   2.085
 2946SOL    HW2 8869   2.818   4.551   2.192
 2947SOL     OW 8870   2.234   5.012   3.352
 2947SOL    HW1 8871   2.221   5.105   3.318
 2947SOL    HW2 8872   2.150   4.960   3.339
 2948SOL     OW 8873   3.476   5.016   3.151
 2948SOL    HW1 8874   3.536   5.019   3.231
 2948SOL    HW2 8875   3.401   5.080   3.164
 2949SOL     OW 8876   2.901   4.822   2.558
 2949SOL    HW1 8877   2.831   4.775   2.612
 2949SOL    HW2 8878   2.960   4.754   2.515
 2950SOL     OW 8879   2.876   3.960   2.833
 2950SOL    HW1 8880   2.868   3.924   2.740
 2950SOL    HW2 8881   2.874   3.884   2.898
 2951SOL     OW 8882   3.571   4.109   3.243
 2951SOL    HW1 8883   3.644   4.178   3.247
 2951SOL    HW2 8884   3.599   4.034   3.184
 2952SOL     OW 8885   1.967   4.737   3.588
 2952SOL    HW1 8886   1.890   4.704   3.642
 2952SOL    HW2 8887   2.052   4.707   3.630
 2953SOL     OW 8888   2.534   3.927   3.351
 2953SOL    HW1 8889   2.624   3.911   3.311
 2953SOL    HW2 8890   2.542   3.932   3.450
 2954SOL     OW 8891   1.937   4.069   1.895
 2954SOL    HW1 8892   1.845   4.041   1.866
 2954SOL    HW2 8893   1.968   4.146   1.839
 2955SOL     OW 8894   3.302   4.580   3.260
 2955SOL    HW1 8895   3.245   4.632   3.197
 2955SOL    HW2 8896   3.398   4.592   3.236
 2956SOL     OW 8897   1.934   3.890   2.180
 2956SOL    HW1 8898   1.917   3.973   2.126
 2956SOL    HW2 8899   2.024   3.853   2.158
 2957SOL     OW 8900   2.475   4.566   3.293
 2957SOL    HW1 8901   2.531   4.647   3.276
 2957SOL    HW2 8902   2.534   4.486   3.296
 2958SOL     OW 8903   2.578   4.289   3.570
 2958SOL    HW1 8904   2.597   4.354   3.644
 2958SOL    HW2 8905   2.638   4.209   3.579
 2959SOL     OW 8906   3.312   4.944   3.495
 2959SOL    HW1 8907   3.303   4.934   3.594
 2959SOL    HW2 8908   3.408   4.937   3.469
 2960SOL     OW 8909   3.536   4.607   3.116
 2960SOL    HW1 8910   3.509   4.518   3.079
 2960SOL    HW2 8911   3.537   4.675   3.043
 2961SOL     OW 8912   3.087   4.049   2.311
 2961SOL    HW1 8913   3.152   3.975   2.300
 2961SOL    HW2 8914   3.107   4.099   2.395
 2962SOL     OW 8915   2.456   4.469   2.514
 2962SOL    HW1 8916   2.506   4.554   2.495
 2962SOL    HW2 8917   2.368   4.471   2.466
 2963SOL     OW 8918   3.639   4.066   3.504
 2963SOL    HW1 8919   3.622   4.097   3.410
 2963SOL    HW2 8920   3.555   4.029   3.542
 2964SOL     OW 8921   3.592   4.658   3.379
 2964SOL    HW1 8922   3.630   4.749   3.394
 2964SOL    HW2 8923   3.584   4.641   3.280
 2965SOL     OW 8924   2.721   4.680   2.723
 2965SOL    HW1 8925   2.775   4.611   2.771
 2965SOL    HW2 8926   2.689   4.749   2.789
 2966SOL     OW 8927   2.945   4.708   1.949
 2966SOL    HW1 8928   2.922   4.761   1.867
 2966SOL    HW2 8929   3.026   4.652   1.930
 2967SOL     OW 8930   1.941   4.964   2.515
 2967SOL    HW1 8931   1.940   4.917   2.603
 2967SOL    HW2 8932   2.023   4.936   2.464
 2968SOL     OW 8933   3.686   3.916   3.089
 2968SOL    HW1 8934   3.682   3.826   3.133
 2968SOL    HW2 8935   3.689   3.905   2.990
 2969SOL     OW 8936   2.290   4.148   2.382
 2969SOL    HW1 8937   2.320   4.076   2.320
 2969SOL    HW2 8938   2.251   4.108   2.465
 2970SOL     OW 8939   2.179   4.271   3.142
 2970SOL    HW1 8940   2.217   4.212   3.214
 2970SOL    HW2 8941   2.219   4.245   3.054
 2971SOL     OW 8942   3.286   3.938   2.974
 2971SOL    HW1 8943   3.338   3.873   3.029
 2971SOL    HW2 8944   3.237   4.001   3.035
 2972SOL     OW 8945   2.863   3.758   3.016
 2972SOL    HW1 8946   2.800   3.686   2.985
 2972SOL    HW2 8947   2.956   3.722   3.016
 2973SOL     OW 8948   2.632   5.054   2.163
 2973SOL    HW1 8949   2.586   4.967   2.180
 2973SOL    HW2 8950   2.723   5.051   2.204
 2974SOL     OW 8951   3.214   3.776   2.030
 2974SOL    HW1 8952   3.249   3.735   1.946
 2974SOL    HW2 8953   3.124   3.738   2.050
 2975SOL     OW 8954   3.162   4.177   2.553
 2975SOL    HW1 8955   3.103   4.257   2.557
 2975SOL    HW2 8956   3.177   4.142   2.646
 2976SOL     OW 8957   3.455   3.945   2.744
 2976SOL    HW1 8958   3.371   3.944   2.798
 2976SOL    HW2 8959   3.457   4.028   2.688
 2977SOL     OW 8960   1.901   4.801   2.162
 2977SOL    HW1 8961   2.000   4.790   2.153
 2977SOL    HW2 8962   1.861   4.715   2.194
 2978SOL     OW 8963   2.092   4.352   3.837
 2978SOL    HW1 8964   1.999   4.350   3.874
 2978SOL    HW2 8965   2.093   4.313   3.745
 2979SOL     OW 8966   2.087   3.999   4.720
 2979SOL    HW1 8967   2.122   3.982   4.812
 2979SOL    HW2 8968   1.999   3.954   4.708
 2980SOL     OW 8969   1.881   4.092   4.371
 2980SOL    HW1 8970   1.799   4.135   4.410
 2980SOL    HW2 8971   1.853   4.019   4.308
 2981SOL     OW 8972   2.997   4.427   4.441
 2981SOL    HW1 8973   3.054   4.505   4.416
 2981SOL    HW2 8974   2.937   4.453   4.517
 2982SOL     OW 8975   3.617   4.331   3.955
 2982SOL    HW1 8976   3.605   4.318   3.856
 2982SOL    HW2 8977   3.587   4.250   4.004
 2983SOL     OW 8978   2.630   4.868   4.747
 2983SOL    HW1 8979   2.552   4.885   4.807
 2983SOL    HW2 8980   2.664   4.955   4.711
 2984SOL     OW 8981   2.547   4.736   4.389
 2984SOL    HW1 8982   2.616   4.720   4.459
 2984SOL    HW2 8983   2.474   4.793   4.427
 2985SOL     OW 8984   2.197   5.159   4.785
 2985SOL    HW1 8985   2.119   5.128   4.732
 2985SOL    HW2 8986   2.255   5.217   4.728
 2986SOL     OW 8987   3.465   4.171   4.461
 2986SOL    HW1 8988   3.391   4.217   4.411
 2986SOL    HW2 8989   3.516   4.239   4.514
 2987SOL     OW 8990   2.102   4.815   4.610
 2987SOL    HW1 8991   2.116   4.731   4.662
 2987SOL    HW2 8992   2.047   4.879   4.665
 2988SOL     OW 8993   2.468   4.688   3.847
 2988SOL    HW1 8994   2.475   4.772   3.793
 2988SOL    HW2 8995   2.514   4.701   3.935
 2989SOL     OW 8996   1.984   4.367   4.287
 2989SOL    HW1 8997   1.939   4.279   4.304
 2989SOL    HW2 8998   1.983   4.421   4.371
 2990SOL     OW 8999   3.551   4.646   4.336
 2990SOL    HW1 9000   3.646   4.617   4.344
 2990SOL    HW2 9001   3.543   4.711   4.261
 2991SOL     OW 9002   3.503   4.832   4.156
 2991SOL    HW1 9003   3.589   4.834   4.104
 2991SOL    HW2 9004   3.517   4.879   4.244
 2992SOL     OW 9005   1.975   4.461   5.321
 2992SOL    HW1 9006   2.063   4.448   5.366
 2992SOL    HW2 9007   1.962   4.558   5.299
 2993SOL     OW 9008   2.671   3.728   4.226
 2993SOL    HW1 9009   2.711   3.819   4.217
 2993SOL    HW2 9010   2.571   3.736   4.232
 2994SOL     OW 9011   2.059   4.700   4.988
 2994SOL    HW1 9012   2.148   4.655   4.974
 2994SOL    HW2 9013   1.986   4.635   4.969
 2995SOL     OW 9014   3.387   4.723   3.914
 2995SOL    HW1 9015   3.324   4.647   3.927
 2995SOL    HW2 9016   3.435   4.741   4.000
 2996SOL     OW 9017   2.460   4.453   3.994
 2996SOL    HW1 9018   2.484   4.522   3.926
 2996SOL    HW2 9019   2.382   4.486   4.048
 2997SOL     OW 9020   3.143   4.069   4.668
 2997SOL    HW1 9021   3.057   4.019   4.655
 2997SOL    HW2 9022   3.205   4.015   4.724
 2998SOL     OW 9023   2.853   4.134   4.966
 2998SOL    HW1 9024   2.776   4.168   5.020
 2998SOL    HW2 9025   2.819   4.083   4.887
 2999SOL     OW 9026   2.903   4.425   4.153
 2999SOL    HW1 9027   2.929   4.421   4.249
 2999SOL    HW2 9028   2.818   4.374   4.139
 3000SOL     OW 9029   1.938   4.535   4.513
 3000SOL    HW1 9030   2.037   4.523   4.522
 3000SOL    HW2 9031   1.914   4.630   4.534
 3001SOL     OW 9032   2.727   4.072   3.919
 3001SOL    HW1 9033   2.786   4.135   3.870
 3001SOL    HW2 9034   2.746   3.978   3.890
 3002SOL     OW 9035   3.224   4.868   4.269
 3002SOL    HW1 9036   3.307   4.839   4.221
 3002SOL    HW2 9037   3.175   4.935   4.213
 3003SOL     OW 9038   2.412   3.920   4.609
 3003SOL    HW1 9039   2.407   3.915   4.709
 3003SOL    HW2 9040   2.414   4.016   4.580
 3004SOL     OW 9041   3.657   4.790   4.597
 3004SOL    HW1 9042   3.595   4.775   4.521
 3004SOL    HW2 9043   3.605   4.801   4.682
 3005SOL     OW 9044   2.183   4.667   3.966
 3005SOL    HW1 9045   2.265   4.706   3.924
 3005SOL    HW2 9046   2.156   4.585   3.917
 3006SOL     OW 9047   3.320   4.459   4.452
 3006SOL    HW1 9048   3.315   4.394   4.527
 3006SOL    HW2 9049   3.400   4.518   4.465
 3007SOL     OW 9050   3.262   3.831   4.150
 3007SOL    HW1 9051   3.238   3.794   4.060
 3007SOL    HW2 9052   3.361   3.847   4.154
 3008SOL     OW 9053   2.244   4.424   4.204
 3008SOL    HW1 9054   2.289   4.334   4.201
 3008SOL    HW2 9055   2.150   4.413   4.237
 3009SOL     OW 9056   2.476   3.846   3.841
 3009SOL    HW1 9057   2.574   3.824   3.848
 3009SOL    HW2 9058   2.445   3.829   3.748
 3010SOL     OW 9059   2.665   5.126   4.648
 3010SOL    HW1 9060   2.755   5.140   4.606
 3010SOL    HW2 9061   2.594   5.128   4.577
 3011SOL     OW 9062   2.784   4.227   4.623
 3011SOL    HW1 9063   2.759   4.218   4.527
 3011SOL    HW2 9064   2.832   4.145   4.654
 3012SOL     OW 9065   2.401   3.788   4.236
 3012SOL    HW1 9066   2.320   3.789   4.294
 3012SOL    HW2 9067   2.404   3.871   4.181
 3013SOL     OW 9068   2.159   3.759   3.895
 3013SOL    HW1 9069   2.208   3.843   3.874
 3013SOL    HW2 9070   2.221   3.694   3.940
 3014SOL     OW 9071   2.797   3.960   4.204
 3014SOL    HW1 9072   2.749   4.001   4.126
 3014SOL    HW2 9073   2.896   3.958   4.185
 3015SOL     OW 9074   2.321   4.876   4.465
 3015SOL    HW1 9075   2.250   4.849   4.530
 3015SOL    HW2 9076   2.295   4.848   4.372
 3016SOL     OW 9077   2.894   4.273   3.740
 3016SOL    HW1 9078   2.853   4.355   3.701
 3016SOL    HW2 9079   2.958   4.299   3.813
 3017SOL     OW 9080   2.423   3.946   4.871
 3017SOL    HW1 9081   2.461   3.862   4.908
 3017SOL    HW2 9082   2.335   3.965   4.915
 3018SOL     OW 9083   2.728   4.178   4.366
 3018SOL    HW1 9084   2.696   4.250   4.304
 3018SOL    HW2 9085   2.752   4.097   4.313
 3019SOL     OW 9086   2.879   3.763   4.477
 3019SOL    HW1 9087   2.807   3.768   4.408
 3019SOL    HW2 9088   2.855   3.694   4.546
 3020SOL     OW 9089   3.291   4.897   4.591
 3020SOL    HW1 9090   3.236   4.813   4.584
 3020SOL    HW2 9091   3.317   4.926   4.499
 3021SOL     OW 9092   3.328   4.314   4.716
 3021SOL    HW1 9093   3.298   4.219   4.723
 3021SOL    HW2 9094   3.401   4.330   4.782
 3022SOL     OW 9095   3.719   4.557   4.101
 3022SOL    HW1 9096   3.761   4.493   4.165
 3022SOL    HW2 9097   3.681   4.506   4.023
 3023SOL     OW 9098   3.252   4.299   3.802
 3023SOL    HW1 9099   3.198   4.278   3.883
 3023SOL    HW2 9100   3.343   4.258   3.811
 3024SOL     OW 9101   2.389   3.980   4.052
 3024SOL    HW1 9102   2.416   3.921   3.977
 3024SOL    HW2 9103   2.389   4.075   4.021
 3025SOL     OW 9104   3.500   4.823   4.803
 3025SOL    HW1 9105   3.505   4.904   4.862
 3025SOL    HW2 9106   3.414   4.825   4.752
 3026SOL     OW 9107   2.567   4.774   4.092
 3026SOL    HW1 9108   2.553   4.781   4.191
 3026SOL    HW2 9109   2.651   4.723   4.074
 3027SOL     OW 9110   2.272   4.537   4.975
 3027SOL    HW1 9111   2.358   4.549   5.025
 3027SOL    HW2 9112   2.230   4.450   5.002
 3028SOL     OW 9113   3.136   4.110   4.986
 3028SOL    HW1 9114   3.157   4.184   5.050
 3028SOL    HW2 9115   3.047   4.127   4.943
 3029SOL     OW 9116   2.229   4.824   4.225
 3029SOL    HW1 9117   2.222   4.907   4.169
 3029SOL    HW2 9118   2.233   4.744   4.165
 3030SOL     OW 9119   2.428   4.261   4.589
 3030SOL    HW1 9120   2.440   4.327   4.515
 3030SOL    HW2 9121   2.474   4.295   4.672
 3031SOL     OW 9122   3.444   4.363   4.196
 3031SOL    HW1 9123   3.413   4.424   4.269
 3031SOL    HW2 9124   3.494   4.415   4.127
 3032SOL     OW 9125   2.435   4.594   4.753
 3032SOL    HW1 9126   2.479   4.683   4.744
 3032SOL    HW2 9127   2.372   4.594   4.830
 3033SOL     OW 9128   3.222   4.586   4.769
 3033SOL    HW1 9129   3.147   4.586   4.703
 3033SOL    HW2 9130   3.259   4.494   4.778
 3034SOL     OW 9131   3.071   4.249   3.999
 3034SOL    HW1 9132   3.084   4.165   4.053
 3034SOL    HW2 9133   3.042   4.323   4.059
 3035SOL     OW 9134   2.169   3.937   4.955
 3035SOL    HW1 9135   2.146   3.974   5.045
 3035SOL    HW2 9136   2.139   3.842   4.949
 3036SOL     OW 9137   2.594   4.358   4.788
 3036SOL    HW1 9138   2.653   4.332   4.712
 3036SOL    HW2 9139   2.566   4.454   4.777
 3037SOL     OW 9140   2.169   3.787   4.342
 3037SOL    HW1 9141   2.158   3.881   4.375
 3037SOL    HW2 9142   2.164   3.724   4.419
 3038SOL     OW 9143   3.484   4.091   4.098
 3038SOL    HW1 9144   3.486   4.015   4.162
 3038SOL    HW2 9145   3.436   4.168   4.138
 3039SOL     OW 9146   2.885   4.490   4.690
 3039SOL    HW1 9147   2.900   4.511   4.786
 3039SOL    HW2 9148   2.855   4.395   4.681
 3040SOL     OW 9149   3.402   3.998   3.849
 3040SOL    HW1 9150   3.341   3.923   3.872
 3040SOL    HW2 9151   3.424   4.050   3.932
 3041SOL     OW 9152   3.165   4.562   3.766
 3041SOL    HW1 9153   3.199   4.469   3.781
 3041SOL    HW2 9154   3.183   4.589   3.671
 3042SOL     OW 9155   2.181   4.534   4.673
 3042SOL    HW1 9156   2.274   4.570   4.678
 3042SOL    HW2 9157   2.175   4.449   4.725
 3043SOL     OW 9158   2.201   4.233   4.730
 3043SOL    HW1 9159   2.149   4.150   4.713
 3043SOL    HW2 9160   2.278   4.238   4.666
 3044SOL     OW 9161   3.022   3.931   5.201
 3044SOL    HW1 9162   3.022   3.995   5.278
 3044SOL    HW2 9163   3.050   3.979   5.118
 3045SOL     OW 9164   1.870   5.050   3.924
 3045SOL    HW1 9165   1.777   5.071   3.893
 3045SOL    HW2 9166   1.880   4.951   3.937
 3046SOL     OW 9167   2.864   4.520   4.962
 3046SOL    HW1 9168   2.905   4.488   5.048
 3046SOL    HW2 9169   2.768   4.493   4.959
 3047SOL     OW 9170   1.902   4.268   4.838
 3047SOL    HW1 9171   1.987   4.235   4.797
 3047SOL    HW2 9172   1.915   4.283   4.936
 3048SOL     OW 9173   2.677   4.296   4.049
 3048SOL    HW1 9174   2.684   4.207   4.003
 3048SOL    HW2 9175   2.583   4.330   4.041
 3049SOL     OW 9176   3.519   4.328   4.930
 3049SOL    HW1 9177   3.481   4.259   4.992
 3049SOL    HW2 9178   3.601   4.292   4.886
 3050SOL     OW 9179   2.533   4.188   4.993
 3050SOL    HW1 9180   2.499   4.099   4.963
 3050SOL    HW2 9181   2.559   4.242   4.913
 3051SOL     OW 9182   2.335   4.224   3.915
 3051SOL    HW1 9183   2.396   4.304   3.919
 3051SOL    HW2 9184   2.240   4.255   3.922
 3052SOL     OW 9185   3.209   4.783   4.958
 3052SOL    HW1 9186   3.233   4.720   4.884
 3052SOL    HW2 9187   3.119   4.823   4.940
 3053SOL     OW 9188   3.164   4.579   4.033
 3053SOL    HW1 9189   3.078   4.548   4.075
 3053SOL    HW2 9190   3.160   4.565   3.934
 3054SOL     OW 9191   1.945   4.982   4.746
 3054SOL    HW1 9192   1.940   4.981   4.846
 3054SOL    HW2 9193   1.862   4.941   4.708
 3055SOL     OW 9194   3.588   3.859   4.247
 3055SOL    HW1 9195   3.661   3.842   4.180
 3055SOL    HW2 9196   3.557   3.772   4.285
 3056SOL     OW 9197   3.142   4.651   4.396
 3056SOL    HW1 9198   3.202   4.570   4.398
 3056SOL    HW2 9199   3.182   4.720   4.336
 3057SOL     OW 9200   3.703   3.899   4.687
 3057SOL    HW1 9201   3.742   3.814   4.651
 3057SOL    HW2 9202   3.605   3.901   4.668
 3058SOL     OW 9203   2.125   4.050   4.444
 3058SOL    HW1 9204   2.046   4.101   4.410
 3058SOL    HW2 9205   2.116   4.035   4.542
 3059SOL     OW 9206   3.056   5.336   3.755
 3059SOL    HW1 9207   3.062   5.243   3.792
 3059SOL    HW2 9208   2.997   5.336   3.675
 3060SOL     OW 9209   2.684   4.726   5.096
 3060SOL    HW1 9210   2.724   4.725   5.004
 3060SOL    HW2 9211   2.694   4.818   5.136
 3061SOL     OW 9212   2.778   4.634   4.015
 3061SOL    HW1 9213   2.841   4.672   3.947
 3061SOL    HW2 9214   2.818   4.551   4.054
 3062SOL     OW 9215   3.476   5.016   5.013
 3062SOL    HW1 9216   3.536   5.019   5.093
 3062SOL    HW2 9217   3.401   5.080   5.026
 3063SOL     OW 9218   2.901   4.822   4.420
 3063SOL    HW1 9219   2.831   4.775   4.474
 3063SOL    HW2 9220   2.960   4.754   4.377
 3064SOL     OW 9221   2.876   3.960   4.695
 3064SOL    HW1 9222   2.868   3.924   4.602
 3064SOL    HW2 9223   2.874   3.884   4.760
 3065SOL     OW 9224   3.571   4.109   5.105
 3065SOL    HW1 9225   3.644   4.178   5.109
 3065SOL    HW2 9226   3.599   4.034   5.046
 3066SOL     OW 9227   1.937   4.069   3.757
 3066SOL    HW1 9228   1.845   4.041   3.728
 3066SOL    HW2 9229   1.968   4.146   3.701
 3067SOL     OW 9230   1.934   3.890   4.042
 3067SOL    HW1 9231   1.917   3.973   3.988
 3067SOL    HW2 9232   2.024   3.853   4.020
 3068SOL     OW 9233   3.536   4.607   4.978
 3068SOL    HW1 9234   3.509   4.518   4.941
 3068SOL    HW2 9235   3.537   4.675   4.905
 3069SOL     OW 9236   3.087   4.049   4.173
 3069SOL    HW1 9237   3.152   3.975   4.162
 3069SOL    HW2 9238   3.107   4.099   4.257
 3070SOL     OW 9239   2.456   4.469   4.376
 3070SOL    HW1 9240   2.506   4.554   4.357
 3070SOL    HW2 9241   2.368   4.471   4.328
 3071SOL     OW 9242   3.592   4.658   5.241
 3071SOL    HW1 9243   3.630   4.749   5.256
 3071SOL    HW2 9244   3.584   4.641   5.142
 3072SOL     OW 9245   2.721   4.680   4.585
 3072SOL    HW1 9246   2.775   4.611   4.633
 3072SOL    HW2 9247   2.689   4.749   4.651
 3073SOL     OW 9248   2.945   4.708   3.811
 3073SOL    HW1 9249   2.922   4.761   3.729
 3073SOL    HW2 9250   3.026   4.652   3.792
 3074SOL     OW 9251   1.941   4.964   4.377
 3074SOL    HW1 9252   1.940   4.917   4.465
 3074SOL    HW2 9253   2.023   4.936   4.326
 3075SOL     OW 9254   3.686   3.916   4.951
 3075SOL    HW1 9255   3.682   3.826   4.995
 3075SOL    HW2 9256   3.689   3.905   4.852
 3076SOL     OW 9257   2.290   4.148   4.244
 3076SOL    HW1 9258   2.320   4.076   4.182
 3076SOL    HW2 9259   2.251   4.108   4.327
 3077SOL     OW 9260   3.286   3.938   4.836
 3077SOL    HW1 9261   3.338   3.873   4.891
 3077SOL    HW2 9262   3.237   4.001   4.897
 3078SOL     OW 9263   2.863   3.758   4.878
 3078SOL    HW1 9264   2.800   3.686   4.847
 3078SOL    HW2 9265   2.956   3.722   4.878
 3079SOL     OW 9266   2.632   5.054   4.025
 3079SOL    HW1 9267   2.586   4.967   4.042
 3079SOL    HW2 9268   2.723   5.051   4.066
 3080SOL     OW 9269   3.214   3.776   3.892
 3080SOL    HW1 9270   3.249   3.735   3.808
 3080SOL    HW2 9271   3.124   3.738   3.912
 3081SOL     OW 9272   3.162   4.177   4.415
 3081SOL    HW1 9273   3.103   4.257   4.419
 3081SOL    HW2 9274   3.177   4.142   4.508
 3082SOL     OW 9275   3.455   3.945   4.606
 3082SOL    HW1 9276   3.371   3.944   4.660
 3082SOL    HW2 9277   3.457   4.028   4.550
 3083SOL     OW 9278   1.901   4.801   4.024
 3083SOL    HW1 9279   2.000   4.790   4.015
 3083SOL    HW2 9280   1.861   4.715   4.056
 3084SOL     OW 9281   3.954   0.628   0.113
 3084SOL    HW1 9282   3.861   0.626   0.150
 3084SOL    HW2 9283   3.955   0.589   0.021
 3085SOL     OW 9284   3.949   0.275   0.996
 3085SOL    HW1 9285   3.984   0.258   1.088
 3085SOL    HW2 9286   3.861   0.230   0.984
 3086SOL     OW 9287   3.743   0.368   0.647
 3086SOL    HW1 9288   3.661   0.411   0.686
 3086SOL    HW2 9289   3.715   0.295   0.584
 3087SOL     OW 9290   4.293   1.275   1.165
 3087SOL    HW1 9291   4.200   1.268   1.128
 3087SOL    HW2 9292   4.304   1.364   1.209
 3088SOL     OW 9293   4.859   0.703   0.717
 3088SOL    HW1 9294   4.916   0.781   0.692
 3088SOL    HW2 9295   4.799   0.729   0.793
 3089SOL     OW 9296   4.492   1.144   1.023
 3089SOL    HW1 9297   4.414   1.161   1.083
 3089SOL    HW2 9298   4.526   1.231   0.987
 3090SOL     OW 9299   4.574   0.798   1.823
 3090SOL    HW1 9300   4.570   0.874   1.888
 3090SOL    HW2 9301   4.596   0.834   1.732
 3091SOL     OW 9302   4.409   1.012   0.665
 3091SOL    HW1 9303   4.478   0.996   0.735
 3091SOL    HW2 9304   4.336   1.069   0.703
 3092SOL     OW 9305   4.410   1.161   1.803
 3092SOL    HW1 9306   4.470   1.240   1.817
 3092SOL    HW2 9307   4.324   1.192   1.762
 3093SOL     OW 9308   4.059   1.435   1.061
 3093SOL    HW1 9309   3.981   1.404   1.008
 3093SOL    HW2 9310   4.117   1.493   1.004
 3094SOL     OW 9311   4.162   0.392   1.499
 3094SOL    HW1 9312   4.244   0.336   1.508
 3094SOL    HW2 9313   4.081   0.334   1.503
 3095SOL     OW 9314   3.955   1.713   0.483
 3095SOL    HW1 9315   3.989   1.790   0.537
 3095SOL    HW2 9316   3.999   1.713   0.393
 3096SOL     OW 9317   4.851   1.341   1.690
 3096SOL    HW1 9318   4.898   1.341   1.778
 3096SOL    HW2 9319   4.803   1.254   1.679
 3097SOL     OW 9320   3.954   1.434   0.538
 3097SOL    HW1 9321   3.928   1.530   0.538
 3097SOL    HW2 9322   3.883   1.380   0.583
 3098SOL     OW 9323   3.964   1.091   0.886
 3098SOL    HW1 9324   3.978   1.007   0.938
 3098SOL    HW2 9325   3.909   1.155   0.941
 3099SOL     OW 9326   4.344   1.786   1.439
 3099SOL    HW1 9327   4.252   1.769   1.474
 3099SOL    HW2 9328   4.372   1.878   1.465
 3100SOL     OW 9329   4.330   0.964   0.123
 3100SOL    HW1 9330   4.337   1.048   0.069
 3100SOL    HW2 9331   4.376   0.977   0.211
 3101SOL     OW 9332   3.846   0.643   0.563
 3101SOL    HW1 9333   3.801   0.555   0.580
 3101SOL    HW2 9334   3.845   0.697   0.647
 3102SOL     OW 9335   3.751   1.596   0.117
 3102SOL    HW1 9336   3.732   1.500   0.138
 3102SOL    HW2 9337   3.718   1.654   0.192
 3103SOL     OW 9338   3.837   0.737   1.597
 3103SOL    HW1 9339   3.925   0.724   1.642
 3103SOL    HW2 9340   3.824   0.834   1.575
 3104SOL     OW 9341   4.337   1.365   0.726
 3104SOL    HW1 9342   4.288   1.278   0.735
 3104SOL    HW2 9343   4.314   1.408   0.639
 3105SOL     OW 9344   4.533   0.004   0.502
 3105SOL    HW1 9345   4.573   0.095   0.493
 3105SOL    HW2 9346   4.433   0.012   0.508
 3106SOL     OW 9347   3.921   0.976   1.264
 3106SOL    HW1 9348   4.010   0.931   1.250
 3106SOL    HW2 9349   3.848   0.911   1.245
 3107SOL     OW 9350   4.911   1.792   1.616
 3107SOL    HW1 9351   4.935   1.852   1.540
 3107SOL    HW2 9352   4.918   1.697   1.586
 3108SOL     OW 9353   4.041   0.251   1.801
 3108SOL    HW1 9354   4.112   0.322   1.807
 3108SOL    HW2 9355   3.953   0.290   1.829
 3109SOL     OW 9356   4.322   0.729   0.270
 3109SOL    HW1 9357   4.346   0.798   0.202
 3109SOL    HW2 9358   4.244   0.762   0.324
 3110SOL     OW 9359   4.531   0.605   1.465
 3110SOL    HW1 9360   4.484   0.602   1.554
 3110SOL    HW2 9361   4.480   0.550   1.399
 3111SOL     OW 9362   4.697   0.890   1.572
 3111SOL    HW1 9363   4.743   0.806   1.543
 3111SOL    HW2 9364   4.641   0.924   1.497
 3112SOL     OW 9365   4.715   0.410   1.242
 3112SOL    HW1 9366   4.638   0.444   1.296
 3112SOL    HW2 9367   4.681   0.359   1.163
 3113SOL     OW 9368   4.765   0.701   0.429
 3113SOL    HW1 9369   4.791   0.697   0.525
 3113SOL    HW2 9370   4.680   0.650   0.415
 3114SOL     OW 9371   3.800   0.811   0.789
 3114SOL    HW1 9372   3.899   0.799   0.798
 3114SOL    HW2 9373   3.776   0.906   0.810
 3115SOL     OW 9374   3.854   1.821   1.571
 3115SOL    HW1 9375   3.844   1.806   1.670
 3115SOL    HW2 9376   3.768   1.857   1.535
 3116SOL     OW 9377   4.589   0.348   0.195
 3116SOL    HW1 9378   4.648   0.411   0.146
 3116SOL    HW2 9379   4.608   0.254   0.166
 3117SOL     OW 9380   4.274   0.196   0.885
 3117SOL    HW1 9381   4.269   0.191   0.985
 3117SOL    HW2 9382   4.276   0.292   0.856
 3118SOL     OW 9383   4.732   1.456   0.477
 3118SOL    HW1 9384   4.686   1.528   0.425
 3118SOL    HW2 9385   4.728   1.476   0.575
 3119SOL     OW 9386   4.075   1.801   0.853
 3119SOL    HW1 9387   4.125   1.715   0.859
 3119SOL    HW2 9388   4.140   1.878   0.850
 3120SOL     OW 9389   4.951   1.550   1.506
 3120SOL    HW1 9390   4.957   1.473   1.570
 3120SOL    HW2 9391   4.899   1.524   1.426
 3121SOL     OW 9392   4.045   0.943   0.242
 3121SOL    HW1 9393   4.127   0.982   0.200
 3121SOL    HW2 9394   4.018   0.861   0.193
 3122SOL     OW 9395   4.185   1.266   1.727
 3122SOL    HW1 9396   4.135   1.267   1.641
 3122SOL    HW2 9397   4.122   1.248   1.803
 3123SOL     OW 9398   4.835   1.776   0.237
 3123SOL    HW1 9399   4.775   1.714   0.287
 3123SOL    HW2 9400   4.866   1.732   0.152
 3124SOL     OW 9401   3.926   0.285   1.498
 3124SOL    HW1 9402   3.846   0.345   1.485
 3124SOL    HW2 9403   3.916   0.236   1.584
 3125SOL     OW 9404   4.188   1.743   0.323
 3125SOL    HW1 9405   4.221   1.782   0.409
 3125SOL    HW2 9406   4.264   1.736   0.258
 3126SOL     OW 9407   3.973   1.785   1.241
 3126SOL    HW1 9408   4.030   1.720   1.291
 3126SOL    HW2 9409   3.957   1.752   1.148
 3127SOL     OW 9410   4.664   1.698   0.904
 3127SOL    HW1 9411   4.744   1.641   0.925
 3127SOL    HW2 9412   4.615   1.658   0.827
 3128SOL     OW 9413   4.106   0.700   0.480
 3128SOL    HW1 9414   4.151   0.610   0.477
 3128SOL    HW2 9415   4.012   0.689   0.513
 3129SOL     OW 9416   4.338   0.122   0.117
 3129SOL    HW1 9417   4.436   0.100   0.124
 3129SOL    HW2 9418   4.307   0.105   0.024
 3130SOL     OW 9419   4.505   0.264   1.749
 3130SOL    HW1 9420   4.572   0.203   1.792
 3130SOL    HW2 9421   4.432   0.283   1.814
 3131SOL     OW 9422   4.612   1.514   1.195
 3131SOL    HW1 9423   4.589   1.489   1.101
 3131SOL    HW2 9424   4.673   1.445   1.234
 3132SOL     OW 9425   4.527   1.402   0.924
 3132SOL    HW1 9426   4.617   1.416   0.882
 3132SOL    HW2 9427   4.456   1.404   0.853
 3133SOL     OW 9428   4.646   0.503   0.899
 3133SOL    HW1 9429   4.621   0.494   0.803
 3133SOL    HW2 9430   4.694   0.421   0.930
 3134SOL     OW 9431   4.263   0.064   0.512
 3134SOL    HW1 9432   4.182   0.065   0.570
 3134SOL    HW2 9433   4.266   0.147   0.457
 3135SOL     OW 9434   4.021   0.035   0.171
 3135SOL    HW1 9435   4.070   0.119   0.150
 3135SOL    HW2 9436   4.083  -0.030   0.216
 3136SOL     OW 9437   4.659   0.236   0.480
 3136SOL    HW1 9438   4.611   0.277   0.402
 3136SOL    HW2 9439   4.758   0.234   0.461
 3137SOL     OW 9440   4.800   0.683   1.464
 3137SOL    HW1 9441   4.720   0.622   1.467
 3137SOL    HW2 9442   4.881   0.630   1.440
 3138SOL     OW 9443   4.951   1.570   0.793
 3138SOL    HW1 9444   4.972   1.644   0.728
 3138SOL    HW2 9445   5.019   1.570   0.866
 3139SOL     OW 9446   4.183   1.152   0.741
 3139SOL    HW1 9447   4.112   1.125   0.806
 3139SOL    HW2 9448   4.157   1.124   0.648
 3140SOL     OW 9449   4.995   1.797   0.591
 3140SOL    HW1 9450   5.039   1.861   0.527
 3140SOL    HW2 9451   4.945   1.849   0.661
 3141SOL     OW 9452   4.756   0.549   0.016
 3141SOL    HW1 9453   4.715   0.631  -0.023
 3141SOL    HW2 9454   4.820   0.575   0.089
 3142SOL     OW 9455   3.802   0.556   1.386
 3142SOL    HW1 9456   3.894   0.555   1.345
 3142SOL    HW2 9457   3.796   0.630   1.453
 3143SOL     OW 9458   4.285   0.222   1.147
 3143SOL    HW1 9459   4.323   0.138   1.184
 3143SOL    HW2 9460   4.197   0.241   1.191
 3144SOL     OW 9461   4.590   0.454   0.642
 3144SOL    HW1 9462   4.558   0.526   0.580
 3144SOL    HW2 9463   4.614   0.373   0.589
 3145SOL     OW 9464   4.741   0.039   0.753
 3145SOL    HW1 9465   4.669   0.044   0.684
 3145SOL    HW2 9466   4.717  -0.030   0.822
 3146SOL     OW 9467   4.212   1.385   0.174
 3146SOL    HW1 9468   4.125   1.370   0.221
 3146SOL    HW2 9469   4.195   1.411   0.079
 3147SOL     OW 9470   4.251   0.256   0.328
 3147SOL    HW1 9471   4.278   0.197   0.253
 3147SOL    HW2 9472   4.251   0.351   0.297
 3148SOL     OW 9473   4.788   1.347   1.340
 3148SOL    HW1 9474   4.708   1.324   1.395
 3148SOL    HW2 9475   4.871   1.321   1.389
 3149SOL     OW 9476   4.835   1.195   1.100
 3149SOL    HW1 9477   4.795   1.239   1.181
 3149SOL    HW2 9478   4.794   1.232   1.017
 3150SOL     OW 9479   4.639   0.089   1.402
 3150SOL    HW1 9480   4.664   0.069   1.307
 3150SOL    HW2 9481   4.711   0.145   1.444
 3151SOL     OW 9482   4.704   1.116   1.719
 3151SOL    HW1 9483   4.605   1.122   1.729
 3151SOL    HW2 9484   4.727   1.036   1.663
 3152SOL     OW 9485   4.429   1.050   0.368
 3152SOL    HW1 9486   4.415   1.057   0.467
 3152SOL    HW2 9487   4.513   0.999   0.350
 3153SOL     OW 9488   4.134   0.813   1.251
 3153SOL    HW1 9489   4.220   0.825   1.301
 3153SOL    HW2 9490   4.092   0.726   1.278
 3154SOL     OW 9491   3.788   1.564   1.331
 3154SOL    HW1 9492   3.742   1.646   1.297
 3154SOL    HW2 9493   3.886   1.583   1.340
 3155SOL     OW 9494   4.091   1.100   0.501
 3155SOL    HW1 9495   4.084   1.183   0.445
 3155SOL    HW2 9496   4.095   1.020   0.441
 3156SOL     OW 9497   4.290   0.537   0.865
 3156SOL    HW1 9498   4.302   0.603   0.791
 3156SOL    HW2 9499   4.336   0.571   0.948
 3157SOL     OW 9500   4.976   1.348   0.388
 3157SOL    HW1 9501   5.026   1.425   0.428
 3157SOL    HW2 9502   4.881   1.350   0.420
 3158SOL     OW 9503   4.078   1.510   1.329
 3158SOL    HW1 9504   4.057   1.466   1.242
 3158SOL    HW2 9505   4.175   1.536   1.332
 3159SOL     OW 9506   4.126   0.751   1.598
 3159SOL    HW1 9507   4.194   0.806   1.551
 3159SOL    HW2 9508   4.166   0.663   1.625
 3160SOL     OW 9509   4.737   0.105   1.770
 3160SOL    HW1 9510   4.743   0.190   1.718
 3160SOL    HW2 9511   4.769   0.029   1.713
 3161SOL     OW 9512   4.228   0.050   1.740
 3161SOL    HW1 9513   4.186  -0.007   1.670
 3161SOL    HW2 9514   4.162   0.119   1.772
 3162SOL     OW 9515   4.297   0.870   1.029
 3162SOL    HW1 9516   4.341   0.959   1.020
 3162SOL    HW2 9517   4.234   0.870   1.106
 3163SOL     OW 9518   5.084   0.862   1.045
 3163SOL    HW1 9519   5.009   0.862   0.979
 3163SOL    HW2 9520   5.121   0.770   1.054
 3164SOL     OW 9521   4.933   0.525   0.275
 3164SOL    HW1 9522   4.946   0.441   0.329
 3164SOL    HW2 9523   4.904   0.599   0.335
 3165SOL     OW 9524   4.031   0.213   1.231
 3165SOL    HW1 9525   4.008   0.250   1.321
 3165SOL    HW2 9526   4.001   0.118   1.225
 3166SOL     OW 9527   3.761   1.310   1.282
 3166SOL    HW1 9528   3.814   1.261   1.350
 3166SOL    HW2 9529   3.783   1.408   1.287
 3167SOL     OW 9530   4.456   0.634   1.064
 3167SOL    HW1 9531   4.515   0.608   0.988
 3167SOL    HW2 9532   4.428   0.730   1.053
 3168SOL     OW 9533   4.031   0.063   0.618
 3168SOL    HW1 9534   4.020   0.157   0.651
 3168SOL    HW2 9535   4.026   0.000   0.695
 3169SOL     OW 9536   5.346   0.367   0.374
 3169SOL    HW1 9537   5.348   0.291   0.438
 3169SOL    HW2 9538   5.298   0.444   0.414
 3170SOL     OW 9539   4.747   0.766   0.966
 3170SOL    HW1 9540   4.762   0.787   1.062
 3170SOL    HW2 9541   4.717   0.671   0.957
 3171SOL     OW 9542   4.704   1.573   1.700
 3171SOL    HW1 9543   4.684   1.617   1.612
 3171SOL    HW2 9544   4.743   1.482   1.684
 3172SOL     OW 9545   4.074   0.898   1.804
 3172SOL    HW1 9546   4.150   0.942   1.852
 3172SOL    HW2 9547   4.109   0.851   1.722
 3173SOL     OW 9548   4.792   1.333   0.849
 3173SOL    HW1 9549   4.799   1.249   0.794
 3173SOL    HW2 9550   4.854   1.402   0.813
 3174SOL     OW 9551   4.043   0.810   0.949
 3174SOL    HW1 9552   4.136   0.846   0.954
 3174SOL    HW2 9553   4.037   0.725   1.001
 3175SOL     OW 9554   4.063   0.509   1.006
 3175SOL    HW1 9555   4.011   0.426   0.989
 3175SOL    HW2 9556   4.140   0.514   0.942
 3176SOL     OW 9557   4.862   0.380   1.678
 3176SOL    HW1 9558   4.817   0.443   1.742
 3176SOL    HW2 9559   4.955   0.411   1.661
 3177SOL     OW 9560   4.884   0.207   1.477
 3177SOL    HW1 9561   4.884   0.271   1.554
 3177SOL    HW2 9562   4.912   0.255   1.394
 3178SOL     OW 9563   3.812   1.801   0.927
 3178SOL    HW1 9564   3.770   1.715   0.900
 3178SOL    HW2 9565   3.906   1.804   0.893
 3179SOL     OW 9566   4.228   1.568   0.910
 3179SOL    HW1 9567   4.294   1.642   0.919
 3179SOL    HW2 9568   4.272   1.489   0.868
 3180SOL     OW 9569   4.726   0.796   1.238
 3180SOL    HW1 9570   4.767   0.764   1.324
 3180SOL    HW2 9571   4.630   0.769   1.235
 3181SOL     OW 9572   3.764   0.544   1.114
 3181SOL    HW1 9573   3.849   0.511   1.073
 3181SOL    HW2 9574   3.777   0.559   1.212
 3182SOL     OW 9575   3.913   0.520   1.722
 3182SOL    HW1 9576   3.972   0.480   1.652
 3182SOL    HW2 9577   3.855   0.591   1.681
 3183SOL     OW 9578   4.539   0.572   0.325
 3183SOL    HW1 9579   4.546   0.483   0.279
 3183SOL    HW2 9580   4.445   0.606   0.317
 3184SOL     OW 9581   3.976   1.564   1.744
 3184SOL    HW1 9582   3.946   1.621   1.820
 3184SOL    HW2 9583   3.969   1.467   1.770
 3185SOL     OW 9584   4.395   0.464   1.269
 3185SOL    HW1 9585   4.361   0.375   1.239
 3185SOL    HW2 9586   4.421   0.518   1.189
 3186SOL     OW 9587   4.654   1.678   1.465
 3186SOL    HW1 9588   4.630   1.660   1.370
 3186SOL    HW2 9589   4.684   1.772   1.475
 3187SOL     OW 9590   4.197   0.500   0.191
 3187SOL    HW1 9591   4.258   0.580   0.195
 3187SOL    HW2 9592   4.102   0.531   0.198
 3188SOL     OW 9593   3.883   1.137   1.466
 3188SOL    HW1 9594   3.905   1.076   1.542
 3188SOL    HW2 9595   3.893   1.088   1.380
 3189SOL     OW 9596   5.071   1.059   1.234
 3189SOL    HW1 9597   5.095   0.996   1.160
 3189SOL    HW2 9598   4.981   1.099   1.216
 3190SOL     OW 9599   4.976   1.731   1.128
 3190SOL    HW1 9600   5.060   1.736   1.074
 3190SOL    HW2 9601   4.953   1.635   1.146
 3191SOL     OW 9602   3.807   1.258   1.022
 3191SOL    HW1 9603   3.802   1.257   1.122
 3191SOL    HW2 9604   3.724   1.217   0.984
 3192SOL     OW 9605   4.412   1.662   1.716
 3192SOL    HW1 9606   4.356   1.743   1.725
 3192SOL    HW2 9607   4.464   1.666   1.630
 3193SOL     OW 9608   4.627   0.086   0.133
 3193SOL    HW1 9609   4.678   0.087   0.047
 3193SOL    HW2 9610   4.683   0.044   0.204
 3194SOL     OW 9611   5.112   1.573   0.477
 3194SOL    HW1 9612   5.179   1.585   0.403
 3194SOL    HW2 9613   5.072   1.662   0.500
 3195SOL     OW 9614   3.854   1.794   1.851
 3195SOL    HW1 9615   3.813   1.720   1.904
 3195SOL    HW2 9616   3.918   1.845   1.909
 3196SOL     OW 9617   4.554   1.273   1.422
 3196SOL    HW1 9618   4.549   1.306   1.517
 3196SOL    HW2 9619   4.468   1.292   1.376
 3197SOL     OW 9620   4.396   1.616   0.154
 3197SOL    HW1 9621   4.405   1.626   0.055
 3197SOL    HW2 9622   4.356   1.527   0.175
 3198SOL     OW 9623   3.987   0.326   0.720
 3198SOL    HW1 9624   3.908   0.377   0.686
 3198SOL    HW2 9625   3.978   0.311   0.818
 3199SOL     OW 9626   4.918   1.612   0.031
 3199SOL    HW1 9627   4.924   1.519   0.068
 3199SOL    HW2 9628   4.859   1.612  -0.049
 3200SOL     OW 9629   4.546   1.002   1.372
 3200SOL    HW1 9630   4.586   1.001   1.280
 3200SOL    HW2 9631   4.556   1.094   1.412
 3201SOL     OW 9632   4.640   0.910   0.291
 3201SOL    HW1 9633   4.703   0.948   0.223
 3201SOL    HW2 9634   4.680   0.827   0.330
 3202SOL     OW 9635   4.096   1.288   1.490
 3202SOL    HW1 9636   4.083   1.381   1.456
 3202SOL    HW2 9637   4.012   1.236   1.477
 3203SOL     OW 9638   4.763   1.098   0.696
 3203SOL    HW1 9639   4.693   1.051   0.750
 3203SOL    HW2 9640   4.822   1.030   0.653
 3204SOL     OW 9641   4.738   0.236   0.971
 3204SOL    HW1 9642   4.730   0.200   0.878
 3204SOL    HW2 9643   4.736   0.160   1.036
 3205SOL     OW 9644   4.314   1.487   0.491
 3205SOL    HW1 9645   4.356   1.429   0.421
 3205SOL    HW2 9646   4.270   1.566   0.447
 3206SOL     OW 9647   3.979   1.348   0.290
 3206SOL    HW1 9648   3.883   1.349   0.263
 3206SOL    HW2 9649   3.991   1.401   0.374
 3207SOL     OW 9650   3.829   1.013   1.726
 3207SOL    HW1 9651   3.752   0.980   1.780
 3207SOL    HW2 9652   3.914   0.983   1.768
 3208SOL     OW 9653   4.396   0.203   1.489
 3208SOL    HW1 9654   4.486   0.187   1.449
 3208SOL    HW2 9655   4.404   0.208   1.588
 3209SOL     OW 9656   3.796   0.166   0.318
 3209SOL    HW1 9657   3.779   0.249   0.264
 3209SOL    HW2 9658   3.886   0.129   0.296
 3210SOL     OW 9659   4.337   0.842   1.431
 3210SOL    HW1 9660   4.393   0.923   1.414
 3210SOL    HW2 9661   4.396   0.762   1.434
 3211SOL     OW 9662   4.440   0.565   1.708
 3211SOL    HW1 9663   4.459   0.630   1.782
 3211SOL    HW2 9664   4.500   0.485   1.717
 3212SOL     OW 9665   4.114   1.741   1.560
 3212SOL    HW1 9666   4.023   1.782   1.558
 3212SOL    HW2 9667   4.107   1.647   1.592
 3213SOL     OW 9668   4.318   0.745   0.652
 3213SOL    HW1 9669   4.368   0.830   0.633
 3213SOL    HW2 9670   4.230   0.747   0.604
 3214SOL     OW 9671   4.583   1.374   0.016
 3214SOL    HW1 9672   4.537   1.389   0.104
 3214SOL    HW2 9673   4.627   1.459  -0.014
 3215SOL     OW 9674   4.385   1.790   0.953
 3215SOL    HW1 9675   4.339   1.878   0.940
 3215SOL    HW2 9676   4.484   1.802   0.946
 3216SOL     OW 9677   4.583   0.956   0.861
 3216SOL    HW1 9678   4.637   0.887   0.909
 3216SOL    HW2 9679   4.551   1.025   0.927
 3217SOL     OW 9680   4.807   0.984   0.087
 3217SOL    HW1 9681   4.784   1.037   0.005
 3217SOL    HW2 9682   4.888   0.928   0.068
 3218SOL     OW 9683   3.945   1.314   1.844
 3218SOL    HW1 9684   3.880   1.241   1.823
 3218SOL    HW2 9685   3.949   1.328   1.942
 3219SOL     OW 9686   3.803   1.240   0.653
 3219SOL    HW1 9687   3.802   1.193   0.741
 3219SOL    HW2 9688   3.885   1.212   0.602
 3220SOL     OW 9689   4.396   1.391   1.624
 3220SOL    HW1 9690   4.318   1.341   1.662
 3220SOL    HW2 9691   4.393   1.486   1.655
 3221SOL     OW 9692   4.152   0.424   0.520
 3221SOL    HW1 9693   4.182   0.352   0.458
 3221SOL    HW2 9694   4.113   0.384   0.603
 3222SOL     OW 9695   4.041   0.547   1.280
 3222SOL    HW1 9696   4.079   0.488   1.352
 3222SOL    HW2 9697   4.081   0.521   1.192
 3223SOL     OW 9698   4.536   1.586   0.687
 3223SOL    HW1 9699   4.568   1.596   0.593
 3223SOL    HW2 9700   4.457   1.524   0.689
 3224SOL     OW 9701   4.725   0.034   1.154
 3224SOL    HW1 9702   4.662  -0.038   1.123
 3224SOL    HW2 9703   4.818  -0.002   1.154
 3225SOL     OW 9704   4.494   1.330   0.301
 3225SOL    HW1 9705   4.448   1.243   0.318
 3225SOL    HW2 9706   4.585   1.327   0.342
 3226SOL     OW 9707   4.342   1.567   1.284
 3226SOL    HW1 9708   4.337   1.649   1.341
 3226SOL    HW2 9709   4.431   1.564   1.239
 3227SOL     OW 9710   3.763   1.077   0.300
 3227SOL    HW1 9711   3.862   1.066   0.291
 3227SOL    HW2 9712   3.723   0.991   0.332
 3228SOL     OW 9713   4.599   1.646   0.337
 3228SOL    HW1 9714   4.522   1.611   0.283
 3228SOL    HW2 9715   4.567   1.717   0.399
 3229SOL     OW 9716   3.954   0.628   1.975
 3229SOL    HW1 9717   3.861   0.626   2.012
 3229SOL    HW2 9718   3.955   0.589   1.883
 3230SOL     OW 9719   3.949   0.275   2.858
 3230SOL    HW1 9720   3.984   0.258   2.950
 3230SOL    HW2 9721   3.861   0.230   2.846
 3231SOL     OW 9722   3.743   0.368   2.509
 3231SOL    HW1 9723   3.661   0.411   2.548
 3231SOL    HW2 9724   3.715   0.295   2.446
 3232SOL     OW 9725   4.293   1.275   3.027
 3232SOL    HW1 9726   4.200   1.268   2.990
 3232SOL    HW2 9727   4.304   1.364   3.071
 3233SOL     OW 9728   4.859   0.703   2.579
 3233SOL    HW1 9729   4.916   0.781   2.554
 3233SOL    HW2 9730   4.799   0.729   2.655
 3234SOL     OW 9731   4.492   1.144   2.885
 3234SOL    HW1 9732   4.414   1.161   2.945
 3234SOL    HW2 9733   4.526   1.231   2.849
 3235SOL     OW 9734   4.574   0.798   3.685
 3235SOL    HW1 9735   4.570   0.874   3.750
 3235SOL    HW2 9736   4.596   0.834   3.594
 3236SOL     OW 9737   4.409   1.012   2.527
 3236SOL    HW1 9738   4.478   0.996   2.597
 3236SOL    HW2 9739   4.336   1.069   2.565
 3237SOL     OW 9740   4.410   1.161   3.665
 3237SOL    HW1 9741   4.470   1.240   3.679
 3237SOL    HW2 9742   4.324   1.192   3.624
 3238SOL     OW 9743   4.059   1.435   2.923
 3238SOL    HW1 9744   3.981   1.404   2.870
 3238SOL    HW2 9745   4.117   1.493   2.866
 3239SOL     OW 9746   4.162   0.392   3.361
 3239SOL    HW1 9747   4.244   0.336   3.370
 3239SOL    HW2 9748   4.081   0.334   3.365
 3240SOL     OW 9749   3.955   1.713   2.345
 3240SOL    HW1 9750   3.989   1.790   2.399
 3240SOL    HW2 9751   3.999   1.713   2.255
 3241SOL     OW 9752   4.851   1.341   3.552
 3241SOL    HW1 9753   4.898   1.341   3.640
 3241SOL    HW2 9754   4.803   1.254   3.541
 3242SOL     OW 9755   3.954   1.434   2.400
 3242SOL    HW1 9756   3.928   1.530   2.400
 3242SOL    HW2 9757   3.883   1.380   2.445
 3243SOL     OW 9758   3.964   1.091   2.748
 3243SOL    HW1 9759   3.978   1.007   2.800
 3243SOL    HW2 9760   3.909   1.155   2.803
 3244SOL     OW 9761   4.344   1.786   3.301
 3244SOL    HW1 9762   4.252   1.769   3.336
 3244SOL    HW2 9763   4.372   1.878   3.327
 3245SOL     OW 9764   4.330   0.964   1.985
 3245SOL    HW1 9765   4.337   1.048   1.931
 3245SOL    HW2 9766   4.376   0.977   2.073
 3246SOL     OW 9767   3.846   0.643   2.425
 3246SOL    HW1 9768   3.801   0.555   2.442
 3246SOL    HW2 9769   3.845   0.697   2.509
 3247SOL     OW 9770   3.751   1.596   1.979
 3247SOL    HW1 9771   3.732   1.500   2.000
 3247SOL    HW2 9772   3.718   1.654   2.054
 3248SOL     OW 9773   3.837   0.737   3.459
 3248SOL    HW1 9774   3.925   0.724   3.504
 3248SOL    HW2 9775   3.824   0.834   3.437
 3249SOL     OW 9776   4.337   1.365   2.588
 3249SOL    HW1 9777   4.288   1.278   2.597
 3249SOL    HW2 9778   4.314   1.408   2.501
 3250SOL     OW 9779   4.533   0.004   2.364
 3250SOL    HW1 9780   4.573   0.095   2.355
 3250SOL    HW2 9781   4.433   0.012   2.370
 3251SOL     OW 9782   3.921   0.976   3.126
 3251SOL    HW1 9783   4.010   0.931   3.112
 3251SOL    HW2 9784   3.848   0.911   3.107
 3252SOL     OW 9785   4.911   1.792   3.478
 3252SOL    HW1 9786   4.935   1.852   3.402
 3252SOL    HW2 9787   4.918   1.697   3.448
 3253SOL     OW 9788   4.041   0.251   3.663
 3253SOL    HW1 9789   4.112   0.322   3.669
 3253SOL    HW2 9790   3.953   0.290   3.691
 3254SOL     OW 9791   4.322   0.729   2.132
 3254SOL    HW1 9792   4.346   0.798   2.064
 3254SOL    HW2 9793   4.244   0.762   2.186
 3255SOL     OW 9794   4.531   0.605   3.327
 3255SOL    HW1 9795   4.484   0.602   3.416
 3255SOL    HW2 9796   4.480   0.550   3.261
 3256SOL     OW 9797   4.697   0.890   3.434
 3256SOL    HW1 9798   4.743   0.806   3.405
 3256SOL    HW2 9799   4.641   0.924   3.359
 3257SOL     OW 9800   4.715   0.410   3.104
 3257SOL    HW1 9801   4.638   0.444   3.158
 3257SOL    HW2 9802   4.681   0.359   3.025
 3258SOL     OW 9803   4.765   0.701   2.291
 3258SOL    HW1 9804   4.791   0.697   2.387
 3258SOL    HW2 9805   4.680   0.650   2.277
 3259SOL     OW 9806   3.800   0.811   2.651
 3259SOL    HW1 9807   3.899   0.799   2.660
 3259SOL    HW2 9808   3.776   0.906   2.672
 3260SOL     OW 9809   3.854   1.821   3.433
 3260SOL    HW1 9810   3.844   1.806   3.532
 3260SOL    HW2 9811   3.768   1.857   3.397
 3261SOL     OW 9812   4.589   0.348   2.057
 3261SOL    HW1 9813   4.648   0.411   2.008
 3261SOL    HW2 9814   4.608   0.254   2.028
 3262SOL     OW 9815   4.274   0.196   2.747
 3262SOL    HW1 9816   4.269   0.191   2.847
 3262SOL    HW2 9817   4.276   0.292   2.718
 3263SOL     OW 9818   4.732   1.456   2.339
 3263SOL    HW1 9819   4.686   1.528   2.287
 3263SOL    HW2 9820   4.728   1.476   2.437
 3264SOL     OW 9821   4.075   1.801   2.715
 3264SOL    HW1 9822   4.125   1.715   2.721
 3264SOL    HW2 9823   4.140   1.878   2.712
 3265SOL     OW 9824   4.951   1.550   3.368
 3265SOL    HW1 9825   4.957   1.473   3.432
 3265SOL    HW2 9826   4.899   1.524   3.288
 3266SOL     OW 9827   4.045   0.943   2.104
 3266SOL    HW1 9828   4.127   0.982   2.062
 3266SOL    HW2 9829   4.018   0.861   2.055
 3267SOL     OW 9830   4.185   1.266   3.589
 3267SOL    HW1 9831   4.135   1.267   3.503
 3267SOL    HW2 9832   4.122   1.248   3.665
 3268SOL     OW 9833   4.835   1.776   2.099
 3268SOL    HW1 9834   4.775   1.714   2.149
 3268SOL    HW2 9835   4.866   1.732   2.014
 3269SOL     OW 9836   3.926   0.285   3.360
 3269SOL    HW1 9837   3.846   0.345   3.347
 3269SOL    HW2 9838   3.916   0.236   3.446
 3270SOL     OW 9839   4.188   1.743   2.185
 3270SOL    HW1 9840   4.221   1.782   2.271
 3270SOL    HW2 9841   4.264   1.736   2.120
 3271SOL     OW 9842   3.973   1.785   3.103
 3271SOL    HW1 9843   4.030   1.720   3.153
 3271SOL    HW2 9844   3.957   1.752   3.010
 3272SOL     OW 9845   4.664   1.698   2.766
 3272SOL    HW1 9846   4.744   1.641   2.787
 3272SOL    HW2 9847   4.615   1.658   2.689
 3273SOL     OW 9848   4.106   0.700   2.342
 3273SOL    HW1 9849   4.151   0.610   2.339
 3273SOL    HW2 9850   4.012   0.689   2.375
 3274SOL     OW 9851   4.338   0.122   1.979
 3274SOL    HW1 9852   4.436   0.100   1.986
 3274SOL    HW2 9853   4.307   0.105   1.886
 3275SOL     OW 9854   4.505   0.264   3.611
 3275SOL    HW1 9855   4.572   0.203   3.654
 3275SOL    HW2 9856   4.432   0.283   3.676
 3276SOL     OW 9857   4.612   1.514   3.057
 3276SOL    HW1 9858   4.589   1.489   2.963
 3276SOL    HW2 9859   4.673   1.445   3.096
 3277SOL     OW 9860   4.527   1.402   2.786
 3277SOL    HW1 9861   4.617   1.416   2.744
 3277SOL    HW2 9862   4.456   1.404   2.715
 3278SOL     OW 9863   4.646   0.503   2.761
 3278SOL    HW1 9864   4.621   0.494   2.665
 3278SOL    HW2 9865   4.694   0.421   2.792
 3279SOL     OW 9866   4.263   0.064   2.374
 3279SOL    HW1 9867   4.182   0.065   2.432
 3279SOL    HW2 9868   4.266   0.147   2.319
 3280SOL     OW 9869   4.021   0.035   2.033
 3280SOL    HW1 9870   4.070   0.119   2.012
 3280SOL    HW2 9871   4.083  -0.030   2.078
 3281SOL     OW 9872   4.659   0.236   2.342
 3281SOL    HW1 9873   4.611   0.277   2.264
 3281SOL    HW2 9874   4.758   0.234   2.323
 3282SOL     OW 9875   4.800   0.683   3.326
 3282SOL    HW1 9876   4.720   0.622   3.329
 3282SOL    HW2 9877   4.881   0.630   3.302
 3283SOL     OW 9878   4.951   1.570   2.655
 3283SOL    HW1 9879   4.972   1.644   2.590
 3283SOL    HW2 9880   5.019   1.570   2.728
 3284SOL     OW 9881   4.183   1.152   2.603
 3284SOL    HW1 9882   4.112   1.125   2.668
 3284SOL    HW2 9883   4.157   1.124   2.510
 3285SOL     OW 9884   4.995   1.797   2.453
 3285SOL    HW1 9885   5.039   1.861   2.389
 3285SOL    HW2 9886   4.945   1.849   2.523
 3286SOL     OW 9887   4.756   0.549   1.878
 3286SOL    HW1 9888   4.715   0.631   1.839
 3286SOL    HW2 9889   4.820   0.575   1.951
 3287SOL     OW 9890   3.802   0.556   3.248
 3287SOL    HW1 9891   3.894   0.555   3.207
 3287SOL    HW2 9892   3.796   0.630   3.315
 3288SOL     OW 9893   4.285   0.222   3.009
 3288SOL    HW1 9894   4.323   0.138   3.046
 3288SOL    HW2 9895   4.197   0.241   3.053
 3289SOL     OW 9896   4.590   0.454   2.504
 3289SOL    HW1 9897   4.558   0.526   2.442
 3289SOL    HW2 9898   4.614   0.373   2.451
 3290SOL     OW 9899   4.741   0.039   2.615
 3290SOL    HW1 9900   4.669   0.044   2.546
 3290SOL    HW2 9901   4.717  -0.030   2.684
 3291SOL     OW 9902   4.212   1.385   2.036
 3291SOL    HW1 9903   4.125   1.370   2.083
 3291SOL    HW2 9904   4.195   1.411   1.941
 3292SOL     OW 9905   4.251   0.256   2.190
 3292SOL    HW1 9906   4.278   0.197   2.115
 3292SOL    HW2 9907   4.251   0.351   2.159
 3293SOL     OW 9908   4.788   1.347   3.202
 3293SOL    HW1 9909   4.708   1.324   3.257
 3293SOL    HW2 9910   4.871   1.321   3.251
 3294SOL     OW 9911   4.835   1.195   2.962
 3294SOL    HW1 9912   4.795   1.239   3.043
 3294SOL    HW2 9913   4.794   1.232   2.879
 3295SOL     OW 9914   4.639   0.089   3.264
 3295SOL    HW1 9915   4.664   0.069   3.169
 3295SOL    HW2 9916   4.711   0.145   3.306
 3296SOL     OW 9917   4.704   1.116   3.581
 3296SOL    HW1 9918   4.605   1.122   3.591
 3296SOL    HW2 9919   4.727   1.036   3.525
 3297SOL     OW 9920   4.429   1.050   2.230
 3297SOL    HW1 9921   4.415   1.057   2.329
 3297SOL    HW2 9922   4.513   0.999   2.212
 3298SOL     OW 9923   4.134   0.813   3.113
 3298SOL    HW1 9924   4.220   0.825   3.163
 3298SOL    HW2 9925   4.092   0.726   3.140
 3299SOL     OW 9926   3.788   1.564   3.193
 3299SOL    HW1 9927   3.742   1.646   3.159
 3299SOL    HW2 9928   3.886   1.583   3.202
 3300SOL     OW 9929   4.091   1.100   2.363
 3300SOL    HW1 9930   4.084   1.183   2.307
 3300SOL    HW2 9931   4.095   1.020   2.303
 3301SOL     OW 9932   4.290   0.537   2.727
 3301SOL    HW1 9933   4.302   0.603   2.653
 3301SOL    HW2 9934   4.336   0.571   2.810
 3302SOL     OW 9935   4.976   1.348   2.250
 3302SOL    HW1 9936   5.026   1.425   2.290
 3302SOL    HW2 9937   4.881   1.350   2.282
 3303SOL     OW 9938   4.078   1.510   3.191
 3303SOL    HW1 9939   4.057   1.466   3.104
 3303SOL    HW2 9940   4.175   1.536   3.194
 3304SOL     OW 9941   4.126   0.751   3.460
 3304SOL    HW1 9942   4.194   0.806   3.413
 3304SOL    HW2 9943   4.166   0.663   3.487
 3305SOL     OW 9944   4.737   0.105   3.632
 3305SOL    HW1 9945   4.743   0.190   3.580
 3305SOL    HW2 9946   4.769   0.029   3.575
 3306SOL     OW 9947   4.228   0.050   3.602
 3306SOL    HW1 9948   4.186  -0.007   3.532
 3306SOL    HW2 9949   4.162   0.119   3.634
 3307SOL     OW 9950   4.297   0.870   2.891
 3307SOL    HW1 9951   4.341   0.959   2.882
 3307SOL    HW2 9952   4.234   0.870   2.968
 3308SOL     OW 9953   5.084   0.862   2.907
 3308SOL    HW1 9954   5.009   0.862   2.841
 3308SOL    HW2 9955   5.121   0.770   2.916
 3309SOL     OW 9956   4.933   0.525   2.137
 3309SOL    HW1 9957   4.946   0.441   2.191
 3309SOL    HW2 9958   4.904   0.599   2.197
 3310SOL     OW 9959   4.031   0.213   3.093
 3310SOL    HW1 9960   4.008   0.250   3.183
 3310SOL    HW2 9961   4.001   0.118   3.087
 3311SOL     OW 9962   3.761   1.310   3.144
 3311SOL    HW1 9963   3.814   1.261   3.212
 3311SOL    HW2 9964   3.783   1.408   3.149
 3312SOL     OW 9965   4.456   0.634   2.926
 3312SOL    HW1 9966   4.515   0.608   2.850
 3312SOL    HW2 9967   4.428   0.730   2.915
 3313SOL     OW 9968   4.031   0.063   2.480
 3313SOL    HW1 9969   4.020   0.157   2.513
 3313SOL    HW2 9970   4.026   0.000   2.557
 3314SOL     OW 9971   5.346   0.367   2.236
 3314SOL    HW1 9972   5.348   0.291   2.300
 3314SOL    HW2 9973   5.298   0.444   2.276
 3315SOL     OW 9974   4.747   0.766   2.828
 3315SOL    HW1 9975   4.762   0.787   2.924
 3315SOL    HW2 9976   4.717   0.671   2.819
 3316SOL     OW 9977   4.704   1.573   3.562
 3316SOL    HW1 9978   4.684   1.617   3.474
 3316SOL    HW2 9979   4.743   1.482   3.546
 3317SOL     OW 9980   4.074   0.898   3.666
 3317SOL    HW1 9981   4.150   0.942   3.714
 3317SOL    HW2 9982   4.109   0.851   3.584
 3318SOL     OW 9983   5.264   0.274   1.987
 3318SOL    HW1 9984   5.203   0.199   2.010
 3318SOL    HW2 9985   5.286   0.326   2.070
 3319SOL     OW 9986   4.792   1.333   2.711
 3319SOL    HW1 9987   4.799   1.249   2.656
 3319SOL    HW2 9988   4.854   1.402   2.675
 3320SOL     OW 9989   4.043   0.810   2.811
 3320SOL    HW1 9990   4.136   0.846   2.816
 3320SOL    HW2 9991   4.037   0.725   2.863
 3321SOL     OW 9992   4.063   0.509   2.868
 3321SOL    HW1 9993   4.011   0.426   2.851
 3321SOL    HW2 9994   4.140   0.514   2.804
 3322SOL     OW 9995   4.862   0.380   3.540
 3322SOL    HW1 9996   4.817   0.443   3.604
 3322SOL    HW2 9997   4.955   0.411   3.523
 3323SOL     OW 9998   4.884   0.207   3.339
 3323SOL    HW1 9999   4.884   0.271   3.416
 3323SOL    HW210000   4.912   0.255   3.256
 3324SOL     OW10001   3.732   1.326   2.062
 3324SOL    HW110002   3.639   1.347   2.031
 3324SOL    HW210003   3.742   1.227   2.075
 3325SOL     OW10004   3.812   1.801   2.789
 3325SOL    HW110005   3.770   1.715   2.762
 3325SOL    HW210006   3.906   1.804   2.755
 3326SOL     OW10007   4.228   1.568   2.772
 3326SOL    HW110008   4.294   1.642   2.781
 3326SOL    HW210009   4.272   1.489   2.730
 3327SOL     OW10010   4.726   0.796   3.100
 3327SOL    HW110011   4.767   0.764   3.186
 3327SOL    HW210012   4.630   0.769   3.097
 3328SOL     OW10013   3.764   0.544   2.976
 3328SOL    HW110014   3.849   0.511   2.935
 3328SOL    HW210015   3.777   0.559   3.074
 3329SOL     OW10016   3.913   0.520   3.584
 3329SOL    HW110017   3.972   0.480   3.514
 3329SOL    HW210018   3.855   0.591   3.543
 3330SOL     OW10019   4.539   0.572   2.187
 3330SOL    HW110020   4.546   0.483   2.141
 3330SOL    HW210021   4.445   0.606   2.179
 3331SOL     OW10022   3.976   1.564   3.606
 3331SOL    HW110023   3.946   1.621   3.682
 3331SOL    HW210024   3.969   1.467   3.632
 3332SOL     OW10025   4.395   0.464   3.131
 3332SOL    HW110026   4.361   0.375   3.101
 3332SOL    HW210027   4.421   0.518   3.051
 3333SOL     OW10028   4.654   1.678   3.327
 3333SOL    HW110029   4.630   1.660   3.232
 3333SOL    HW210030   4.684   1.772   3.337
 3334SOL     OW10031   4.197   0.500   2.053
 3334SOL    HW110032   4.258   0.580   2.057
 3334SOL    HW210033   4.102   0.531   2.060
 3335SOL     OW10034   3.883   1.137   3.328
 3335SOL    HW110035   3.905   1.076   3.404
 3335SOL    HW210036   3.893   1.088   3.242
 3336SOL     OW10037   5.071   1.059   3.096
 3336SOL    HW110038   5.095   0.996   3.022
 3336SOL    HW210039   4.981   1.099   3.078
 3337SOL     OW10040   4.976   1.731   2.990
 3337SOL    HW110041   5.060   1.736   2.936
 3337SOL    HW210042   4.953   1.635   3.008
 3338SOL     OW10043   3.807   1.258   2.884
 3338SOL    HW110044   3.802   1.257   2.984
 3338SOL    HW210045   3.724   1.217   2.846
 3339SOL     OW10046   4.412   1.662   3.578
 3339SOL    HW110047   4.356   1.743   3.587
 3339SOL    HW210048   4.464   1.666   3.492
 3340SOL     OW10049   5.112   1.573   2.339
 3340SOL    HW110050   5.179   1.585   2.265
 3340SOL    HW210051   5.072   1.662   2.362
 3341SOL     OW10052   3.854   1.794   3.713
 3341SOL    HW110053   3.813   1.720   3.766
 3341SOL    HW210054   3.918   1.845   3.771
 3342SOL     OW10055   4.554   1.273   3.284
 3342SOL    HW110056   4.549   1.306   3.379
 3342SOL    HW210057   4.468   1.292   3.238
 3343SOL     OW10058   4.396   1.616   2.016
 3343SOL    HW110059   4.405   1.626   1.917
 3343SOL    HW210060   4.356   1.527   2.037
 3344SOL     OW10061   3.987   0.326   2.582
 3344SOL    HW110062   3.908   0.377   2.548
 3344SOL    HW210063   3.978   0.311   2.680
 3345SOL     OW10064   4.918   1.612   1.893
 3345SOL    HW110065   4.924   1.519   1.930
 3345SOL    HW210066   4.859   1.612   1.813
 3346SOL     OW10067   4.546   1.002   3.234
 3346SOL    HW110068   4.586   1.001   3.142
 3346SOL    HW210069   4.556   1.094   3.274
 3347SOL     OW10070   4.640   0.910   2.153
 3347SOL    HW110071   4.703   0.948   2.085
 3347SOL    HW210072   4.680   0.827   2.192
 3348SOL     OW10073   4.096   1.288   3.352
 3348SOL    HW110074   4.083   1.381   3.318
 3348SOL    HW210075   4.012   1.236   3.339
 3349SOL     OW10076   4.763   1.098   2.558
 3349SOL    HW110077   4.693   1.051   2.612
 3349SOL    HW210078   4.822   1.030   2.515
 3350SOL     OW10079   4.738   0.236   2.833
 3350SOL    HW110080   4.730   0.200   2.740
 3350SOL    HW210081   4.736   0.160   2.898
 3351SOL     OW10082   4.314   1.487   2.353
 3351SOL    HW110083   4.356   1.429   2.283
 3351SOL    HW210084   4.270   1.566   2.309
 3352SOL     OW10085   3.979   1.348   2.152
 3352SOL    HW110086   3.883   1.349   2.125
 3352SOL    HW210087   3.991   1.401   2.236
 3353SOL     OW10088   3.829   1.013   3.588
 3353SOL    HW110089   3.752   0.980   3.642
 3353SOL    HW210090   3.914   0.983   3.630
 3354SOL     OW10091   4.396   0.203   3.351
 3354SOL    HW110092   4.486   0.187   3.311
 3354SOL    HW210093   4.404   0.208   3.450
 3355SOL     OW10094   3.799   0.345   1.895
 3355SOL    HW110095   3.707   0.317   1.866
 3355SOL    HW210096   3.830   0.422   1.839
 3356SOL     OW10097   3.796   0.166   2.180
 3356SOL    HW110098   3.779   0.249   2.126
 3356SOL    HW210099   3.886   0.129   2.158
 3357SOL     OW10100   4.337   0.842   3.293
 3357SOL    HW110101   4.393   0.923   3.276
 3357SOL    HW210102   4.396   0.762   3.296
 3358SOL     OW10103   4.440   0.565   3.570
 3358SOL    HW110104   4.459   0.630   3.644
 3358SOL    HW210105   4.500   0.485   3.579
 3359SOL     OW10106   4.114   1.741   3.422
 3359SOL    HW110107   4.023   1.782   3.420
 3359SOL    HW210108   4.107   1.647   3.454
 3360SOL     OW10109   4.318   0.745   2.514
 3360SOL    HW110110   4.368   0.830   2.495
 3360SOL    HW210111   4.230   0.747   2.466
 3361SOL     OW10112   4.583   1.374   1.878
 3361SOL    HW110113   4.537   1.389   1.966
 3361SOL    HW210114   4.627   1.459   1.848
 3362SOL     OW10115   4.385   1.790   2.815
 3362SOL    HW110116   4.339   1.878   2.802
 3362SOL    HW210117   4.484   1.802   2.808
 3363SOL     OW10118   4.583   0.956   2.723
 3363SOL    HW110119   4.637   0.887   2.771
 3363SOL    HW210120   4.551   1.025   2.789
 3364SOL     OW10121   4.807   0.984   1.949
 3364SOL    HW110122   4.784   1.037   1.867
 3364SOL    HW210123   4.888   0.928   1.930
 3365SOL     OW10124   3.945   1.314   3.706
 3365SOL    HW110125   3.880   1.241   3.685
 3365SOL    HW210126   3.949   1.328   3.804
 3366SOL     OW10127   3.803   1.240   2.515
 3366SOL    HW110128   3.802   1.193   2.603
 3366SOL    HW210129   3.885   1.212   2.464
 3367SOL     OW10130   4.396   1.391   3.486
 3367SOL    HW110131   4.318   1.341   3.524
 3367SOL    HW210132   4.393   1.486   3.517
 3368SOL     OW10133   4.152   0.424   2.382
 3368SOL    HW110134   4.182   0.352   2.320
 3368SOL    HW210135   4.113   0.384   2.465
 3369SOL     OW10136   4.041   0.547   3.142
 3369SOL    HW110137   4.079   0.488   3.214
 3369SOL    HW210138   4.081   0.521   3.054
 3370SOL     OW10139   4.536   1.586   2.549
 3370SOL    HW110140   4.568   1.596   2.455
 3370SOL    HW210141   4.457   1.524   2.551
 3371SOL     OW10142   4.725   0.034   3.016
 3371SOL    HW110143   4.662  -0.038   2.985
 3371SOL    HW210144   4.818  -0.002   3.016
 3372SOL     OW10145   4.494   1.330   2.163
 3372SOL    HW110146   4.448   1.243   2.180
 3372SOL    HW210147   4.585   1.327   2.204
 3373SOL     OW10148   4.342   1.567   3.146
 3373SOL    HW110149   4.337   1.649   3.203
 3373SOL    HW210150   4.431   1.564   3.101
 3374SOL     OW10151   3.763   1.077   2.162
 3374SOL    HW110152   3.862   1.066   2.153
 3374SOL    HW210153   3.723   0.991   2.194
 3375SOL     OW10154   4.599   1.646   2.199
 3375SOL    HW110155   4.522   1.611   2.145
 3375SOL    HW210156   4.567   1.717   2.261
 3376SOL     OW10157   3.954   0.628   3.837
 3376SOL    HW110158   3.861   0.626   3.874
 3376SOL    HW210159   3.955   0.589   3.745
 3377SOL     OW10160   3.949   0.275   4.720
 3377SOL    HW110161   3.984   0.258   4.812
 3377SOL    HW210162   3.861   0.230   4.708
 3378SOL     OW10163   3.743   0.368   4.371
 3378SOL    HW110164   3.661   0.411   4.410
 3378SOL    HW210165   3.715   0.295   4.308
 3379SOL     OW10166   4.293   1.275   4.889
 3379SOL    HW110167   4.200   1.268   4.852
 3379SOL    HW210168   4.304   1.364   4.933
 3380SOL     OW10169   4.859   0.703   4.441
 3380SOL    HW110170   4.916   0.781   4.416
 3380SOL    HW210171   4.799   0.729   4.517
 3381SOL     OW10172   4.492   1.144   4.747
 3381SOL    HW110173   4.414   1.161   4.807
 3381SOL    HW210174   4.526   1.231   4.711
 3382SOL     OW10175   4.409   1.012   4.389
 3382SOL    HW110176   4.478   0.996   4.459
 3382SOL    HW210177   4.336   1.069   4.427
 3383SOL     OW10178   4.059   1.435   4.785
 3383SOL    HW110179   3.981   1.404   4.732
 3383SOL    HW210180   4.117   1.493   4.728
 3384SOL     OW10181   3.955   1.713   4.207
 3384SOL    HW110182   3.989   1.790   4.261
 3384SOL    HW210183   3.999   1.713   4.117
 3385SOL     OW10184   3.954   1.434   4.262
 3385SOL    HW110185   3.928   1.530   4.262
 3385SOL    HW210186   3.883   1.380   4.307
 3386SOL     OW10187   3.964   1.091   4.610
 3386SOL    HW110188   3.978   1.007   4.662
 3386SOL    HW210189   3.909   1.155   4.665
 3387SOL     OW10190   4.330   0.964   3.847
 3387SOL    HW110191   4.337   1.048   3.793
 3387SOL    HW210192   4.376   0.977   3.935
 3388SOL     OW10193   3.846   0.643   4.287
 3388SOL    HW110194   3.801   0.555   4.304
 3388SOL    HW210195   3.845   0.697   4.371
 3389SOL     OW10196   3.751   1.596   3.841
 3389SOL    HW110197   3.732   1.500   3.862
 3389SOL    HW210198   3.718   1.654   3.916
 3390SOL     OW10199   3.837   0.737   5.321
 3390SOL    HW110200   3.925   0.724   5.366
 3390SOL    HW210201   3.824   0.834   5.299
 3391SOL     OW10202   4.337   1.365   4.450
 3391SOL    HW110203   4.288   1.278   4.459
 3391SOL    HW210204   4.314   1.408   4.363
 3392SOL     OW10205   4.533   0.004   4.226
 3392SOL    HW110206   4.573   0.095   4.217
 3392SOL    HW210207   4.433   0.012   4.232
 3393SOL     OW10208   3.921   0.976   4.988
 3393SOL    HW110209   4.010   0.931   4.974
 3393SOL    HW210210   3.848   0.911   4.969
 3394SOL     OW10211   4.322   0.729   3.994
 3394SOL    HW110212   4.346   0.798   3.926
 3394SOL    HW210213   4.244   0.762   4.048
 3395SOL     OW10214   4.715   0.410   4.966
 3395SOL    HW110215   4.638   0.444   5.020
 3395SOL    HW210216   4.681   0.359   4.887
 3396SOL     OW10217   4.765   0.701   4.153
 3396SOL    HW110218   4.791   0.697   4.249
 3396SOL    HW210219   4.680   0.650   4.139
 3397SOL     OW10220   3.800   0.811   4.513
 3397SOL    HW110221   3.899   0.799   4.522
 3397SOL    HW210222   3.776   0.906   4.534
 3398SOL     OW10223   4.589   0.348   3.919
 3398SOL    HW110224   4.648   0.411   3.870
 3398SOL    HW210225   4.608   0.254   3.890
 3399SOL     OW10226   4.274   0.196   4.609
 3399SOL    HW110227   4.269   0.191   4.709
 3399SOL    HW210228   4.276   0.292   4.580
 3400SOL     OW10229   4.732   1.456   4.201
 3400SOL    HW110230   4.686   1.528   4.149
 3400SOL    HW210231   4.728   1.476   4.299
 3401SOL     OW10232   4.075   1.801   4.577
 3401SOL    HW110233   4.125   1.715   4.583
 3401SOL    HW210234   4.140   1.878   4.574
 3402SOL     OW10235   4.045   0.943   3.966
 3402SOL    HW110236   4.127   0.982   3.924
 3402SOL    HW210237   4.018   0.861   3.917
 3403SOL     OW10238   4.835   1.776   3.961
 3403SOL    HW110239   4.775   1.714   4.011
 3403SOL    HW210240   4.866   1.732   3.876
 3404SOL     OW10241   4.188   1.743   4.047
 3404SOL    HW110242   4.221   1.782   4.133
 3404SOL    HW210243   4.264   1.736   3.982
 3405SOL     OW10244   3.973   1.785   4.965
 3405SOL    HW110245   4.030   1.720   5.015
 3405SOL    HW210246   3.957   1.752   4.872
 3406SOL     OW10247   4.664   1.698   4.628
 3406SOL    HW110248   4.744   1.641   4.649
 3406SOL    HW210249   4.615   1.658   4.551
 3407SOL     OW10250   4.106   0.700   4.204
 3407SOL    HW110251   4.151   0.610   4.201
 3407SOL    HW210252   4.012   0.689   4.237
 3408SOL     OW10253   4.338   0.122   3.841
 3408SOL    HW110254   4.436   0.100   3.848
 3408SOL    HW210255   4.307   0.105   3.748
 3409SOL     OW10256   4.527   1.402   4.648
 3409SOL    HW110257   4.617   1.416   4.606
 3409SOL    HW210258   4.456   1.404   4.577
 3410SOL     OW10259   4.646   0.503   4.623
 3410SOL    HW110260   4.621   0.494   4.527
 3410SOL    HW210261   4.694   0.421   4.654
 3411SOL     OW10262   4.263   0.064   4.236
 3411SOL    HW110263   4.182   0.065   4.294
 3411SOL    HW210264   4.266   0.147   4.181
 3412SOL     OW10265   4.021   0.035   3.895
 3412SOL    HW110266   4.070   0.119   3.874
 3412SOL    HW210267   4.083  -0.030   3.940
 3413SOL     OW10268   4.659   0.236   4.204
 3413SOL    HW110269   4.611   0.277   4.126
 3413SOL    HW210270   4.758   0.234   4.185
 3414SOL     OW10271   4.951   1.570   4.517
 3414SOL    HW110272   4.972   1.644   4.452
 3414SOL    HW210273   5.019   1.570   4.590
 3415SOL     OW10274   4.183   1.152   4.465
 3415SOL    HW110275   4.112   1.125   4.530
 3415SOL    HW210276   4.157   1.124   4.372
 3416SOL     OW10277   4.995   1.797   4.315
 3416SOL    HW110278   5.039   1.861   4.251
 3416SOL    HW210279   4.945   1.849   4.385
 3417SOL     OW10280   4.756   0.549   3.740
 3417SOL    HW110281   4.715   0.631   3.701
 3417SOL    HW210282   4.820   0.575   3.813
 3418SOL     OW10283   4.285   0.222   4.871
 3418SOL    HW110284   4.323   0.138   4.908
 3418SOL    HW210285   4.197   0.241   4.915
 3419SOL     OW10286   4.590   0.454   4.366
 3419SOL    HW110287   4.558   0.526   4.304
 3419SOL    HW210288   4.614   0.373   4.313
 3420SOL     OW10289   4.741   0.039   4.477
 3420SOL    HW110290   4.669   0.044   4.408
 3420SOL    HW210291   4.717  -0.030   4.546
 3421SOL     OW10292   4.212   1.385   3.898
 3421SOL    HW110293   4.125   1.370   3.945
 3421SOL    HW210294   4.195   1.411   3.803
 3422SOL     OW10295   4.251   0.256   4.052
 3422SOL    HW110296   4.278   0.197   3.977
 3422SOL    HW210297   4.251   0.351   4.021
 3423SOL     OW10298   4.835   1.195   4.824
 3423SOL    HW110299   4.795   1.239   4.905
 3423SOL    HW210300   4.794   1.232   4.741
 3424SOL     OW10301   4.429   1.050   4.092
 3424SOL    HW110302   4.415   1.057   4.191
 3424SOL    HW210303   4.513   0.999   4.074
 3425SOL     OW10304   4.134   0.813   4.975
 3425SOL    HW110305   4.220   0.825   5.025
 3425SOL    HW210306   4.092   0.726   5.002
 3426SOL     OW10307   4.091   1.100   4.225
 3426SOL    HW110308   4.084   1.183   4.169
 3426SOL    HW210309   4.095   1.020   4.165
 3427SOL     OW10310   4.290   0.537   4.589
 3427SOL    HW110311   4.302   0.603   4.515
 3427SOL    HW210312   4.336   0.571   4.672
 3428SOL     OW10313   4.976   1.348   4.112
 3428SOL    HW110314   5.026   1.425   4.152
 3428SOL    HW210315   4.881   1.350   4.144
 3429SOL     OW10316   4.078   1.510   5.053
 3429SOL    HW110317   4.057   1.466   4.966
 3429SOL    HW210318   4.175   1.536   5.056
 3430SOL     OW10319   4.297   0.870   4.753
 3430SOL    HW110320   4.341   0.959   4.744
 3430SOL    HW210321   4.234   0.870   4.830
 3431SOL     OW10322   5.084   0.862   4.769
 3431SOL    HW110323   5.009   0.862   4.703
 3431SOL    HW210324   5.121   0.770   4.778
 3432SOL     OW10325   4.933   0.525   3.999
 3432SOL    HW110326   4.946   0.441   4.053
 3432SOL    HW210327   4.904   0.599   4.059
 3433SOL     OW10328   4.031   0.213   4.955
 3433SOL    HW110329   4.008   0.250   5.045
 3433SOL    HW210330   4.001   0.118   4.949
 3434SOL     OW10331   3.761   1.310   5.006
 3434SOL    HW110332   3.814   1.261   5.074
 3434SOL    HW210333   3.783   1.408   5.011
 3435SOL     OW10334   4.456   0.634   4.788
 3435SOL    HW110335   4.515   0.608   4.712
 3435SOL    HW210336   4.428   0.730   4.777
 3436SOL     OW10337   4.031   0.063   4.342
 3436SOL    HW110338   4.020   0.157   4.375
 3436SOL    HW210339   4.026   0.000   4.419
 3437SOL     OW10340   5.346   0.367   4.098
 3437SOL    HW110341   5.348   0.291   4.162
 3437SOL    HW210342   5.298   0.444   4.138
 3438SOL     OW10343   4.747   0.766   4.690
 3438SOL    HW110344   4.762   0.787   4.786
 3438SOL    HW210345   4.717   0.671   4.681
 3439SOL     OW10346   5.264   0.274   3.849
 3439SOL    HW110347   5.203   0.199   3.872
 3439SOL    HW210348   5.286   0.326   3.932
 3440SOL     OW10349   4.792   1.333   4.573
 3440SOL    HW110350   4.799   1.249   4.518
 3440SOL    HW210351   4.854   1.402   4.537
 3441SOL     OW10352   4.043   0.810   4.673
 3441SOL    HW110353   4.136   0.846   4.678
 3441SOL    HW210354   4.037   0.725   4.725
 3442SOL     OW10355   4.063   0.509   4.730
 3442SOL    HW110356   4.011   0.426   4.713
 3442SOL    HW210357   4.140   0.514   4.666
 3443SOL     OW10358   4.884   0.207   5.201
 3443SOL    HW110359   4.884   0.271   5.278
 3443SOL    HW210360   4.912   0.255   5.118
 3444SOL     OW10361   3.732   1.326   3.924
 3444SOL    HW110362   3.639   1.347   3.893
 3444SOL    HW210363   3.742   1.227   3.937
 3445SOL     OW10364   3.812   1.801   4.651
 3445SOL    HW110365   3.770   1.715   4.624
 3445SOL    HW210366   3.906   1.804   4.617
 3446SOL     OW10367   4.228   1.568   4.634
 3446SOL    HW110368   4.294   1.642   4.643
 3446SOL    HW210369   4.272   1.489   4.592
 3447SOL     OW10370   4.726   0.796   4.962
 3447SOL    HW110371   4.767   0.764   5.048
 3447SOL    HW210372   4.630   0.769   4.959
 3448SOL     OW10373   3.764   0.544   4.838
 3448SOL    HW110374   3.849   0.511   4.797
 3448SOL    HW210375   3.777   0.559   4.936
 3449SOL     OW10376   4.539   0.572   4.049
 3449SOL    HW110377   4.546   0.483   4.003
 3449SOL    HW210378   4.445   0.606   4.041
 3450SOL     OW10379   4.395   0.464   4.993
 3450SOL    HW110380   4.361   0.375   4.963
 3450SOL    HW210381   4.421   0.518   4.913
 3451SOL     OW10382   4.654   1.678   5.189
 3451SOL    HW110383   4.630   1.660   5.094
 3451SOL    HW210384   4.684   1.772   5.199
 3452SOL     OW10385   4.197   0.500   3.915
 3452SOL    HW110386   4.258   0.580   3.919
 3452SOL    HW210387   4.102   0.531   3.922
 3453SOL     OW10388   5.071   1.059   4.958
 3453SOL    HW110389   5.095   0.996   4.884
 3453SOL    HW210390   4.981   1.099   4.940
 3454SOL     OW10391   4.976   1.731   4.852
 3454SOL    HW110392   5.060   1.736   4.798
 3454SOL    HW210393   4.953   1.635   4.870
 3455SOL     OW10394   3.807   1.258   4.746
 3455SOL    HW110395   3.802   1.257   4.846
 3455SOL    HW210396   3.724   1.217   4.708
 3456SOL     OW10397   5.112   1.573   4.201
 3456SOL    HW110398   5.179   1.585   4.127
 3456SOL    HW210399   5.072   1.662   4.224
 3457SOL     OW10400   4.396   1.616   3.878
 3457SOL    HW110401   4.405   1.626   3.779
 3457SOL    HW210402   4.356   1.527   3.899
 3458SOL     OW10403   3.987   0.326   4.444
 3458SOL    HW110404   3.908   0.377   4.410
 3458SOL    HW210405   3.978   0.311   4.542
 3459SOL     OW10406   4.918   1.612   3.755
 3459SOL    HW110407   4.924   1.519   3.792
 3459SOL    HW210408   4.859   1.612   3.675
 3460SOL     OW10409   4.546   1.002   5.096
 3460SOL    HW110410   4.586   1.001   5.004
 3460SOL    HW210411   4.556   1.094   5.136
 3461SOL     OW10412   4.640   0.910   4.015
 3461SOL    HW110413   4.703   0.948   3.947
 3461SOL    HW210414   4.680   0.827   4.054
 3462SOL     OW10415   5.338   1.292   5.013
 3462SOL    HW110416   5.398   1.295   5.093
 3462SOL    HW210417   5.263   1.356   5.026
 3463SOL     OW10418   4.763   1.098   4.420
 3463SOL    HW110419   4.693   1.051   4.474
 3463SOL    HW210420   4.822   1.030   4.377
 3464SOL     OW10421   4.738   0.236   4.695
 3464SOL    HW110422   4.730   0.200   4.602
 3464SOL    HW210423   4.736   0.160   4.760
 3465SOL     OW10424   4.314   1.487   4.215
 3465SOL    HW110425   4.356   1.429   4.145
 3465SOL    HW210426   4.270   1.566   4.171
 3466SOL     OW10427   3.979   1.348   4.014
 3466SOL    HW110428   3.883   1.349   3.987
 3466SOL    HW210429   3.991   1.401   4.098
 3467SOL     OW10430   3.799   0.345   3.757
 3467SOL    HW110431   3.707   0.317   3.728
 3467SOL    HW210432   3.830   0.422   3.701
 3468SOL     OW10433   3.796   0.166   4.042
 3468SOL    HW110434   3.779   0.249   3.988
 3468SOL    HW210435   3.886   0.129   4.020
 3469SOL     OW10436   4.318   0.745   4.376
 3469SOL    HW110437   4.368   0.830   4.357
 3469SOL    HW210438   4.230   0.747   4.328
 3470SOL     OW10439   4.583   1.374   3.740
 3470SOL    HW110440   4.537   1.389   3.828
 3470SOL    HW210441   4.627   1.459   3.710
 3471SOL     OW10442   4.385   1.790   4.677
 3471SOL    HW110443   4.339   1.878   4.664
 3471SOL    HW210444   4.484   1.802   4.670
 3472SOL     OW10445   4.583   0.956   4.585
 3472SOL    HW110446   4.637   0.887   4.633
 3472SOL    HW210447   4.551   1.025   4.651
 3473SOL     OW10448   4.807   0.984   3.811
 3473SOL    HW110449   4.784   1.037   3.729
 3473SOL    HW210450   4.888   0.928   3.792
 3474SOL     OW10451   3.803   1.240   4.377
 3474SOL    HW110452   3.802   1.193   4.465
 3474SOL    HW210453   3.885   1.212   4.326
 3475SOL     OW10454   4.152   0.424   4.244
 3475SOL    HW110455   4.182   0.352   4.182
 3475SOL    HW210456   4.113   0.384   4.327
 3476SOL     OW10457   4.536   1.586   4.411
 3476SOL    HW110458   4.568   1.596   4.317
 3476SOL    HW210459   4.457   1.524   4.413
 3477SOL     OW10460   4.725   0.034   4.878
 3477SOL    HW110461   4.662  -0.038   4.847
 3477SOL    HW210462   4.818  -0.002   4.878
 3478SOL     OW10463   4.494   1.330   4.025
 3478SOL    HW110464   4.448   1.243   4.042
 3478SOL    HW210465   4.585   1.327   4.066
 3479SOL     OW10466   3.763   1.077   4.024
 3479SOL    HW110467   3.862   1.066   4.015
 3479SOL    HW210468   3.723   0.991   4.056
 3480SOL     OW10469   4.599   1.646   4.061
 3480SOL    HW110470   4.522   1.611   4.007
 3480SOL    HW210471   4.567   1.717   4.123
 3481SOL     OW10472   3.954   2.490   0.113
 3481SOL    HW110473   3.861   2.488   0.150
 3481SOL    HW210474   3.955   2.451   0.021
 3482SOL     OW10475   3.949   2.137   0.996
 3482SOL    HW110476   3.984   2.120   1.088
 3482SOL    HW210477   3.861   2.092   0.984
 3483SOL     OW10478   3.743   2.230   0.647
 3483SOL    HW110479   3.661   2.273   0.686
 3483SOL    HW210480   3.715   2.157   0.584
 3484SOL     OW10481   4.293   3.137   1.165
 3484SOL    HW110482   4.200   3.130   1.128
 3484SOL    HW210483   4.304   3.226   1.209
 3485SOL     OW10484   4.859   2.565   0.717
 3485SOL    HW110485   4.916   2.643   0.692
 3485SOL    HW210486   4.799   2.591   0.793
 3486SOL     OW10487   4.492   3.006   1.023
 3486SOL    HW110488   4.414   3.023   1.083
 3486SOL    HW210489   4.526   3.093   0.987
 3487SOL     OW10490   4.574   2.660   1.823
 3487SOL    HW110491   4.570   2.736   1.888
 3487SOL    HW210492   4.596   2.696   1.732
 3488SOL     OW10493   4.409   2.874   0.665
 3488SOL    HW110494   4.478   2.858   0.735
 3488SOL    HW210495   4.336   2.931   0.703
 3489SOL     OW10496   4.410   3.023   1.803
 3489SOL    HW110497   4.470   3.102   1.817
 3489SOL    HW210498   4.324   3.054   1.762
 3490SOL     OW10499   4.059   3.297   1.061
 3490SOL    HW110500   3.981   3.266   1.008
 3490SOL    HW210501   4.117   3.355   1.004
 3491SOL     OW10502   4.162   2.254   1.499
 3491SOL    HW110503   4.244   2.198   1.508
 3491SOL    HW210504   4.081   2.196   1.503
 3492SOL     OW10505   3.955   3.575   0.483
 3492SOL    HW110506   3.989   3.652   0.537
 3492SOL    HW210507   3.999   3.575   0.393
 3493SOL     OW10508   4.851   3.203   1.690
 3493SOL    HW110509   4.898   3.203   1.778
 3493SOL    HW210510   4.803   3.116   1.679
 3494SOL     OW10511   3.954   3.296   0.538
 3494SOL    HW110512   3.928   3.392   0.538
 3494SOL    HW210513   3.883   3.242   0.583
 3495SOL     OW10514   3.964   2.953   0.886
 3495SOL    HW110515   3.978   2.869   0.938
 3495SOL    HW210516   3.909   3.017   0.941
 3496SOL     OW10517   4.344   3.648   1.439
 3496SOL    HW110518   4.252   3.631   1.474
 3496SOL    HW210519   4.372   3.740   1.465
 3497SOL     OW10520   4.330   2.826   0.123
 3497SOL    HW110521   4.337   2.910   0.069
 3497SOL    HW210522   4.376   2.839   0.211
 3498SOL     OW10523   3.846   2.505   0.563
 3498SOL    HW110524   3.801   2.417   0.580
 3498SOL    HW210525   3.845   2.559   0.647
 3499SOL     OW10526   3.751   3.458   0.117
 3499SOL    HW110527   3.732   3.362   0.138
 3499SOL    HW210528   3.718   3.516   0.192
 3500SOL     OW10529   3.837   2.599   1.597
 3500SOL    HW110530   3.925   2.586   1.642
 3500SOL    HW210531   3.824   2.696   1.575
 3501SOL     OW10532   4.337   3.227   0.726
 3501SOL    HW110533   4.288   3.140   0.735
 3501SOL    HW210534   4.314   3.270   0.639
 3502SOL     OW10535   4.533   1.866   0.502
 3502SOL    HW110536   4.573   1.957   0.493
 3502SOL    HW210537   4.433   1.874   0.508
 3503SOL     OW10538   3.921   2.838   1.264
 3503SOL    HW110539   4.010   2.793   1.250
 3503SOL    HW210540   3.848   2.773   1.245
 3504SOL     OW10541   4.911   3.654   1.616
 3504SOL    HW110542   4.935   3.714   1.540
 3504SOL    HW210543   4.918   3.559   1.586
 3505SOL     OW10544   4.041   2.113   1.801
 3505SOL    HW110545   4.112   2.184   1.807
 3505SOL    HW210546   3.953   2.152   1.829
 3506SOL     OW10547   4.322   2.591   0.270
 3506SOL    HW110548   4.346   2.660   0.202
 3506SOL    HW210549   4.244   2.624   0.324
 3507SOL     OW10550   4.531   2.467   1.465
 3507SOL    HW110551   4.484   2.464   1.554
 3507SOL    HW210552   4.480   2.412   1.399
 3508SOL     OW10553   4.697   2.752   1.572
 3508SOL    HW110554   4.743   2.668   1.543
 3508SOL    HW210555   4.641   2.786   1.497
 3509SOL     OW10556   4.715   2.272   1.242
 3509SOL    HW110557   4.638   2.306   1.296
 3509SOL    HW210558   4.681   2.221   1.163
 3510SOL     OW10559   4.765   2.563   0.429
 3510SOL    HW110560   4.791   2.559   0.525
 3510SOL    HW210561   4.680   2.512   0.415
 3511SOL     OW10562   3.800   2.673   0.789
 3511SOL    HW110563   3.899   2.661   0.798
 3511SOL    HW210564   3.776   2.768   0.810
 3512SOL     OW10565   3.854   3.683   1.571
 3512SOL    HW110566   3.844   3.668   1.670
 3512SOL    HW210567   3.768   3.719   1.535
 3513SOL     OW10568   4.589   2.210   0.195
 3513SOL    HW110569   4.648   2.273   0.146
 3513SOL    HW210570   4.608   2.116   0.166
 3514SOL     OW10571   4.274   2.058   0.885
 3514SOL    HW110572   4.269   2.053   0.985
 3514SOL    HW210573   4.276   2.154   0.856
 3515SOL     OW10574   4.732   3.318   0.477
 3515SOL    HW110575   4.686   3.390   0.425
 3515SOL    HW210576   4.728   3.338   0.575
 3516SOL     OW10577   4.075   3.663   0.853
 3516SOL    HW110578   4.125   3.577   0.859
 3516SOL    HW210579   4.140   3.740   0.850
 3517SOL     OW10580   4.951   3.412   1.506
 3517SOL    HW110581   4.957   3.335   1.570
 3517SOL    HW210582   4.899   3.386   1.426
 3518SOL     OW10583   4.045   2.805   0.242
 3518SOL    HW110584   4.127   2.844   0.200
 3518SOL    HW210585   4.018   2.723   0.193
 3519SOL     OW10586   4.185   3.128   1.727
 3519SOL    HW110587   4.135   3.129   1.641
 3519SOL    HW210588   4.122   3.110   1.803
 3520SOL     OW10589   4.835   3.638   0.237
 3520SOL    HW110590   4.775   3.576   0.287
 3520SOL    HW210591   4.866   3.594   0.152
 3521SOL     OW10592   3.926   2.147   1.498
 3521SOL    HW110593   3.846   2.207   1.485
 3521SOL    HW210594   3.916   2.098   1.584
 3522SOL     OW10595   4.188   3.605   0.323
 3522SOL    HW110596   4.221   3.644   0.409
 3522SOL    HW210597   4.264   3.598   0.258
 3523SOL     OW10598   3.973   3.647   1.241
 3523SOL    HW110599   4.030   3.582   1.291
 3523SOL    HW210600   3.957   3.614   1.148
 3524SOL     OW10601   4.664   3.560   0.904
 3524SOL    HW110602   4.744   3.503   0.925
 3524SOL    HW210603   4.615   3.520   0.827
 3525SOL     OW10604   4.106   2.562   0.480
 3525SOL    HW110605   4.151   2.472   0.477
 3525SOL    HW210606   4.012   2.551   0.513
 3526SOL     OW10607   4.338   1.984   0.117
 3526SOL    HW110608   4.436   1.962   0.124
 3526SOL    HW210609   4.307   1.967   0.024
 3527SOL     OW10610   4.505   2.126   1.749
 3527SOL    HW110611   4.572   2.065   1.792
 3527SOL    HW210612   4.432   2.145   1.814
 3528SOL     OW10613   4.612   3.376   1.195
 3528SOL    HW110614   4.589   3.351   1.101
 3528SOL    HW210615   4.673   3.307   1.234
 3529SOL     OW10616   4.527   3.264   0.924
 3529SOL    HW110617   4.617   3.278   0.882
 3529SOL    HW210618   4.456   3.266   0.853
 3530SOL     OW10619   4.646   2.365   0.899
 3530SOL    HW110620   4.621   2.356   0.803
 3530SOL    HW210621   4.694   2.283   0.930
 3531SOL     OW10622   4.263   1.926   0.512
 3531SOL    HW110623   4.182   1.927   0.570
 3531SOL    HW210624   4.266   2.009   0.457
 3532SOL     OW10625   4.021   1.897   0.171
 3532SOL    HW110626   4.070   1.981   0.150
 3532SOL    HW210627   4.083   1.832   0.216
 3533SOL     OW10628   4.659   2.098   0.480
 3533SOL    HW110629   4.611   2.139   0.402
 3533SOL    HW210630   4.758   2.096   0.461
 3534SOL     OW10631   4.800   2.545   1.464
 3534SOL    HW110632   4.720   2.484   1.467
 3534SOL    HW210633   4.881   2.492   1.440
 3535SOL     OW10634   4.951   3.432   0.793
 3535SOL    HW110635   4.972   3.506   0.728
 3535SOL    HW210636   5.019   3.432   0.866
 3536SOL     OW10637   4.183   3.014   0.741
 3536SOL    HW110638   4.112   2.987   0.806
 3536SOL    HW210639   4.157   2.986   0.648
 3537SOL     OW10640   4.995   3.659   0.591
 3537SOL    HW110641   5.039   3.723   0.527
 3537SOL    HW210642   4.945   3.711   0.661
 3538SOL     OW10643   4.756   2.411   0.016
 3538SOL    HW110644   4.715   2.493  -0.023
 3538SOL    HW210645   4.820   2.437   0.089
 3539SOL     OW10646   3.802   2.418   1.386
 3539SOL    HW110647   3.894   2.417   1.345
 3539SOL    HW210648   3.796   2.492   1.453
 3540SOL     OW10649   4.285   2.084   1.147
 3540SOL    HW110650   4.323   2.000   1.184
 3540SOL    HW210651   4.197   2.103   1.191
 3541SOL     OW10652   4.590   2.316   0.642
 3541SOL    HW110653   4.558   2.388   0.580
 3541SOL    HW210654   4.614   2.235   0.589
 3542SOL     OW10655   4.741   1.901   0.753
 3542SOL    HW110656   4.669   1.906   0.684
 3542SOL    HW210657   4.717   1.832   0.822
 3543SOL     OW10658   4.212   3.247   0.174
 3543SOL    HW110659   4.125   3.232   0.221
 3543SOL    HW210660   4.195   3.273   0.079
 3544SOL     OW10661   4.251   2.118   0.328
 3544SOL    HW110662   4.278   2.059   0.253
 3544SOL    HW210663   4.251   2.213   0.297
 3545SOL     OW10664   4.788   3.209   1.340
 3545SOL    HW110665   4.708   3.186   1.395
 3545SOL    HW210666   4.871   3.183   1.389
 3546SOL     OW10667   4.835   3.057   1.100
 3546SOL    HW110668   4.795   3.101   1.181
 3546SOL    HW210669   4.794   3.094   1.017
 3547SOL     OW10670   4.639   1.951   1.402
 3547SOL    HW110671   4.664   1.931   1.307
 3547SOL    HW210672   4.711   2.007   1.444
 3548SOL     OW10673   4.704   2.978   1.719
 3548SOL    HW110674   4.605   2.984   1.729
 3548SOL    HW210675   4.727   2.898   1.663
 3549SOL     OW10676   4.429   2.912   0.368
 3549SOL    HW110677   4.415   2.919   0.467
 3549SOL    HW210678   4.513   2.861   0.350
 3550SOL     OW10679   4.134   2.675   1.251
 3550SOL    HW110680   4.220   2.687   1.301
 3550SOL    HW210681   4.092   2.588   1.278
 3551SOL     OW10682   3.788   3.426   1.331
 3551SOL    HW110683   3.742   3.508   1.297
 3551SOL    HW210684   3.886   3.445   1.340
 3552SOL     OW10685   4.091   2.962   0.501
 3552SOL    HW110686   4.084   3.045   0.445
 3552SOL    HW210687   4.095   2.882   0.441
 3553SOL     OW10688   4.290   2.399   0.865
 3553SOL    HW110689   4.302   2.465   0.791
 3553SOL    HW210690   4.336   2.433   0.948
 3554SOL     OW10691   4.976   3.210   0.388
 3554SOL    HW110692   5.026   3.287   0.428
 3554SOL    HW210693   4.881   3.212   0.420
 3555SOL     OW10694   4.078   3.372   1.329
 3555SOL    HW110695   4.057   3.328   1.242
 3555SOL    HW210696   4.175   3.398   1.332
 3556SOL     OW10697   4.126   2.613   1.598
 3556SOL    HW110698   4.194   2.668   1.551
 3556SOL    HW210699   4.166   2.525   1.625
 3557SOL     OW10700   4.737   1.967   1.770
 3557SOL    HW110701   4.743   2.052   1.718
 3557SOL    HW210702   4.769   1.891   1.713
 3558SOL     OW10703   4.228   1.912   1.740
 3558SOL    HW110704   4.186   1.855   1.670
 3558SOL    HW210705   4.162   1.981   1.772
 3559SOL     OW10706   4.297   2.732   1.029
 3559SOL    HW110707   4.341   2.821   1.020
 3559SOL    HW210708   4.234   2.732   1.106
 3560SOL     OW10709   5.084   2.724   1.045
 3560SOL    HW110710   5.009   2.724   0.979
 3560SOL    HW210711   5.121   2.632   1.054
 3561SOL     OW10712   4.933   2.387   0.275
 3561SOL    HW110713   4.946   2.303   0.329
 3561SOL    HW210714   4.904   2.461   0.335
 3562SOL     OW10715   4.031   2.075   1.231
 3562SOL    HW110716   4.008   2.112   1.321
 3562SOL    HW210717   4.001   1.980   1.225
 3563SOL     OW10718   3.761   3.172   1.282
 3563SOL    HW110719   3.814   3.123   1.350
 3563SOL    HW210720   3.783   3.270   1.287
 3564SOL     OW10721   4.456   2.496   1.064
 3564SOL    HW110722   4.515   2.470   0.988
 3564SOL    HW210723   4.428   2.592   1.053
 3565SOL     OW10724   4.031   1.925   0.618
 3565SOL    HW110725   4.020   2.019   0.651
 3565SOL    HW210726   4.026   1.862   0.695
 3566SOL     OW10727   5.346   2.229   0.374
 3566SOL    HW110728   5.348   2.153   0.438
 3566SOL    HW210729   5.298   2.306   0.414
 3567SOL     OW10730   4.747   2.628   0.966
 3567SOL    HW110731   4.762   2.649   1.062
 3567SOL    HW210732   4.717   2.533   0.957
 3568SOL     OW10733   4.704   3.435   1.700
 3568SOL    HW110734   4.684   3.479   1.612
 3568SOL    HW210735   4.743   3.344   1.684
 3569SOL     OW10736   4.074   2.760   1.804
 3569SOL    HW110737   4.150   2.804   1.852
 3569SOL    HW210738   4.109   2.713   1.722
 3570SOL     OW10739   4.792   3.195   0.849
 3570SOL    HW110740   4.799   3.111   0.794
 3570SOL    HW210741   4.854   3.264   0.813
 3571SOL     OW10742   4.043   2.672   0.949
 3571SOL    HW110743   4.136   2.708   0.954
 3571SOL    HW210744   4.037   2.587   1.001
 3572SOL     OW10745   4.063   2.371   1.006
 3572SOL    HW110746   4.011   2.288   0.989
 3572SOL    HW210747   4.140   2.376   0.942
 3573SOL     OW10748   4.862   2.242   1.678
 3573SOL    HW110749   4.817   2.305   1.742
 3573SOL    HW210750   4.955   2.273   1.661
 3574SOL     OW10751   4.884   2.069   1.477
 3574SOL    HW110752   4.884   2.133   1.554
 3574SOL    HW210753   4.912   2.117   1.394
 3575SOL     OW10754   3.812   3.663   0.927
 3575SOL    HW110755   3.770   3.577   0.900
 3575SOL    HW210756   3.906   3.666   0.893
 3576SOL     OW10757   4.228   3.430   0.910
 3576SOL    HW110758   4.294   3.504   0.919
 3576SOL    HW210759   4.272   3.351   0.868
 3577SOL     OW10760   4.726   2.658   1.238
 3577SOL    HW110761   4.767   2.626   1.324
 3577SOL    HW210762   4.630   2.631   1.235
 3578SOL     OW10763   3.764   2.406   1.114
 3578SOL    HW110764   3.849   2.373   1.073
 3578SOL    HW210765   3.777   2.421   1.212
 3579SOL     OW10766   3.913   2.382   1.722
 3579SOL    HW110767   3.972   2.342   1.652
 3579SOL    HW210768   3.855   2.453   1.681
 3580SOL     OW10769   4.539   2.434   0.325
 3580SOL    HW110770   4.546   2.345   0.279
 3580SOL    HW210771   4.445   2.468   0.317
 3581SOL     OW10772   3.976   3.426   1.744
 3581SOL    HW110773   3.946   3.483   1.820
 3581SOL    HW210774   3.969   3.329   1.770
 3582SOL     OW10775   4.395   2.326   1.269
 3582SOL    HW110776   4.361   2.237   1.239
 3582SOL    HW210777   4.421   2.380   1.189
 3583SOL     OW10778   4.654   3.540   1.465
 3583SOL    HW110779   4.630   3.522   1.370
 3583SOL    HW210780   4.684   3.634   1.475
 3584SOL     OW10781   4.197   2.362   0.191
 3584SOL    HW110782   4.258   2.442   0.195
 3584SOL    HW210783   4.102   2.393   0.198
 3585SOL     OW10784   3.883   2.999   1.466
 3585SOL    HW110785   3.905   2.938   1.542
 3585SOL    HW210786   3.893   2.950   1.380
 3586SOL     OW10787   5.071   2.921   1.234
 3586SOL    HW110788   5.095   2.858   1.160
 3586SOL    HW210789   4.981   2.961   1.216
 3587SOL     OW10790   4.976   3.593   1.128
 3587SOL    HW110791   5.060   3.598   1.074
 3587SOL    HW210792   4.953   3.497   1.146
 3588SOL     OW10793   3.807   3.120   1.022
 3588SOL    HW110794   3.802   3.119   1.122
 3588SOL    HW210795   3.724   3.079   0.984
 3589SOL     OW10796   4.412   3.524   1.716
 3589SOL    HW110797   4.356   3.605   1.725
 3589SOL    HW210798   4.464   3.528   1.630
 3590SOL     OW10799   4.627   1.948   0.133
 3590SOL    HW110800   4.678   1.949   0.047
 3590SOL    HW210801   4.683   1.906   0.204
 3591SOL     OW10802   5.112   3.435   0.477
 3591SOL    HW110803   5.179   3.447   0.403
 3591SOL    HW210804   5.072   3.524   0.500
 3592SOL     OW10805   3.854   3.656   1.851
 3592SOL    HW110806   3.813   3.582   1.904
 3592SOL    HW210807   3.918   3.707   1.909
 3593SOL     OW10808   4.554   3.135   1.422
 3593SOL    HW110809   4.549   3.168   1.517
 3593SOL    HW210810   4.468   3.154   1.376
 3594SOL     OW10811   4.396   3.478   0.154
 3594SOL    HW110812   4.405   3.488   0.055
 3594SOL    HW210813   4.356   3.389   0.175
 3595SOL     OW10814   3.987   2.188   0.720
 3595SOL    HW110815   3.908   2.239   0.686
 3595SOL    HW210816   3.978   2.173   0.818
 3596SOL     OW10817   4.918   3.474   0.031
 3596SOL    HW110818   4.924   3.381   0.068
 3596SOL    HW210819   4.859   3.474  -0.049
 3597SOL     OW10820   4.546   2.864   1.372
 3597SOL    HW110821   4.586   2.863   1.280
 3597SOL    HW210822   4.556   2.956   1.412
 3598SOL     OW10823   4.640   2.772   0.291
 3598SOL    HW110824   4.703   2.810   0.223
 3598SOL    HW210825   4.680   2.689   0.330
 3599SOL     OW10826   4.096   3.150   1.490
 3599SOL    HW110827   4.083   3.243   1.456
 3599SOL    HW210828   4.012   3.098   1.477
 3600SOL     OW10829   4.763   2.960   0.696
 3600SOL    HW110830   4.693   2.913   0.750
 3600SOL    HW210831   4.822   2.892   0.653
 3601SOL     OW10832   4.738   2.098   0.971
 3601SOL    HW110833   4.730   2.062   0.878
 3601SOL    HW210834   4.736   2.022   1.036
 3602SOL     OW10835   4.314   3.349   0.491
 3602SOL    HW110836   4.356   3.291   0.421
 3602SOL    HW210837   4.270   3.428   0.447
 3603SOL     OW10838   3.979   3.210   0.290
 3603SOL    HW110839   3.883   3.211   0.263
 3603SOL    HW210840   3.991   3.263   0.374
 3604SOL     OW10841   3.829   2.875   1.726
 3604SOL    HW110842   3.752   2.842   1.780
 3604SOL    HW210843   3.914   2.845   1.768
 3605SOL     OW10844   4.396   2.065   1.489
 3605SOL    HW110845   4.486   2.049   1.449
 3605SOL    HW210846   4.404   2.070   1.588
 3606SOL     OW10847   3.796   2.028   0.318
 3606SOL    HW110848   3.779   2.111   0.264
 3606SOL    HW210849   3.886   1.991   0.296
 3607SOL     OW10850   4.337   2.704   1.431
 3607SOL    HW110851   4.393   2.785   1.414
 3607SOL    HW210852   4.396   2.624   1.434
 3608SOL     OW10853   4.440   2.427   1.708
 3608SOL    HW110854   4.459   2.492   1.782
 3608SOL    HW210855   4.500   2.347   1.717
 3609SOL     OW10856   4.114   3.603   1.560
 3609SOL    HW110857   4.023   3.644   1.558
 3609SOL    HW210858   4.107   3.509   1.592
 3610SOL     OW10859   4.318   2.607   0.652
 3610SOL    HW110860   4.368   2.692   0.633
 3610SOL    HW210861   4.230   2.609   0.604
 3611SOL     OW10862   4.583   3.236   0.016
 3611SOL    HW110863   4.537   3.251   0.104
 3611SOL    HW210864   4.627   3.321  -0.014
 3612SOL     OW10865   4.385   3.652   0.953
 3612SOL    HW110866   4.339   3.740   0.940
 3612SOL    HW210867   4.484   3.664   0.946
 3613SOL     OW10868   4.583   2.818   0.861
 3613SOL    HW110869   4.637   2.749   0.909
 3613SOL    HW210870   4.551   2.887   0.927
 3614SOL     OW10871   4.807   2.846   0.087
 3614SOL    HW110872   4.784   2.899   0.005
 3614SOL    HW210873   4.888   2.790   0.068
 3615SOL     OW10874   3.945   3.176   1.844
 3615SOL    HW110875   3.880   3.103   1.823
 3615SOL    HW210876   3.949   3.190   1.942
 3616SOL     OW10877   3.803   3.102   0.653
 3616SOL    HW110878   3.802   3.055   0.741
 3616SOL    HW210879   3.885   3.074   0.602
 3617SOL     OW10880   4.396   3.253   1.624
 3617SOL    HW110881   4.318   3.203   1.662
 3617SOL    HW210882   4.393   3.348   1.655
 3618SOL     OW10883   4.152   2.286   0.520
 3618SOL    HW110884   4.182   2.214   0.458
 3618SOL    HW210885   4.113   2.246   0.603
 3619SOL     OW10886   4.041   2.409   1.280
 3619SOL    HW110887   4.079   2.350   1.352
 3619SOL    HW210888   4.081   2.383   1.192
 3620SOL     OW10889   4.536   3.448   0.687
 3620SOL    HW110890   4.568   3.458   0.593
 3620SOL    HW210891   4.457   3.386   0.689
 3621SOL     OW10892   4.725   1.896   1.154
 3621SOL    HW110893   4.662   1.824   1.123
 3621SOL    HW210894   4.818   1.860   1.154
 3622SOL     OW10895   4.494   3.192   0.301
 3622SOL    HW110896   4.448   3.105   0.318
 3622SOL    HW210897   4.585   3.189   0.342
 3623SOL     OW10898   4.342   3.429   1.284
 3623SOL    HW110899   4.337   3.511   1.341
 3623SOL    HW210900   4.431   3.426   1.239
 3624SOL     OW10901   3.763   2.939   0.300
 3624SOL    HW110902   3.862   2.928   0.291
 3624SOL    HW210903   3.723   2.853   0.332
 3625SOL     OW10904   4.599   3.508   0.337
 3625SOL    HW110905   4.522   3.473   0.283
 3625SOL    HW210906   4.567   3.579   0.399
 3626SOL     OW10907   3.954   2.490   1.975
 3626SOL    HW110908   3.861   2.488   2.012
 3626SOL    HW210909   3.955   2.451   1.883
 3627SOL     OW10910   3.949   2.137   2.858
 3627SOL    HW110911   3.984   2.120   2.950
 3627SOL    HW210912   3.861   2.092   2.846
 3628SOL     OW10913   3.743   2.230   2.509
 3628SOL    HW110914   3.661   2.273   2.548
 3628SOL    HW210915   3.715   2.157   2.446
 3629SOL     OW10916   4.293   3.137   3.027
 3629SOL    HW110917   4.200   3.130   2.990
 3629SOL    HW210918   4.304   3.226   3.071
 3630SOL     OW10919   4.859   2.565   2.579
 3630SOL    HW110920   4.916   2.643   2.554
 3630SOL    HW210921   4.799   2.591   2.655
 3631SOL     OW10922   4.492   3.006   2.885
 3631SOL    HW110923   4.414   3.023   2.945
 3631SOL    HW210924   4.526   3.093   2.849
 3632SOL     OW10925   4.574   2.660   3.685
 3632SOL    HW110926   4.570   2.736   3.750
 3632SOL    HW210927   4.596   2.696   3.594
 3633SOL     OW10928   4.409   2.874   2.527
 3633SOL    HW110929   4.478   2.858   2.597
 3633SOL    HW210930   4.336   2.931   2.565
 3634SOL     OW10931   4.410   3.023   3.665
 3634SOL    HW110932   4.470   3.102   3.679
 3634SOL    HW210933   4.324   3.054   3.624
 3635SOL     OW10934   4.059   3.297   2.923
 3635SOL    HW110935   3.981   3.266   2.870
 3635SOL    HW210936   4.117   3.355   2.866
 3636SOL     OW10937   4.162   2.254   3.361
 3636SOL    HW110938   4.244   2.198   3.370
 3636SOL    HW210939   4.081   2.196   3.365
 3637SOL     OW10940   3.955   3.575   2.345
 3637SOL    HW110941   3.989   3.652   2.399
 3637SOL    HW210942   3.999   3.575   2.255
 3638SOL     OW10943   4.851   3.203   3.552
 3638SOL    HW110944   4.898   3.203   3.640
 3638SOL    HW210945   4.803   3.116   3.541
 3639SOL     OW10946   3.954   3.296   2.400
 3639SOL    HW110947   3.928   3.392   2.400
 3639SOL    HW210948   3.883   3.242   2.445
 3640SOL     OW10949   3.964   2.953   2.748
 3640SOL    HW110950   3.978   2.869   2.800
 3640SOL    HW210951   3.909   3.017   2.803
 3641SOL     OW10952   4.344   3.648   3.301
 3641SOL    HW110953   4.252   3.631   3.336
 3641SOL    HW210954   4.372   3.740   3.327
 3642SOL     OW10955   4.330   2.826   1.985
 3642SOL    HW110956   4.337   2.910   1.931
 3642SOL    HW210957   4.376   2.839   2.073
 3643SOL     OW10958   3.846   2.505   2.425
 3643SOL    HW110959   3.801   2.417   2.442
 3643SOL    HW210960   3.845   2.559   2.509
 3644SOL     OW10961   3.751   3.458   1.979
 3644SOL    HW110962   3.732   3.362   2.000
 3644SOL    HW210963   3.718   3.516   2.054
 3645SOL     OW10964   3.837   2.599   3.459
 3645SOL    HW110965   3.925   2.586   3.504
 3645SOL    HW210966   3.824   2.696   3.437
 3646SOL     OW10967   4.337   3.227   2.588
 3646SOL    HW110968   4.288   3.140   2.597
 3646SOL    HW210969   4.314   3.270   2.501
 3647SOL     OW10970   4.533   1.866   2.364
 3647SOL    HW110971   4.573   1.957   2.355
 3647SOL    HW210972   4.433   1.874   2.370
 3648SOL     OW10973   3.921   2.838   3.126
 3648SOL    HW110974   4.010   2.793   3.112
 3648SOL    HW210975   3.848   2.773   3.107
 3649SOL     OW10976   4.911   3.654   3.478
 3649SOL    HW110977   4.935   3.714   3.402
 3649SOL    HW210978   4.918   3.559   3.448
 3650SOL     OW10979   4.041   2.113   3.663
 3650SOL    HW110980   4.112   2.184   3.669
 3650SOL    HW210981   3.953   2.152   3.691
 3651SOL     OW10982   4.322   2.591   2.132
 3651SOL    HW110983   4.346   2.660   2.064
 3651SOL    HW210984   4.244   2.624   2.186
 3652SOL     OW10985   4.531   2.467   3.327
 3652SOL    HW110986   4.484   2.464   3.416
 3652SOL    HW210987   4.480   2.412   3.261
 3653SOL     OW10988   4.697   2.752   3.434
 3653SOL    HW110989   4.743   2.668   3.405
 3653SOL    HW210990   4.641   2.786   3.359
 3654SOL     OW10991   4.715   2.272   3.104
 3654SOL    HW110992   4.638   2.306   3.158
 3654SOL    HW210993   4.681   2.221   3.025
 3655SOL     OW10994   4.765   2.563   2.291
 3655SOL    HW110995   4.791   2.559   2.387
 3655SOL    HW210996   4.680   2.512   2.277
 3656SOL     OW10997   3.800   2.673   2.651
 3656SOL    HW110998   3.899   2.661   2.660
 3656SOL    HW210999   3.776   2.768   2.672
 3657SOL     OW11000   3.854   3.683   3.433
 3657SOL    HW111001   3.844   3.668   3.532
 3657SOL    HW211002   3.768   3.719   3.397
 3658SOL     OW11003   4.589   2.210   2.057
 3658SOL    HW111004   4.648   2.273   2.008
 3658SOL    HW211005   4.608   2.116   2.028
 3659SOL     OW11006   4.274   2.058   2.747
 3659SOL    HW111007   4.269   2.053   2.847
 3659SOL    HW211008   4.276   2.154   2.718
 3660SOL     OW11009   4.732   3.318   2.339
 3660SOL    HW111010   4.686   3.390   2.287
 3660SOL    HW211011   4.728   3.338   2.437
 3661SOL     OW11012   4.075   3.663   2.715
 3661SOL    HW111013   4.125   3.577   2.721
 3661SOL    HW211014   4.140   3.740   2.712
 3662SOL     OW11015   4.951   3.412   3.368
 3662SOL    HW111016   4.957   3.335   3.432
 3662SOL    HW211017   4.899   3.386   3.288
 3663SOL     OW11018   4.045   2.805   2.104
 3663SOL    HW111019   4.127   2.844   2.062
 3663SOL    HW211020   4.018   2.723   2.055
 3664SOL     OW11021   4.185   3.128   3.589
 3664SOL    HW111022   4.135   3.129   3.503
 3664SOL    HW211023   4.122   3.110   3.665
 3665SOL     OW11024   4.835   3.638   2.099
 3665SOL    HW111025   4.775   3.576   2.149
 3665SOL    HW211026   4.866   3.594   2.014
 3666SOL     OW11027   3.926   2.147   3.360
 3666SOL    HW111028   3.846   2.207   3.347
 3666SOL    HW211029   3.916   2.098   3.446
 3667SOL     OW11030   4.188   3.605   2.185
 3667SOL    HW111031   4.221   3.644   2.271
 3667SOL    HW211032   4.264   3.598   2.120
 3668SOL     OW11033   3.973   3.647   3.103
 3668SOL    HW111034   4.030   3.582   3.153
 3668SOL    HW211035   3.957   3.614   3.010
 3669SOL     OW11036   4.664   3.560   2.766
 3669SOL    HW111037   4.744   3.503   2.787
 3669SOL    HW211038   4.615   3.520   2.689
 3670SOL     OW11039   4.106   2.562   2.342
 3670SOL    HW111040   4.151   2.472   2.339
 3670SOL    HW211041   4.012   2.551   2.375
 3671SOL     OW11042   4.338   1.984   1.979
 3671SOL    HW111043   4.436   1.962   1.986
 3671SOL    HW211044   4.307   1.967   1.886
 3672SOL     OW11045   4.505   2.126   3.611
 3672SOL    HW111046   4.572   2.065   3.654
 3672SOL    HW211047   4.432   2.145   3.676
 3673SOL     OW11048   4.612   3.376   3.057
 3673SOL    HW111049   4.589   3.351   2.963
 3673SOL    HW211050   4.673   3.307   3.096
 3674SOL     OW11051   4.527   3.264   2.786
 3674SOL    HW111052   4.617   3.278   2.744
 3674SOL    HW211053   4.456   3.266   2.715
 3675SOL     OW11054   4.646   2.365   2.761
 3675SOL    HW111055   4.621   2.356   2.665
 3675SOL    HW211056   4.694   2.283   2.792
 3676SOL     OW11057   4.263   1.926   2.374
 3676SOL    HW111058   4.182   1.927   2.432
 3676SOL    HW211059   4.266   2.009   2.319
 3677SOL     OW11060   4.021   1.897   2.033
 3677SOL    HW111061   4.070   1.981   2.012
 3677SOL    HW211062   4.083   1.832   2.078
 3678SOL     OW11063   4.659   2.098   2.342
 3678SOL    HW111064   4.611   2.139   2.264
 3678SOL    HW211065   4.758   2.096   2.323
 3679SOL     OW11066   4.800   2.545   3.326
 3679SOL    HW111067   4.720   2.484   3.329
 3679SOL    HW211068   4.881   2.492   3.302
 3680SOL     OW11069   4.951   3.432   2.655
 3680SOL    HW111070   4.972   3.506   2.590
 3680SOL    HW211071   5.019   3.432   2.728
 3681SOL     OW11072   4.183   3.014   2.603
 3681SOL    HW111073   4.112   2.987   2.668
 3681SOL    HW211074   4.157   2.986   2.510
 3682SOL     OW11075   4.995   3.659   2.453
 3682SOL    HW111076   5.039   3.723   2.389
 3682SOL    HW211077   4.945   3.711   2.523
 3683SOL     OW11078   4.756   2.411   1.878
 3683SOL    HW111079   4.715   2.493   1.839
 3683SOL    HW211080   4.820   2.437   1.951
 3684SOL     OW11081   3.802   2.418   3.248
 3684SOL    HW111082   3.894   2.417   3.207
 3684SOL    HW211083   3.796   2.492   3.315
 3685SOL     OW11084   4.285   2.084   3.009
 3685SOL    HW111085   4.323   2.000   3.046
 3685SOL    HW211086   4.197   2.103   3.053
 3686SOL     OW11087   4.590   2.316   2.504
 3686SOL    HW111088   4.558   2.388   2.442
 3686SOL    HW211089   4.614   2.235   2.451
 3687SOL     OW11090   4.741   1.901   2.615
 3687SOL    HW111091   4.669   1.906   2.546
 3687SOL    HW211092   4.717   1.832   2.684
 3688SOL     OW11093   4.212   3.247   2.036
 3688SOL    HW111094   4.125   3.232   2.083
 3688SOL    HW211095   4.195   3.273   1.941
 3689SOL     OW11096   4.251   2.118   2.190
 3689SOL    HW111097   4.278   2.059   2.115
 3689SOL    HW211098   4.251   2.213   2.159
 3690SOL     OW11099   4.788   3.209   3.202
 3690SOL    HW111100   4.708   3.186   3.257
 3690SOL    HW211101   4.871   3.183   3.251
 3691SOL     OW11102   4.835   3.057   2.962
 3691SOL    HW111103   4.795   3.101   3.043
 3691SOL    HW211104   4.794   3.094   2.879
 3692SOL     OW11105   4.639   1.951   3.264
 3692SOL    HW111106   4.664   1.931   3.169
 3692SOL    HW211107   4.711   2.007   3.306
 3693SOL     OW11108   4.704   2.978   3.581
 3693SOL    HW111109   4.605   2.984   3.591
 3693SOL    HW211110   4.727   2.898   3.525
 3694SOL     OW11111   4.429   2.912   2.230
 3694SOL    HW111112   4.415   2.919   2.329
 3694SOL    HW211113   4.513   2.861   2.212
 3695SOL     OW11114   4.134   2.675   3.113
 3695SOL    HW111115   4.220   2.687   3.163
 3695SOL    HW211116   4.092   2.588   3.140
 3696SOL     OW11117   3.788   3.426   3.193
 3696SOL    HW111118   3.742   3.508   3.159
 3696SOL    HW211119   3.886   3.445   3.202
 3697SOL     OW11120   4.091   2.962   2.363
 3697SOL    HW111121   4.084   3.045   2.307
 3697SOL    HW211122   4.095   2.882   2.303
 3698SOL     OW11123   4.290   2.399   2.727
 3698SOL    HW111124   4.302   2.465   2.653
 3698SOL    HW211125   4.336   2.433   2.810
 3699SOL     OW11126   4.976   3.210   2.250
 3699SOL    HW111127   5.026   3.287   2.290
 3699SOL    HW211128   4.881   3.212   2.282
 3700SOL     OW11129   4.078   3.372   3.191
 3700SOL    HW111130   4.057   3.328   3.104
 3700SOL    HW211131   4.175   3.398   3.194
 3701SOL     OW11132   4.126   2.613   3.460
 3701SOL    HW111133   4.194   2.668   3.413
 3701SOL    HW211134   4.166   2.525   3.487
 3702SOL     OW11135   4.737   1.967   3.632
 3702SOL    HW111136   4.743   2.052   3.580
 3702SOL    HW211137   4.769   1.891   3.575
 3703SOL     OW11138   4.228   1.912   3.602
 3703SOL    HW111139   4.186   1.855   3.532
 3703SOL    HW211140   4.162   1.981   3.634
 3704SOL     OW11141   4.297   2.732   2.891
 3704SOL    HW111142   4.341   2.821   2.882
 3704SOL    HW211143   4.234   2.732   2.968
 3705SOL     OW11144   5.084   2.724   2.907
 3705SOL    HW111145   5.009   2.724   2.841
 3705SOL    HW211146   5.121   2.632   2.916
 3706SOL     OW11147   4.933   2.387   2.137
 3706SOL    HW111148   4.946   2.303   2.191
 3706SOL    HW211149   4.904   2.461   2.197
 3707SOL     OW11150   4.031   2.075   3.093
 3707SOL    HW111151   4.008   2.112   3.183
 3707SOL    HW211152   4.001   1.980   3.087
 3708SOL     OW11153   3.761   3.172   3.144
 3708SOL    HW111154   3.814   3.123   3.212
 3708SOL    HW211155   3.783   3.270   3.149
 3709SOL     OW11156   4.456   2.496   2.926
 3709SOL    HW111157   4.515   2.470   2.850
 3709SOL    HW211158   4.428   2.592   2.915
 3710SOL     OW11159   4.031   1.925   2.480
 3710SOL    HW111160   4.020   2.019   2.513
 3710SOL    HW211161   4.026   1.862   2.557
 3711SOL     OW11162   5.346   2.229   2.236
 3711SOL    HW111163   5.348   2.153   2.300
 3711SOL    HW211164   5.298   2.306   2.276
 3712SOL     OW11165   4.747   2.628   2.828
 3712SOL    HW111166   4.762   2.649   2.924
 3712SOL    HW211167   4.717   2.533   2.819
 3713SOL     OW11168   4.704   3.435   3.562
 3713SOL    HW111169   4.684   3.479   3.474
 3713SOL    HW211170   4.743   3.344   3.546
 3714SOL     OW11171   4.074   2.760   3.666
 3714SOL    HW111172   4.150   2.804   3.714
 3714SOL    HW211173   4.109   2.713   3.584
 3715SOL     OW11174   5.264   2.136   1.987
 3715SOL    HW111175   5.203   2.061   2.010
 3715SOL    HW211176   5.286   2.188   2.070
 3716SOL     OW11177   4.792   3.195   2.711
 3716SOL    HW111178   4.799   3.111   2.656
 3716SOL    HW211179   4.854   3.264   2.675
 3717SOL     OW11180   4.043   2.672   2.811
 3717SOL    HW111181   4.136   2.708   2.816
 3717SOL    HW211182   4.037   2.587   2.863
 3718SOL     OW11183   4.063   2.371   2.868
 3718SOL    HW111184   4.011   2.288   2.851
 3718SOL    HW211185   4.140   2.376   2.804
 3719SOL     OW11186   4.862   2.242   3.540
 3719SOL    HW111187   4.817   2.305   3.604
 3719SOL    HW211188   4.955   2.273   3.523
 3720SOL     OW11189   4.884   2.069   3.339
 3720SOL    HW111190   4.884   2.133   3.416
 3720SOL    HW211191   4.912   2.117   3.256
 3721SOL     OW11192   3.732   3.188   2.062
 3721SOL    HW111193   3.639   3.209   2.031
 3721SOL    HW211194   3.742   3.089   2.075
 3722SOL     OW11195   3.812   3.663   2.789
 3722SOL    HW111196   3.770   3.577   2.762
 3722SOL    HW211197   3.906   3.666   2.755
 3723SOL     OW11198   4.228   3.430   2.772
 3723SOL    HW111199   4.294   3.504   2.781
 3723SOL    HW211200   4.272   3.351   2.730
 3724SOL     OW11201   4.726   2.658   3.100
 3724SOL    HW111202   4.767   2.626   3.186
 3724SOL    HW211203   4.630   2.631   3.097
 3725SOL     OW11204   3.764   2.406   2.976
 3725SOL    HW111205   3.849   2.373   2.935
 3725SOL    HW211206   3.777   2.421   3.074
 3726SOL     OW11207   3.913   2.382   3.584
 3726SOL    HW111208   3.972   2.342   3.514
 3726SOL    HW211209   3.855   2.453   3.543
 3727SOL     OW11210   4.539   2.434   2.187
 3727SOL    HW111211   4.546   2.345   2.141
 3727SOL    HW211212   4.445   2.468   2.179
 3728SOL     OW11213   3.976   3.426   3.606
 3728SOL    HW111214   3.946   3.483   3.682
 3728SOL    HW211215   3.969   3.329   3.632
 3729SOL     OW11216   4.395   2.326   3.131
 3729SOL    HW111217   4.361   2.237   3.101
 3729SOL    HW211218   4.421   2.380   3.051
 3730SOL     OW11219   4.654   3.540   3.327
 3730SOL    HW111220   4.630   3.522   3.232
 3730SOL    HW211221   4.684   3.634   3.337
 3731SOL     OW11222   4.197   2.362   2.053
 3731SOL    HW111223   4.258   2.442   2.057
 3731SOL    HW211224   4.102   2.393   2.060
 3732SOL     OW11225   3.883   2.999   3.328
 3732SOL    HW111226   3.905   2.938   3.404
 3732SOL    HW211227   3.893   2.950   3.242
 3733SOL     OW11228   5.071   2.921   3.096
 3733SOL    HW111229   5.095   2.858   3.022
 3733SOL    HW211230   4.981   2.961   3.078
 3734SOL     OW11231   4.976   3.593   2.990
 3734SOL    HW111232   5.060   3.598   2.936
 3734SOL    HW211233   4.953   3.497   3.008
 3735SOL     OW11234   3.807   3.120   2.884
 3735SOL    HW111235   3.802   3.119   2.984
 3735SOL    HW211236   3.724   3.079   2.846
 3736SOL     OW11237   4.412   3.524   3.578
 3736SOL    HW111238   4.356   3.605   3.587
 3736SOL    HW211239   4.464   3.528   3.492
 3737SOL     OW11240   5.112   3.435   2.339
 3737SOL    HW111241   5.179   3.447   2.265
 3737SOL    HW211242   5.072   3.524   2.362
 3738SOL     OW11243   3.854   3.656   3.713
 3738SOL    HW111244   3.813   3.582   3.766
 3738SOL    HW211245   3.918   3.707   3.771
 3739SOL     OW11246   4.554   3.135   3.284
 3739SOL    HW111247   4.549   3.168   3.379
 3739SOL    HW211248   4.468   3.154   3.238
 3740SOL     OW11249   4.396   3.478   2.016
 3740SOL    HW111250   4.405   3.488   1.917
 3740SOL    HW211251   4.356   3.389   2.037
 3741SOL     OW11252   3.987   2.188   2.582
 3741SOL    HW111253   3.908   2.239   2.548
 3741SOL    HW211254   3.978   2.173   2.680
 3742SOL     OW11255   4.918   3.474   1.893
 3742SOL    HW111256   4.924   3.381   1.930
 3742SOL    HW211257   4.859   3.474   1.813
 3743SOL     OW11258   4.546   2.864   3.234
 3743SOL    HW111259   4.586   2.863   3.142
 3743SOL    HW211260   4.556   2.956   3.274
 3744SOL     OW11261   4.640   2.772   2.153
 3744SOL    HW111262   4.703   2.810   2.085
 3744SOL    HW211263   4.680   2.689   2.192
 3745SOL     OW11264   4.096   3.150   3.352
 3745SOL    HW111265   4.083   3.243   3.318
 3745SOL    HW211266   4.012   3.098   3.339
 3746SOL     OW11267   4.763   2.960   2.558
 3746SOL    HW111268   4.693   2.913   2.612
 3746SOL    HW211269   4.822   2.892   2.515
 3747SOL     OW11270   4.738   2.098   2.833
 3747SOL    HW111271   4.730   2.062   2.740
 3747SOL    HW211272   4.736   2.022   2.898
 3748SOL     OW11273   4.314   3.349   2.353
 3748SOL    HW111274   4.356   3.291   2.283
 3748SOL    HW211275   4.270   3.428   2.309
 3749SOL     OW11276   3.979   3.210   2.152
 3749SOL    HW111277   3.883   3.211   2.125
 3749SOL    HW211278   3.991   3.263   2.236
 3750SOL     OW11279   3.829   2.875   3.588
 3750SOL    HW111280   3.752   2.842   3.642
 3750SOL    HW211281   3.914   2.845   3.630
 3751SOL     OW11282   4.396   2.065   3.351
 3751SOL    HW111283   4.486   2.049   3.311
 3751SOL    HW211284   4.404   2.070   3.450
 3752SOL     OW11285   3.799   2.207   1.895
 3752SOL    HW111286   3.707   2.179   1.866
 3752SOL    HW211287   3.830   2.284   1.839
 3753SOL     OW11288   3.796   2.028   2.180
 3753SOL    HW111289   3.779   2.111   2.126
 3753SOL    HW211290   3.886   1.991   2.158
 3754SOL     OW11291   4.337   2.704   3.293
 3754SOL    HW111292   4.393   2.785   3.276
 3754SOL    HW211293   4.396   2.624   3.296
 3755SOL     OW11294   4.440   2.427   3.570
 3755SOL    HW111295   4.459   2.492   3.644
 3755SOL    HW211296   4.500   2.347   3.579
 3756SOL     OW11297   4.114   3.603   3.422
 3756SOL    HW111298   4.023   3.644   3.420
 3756SOL    HW211299   4.107   3.509   3.454
 3757SOL     OW11300   4.318   2.607   2.514
 3757SOL    HW111301   4.368   2.692   2.495
 3757SOL    HW211302   4.230   2.609   2.466
 3758SOL     OW11303   4.583   3.236   1.878
 3758SOL    HW111304   4.537   3.251   1.966
 3758SOL    HW211305   4.627   3.321   1.848
 3759SOL     OW11306   4.385   3.652   2.815
 3759SOL    HW111307   4.339   3.740   2.802
 3759SOL    HW211308   4.484   3.664   2.808
 3760SOL     OW11309   4.583   2.818   2.723
 3760SOL    HW111310   4.637   2.749   2.771
 3760SOL    HW211311   4.551   2.887   2.789
 3761SOL     OW11312   4.807   2.846   1.949
 3761SOL    HW111313   4.784   2.899   1.867
 3761SOL    HW211314   4.888   2.790   1.930
 3762SOL     OW11315   3.945   3.176   3.706
 3762SOL    HW111316   3.880   3.103   3.685
 3762SOL    HW211317   3.949   3.190   3.804
 3763SOL     OW11318   3.803   3.102   2.515
 3763SOL    HW111319   3.802   3.055   2.603
 3763SOL    HW211320   3.885   3.074   2.464
 3764SOL     OW11321   4.396   3.253   3.486
 3764SOL    HW111322   4.318   3.203   3.524
 3764SOL    HW211323   4.393   3.348   3.517
 3765SOL     OW11324   4.152   2.286   2.382
 3765SOL    HW111325   4.182   2.214   2.320
 3765SOL    HW211326   4.113   2.246   2.465
 3766SOL     OW11327   4.041   2.409   3.142
 3766SOL    HW111328   4.079   2.350   3.214
 3766SOL    HW211329   4.081   2.383   3.054
 3767SOL     OW11330   4.536   3.448   2.549
 3767SOL    HW111331   4.568   3.458   2.455
 3767SOL    HW211332   4.457   3.386   2.551
 3768SOL     OW11333   4.725   1.896   3.016
 3768SOL    HW111334   4.662   1.824   2.985
 3768SOL    HW211335   4.818   1.860   3.016
 3769SOL     OW11336   4.494   3.192   2.163
 3769SOL    HW111337   4.448   3.105   2.180
 3769SOL    HW211338   4.585   3.189   2.204
 3770SOL     OW11339   4.342   3.429   3.146
 3770SOL    HW111340   4.337   3.511   3.203
 3770SOL    HW211341   4.431   3.426   3.101
 3771SOL     OW11342   3.763   2.939   2.162
 3771SOL    HW111343   3.862   2.928   2.153
 3771SOL    HW211344   3.723   2.853   2.194
 3772SOL     OW11345   4.599   3.508   2.199
 3772SOL    HW111346   4.522   3.473   2.145
 3772SOL    HW211347   4.567   3.579   2.261
 3773SOL     OW11348   3.954   2.490   3.837
 3773SOL    HW111349   3.861   2.488   3.874
 3773SOL    HW211350   3.955   2.451   3.745
 3774SOL     OW11351   3.949   2.137   4.720
 3774SOL    HW111352   3.984   2.120   4.812
 3774SOL    HW211353   3.861   2.092   4.708
 3775SOL     OW11354   3.743   2.230   4.371
 3775SOL    HW111355   3.661   2.273   4.410
 3775SOL    HW211356   3.715   2.157   4.308
 3776SOL     OW11357   4.293   3.137   4.889
 3776SOL    HW111358   4.200   3.130   4.852
 3776SOL    HW211359   4.304   3.226   4.933
 3777SOL     OW11360   4.859   2.565   4.441
 3777SOL    HW111361   4.916   2.643   4.416
 3777SOL    HW211362   4.799   2.591   4.517
 3778SOL     OW11363   4.492   3.006   4.747
 3778SOL    HW111364   4.414   3.023   4.807
 3778SOL    HW211365   4.526   3.093   4.711
 3779SOL     OW11366   4.409   2.874   4.389
 3779SOL    HW111367   4.478   2.858   4.459
 3779SOL    HW211368   4.336   2.931   4.427
 3780SOL     OW11369   4.059   3.297   4.785
 3780SOL    HW111370   3.981   3.266   4.732
 3780SOL    HW211371   4.117   3.355   4.728
 3781SOL     OW11372   3.955   3.575   4.207
 3781SOL    HW111373   3.989   3.652   4.261
 3781SOL    HW211374   3.999   3.575   4.117
 3782SOL     OW11375   3.954   3.296   4.262
 3782SOL    HW111376   3.928   3.392   4.262
 3782SOL    HW211377   3.883   3.242   4.307
 3783SOL     OW11378   3.964   2.953   4.610
 3783SOL    HW111379   3.978   2.869   4.662
 3783SOL    HW211380   3.909   3.017   4.665
 3784SOL     OW11381   4.330   2.826   3.847
 3784SOL    HW111382   4.337   2.910   3.793
 3784SOL    HW211383   4.376   2.839   3.935
 3785SOL     OW11384   3.846   2.505   4.287
 3785SOL    HW111385   3.801   2.417   4.304
 3785SOL    HW211386   3.845   2.559   4.371
 3786SOL     OW11387   3.751   3.458   3.841
 3786SOL    HW111388   3.732   3.362   3.862
 3786SOL    HW211389   3.718   3.516   3.916
 3787SOL     OW11390   3.837   2.599   5.321
 3787SOL    HW111391   3.925   2.586   5.366
 3787SOL    HW211392   3.824   2.696   5.299
 3788SOL     OW11393   4.337   3.227   4.450
 3788SOL    HW111394   4.288   3.140   4.459
 3788SOL    HW211395   4.314   3.270   4.363
 3789SOL     OW11396   4.533   1.866   4.226
 3789SOL    HW111397   4.573   1.957   4.217
 3789SOL    HW211398   4.433   1.874   4.232
 3790SOL     OW11399   3.921   2.838   4.988
 3790SOL    HW111400   4.010   2.793   4.974
 3790SOL    HW211401   3.848   2.773   4.969
 3791SOL     OW11402   4.322   2.591   3.994
 3791SOL    HW111403   4.346   2.660   3.926
 3791SOL    HW211404   4.244   2.624   4.048
 3792SOL     OW11405   4.715   2.272   4.966
 3792SOL    HW111406   4.638   2.306   5.020
 3792SOL    HW211407   4.681   2.221   4.887
 3793SOL     OW11408   4.765   2.563   4.153
 3793SOL    HW111409   4.791   2.559   4.249
 3793SOL    HW211410   4.680   2.512   4.139
 3794SOL     OW11411   3.800   2.673   4.513
 3794SOL    HW111412   3.899   2.661   4.522
 3794SOL    HW211413   3.776   2.768   4.534
 3795SOL     OW11414   4.589   2.210   3.919
 3795SOL    HW111415   4.648   2.273   3.870
 3795SOL    HW211416   4.608   2.116   3.890
 3796SOL     OW11417   4.274   2.058   4.609
 3796SOL    HW111418   4.269   2.053   4.709
 3796SOL    HW211419   4.276   2.154   4.580
 3797SOL     OW11420   4.732   3.318   4.201
 3797SOL    HW111421   4.686   3.390   4.149
 3797SOL    HW211422   4.728   3.338   4.299
 3798SOL     OW11423   4.075   3.663   4.577
 3798SOL    HW111424   4.125   3.577   4.583
 3798SOL    HW211425   4.140   3.740   4.574
 3799SOL     OW11426   4.045   2.805   3.966
 3799SOL    HW111427   4.127   2.844   3.924
 3799SOL    HW211428   4.018   2.723   3.917
 3800SOL     OW11429   4.835   3.638   3.961
 3800SOL    HW111430   4.775   3.576   4.011
 3800SOL    HW211431   4.866   3.594   3.876
 3801SOL     OW11432   4.188   3.605   4.047
 3801SOL    HW111433   4.221   3.644   4.133
 3801SOL    HW211434   4.264   3.598   3.982
 3802SOL     OW11435   3.973   3.647   4.965
 3802SOL    HW111436   4.030   3.582   5.015
 3802SOL    HW211437   3.957   3.614   4.872
 3803SOL     OW11438   4.664   3.560   4.628
 3803SOL    HW111439   4.744   3.503   4.649
 3803SOL    HW211440   4.615   3.520   4.551
 3804SOL     OW11441   4.106   2.562   4.204
 3804SOL    HW111442   4.151   2.472   4.201
 3804SOL    HW211443   4.012   2.551   4.237
 3805SOL     OW11444   4.338   1.984   3.841
 3805SOL    HW111445   4.436   1.962   3.848
 3805SOL    HW211446   4.307   1.967   3.748
 3806SOL     OW11447   4.527   3.264   4.648
 3806SOL    HW111448   4.617   3.278   4.606
 3806SOL    HW211449   4.456   3.266   4.577
 3807SOL     OW11450   4.646   2.365   4.623
 3807SOL    HW111451   4.621   2.356   4.527
 3807SOL    HW211452   4.694   2.283   4.654
 3808SOL     OW11453   4.263   1.926   4.236
 3808SOL    HW111454   4.182   1.927   4.294
 3808SOL    HW211455   4.266   2.009   4.181
 3809SOL     OW11456   4.021   1.897   3.895
 3809SOL    HW111457   4.070   1.981   3.874
 3809SOL    HW211458   4.083   1.832   3.940
 3810SOL     OW11459   4.659   2.098   4.204
 3810SOL    HW111460   4.611   2.139   4.126
 3810SOL    HW211461   4.758   2.096   4.185
 3811SOL     OW11462   4.951   3.432   4.517
 3811SOL    HW111463   4.972   3.506   4.452
 3811SOL    HW211464   5.019   3.432   4.590
 3812SOL     OW11465   4.183   3.014   4.465
 3812SOL    HW111466   4.112   2.987   4.530
 3812SOL    HW211467   4.157   2.986   4.372
 3813SOL     OW11468   4.995   3.659   4.315
 3813SOL    HW111469   5.039   3.723   4.251
 3813SOL    HW211470   4.945   3.711   4.385
 3814SOL     OW11471   4.756   2.411   3.740
 3814SOL    HW111472   4.715   2.493   3.701
 3814SOL    HW211473   4.820   2.437   3.813
 3815SOL     OW11474   4.285   2.084   4.871
 3815SOL    HW111475   4.323   2.000   4.908
 3815SOL    HW211476   4.197   2.103   4.915
 3816SOL     OW11477   4.590   2.316   4.366
 3816SOL    HW111478   4.558   2.388   4.304
 3816SOL    HW211479   4.614   2.235   4.313
 3817SOL     OW11480   4.741   1.901   4.477
 3817SOL    HW111481   4.669   1.906   4.408
 3817SOL    HW211482   4.717   1.832   4.546
 3818SOL     OW11483   4.212   3.247   3.898
 3818SOL    HW111484   4.125   3.232   3.945
 3818SOL    HW211485   4.195   3.273   3.803
 3819SOL     OW11486   4.251   2.118   4.052
 3819SOL    HW111487   4.278   2.059   3.977
 3819SOL    HW211488   4.251   2.213   4.021
 3820SOL     OW11489   4.835   3.057   4.824
 3820SOL    HW111490   4.795   3.101   4.905
 3820SOL    HW211491   4.794   3.094   4.741
 3821SOL     OW11492   4.429   2.912   4.092
 3821SOL    HW111493   4.415   2.919   4.191
 3821SOL    HW211494   4.513   2.861   4.074
 3822SOL     OW11495   4.134   2.675   4.975
 3822SOL    HW111496   4.220   2.687   5.025
 3822SOL    HW211497   4.092   2.588   5.002
 3823SOL     OW11498   4.091   2.962   4.225
 3823SOL    HW111499   4.084   3.045   4.169
 3823SOL    HW211500   4.095   2.882   4.165
 3824SOL     OW11501   4.290   2.399   4.589
 3824SOL    HW111502   4.302   2.465   4.515
 3824SOL    HW211503   4.336   2.433   4.672
 3825SOL     OW11504   4.976   3.210   4.112
 3825SOL    HW111505   5.026   3.287   4.152
 3825SOL    HW211506   4.881   3.212   4.144
 3826SOL     OW11507   4.078   3.372   5.053
 3826SOL    HW111508   4.057   3.328   4.966
 3826SOL    HW211509   4.175   3.398   5.056
 3827SOL     OW11510   4.297   2.732   4.753
 3827SOL    HW111511   4.341   2.821   4.744
 3827SOL    HW211512   4.234   2.732   4.830
 3828SOL     OW11513   5.084   2.724   4.769
 3828SOL    HW111514   5.009   2.724   4.703
 3828SOL    HW211515   5.121   2.632   4.778
 3829SOL     OW11516   4.933   2.387   3.999
 3829SOL    HW111517   4.946   2.303   4.053
 3829SOL    HW211518   4.904   2.461   4.059
 3830SOL     OW11519   4.031   2.075   4.955
 3830SOL    HW111520   4.008   2.112   5.045
 3830SOL    HW211521   4.001   1.980   4.949
 3831SOL     OW11522   3.761   3.172   5.006
 3831SOL    HW111523   3.814   3.123   5.074
 3831SOL    HW211524   3.783   3.270   5.011
 3832SOL     OW11525   4.456   2.496   4.788
 3832SOL    HW111526   4.515   2.470   4.712
 3832SOL    HW211527   4.428   2.592   4.777
 3833SOL     OW11528   4.031   1.925   4.342
 3833SOL    HW111529   4.020   2.019   4.375
 3833SOL    HW211530   4.026   1.862   4.419
 3834SOL     OW11531   5.346   2.229   4.098
 3834SOL    HW111532   5.348   2.153   4.162
 3834SOL    HW211533   5.298   2.306   4.138
 3835SOL     OW11534   4.747   2.628   4.690
 3835SOL    HW111535   4.762   2.649   4.786
 3835SOL    HW211536   4.717   2.533   4.681
 3836SOL     OW11537   5.264   2.136   3.849
 3836SOL    HW111538   5.203   2.061   3.872
 3836SOL    HW211539   5.286   2.188   3.932
 3837SOL     OW11540   4.792   3.195   4.573
 3837SOL    HW111541   4.799   3.111   4.518
 3837SOL    HW211542   4.854   3.264   4.537
 3838SOL     OW11543   4.043   2.672   4.673
 3838SOL    HW111544   4.136   2.708   4.678
 3838SOL    HW211545   4.037   2.587   4.725
 3839SOL     OW11546   4.063   2.371   4.730
 3839SOL    HW111547   4.011   2.288   4.713
 3839SOL    HW211548   4.140   2.376   4.666
 3840SOL     OW11549   4.884   2.069   5.201
 3840SOL    HW111550   4.884   2.133   5.278
 3840SOL    HW211551   4.912   2.117   5.118
 3841SOL     OW11552   3.732   3.188   3.924
 3841SOL    HW111553   3.639   3.209   3.893
 3841SOL    HW211554   3.742   3.089   3.937
 3842SOL     OW11555   3.812   3.663   4.651
 3842SOL    HW111556   3.770   3.577   4.624
 3842SOL    HW211557   3.906   3.666   4.617
 3843SOL     OW11558   4.228   3.430   4.634
 3843SOL    HW111559   4.294   3.504   4.643
 3843SOL    HW211560   4.272   3.351   4.592
 3844SOL     OW11561   4.726   2.658   4.962
 3844SOL    HW111562   4.767   2.626   5.048
 3844SOL    HW211563   4.630   2.631   4.959
 3845SOL     OW11564   3.764   2.406   4.838
 3845SOL    HW111565   3.849   2.373   4.797
 3845SOL    HW211566   3.777   2.421   4.936
 3846SOL     OW11567   4.539   2.434   4.049
 3846SOL    HW111568   4.546   2.345   4.003
 3846SOL    HW211569   4.445   2.468   4.041
 3847SOL     OW11570   4.395   2.326   4.993
 3847SOL    HW111571   4.361   2.237   4.963
 3847SOL    HW211572   4.421   2.380   4.913
 3848SOL     OW11573   4.654   3.540   5.189
 3848SOL    HW111574   4.630   3.522   5.094
 3848SOL    HW211575   4.684   3.634   5.199
 3849SOL     OW11576   4.197   2.362   3.915
 3849SOL    HW111577   4.258   2.442   3.919
 3849SOL    HW211578   4.102   2.393   3.922
 3850SOL     OW11579   5.071   2.921   4.958
 3850SOL    HW111580   5.095   2.858   4.884
 3850SOL    HW211581   4.981   2.961   4.940
 3851SOL     OW11582   4.976   3.593   4.852
 3851SOL    HW111583   5.060   3.598   4.798
 3851SOL    HW211584   4.953   3.497   4.870
 3852SOL     OW11585   3.807   3.120   4.746
 3852SOL    HW111586   3.802   3.119   4.846
 3852SOL    HW211587   3.724   3.079   4.708
 3853SOL     OW11588   5.112   3.435   4.201
 3853SOL    HW111589   5.179   3.447   4.127
 3853SOL    HW211590   5.072   3.524   4.224
 3854SOL     OW11591   4.396   3.478   3.878
 3854SOL    HW111592   4.405   3.488   3.779
 3854SOL    HW211593   4.356   3.389   3.899
 3855SOL     OW11594   3.987   2.188   4.444
 3855SOL    HW111595   3.908   2.239   4.410
 3855SOL    HW211596   3.978   2.173   4.542
 3856SOL     OW11597   4.918   3.474   3.755
 3856SOL    HW111598   4.924   3.381   3.792
 3856SOL    HW211599   4.859   3.474   3.675
 3857SOL     OW11600   4.546   2.864   5.096
 3857SOL    HW111601   4.586   2.863   5.004
 3857SOL    HW211602   4.556   2.956   5.136
 3858SOL     OW11603   4.640   2.772   4.015
 3858SOL    HW111604   4.703   2.810   3.947
 3858SOL    HW211605   4.680   2.689   4.054
 3859SOL     OW11606   5.338   3.154   5.013
 3859SOL    HW111607   5.398   3.157   5.093
 3859SOL    HW211608   5.263   3.218   5.026
 3860SOL     OW11609   4.763   2.960   4.420
 3860SOL    HW111610   4.693   2.913   4.474
 3860SOL    HW211611   4.822   2.892   4.377
 3861SOL     OW11612   4.738   2.098   4.695
 3861SOL    HW111613   4.730   2.062   4.602
 3861SOL    HW211614   4.736   2.022   4.760
 3862SOL     OW11615   4.314   3.349   4.215
 3862SOL    HW111616   4.356   3.291   4.145
 3862SOL    HW211617   4.270   3.428   4.171
 3863SOL     OW11618   3.979   3.210   4.014
 3863SOL    HW111619   3.883   3.211   3.987
 3863SOL    HW211620   3.991   3.263   4.098
 3864SOL     OW11621   3.799   2.207   3.757
 3864SOL    HW111622   3.707   2.179   3.728
 3864SOL    HW211623   3.830   2.284   3.701
 3865SOL     OW11624   3.796   2.028   4.042
 3865SOL    HW111625   3.779   2.111   3.988
 3865SOL    HW211626   3.886   1.991   4.020
 3866SOL     OW11627   4.318   2.607   4.376
 3866SOL    HW111628   4.368   2.692   4.357
 3866SOL    HW211629   4.230   2.609   4.328
 3867SOL     OW11630   4.583   3.236   3.740
 3867SOL    HW111631   4.537   3.251   3.828
 3867SOL    HW211632   4.627   3.321   3.710
 3868SOL     OW11633   4.385   3.652   4.677
 3868SOL    HW111634   4.339   3.740   4.664
 3868SOL    HW211635   4.484   3.664   4.670
 3869SOL     OW11636   4.583   2.818   4.585
 3869SOL    HW111637   4.637   2.749   4.633
 3869SOL    HW211638   4.551   2.887   4.651
 3870SOL     OW11639   4.807   2.846   3.811
 3870SOL    HW111640   4.784   2.899   3.729
 3870SOL    HW211641   4.888   2.790   3.792
 3871SOL     OW11642   3.803   3.102   4.377
 3871SOL    HW111643   3.802   3.055   4.465
 3871SOL    HW211644   3.885   3.074   4.326
 3872SOL     OW11645   4.152   2.286   4.244
 3872SOL    HW111646   4.182   2.214   4.182
 3872SOL    HW211647   4.113   2.246   4.327
 3873SOL     OW11648   4.536   3.448   4.411
 3873SOL    HW111649   4.568   3.458   4.317
 3873SOL    HW211650   4.457   3.386   4.413
 3874SOL     OW11651   4.725   1.896   4.878
 3874SOL    HW111652   4.662   1.824   4.847
 3874SOL    HW211653   4.818   1.860   4.878
 3875SOL     OW11654   4.494   3.192   4.025
 3875SOL    HW111655   4.448   3.105   4.042
 3875SOL    HW211656   4.585   3.189   4.066
 3876SOL     OW11657   3.763   2.939   4.024
 3876SOL    HW111658   3.862   2.928   4.015
 3876SOL    HW211659   3.723   2.853   4.056
 3877SOL     OW11660   4.599   3.508   4.061
 3877SOL    HW111661   4.522   3.473   4.007
 3877SOL    HW211662   4.567   3.579   4.123
 3878SOL     OW11663   3.954   4.352   0.113
 3878SOL    HW111664   3.861   4.350   0.150
 3878SOL    HW211665   3.955   4.313   0.021
 3879SOL     OW11666   3.949   3.999   0.996
 3879SOL    HW111667   3.984   3.982   1.088
 3879SOL    HW211668   3.861   3.954   0.984
 3880SOL     OW11669   3.743   4.092   0.647
 3880SOL    HW111670   3.661   4.135   0.686
 3880SOL    HW211671   3.715   4.019   0.584
 3881SOL     OW11672   4.859   4.427   0.717
 3881SOL    HW111673   4.916   4.505   0.692
 3881SOL    HW211674   4.799   4.453   0.793
 3882SOL     OW11675   4.492   4.868   1.023
 3882SOL    HW111676   4.414   4.885   1.083
 3882SOL    HW211677   4.526   4.955   0.987
 3883SOL     OW11678   4.574   4.522   1.823
 3883SOL    HW111679   4.570   4.598   1.888
 3883SOL    HW211680   4.596   4.558   1.732
 3884SOL     OW11681   4.409   4.736   0.665
 3884SOL    HW111682   4.478   4.720   0.735
 3884SOL    HW211683   4.336   4.793   0.703
 3885SOL     OW11684   4.410   4.885   1.803
 3885SOL    HW111685   4.470   4.964   1.817
 3885SOL    HW211686   4.324   4.916   1.762
 3886SOL     OW11687   4.059   5.159   1.061
 3886SOL    HW111688   3.981   5.128   1.008
 3886SOL    HW211689   4.117   5.217   1.004
 3887SOL     OW11690   4.162   4.116   1.499
 3887SOL    HW111691   4.244   4.060   1.508
 3887SOL    HW211692   4.081   4.058   1.503
 3888SOL     OW11693   3.964   4.815   0.886
 3888SOL    HW111694   3.978   4.731   0.938
 3888SOL    HW211695   3.909   4.879   0.941
 3889SOL     OW11696   4.330   4.688   0.123
 3889SOL    HW111697   4.337   4.772   0.069
 3889SOL    HW211698   4.376   4.701   0.211
 3890SOL     OW11699   3.846   4.367   0.563
 3890SOL    HW111700   3.801   4.279   0.580
 3890SOL    HW211701   3.845   4.421   0.647
 3891SOL     OW11702   3.837   4.461   1.597
 3891SOL    HW111703   3.925   4.448   1.642
 3891SOL    HW211704   3.824   4.558   1.575
 3892SOL     OW11705   4.533   3.728   0.502
 3892SOL    HW111706   4.573   3.819   0.493
 3892SOL    HW211707   4.433   3.736   0.508
 3893SOL     OW11708   3.921   4.700   1.264
 3893SOL    HW111709   4.010   4.655   1.250
 3893SOL    HW211710   3.848   4.635   1.245
 3894SOL     OW11711   4.041   3.975   1.801
 3894SOL    HW111712   4.112   4.046   1.807
 3894SOL    HW211713   3.953   4.014   1.829
 3895SOL     OW11714   4.322   4.453   0.270
 3895SOL    HW111715   4.346   4.522   0.202
 3895SOL    HW211716   4.244   4.486   0.324
 3896SOL     OW11717   4.531   4.329   1.465
 3896SOL    HW111718   4.484   4.326   1.554
 3896SOL    HW211719   4.480   4.274   1.399
 3897SOL     OW11720   4.697   4.614   1.572
 3897SOL    HW111721   4.743   4.530   1.543
 3897SOL    HW211722   4.641   4.648   1.497
 3898SOL     OW11723   4.715   4.134   1.242
 3898SOL    HW111724   4.638   4.168   1.296
 3898SOL    HW211725   4.681   4.083   1.163
 3899SOL     OW11726   4.765   4.425   0.429
 3899SOL    HW111727   4.791   4.421   0.525
 3899SOL    HW211728   4.680   4.374   0.415
 3900SOL     OW11729   3.800   4.535   0.789
 3900SOL    HW111730   3.899   4.523   0.798
 3900SOL    HW211731   3.776   4.630   0.810
 3901SOL     OW11732   4.589   4.072   0.195
 3901SOL    HW111733   4.648   4.135   0.146
 3901SOL    HW211734   4.608   3.978   0.166
 3902SOL     OW11735   4.274   3.920   0.885
 3902SOL    HW111736   4.269   3.915   0.985
 3902SOL    HW211737   4.276   4.016   0.856
 3903SOL     OW11738   4.045   4.667   0.242
 3903SOL    HW111739   4.127   4.706   0.200
 3903SOL    HW211740   4.018   4.585   0.193
 3904SOL     OW11741   3.926   4.009   1.498
 3904SOL    HW111742   3.846   4.069   1.485
 3904SOL    HW211743   3.916   3.960   1.584
 3905SOL     OW11744   4.106   4.424   0.480
 3905SOL    HW111745   4.151   4.334   0.477
 3905SOL    HW211746   4.012   4.413   0.513
 3906SOL     OW11747   4.338   3.846   0.117
 3906SOL    HW111748   4.436   3.824   0.124
 3906SOL    HW211749   4.307   3.829   0.024
 3907SOL     OW11750   4.505   3.988   1.749
 3907SOL    HW111751   4.572   3.927   1.792
 3907SOL    HW211752   4.432   4.007   1.814
 3908SOL     OW11753   4.527   5.126   0.924
 3908SOL    HW111754   4.617   5.140   0.882
 3908SOL    HW211755   4.456   5.128   0.853
 3909SOL     OW11756   4.646   4.227   0.899
 3909SOL    HW111757   4.621   4.218   0.803
 3909SOL    HW211758   4.694   4.145   0.930
 3910SOL     OW11759   4.263   3.788   0.512
 3910SOL    HW111760   4.182   3.789   0.570
 3910SOL    HW211761   4.266   3.871   0.457
 3911SOL     OW11762   4.021   3.759   0.171
 3911SOL    HW111763   4.070   3.843   0.150
 3911SOL    HW211764   4.083   3.694   0.216
 3912SOL     OW11765   4.659   3.960   0.480
 3912SOL    HW111766   4.611   4.001   0.402
 3912SOL    HW211767   4.758   3.958   0.461
 3913SOL     OW11768   4.800   4.407   1.464
 3913SOL    HW111769   4.720   4.346   1.467
 3913SOL    HW211770   4.881   4.354   1.440
 3914SOL     OW11771   4.183   4.876   0.741
 3914SOL    HW111772   4.112   4.849   0.806
 3914SOL    HW211773   4.157   4.848   0.648
 3915SOL     OW11774   4.756   4.273   0.016
 3915SOL    HW111775   4.715   4.355  -0.023
 3915SOL    HW211776   4.820   4.299   0.089
 3916SOL     OW11777   3.802   4.280   1.386
 3916SOL    HW111778   3.894   4.279   1.345
 3916SOL    HW211779   3.796   4.354   1.453
 3917SOL     OW11780   4.285   3.946   1.147
 3917SOL    HW111781   4.323   3.862   1.184
 3917SOL    HW211782   4.197   3.965   1.191
 3918SOL     OW11783   4.590   4.178   0.642
 3918SOL    HW111784   4.558   4.250   0.580
 3918SOL    HW211785   4.614   4.097   0.589
 3919SOL     OW11786   4.741   3.763   0.753
 3919SOL    HW111787   4.669   3.768   0.684
 3919SOL    HW211788   4.717   3.694   0.822
 3920SOL     OW11789   4.251   3.980   0.328
 3920SOL    HW111790   4.278   3.921   0.253
 3920SOL    HW211791   4.251   4.075   0.297
 3921SOL     OW11792   4.639   3.813   1.402
 3921SOL    HW111793   4.664   3.793   1.307
 3921SOL    HW211794   4.711   3.869   1.444
 3922SOL     OW11795   4.704   4.840   1.719
 3922SOL    HW111796   4.605   4.846   1.729
 3922SOL    HW211797   4.727   4.760   1.663
 3923SOL     OW11798   4.429   4.774   0.368
 3923SOL    HW111799   4.415   4.781   0.467
 3923SOL    HW211800   4.513   4.723   0.350
 3924SOL     OW11801   4.134   4.537   1.251
 3924SOL    HW111802   4.220   4.549   1.301
 3924SOL    HW211803   4.092   4.450   1.278
 3925SOL     OW11804   4.091   4.824   0.501
 3925SOL    HW111805   4.084   4.907   0.445
 3925SOL    HW211806   4.095   4.744   0.441
 3926SOL     OW11807   4.290   4.261   0.865
 3926SOL    HW111808   4.302   4.327   0.791
 3926SOL    HW211809   4.336   4.295   0.948
 3927SOL     OW11810   4.976   5.072   0.388
 3927SOL    HW111811   5.026   5.149   0.428
 3927SOL    HW211812   4.881   5.074   0.420
 3928SOL     OW11813   4.126   4.475   1.598
 3928SOL    HW111814   4.194   4.530   1.551
 3928SOL    HW211815   4.166   4.387   1.625
 3929SOL     OW11816   4.737   3.829   1.770
 3929SOL    HW111817   4.743   3.914   1.718
 3929SOL    HW211818   4.769   3.753   1.713
 3930SOL     OW11819   4.228   3.774   1.740
 3930SOL    HW111820   4.186   3.717   1.670
 3930SOL    HW211821   4.162   3.843   1.772
 3931SOL     OW11822   4.297   4.594   1.029
 3931SOL    HW111823   4.341   4.683   1.020
 3931SOL    HW211824   4.234   4.594   1.106
 3932SOL     OW11825   5.084   4.586   1.045
 3932SOL    HW111826   5.009   4.586   0.979
 3932SOL    HW211827   5.121   4.494   1.054
 3933SOL     OW11828   4.933   4.249   0.275
 3933SOL    HW111829   4.946   4.165   0.329
 3933SOL    HW211830   4.904   4.323   0.335
 3934SOL     OW11831   4.031   3.937   1.231
 3934SOL    HW111832   4.008   3.974   1.321
 3934SOL    HW211833   4.001   3.842   1.225
 3935SOL     OW11834   4.456   4.358   1.064
 3935SOL    HW111835   4.515   4.332   0.988
 3935SOL    HW211836   4.428   4.454   1.053
 3936SOL     OW11837   4.031   3.787   0.618
 3936SOL    HW111838   4.020   3.881   0.651
 3936SOL    HW211839   4.026   3.724   0.695
 3937SOL     OW11840   5.346   4.091   0.374
 3937SOL    HW111841   5.348   4.015   0.438
 3937SOL    HW211842   5.298   4.168   0.414
 3938SOL     OW11843   4.747   4.490   0.966
 3938SOL    HW111844   4.762   4.511   1.062
 3938SOL    HW211845   4.717   4.395   0.957
 3939SOL     OW11846   4.074   4.622   1.804
 3939SOL    HW111847   4.150   4.666   1.852
 3939SOL    HW211848   4.109   4.575   1.722
 3940SOL     OW11849   4.043   4.534   0.949
 3940SOL    HW111850   4.136   4.570   0.954
 3940SOL    HW211851   4.037   4.449   1.001
 3941SOL     OW11852   4.063   4.233   1.006
 3941SOL    HW111853   4.011   4.150   0.989
 3941SOL    HW211854   4.140   4.238   0.942
 3942SOL     OW11855   4.862   4.104   1.678
 3942SOL    HW111856   4.817   4.167   1.742
 3942SOL    HW211857   4.955   4.135   1.661
 3943SOL     OW11858   4.884   3.931   1.477
 3943SOL    HW111859   4.884   3.995   1.554
 3943SOL    HW211860   4.912   3.979   1.394
 3944SOL     OW11861   4.726   4.520   1.238
 3944SOL    HW111862   4.767   4.488   1.324
 3944SOL    HW211863   4.630   4.493   1.235
 3945SOL     OW11864   3.764   4.268   1.114
 3945SOL    HW111865   3.849   4.235   1.073
 3945SOL    HW211866   3.777   4.283   1.212
 3946SOL     OW11867   3.913   4.244   1.722
 3946SOL    HW111868   3.972   4.204   1.652
 3946SOL    HW211869   3.855   4.315   1.681
 3947SOL     OW11870   4.539   4.296   0.325
 3947SOL    HW111871   4.546   4.207   0.279
 3947SOL    HW211872   4.445   4.330   0.317
 3948SOL     OW11873   4.395   4.188   1.269
 3948SOL    HW111874   4.361   4.099   1.239
 3948SOL    HW211875   4.421   4.242   1.189
 3949SOL     OW11876   4.197   4.224   0.191
 3949SOL    HW111877   4.258   4.304   0.195
 3949SOL    HW211878   4.102   4.255   0.198
 3950SOL     OW11879   3.883   4.861   1.466
 3950SOL    HW111880   3.905   4.800   1.542
 3950SOL    HW211881   3.893   4.812   1.380
 3951SOL     OW11882   5.071   4.783   1.234
 3951SOL    HW111883   5.095   4.720   1.160
 3951SOL    HW211884   4.981   4.823   1.216
 3952SOL     OW11885   3.807   4.982   1.022
 3952SOL    HW111886   3.802   4.981   1.122
 3952SOL    HW211887   3.724   4.941   0.984
 3953SOL     OW11888   4.627   3.810   0.133
 3953SOL    HW111889   4.678   3.811   0.047
 3953SOL    HW211890   4.683   3.768   0.204
 3954SOL     OW11891   3.987   4.050   0.720
 3954SOL    HW111892   3.908   4.101   0.686
 3954SOL    HW211893   3.978   4.035   0.818
 3955SOL     OW11894   4.546   4.726   1.372
 3955SOL    HW111895   4.586   4.725   1.280
 3955SOL    HW211896   4.556   4.818   1.412
 3956SOL     OW11897   4.640   4.634   0.291
 3956SOL    HW111898   4.703   4.672   0.223
 3956SOL    HW211899   4.680   4.551   0.330
 3957SOL     OW11900   4.096   5.012   1.490
 3957SOL    HW111901   4.083   5.105   1.456
 3957SOL    HW211902   4.012   4.960   1.477
 3958SOL     OW11903   4.763   4.822   0.696
 3958SOL    HW111904   4.693   4.775   0.750
 3958SOL    HW211905   4.822   4.754   0.653
 3959SOL     OW11906   4.738   3.960   0.971
 3959SOL    HW111907   4.730   3.924   0.878
 3959SOL    HW211908   4.736   3.884   1.036
 3960SOL     OW11909   3.829   4.737   1.726
 3960SOL    HW111910   3.752   4.704   1.780
 3960SOL    HW211911   3.914   4.707   1.768
 3961SOL     OW11912   4.396   3.927   1.489
 3961SOL    HW111913   4.486   3.911   1.449
 3961SOL    HW211914   4.404   3.932   1.588
 3962SOL     OW11915   3.796   3.890   0.318
 3962SOL    HW111916   3.779   3.973   0.264
 3962SOL    HW211917   3.886   3.853   0.296
 3963SOL     OW11918   4.337   4.566   1.431
 3963SOL    HW111919   4.393   4.647   1.414
 3963SOL    HW211920   4.396   4.486   1.434
 3964SOL     OW11921   4.440   4.289   1.708
 3964SOL    HW111922   4.459   4.354   1.782
 3964SOL    HW211923   4.500   4.209   1.717
 3965SOL     OW11924   5.174   4.944   1.633
 3965SOL    HW111925   5.165   4.934   1.732
 3965SOL    HW211926   5.270   4.937   1.607
 3966SOL     OW11927   4.318   4.469   0.652
 3966SOL    HW111928   4.368   4.554   0.633
 3966SOL    HW211929   4.230   4.471   0.604
 3967SOL     OW11930   4.583   4.680   0.861
 3967SOL    HW111931   4.637   4.611   0.909
 3967SOL    HW211932   4.551   4.749   0.927
 3968SOL     OW11933   4.807   4.708   0.087
 3968SOL    HW111934   4.784   4.761   0.005
 3968SOL    HW211935   4.888   4.652   0.068
 3969SOL     OW11936   3.803   4.964   0.653
 3969SOL    HW111937   3.802   4.917   0.741
 3969SOL    HW211938   3.885   4.936   0.602
 3970SOL     OW11939   4.152   4.148   0.520
 3970SOL    HW111940   4.182   4.076   0.458
 3970SOL    HW211941   4.113   4.108   0.603
 3971SOL     OW11942   4.041   4.271   1.280
 3971SOL    HW111943   4.079   4.212   1.352
 3971SOL    HW211944   4.081   4.245   1.192
 3972SOL     OW11945   4.725   3.758   1.154
 3972SOL    HW111946   4.662   3.686   1.123
 3972SOL    HW211947   4.818   3.722   1.154
 3973SOL     OW11948   4.494   5.054   0.301
 3973SOL    HW111949   4.448   4.967   0.318
 3973SOL    HW211950   4.585   5.051   0.342
 3974SOL     OW11951   3.763   4.801   0.300
 3974SOL    HW111952   3.862   4.790   0.291
 3974SOL    HW211953   3.723   4.715   0.332
 3975SOL     OW11954   3.954   4.352   1.975
 3975SOL    HW111955   3.861   4.350   2.012
 3975SOL    HW211956   3.955   4.313   1.883
 3976SOL     OW11957   3.949   3.999   2.858
 3976SOL    HW111958   3.984   3.982   2.950
 3976SOL    HW211959   3.861   3.954   2.846
 3977SOL     OW11960   3.743   4.092   2.509
 3977SOL    HW111961   3.661   4.135   2.548
 3977SOL    HW211962   3.715   4.019   2.446
 3978SOL     OW11963   4.859   4.427   2.579
 3978SOL    HW111964   4.916   4.505   2.554
 3978SOL    HW211965   4.799   4.453   2.655
 3979SOL     OW11966   4.492   4.868   2.885
 3979SOL    HW111967   4.414   4.885   2.945
 3979SOL    HW211968   4.526   4.955   2.849
 3980SOL     OW11969   4.574   4.522   3.685
 3980SOL    HW111970   4.570   4.598   3.750
 3980SOL    HW211971   4.596   4.558   3.594
 3981SOL     OW11972   4.409   4.736   2.527
 3981SOL    HW111973   4.478   4.720   2.597
 3981SOL    HW211974   4.336   4.793   2.565
 3982SOL     OW11975   4.410   4.885   3.665
 3982SOL    HW111976   4.470   4.964   3.679
 3982SOL    HW211977   4.324   4.916   3.624
 3983SOL     OW11978   4.059   5.159   2.923
 3983SOL    HW111979   3.981   5.128   2.870
 3983SOL    HW211980   4.117   5.217   2.866
 3984SOL     OW11981   4.162   4.116   3.361
 3984SOL    HW111982   4.244   4.060   3.370
 3984SOL    HW211983   4.081   4.058   3.365
 3985SOL     OW11984   3.964   4.815   2.748
 3985SOL    HW111985   3.978   4.731   2.800
 3985SOL    HW211986   3.909   4.879   2.803
 3986SOL     OW11987   4.330   4.688   1.985
 3986SOL    HW111988   4.337   4.772   1.931
 3986SOL    HW211989   4.376   4.701   2.073
 3987SOL     OW11990   3.846   4.367   2.425
 3987SOL    HW111991   3.801   4.279   2.442
 3987SOL    HW211992   3.845   4.421   2.509
 3988SOL     OW11993   3.837   4.461   3.459
 3988SOL    HW111994   3.925   4.448   3.504
 3988SOL    HW211995   3.824   4.558   3.437
 3989SOL     OW11996   4.533   3.728   2.364
 3989SOL    HW111997   4.573   3.819   2.355
 3989SOL    HW211998   4.433   3.736   2.370
 3990SOL     OW11999   3.921   4.700   3.126
 3990SOL    HW112000   4.010   4.655   3.112
 3990SOL    HW212001   3.848   4.635   3.107
 3991SOL     OW12002   4.041   3.975   3.663
 3991SOL    HW112003   4.112   4.046   3.669
 3991SOL    HW212004   3.953   4.014   3.691
 3992SOL     OW12005   4.322   4.453   2.132
 3992SOL    HW112006   4.346   4.522   2.064
 3992SOL    HW212007   4.244   4.486   2.186
 3993SOL     OW12008   4.531   4.329   3.327
 3993SOL    HW112009   4.484   4.326   3.416
 3993SOL    HW212010   4.480   4.274   3.261
 3994SOL     OW12011   4.697   4.614   3.434
 3994SOL    HW112012   4.743   4.530   3.405
 3994SOL    HW212013   4.641   4.648   3.359
 3995SOL     OW12014   4.715   4.134   3.104
 3995SOL    HW112015   4.638   4.168   3.158
 3995SOL    HW212016   4.681   4.083   3.025
 3996SOL     OW12017   4.765   4.425   2.291
 3996SOL    HW112018   4.791   4.421   2.387
 3996SOL    HW212019   4.680   4.374   2.277
 3997SOL     OW12020   3.800   4.535   2.651
 3997SOL    HW112021   3.899   4.523   2.660
 3997SOL    HW212022   3.776   4.630   2.672
 3998SOL     OW12023   4.589   4.072   2.057
 3998SOL    HW112024   4.648   4.135   2.008
 3998SOL    HW212025   4.608   3.978   2.028
 3999SOL     OW12026   4.274   3.920   2.747
 3999SOL    HW112027   4.269   3.915   2.847
 3999SOL    HW212028   4.276   4.016   2.718
 4000SOL     OW12029   4.045   4.667   2.104
 4000SOL    HW112030   4.127   4.706   2.062
 4000SOL    HW212031   4.018   4.585   2.055
 4001SOL     OW12032   3.926   4.009   3.360
 4001SOL    HW112033   3.846   4.069   3.347
 4001SOL    HW212034   3.916   3.960   3.446
 4002SOL     OW12035   4.106   4.424   2.342
 4002SOL    HW112036   4.151   4.334   2.339
 4002SOL    HW212037   4.012   4.413   2.375
 4003SOL     OW12038   4.338   3.846   1.979
 4003SOL    HW112039   4.436   3.824   1.986
 4003SOL    HW212040   4.307   3.829   1.886
 4004SOL     OW12041   4.505   3.988   3.611
 4004SOL    HW112042   4.572   3.927   3.654
 4004SOL    HW212043   4.432   4.007   3.676
 4005SOL     OW12044   4.527   5.126   2.786
 4005SOL    HW112045   4.617   5.140   2.744
 4005SOL    HW212046   4.456   5.128   2.715
 4006SOL     OW12047   4.646   4.227   2.761
 4006SOL    HW112048   4.621   4.218   2.665
 4006SOL    HW212049   4.694   4.145   2.792
 4007SOL     OW12050   4.263   3.788   2.374
 4007SOL    HW112051   4.182   3.789   2.432
 4007SOL    HW212052   4.266   3.871   2.319
 4008SOL     OW12053   5.158   4.912   1.903
 4008SOL    HW112054   5.190   4.836   1.960
 4008SOL    HW212055   5.066   4.939   1.933
 4009SOL     OW12056   4.021   3.759   2.033
 4009SOL    HW112057   4.070   3.843   2.012
 4009SOL    HW212058   4.083   3.694   2.078
 4010SOL     OW12059   4.659   3.960   2.342
 4010SOL    HW112060   4.611   4.001   2.264
 4010SOL    HW212061   4.758   3.958   2.323
 4011SOL     OW12062   4.800   4.407   3.326
 4011SOL    HW112063   4.720   4.346   3.329
 4011SOL    HW212064   4.881   4.354   3.302
 4012SOL     OW12065   4.183   4.876   2.603
 4012SOL    HW112066   4.112   4.849   2.668
 4012SOL    HW212067   4.157   4.848   2.510
 4013SOL     OW12068   4.756   4.273   1.878
 4013SOL    HW112069   4.715   4.355   1.839
 4013SOL    HW212070   4.820   4.299   1.951
 4014SOL     OW12071   3.802   4.280   3.248
 4014SOL    HW112072   3.894   4.279   3.207
 4014SOL    HW212073   3.796   4.354   3.315
 4015SOL     OW12074   4.285   3.946   3.009
 4015SOL    HW112075   4.323   3.862   3.046
 4015SOL    HW212076   4.197   3.965   3.053
 4016SOL     OW12077   4.590   4.178   2.504
 4016SOL    HW112078   4.558   4.250   2.442
 4016SOL    HW212079   4.614   4.097   2.451
 4017SOL     OW12080   4.741   3.763   2.615
 4017SOL    HW112081   4.669   3.768   2.546
 4017SOL    HW212082   4.717   3.694   2.684
 4018SOL     OW12083   4.251   3.980   2.190
 4018SOL    HW112084   4.278   3.921   2.115
 4018SOL    HW212085   4.251   4.075   2.159
 4019SOL     OW12086   4.639   3.813   3.264
 4019SOL    HW112087   4.664   3.793   3.169
 4019SOL    HW212088   4.711   3.869   3.306
 4020SOL     OW12089   4.704   4.840   3.581
 4020SOL    HW112090   4.605   4.846   3.591
 4020SOL    HW212091   4.727   4.760   3.525
 4021SOL     OW12092   4.429   4.774   2.230
 4021SOL    HW112093   4.415   4.781   2.329
 4021SOL    HW212094   4.513   4.723   2.212
 4022SOL     OW12095   4.134   4.537   3.113
 4022SOL    HW112096   4.220   4.549   3.163
 4022SOL    HW212097   4.092   4.450   3.140
 4023SOL     OW12098   4.091   4.824   2.363
 4023SOL    HW112099   4.084   4.907   2.307
 4023SOL    HW212100   4.095   4.744   2.303
 4024SOL     OW12101   4.290   4.261   2.727
 4024SOL    HW112102   4.302   4.327   2.653
 4024SOL    HW212103   4.336   4.295   2.810
 4025SOL     OW12104   4.976   5.072   2.250
 4025SOL    HW112105   5.026   5.149   2.290
 4025SOL    HW212106   4.881   5.074   2.282
 4026SOL     OW12107   4.126   4.475   3.460
 4026SOL    HW112108   4.194   4.530   3.413
 4026SOL    HW212109   4.166   4.387   3.487
 4027SOL     OW12110   4.737   3.829   3.632
 4027SOL    HW112111   4.743   3.914   3.580
 4027SOL    HW212112   4.769   3.753   3.575
 4028SOL     OW12113   4.228   3.774   3.602
 4028SOL    HW112114   4.186   3.717   3.532
 4028SOL    HW212115   4.162   3.843   3.634
 4029SOL     OW12116   4.297   4.594   2.891
 4029SOL    HW112117   4.341   4.683   2.882
 4029SOL    HW212118   4.234   4.594   2.968
 4030SOL     OW12119   5.084   4.586   2.907
 4030SOL    HW112120   5.009   4.586   2.841
 4030SOL    HW212121   5.121   4.494   2.916
 4031SOL     OW12122   4.933   4.249   2.137
 4031SOL    HW112123   4.946   4.165   2.191
 4031SOL    HW212124   4.904   4.323   2.197
 4032SOL     OW12125   4.031   3.937   3.093
 4032SOL    HW112126   4.008   3.974   3.183
 4032SOL    HW212127   4.001   3.842   3.087
 4033SOL     OW12128   4.456   4.358   2.926
 4033SOL    HW112129   4.515   4.332   2.850
 4033SOL    HW212130   4.428   4.454   2.915
 4034SOL     OW12131   4.031   3.787   2.480
 4034SOL    HW112132   4.020   3.881   2.513
 4034SOL    HW212133   4.026   3.724   2.557
 4035SOL     OW12134   5.346   4.091   2.236
 4035SOL    HW112135   5.348   4.015   2.300
 4035SOL    HW212136   5.298   4.168   2.276
 4036SOL     OW12137   4.747   4.490   2.828
 4036SOL    HW112138   4.762   4.511   2.924
 4036SOL    HW212139   4.717   4.395   2.819
 4037SOL     OW12140   4.074   4.622   3.666
 4037SOL    HW112141   4.150   4.666   3.714
 4037SOL    HW212142   4.109   4.575   3.584
 4038SOL     OW12143   5.264   3.998   1.987
 4038SOL    HW112144   5.203   3.923   2.010
 4038SOL    HW212145   5.286   4.050   2.070
 4039SOL     OW12146   4.043   4.534   2.811
 4039SOL    HW112147   4.136   4.570   2.816
 4039SOL    HW212148   4.037   4.449   2.863
 4040SOL     OW12149   4.063   4.233   2.868
 4040SOL    HW112150   4.011   4.150   2.851
 4040SOL    HW212151   4.140   4.238   2.804
 4041SOL     OW12152   4.862   4.104   3.540
 4041SOL    HW112153   4.817   4.167   3.604
 4041SOL    HW212154   4.955   4.135   3.523
 4042SOL     OW12155   4.884   3.931   3.339
 4042SOL    HW112156   4.884   3.995   3.416
 4042SOL    HW212157   4.912   3.979   3.256
 4043SOL     OW12158   3.732   5.050   2.062
 4043SOL    HW112159   3.639   5.071   2.031
 4043SOL    HW212160   3.742   4.951   2.075
 4044SOL     OW12161   4.726   4.520   3.100
 4044SOL    HW112162   4.767   4.488   3.186
 4044SOL    HW212163   4.630   4.493   3.097
 4045SOL     OW12164   3.764   4.268   2.976
 4045SOL    HW112165   3.849   4.235   2.935
 4045SOL    HW212166   3.777   4.283   3.074
 4046SOL     OW12167   3.913   4.244   3.584
 4046SOL    HW112168   3.972   4.204   3.514
 4046SOL    HW212169   3.855   4.315   3.543
 4047SOL     OW12170   4.539   4.296   2.187
 4047SOL    HW112171   4.546   4.207   2.141
 4047SOL    HW212172   4.445   4.330   2.179
 4048SOL     OW12173   4.395   4.188   3.131
 4048SOL    HW112174   4.361   4.099   3.101
 4048SOL    HW212175   4.421   4.242   3.051
 4049SOL     OW12176   4.197   4.224   2.053
 4049SOL    HW112177   4.258   4.304   2.057
 4049SOL    HW212178   4.102   4.255   2.060
 4050SOL     OW12179   3.883   4.861   3.328
 4050SOL    HW112180   3.905   4.800   3.404
 4050SOL    HW212181   3.893   4.812   3.242
 4051SOL     OW12182   5.071   4.783   3.096
 4051SOL    HW112183   5.095   4.720   3.022
 4051SOL    HW212184   4.981   4.823   3.078
 4052SOL     OW12185   3.807   4.982   2.884
 4052SOL    HW112186   3.802   4.981   2.984
 4052SOL    HW212187   3.724   4.941   2.846
 4053SOL     OW12188   3.987   4.050   2.582
 4053SOL    HW112189   3.908   4.101   2.548
 4053SOL    HW212190   3.978   4.035   2.680
 4054SOL     OW12191   4.546   4.726   3.234
 4054SOL    HW112192   4.586   4.725   3.142
 4054SOL    HW212193   4.556   4.818   3.274
 4055SOL     OW12194   4.640   4.634   2.153
 4055SOL    HW112195   4.703   4.672   2.085
 4055SOL    HW212196   4.680   4.551   2.192
 4056SOL     OW12197   4.096   5.012   3.352
 4056SOL    HW112198   4.083   5.105   3.318
 4056SOL    HW212199   4.012   4.960   3.339
 4057SOL     OW12200   4.763   4.822   2.558
 4057SOL    HW112201   4.693   4.775   2.612
 4057SOL    HW212202   4.822   4.754   2.515
 4058SOL     OW12203   4.738   3.960   2.833
 4058SOL    HW112204   4.730   3.924   2.740
 4058SOL    HW212205   4.736   3.884   2.898
 4059SOL     OW12206   3.829   4.737   3.588
 4059SOL    HW112207   3.752   4.704   3.642
 4059SOL    HW212208   3.914   4.707   3.630
 4060SOL     OW12209   4.396   3.927   3.351
 4060SOL    HW112210   4.486   3.911   3.311
 4060SOL    HW212211   4.404   3.932   3.450
 4061SOL     OW12212   3.799   4.069   1.895
 4061SOL    HW112213   3.707   4.041   1.866
 4061SOL    HW212214   3.830   4.146   1.839
 4062SOL     OW12215   3.796   3.890   2.180
 4062SOL    HW112216   3.779   3.973   2.126
 4062SOL    HW212217   3.886   3.853   2.158
 4063SOL     OW12218   4.337   4.566   3.293
 4063SOL    HW112219   4.393   4.647   3.276
 4063SOL    HW212220   4.396   4.486   3.296
 4064SOL     OW12221   4.440   4.289   3.570
 4064SOL    HW112222   4.459   4.354   3.644
 4064SOL    HW212223   4.500   4.209   3.579
 4065SOL     OW12224   5.174   4.944   3.495
 4065SOL    HW112225   5.165   4.934   3.594
 4065SOL    HW212226   5.270   4.937   3.469
 4066SOL     OW12227   4.318   4.469   2.514
 4066SOL    HW112228   4.368   4.554   2.495
 4066SOL    HW212229   4.230   4.471   2.466
 4067SOL     OW12230   4.583   4.680   2.723
 4067SOL    HW112231   4.637   4.611   2.771
 4067SOL    HW212232   4.551   4.749   2.789
 4068SOL     OW12233   4.807   4.708   1.949
 4068SOL    HW112234   4.784   4.761   1.867
 4068SOL    HW212235   4.888   4.652   1.930
 4069SOL     OW12236   3.803   4.964   2.515
 4069SOL    HW112237   3.802   4.917   2.603
 4069SOL    HW212238   3.885   4.936   2.464
 4070SOL     OW12239   4.152   4.148   2.382
 4070SOL    HW112240   4.182   4.076   2.320
 4070SOL    HW212241   4.113   4.108   2.465
 4071SOL     OW12242   4.041   4.271   3.142
 4071SOL    HW112243   4.079   4.212   3.214
 4071SOL    HW212244   4.081   4.245   3.054
 4072SOL     OW12245   4.725   3.758   3.016
 4072SOL    HW112246   4.662   3.686   2.985
 4072SOL    HW212247   4.818   3.722   3.016
 4073SOL     OW12248   4.494   5.054   2.163
 4073SOL    HW112249   4.448   4.967   2.180
 4073SOL    HW212250   4.585   5.051   2.204
 4074SOL     OW12251   3.763   4.801   2.162
 4074SOL    HW112252   3.862   4.790   2.153
 4074SOL    HW212253   3.723   4.715   2.194
 4075SOL     OW12254   3.954   4.352   3.837
 4075SOL    HW112255   3.861   4.350   3.874
 4075SOL    HW212256   3.955   4.313   3.745
 4076SOL     OW12257   3.949   3.999   4.720
 4076SOL    HW112258   3.984   3.982   4.812
 4076SOL    HW212259   3.861   3.954   4.708
 4077SOL     OW12260   3.743   4.092   4.371
 4077SOL    HW112261   3.661   4.135   4.410
 4077SOL    HW212262   3.715   4.019   4.308
 4078SOL     OW12263   4.859   4.427   4.441
 4078SOL    HW112264   4.916   4.505   4.416
 4078SOL    HW212265   4.799   4.453   4.517
 4079SOL     OW12266   4.492   4.868   4.747
 4079SOL    HW112267   4.414   4.885   4.807
 4079SOL    HW212268   4.526   4.955   4.711
 4080SOL     OW12269   4.409   4.736   4.389
 4080SOL    HW112270   4.478   4.720   4.459
 4080SOL    HW212271   4.336   4.793   4.427
 4081SOL     OW12272   4.059   5.159   4.785
 4081SOL    HW112273   3.981   5.128   4.732
 4081SOL    HW212274   4.117   5.217   4.728
 4082SOL     OW12275   3.964   4.815   4.610
 4082SOL    HW112276   3.978   4.731   4.662
 4082SOL    HW212277   3.909   4.879   4.665
 4083SOL     OW12278   4.330   4.688   3.847
 4083SOL    HW112279   4.337   4.772   3.793
 4083SOL    HW212280   4.376   4.701   3.935
 4084SOL     OW12281   3.846   4.367   4.287
 4084SOL    HW112282   3.801   4.279   4.304
 4084SOL    HW212283   3.845   4.421   4.371
 4085SOL     OW12284   3.837   4.461   5.321
 4085SOL    HW112285   3.925   4.448   5.366
 4085SOL    HW212286   3.824   4.558   5.299
 4086SOL     OW12287   4.533   3.728   4.226
 4086SOL    HW112288   4.573   3.819   4.217
 4086SOL    HW212289   4.433   3.736   4.232
 4087SOL     OW12290   3.921   4.700   4.988
 4087SOL    HW112291   4.010   4.655   4.974
 4087SOL    HW212292   3.848   4.635   4.969
 4088SOL     OW12293   4.322   4.453   3.994
 4088SOL    HW112294   4.346   4.522   3.926
 4088SOL    HW212295   4.244   4.486   4.048
 4089SOL     OW12296   4.715   4.134   4.966
 4089SOL    HW112297   4.638   4.168   5.020
 4089SOL    HW212298   4.681   4.083   4.887
 4090SOL     OW12299   4.765   4.425   4.153
 4090SOL    HW112300   4.791   4.421   4.249
 4090SOL    HW212301   4.680   4.374   4.139
 4091SOL     OW12302   3.800   4.535   4.513
 4091SOL    HW112303   3.899   4.523   4.522
 4091SOL    HW212304   3.776   4.630   4.534
 4092SOL     OW12305   4.589   4.072   3.919
 4092SOL    HW112306   4.648   4.135   3.870
 4092SOL    HW212307   4.608   3.978   3.890
 4093SOL     OW12308   4.274   3.920   4.609
 4093SOL    HW112309   4.269   3.915   4.709
 4093SOL    HW212310   4.276   4.016   4.580
 4094SOL     OW12311   4.045   4.667   3.966
 4094SOL    HW112312   4.127   4.706   3.924
 4094SOL    HW212313   4.018   4.585   3.917
 4095SOL     OW12314   4.106   4.424   4.204
 4095SOL    HW112315   4.151   4.334   4.201
 4095SOL    HW212316   4.012   4.413   4.237
 4096SOL     OW12317   4.338   3.846   3.841
 4096SOL    HW112318   4.436   3.824   3.848
 4096SOL    HW212319   4.307   3.829   3.748
 4097SOL     OW12320   4.527   5.126   4.648
 4097SOL    HW112321   4.617   5.140   4.606
 4097SOL    HW212322   4.456   5.128   4.577
 4098SOL     OW12323   4.646   4.227   4.623
 4098SOL    HW112324   4.621   4.218   4.527
 4098SOL    HW212325   4.694   4.145   4.654
 4099SOL     OW12326   4.263   3.788   4.236
 4099SOL    HW112327   4.182   3.789   4.294
 4099SOL    HW212328   4.266   3.871   4.181
 4100SOL     OW12329   5.158   4.912   3.765
 4100SOL    HW112330   5.190   4.836   3.822
 4100SOL    HW212331   5.066   4.939   3.795
 4101SOL     OW12332   4.021   3.759   3.895
 4101SOL    HW112333   4.070   3.843   3.874
 4101SOL    HW212334   4.083   3.694   3.940
 4102SOL     OW12335   4.659   3.960   4.204
 4102SOL    HW112336   4.611   4.001   4.126
 4102SOL    HW212337   4.758   3.958   4.185
 4103SOL     OW12338   4.183   4.876   4.465
 4103SOL    HW112339   4.112   4.849   4.530
 4103SOL    HW212340   4.157   4.848   4.372
 4104SOL     OW12341   4.756   4.273   3.740
 4104SOL    HW112342   4.715   4.355   3.701
 4104SOL    HW212343   4.820   4.299   3.813
 4105SOL     OW12344   4.285   3.946   4.871
 4105SOL    HW112345   4.323   3.862   4.908
 4105SOL    HW212346   4.197   3.965   4.915
 4106SOL     OW12347   4.590   4.178   4.366
 4106SOL    HW112348   4.558   4.250   4.304
 4106SOL    HW212349   4.614   4.097   4.313
 4107SOL     OW12350   4.741   3.763   4.477
 4107SOL    HW112351   4.669   3.768   4.408
 4107SOL    HW212352   4.717   3.694   4.546
 4108SOL     OW12353   4.251   3.980   4.052
 4108SOL    HW112354   4.278   3.921   3.977
 4108SOL    HW212355   4.251   4.075   4.021
 4109SOL     OW12356   4.429   4.774   4.092
 4109SOL    HW112357   4.415   4.781   4.191
 4109SOL    HW212358   4.513   4.723   4.074
 4110SOL     OW12359   4.134   4.537   4.975
 4110SOL    HW112360   4.220   4.549   5.025
 4110SOL    HW212361   4.092   4.450   5.002
 4111SOL     OW12362   4.091   4.824   4.225
 4111SOL    HW112363   4.084   4.907   4.169
 4111SOL    HW212364   4.095   4.744   4.165
 4112SOL     OW12365   4.290   4.261   4.589
 4112SOL    HW112366   4.302   4.327   4.515
 4112SOL    HW212367   4.336   4.295   4.672
 4113SOL     OW12368   4.976   5.072   4.112
 4113SOL    HW112369   5.026   5.149   4.152
 4113SOL    HW212370   4.881   5.074   4.144
 4114SOL     OW12371   4.297   4.594   4.753
 4114SOL    HW112372   4.341   4.683   4.744
 4114SOL    HW212373   4.234   4.594   4.830
 4115SOL     OW12374   5.084   4.586   4.769
 4115SOL    HW112375   5.009   4.586   4.703
 4115SOL    HW212376   5.121   4.494   4.778
 4116SOL     OW12377   4.933   4.249   3.999
 4116SOL    HW112378   4.946   4.165   4.053
 4116SOL    HW212379   4.904   4.323   4.059
 4117SOL     OW12380   4.031   3.937   4.955
 4117SOL    HW112381   4.008   3.974   5.045
 4117SOL    HW212382   4.001   3.842   4.949
 4118SOL     OW12383   4.456   4.358   4.788
 4118SOL    HW112384   4.515   4.332   4.712
 4118SOL    HW212385   4.428   4.454   4.777
 4119SOL     OW12386   4.031   3.787   4.342
 4119SOL    HW112387   4.020   3.881   4.375
 4119SOL    HW212388   4.026   3.724   4.419
 4120SOL     OW12389   5.346   4.091   4.098
 4120SOL    HW112390   5.348   4.015   4.162
 4120SOL    HW212391   5.298   4.168   4.138
 4121SOL     OW12392   4.747   4.490   4.690
 4121SOL    HW112393   4.762   4.511   4.786
 4121SOL    HW212394   4.717   4.395   4.681
 4122SOL     OW12395   5.264   3.998   3.849
 4122SOL    HW112396   5.203   3.923   3.872
 4122SOL    HW212397   5.286   4.050   3.932
 4123SOL     OW12398   4.043   4.534   4.673
 4123SOL    HW112399   4.136   4.570   4.678
 4123SOL    HW212400   4.037   4.449   4.725
 4124SOL     OW12401   4.063   4.233   4.730
 4124SOL    HW112402   4.011   4.150   4.713
 4124SOL    HW212403   4.140   4.238   4.666
 4125SOL     OW12404   4.884   3.931   5.201
 4125SOL    HW112405   4.884   3.995   5.278
 4125SOL    HW212406   4.912   3.979   5.118
 4126SOL     OW12407   3.732   5.050   3.924
 4126SOL    HW112408   3.639   5.071   3.893
 4126SOL    HW212409   3.742   4.951   3.937
 4127SOL     OW12410   4.726   4.520   4.962
 4127SOL    HW112411   4.767   4.488   5.048
 4127SOL    HW212412   4.630   4.493   4.959
 4128SOL     OW12413   3.764   4.268   4.838
 4128SOL    HW112414   3.849   4.235   4.797
 4128SOL    HW212415   3.777   4.283   4.936
 4129SOL     OW12416   4.539   4.296   4.049
 4129SOL    HW112417   4.546   4.207   4.003
 4129SOL    HW212418   4.445   4.330   4.041
 4130SOL     OW12419   4.395   4.188   4.993
 4130SOL    HW112420   4.361   4.099   4.963
 4130SOL    HW212421   4.421   4.242   4.913
 4131SOL     OW12422   4.197   4.224   3.915
 4131SOL    HW112423   4.258   4.304   3.919
 4131SOL    HW212424   4.102   4.255   3.922
 4132SOL     OW12425   5.071   4.783   4.958
 4132SOL    HW112426   5.095   4.720   4.884
 4132SOL    HW212427   4.981   4.823   4.940
 4133SOL     OW12428   3.807   4.982   4.746
 4133SOL    HW112429   3.802   4.981   4.846
 4133SOL    HW212430   3.724   4.941   4.708
 4134SOL     OW12431   3.987   4.050   4.444
 4134SOL    HW112432   3.908   4.101   4.410
 4134SOL    HW212433   3.978   4.035   4.542
 4135SOL     OW12434   4.546   4.726   5.096
 4135SOL    HW112435   4.586   4.725   5.004
 4135SOL    HW212436   4.556   4.818   5.136
 4136SOL     OW12437   4.640   4.634   4.015
 4136SOL    HW112438   4.703   4.672   3.947
 4136SOL    HW212439   4.680   4.551   4.054
 4137SOL     OW12440   4.763   4.822   4.420
 4137SOL    HW112441   4.693   4.775   4.474
 4137SOL    HW212442   4.822   4.754   4.377
 4138SOL     OW12443   4.738   3.960   4.695
 4138SOL    HW112444   4.730   3.924   4.602
 4138SOL    HW212445   4.736   3.884   4.760
 4139SOL     OW12446   3.799   4.069   3.757
 4139SOL    HW112447   3.707   4.041   3.728
 4139SOL    HW212448   3.830   4.146   3.701
 4140SOL     OW12449   3.796   3.890   4.042
 4140SOL    HW112450   3.779   3.973   3.988
 4140SOL    HW212451   3.886   3.853   4.020
 4141SOL     OW12452   4.318   4.469   4.376
 4141SOL    HW112453   4.368   4.554   4.357
 4141SOL    HW212454   4.230   4.471   4.328
 4142SOL     OW12455   4.583   4.680   4.585
 4142SOL    HW112456   4.637   4.611   4.633
 4142SOL    HW212457   4.551   4.749   4.651
 4143SOL     OW12458   4.807   4.708   3.811
 4143SOL    HW112459   4.784   4.761   3.729
 4143SOL    HW212460   4.888   4.652   3.792
 4144SOL     OW12461   3.803   4.964   4.377
 4144SOL    HW112462   3.802   4.917   4.465
 4144SOL    HW212463   3.885   4.936   4.326
 4145SOL     OW12464   4.152   4.148   4.244
 4145SOL    HW112465   4.182   4.076   4.182
 4145SOL    HW212466   4.113   4.108   4.327
 4146SOL     OW12467   4.725   3.758   4.878
 4146SOL    HW112468   4.662   3.686   4.847
 4146SOL    HW212469   4.818   3.722   4.878
 4147SOL     OW12470   4.494   5.054   4.025
 4147SOL    HW112471   4.448   4.967   4.042
 4147SOL    HW212472   4.585   5.051   4.066
 4148SOL     OW12473   3.763   4.801   4.024
 4148SOL    HW112474   3.862   4.790   4.015
 4148SOL    HW212475   3.723   4.715   4.056
   5.04559   5.04559   5.04559
