mobley_1469079_GMX.gro created by acpype (v: 2023.10.27) on Wed May 20 23:55:05 2026
   22
    1MOL     C1    1   2.714   2.796   2.468
    1MOL     C2    2   2.800   2.696   2.421
    1MOL     C3    3   2.585   2.764   2.510
    1MOL     C4    4   2.756   2.564   2.415
    1MOL     C5    5   2.247   2.440   2.581
    1MOL     C6    6   2.418   2.240   2.486
    1MOL     C7    7   2.542   2.631   2.504
    1MOL     C8    8   2.627   2.531   2.457
    1MOL     C9    9   2.376   2.472   2.539
    1MOL    C10   10   2.461   2.373   2.492
    1MOL    C11   11   2.204   2.307   2.576
    1MOL    C12   12   2.289   2.208   2.528
    1MOL     O1   13   2.414   2.604   2.547
    1MOL     O2   14   2.589   2.400   2.450
    1MOL    CL1   15   2.043   2.273   2.629
    1MOL    CL2   16   2.241   2.042   2.519
    1MOL     H1   17   2.748   2.899   2.472
    1MOL     H2   18   2.900   2.722   2.388
    1MOL     H3   19   2.519   2.842   2.547
    1MOL     H4   20   2.823   2.487   2.378
    1MOL     H5   21   2.181   2.518   2.618
    1MOL     H6   22   2.486   2.163   2.449
   4.99706   4.99706   4.99706
