; mobley_4553008_GMX.itp created by acpype (v: 2023.10.27) on Wed May 20 23:48:45 2026

[ atomtypes ]
;name   bond_type     mass     charge   ptype   sigma         epsilon       Amb
 ca       ca          0.00000  0.00000   A     3.31521e-01   4.13379e-01 ; 1.86  0.0988
 cl       cl          0.00000  0.00000   A     3.46595e-01   1.10374e+00 ; 1.95  0.2638
 ha       ha          0.00000  0.00000   A     2.62548e-01   6.73624e-02 ; 1.47  0.0161

[ moleculetype ]
;name            nrexcl
 mobley_4553008   3

[ atoms ]
;   nr  type  resi  res  atom  cgnr     charge      mass       ; qtot   bond_type
     1   ca     1   MOL    C1    1    -0.116000     12.01000 ; qtot -0.116
     2   ca     1   MOL    C2    2    -0.116000     12.01000 ; qtot -0.232
     3   ca     1   MOL    C3    3    -0.116000     12.01000 ; qtot -0.348
     4   ca     1   MOL    C4    4    -0.116000     12.01000 ; qtot -0.464
     5   ca     1   MOL    C5    5     0.015400     12.01000 ; qtot -0.449
     6   ca     1   MOL    C6    6     0.015400     12.01000 ; qtot -0.433
     7   cl     1   MOL   CL1    7    -0.087400     35.45000 ; qtot -0.521
     8   cl     1   MOL   CL2    8    -0.087400     35.45000 ; qtot -0.608
     9   ha     1   MOL    H1    9     0.152000      1.00800 ; qtot -0.456
    10   ha     1   MOL    H2   10     0.152000      1.00800 ; qtot -0.304
    11   ha     1   MOL    H3   11     0.152000      1.00800 ; qtot -0.152
    12   ha     1   MOL    H4   12     0.152000      1.00800 ; qtot 0.000

[ bonds ]
;   ai     aj funct   r             k
     1      2   1    1.3986e-01    2.9644e+05 ;     C1 - C2    
     1      5   1    1.3986e-01    2.9644e+05 ;     C1 - C5    
     1      9   1    1.0860e-01    3.0183e+05 ;     C1 - H1    
     2      6   1    1.3986e-01    2.9644e+05 ;     C2 - C6    
     2     10   1    1.0860e-01    3.0183e+05 ;     C2 - H2    
     3      4   1    1.3986e-01    2.9644e+05 ;     C3 - C4    
     3      5   1    1.3986e-01    2.9644e+05 ;     C3 - C5    
     3     11   1    1.0860e-01    3.0183e+05 ;     C3 - H3    
     4      6   1    1.3986e-01    2.9644e+05 ;     C4 - C6    
     4     12   1    1.0860e-01    3.0183e+05 ;     C4 - H4    
     5      7   1    1.7572e-01    1.5730e+05 ;     C5 - CL1   
     6      8   1    1.7572e-01    1.5730e+05 ;     C6 - CL2   

[ pairs ]
;   ai     aj    funct
     1      4      1 ;     C1 - C4    
     1      8      1 ;     C1 - CL2   
     1     11      1 ;     C1 - H3    
     2      3      1 ;     C2 - C3    
     2      7      1 ;     C2 - CL1   
     2     12      1 ;     C2 - H4    
     3      8      1 ;     C3 - CL2   
     4      7      1 ;     C4 - CL1   
     4     10      1 ;     C4 - H2    
     5      6      1 ;     C5 - C6    
     5     10      1 ;     C5 - H2    
     5     12      1 ;     C5 - H4    
     6     11      1 ;     C6 - H3    
     7     11      1 ;    CL1 - H3    
     8     10      1 ;    CL2 - H2    
     8     12      1 ;    CL2 - H4    
     9      3      1 ;     H1 - C3    
     9      6      1 ;     H1 - C6    
     9      7      1 ;     H1 - CL1   
     9     10      1 ;     H1 - H2    
    11     12      1 ;     H3 - H4    

[ angles ]
;   ai     aj     ak    funct   theta         cth
     1      2      6      1    1.2002e+02    5.3279e+02 ;     C1 - C2     - C6    
     1      2     10      1    1.1988e+02    3.7572e+02 ;     C1 - C2     - H2    
     1      5      3      1    1.2002e+02    5.3279e+02 ;     C1 - C5     - C3    
     1      5      7      1    1.1938e+02    5.3605e+02 ;     C1 - C5     - CL1   
     2      1      5      1    1.2002e+02    5.3279e+02 ;     C2 - C1     - C5    
     2      1      9      1    1.1988e+02    3.7572e+02 ;     C2 - C1     - H1    
     2      6      4      1    1.2002e+02    5.3279e+02 ;     C2 - C6     - C4    
     2      6      8      1    1.1938e+02    5.3605e+02 ;     C2 - C6     - CL2   
     3      4      6      1    1.2002e+02    5.3279e+02 ;     C3 - C4     - C6    
     3      4     12      1    1.1988e+02    3.7572e+02 ;     C3 - C4     - H4    
     3      5      7      1    1.1938e+02    5.3605e+02 ;     C3 - C5     - CL1   
     4      3      5      1    1.2002e+02    5.3279e+02 ;     C4 - C3     - C5    
     4      3     11      1    1.1988e+02    3.7572e+02 ;     C4 - C3     - H3    
     4      6      8      1    1.1938e+02    5.3605e+02 ;     C4 - C6     - CL2   
     5      1      9      1    1.1988e+02    3.7572e+02 ;     C5 - C1     - H1    
     5      3     11      1    1.1988e+02    3.7572e+02 ;     C5 - C3     - H3    
     6      2     10      1    1.1988e+02    3.7572e+02 ;     C6 - C2     - H2    
     6      4     12      1    1.1988e+02    3.7572e+02 ;     C6 - C4     - H4    

[ dihedrals ] ; propers
; for gromacs 4.5 or higher, using funct 9
;    i      j      k      l   func   phase     kd      pn
     1      2      6      4      9   180.00  15.16700   2 ;     C1-    C2-    C6-    C4
     1      2      6      8      9   180.00  15.16700   2 ;     C1-    C2-    C6-   CL2
     1      5      3      4      9   180.00  15.16700   2 ;     C1-    C5-    C3-    C4
     1      5      3     11      9   180.00  15.16700   2 ;     C1-    C5-    C3-    H3
     2      1      5      3      9   180.00  15.16700   2 ;     C2-    C1-    C5-    C3
     2      1      5      7      9   180.00  15.16700   2 ;     C2-    C1-    C5-   CL1
     2      6      4      3      9   180.00  15.16700   2 ;     C2-    C6-    C4-    C3
     2      6      4     12      9   180.00  15.16700   2 ;     C2-    C6-    C4-    H4
     3      4      6      8      9   180.00  15.16700   2 ;     C3-    C4-    C6-   CL2
     4      3      5      7      9   180.00  15.16700   2 ;     C4-    C3-    C5-   CL1
     4      6      2     10      9   180.00  15.16700   2 ;     C4-    C6-    C2-    H2
     5      1      2      6      9   180.00  15.16700   2 ;     C5-    C1-    C2-    C6
     5      1      2     10      9   180.00  15.16700   2 ;     C5-    C1-    C2-    H2
     5      3      4      6      9   180.00  15.16700   2 ;     C5-    C3-    C4-    C6
     5      3      4     12      9   180.00  15.16700   2 ;     C5-    C3-    C4-    H4
     6      4      3     11      9   180.00  15.16700   2 ;     C6-    C4-    C3-    H3
     7      5      3     11      9   180.00  15.16700   2 ;    CL1-    C5-    C3-    H3
     8      6      2     10      9   180.00  15.16700   2 ;    CL2-    C6-    C2-    H2
     8      6      4     12      9   180.00  15.16700   2 ;    CL2-    C6-    C4-    H4
     9      1      2      6      9   180.00  15.16700   2 ;     H1-    C1-    C2-    C6
     9      1      2     10      9   180.00  15.16700   2 ;     H1-    C1-    C2-    H2
     9      1      5      3      9   180.00  15.16700   2 ;     H1-    C1-    C5-    C3
     9      1      5      7      9   180.00  15.16700   2 ;     H1-    C1-    C5-   CL1
    11      3      4     12      9   180.00  15.16700   2 ;     H3-    C3-    C4-    H4

[ dihedrals ] ; impropers
; treated as propers in GROMACS to use correct AMBER analytical function
;    i      j      k      l   func   phase     kd      pn
     1      3      5      7      4   180.00   4.60240   2 ;     C1-    C3-    C5-   CL1
     1      6      2     10      4   180.00   4.60240   2 ;     C1-    C6-    C2-    H2
     2      4      6      8      4   180.00   4.60240   2 ;     C2-    C4-    C6-   CL2
     3      6      4     12      4   180.00   4.60240   2 ;     C3-    C6-    C4-    H4
     4      5      3     11      4   180.00   4.60240   2 ;     C4-    C5-    C3-    H3
     9      1      5      2      4   180.00   4.60240   2 ;     H1-    C1-    C5-    C2
