14_dichlorobenzene
    12
   0.8180000  -0.4390000   0.5640000   0.7990000  -0.4060000   1.9590000
   2.9370000  -1.5970000   0.6200000   2.9180000  -1.5650000   2.0140000
   1.8870000  -1.0340000  -0.1050000   1.8500000  -0.9690000   2.6840000
   1.9100000  -1.0740000  -1.8250000   1.8270000  -0.9290000   4.4040000
  -0.0070000   0.0040000   0.0120000  -0.0400000   0.0610000   2.4680000
   3.7760000  -2.0640000   0.1110000   3.7430000  -2.0070000   2.5660000
