isobutyraldehyde
    13
  -2.1990000   0.5040000   1.5020000  -0.4390000  -0.8920000   0.4600000
  -2.5620000  -1.9750000   1.2570000  -1.9420000  -0.7230000   0.6490000
  -2.8150000   0.4990000   2.5630000  -1.8230000   1.4550000   1.0840000
   0.0000000   0.0000000   0.0000000  -0.2200000  -1.7480000  -0.1870000
   0.0660000  -1.0490000   1.4190000  -2.3870000  -2.8470000   0.6190000
  -3.6450000  -1.8560000   1.3750000  -2.1430000  -2.1870000   2.2470000
  -2.4060000  -0.5330000  -0.3260000
