; mobley_5627459_GMX_OPLS.top created by acpype (v: 2023.10.27) on Thu May 21 00:03:51 2026

; Include forcefield parameters
#include "ffoplsaa.itp"

; Include mobley_5627459_GMX.itp topology
#include "mobley_5627459_GMX.itp"

; Ligand position restraints
#ifdef POSRES_LIG
#include "posre_mobley_5627459.itp"
#endif

[ system ]
 mobley_5627459

[ molecules ]
; Compound        nmols
 mobley_5627459   1     
