; mobley_5627459_GMX_OPLS.itp created by acpype (v: 2023.10.27) on Thu May 21 00:03:51 2026

; For OPLS atomtypes manual fine tuning
; AC_at:OPLS_at:OPLScode: Possible_Alternatives (see ffoplsaa.atp and ffoplsaanb.itp)
; c:C:opls_235: ['271']
; c3:CT:opls_135: ['136', '137', '149', '157', '158', '206', '209', '210', '223B', '224B', '245', '246', '274', '283', '284', '285', '292', '292B', '293B', '296', '307', '308', '505']
; o:O:opls_236: ['272']
; h4:HA:opls_146: []
; hc:HC:opls_140: []

[ moleculetype ]
;name            nrexcl
 mobley_5627459   3

[ atoms ]
;   nr  type  resi  res  atom  cgnr     charge      mass       ; qtot   bond_type
     1 opls_235     1   MOL    C1    1     0.566898     12.01100 ; qtot  0.567  C   
     2 opls_135     1   MOL    C2    2    -0.088100     12.01100 ; qtot  0.479  CT  
     3 opls_135     1   MOL    C3    3    -0.088100     12.01100 ; qtot  0.391  CT  
     4 opls_135     1   MOL    C4    4    -0.187700     12.01100 ; qtot  0.203  CT  
     5 opls_236     1   MOL    O1    5    -0.523100     15.99940 ; qtot -0.320  O   
     6 opls_146     1   MOL    H1    6    -0.005800      1.00800 ; qtot -0.326  HA  
     7 opls_140     1   MOL    H2    7     0.041367      1.00800 ; qtot -0.285  HC  
     8 opls_140     1   MOL    H3    8     0.041367      1.00800 ; qtot -0.243  HC  
     9 opls_140     1   MOL    H4    9     0.041367      1.00800 ; qtot -0.202  HC  
    10 opls_140     1   MOL    H5   10     0.041367      1.00800 ; qtot -0.160  HC  
    11 opls_140     1   MOL    H6   11     0.041367      1.00800 ; qtot -0.119  HC  
    12 opls_140     1   MOL    H7   12     0.041367      1.00800 ; qtot -0.078  HC  
    13 opls_140     1   MOL    H8   13     0.077700      1.00800 ; qtot -0.000  HC  

[ bonds ]
;   ai     aj funct   r             k
     1      4   1 ;    1.5270e-01    1.9652e+05 ;     C1 - C4          C - CT    
     1      5   1 ;    1.2190e-01    4.9421e+05 ;     C1 - O1          C - O     
     1      6   1 ;    1.1123e-01    2.6984e+05 ;     C1 - H1          C - HA    
     2      4   1 ;    1.5354e-01    1.9154e+05 ;     C2 - C4         CT - CT    
     2      7   1 ;    1.0962e-01    2.8891e+05 ;     C2 - H2         CT - HC    
     2      8   1 ;    1.0962e-01    2.8891e+05 ;     C2 - H3         CT - HC    
     2      9   1 ;    1.0962e-01    2.8891e+05 ;     C2 - H4         CT - HC    
     3      4   1 ;    1.5354e-01    1.9154e+05 ;     C3 - C4         CT - CT    
     3     10   1 ;    1.0962e-01    2.8891e+05 ;     C3 - H5         CT - HC    
     3     11   1 ;    1.0962e-01    2.8891e+05 ;     C3 - H6         CT - HC    
     3     12   1 ;    1.0962e-01    2.8891e+05 ;     C3 - H7         CT - HC    
     4     13   1 ;    1.0962e-01    2.8891e+05 ;     C4 - H8         CT - HC    

[ pairs ]
;   ai     aj    funct
     1      7      1 ;     C1 - H2    
     1      8      1 ;     C1 - H3    
     1      9      1 ;     C1 - H4    
     1     10      1 ;     C1 - H5    
     1     11      1 ;     C1 - H6    
     1     12      1 ;     C1 - H7    
     2     10      1 ;     C2 - H5    
     2     11      1 ;     C2 - H6    
     2     12      1 ;     C2 - H7    
     3      7      1 ;     C3 - H2    
     3      8      1 ;     C3 - H3    
     3      9      1 ;     C3 - H4    
     5      2      1 ;     O1 - C2    
     5      3      1 ;     O1 - C3    
     5     13      1 ;     O1 - H8    
     6      2      1 ;     H1 - C2    
     6      3      1 ;     H1 - C3    
     6     13      1 ;     H1 - H8    
     7     13      1 ;     H2 - H8    
     8     13      1 ;     H3 - H8    
     9     13      1 ;     H4 - H8    
    10     13      1 ;     H5 - H8    
    11     13      1 ;     H6 - H8    
    12     13      1 ;     H7 - H8    

[ angles ]
;   ai     aj     ak    funct   theta         cth
     1      4      2      1 ;    1.1143e+02    5.0509e+02 ;     C1 - C4   - C2        C -   CT - CT  
     1      4      3      1 ;    1.1143e+02    5.0509e+02 ;     C1 - C4   - C3        C -   CT - CT  
     1      4     13      1 ;    1.0895e+02    3.6510e+02 ;     C1 - C4   - H8        C -   CT - HC  
     2      4      3      1 ;    1.1263e+02    5.0099e+02 ;     C2 - C4   - C3       CT -   CT - CT  
     2      4     13      1 ;    1.0968e+02    3.6208e+02 ;     C2 - C4   - H8       CT -   CT - HC  
     3      4     13      1 ;    1.0968e+02    3.6208e+02 ;     C3 - C4   - H8       CT -   CT - HC  
     4      1      5      1 ;    1.2290e+02    6.3973e+02 ;     C4 - C1   - O1       CT -    C - O   
     4      1      6      1 ;    1.1471e+02    3.5522e+02 ;     C4 - C1   - H1       CT -    C - HA  
     4      2      7      1 ;    1.0968e+02    3.6208e+02 ;     C4 - C2   - H2       CT -   CT - HC  
     4      2      8      1 ;    1.0968e+02    3.6208e+02 ;     C4 - C2   - H3       CT -   CT - HC  
     4      2      9      1 ;    1.0968e+02    3.6208e+02 ;     C4 - C2   - H4       CT -   CT - HC  
     4      3     10      1 ;    1.0968e+02    3.6208e+02 ;     C4 - C3   - H5       CT -   CT - HC  
     4      3     11      1 ;    1.0968e+02    3.6208e+02 ;     C4 - C3   - H6       CT -   CT - HC  
     4      3     12      1 ;    1.0968e+02    3.6208e+02 ;     C4 - C3   - H7       CT -   CT - HC  
     5      1      6      1 ;    1.2062e+02    5.0191e+02 ;     O1 - C1   - H1        O -    C - HA  
     7      2      8      1 ;    1.0773e+02    2.9957e+02 ;     H2 - C2   - H3       HC -   CT - HC  
     7      2      9      1 ;    1.0773e+02    2.9957e+02 ;     H2 - C2   - H4       HC -   CT - HC  
     8      2      9      1 ;    1.0773e+02    2.9957e+02 ;     H3 - C2   - H4       HC -   CT - HC  
    10      3     11      1 ;    1.0773e+02    2.9957e+02 ;     H5 - C3   - H6       HC -   CT - HC  
    10      3     12      1 ;    1.0773e+02    2.9957e+02 ;     H5 - C3   - H7       HC -   CT - HC  
    11      3     12      1 ;    1.0773e+02    2.9957e+02 ;     H6 - C3   - H7       HC -   CT - HC  

[ dihedrals ] ; propers
; for gromacs 4.5 or higher, using funct 9
;    i      j      k      l   func   phase     kd      pn
     1      4      2      7      9 ;     0.00   0.65084   3 ;     C1-    C4-    C2-    H2
     1      4      2      8      9 ;     0.00   0.65084   3 ;     C1-    C4-    C2-    H3
     1      4      2      9      9 ;     0.00   0.65084   3 ;     C1-    C4-    C2-    H4
     1      4      3     10      9 ;     0.00   0.65084   3 ;     C1-    C4-    C3-    H5
     1      4      3     11      9 ;     0.00   0.65084   3 ;     C1-    C4-    C3-    H6
     1      4      3     12      9 ;     0.00   0.65084   3 ;     C1-    C4-    C3-    H7
     2      4      3     10      9 ;     0.00   0.54392   3 ;     C2-    C4-    C3-    H5
     2      4      3     11      9 ;     0.00   0.54392   3 ;     C2-    C4-    C3-    H6
     2      4      3     12      9 ;     0.00   0.54392   3 ;     C2-    C4-    C3-    H7
     3      4      2      7      9 ;     0.00   0.54392   3 ;     C3-    C4-    C2-    H2
     3      4      2      8      9 ;     0.00   0.54392   3 ;     C3-    C4-    C2-    H3
     3      4      2      9      9 ;     0.00   0.54392   3 ;     C3-    C4-    C2-    H4
     5      1      4      2      9 ;     0.00   2.84512   1 ;     O1-    C1-    C4-    C2
     5      1      4      2      9 ;   180.00   0.83680   2 ;     O1-    C1-    C4-    C2
     5      1      4      2      9 ;   180.00   1.84096   3 ;     O1-    C1-    C4-    C2
     5      1      4      3      9 ;     0.00   2.84512   1 ;     O1-    C1-    C4-    C3
     5      1      4      3      9 ;   180.00   0.83680   2 ;     O1-    C1-    C4-    C3
     5      1      4      3      9 ;   180.00   1.84096   3 ;     O1-    C1-    C4-    C3
     5      1      4     13      9 ;     0.00  16.86152   1 ;     O1-    C1-    C4-    H8
     5      1      4     13      9 ;   180.00  15.31344   2 ;     O1-    C1-    C4-    H8
     6      1      4      2      9 ;   180.00   0.00000   2 ;     H1-    C1-    C4-    C2
     6      1      4      3      9 ;   180.00   0.00000   2 ;     H1-    C1-    C4-    C3
     6      1      4     13      9 ;   180.00   0.00000   2 ;     H1-    C1-    C4-    H8
     7      2      4     13      9 ;     0.00   0.50208   3 ;     H2-    C2-    C4-    H8
     8      2      4     13      9 ;     0.00   0.50208   3 ;     H3-    C2-    C4-    H8
     9      2      4     13      9 ;     0.00   0.50208   3 ;     H4-    C2-    C4-    H8
    10      3      4     13      9 ;     0.00   0.50208   3 ;     H5-    C3-    C4-    H8
    11      3      4     13      9 ;     0.00   0.50208   3 ;     H6-    C3-    C4-    H8
    12      3      4     13      9 ;     0.00   0.50208   3 ;     H7-    C3-    C4-    H8

[ dihedrals ] ; impropers
; treated as propers in GROMACS to use correct AMBER analytical function
;    i      j      k      l   func   phase     kd      pn
     5      1      6      4      4 ;   180.00   4.60240   2 ;     O1-    C1-    H1-    C4
