%VERSION  VERSION_STAMP = V0001.000  DATE = 05/21/26  00:03:54                  
%FLAG TITLE                                                                     
%FORMAT(20a4)                                                                   
isobutyraldehyde                                                                
%FLAG POINTERS                                                                  
%FORMAT(10I8)                                                                   
      13       5       8       4      17       4      24       6       0       0
      58       1       4       4       6       5       8      10       5       0
       0       0       0       0       0       0       0       0      13       0
       0
%FLAG ATOM_NAME                                                                 
%FORMAT(20a4)                                                                   
C1  C2  C3  C4  O1  H1  H2  H3  H4  H5  H6  H7  H8  
%FLAG CHARGE                                                                    
%FORMAT(5E16.8)                                                                 
  1.03666665E+01 -1.60538463E+00 -1.60538463E+00 -3.42032571E+00 -9.53208513E+00
 -1.05689340E-01  7.53801884E-01  7.53801884E-01  7.53801884E-01  7.53801884E-01
  7.53801884E-01  7.53801884E-01  1.41587271E+00
%FLAG ATOMIC_NUMBER                                                             
%FORMAT(10I8)                                                                   
       6       6       6       6       8       1       1       1       1       1
       1       1       1
%FLAG MASS                                                                      
%FORMAT(5E16.8)                                                                 
  1.20100000E+01  1.20100000E+01  1.20100000E+01  1.20100000E+01  1.60000000E+01
  1.00800000E+00  1.00800000E+00  1.00800000E+00  1.00800000E+00  1.00800000E+00
  1.00800000E+00  1.00800000E+00  1.00800000E+00
%FLAG ATOM_TYPE_INDEX                                                           
%FORMAT(10I8)                                                                   
       1       2       2       2       3       4       5       5       5       5
       5       5       5
%FLAG NUMBER_EXCLUDED_ATOMS                                                     
%FORMAT(10I8)                                                                   
      12      11      10       9       2       1       3       2       1       3
       2       1       1
%FLAG NONBONDED_PARM_INDEX                                                      
%FORMAT(10I8)                                                                   
       1       2       4       7      11       2       3       5       8      12
       4       5       6       9      13       7       8       9      10      14
      11      12      13      14      15
%FLAG RESIDUE_LABEL                                                             
%FORMAT(20a4)                                                                   
MOL 
%FLAG RESIDUE_POINTER                                                           
%FORMAT(10I8)                                                                   
       1
%FLAG BOND_FORCE_CONSTANT                                                       
%FORMAT(5E16.8)                                                                 
  2.34850000E+02  5.90600000E+02  3.22470000E+02  2.28890000E+02  3.45250000E+02
%FLAG BOND_EQUIL_VALUE                                                          
%FORMAT(5E16.8)                                                                 
  1.52700000E+00  1.21900000E+00  1.11230000E+00  1.53540000E+00  1.09620000E+00
%FLAG ANGLE_FORCE_CONSTANT                                                      
%FORMAT(5E16.8)                                                                 
  6.03600000E+01  4.36300000E+01  5.98700000E+01  4.32700000E+01  7.64500000E+01
  4.24500000E+01  5.99800000E+01  3.58000000E+01
%FLAG ANGLE_EQUIL_VALUE                                                         
%FORMAT(5E16.8)                                                                 
  1.94482122E+00  1.90153704E+00  1.96576518E+00  1.91427794E+00  2.14501057E+00
  2.00206804E+00  2.10521705E+00  1.88024401E+00
%FLAG DIHEDRAL_FORCE_CONSTANT                                                   
%FORMAT(5E16.8)                                                                 
  1.55555556E-01  6.80000000E-01  2.00000000E-01  4.40000000E-01  0.00000000E+00
  1.30000000E-01  4.03000000E+00  3.66000000E+00  1.20000000E-01  1.10000000E+00
%FLAG DIHEDRAL_PERIODICITY                                                      
%FORMAT(5E16.8)                                                                 
  3.00000000E+00  1.00000000E+00  2.00000000E+00  3.00000000E+00  2.00000000E+00
  3.00000000E+00  1.00000000E+00  2.00000000E+00  3.00000000E+00  2.00000000E+00
%FLAG DIHEDRAL_PHASE                                                            
%FORMAT(5E16.8)                                                                 
  0.00000000E+00  0.00000000E+00  3.14159400E+00  3.14159400E+00  3.14159400E+00
  0.00000000E+00  0.00000000E+00  3.14159400E+00  0.00000000E+00  3.14159400E+00
%FLAG SCEE_SCALE_FACTOR                                                         
%FORMAT(5E16.8)                                                                 
  1.20000000E+00  1.20000000E+00  1.20000000E+00  1.20000000E+00  1.20000000E+00
  1.20000000E+00  1.20000000E+00  1.20000000E+00  1.20000000E+00  0.00000000E+00
%FLAG SCNB_SCALE_FACTOR                                                         
%FORMAT(5E16.8)                                                                 
  2.00000000E+00  2.00000000E+00  2.00000000E+00  2.00000000E+00  2.00000000E+00
  2.00000000E+00  2.00000000E+00  2.00000000E+00  2.00000000E+00  0.00000000E+00
%FLAG SOLTY                                                                     
%FORMAT(5E16.8)                                                                 
  0.00000000E+00  0.00000000E+00  0.00000000E+00  0.00000000E+00  0.00000000E+00
%FLAG LENNARD_JONES_ACOEF                                                       
%FORMAT(5E16.8)                                                                 
  6.96551276E+05  8.43969952E+05  1.02073671E+06  5.17507491E+05  6.30925504E+05
  3.76435470E+05  6.27751680E+04  7.75673747E+04  4.36069364E+04  4.56536476E+03
  8.12662403E+04  1.00235148E+05  5.68021765E+04  6.02863188E+03  7.94617769E+03
%FLAG LENNARD_JONES_BCOEF                                                       
%FORMAT(5E16.8)                                                                 
  5.24668528E+02  5.90251928E+02  6.63431737E+02  4.98871431E+02  5.62969425E+02
  4.69350655E+02  1.00073628E+02  1.13692208E+02  9.20079458E+01  1.71467049E+01
  1.21392023E+02  1.37787728E+02  1.11953944E+02  2.10068861E+01  2.57122925E+01
%FLAG BONDS_INC_HYDROGEN                                                        
%FORMAT(10I8)                                                                   
       0      15       3       3      18       5       3      21       5       3
      24       5       6      27       5       6      30       5       6      33
       5       9      36       5
%FLAG BONDS_WITHOUT_HYDROGEN                                                    
%FORMAT(10I8)                                                                   
       0       9       1       0      12       2       3       9       4       6
       9       4
%FLAG ANGLES_INC_HYDROGEN                                                       
%FORMAT(10I8)                                                                   
       0       9      36       2       3       9      36       4       6       9
      36       4       9       0      15       6       9       3      18       4
       9       3      21       4       9       3      24       4       9       6
      27       4       9       6      30       4       9       6      33       4
      12       0      15       7      18       3      21       8      18       3
      24       8      21       3      24       8      27       6      30       8
      27       6      33       8      30       6      33       8
%FLAG ANGLES_WITHOUT_HYDROGEN                                                   
%FORMAT(10I8)                                                                   
       0       9       3       1       0       9       6       1       3       9
       6       3       9       0      12       5
%FLAG DIHEDRALS_INC_HYDROGEN                                                    
%FORMAT(10I8)                                                                   
       0       9       3      18       1       0       9       3      21       1
       0       9       3      24       1       0       9       6      27       1
       0       9       6      30       1       0       9       6      33       1
      15       0       9       3       5       3       9       6      27       6
       3       9       6      30       6       3       9       6      33       6
      15       0       9       6       5       6       9       3      18       6
       6       9       3      21       6       6       9       3      24       6
      12       0       9      36       7      12       0      -9      36       8
      15       0       9      36       5      18       3       9      36       9
      21       3       9      36       9      24       3       9      36       9
      27       6       9      36       9      30       6       9      36       9
      33       6       9      36       9      12       0     -15      -9      10
%FLAG DIHEDRALS_WITHOUT_HYDROGEN                                                
%FORMAT(10I8)                                                                   
      12       0       9       3       2      12       0      -9       3       3
      12       0      -9       3       4      12       0       9       6       2
      12       0      -9       6       3      12       0      -9       6       4
%FLAG EXCLUDED_ATOMS_LIST                                                       
%FORMAT(10I8)                                                                   
       2       3       4       5       6       7       8       9      10      11
      12      13       3       4       5       6       7       8       9      10
      11      12      13       4       5       6       7       8       9      10
      11      12      13       5       6       7       8       9      10      11
      12      13       6      13      13       8       9      13       9      13
      13      11      12      13      12      13      13       0
%FLAG HBOND_ACOEF                                                               
%FORMAT(5E16.8)                                                                 

%FLAG HBOND_BCOEF                                                               
%FORMAT(5E16.8)                                                                 

%FLAG HBCUT                                                                     
%FORMAT(5E16.8)                                                                 

%FLAG AMBER_ATOM_TYPE                                                           
%FORMAT(20a4)                                                                   
c   c3  c3  c3  o   h4  hc  hc  hc  hc  hc  hc  hc  
%FLAG TREE_CHAIN_CLASSIFICATION                                                 
%FORMAT(20a4)                                                                   
BLA BLA BLA BLA BLA BLA BLA BLA BLA BLA BLA BLA BLA 
%FLAG JOIN_ARRAY                                                                
%FORMAT(10I8)                                                                   
       0       0       0       0       0       0       0       0       0       0
       0       0       0
%FLAG IROTAT                                                                    
%FORMAT(10I8)                                                                   
       0       0       0       0       0       0       0       0       0       0
       0       0       0
%FLAG RADIUS_SET                                                                
%FORMAT(1a80)                                                                   
modified Bondi radii (mbondi)                                                   
%FLAG RADII                                                                     
%FORMAT(5E16.8)                                                                 
  1.70000000E+00  1.70000000E+00  1.70000000E+00  1.70000000E+00  1.50000000E+00
  1.30000000E+00  1.30000000E+00  1.30000000E+00  1.30000000E+00  1.30000000E+00
  1.30000000E+00  1.30000000E+00  1.30000000E+00
%FLAG SCREEN                                                                    
%FORMAT(5E16.8)                                                                 
  7.20000000E-01  7.20000000E-01  7.20000000E-01  7.20000000E-01  8.50000000E-01
  8.50000000E-01  8.50000000E-01  8.50000000E-01  8.50000000E-01  8.50000000E-01
  8.50000000E-01  8.50000000E-01  8.50000000E-01
%FLAG IPOL                                                                      
%FORMAT(1I8)                                                                    
       0
