; mobley_9029594_GMX_OPLS.itp created by acpype (v: 2023.10.27) on Wed May 20 23:50:20 2026

; For OPLS atomtypes manual fine tuning
; AC_at:OPLS_at:OPLScode: Possible_Alternatives (see ffoplsaa.atp and ffoplsaanb.itp)
; c3:CT:opls_135: ['136', '137', '149', '157', '158', '206', '209', '210', '223B', '224B', '245', '246', '274', '283', '284', '285', '292', '292B', '293B', '296', '307', '308', '505']
; f:x:opls_x: []
; h1:HC:opls_140: []

[ moleculetype ]
;name            nrexcl
 mobley_9029594   3

[ atoms ]
;   nr  type  resi  res  atom  cgnr     charge      mass       ; qtot   bond_type
     1 opls_135     1   MOL    C1    1     0.148200     12.01100 ; qtot  0.148  CT  
     2 opls_x     1   MOL    F1    2    -0.249300      0.00000 ; qtot -0.101  x   
     3 opls_140     1   MOL    H1    3     0.033700      1.00800 ; qtot -0.067  HC  
     4 opls_140     1   MOL    H2    4     0.033700      1.00800 ; qtot -0.034  HC  
     5 opls_140     1   MOL    H3    5     0.033700      1.00800 ; qtot -0.000  HC  

[ bonds ]
;   ai     aj funct   r             k
     1      2   1 ;    1.3512e-01    2.7973e+05 ;     C1 - F1         CT - x     
     1      3   1 ;    1.0969e-01    2.8804e+05 ;     C1 - H1         CT - HC    
     1      4   1 ;    1.0969e-01    2.8804e+05 ;     C1 - H2         CT - HC    
     1      5   1 ;    1.0969e-01    2.8804e+05 ;     C1 - H3         CT - HC    

[ angles ]
;   ai     aj     ak    funct   theta         cth
     2      1      3      1 ;    1.0828e+02    5.0200e+02 ;     F1 - C1   - H1        x -   CT - HC  
     2      1      4      1 ;    1.0828e+02    5.0200e+02 ;     F1 - C1   - H2        x -   CT - HC  
     2      1      5      1 ;    1.0828e+02    5.0200e+02 ;     F1 - C1   - H3        x -   CT - HC  
     3      1      4      1 ;    1.0855e+02    2.9824e+02 ;     H1 - C1   - H2       HC -   CT - HC  
     3      1      5      1 ;    1.0855e+02    2.9824e+02 ;     H1 - C1   - H3       HC -   CT - HC  
     4      1      5      1 ;    1.0855e+02    2.9824e+02 ;     H2 - C1   - H3       HC -   CT - HC  
