; mobley_9029594_GMX.itp created by acpype (v: 2023.10.27) on Wed May 20 23:50:20 2026

[ atomtypes ]
;name   bond_type     mass     charge   ptype   sigma         epsilon       Amb
 c3       c3          0.00000  0.00000   A     3.39771e-01   4.51035e-01 ; 1.91  0.1078
 f        f           0.00000  0.00000   A     3.03422e-01   3.48109e-01 ; 1.70  0.0832
 h1       h1          0.00000  0.00000   A     2.42200e-01   8.70272e-02 ; 1.36  0.0208

[ moleculetype ]
;name            nrexcl
 mobley_9029594   3

[ atoms ]
;   nr  type  resi  res  atom  cgnr     charge      mass       ; qtot   bond_type
     1   c3     1   MOL    C1    1     0.148200     12.01000 ; qtot 0.148
     2    f     1   MOL    F1    2    -0.249300     19.00000 ; qtot -0.101
     3   h1     1   MOL    H1    3     0.033700      1.00800 ; qtot -0.067
     4   h1     1   MOL    H2    4     0.033700      1.00800 ; qtot -0.034
     5   h1     1   MOL    H3    5     0.033700      1.00800 ; qtot -0.000

[ bonds ]
;   ai     aj funct   r             k
     1      2   1    1.3512e-01    2.7973e+05 ;     C1 - F1    
     1      3   1    1.0969e-01    2.8804e+05 ;     C1 - H1    
     1      4   1    1.0969e-01    2.8804e+05 ;     C1 - H2    
     1      5   1    1.0969e-01    2.8804e+05 ;     C1 - H3    

[ angles ]
;   ai     aj     ak    funct   theta         cth
     2      1      3      1    1.0828e+02    5.0200e+02 ;     F1 - C1     - H1    
     2      1      4      1    1.0828e+02    5.0200e+02 ;     F1 - C1     - H2    
     2      1      5      1    1.0828e+02    5.0200e+02 ;     F1 - C1     - H3    
     3      1      4      1    1.0855e+02    2.9824e+02 ;     H1 - C1     - H2    
     3      1      5      1    1.0855e+02    2.9824e+02 ;     H1 - C1     - H3    
     4      1      5      1    1.0855e+02    2.9824e+02 ;     H2 - C1     - H3    
