; mobley_9029594_GMX_OPLS.top created by acpype (v: 2023.10.27) on Wed May 20 23:50:20 2026

; Include forcefield parameters
#include "ffoplsaa.itp"

; Include mobley_9029594_GMX.itp topology
#include "mobley_9029594_GMX.itp"

; Ligand position restraints
#ifdef POSRES_LIG
#include "posre_mobley_9029594.itp"
#endif

[ system ]
 mobley_9029594

[ molecules ]
; Compound        nmols
 mobley_9029594   1     
