mobley_9029594_GMX.gro created by acpype (v: 2023.10.27) on Wed May 20 23:50:20 2026
 5
    1  MOL   C1    1  -0.044   0.080  -0.060
    1  MOL   F1    2  -0.122   0.157   0.020
    1  MOL   H1    3   0.034   0.142  -0.103
    1  MOL   H2    4   0.000  -0.000   0.000
    1  MOL   H3    5  -0.106   0.038  -0.139
    3.13000     3.13400     3.18800
