mobley_430089_GMX.gro created by acpype (v: 2023.10.27) on Wed May 20 23:44:32 2026
   13
    1MOL     C1    1   2.529   2.137   2.453
    1MOL     C2    2   2.431   2.191   2.409
    1MOL     C3    3   2.219   2.471   2.257
    1MOL     C4    4   2.312   2.257   2.354
    1MOL     C5    5   2.343   2.400   2.310
    1MOL     H1    6   2.615   2.089   2.493
    1MOL     H2    7   2.141   2.476   2.333
    1MOL     H3    8   2.244   2.573   2.226
    1MOL     H4    9   2.179   2.418   2.170
    1MOL     H5   10   2.274   2.200   2.269
    1MOL     H6   11   2.233   2.258   2.430
    1MOL     H7   12   2.421   2.400   2.233
    1MOL     H8   13   2.383   2.458   2.395
   4.66572   4.66572   4.66572
