res
    16
   0.0000000  -0.5120000   0.8370000   0.0000000   0.0210000   0.0060000
  -0.0180000  -0.5420000  -0.8490000  -0.0330000   1.3620000  -0.0910000
  -0.0660000   1.9680000  -1.1890000   0.0220000   2.1320000   1.1800000
   0.5170000   1.5740000   2.3760000   0.9060000   0.5850000   2.4480000
   0.5160000   2.3580000   3.5470000   0.9130000   1.9440000   4.4470000
   0.0600000   3.6780000   3.5270000  -0.4140000   4.2290000   2.3510000
  -0.7820000   5.2540000   2.3480000  -0.4310000   3.4770000   1.1660000
  -0.8170000   3.9310000   0.2740000   0.0720000   4.2690000   4.4510000
