%VERSION  VERSION_STAMP = V0001.000  DATE = 05/20/26  23:53:42                  
%FLAG TITLE                                                                     
%FORMAT(20a4)                                                                   
res                                                                             
%FLAG POINTERS                                                                  
%FORMAT(10I8)                                                                   
      16       5       7       9      13      11      28      14       0       0
      71       1       9      11      14       6       8       7       6       0
       0       0       0       0       0       0       0       0      16       0
       0
%FLAG ATOM_NAME                                                                 
%FORMAT(20a4)                                                                   
H11 N1  H12 C1  O1  C2  C3  H31 C5  H51 C7  C6  H61 C4  H41 H71 
%FLAG CHARGE                                                                    
%FORMAT(5E16.8)                                                                 
  5.69446875E+00 -1.23000525E+01  5.69446875E+00  1.22216966E+01 -1.11174252E+01
 -2.58027768E+00 -1.65822930E+00  2.63312235E+00 -2.52378855E+00  2.49645510E+00
 -1.98623070E+00 -2.52378855E+00  2.49645510E+00 -1.65822930E+00  2.63312235E+00
  2.46001050E+00
%FLAG ATOMIC_NUMBER                                                             
%FORMAT(10I8)                                                                   
       1       7       1       6       8       6       6       1       6       1
       6       6       1       6       1       1
%FLAG MASS                                                                      
%FORMAT(5E16.8)                                                                 
  1.00800000E+00  1.40100000E+01  1.00800000E+00  1.20100000E+01  1.60000000E+01
  1.20100000E+01  1.20100000E+01  1.00800000E+00  1.20100000E+01  1.00800000E+00
  1.20100000E+01  1.20100000E+01  1.00800000E+00  1.20100000E+01  1.00800000E+00
  1.00800000E+00
%FLAG ATOM_TYPE_INDEX                                                           
%FORMAT(10I8)                                                                   
       1       2       1       3       4       3       3       5       3       5
       3       3       5       3       5       5
%FLAG NUMBER_EXCLUDED_ATOMS                                                     
%FORMAT(10I8)                                                                   
       5       6       3       8       3       9       8       4       6       3
       5       4       3       2       1       1
%FLAG NONBONDED_PARM_INDEX                                                      
%FORMAT(10I8)                                                                   
       1       2       4       7      11       2       3       5       8      12
       4       5       6       9      13       7       8       9      10      14
      11      12      13      14      15
%FLAG RESIDUE_LABEL                                                             
%FORMAT(20a4)                                                                   
MOL 
%FLAG RESIDUE_POINTER                                                           
%FORMAT(10I8)                                                                   
       1
%FLAG BOND_FORCE_CONSTANT                                                       
%FORMAT(5E16.8)                                                                 
  4.79540000E+02  3.50460000E+02  5.90600000E+02  2.62840000E+02  3.54250000E+02
  3.60690000E+02
%FLAG BOND_EQUIL_VALUE                                                          
%FORMAT(5E16.8)                                                                 
  1.01050000E+00  1.36750000E+00  1.21900000E+00  1.49070000E+00  1.39860000E+00
  1.08600000E+00
%FLAG ANGLE_FORCE_CONSTANT                                                      
%FORMAT(5E16.8)                                                                 
  4.58700000E+01  5.75500000E+01  8.77400000E+01  6.68800000E+01  6.14400000E+01
  7.79600000E+01  4.49000000E+01  6.36700000E+01
%FLAG ANGLE_EQUIL_VALUE                                                         
%FORMAT(5E16.8)                                                                 
  2.05861674E+00  2.06716885E+00  2.14640683E+00  2.03400758E+00  2.10015559E+00
  2.13977458E+00  2.09230160E+00  2.09474507E+00
%FLAG DIHEDRAL_FORCE_CONSTANT                                                   
%FORMAT(5E16.8)                                                                 
  2.00000000E+00  2.50000000E+00  2.12250000E+00  3.62500000E+00  5.80000000E-01
  1.10000000E+00  1.05000000E+01
%FLAG DIHEDRAL_PERIODICITY                                                      
%FORMAT(5E16.8)                                                                 
  1.00000000E+00  2.00000000E+00  2.00000000E+00  2.00000000E+00  2.00000000E+00
  2.00000000E+00  2.00000000E+00
%FLAG DIHEDRAL_PHASE                                                            
%FORMAT(5E16.8)                                                                 
  0.00000000E+00  3.14159400E+00  3.14159400E+00  3.14159400E+00  3.14159400E+00
  3.14159400E+00  3.14159400E+00
%FLAG SCEE_SCALE_FACTOR                                                         
%FORMAT(5E16.8)                                                                 
  1.20000000E+00  1.20000000E+00  1.20000000E+00  1.20000000E+00  1.20000000E+00
  0.00000000E+00  0.00000000E+00
%FLAG SCNB_SCALE_FACTOR                                                         
%FORMAT(5E16.8)                                                                 
  2.00000000E+00  2.00000000E+00  2.00000000E+00  2.00000000E+00  2.00000000E+00
  0.00000000E+00  0.00000000E+00
%FLAG SOLTY                                                                     
%FORMAT(5E16.8)                                                                 
  0.00000000E+00  0.00000000E+00  0.00000000E+00  0.00000000E+00  0.00000000E+00
  0.00000000E+00
%FLAG LENNARD_JONES_ACOEF                                                       
%FORMAT(5E16.8)                                                                 
  1.34728399E-01  1.79123880E+03  7.02390584E+05  1.71458823E+03  6.99645872E+05
  6.96551276E+05  9.87857350E+02  5.21528699E+05  5.17507491E+05  3.76435470E+05
  9.04434904E+01  7.62837948E+04  7.52549148E+04  5.27277400E+04  6.90855956E+03
%FLAG LENNARD_JONES_BCOEF                                                       
%FORMAT(5E16.8)                                                                 
  7.34107347E-02  1.44573645E+01  4.88972141E+02  1.46824710E+01  5.06571509E+02
  5.24668528E+02  1.22938581E+01  4.82461401E+02  4.98871431E+02  4.69350655E+02
  2.14252117E+00  1.06275951E+02  1.09570372E+02  1.01173582E+02  2.10929191E+01
%FLAG BONDS_INC_HYDROGEN                                                        
%FORMAT(10I8)                                                                   
       0       3       1       3       6       1      18      21       6      24
      27       6      30      45       6      33      36       6      39      42
       6
%FLAG BONDS_WITHOUT_HYDROGEN                                                    
%FORMAT(10I8)                                                                   
       3       9       2       9      12       3       9      15       4      15
      18       5      15      39       5      18      24       5      24      30
       5      30      33       5      33      39       5
%FLAG ANGLES_INC_HYDROGEN                                                       
%FORMAT(10I8)                                                                   
       0       3       6       1       0       3       9       2       6       3
       9       2      15      18      21       7      15      39      42       7
      18      24      27       7      21      18      24       7      24      30
      45       7      27      24      30       7      30      33      36       7
      33      30      45       7      33      39      42       7      36      33
      39       7
%FLAG ANGLES_WITHOUT_HYDROGEN                                                   
%FORMAT(10I8)                                                                   
       3       9      12       3       3       9      15       4       9      15
      18       5       9      15      39       5      12       9      15       6
      15      18      24       8      15      39      33       8      18      15
      39       8      18      24      30       8      24      30      33       8
      30      33      39       8
%FLAG DIHEDRALS_INC_HYDROGEN                                                    
%FORMAT(10I8)                                                                   
       0       3       9      12       1       0       3      -9      12       2
       0       3       9      15       2       6       3       9      12       1
       6       3      -9      12       2       6       3       9      15       2
       9      15      18      21       4       9      15      39      42       4
      15      18      24      27       4      15      39      33      36       4
      18      15      39      42       4      18      24      30      45       4
      21      18      15      39       4      21      18      24      27       4
      21      18      24      30       4      24      30      33      36       4
      27      24      30      33       4      27      24      30      45       4
      30      33      39      42       4      36      33      30      45       4
      36      33      39      42       4      39      33      30      45       4
       9       0      -3      -6       6      15      24     -18     -21       6
      18      30     -24     -27       6      24      33     -30     -45       6
      30      39     -33     -36       6      15      33     -39     -42       6
%FLAG DIHEDRALS_WITHOUT_HYDROGEN                                                
%FORMAT(10I8)                                                                   
       3       9      15      18       3       3       9      15      39       3
       9      15      18      24       4       9      15      39      33       4
      12       9      15      18       5      12       9      15      39       5
      15      18      24      30       4      15      39     -33      30       4
      18      15      39      33       4      18      24     -30      33       4
      24      18      15      39       4      24      30     -33      39       4
      15       3      -9     -12       7       9      18     -15     -39       6
%FLAG EXCLUDED_ATOMS_LIST                                                       
%FORMAT(10I8)                                                                   
       2       3       4       5       6       3       4       5       6       7
      14       4       5       6       5       6       7       8       9      12
      14      15       6       7      14       7       8       9      10      11
      12      13      14      15       8       9      10      11      12      14
      15      16       9      10      11      14      10      11      12      13
      14      16      11      12      16      12      13      14      15      16
      13      14      15      16      14      15      16      15      16       0
       0
%FLAG HBOND_ACOEF                                                               
%FORMAT(5E16.8)                                                                 

%FLAG HBOND_BCOEF                                                               
%FORMAT(5E16.8)                                                                 

%FLAG HBCUT                                                                     
%FORMAT(5E16.8)                                                                 

%FLAG AMBER_ATOM_TYPE                                                           
%FORMAT(20a4)                                                                   
hn  nt  hn  c   o   ca  ca  ha  ca  ha  ca  ca  ha  ca  ha  ha  
%FLAG TREE_CHAIN_CLASSIFICATION                                                 
%FORMAT(20a4)                                                                   
BLA BLA BLA BLA BLA BLA BLA BLA BLA BLA BLA BLA BLA BLA BLA BLA 
%FLAG JOIN_ARRAY                                                                
%FORMAT(10I8)                                                                   
       0       0       0       0       0       0       0       0       0       0
       0       0       0       0       0       0
%FLAG IROTAT                                                                    
%FORMAT(10I8)                                                                   
       0       0       0       0       0       0       0       0       0       0
       0       0       0       0       0       0
%FLAG RADIUS_SET                                                                
%FORMAT(1a80)                                                                   
modified Bondi radii (mbondi)                                                   
%FLAG RADII                                                                     
%FORMAT(5E16.8)                                                                 
  1.30000000E+00  1.55000000E+00  1.30000000E+00  1.70000000E+00  1.50000000E+00
  1.70000000E+00  1.70000000E+00  1.30000000E+00  1.70000000E+00  1.30000000E+00
  1.70000000E+00  1.70000000E+00  1.30000000E+00  1.70000000E+00  1.30000000E+00
  1.30000000E+00
%FLAG SCREEN                                                                    
%FORMAT(5E16.8)                                                                 
  8.50000000E-01  7.90000000E-01  8.50000000E-01  7.20000000E-01  8.50000000E-01
  7.20000000E-01  7.20000000E-01  8.50000000E-01  7.20000000E-01  8.50000000E-01
  7.20000000E-01  7.20000000E-01  8.50000000E-01  7.20000000E-01  8.50000000E-01
  8.50000000E-01
%FLAG IPOL                                                                      
%FORMAT(1I8)                                                                    
       0
