; mobley_1728386_GMX_OPLS.top created by acpype (v: 2023.10.27) on Wed May 20 23:53:41 2026

; Include forcefield parameters
#include "ffoplsaa.itp"

; Include mobley_1728386_GMX.itp topology
#include "mobley_1728386_GMX.itp"

; Ligand position restraints
#ifdef POSRES_LIG
#include "posre_mobley_1728386.itp"
#endif

[ system ]
 mobley_1728386

[ molecules ]
; Compound        nmols
 mobley_1728386   1     
