; mobley_4630641_GMX_OPLS.itp created by acpype (v: 2023.10.27) on Wed May 20 23:52:06 2026

; For OPLS atomtypes manual fine tuning
; AC_at:OPLS_at:OPLScode: Possible_Alternatives (see ffoplsaa.atp and ffoplsaanb.itp)
; c3:CT:opls_135: ['136', '137', '149', '157', '158', '206', '209', '210', '223B', '224B', '245', '246', '274', '283', '284', '285', '292', '292B', '293B', '296', '307', '308', '505']
; os:x:opls_x: []
; h1:HC:opls_140: []

[ moleculetype ]
;name            nrexcl
 mobley_4630641   3

[ atoms ]
;   nr  type  resi  res  atom  cgnr     charge      mass       ; qtot   bond_type
     1 opls_135     1   MOL    C1    1     0.117700     12.01100 ; qtot  0.118  CT  
     2 opls_135     1   MOL    C2    2     0.117700     12.01100 ; qtot  0.235  CT  
     3 opls_135     1   MOL    C3    3     0.123400     12.01100 ; qtot  0.359  CT  
     4 opls_135     1   MOL    C4    4     0.123400     12.01100 ; qtot  0.482  CT  
     5 opls_x     1   MOL    O1    5    -0.425599      0.00000 ; qtot  0.057  x   
     6 opls_x     1   MOL    O2    6    -0.425599      0.00000 ; qtot -0.369  x   
     7 opls_140     1   MOL    H1    7     0.033033      1.00800 ; qtot -0.336  HC  
     8 opls_140     1   MOL    H2    8     0.033033      1.00800 ; qtot -0.303  HC  
     9 opls_140     1   MOL    H3    9     0.033033      1.00800 ; qtot -0.270  HC  
    10 opls_140     1   MOL    H4   10     0.033033      1.00800 ; qtot -0.237  HC  
    11 opls_140     1   MOL    H5   11     0.033033      1.00800 ; qtot -0.204  HC  
    12 opls_140     1   MOL    H6   12     0.033033      1.00800 ; qtot -0.171  HC  
    13 opls_140     1   MOL    H7   13     0.042700      1.00800 ; qtot -0.128  HC  
    14 opls_140     1   MOL    H8   14     0.042700      1.00800 ; qtot -0.085  HC  
    15 opls_140     1   MOL    H9   15     0.042700      1.00800 ; qtot -0.043  HC  
    16 opls_140     1   MOL   H10   16     0.042700      1.00800 ; qtot -0.000  HC  

[ bonds ]
;   ai     aj funct   r             k
     1      5   1 ;    1.4273e-01    2.3620e+05 ;     C1 - O1         CT - x     
     1      7   1 ;    1.0969e-01    2.8804e+05 ;     C1 - H1         CT - HC    
     1      8   1 ;    1.0969e-01    2.8804e+05 ;     C1 - H2         CT - HC    
     1      9   1 ;    1.0969e-01    2.8804e+05 ;     C1 - H3         CT - HC    
     2      6   1 ;    1.4273e-01    2.3620e+05 ;     C2 - O2         CT - x     
     2     10   1 ;    1.0969e-01    2.8804e+05 ;     C2 - H4         CT - HC    
     2     11   1 ;    1.0969e-01    2.8804e+05 ;     C2 - H5         CT - HC    
     2     12   1 ;    1.0969e-01    2.8804e+05 ;     C2 - H6         CT - HC    
     3      4   1 ;    1.5354e-01    1.9154e+05 ;     C3 - C4         CT - CT    
     3      5   1 ;    1.4273e-01    2.3620e+05 ;     C3 - O1         CT - x     
     3     13   1 ;    1.0969e-01    2.8804e+05 ;     C3 - H7         CT - HC    
     3     14   1 ;    1.0969e-01    2.8804e+05 ;     C3 - H8         CT - HC    
     4      6   1 ;    1.4273e-01    2.3620e+05 ;     C4 - O2         CT - x     
     4     15   1 ;    1.0969e-01    2.8804e+05 ;     C4 - H9         CT - HC    
     4     16   1 ;    1.0969e-01    2.8804e+05 ;     C4 - H10        CT - HC    

[ pairs ]
;   ai     aj    funct
     1      4      1 ;     C1 - C4    
     1     13      1 ;     C1 - H7    
     1     14      1 ;     C1 - H8    
     2      3      1 ;     C2 - C3    
     2     15      1 ;     C2 - H9    
     2     16      1 ;     C2 - H10   
     4     10      1 ;     C4 - H4    
     4     11      1 ;     C4 - H5    
     4     12      1 ;     C4 - H6    
     5      6      1 ;     O1 - O2    
     5     15      1 ;     O1 - H9    
     5     16      1 ;     O1 - H10   
     6     13      1 ;     O2 - H7    
     6     14      1 ;     O2 - H8    
     7      3      1 ;     H1 - C3    
     8      3      1 ;     H2 - C3    
     9      3      1 ;     H3 - C3    
    13     15      1 ;     H7 - H9    
    13     16      1 ;     H7 - H10   
    14     15      1 ;     H8 - H9    
    14     16      1 ;     H8 - H10   

[ angles ]
;   ai     aj     ak    funct   theta         cth
     1      5      3      1 ;    1.1360e+02    7.3915e+02 ;     C1 - O1   - C3       CT -    x - CT  
     2      6      4      1 ;    1.1360e+02    7.3915e+02 ;     C2 - O2   - C4       CT -    x - CT  
     3      4      6      1 ;    1.0762e+02    6.4802e+02 ;     C3 - C4   - O2       CT -   CT - x   
     3      4     15      1 ;    1.0959e+02    3.6217e+02 ;     C3 - C4   - H9       CT -   CT - HC  
     3      4     16      1 ;    1.0959e+02    3.6217e+02 ;     C3 - C4   - H10      CT -   CT - HC  
     4      3      5      1 ;    1.0762e+02    6.4802e+02 ;     C4 - C3   - O1       CT -   CT - x   
     4      3     13      1 ;    1.0959e+02    3.6217e+02 ;     C4 - C3   - H7       CT -   CT - HC  
     4      3     14      1 ;    1.0959e+02    3.6217e+02 ;     C4 - C3   - H8       CT -   CT - HC  
     5      1      7      1 ;    1.1034e+02    4.7028e+02 ;     O1 - C1   - H1        x -   CT - HC  
     5      1      8      1 ;    1.1034e+02    4.7028e+02 ;     O1 - C1   - H2        x -   CT - HC  
     5      1      9      1 ;    1.1034e+02    4.7028e+02 ;     O1 - C1   - H3        x -   CT - HC  
     5      3     13      1 ;    1.1034e+02    4.7028e+02 ;     O1 - C3   - H7        x -   CT - HC  
     5      3     14      1 ;    1.1034e+02    4.7028e+02 ;     O1 - C3   - H8        x -   CT - HC  
     6      2     10      1 ;    1.1034e+02    4.7028e+02 ;     O2 - C2   - H4        x -   CT - HC  
     6      2     11      1 ;    1.1034e+02    4.7028e+02 ;     O2 - C2   - H5        x -   CT - HC  
     6      2     12      1 ;    1.1034e+02    4.7028e+02 ;     O2 - C2   - H6        x -   CT - HC  
     6      4     15      1 ;    1.1034e+02    4.7028e+02 ;     O2 - C4   - H9        x -   CT - HC  
     6      4     16      1 ;    1.1034e+02    4.7028e+02 ;     O2 - C4   - H10       x -   CT - HC  
     7      1      8      1 ;    1.0855e+02    2.9824e+02 ;     H1 - C1   - H2       HC -   CT - HC  
     7      1      9      1 ;    1.0855e+02    2.9824e+02 ;     H1 - C1   - H3       HC -   CT - HC  
     8      1      9      1 ;    1.0855e+02    2.9824e+02 ;     H2 - C1   - H3       HC -   CT - HC  
    10      2     11      1 ;    1.0855e+02    2.9824e+02 ;     H4 - C2   - H5       HC -   CT - HC  
    10      2     12      1 ;    1.0855e+02    2.9824e+02 ;     H4 - C2   - H6       HC -   CT - HC  
    11      2     12      1 ;    1.0855e+02    2.9824e+02 ;     H5 - C2   - H6       HC -   CT - HC  
    13      3     14      1 ;    1.0855e+02    2.9824e+02 ;     H7 - C3   - H8       HC -   CT - HC  
    15      4     16      1 ;    1.0855e+02    2.9824e+02 ;     H9 - C4   - H10      HC -   CT - HC  

[ dihedrals ] ; propers
; for gromacs 4.5 or higher, using funct 9
;    i      j      k      l   func   phase     kd      pn
     1      5      3      4      9 ;     0.00   0.33472   2 ;     C1-    O1-    C3-    C4
     1      5      3      4      9 ;     0.00   3.13800   3 ;     C1-    O1-    C3-    C4
     1      5      3      4      9 ;   180.00   3.68192   1 ;     C1-    O1-    C3-    C4
     1      5      3     13      9 ;     0.00   1.41001   3 ;     C1-    O1-    C3-    H7
     1      5      3     14      9 ;     0.00   1.41001   3 ;     C1-    O1-    C3-    H8
     2      6      4      3      9 ;     0.00   0.33472   2 ;     C2-    O2-    C4-    C3
     2      6      4      3      9 ;     0.00   3.13800   3 ;     C2-    O2-    C4-    C3
     2      6      4      3      9 ;   180.00   3.68192   1 ;     C2-    O2-    C4-    C3
     2      6      4     15      9 ;     0.00   1.41001   3 ;     C2-    O2-    C4-    H9
     2      6      4     16      9 ;     0.00   1.41001   3 ;     C2-    O2-    C4-   H10
     4      6      2     10      9 ;     0.00   1.41001   3 ;     C4-    O2-    C2-    H4
     4      6      2     11      9 ;     0.00   1.41001   3 ;     C4-    O2-    C2-    H5
     4      6      2     12      9 ;     0.00   1.41001   3 ;     C4-    O2-    C2-    H6
     5      3      4      6      9 ;     0.00   0.75312   1 ;     O1-    C3-    C4-    O2
     5      3      4      6      9 ;     0.00   2.09200   3 ;     O1-    C3-    C4-    O2
     5      3      4      6      9 ;     0.00   3.76560   2 ;     O1-    C3-    C4-    O2
     5      3      4     15      9 ;     0.00   0.00000   0 ;     O1-    C3-    C4-    H9
     5      3      4     15      9 ;     0.00   1.04600   1 ;     O1-    C3-    C4-    H9
     5      3      4     16      9 ;     0.00   0.00000   0 ;     O1-    C3-    C4-   H10
     5      3      4     16      9 ;     0.00   1.04600   1 ;     O1-    C3-    C4-   H10
     6      4      3     13      9 ;     0.00   0.00000   0 ;     O2-    C4-    C3-    H7
     6      4      3     13      9 ;     0.00   1.04600   1 ;     O2-    C4-    C3-    H7
     6      4      3     14      9 ;     0.00   0.00000   0 ;     O2-    C4-    C3-    H8
     6      4      3     14      9 ;     0.00   1.04600   1 ;     O2-    C4-    C3-    H8
     7      1      5      3      9 ;     0.00   1.41001   3 ;     H1-    C1-    O1-    C3
     8      1      5      3      9 ;     0.00   1.41001   3 ;     H2-    C1-    O1-    C3
     9      1      5      3      9 ;     0.00   1.41001   3 ;     H3-    C1-    O1-    C3
    13      3      4     15      9 ;     0.00   0.65084   3 ;     H7-    C3-    C4-    H9
    13      3      4     16      9 ;     0.00   0.65084   3 ;     H7-    C3-    C4-   H10
    14      3      4     15      9 ;     0.00   0.65084   3 ;     H8-    C3-    C4-    H9
    14      3      4     16      9 ;     0.00   0.65084   3 ;     H8-    C3-    C4-   H10
