; mobley_4630641_GMX_OPLS.top created by acpype (v: 2023.10.27) on Wed May 20 23:52:06 2026

; Include forcefield parameters
#include "ffoplsaa.itp"

; Include mobley_4630641_GMX.itp topology
#include "mobley_4630641_GMX.itp"

; Ligand position restraints
#ifdef POSRES_LIG
#include "posre_mobley_4630641.itp"
#endif

[ system ]
 mobley_4630641

[ molecules ]
; Compound        nmols
 mobley_4630641   1     
