12_dimethoxyethane
    16
   0.3150000   0.8020000   2.4260000  -3.2680000  -2.2460000  -0.3500000
  -0.8940000   0.4510000   0.4420000  -2.1460000  -0.1940000  -0.1210000
  -0.8530000   0.2360000   1.8470000  -2.1050000  -1.5920000   0.1370000
   0.1260000   1.0340000   3.4770000   0.5880000   1.7100000   1.8840000
   1.1320000   0.0790000   2.3570000  -3.9630000  -1.5040000  -0.7500000
  -3.7410000  -2.8030000   0.4620000  -2.9800000  -2.9380000  -1.1450000
  -0.8900000   1.5300000   0.2610000   0.0000000   0.0000000   0.0000000
  -2.2120000  -0.0490000  -1.2040000  -3.0380000   0.2180000   0.3610000
