mobley_4630641_GMX.gro created by acpype (v: 2023.10.27) on Wed May 20 23:52:06 2026
 16
    1  MOL   C1    1   0.032   0.080   0.243
    1  MOL   C2    2  -0.327  -0.225  -0.035
    1  MOL   C3    3  -0.089   0.045   0.044
    1  MOL   C4    4  -0.215  -0.019  -0.012
    1  MOL   O1    5  -0.085   0.024   0.185
    1  MOL   O2    6  -0.211  -0.159   0.014
    1  MOL   H1    7   0.013   0.103   0.348
    1  MOL   H2    8   0.059   0.171   0.188
    1  MOL   H3    9   0.113   0.008   0.236
    1  MOL   H4   10  -0.396  -0.150  -0.075
    1  MOL   H5   11  -0.374  -0.280   0.046
    1  MOL   H6   12  -0.298  -0.294  -0.115
    1  MOL   H7   13  -0.089   0.153   0.026
    1  MOL   H8   14   0.000   0.000   0.000
    1  MOL   H9   15  -0.221  -0.005  -0.120
    1  MOL  H10   16  -0.304   0.022   0.036
   10.19000     9.29600     9.36200
