; mobley_2517158_GMX.top created by acpype (v: 2023.10.27) on Wed May 20 23:50:20 2026

[ defaults ]
; nbfunc        comb-rule       gen-pairs       fudgeLJ fudgeQQ
1               2               yes             0.5     0.8333333333

; Include mobley_2517158_GMX.itp topology
#include "mobley_2517158_GMX.itp"

; Ligand position restraints
#ifdef POSRES_LIG
#include "posre_mobley_2517158.itp"
#endif

[ system ]
mobley_2517158 in water

[ molecules ]
; Compound        nmols
 mobley_2517158   1     
SOL              4050
