1_bromoheptane
    23
   0.2500000  -0.5580000   0.9000000   1.7280000  -0.3980000   1.2180000
   2.6060000  -0.9720000   0.1070000   4.0920000  -0.8390000   0.4480000
   4.9700000  -1.3800000  -0.6830000   6.4690000  -1.2820000  -0.3870000
   7.3340000  -1.8510000  -1.4990000   9.2120000  -1.7430000  -0.9900000
  -0.3590000  -0.1440000   1.7090000  -0.0110000  -0.0340000  -0.0250000
  -0.0130000  -1.6140000   0.7820000   1.9480000  -0.9020000   2.1660000
   1.9520000   0.6660000   1.3570000   2.3960000  -0.4500000  -0.8340000
   2.3580000  -2.0300000  -0.0470000   4.2980000  -1.3830000   1.3760000
   4.3340000   0.2160000   0.6280000   4.7650000  -0.8120000  -1.5990000
   4.7050000  -2.4230000  -0.8920000   6.7180000  -0.2230000  -0.2340000
   6.6900000  -1.7890000   0.5610000   7.1330000  -2.9090000  -1.6860000
   7.2310000  -1.2860000  -2.4300000
