; mobley_2517158_GMX_OPLS.itp created by acpype (v: 2023.10.27) on Wed May 20 23:50:20 2026

; For OPLS atomtypes manual fine tuning
; AC_at:OPLS_at:OPLScode: Possible_Alternatives (see ffoplsaa.atp and ffoplsaanb.itp)
; c3:CT:opls_135: ['136', '137', '149', '157', '158', '206', '209', '210', '223B', '224B', '245', '246', '274', '283', '284', '285', '292', '292B', '293B', '296', '307', '308', '505']
; br:x:opls_x: []
; hc:HC:opls_140: []
; h1:HC:opls_140: []

[ moleculetype ]
;name            nrexcl
 mobley_2517158   3

[ atoms ]
;   nr  type  resi  res  atom  cgnr     charge      mass       ; qtot   bond_type
     1 opls_135     1   MOL    C1    1    -0.093100     12.01100 ; qtot -0.093  CT  
     2 opls_135     1   MOL    C2    2    -0.080400     12.01100 ; qtot -0.173  CT  
     3 opls_135     1   MOL    C3    3    -0.079400     12.01100 ; qtot -0.253  CT  
     4 opls_135     1   MOL    C4    4    -0.078400     12.01100 ; qtot -0.331  CT  
     5 opls_135     1   MOL    C5    5    -0.080400     12.01100 ; qtot -0.412  CT  
     6 opls_135     1   MOL    C6    6    -0.081400     12.01100 ; qtot -0.493  CT  
     7 opls_135     1   MOL    C7    7    -0.009000     12.01100 ; qtot -0.502  CT  
     8 opls_x     1   MOL   BR1    8    -0.175399      0.00000 ; qtot -0.677  x   
     9 opls_140     1   MOL    H1    9     0.033033      1.00800 ; qtot -0.644  HC  
    10 opls_140     1   MOL    H2   10     0.033033      1.00800 ; qtot -0.611  HC  
    11 opls_140     1   MOL    H3   11     0.033033      1.00800 ; qtot -0.578  HC  
    12 opls_140     1   MOL    H4   12     0.038700      1.00800 ; qtot -0.540  HC  
    13 opls_140     1   MOL    H5   13     0.038700      1.00800 ; qtot -0.501  HC  
    14 opls_140     1   MOL    H6   14     0.039700      1.00800 ; qtot -0.461  HC  
    15 opls_140     1   MOL    H7   15     0.039700      1.00800 ; qtot -0.422  HC  
    16 opls_140     1   MOL    H8   16     0.041700      1.00800 ; qtot -0.380  HC  
    17 opls_140     1   MOL    H9   17     0.041700      1.00800 ; qtot -0.338  HC  
    18 opls_140     1   MOL   H10   18     0.041700      1.00800 ; qtot -0.296  HC  
    19 opls_140     1   MOL   H11   19     0.041700      1.00800 ; qtot -0.255  HC  
    20 opls_140     1   MOL   H12   20     0.055700      1.00800 ; qtot -0.199  HC  
    21 opls_140     1   MOL   H13   21     0.055700      1.00800 ; qtot -0.143  HC  
    22 opls_140     1   MOL   H14   22     0.071700      1.00800 ; qtot -0.072  HC  
    23 opls_140     1   MOL   H15   23     0.071700      1.00800 ; qtot  0.000  HC  

[ bonds ]
;   ai     aj funct   r             k
     1      2   1 ;    1.5354e-01    1.9154e+05 ;     C1 - C2         CT - CT    
     1      9   1 ;    1.0962e-01    2.8891e+05 ;     C1 - H1         CT - HC    
     1     10   1 ;    1.0962e-01    2.8891e+05 ;     C1 - H2         CT - HC    
     1     11   1 ;    1.0962e-01    2.8891e+05 ;     C1 - H3         CT - HC    
     2      3   1 ;    1.5354e-01    1.9154e+05 ;     C2 - C3         CT - CT    
     2     12   1 ;    1.0962e-01    2.8891e+05 ;     C2 - H4         CT - HC    
     2     13   1 ;    1.0962e-01    2.8891e+05 ;     C2 - H5         CT - HC    
     3      4   1 ;    1.5354e-01    1.9154e+05 ;     C3 - C4         CT - CT    
     3     14   1 ;    1.0962e-01    2.8891e+05 ;     C3 - H6         CT - HC    
     3     15   1 ;    1.0962e-01    2.8891e+05 ;     C3 - H7         CT - HC    
     4      5   1 ;    1.5354e-01    1.9154e+05 ;     C4 - C5         CT - CT    
     4     16   1 ;    1.0962e-01    2.8891e+05 ;     C4 - H8         CT - HC    
     4     17   1 ;    1.0962e-01    2.8891e+05 ;     C4 - H9         CT - HC    
     5      6   1 ;    1.5354e-01    1.9154e+05 ;     C5 - C6         CT - CT    
     5     18   1 ;    1.0962e-01    2.8891e+05 ;     C5 - H10        CT - HC    
     5     19   1 ;    1.0962e-01    2.8891e+05 ;     C5 - H11        CT - HC    
     6      7   1 ;    1.5354e-01    1.9154e+05 ;     C6 - C7         CT - CT    
     6     20   1 ;    1.0962e-01    2.8891e+05 ;     C6 - H12        CT - HC    
     6     21   1 ;    1.0962e-01    2.8891e+05 ;     C6 - H13        CT - HC    
     7      8   1 ;    1.9805e-01    1.0319e+05 ;     C7 - BR1        CT - x     
     7     22   1 ;    1.0969e-01    2.8804e+05 ;     C7 - H14        CT - HC    
     7     23   1 ;    1.0969e-01    2.8804e+05 ;     C7 - H15        CT - HC    

[ pairs ]
;   ai     aj    funct
     1      4      1 ;     C1 - C4    
     1     14      1 ;     C1 - H6    
     1     15      1 ;     C1 - H7    
     2      5      1 ;     C2 - C5    
     2     16      1 ;     C2 - H8    
     2     17      1 ;     C2 - H9    
     3      6      1 ;     C3 - C6    
     3     18      1 ;     C3 - H10   
     3     19      1 ;     C3 - H11   
     4      7      1 ;     C4 - C7    
     4     12      1 ;     C4 - H4    
     4     13      1 ;     C4 - H5    
     4     20      1 ;     C4 - H12   
     4     21      1 ;     C4 - H13   
     5      8      1 ;     C5 - BR1   
     5     14      1 ;     C5 - H6    
     5     15      1 ;     C5 - H7    
     5     22      1 ;     C5 - H14   
     5     23      1 ;     C5 - H15   
     6     16      1 ;     C6 - H8    
     6     17      1 ;     C6 - H9    
     7     18      1 ;     C7 - H10   
     7     19      1 ;     C7 - H11   
     8     20      1 ;    BR1 - H12   
     8     21      1 ;    BR1 - H13   
     9      3      1 ;     H1 - C3    
     9     12      1 ;     H1 - H4    
     9     13      1 ;     H1 - H5    
    10      3      1 ;     H2 - C3    
    10     12      1 ;     H2 - H4    
    10     13      1 ;     H2 - H5    
    11      3      1 ;     H3 - C3    
    11     12      1 ;     H3 - H4    
    11     13      1 ;     H3 - H5    
    12     14      1 ;     H4 - H6    
    12     15      1 ;     H4 - H7    
    13     14      1 ;     H5 - H6    
    13     15      1 ;     H5 - H7    
    14     16      1 ;     H6 - H8    
    14     17      1 ;     H6 - H9    
    15     16      1 ;     H7 - H8    
    15     17      1 ;     H7 - H9    
    16     18      1 ;     H8 - H10   
    16     19      1 ;     H8 - H11   
    17     18      1 ;     H9 - H10   
    17     19      1 ;     H9 - H11   
    18     20      1 ;    H10 - H12   
    18     21      1 ;    H10 - H13   
    19     20      1 ;    H11 - H12   
    19     21      1 ;    H11 - H13   
    20     22      1 ;    H12 - H14   
    20     23      1 ;    H12 - H15   
    21     22      1 ;    H13 - H14   
    21     23      1 ;    H13 - H15   

[ angles ]
;   ai     aj     ak    funct   theta         cth
     1      2      3      1 ;    1.1263e+02    5.0099e+02 ;     C1 - C2   - C3       CT -   CT - CT  
     1      2     12      1 ;    1.0968e+02    3.6208e+02 ;     C1 - C2   - H4       CT -   CT - HC  
     1      2     13      1 ;    1.0968e+02    3.6208e+02 ;     C1 - C2   - H5       CT -   CT - HC  
     2      1      9      1 ;    1.0968e+02    3.6208e+02 ;     C2 - C1   - H1       CT -   CT - HC  
     2      1     10      1 ;    1.0968e+02    3.6208e+02 ;     C2 - C1   - H2       CT -   CT - HC  
     2      1     11      1 ;    1.0968e+02    3.6208e+02 ;     C2 - C1   - H3       CT -   CT - HC  
     2      3      4      1 ;    1.1263e+02    5.0099e+02 ;     C2 - C3   - C4       CT -   CT - CT  
     2      3     14      1 ;    1.0968e+02    3.6208e+02 ;     C2 - C3   - H6       CT -   CT - HC  
     2      3     15      1 ;    1.0968e+02    3.6208e+02 ;     C2 - C3   - H7       CT -   CT - HC  
     3      2     12      1 ;    1.0968e+02    3.6208e+02 ;     C3 - C2   - H4       CT -   CT - HC  
     3      2     13      1 ;    1.0968e+02    3.6208e+02 ;     C3 - C2   - H5       CT -   CT - HC  
     3      4      5      1 ;    1.1263e+02    5.0099e+02 ;     C3 - C4   - C5       CT -   CT - CT  
     3      4     16      1 ;    1.0968e+02    3.6208e+02 ;     C3 - C4   - H8       CT -   CT - HC  
     3      4     17      1 ;    1.0968e+02    3.6208e+02 ;     C3 - C4   - H9       CT -   CT - HC  
     4      3     14      1 ;    1.0968e+02    3.6208e+02 ;     C4 - C3   - H6       CT -   CT - HC  
     4      3     15      1 ;    1.0968e+02    3.6208e+02 ;     C4 - C3   - H7       CT -   CT - HC  
     4      5      6      1 ;    1.1263e+02    5.0099e+02 ;     C4 - C5   - C6       CT -   CT - CT  
     4      5     18      1 ;    1.0968e+02    3.6208e+02 ;     C4 - C5   - H10      CT -   CT - HC  
     4      5     19      1 ;    1.0968e+02    3.6208e+02 ;     C4 - C5   - H11      CT -   CT - HC  
     5      4     16      1 ;    1.0968e+02    3.6208e+02 ;     C5 - C4   - H8       CT -   CT - HC  
     5      4     17      1 ;    1.0968e+02    3.6208e+02 ;     C5 - C4   - H9       CT -   CT - HC  
     5      6      7      1 ;    1.1263e+02    5.0099e+02 ;     C5 - C6   - C7       CT -   CT - CT  
     5      6     20      1 ;    1.0968e+02    3.6208e+02 ;     C5 - C6   - H12      CT -   CT - HC  
     5      6     21      1 ;    1.0968e+02    3.6208e+02 ;     C5 - C6   - H13      CT -   CT - HC  
     6      5     18      1 ;    1.0968e+02    3.6208e+02 ;     C6 - C5   - H10      CT -   CT - HC  
     6      5     19      1 ;    1.0968e+02    3.6208e+02 ;     C6 - C5   - H11      CT -   CT - HC  
     6      7      8      1 ;    1.1047e+02    5.1020e+02 ;     C6 - C7   - BR1      CT -   CT - x   
     6      7     22      1 ;    1.0959e+02    3.6217e+02 ;     C6 - C7   - H14      CT -   CT - HC  
     6      7     23      1 ;    1.0959e+02    3.6217e+02 ;     C6 - C7   - H15      CT -   CT - HC  
     7      6     20      1 ;    1.0968e+02    3.6208e+02 ;     C7 - C6   - H12      CT -   CT - HC  
     7      6     21      1 ;    1.0968e+02    3.6208e+02 ;     C7 - C6   - H13      CT -   CT - HC  
     8      7     22      1 ;    1.0552e+02    3.3748e+02 ;    BR1 - C7   - H14       x -   CT - HC  
     8      7     23      1 ;    1.0552e+02    3.3748e+02 ;    BR1 - C7   - H15       x -   CT - HC  
     9      1     10      1 ;    1.0773e+02    2.9957e+02 ;     H1 - C1   - H2       HC -   CT - HC  
     9      1     11      1 ;    1.0773e+02    2.9957e+02 ;     H1 - C1   - H3       HC -   CT - HC  
    10      1     11      1 ;    1.0773e+02    2.9957e+02 ;     H2 - C1   - H3       HC -   CT - HC  
    12      2     13      1 ;    1.0773e+02    2.9957e+02 ;     H4 - C2   - H5       HC -   CT - HC  
    14      3     15      1 ;    1.0773e+02    2.9957e+02 ;     H6 - C3   - H7       HC -   CT - HC  
    16      4     17      1 ;    1.0773e+02    2.9957e+02 ;     H8 - C4   - H9       HC -   CT - HC  
    18      5     19      1 ;    1.0773e+02    2.9957e+02 ;    H10 - C5   - H11      HC -   CT - HC  
    20      6     21      1 ;    1.0773e+02    2.9957e+02 ;    H12 - C6   - H13      HC -   CT - HC  
    22      7     23      1 ;    1.0855e+02    2.9824e+02 ;    H14 - C7   - H15      HC -   CT - HC  

[ dihedrals ] ; propers
; for gromacs 4.5 or higher, using funct 9
;    i      j      k      l   func   phase     kd      pn
     1      2      3      4      9 ;     0.00   2.17568   3 ;     C1-    C2-    C3-    C4
     1      2      3     14      9 ;     0.00   0.54392   3 ;     C1-    C2-    C3-    H6
     1      2      3     15      9 ;     0.00   0.54392   3 ;     C1-    C2-    C3-    H7
     2      3      4      5      9 ;     0.00   2.17568   3 ;     C2-    C3-    C4-    C5
     2      3      4     16      9 ;     0.00   0.54392   3 ;     C2-    C3-    C4-    H8
     2      3      4     17      9 ;     0.00   0.54392   3 ;     C2-    C3-    C4-    H9
     3      4      5      6      9 ;     0.00   2.17568   3 ;     C3-    C4-    C5-    C6
     3      4      5     18      9 ;     0.00   0.54392   3 ;     C3-    C4-    C5-   H10
     3      4      5     19      9 ;     0.00   0.54392   3 ;     C3-    C4-    C5-   H11
     4      3      2     12      9 ;     0.00   0.54392   3 ;     C4-    C3-    C2-    H4
     4      3      2     13      9 ;     0.00   0.54392   3 ;     C4-    C3-    C2-    H5
     4      5      6      7      9 ;     0.00   2.17568   3 ;     C4-    C5-    C6-    C7
     4      5      6     20      9 ;     0.00   0.54392   3 ;     C4-    C5-    C6-   H12
     4      5      6     21      9 ;     0.00   0.54392   3 ;     C4-    C5-    C6-   H13
     5      4      3     14      9 ;     0.00   0.54392   3 ;     C5-    C4-    C3-    H6
     5      4      3     15      9 ;     0.00   0.54392   3 ;     C5-    C4-    C3-    H7
     5      6      7      8      9 ;     0.00   0.65084   3 ;     C5-    C6-    C7-   BR1
     5      6      7     22      9 ;     0.00   0.65084   3 ;     C5-    C6-    C7-   H14
     5      6      7     23      9 ;     0.00   0.65084   3 ;     C5-    C6-    C7-   H15
     6      5      4     16      9 ;     0.00   0.54392   3 ;     C6-    C5-    C4-    H8
     6      5      4     17      9 ;     0.00   0.54392   3 ;     C6-    C5-    C4-    H9
     7      6      5     18      9 ;     0.00   0.54392   3 ;     C7-    C6-    C5-   H10
     7      6      5     19      9 ;     0.00   0.54392   3 ;     C7-    C6-    C5-   H11
     8      7      6     20      9 ;     0.00   0.79496   3 ;    BR1-    C7-    C6-   H12
     8      7      6     21      9 ;     0.00   0.79496   3 ;    BR1-    C7-    C6-   H13
     9      1      2      3      9 ;     0.00   0.54392   3 ;     H1-    C1-    C2-    C3
     9      1      2     12      9 ;     0.00   0.50208   3 ;     H1-    C1-    C2-    H4
     9      1      2     13      9 ;     0.00   0.50208   3 ;     H1-    C1-    C2-    H5
    10      1      2      3      9 ;     0.00   0.54392   3 ;     H2-    C1-    C2-    C3
    10      1      2     12      9 ;     0.00   0.50208   3 ;     H2-    C1-    C2-    H4
    10      1      2     13      9 ;     0.00   0.50208   3 ;     H2-    C1-    C2-    H5
    11      1      2      3      9 ;     0.00   0.54392   3 ;     H3-    C1-    C2-    C3
    11      1      2     12      9 ;     0.00   0.50208   3 ;     H3-    C1-    C2-    H4
    11      1      2     13      9 ;     0.00   0.50208   3 ;     H3-    C1-    C2-    H5
    12      2      3     14      9 ;     0.00   0.50208   3 ;     H4-    C2-    C3-    H6
    12      2      3     15      9 ;     0.00   0.50208   3 ;     H4-    C2-    C3-    H7
    13      2      3     14      9 ;     0.00   0.50208   3 ;     H5-    C2-    C3-    H6
    13      2      3     15      9 ;     0.00   0.50208   3 ;     H5-    C2-    C3-    H7
    14      3      4     16      9 ;     0.00   0.50208   3 ;     H6-    C3-    C4-    H8
    14      3      4     17      9 ;     0.00   0.50208   3 ;     H6-    C3-    C4-    H9
    15      3      4     16      9 ;     0.00   0.50208   3 ;     H7-    C3-    C4-    H8
    15      3      4     17      9 ;     0.00   0.50208   3 ;     H7-    C3-    C4-    H9
    16      4      5     18      9 ;     0.00   0.50208   3 ;     H8-    C4-    C5-   H10
    16      4      5     19      9 ;     0.00   0.50208   3 ;     H8-    C4-    C5-   H11
    17      4      5     18      9 ;     0.00   0.50208   3 ;     H9-    C4-    C5-   H10
    17      4      5     19      9 ;     0.00   0.50208   3 ;     H9-    C4-    C5-   H11
    18      5      6     20      9 ;     0.00   0.50208   3 ;    H10-    C5-    C6-   H12
    18      5      6     21      9 ;     0.00   0.50208   3 ;    H10-    C5-    C6-   H13
    19      5      6     20      9 ;     0.00   0.50208   3 ;    H11-    C5-    C6-   H12
    19      5      6     21      9 ;     0.00   0.50208   3 ;    H11-    C5-    C6-   H13
    20      6      7     22      9 ;     0.00   0.65084   3 ;    H12-    C6-    C7-   H14
    20      6      7     23      9 ;     0.00   0.65084   3 ;    H12-    C6-    C7-   H15
    21      6      7     22      9 ;     0.00   0.65084   3 ;    H13-    C6-    C7-   H14
    21      6      7     23      9 ;     0.00   0.65084   3 ;    H13-    C6-    C7-   H15
