mobley_2517158_GMX.gro created by acpype (v: 2023.10.27) on Wed May 20 23:50:20 2026
 23
    1  MOL   C1    1   0.025  -0.056   0.090
    1  MOL   C2    2   0.173  -0.040   0.122
    1  MOL   C3    3   0.261  -0.097   0.011
    1  MOL   C4    4   0.409  -0.084   0.045
    1  MOL   C5    5   0.497  -0.138  -0.068
    1  MOL   C6    6   0.647  -0.128  -0.039
    1  MOL   C7    7   0.733  -0.185  -0.150
    1  MOL  BR1    8   0.921  -0.174  -0.099
    1  MOL   H1    9  -0.036  -0.014   0.171
    1  MOL   H2   10  -0.001  -0.003  -0.003
    1  MOL   H3   11  -0.001  -0.161   0.078
    1  MOL   H4   12   0.195  -0.090   0.217
    1  MOL   H5   13   0.195   0.067   0.136
    1  MOL   H6   14   0.240  -0.045  -0.083
    1  MOL   H7   15   0.236  -0.203  -0.005
    1  MOL   H8   16   0.430  -0.138   0.138
    1  MOL   H9   17   0.433   0.022   0.063
    1  MOL  H10   18   0.476  -0.081  -0.160
    1  MOL  H11   19   0.471  -0.242  -0.089
    1  MOL  H12   20   0.672  -0.022  -0.023
    1  MOL  H13   21   0.669  -0.179   0.056
    1  MOL  H14   22   0.713  -0.291  -0.169
    1  MOL  H15   23   0.723  -0.129  -0.243
   19.14200     7.15000     9.19200
