; mobley_2517158_GMX_OPLS.top created by acpype (v: 2023.10.27) on Wed May 20 23:50:20 2026

; Include forcefield parameters
#include "ffoplsaa.itp"

; Include mobley_2517158_GMX.itp topology
#include "mobley_2517158_GMX.itp"

; Ligand position restraints
#ifdef POSRES_LIG
#include "posre_mobley_2517158.itp"
#endif

[ system ]
 mobley_2517158

[ molecules ]
; Compound        nmols
 mobley_2517158   1     
