%VERSION  VERSION_STAMP = V0001.000  DATE = 05/20/26  23:50:22                  
%FLAG TITLE                                                                     
%FORMAT(20a4)                                                                   
1_bromoheptane                                                                  
%FLAG POINTERS                                                                  
%FORMAT(10I8)                                                                   
      23       4      15       7      36       6      49       5       0       0
     119       1       7       6       5       4       7       5       4       0
       0       0       0       0       0       0       0       0      23       0
       0
%FLAG ATOM_NAME                                                                 
%FORMAT(20a4)                                                                   
C1  C2  C3  C4  C5  C6  C7  Br1 H1  H2  H3  H4  H5  H6  H7  H8  H9  H10 H11 H12 
H13 H14 H15 
%FLAG CHARGE                                                                    
%FORMAT(5E16.8)                                                                 
 -1.69649613E+00 -1.46507292E+00 -1.44685062E+00 -1.42862832E+00 -1.46507292E+00
 -1.48329522E+00 -1.64000700E-01 -3.26908062E+00  6.01937236E-01  6.01937236E-01
  6.01937236E-01  7.05203010E-01  7.05203010E-01  7.23425310E-01  7.23425310E-01
  7.59869910E-01  7.59869910E-01  7.59869910E-01  7.59869910E-01  1.01498211E+00
  1.01498211E+00  1.30653891E+00  1.30653891E+00
%FLAG ATOMIC_NUMBER                                                             
%FORMAT(10I8)                                                                   
       6       6       6       6       6       6       6      35       1       1
       1       1       1       1       1       1       1       1       1       1
       1       1       1
%FLAG MASS                                                                      
%FORMAT(5E16.8)                                                                 
  1.20100000E+01  1.20100000E+01  1.20100000E+01  1.20100000E+01  1.20100000E+01
  1.20100000E+01  1.20100000E+01  7.99000000E+01  1.00800000E+00  1.00800000E+00
  1.00800000E+00  1.00800000E+00  1.00800000E+00  1.00800000E+00  1.00800000E+00
  1.00800000E+00  1.00800000E+00  1.00800000E+00  1.00800000E+00  1.00800000E+00
  1.00800000E+00  1.00800000E+00  1.00800000E+00
%FLAG ATOM_TYPE_INDEX                                                           
%FORMAT(10I8)                                                                   
       1       1       1       1       1       1       1       2       3       3
       3       3       3       3       3       3       3       3       3       3
       3       4       4
%FLAG NUMBER_EXCLUDED_ATOMS                                                     
%FORMAT(10I8)                                                                   
      10      12      14      13      13      10       7       4       4       3
       2       3       2       3       2       3       2       3       2       3
       2       1       1
%FLAG NONBONDED_PARM_INDEX                                                      
%FORMAT(10I8)                                                                   
       1       2       4       7       2       3       5       8       4       5
       6       9       7       8       9      10
%FLAG RESIDUE_LABEL                                                             
%FORMAT(20a4)                                                                   
MOL 
%FLAG RESIDUE_POINTER                                                           
%FORMAT(10I8)                                                                   
       1
%FLAG BOND_FORCE_CONSTANT                                                       
%FORMAT(5E16.8)                                                                 
  2.28890000E+02  3.45250000E+02  1.23310000E+02  3.44220000E+02
%FLAG BOND_EQUIL_VALUE                                                          
%FORMAT(5E16.8)                                                                 
  1.53540000E+00  1.09620000E+00  1.98050000E+00  1.09690000E+00
%FLAG ANGLE_FORCE_CONSTANT                                                      
%FORMAT(5E16.8)                                                                 
  5.98700000E+01  4.32700000E+01  6.09700000E+01  4.32800000E+01  4.03300000E+01
  3.58000000E+01  3.56400000E+01
%FLAG ANGLE_EQUIL_VALUE                                                         
%FORMAT(5E16.8)                                                                 
  1.96576518E+00  1.91427794E+00  1.92806605E+00  1.91270715E+00  1.84167222E+00
  1.88024401E+00  1.89455572E+00
%FLAG DIHEDRAL_FORCE_CONSTANT                                                   
%FORMAT(5E16.8)                                                                 
  5.20000000E-01  1.30000000E-01  1.55555556E-01  1.90000000E-01  1.20000000E-01
%FLAG DIHEDRAL_PERIODICITY                                                      
%FORMAT(5E16.8)                                                                 
  3.00000000E+00  3.00000000E+00  3.00000000E+00  3.00000000E+00  3.00000000E+00
%FLAG DIHEDRAL_PHASE                                                            
%FORMAT(5E16.8)                                                                 
  0.00000000E+00  0.00000000E+00  0.00000000E+00  0.00000000E+00  0.00000000E+00
%FLAG SCEE_SCALE_FACTOR                                                         
%FORMAT(5E16.8)                                                                 
  1.20000000E+00  1.20000000E+00  1.20000000E+00  1.20000000E+00  1.20000000E+00
%FLAG SCNB_SCALE_FACTOR                                                         
%FORMAT(5E16.8)                                                                 
  2.00000000E+00  2.00000000E+00  2.00000000E+00  2.00000000E+00  2.00000000E+00
%FLAG SOLTY                                                                     
%FORMAT(5E16.8)                                                                 
  0.00000000E+00  0.00000000E+00  0.00000000E+00  0.00000000E+00
%FLAG LENNARD_JONES_ACOEF                                                       
%FORMAT(5E16.8)                                                                 
  1.02073671E+06  2.83242404E+06  7.77148140E+06  1.00235148E+05  2.92053806E+05
  7.94617769E+03  6.97998263E+04  2.05974300E+05  5.22955465E+03  3.39005767E+03
%FLAG LENNARD_JONES_BCOEF                                                       
%FORMAT(5E16.8)                                                                 
  6.63431737E+02  1.52727485E+03  3.49613872E+03  1.37787728E+02  3.25035384E+02
  2.57122925E+01  1.14981426E+02  2.72964220E+02  2.08590256E+01  1.67944276E+01
%FLAG BONDS_INC_HYDROGEN                                                        
%FORMAT(10I8)                                                                   
       0      24       2       0      27       2       0      30       2       3
      33       2       3      36       2       6      39       2       6      42
       2       9      45       2       9      48       2      12      51       2
      12      54       2      15      57       2      15      60       2      18
      63       4      18      66       4
%FLAG BONDS_WITHOUT_HYDROGEN                                                    
%FORMAT(10I8)                                                                   
       0       3       1       3       6       1       6       9       1       9
      12       1      12      15       1      15      18       1      18      21
       3
%FLAG ANGLES_INC_HYDROGEN                                                       
%FORMAT(10I8)                                                                   
       0       3      33       2       0       3      36       2       3       0
      24       2       3       0      27       2       3       0      30       2
       3       6      39       2       3       6      42       2       6       3
      33       2       6       3      36       2       6       9      45       2
       6       9      48       2       9       6      39       2       9       6
      42       2       9      12      51       2       9      12      54       2
      12       9      45       2      12       9      48       2      12      15
      57       2      12      15      60       2      15      12      51       2
      15      12      54       2      15      18      63       4      15      18
      66       4      18      15      57       2      18      15      60       2
      21      18      63       5      21      18      66       5      24       0
      27       6      24       0      30       6      27       0      30       6
      33       3      36       6      39       6      42       6      45       9
      48       6      51      12      54       6      57      15      60       6
      63      18      66       7
%FLAG ANGLES_WITHOUT_HYDROGEN                                                   
%FORMAT(10I8)                                                                   
       0       3       6       1       3       6       9       1       6       9
      12       1       9      12      15       1      12      15      18       1
      15      18      21       3
%FLAG DIHEDRALS_INC_HYDROGEN                                                    
%FORMAT(10I8)                                                                   
       0       3       6      39       2       0       3       6      42       2
       3       6       9      45       2       3       6       9      48       2
      24       0       3       6       2      27       0       3       6       2
      30       0       3       6       2       6       9      12      51       2
       6       9      12      54       2       9       6       3      33       2
       9       6       3      36       2       9      12      15      57       2
       9      12      15      60       2      12       9       6      39       2
      12       9       6      42       2      12      15      18      63       3
      12      15      18      66       3      15      12       9      45       2
      15      12       9      48       2      18      15      12      51       2
      18      15      12      54       2      21      18      15      57       4
      21      18      15      60       4      24       0       3      33       5
      24       0       3      36       5      27       0       3      33       5
      27       0       3      36       5      30       0       3      33       5
      30       0       3      36       5      33       3       6      39       5
      33       3       6      42       5      36       3       6      39       5
      36       3       6      42       5      39       6       9      45       5
      39       6       9      48       5      42       6       9      45       5
      42       6       9      48       5      45       9      12      51       5
      45       9      12      54       5      48       9      12      51       5
      48       9      12      54       5      51      12      15      57       5
      51      12      15      60       5      54      12      15      57       5
      54      12      15      60       5      57      15      18      63       3
      57      15      18      66       3      60      15      18      63       3
      60      15      18      66       3
%FLAG DIHEDRALS_WITHOUT_HYDROGEN                                                
%FORMAT(10I8)                                                                   
       0       3       6       9       1       3       6       9      12       1
       6       9      12      15       1       9      12      15      18       1
      12      15      18      21       3
%FLAG EXCLUDED_ATOMS_LIST                                                       
%FORMAT(10I8)                                                                   
       2       3       4       9      10      11      12      13      14      15
       3       4       5       9      10      11      12      13      14      15
      16      17       4       5       6       9      10      11      12      13
      14      15      16      17      18      19       5       6       7      12
      13      14      15      16      17      18      19      20      21       6
       7       8      14      15      16      17      18      19      20      21
      22      23       7       8      16      17      18      19      20      21
      22      23       8      18      19      20      21      22      23      20
      21      22      23      10      11      12      13      11      12      13
      12      13      13      14      15      14      15      15      16      17
      16      17      17      18      19      18      19      19      20      21
      20      21      21      22      23      22      23      23       0
%FLAG HBOND_ACOEF                                                               
%FORMAT(5E16.8)                                                                 

%FLAG HBOND_BCOEF                                                               
%FORMAT(5E16.8)                                                                 

%FLAG HBCUT                                                                     
%FORMAT(5E16.8)                                                                 

%FLAG AMBER_ATOM_TYPE                                                           
%FORMAT(20a4)                                                                   
c3  c3  c3  c3  c3  c3  c3  br  hc  hc  hc  hc  hc  hc  hc  hc  hc  hc  hc  hc  
hc  h1  h1  
%FLAG TREE_CHAIN_CLASSIFICATION                                                 
%FORMAT(20a4)                                                                   
BLA BLA BLA BLA BLA BLA BLA BLA BLA BLA BLA BLA BLA BLA BLA BLA BLA BLA BLA BLA 
BLA BLA BLA 
%FLAG JOIN_ARRAY                                                                
%FORMAT(10I8)                                                                   
       0       0       0       0       0       0       0       0       0       0
       0       0       0       0       0       0       0       0       0       0
       0       0       0
%FLAG IROTAT                                                                    
%FORMAT(10I8)                                                                   
       0       0       0       0       0       0       0       0       0       0
       0       0       0       0       0       0       0       0       0       0
       0       0       0
%FLAG RADIUS_SET                                                                
%FORMAT(1a80)                                                                   
modified Bondi radii (mbondi)                                                   
%FLAG RADII                                                                     
%FORMAT(5E16.8)                                                                 
  1.70000000E+00  1.70000000E+00  1.70000000E+00  1.70000000E+00  1.70000000E+00
  1.70000000E+00  1.70000000E+00  1.50000000E+00  1.30000000E+00  1.30000000E+00
  1.30000000E+00  1.30000000E+00  1.30000000E+00  1.30000000E+00  1.30000000E+00
  1.30000000E+00  1.30000000E+00  1.30000000E+00  1.30000000E+00  1.30000000E+00
  1.30000000E+00  1.30000000E+00  1.30000000E+00
%FLAG SCREEN                                                                    
%FORMAT(5E16.8)                                                                 
  7.20000000E-01  7.20000000E-01  7.20000000E-01  7.20000000E-01  7.20000000E-01
  7.20000000E-01  7.20000000E-01  8.00000000E-01  8.50000000E-01  8.50000000E-01
  8.50000000E-01  8.50000000E-01  8.50000000E-01  8.50000000E-01  8.50000000E-01
  8.50000000E-01  8.50000000E-01  8.50000000E-01  8.50000000E-01  8.50000000E-01
  8.50000000E-01  8.50000000E-01  8.50000000E-01
%FLAG IPOL                                                                      
%FORMAT(1I8)                                                                    
       0
