; mobley_4039055_GMX_OPLS.top created by acpype (v: 2023.10.27) on Wed May 20 23:53:30 2026

; Include forcefield parameters
#include "ffoplsaa.itp"

; Include mobley_4039055_GMX.itp topology
#include "mobley_4039055_GMX.itp"

; Ligand position restraints
#ifdef POSRES_LIG
#include "posre_mobley_4039055.itp"
#endif

[ system ]
 mobley_4039055

[ molecules ]
; Compound        nmols
 mobley_4039055   1     
