%VERSION  VERSION_STAMP = V0001.000  DATE = 05/20/26  23:53:30                  
%FLAG TITLE                                                                     
%FORMAT(20a4)                                                                   
5-bromouracil                                                                   
%FLAG POINTERS                                                                  
%FORMAT(10I8)                                                                   
      12       6       3       9       6      12      17      16       0       0
      53       1       9      12      16       8      14       7       8       0
       0       0       0       0       0       0       0       0      12       0
       0
%FLAG ATOM_NAME                                                                 
%FORMAT(20a4)                                                                   
C1  C2  C3  C4  N1  N2  O1  O2  Br1 H1  H2  H3  
%FLAG CHARGE                                                                    
%FORMAT(5E16.8)                                                                 
  1.48693968E+00 -4.51001925E+00  1.32968123E+01  1.46416180E+01 -8.49341403E+00
 -1.06327121E+01 -1.05962675E+01 -1.14162709E+01 -6.74225100E-02  3.18890250E+00
  6.55091685E+00  6.53269455E+00
%FLAG ATOMIC_NUMBER                                                             
%FORMAT(10I8)                                                                   
       6       6       6       6       7       7       8       8      35       1
       1       1
%FLAG MASS                                                                      
%FORMAT(5E16.8)                                                                 
  1.20100000E+01  1.20100000E+01  1.20100000E+01  1.20100000E+01  1.40100000E+01
  1.40100000E+01  1.60000000E+01  1.60000000E+01  7.99000000E+01  1.00800000E+00
  1.00800000E+00  1.00800000E+00
%FLAG ATOM_TYPE_INDEX                                                           
%FORMAT(10I8)                                                                   
       1       1       1       1       2       2       3       3       4       5
       6       6
%FLAG NUMBER_EXCLUDED_ATOMS                                                     
%FORMAT(10I8)                                                                   
      10       9       8       7       6       5       2       2       1       1
       1       1
%FLAG NONBONDED_PARM_INDEX                                                      
%FORMAT(10I8)                                                                   
       1       2       4       7      11      16       2       3       5       8
      12      17       4       5       6       9      13      18       7       8
       9      10      14      19      11      12      13      14      15      20
      16      17      18      19      20      21
%FLAG RESIDUE_LABEL                                                             
%FORMAT(20a4)                                                                   
MOL 
%FLAG RESIDUE_POINTER                                                           
%FORMAT(10I8)                                                                   
       1
%FLAG BOND_FORCE_CONSTANT                                                       
%FORMAT(5E16.8)                                                                 
  3.86240000E+02  3.35390000E+02  3.68720000E+02  2.78120000E+02  1.55010000E+02
  3.36070000E+02  5.90600000E+02  4.73590000E+02
%FLAG BOND_EQUIL_VALUE                                                          
%FORMAT(5E16.8)                                                                 
  1.37300000E+00  1.38040000E+00  1.08090000E+00  1.47280000E+00  1.88600000E+00
  1.37980000E+00  1.21900000E+00  1.01320000E+00
%FLAG ANGLE_FORCE_CONSTANT                                                      
%FORMAT(5E16.8)                                                                 
  6.21000000E+01  6.10200000E+01  7.80900000E+01  5.69500000E+01  6.82600000E+01
  4.39500000E+01  6.84100000E+01  7.83100000E+01  6.16400000E+01  7.72200000E+01
  5.73700000E+01  4.90500000E+01  7.49900000E+01  8.72100000E+01
%FLAG ANGLE_EQUIL_VALUE                                                         
%FORMAT(5E16.8)                                                                 
  2.11743436E+00  2.16351107E+00  2.18480409E+00  2.07537190E+00  2.11970329E+00
  2.25339556E+00  1.95826026E+00  2.15914774E+00  2.07449924E+00  2.23489507E+00
  2.04657396E+00  2.02144121E+00  1.97030304E+00  2.14762857E+00
%FLAG DIHEDRAL_FORCE_CONSTANT                                                   
%FORMAT(5E16.8)                                                                 
  2.87500000E+00  2.50000000E+00  1.65000000E+00  4.00000000E+00  2.00000000E+00
  1.10000000E+00  1.05000000E+01
%FLAG DIHEDRAL_PERIODICITY                                                      
%FORMAT(5E16.8)                                                                 
  2.00000000E+00  2.00000000E+00  2.00000000E+00  2.00000000E+00  1.00000000E+00
  2.00000000E+00  2.00000000E+00
%FLAG DIHEDRAL_PHASE                                                            
%FORMAT(5E16.8)                                                                 
  3.14159400E+00  3.14159400E+00  3.14159400E+00  3.14159400E+00  0.00000000E+00
  3.14159400E+00  3.14159400E+00
%FLAG SCEE_SCALE_FACTOR                                                         
%FORMAT(5E16.8)                                                                 
  1.20000000E+00  1.20000000E+00  1.20000000E+00  1.20000000E+00  1.20000000E+00
  0.00000000E+00  0.00000000E+00
%FLAG SCNB_SCALE_FACTOR                                                         
%FORMAT(5E16.8)                                                                 
  2.00000000E+00  2.00000000E+00  2.00000000E+00  2.00000000E+00  2.00000000E+00
  0.00000000E+00  0.00000000E+00
%FLAG SOLTY                                                                     
%FORMAT(5E16.8)                                                                 
  0.00000000E+00  0.00000000E+00  0.00000000E+00  0.00000000E+00  0.00000000E+00
  0.00000000E+00  0.00000000E+00  0.00000000E+00
%FLAG LENNARD_JONES_ACOEF                                                       
%FORMAT(5E16.8)                                                                 
  6.96551276E+05  6.99381362E+05  7.01825028E+05  5.17507491E+05  5.17814271E+05
  3.76435470E+05  2.35252551E+06  2.37045960E+06  1.78599120E+06  7.77148140E+06
  6.27751680E+04  6.23418310E+04  4.36069364E+04  2.27017431E+05  4.56536476E+03
  1.71458823E+03  1.65195713E+03  9.87857350E+02  7.46975714E+03  6.76796831E+01
  1.34728399E-01
%FLAG LENNARD_JONES_BCOEF                                                       
%FORMAT(5E16.8)                                                                 
  5.24668528E+02  5.48900066E+02  5.74088001E+02  4.98871431E+02  5.21008860E+02
  4.69350655E+02  1.36188294E+03  1.42730464E+03  1.30898332E+03  3.49613872E+03
  1.00073628E+02  1.04122183E+02  9.20079458E+01  2.68793922E+02  1.71467049E+01
  1.46824710E+01  1.50468782E+01  1.22938581E+01  4.32849195E+01  1.85338491E+00
  7.34107347E-02
%FLAG BONDS_INC_HYDROGEN                                                        
%FORMAT(10I8)                                                                   
       0      27       3      12      30       8      15      33       8
%FLAG BONDS_WITHOUT_HYDROGEN                                                    
%FORMAT(10I8)                                                                   
       0       3       1       0      12       2       3       6       4       3
      24       5       6      15       6       6      18       7       9      12
       6       9      15       6       9      21       7
%FLAG ANGLES_INC_HYDROGEN                                                       
%FORMAT(10I8)                                                                   
       0      12      30       4       3       0      27       6       6      15
      33      11       9      12      30      11       9      15      33      11
      12       0      27      12
%FLAG ANGLES_WITHOUT_HYDROGEN                                                   
%FORMAT(10I8)                                                                   
       0       3       6       1       0       3      24       2       0      12
       9       3       3       0      12       5       3       6      15       7
       3       6      18       8       6       3      24       9       6      15
       9      10      12       9      15      13      12       9      21      14
      15       6      18      14      15       9      21      14
%FLAG DIHEDRALS_INC_HYDROGEN                                                    
%FORMAT(10I8)                                                                   
       3       0      12      30       3       3       6      15      33       2
      27       0       3       6       4      27       0      12       9       3
      12       9      15      33       2      15       9      12      30       2
      18       6      15      33       5      18       6     -15      33       2
      21       9      12      30       5      21       9     -12      30       2
      21       9      15      33       5      21       9     -15      33       2
      27       0       3      24       4      27       0      12      30       3
      12       0     -27      -3       6       9       0     -12     -30       6
       6       9     -15     -33       6
%FLAG DIHEDRALS_WITHOUT_HYDROGEN                                                
%FORMAT(10I8)                                                                   
       0       3       6      15       1       0       3       6      18       1
       0      12      -9      15       2       0      12       9      21       2
       3       0      12       9       3       3       6     -15       9       2
      12       0       3       6       4       6      15      -9      12       2
       6      15       9      21       2       9      15       6      18       2
      12       0       3      24       4      15       6       3      24       1
      18       6       3      24       1       0       3      -6     -24       6
       3      15      -6     -18       7      12      15      -9     -21       7
%FLAG EXCLUDED_ATOMS_LIST                                                       
%FORMAT(10I8)                                                                   
       2       3       4       5       6       7       8       9      10      11
       3       4       5       6       7       9      10      11      12       4
       5       6       7       8       9      10      12       5       6       7
       8      10      11      12       6       8       9      10      11      12
       7       8       9      11      12       9      12      11      12      10
      11       0       0
%FLAG HBOND_ACOEF                                                               
%FORMAT(5E16.8)                                                                 

%FLAG HBOND_BCOEF                                                               
%FORMAT(5E16.8)                                                                 

%FLAG HBCUT                                                                     
%FORMAT(5E16.8)                                                                 

%FLAG AMBER_ATOM_TYPE                                                           
%FORMAT(20a4)                                                                   
cc  cd  c   c   ns  ns  o   o   br  h4  hn  hn  
%FLAG TREE_CHAIN_CLASSIFICATION                                                 
%FORMAT(20a4)                                                                   
BLA BLA BLA BLA BLA BLA BLA BLA BLA BLA BLA BLA 
%FLAG JOIN_ARRAY                                                                
%FORMAT(10I8)                                                                   
       0       0       0       0       0       0       0       0       0       0
       0       0
%FLAG IROTAT                                                                    
%FORMAT(10I8)                                                                   
       0       0       0       0       0       0       0       0       0       0
       0       0
%FLAG RADIUS_SET                                                                
%FORMAT(1a80)                                                                   
modified Bondi radii (mbondi)                                                   
%FLAG RADII                                                                     
%FORMAT(5E16.8)                                                                 
  1.70000000E+00  1.70000000E+00  1.70000000E+00  1.70000000E+00  1.55000000E+00
  1.55000000E+00  1.50000000E+00  1.50000000E+00  1.50000000E+00  1.30000000E+00
  1.30000000E+00  1.30000000E+00
%FLAG SCREEN                                                                    
%FORMAT(5E16.8)                                                                 
  7.20000000E-01  7.20000000E-01  7.20000000E-01  7.20000000E-01  7.90000000E-01
  7.90000000E-01  8.50000000E-01  8.50000000E-01  8.00000000E-01  8.50000000E-01
  8.50000000E-01  8.50000000E-01
%FLAG IPOL                                                                      
%FORMAT(1I8)                                                                    
       0
