mobley_4039055_GMX.gro created by acpype (v: 2023.10.27) on Wed May 20 23:53:30 2026
 12
    1  MOL   C1    1  -0.122   0.052   0.156
    1  MOL   C2    2  -0.219   0.019   0.241
    1  MOL   C3    3  -0.278  -0.118   0.232
    1  MOL   C4    4  -0.122  -0.162   0.044
    1  MOL   N1    5  -0.074  -0.033   0.061
    1  MOL   N2    6  -0.224  -0.198   0.133
    1  MOL   O1    7  -0.368  -0.156   0.307
    1  MOL   O2    8  -0.078  -0.239  -0.042
    1  MOL  BR1    9  -0.284   0.136   0.371
    1  MOL   H1   10  -0.075   0.150   0.157
    1  MOL   H2   11  -0.000  -0.001  -0.001
    1  MOL   H3   12  -0.261  -0.292   0.124
    7.35600     8.84400     8.25200
