5-bromouracil
    12
  -1.2200000   0.5240000   1.5610000  -2.1940000   0.1880000   2.4140000
  -2.7820000  -1.1800000   2.3230000  -1.2180000  -1.6240000   0.4410000
  -0.7410000  -0.3340000   0.6090000  -2.2350000  -1.9830000   1.3280000
  -3.6780000  -1.5570000   3.0740000  -0.7830000  -2.3920000  -0.4180000
  -2.8430000   1.3570000   3.7080000  -0.7470000   1.5000000   1.5690000
  -0.0000000  -0.0090000  -0.0050000  -2.6120000  -2.9220000   1.2370000
