benzyl_alcohol
    16
   1.8850000  -1.0380000  -0.1090000   0.8180000  -0.4410000   0.5630000
   2.9350000  -1.6040000   0.6140000   0.8010000  -0.4100000   1.9570000
   2.9180000  -1.5730000   2.0080000   1.8510000  -0.9770000   2.6800000
   1.8330000  -0.9440000   4.1710000   2.4730000   0.2420000   4.6250000
   1.8980000  -1.0610000  -1.1950000   0.0000000   0.0000000  -0.0000000
   3.7650000  -2.0680000   0.0910000  -0.0350000   0.0570000   2.4720000
   3.7400000  -2.0170000   2.5630000   0.8050000  -0.9590000   4.5600000
   2.3570000  -1.8120000   4.5930000   2.4690000   0.8640000   3.8800000
