; mobley_5311804_GMX_OPLS.top created by acpype (v: 2023.10.27) on Thu May 21 00:03:54 2026

; Include forcefield parameters
#include "ffoplsaa.itp"

; Include mobley_5311804_GMX.itp topology
#include "mobley_5311804_GMX.itp"

; Ligand position restraints
#ifdef POSRES_LIG
#include "posre_mobley_5311804.itp"
#endif

[ system ]
 mobley_5311804

[ molecules ]
; Compound        nmols
 mobley_5311804   1     
