mobley_5311804_GMX.gro created by acpype (v: 2023.10.27) on Thu May 21 00:03:54 2026
 16
    1  MOL   C1    1   0.189  -0.104  -0.011
    1  MOL   C2    2   0.082  -0.044   0.056
    1  MOL   C3    3   0.294  -0.160   0.061
    1  MOL   C4    4   0.080  -0.041   0.196
    1  MOL   C5    5   0.292  -0.157   0.201
    1  MOL   C6    6   0.185  -0.098   0.268
    1  MOL   C7    7   0.183  -0.094   0.417
    1  MOL   O1    8   0.247   0.024   0.463
    1  MOL   H1    9   0.190  -0.106  -0.120
    1  MOL   H2   10   0.000   0.000  -0.000
    1  MOL   H3   11   0.377  -0.207   0.009
    1  MOL   H4   12  -0.004   0.006   0.247
    1  MOL   H5   13   0.374  -0.202   0.256
    1  MOL   H6   14   0.081  -0.096   0.456
    1  MOL   H7   15   0.236  -0.181   0.459
    1  MOL   H8   16   0.247   0.086   0.388
    7.60000     5.86400    11.64000
