mobley_3201701_GMX.gro created by acpype (v: 2023.10.27) on Wed May 20 23:50:27 2026
   35
    1MOL     C1    1   2.665   2.551   2.443
    1MOL     C2    2   2.726   2.427   2.434
    1MOL     C3    3   2.561   2.556   2.535
    1MOL     C4    4   2.592   2.339   2.602
    1MOL     C5    5   2.386   2.691   2.469
    1MOL     C6    6   2.701   2.667   2.356
    1MOL     C7    7   2.836   2.400   2.336
    1MOL     C8    8   2.600   2.102   2.635
    1MOL     C9    9   2.425   2.240   2.742
    1MOL    C10   10   2.185   2.822   2.428
    1MOL    C11   11   2.324   2.875   2.625
    1MOL     N1   12   2.691   2.323   2.513
    1MOL     N2   13   2.526   2.455   2.616
    1MOL     N3   14   2.558   2.232   2.686
    1MOL     N4   15   2.309   2.802   2.500
    1MOL     O1   16   2.363   2.617   2.374
    1MOL     O2   17   2.493   2.675   2.557
    1MOL     H1   18   2.651   2.659   2.259
    1MOL     H2   19   2.674   2.762   2.402
    1MOL     H3   20   2.809   2.672   2.339
    1MOL     H4   21   2.925   2.460   2.361
    1MOL     H5   22   2.865   2.295   2.338
    1MOL     H6   23   2.804   2.424   2.234
    1MOL     H7   24   2.573   2.023   2.706
    1MOL     H8   25   2.709   2.096   2.623
    1MOL     H9   26   2.552   2.079   2.540
    1MOL    H10   27   2.406   2.154   2.808
    1MOL    H11   28   2.348   2.239   2.664
    1MOL    H12   29   2.412   2.330   2.804
    1MOL    H13   30   2.103   2.777   2.485
    1MOL    H14   31   2.188   2.776   2.329
    1MOL    H15   32   2.166   2.929   2.415
    1MOL    H16   33   2.294   2.979   2.610
    1MOL    H17   34   2.427   2.873   2.661
    1MOL    H18   35   2.259   2.828   2.700
   5.03497   5.03497   5.03497
