mobley_194273_GMX.gro created by acpype (v: 2023.10.27) on Wed May 20 23:48:23 2026
   27
    1MOL     C1    1   2.319   2.290   2.243
    1MOL     C2    2   2.424   2.207   2.251
    1MOL     C3    3   2.322   2.418   2.322
    1MOL     C4    4   2.541   2.353   2.406
    1MOL     C5    5   2.438   2.075   2.179
    1MOL     C6    6   2.327   2.459   2.685
    1MOL     C7    7   2.452   2.688   2.395
    1MOL     C8    8   2.331   2.576   2.588
    1MOL     C9    9   2.444   2.563   2.483
    1MOL     N1   10   2.531   2.240   2.330
    1MOL     N2   11   2.434   2.440   2.402
    1MOL     O1   12   2.229   2.498   2.313
    1MOL     O2   13   2.644   2.369   2.472
    1MOL    BR1   14   2.166   2.259   2.139
    1MOL     H1   15   2.527   2.077   2.115
    1MOL     H2   16   2.353   2.050   2.116
    1MOL     H3   17   2.450   1.994   2.251
    1MOL     H4   18   2.424   2.447   2.736
    1MOL     H5   19   2.251   2.477   2.762
    1MOL     H6   20   2.302   2.366   2.634
    1MOL     H7   21   2.360   2.708   2.341
    1MOL     H8   22   2.474   2.776   2.456
    1MOL     H9   23   2.533   2.678   2.321
    1MOL    H10   24   2.233   2.587   2.541
    1MOL    H11   25   2.347   2.668   2.646
    1MOL    H12   26   2.537   2.560   2.540
    1MOL    H13   27   2.611   2.178   2.336
   4.81464   4.81464   4.81464
