mobley_194273_GMX.gro created by acpype (v: 2023.10.27) on Wed May 20 23:48:23 2026
11139
    1MOL     C1    1   2.319   2.290   2.243
    1MOL     C2    2   2.424   2.207   2.251
    1MOL     C3    3   2.322   2.418   2.322
    1MOL     C4    4   2.541   2.353   2.406
    1MOL     C5    5   2.438   2.075   2.179
    1MOL     C6    6   2.327   2.459   2.685
    1MOL     C7    7   2.452   2.688   2.395
    1MOL     C8    8   2.331   2.576   2.588
    1MOL     C9    9   2.444   2.563   2.483
    1MOL     N1   10   2.531   2.240   2.330
    1MOL     N2   11   2.434   2.440   2.402
    1MOL     O1   12   2.229   2.498   2.313
    1MOL     O2   13   2.644   2.369   2.472
    1MOL    BR1   14   2.166   2.259   2.139
    1MOL     H1   15   2.527   2.077   2.115
    1MOL     H2   16   2.353   2.050   2.116
    1MOL     H3   17   2.450   1.994   2.251
    1MOL     H4   18   2.424   2.447   2.736
    1MOL     H5   19   2.251   2.477   2.762
    1MOL     H6   20   2.302   2.366   2.634
    1MOL     H7   21   2.360   2.708   2.341
    1MOL     H8   22   2.474   2.776   2.456
    1MOL     H9   23   2.533   2.678   2.321
    1MOL    H10   24   2.233   2.587   2.541
    1MOL    H11   25   2.347   2.668   2.646
    1MOL    H12   26   2.537   2.560   2.540
    1MOL    H13   27   2.611   2.178   2.336
    2SOL     OW   28   0.230   0.628   0.113
    2SOL    HW1   29   0.137   0.626   0.150
    2SOL    HW2   30   0.231   0.589   0.021
    3SOL     OW   31   0.225   0.275   0.996
    3SOL    HW1   32   0.260   0.258   1.088
    3SOL    HW2   33   0.137   0.230   0.984
    4SOL     OW   34   0.019   0.368   0.647
    4SOL    HW1   35  -0.063   0.411   0.686
    4SOL    HW2   36  -0.009   0.295   0.584
    5SOL     OW   37   0.569   1.275   1.165
    5SOL    HW1   38   0.476   1.268   1.128
    5SOL    HW2   39   0.580   1.364   1.209
    6SOL     OW   40   1.555   1.511   0.703
    6SOL    HW1   41   1.498   1.495   0.784
    6SOL    HW2   42   1.496   1.521   0.623
    7SOL     OW   43   1.135   0.703   0.717
    7SOL    HW1   44   1.192   0.781   0.692
    7SOL    HW2   45   1.075   0.729   0.793
    8SOL     OW   46   1.755   0.607   0.231
    8SOL    HW1   47   1.743   0.594   0.132
    8SOL    HW2   48   1.725   0.526   0.280
    9SOL     OW   49   0.768   1.144   1.023
    9SOL    HW1   50   0.690   1.161   1.083
    9SOL    HW2   51   0.802   1.231   0.987
   10SOL     OW   52   0.850   0.798   1.823
   10SOL    HW1   53   0.846   0.874   1.888
   10SOL    HW2   54   0.872   0.834   1.732
   11SOL     OW   55   0.685   1.012   0.665
   11SOL    HW1   56   0.754   0.996   0.735
   11SOL    HW2   57   0.612   1.069   0.703
   12SOL     OW   58   0.686   1.161   1.803
   12SOL    HW1   59   0.746   1.240   1.817
   12SOL    HW2   60   0.600   1.192   1.762
   13SOL     OW   61   0.335   1.435   1.061
   13SOL    HW1   62   0.257   1.404   1.008
   13SOL    HW2   63   0.393   1.493   1.004
   14SOL     OW   64   1.460   1.505   1.339
   14SOL    HW1   65   1.484   1.599   1.365
   14SOL    HW2   66   1.444   1.451   1.421
   15SOL     OW   67   0.438   0.392   1.499
   15SOL    HW1   68   0.520   0.336   1.508
   15SOL    HW2   69   0.357   0.334   1.503
   16SOL     OW   70   1.603   0.447   0.737
   16SOL    HW1   71   1.529   0.493   0.687
   16SOL    HW2   72   1.654   0.515   0.790
   17SOL     OW   73   0.231   1.713   0.483
   17SOL    HW1   74   0.265   1.790   0.537
   17SOL    HW2   75   0.275   1.713   0.393
   18SOL     OW   76   1.127   1.341   1.690
   18SOL    HW1   77   1.174   1.341   1.778
   18SOL    HW2   78   1.079   1.254   1.679
   19SOL     OW   79   0.230   1.434   0.538
   19SOL    HW1   80   0.204   1.530   0.538
   19SOL    HW2   81   0.159   1.380   0.583
   20SOL     OW   82   0.240   1.091   0.886
   20SOL    HW1   83   0.254   1.007   0.938
   20SOL    HW2   84   0.185   1.155   0.941
   21SOL     OW   85   0.620   1.786   1.439
   21SOL    HW1   86   0.528   1.769   1.474
   21SOL    HW2   87   0.648   1.878   1.465
   22SOL     OW   88   0.606   0.964   0.123
   22SOL    HW1   89   0.613   1.048   0.069
   22SOL    HW2   90   0.652   0.977   0.211
   23SOL     OW   91   1.594   0.114   1.480
   23SOL    HW1   92   1.576   0.181   1.408
   23SOL    HW2   93   1.591   0.160   1.569
   24SOL     OW   94   0.122   0.643   0.563
   24SOL    HW1   95   0.077   0.555   0.580
   24SOL    HW2   96   0.121   0.697   0.647
   25SOL     OW   97   1.842   1.767   0.359
   25SOL    HW1   98   1.896   1.738   0.439
   25SOL    HW2   99   1.872   1.857   0.330
   26SOL     OW  100   0.027   1.596   0.117
   26SOL    HW1  101   0.008   1.500   0.138
   26SOL    HW2  102  -0.006   1.654   0.192
   27SOL     OW  103   1.689   0.922   0.612
   27SOL    HW1  104   1.784   0.893   0.620
   27SOL    HW2  105   1.681   0.987   0.537
   28SOL     OW  106   1.641   1.108   0.432
   28SOL    HW1  107   1.727   1.110   0.380
   28SOL    HW2  108   1.655   1.155   0.520
   29SOL     OW  109   0.113   0.737   1.597
   29SOL    HW1  110   0.201   0.724   1.642
   29SOL    HW2  111   0.100   0.834   1.575
   30SOL     OW  112   0.613   1.365   0.726
   30SOL    HW1  113   0.564   1.278   0.735
   30SOL    HW2  114   0.590   1.408   0.639
   31SOL     OW  115   1.293   1.228   1.423
   31SOL    HW1  116   1.330   1.155   1.365
   31SOL    HW2  117   1.345   1.233   1.508
   32SOL     OW  118   0.809   0.004   0.502
   32SOL    HW1  119   0.849   0.095   0.493
   32SOL    HW2  120   0.709   0.012   0.508
   33SOL     OW  121   0.197   0.976   1.264
   33SOL    HW1  122   0.286   0.931   1.250
   33SOL    HW2  123   0.124   0.911   1.245
   34SOL     OW  124   1.525   0.999   0.190
   34SOL    HW1  125   1.462   0.923   0.203
   34SOL    HW2  126   1.573   1.017   0.276
   35SOL     OW  127   1.187   1.792   1.616
   35SOL    HW1  128   1.211   1.852   1.540
   35SOL    HW2  129   1.194   1.697   1.586
   36SOL     OW  130   0.317   0.251   1.801
   36SOL    HW1  131   0.388   0.322   1.807
   36SOL    HW2  132   0.229   0.290   1.829
   37SOL     OW  133   1.466   1.417   0.953
   37SOL    HW1  134   1.407   1.423   1.033
   37SOL    HW2  135   1.451   1.329   0.907
   38SOL     OW  136   1.667   1.714   0.572
   38SOL    HW1  137   1.626   1.691   0.484
   38SOL    HW2  138   1.649   1.640   0.637
   39SOL     OW  139   0.598   0.729   0.270
   39SOL    HW1  140   0.622   0.798   0.202
   39SOL    HW2  141   0.520   0.762   0.324
   40SOL     OW  142   1.281   0.345   0.944
   40SOL    HW1  143   1.195   0.295   0.931
   40SOL    HW2  144   1.343   0.291   1.000
   41SOL     OW  145   1.576   1.662   0.307
   41SOL    HW1  146   1.665   1.708   0.310
   41SOL    HW2  147   1.555   1.638   0.212
   42SOL     OW  148   0.807   0.605   1.465
   42SOL    HW1  149   0.760   0.602   1.554
   42SOL    HW2  150   0.756   0.550   1.399
   43SOL     OW  151   1.394   0.469   1.674
   43SOL    HW1  152   1.374   0.512   1.762
   43SOL    HW2  153   1.472   0.407   1.683
   44SOL     OW  154   0.973   0.890   1.572
   44SOL    HW1  155   1.019   0.806   1.543
   44SOL    HW2  156   0.917   0.924   1.497
   45SOL     OW  157   0.991   0.410   1.242
   45SOL    HW1  158   0.914   0.444   1.296
   45SOL    HW2  159   0.957   0.359   1.163
   46SOL     OW  160   1.041   0.701   0.429
   46SOL    HW1  161   1.067   0.697   0.525
   46SOL    HW2  162   0.956   0.650   0.415
   47SOL     OW  163   0.076   0.811   0.789
   47SOL    HW1  164   0.175   0.799   0.798
   47SOL    HW2  165   0.052   0.906   0.810
   48SOL     OW  166   0.130   1.821   1.571
   48SOL    HW1  167   0.120   1.806   1.670
   48SOL    HW2  168   0.044   1.857   1.535
   49SOL     OW  169   0.865   0.348   0.195
   49SOL    HW1  170   0.924   0.411   0.146
   49SOL    HW2  171   0.884   0.254   0.166
   50SOL     OW  172   1.719   0.585   1.831
   50SOL    HW1  173   1.693   0.674   1.795
   50SOL    HW2  174   1.717   0.517   1.758
   51SOL     OW  175   1.362   1.144   0.545
   51SOL    HW1  176   1.445   1.115   0.497
   51SOL    HW2  177   1.313   1.211   0.489
   52SOL     OW  178   0.550   0.196   0.885
   52SOL    HW1  179   0.545   0.191   0.985
   52SOL    HW2  180   0.552   0.292   0.856
   53SOL     OW  181   1.008   1.456   0.477
   53SOL    HW1  182   0.962   1.528   0.425
   53SOL    HW2  183   1.004   1.476   0.575
   54SOL     OW  184   0.351   1.801   0.853
   54SOL    HW1  185   0.401   1.715   0.859
   54SOL    HW2  186   0.416   1.878   0.850
   55SOL     OW  187   1.795   1.066   0.873
   55SOL    HW1  188   1.733   1.051   0.797
   55SOL    HW2  189   1.743   1.077   0.958
   56SOL     OW  190   1.227   1.550   1.506
   56SOL    HW1  191   1.233   1.473   1.570
   56SOL    HW2  192   1.175   1.524   1.426
   57SOL     OW  193   0.321   0.943   0.242
   57SOL    HW1  194   0.403   0.982   0.200
   57SOL    HW2  195   0.294   0.861   0.193
   58SOL     OW  196   1.458   0.735   0.728
   58SOL    HW1  197   1.453   0.670   0.803
   58SOL    HW2  198   1.538   0.794   0.741
   59SOL     OW  199   0.461   1.266   1.727
   59SOL    HW1  200   0.411   1.267   1.641
   59SOL    HW2  201   0.398   1.248   1.803
   60SOL     OW  202   1.111   1.776   0.237
   60SOL    HW1  203   1.051   1.714   0.287
   60SOL    HW2  204   1.142   1.732   0.152
   61SOL     OW  205   0.202   0.285   1.498
   61SOL    HW1  206   0.122   0.345   1.485
   61SOL    HW2  207   0.192   0.236   1.584
   62SOL     OW  208   1.632   1.377   0.081
   62SOL    HW1  209   1.600   1.471   0.071
   62SOL    HW2  210   1.556   1.314   0.069
   63SOL     OW  211   0.464   1.743   0.323
   63SOL    HW1  212   0.497   1.782   0.409
   63SOL    HW2  213   0.540   1.736   0.258
   64SOL     OW  214   1.400   0.107   0.426
   64SOL    HW1  215   1.376   0.070   0.336
   64SOL    HW2  216   1.499   0.123   0.430
   65SOL     OW  217   0.249   1.785   1.241
   65SOL    HW1  218   0.306   1.720   1.291
   65SOL    HW2  219   0.233   1.752   1.148
   66SOL     OW  220   0.940   1.698   0.904
   66SOL    HW1  221   1.020   1.641   0.925
   66SOL    HW2  222   0.891   1.658   0.827
   67SOL     OW  223   0.382   0.700   0.480
   67SOL    HW1  224   0.427   0.610   0.477
   67SOL    HW2  225   0.288   0.689   0.513
   68SOL     OW  226   1.547   0.222   1.729
   68SOL    HW1  227   1.542   0.259   1.821
   68SOL    HW2  228   1.475   0.153   1.717
   69SOL     OW  229   0.614   0.122   0.117
   69SOL    HW1  230   0.712   0.100   0.124
   69SOL    HW2  231   0.583   0.105   0.024
   70SOL     OW  232   0.781   0.264   1.749
   70SOL    HW1  233   0.848   0.203   1.792
   70SOL    HW2  234   0.708   0.283   1.814
   71SOL     OW  235   0.888   1.514   1.195
   71SOL    HW1  236   0.865   1.489   1.101
   71SOL    HW2  237   0.949   1.445   1.234
   72SOL     OW  238   1.351   0.590   1.433
   72SOL    HW1  239   1.379   0.547   1.518
   72SOL    HW2  240   1.376   0.686   1.434
   73SOL     OW  241   0.803   1.402   0.924
   73SOL    HW1  242   0.893   1.416   0.882
   73SOL    HW2  243   0.732   1.404   0.853
   74SOL     OW  244   0.922   0.503   0.899
   74SOL    HW1  245   0.897   0.494   0.803
   74SOL    HW2  246   0.970   0.421   0.930
   75SOL     OW  247   0.539   0.064   0.512
   75SOL    HW1  248   0.458   0.065   0.570
   75SOL    HW2  249   0.542   0.147   0.457
   76SOL     OW  250   1.434   1.188   0.041
   76SOL    HW1  251   1.466   1.112   0.098
   76SOL    HW2  252   1.342   1.215   0.071
   77SOL     OW  253   0.297   0.035   0.171
   77SOL    HW1  254   0.346   0.119   0.150
   77SOL    HW2  255   0.359  -0.030   0.216
   78SOL     OW  256   0.935   0.236   0.480
   78SOL    HW1  257   0.887   0.277   0.402
   78SOL    HW2  258   1.034   0.234   0.461
   79SOL     OW  259   1.076   0.683   1.464
   79SOL    HW1  260   0.996   0.622   1.467
   79SOL    HW2  261   1.157   0.630   1.440
   80SOL     OW  262   1.227   1.570   0.793
   80SOL    HW1  263   1.248   1.644   0.728
   80SOL    HW2  264   1.295   1.570   0.866
   81SOL     OW  265   0.459   1.152   0.741
   81SOL    HW1  266   0.388   1.125   0.806
   81SOL    HW2  267   0.433   1.124   0.648
   82SOL     OW  268   1.271   1.797   0.591
   82SOL    HW1  269   1.315   1.861   0.527
   82SOL    HW2  270   1.221   1.849   0.661
   83SOL     OW  271   1.032   0.549   0.016
   83SOL    HW1  272   0.991   0.631  -0.023
   83SOL    HW2  273   1.096   0.575   0.089
   84SOL     OW  274   0.078   0.556   1.386
   84SOL    HW1  275   0.170   0.555   1.345
   84SOL    HW2  276   0.072   0.630   1.453
   85SOL     OW  277   0.561   0.222   1.147
   85SOL    HW1  278   0.599   0.138   1.184
   85SOL    HW2  279   0.473   0.241   1.191
   86SOL     OW  280   0.866   0.454   0.642
   86SOL    HW1  281   0.834   0.526   0.580
   86SOL    HW2  282   0.890   0.373   0.589
   87SOL     OW  283   1.017   0.039   0.753
   87SOL    HW1  284   0.945   0.044   0.684
   87SOL    HW2  285   0.993  -0.030   0.822
   88SOL     OW  286   1.429   1.173   0.867
   88SOL    HW1  287   1.374   1.089   0.860
   88SOL    HW2  288   1.455   1.202   0.775
   89SOL     OW  289   1.466   0.590   0.992
   89SOL    HW1  290   1.436   0.495   0.999
   89SOL    HW2  291   1.539   0.606   1.058
   90SOL     OW  292   1.857   0.833   0.377
   90SOL    HW1  293   1.899   0.769   0.441
   90SOL    HW2  294   1.819   0.782   0.299
   91SOL     OW  295   0.488   1.385   0.174
   91SOL    HW1  296   0.401   1.370   0.221
   91SOL    HW2  297   0.471   1.411   0.079
   92SOL     OW  298   1.664   1.280   0.657
   92SOL    HW1  299   1.763   1.288   0.671
   92SOL    HW2  300   1.619   1.364   0.688
   93SOL     OW  301   1.390   0.575   0.078
   93SOL    HW1  302   1.336   0.554   0.159
   93SOL    HW2  303   1.481   0.534   0.087
   94SOL     OW  304   0.527   0.256   0.328
   94SOL    HW1  305   0.554   0.197   0.253
   94SOL    HW2  306   0.527   0.351   0.297
   95SOL     OW  307   1.754   1.223   1.588
   95SOL    HW1  308   1.845   1.184   1.575
   95SOL    HW2  309   1.762   1.319   1.612
   96SOL     OW  310   1.064   1.347   1.340
   96SOL    HW1  311   0.984   1.324   1.395
   96SOL    HW2  312   1.147   1.321   1.389
   97SOL     OW  313   1.592   1.629   1.625
   97SOL    HW1  314   1.619   1.663   1.535
   97SOL    HW2  315   1.671   1.591   1.671
   98SOL     OW  316   1.111   1.195   1.100
   98SOL    HW1  317   1.071   1.239   1.181
   98SOL    HW2  318   1.070   1.232   1.017
   99SOL     OW  319   1.638   1.099   1.079
   99SOL    HW1  320   1.643   1.180   1.138
   99SOL    HW2  321   1.552   1.101   1.028
  100SOL     OW  322   0.915   0.089   1.402
  100SOL    HW1  323   0.940   0.069   1.307
  100SOL    HW2  324   0.987   0.145   1.444
  101SOL     OW  325   0.980   1.116   1.719
  101SOL    HW1  326   0.881   1.122   1.729
  101SOL    HW2  327   1.003   1.036   1.663
  102SOL     OW  328   0.705   1.050   0.368
  102SOL    HW1  329   0.691   1.057   0.467
  102SOL    HW2  330   0.789   0.999   0.350
  103SOL     OW  331   0.410   0.813   1.251
  103SOL    HW1  332   0.496   0.825   1.301
  103SOL    HW2  333   0.368   0.726   1.278
  104SOL     OW  334   1.274   0.386   1.262
  104SOL    HW1  335   1.295   0.460   1.326
  104SOL    HW2  336   1.185   0.403   1.219
  105SOL     OW  337   0.064   1.564   1.331
  105SOL    HW1  338   0.018   1.646   1.297
  105SOL    HW2  339   0.162   1.583   1.340
  106SOL     OW  340   0.367   1.100   0.501
  106SOL    HW1  341   0.360   1.183   0.445
  106SOL    HW2  342   0.371   1.020   0.441
  107SOL     OW  343   0.566   0.537   0.865
  107SOL    HW1  344   0.578   0.603   0.791
  107SOL    HW2  345   0.612   0.571   0.948
  108SOL     OW  346   1.252   1.348   0.388
  108SOL    HW1  347   1.302   1.425   0.428
  108SOL    HW2  348   1.157   1.350   0.420
  109SOL     OW  349   1.272   1.445   1.142
  109SOL    HW1  350   1.319   1.458   1.229
  109SOL    HW2  351   1.206   1.371   1.151
  110SOL     OW  352   1.582   0.639   0.472
  110SOL    HW1  353   1.551   0.700   0.545
  110SOL    HW2  354   1.632   0.691   0.403
  111SOL     OW  355   0.354   1.510   1.329
  111SOL    HW1  356   0.333   1.466   1.242
  111SOL    HW2  357   0.451   1.536   1.332
  112SOL     OW  358   0.402   0.751   1.598
  112SOL    HW1  359   0.470   0.806   1.551
  112SOL    HW2  360   0.442   0.663   1.625
  113SOL     OW  361   1.587   0.779   1.670
  113SOL    HW1  362   1.495   0.817   1.665
  113SOL    HW2  363   1.647   0.826   1.605
  114SOL     OW  364   1.013   0.105   1.770
  114SOL    HW1  365   1.019   0.190   1.718
  114SOL    HW2  366   1.045   0.029   1.713
  115SOL     OW  367   0.504   0.050   1.740
  115SOL    HW1  368   0.462  -0.007   1.670
  115SOL    HW2  369   0.438   0.119   1.772
  116SOL     OW  370   0.573   0.870   1.029
  116SOL    HW1  371   0.617   0.959   1.020
  116SOL    HW2  372   0.510   0.870   1.106
  117SOL     OW  373   1.360   0.862   1.045
  117SOL    HW1  374   1.285   0.862   0.979
  117SOL    HW2  375   1.397   0.770   1.054
  118SOL     OW  376   1.209   0.525   0.275
  118SOL    HW1  377   1.222   0.441   0.329
  118SOL    HW2  378   1.180   0.599   0.335
  119SOL     OW  379   0.307   0.213   1.231
  119SOL    HW1  380   0.284   0.250   1.321
  119SOL    HW2  381   0.277   0.118   1.225
  120SOL     OW  382   0.037   1.310   1.282
  120SOL    HW1  383   0.090   1.261   1.350
  120SOL    HW2  384   0.059   1.408   1.287
  121SOL     OW  385   0.732   0.634   1.064
  121SOL    HW1  386   0.791   0.608   0.988
  121SOL    HW2  387   0.704   0.730   1.053
  122SOL     OW  388   1.728   0.935   1.854
  122SOL    HW1  389   1.682   0.928   1.765
  122SOL    HW2  390   1.666   0.979   1.920
  123SOL     OW  391   0.307   0.063   0.618
  123SOL    HW1  392   0.296   0.157   0.651
  123SOL    HW2  393   0.302   0.000   0.695
  124SOL     OW  394   1.622   0.367   0.374
  124SOL    HW1  395   1.624   0.291   0.438
  124SOL    HW2  396   1.574   0.444   0.414
  125SOL     OW  397   1.023   0.766   0.966
  125SOL    HW1  398   1.038   0.787   1.062
  125SOL    HW2  399   0.993   0.671   0.957
  126SOL     OW  400   0.980   1.573   1.700
  126SOL    HW1  401   0.960   1.617   1.612
  126SOL    HW2  402   1.019   1.482   1.684
  127SOL     OW  403   1.859   1.518   1.605
  127SOL    HW1  404   1.873   1.545   1.510
  127SOL    HW2  405   1.942   1.540   1.658
  128SOL     OW  406   0.350   0.898   1.804
  128SOL    HW1  407   0.426   0.942   1.852
  128SOL    HW2  408   0.385   0.851   1.722
  129SOL     OW  409   1.540   0.274   0.125
  129SOL    HW1  410   1.479   0.199   0.148
  129SOL    HW2  411   1.562   0.326   0.208
  130SOL     OW  412   1.303   0.838   0.042
  130SOL    HW1  413   1.337   0.745   0.057
  130SOL    HW2  414   1.321   0.865  -0.053
  131SOL     OW  415   1.068   1.333   0.849
  131SOL    HW1  416   1.075   1.249   0.794
  131SOL    HW2  417   1.130   1.402   0.813
  132SOL     OW  418   0.319   0.810   0.949
  132SOL    HW1  419   0.412   0.846   0.954
  132SOL    HW2  420   0.313   0.725   1.001
  133SOL     OW  421   0.339   0.509   1.006
  133SOL    HW1  422   0.287   0.426   0.989
  133SOL    HW2  423   0.416   0.514   0.942
  134SOL     OW  424   1.138   0.380   1.678
  134SOL    HW1  425   1.093   0.443   1.742
  134SOL    HW2  426   1.231   0.411   1.661
  135SOL     OW  427   1.160   0.207   1.477
  135SOL    HW1  428   1.160   0.271   1.554
  135SOL    HW2  429   1.188   0.255   1.394
  136SOL     OW  430   0.008   1.326   0.200
  136SOL    HW1  431  -0.085   1.347   0.169
  136SOL    HW2  432   0.018   1.227   0.213
  137SOL     OW  433   0.088   1.801   0.927
  137SOL    HW1  434   0.046   1.715   0.900
  137SOL    HW2  435   0.182   1.804   0.893
  138SOL     OW  436   0.504   1.568   0.910
  138SOL    HW1  437   0.570   1.642   0.919
  138SOL    HW2  438   0.548   1.489   0.868
  139SOL     OW  439   1.002   0.796   1.238
  139SOL    HW1  440   1.043   0.764   1.324
  139SOL    HW2  441   0.906   0.769   1.235
  140SOL     OW  442   0.040   0.544   1.114
  140SOL    HW1  443   0.125   0.511   1.073
  140SOL    HW2  444   0.053   0.559   1.212
  141SOL     OW  445   0.189   0.520   1.722
  141SOL    HW1  446   0.248   0.480   1.652
  141SOL    HW2  447   0.131   0.591   1.681
  142SOL     OW  448   1.369   0.950   1.660
  142SOL    HW1  449   1.408   1.039   1.680
  142SOL    HW2  450   1.379   0.930   1.563
  143SOL     OW  451   0.815   0.572   0.325
  143SOL    HW1  452   0.822   0.483   0.279
  143SOL    HW2  453   0.721   0.606   0.317
  144SOL     OW  454   1.657   0.604   1.206
  144SOL    HW1  455   1.619   0.535   1.268
  144SOL    HW2  456   1.739   0.568   1.162
  145SOL     OW  457   0.252   1.564   1.744
  145SOL    HW1  458   0.222   1.621   1.820
  145SOL    HW2  459   0.245   1.467   1.770
  146SOL     OW  460   0.671   0.464   1.269
  146SOL    HW1  461   0.637   0.375   1.239
  146SOL    HW2  462   0.697   0.518   1.189
  147SOL     OW  463   0.930   1.678   1.465
  147SOL    HW1  464   0.906   1.660   1.370
  147SOL    HW2  465   0.960   1.772   1.475
  148SOL     OW  466   0.473   0.500   0.191
  148SOL    HW1  467   0.534   0.580   0.195
  148SOL    HW2  468   0.378   0.531   0.198
  149SOL     OW  469   0.159   1.137   1.466
  149SOL    HW1  470   0.181   1.076   1.542
  149SOL    HW2  471   0.169   1.088   1.380
  150SOL     OW  472   1.347   1.059   1.234
  150SOL    HW1  473   1.371   0.996   1.160
  150SOL    HW2  474   1.257   1.099   1.216
  151SOL     OW  475   1.302   0.855   0.309
  151SOL    HW1  476   1.216   0.824   0.351
  151SOL    HW2  477   1.298   0.841   0.210
  152SOL     OW  478   1.759   1.747   1.154
  152SOL    HW1  479   1.820   1.777   1.081
  152SOL    HW2  480   1.721   1.658   1.132
  153SOL     OW  481   1.252   1.731   1.128
  153SOL    HW1  482   1.336   1.736   1.074
  153SOL    HW2  483   1.229   1.635   1.146
  154SOL     OW  484   0.083   1.258   1.022
  154SOL    HW1  485   0.078   1.257   1.122
  154SOL    HW2  486   0.000   1.217   0.984
  155SOL     OW  487   0.688   1.662   1.716
  155SOL    HW1  488   0.632   1.743   1.725
  155SOL    HW2  489   0.740   1.666   1.630
  156SOL     OW  490   0.903   0.086   0.133
  156SOL    HW1  491   0.954   0.087   0.047
  156SOL    HW2  492   0.959   0.044   0.204
  157SOL     OW  493   1.726   0.135   0.523
  157SOL    HW1  494   1.799   0.118   0.456
  157SOL    HW2  495   1.695   0.048   0.561
  158SOL     OW  496   1.388   1.573   0.477
  158SOL    HW1  497   1.455   1.585   0.403
  158SOL    HW2  498   1.348   1.662   0.500
  159SOL     OW  499   0.130   1.794   1.851
  159SOL    HW1  500   0.089   1.720   1.904
  159SOL    HW2  501   0.194   1.845   1.909
  160SOL     OW  502   1.280   0.927   0.672
  160SOL    HW1  503   1.340   0.846   0.674
  160SOL    HW2  504   1.320   0.996   0.612
  161SOL     OW  505   0.830   1.273   1.422
  161SOL    HW1  506   0.825   1.306   1.517
  161SOL    HW2  507   0.744   1.292   1.376
  162SOL     OW  508   0.672   1.616   0.154
  162SOL    HW1  509   0.681   1.626   0.055
  162SOL    HW2  510   0.632   1.527   0.175
  163SOL     OW  511   1.650   1.720   1.394
  163SOL    HW1  512   1.703   1.730   1.310
  163SOL    HW2  513   1.623   1.810   1.428
  164SOL     OW  514   1.841   0.175   0.963
  164SOL    HW1  515   1.880   0.090   0.927
  164SOL    HW2  516   1.743   0.177   0.944
  165SOL     OW  517   0.263   0.326   0.720
  165SOL    HW1  518   0.184   0.377   0.686
  165SOL    HW2  519   0.254   0.311   0.818
  166SOL     OW  520   1.194   1.612   0.031
  166SOL    HW1  521   1.200   1.519   0.068
  166SOL    HW2  522   1.135   1.612  -0.049
  167SOL     OW  523   0.822   1.002   1.372
  167SOL    HW1  524   0.862   1.001   1.280
  167SOL    HW2  525   0.832   1.094   1.412
  168SOL     OW  526   0.916   0.910   0.291
  168SOL    HW1  527   0.979   0.948   0.223
  168SOL    HW2  528   0.956   0.827   0.330
  169SOL     OW  529   1.504   1.607   0.044
  169SOL    HW1  530   1.412   1.644   0.051
  169SOL    HW2  531   1.542   1.627  -0.046
  170SOL     OW  532   0.372   1.288   1.490
  170SOL    HW1  533   0.359   1.381   1.456
  170SOL    HW2  534   0.288   1.236   1.477
  171SOL     OW  535   1.614   1.292   1.289
  171SOL    HW1  536   1.674   1.295   1.369
  171SOL    HW2  537   1.539   1.356   1.302
  172SOL     OW  538   1.039   1.098   0.696
  172SOL    HW1  539   0.969   1.051   0.750
  172SOL    HW2  540   1.098   1.030   0.653
  173SOL     OW  541   1.014   0.236   0.971
  173SOL    HW1  542   1.006   0.200   0.878
  173SOL    HW2  543   1.012   0.160   1.036
  174SOL     OW  544   0.590   1.487   0.491
  174SOL    HW1  545   0.632   1.429   0.421
  174SOL    HW2  546   0.546   1.566   0.447
  175SOL     OW  547   1.709   0.385   1.381
  175SOL    HW1  548   1.782   0.454   1.385
  175SOL    HW2  549   1.737   0.310   1.322
  176SOL     OW  550   0.255   1.348   0.290
  176SOL    HW1  551   0.159   1.349   0.263
  176SOL    HW2  552   0.267   1.401   0.374
  177SOL     OW  553   0.105   1.013   1.726
  177SOL    HW1  554   0.028   0.980   1.780
  177SOL    HW2  555   0.190   0.983   1.768
  178SOL     OW  556   0.672   0.203   1.489
  178SOL    HW1  557   0.762   0.187   1.449
  178SOL    HW2  558   0.680   0.208   1.588
  179SOL     OW  559   0.075   0.345   0.033
  179SOL    HW1  560  -0.017   0.317   0.004
  179SOL    HW2  561   0.106   0.422  -0.023
  180SOL     OW  562   1.440   0.856   1.398
  180SOL    HW1  563   1.383   0.908   1.335
  180SOL    HW2  564   1.536   0.868   1.374
  181SOL     OW  565   0.072   0.166   0.318
  181SOL    HW1  566   0.055   0.249   0.264
  181SOL    HW2  567   0.162   0.129   0.296
  182SOL     OW  568   1.183   1.335   0.119
  182SOL    HW1  569   1.084   1.324   0.121
  182SOL    HW2  570   1.217   1.350   0.212
  183SOL     OW  571   0.613   0.842   1.431
  183SOL    HW1  572   0.669   0.923   1.414
  183SOL    HW2  573   0.672   0.762   1.434
  184SOL     OW  574   1.493   1.767   0.959
  184SOL    HW1  575   1.526   1.831   0.890
  184SOL    HW2  576   1.559   1.761   1.034
  185SOL     OW  577   0.716   0.565   1.708
  185SOL    HW1  578   0.735   0.630   1.782
  185SOL    HW2  579   0.776   0.485   1.717
  186SOL     OW  580   1.450   1.220   1.633
  186SOL    HW1  581   1.441   1.210   1.732
  186SOL    HW2  582   1.546   1.213   1.607
  187SOL     OW  583   0.390   1.741   1.560
  187SOL    HW1  584   0.299   1.782   1.558
  187SOL    HW2  585   0.383   1.647   1.592
  188SOL     OW  586   1.674   0.883   1.254
  188SOL    HW1  587   1.647   0.794   1.217
  188SOL    HW2  588   1.675   0.951   1.181
  189SOL     OW  589   1.225   0.325   0.449
  189SOL    HW1  590   1.290   0.251   0.438
  189SOL    HW2  591   1.245   0.375   0.533
  190SOL     OW  592   0.594   0.745   0.652
  190SOL    HW1  593   0.644   0.830   0.633
  190SOL    HW2  594   0.506   0.747   0.604
  191SOL     OW  595   1.777   0.342   1.642
  191SOL    HW1  596   1.760   0.373   1.548
  191SOL    HW2  597   1.693   0.305   1.680
  192SOL     OW  598   1.730   0.934   1.517
  192SOL    HW1  599   1.768   1.025   1.532
  192SOL    HW2  600   1.722   0.917   1.418
  193SOL     OW  601   0.859   1.374   0.016
  193SOL    HW1  602   0.813   1.389   0.104
  193SOL    HW2  603   0.903   1.459  -0.014
  194SOL     OW  604   0.661   1.790   0.953
  194SOL    HW1  605   0.615   1.878   0.940
  194SOL    HW2  606   0.760   1.802   0.946
  195SOL     OW  607   0.859   0.956   0.861
  195SOL    HW1  608   0.913   0.887   0.909
  195SOL    HW2  609   0.827   1.025   0.927
  196SOL     OW  610   1.083   0.984   0.087
  196SOL    HW1  611   1.060   1.037   0.005
  196SOL    HW2  612   1.164   0.928   0.068
  197SOL     OW  613   1.861   1.569   0.851
  197SOL    HW1  614   1.790   1.557   0.781
  197SOL    HW2  615   1.862   1.490   0.911
  198SOL     OW  616   0.221   1.314   1.844
  198SOL    HW1  617   0.156   1.241   1.823
  198SOL    HW2  618   0.225   1.328   1.942
  199SOL     OW  619   0.079   1.240   0.653
  199SOL    HW1  620   0.078   1.193   0.741
  199SOL    HW2  621   0.161   1.212   0.602
  200SOL     OW  622   0.672   1.391   1.624
  200SOL    HW1  623   0.594   1.341   1.662
  200SOL    HW2  624   0.669   1.486   1.655
  201SOL     OW  625   1.824   0.192   1.227
  201SOL    HW1  626   1.820   0.102   1.271
  201SOL    HW2  627   1.827   0.181   1.128
  202SOL     OW  628   0.428   0.424   0.520
  202SOL    HW1  629   0.458   0.352   0.458
  202SOL    HW2  630   0.389   0.384   0.603
  203SOL     OW  631   1.705   1.487   1.104
  203SOL    HW1  632   1.612   1.462   1.077
  203SOL    HW2  633   1.731   1.437   1.186
  204SOL     OW  634   0.317   0.547   1.280
  204SOL    HW1  635   0.355   0.488   1.352
  204SOL    HW2  636   0.357   0.521   1.192
  205SOL     OW  637   0.812   1.586   0.687
  205SOL    HW1  638   0.844   1.596   0.593
  205SOL    HW2  639   0.733   1.524   0.689
  206SOL     OW  640   1.424   0.214   1.112
  206SOL    HW1  641   1.476   0.149   1.167
  206SOL    HW2  642   1.375   0.277   1.173
  207SOL     OW  643   1.001   0.034   1.154
  207SOL    HW1  644   0.938  -0.038   1.123
  207SOL    HW2  645   1.094  -0.002   1.154
  208SOL     OW  646   0.770   1.330   0.301
  208SOL    HW1  647   0.724   1.243   0.318
  208SOL    HW2  648   0.861   1.327   0.342
  209SOL     OW  649   0.618   1.567   1.284
  209SOL    HW1  650   0.613   1.649   1.341
  209SOL    HW2  651   0.707   1.564   1.239
  210SOL     OW  652   1.352   0.052   0.168
  210SOL    HW1  653   1.387   0.011   0.084
  210SOL    HW2  654   1.262   0.014   0.188
  211SOL     OW  655   1.300   0.453   0.691
  211SOL    HW1  656   1.241   0.533   0.695
  211SOL    HW2  657   1.315   0.418   0.784
  212SOL     OW  658   1.593   0.221   0.882
  212SOL    HW1  659   1.509   0.220   0.936
  212SOL    HW2  660   1.595   0.304   0.826
  213SOL     OW  661   0.039   1.077   0.300
  213SOL    HW1  662   0.138   1.066   0.291
  213SOL    HW2  663  -0.001   0.991   0.332
  214SOL     OW  664   0.875   1.646   0.337
  214SOL    HW1  665   0.798   1.611   0.283
  214SOL    HW2  666   0.843   1.717   0.399
  215SOL     OW  667   0.230   0.628   1.975
  215SOL    HW1  668   0.137   0.626   2.012
  215SOL    HW2  669   0.231   0.589   1.883
  216SOL     OW  670   0.225   0.275   2.858
  216SOL    HW1  671   0.260   0.258   2.950
  216SOL    HW2  672   0.137   0.230   2.846
  217SOL     OW  673   0.019   0.368   2.509
  217SOL    HW1  674  -0.063   0.411   2.548
  217SOL    HW2  675  -0.009   0.295   2.446
  218SOL     OW  676   0.569   1.275   3.027
  218SOL    HW1  677   0.476   1.268   2.990
  218SOL    HW2  678   0.580   1.364   3.071
  219SOL     OW  679   1.555   1.511   2.565
  219SOL    HW1  680   1.498   1.495   2.646
  219SOL    HW2  681   1.496   1.521   2.485
  220SOL     OW  682   1.135   0.703   2.579
  220SOL    HW1  683   1.192   0.781   2.554
  220SOL    HW2  684   1.075   0.729   2.655
  221SOL     OW  685   1.755   0.607   2.093
  221SOL    HW1  686   1.743   0.594   1.994
  221SOL    HW2  687   1.725   0.526   2.142
  222SOL     OW  688   0.768   1.144   2.885
  222SOL    HW1  689   0.690   1.161   2.945
  222SOL    HW2  690   0.802   1.231   2.849
  223SOL     OW  691   0.850   0.798   3.685
  223SOL    HW1  692   0.846   0.874   3.750
  223SOL    HW2  693   0.872   0.834   3.594
  224SOL     OW  694   0.685   1.012   2.527
  224SOL    HW1  695   0.754   0.996   2.597
  224SOL    HW2  696   0.612   1.069   2.565
  225SOL     OW  697   0.686   1.161   3.665
  225SOL    HW1  698   0.746   1.240   3.679
  225SOL    HW2  699   0.600   1.192   3.624
  226SOL     OW  700   0.335   1.435   2.923
  226SOL    HW1  701   0.257   1.404   2.870
  226SOL    HW2  702   0.393   1.493   2.866
  227SOL     OW  703   1.460   1.505   3.201
  227SOL    HW1  704   1.484   1.599   3.227
  227SOL    HW2  705   1.444   1.451   3.283
  228SOL     OW  706   0.438   0.392   3.361
  228SOL    HW1  707   0.520   0.336   3.370
  228SOL    HW2  708   0.357   0.334   3.365
  229SOL     OW  709   1.603   0.447   2.599
  229SOL    HW1  710   1.529   0.493   2.549
  229SOL    HW2  711   1.654   0.515   2.652
  230SOL     OW  712   0.231   1.713   2.345
  230SOL    HW1  713   0.265   1.790   2.399
  230SOL    HW2  714   0.275   1.713   2.255
  231SOL     OW  715   1.127   1.341   3.552
  231SOL    HW1  716   1.174   1.341   3.640
  231SOL    HW2  717   1.079   1.254   3.541
  232SOL     OW  718   0.230   1.434   2.400
  232SOL    HW1  719   0.204   1.530   2.400
  232SOL    HW2  720   0.159   1.380   2.445
  233SOL     OW  721   0.240   1.091   2.748
  233SOL    HW1  722   0.254   1.007   2.800
  233SOL    HW2  723   0.185   1.155   2.803
  234SOL     OW  724   0.620   1.786   3.301
  234SOL    HW1  725   0.528   1.769   3.336
  234SOL    HW2  726   0.648   1.878   3.327
  235SOL     OW  727   0.606   0.964   1.985
  235SOL    HW1  728   0.613   1.048   1.931
  235SOL    HW2  729   0.652   0.977   2.073
  236SOL     OW  730   1.594   0.114   3.342
  236SOL    HW1  731   1.576   0.181   3.270
  236SOL    HW2  732   1.591   0.160   3.431
  237SOL     OW  733   0.122   0.643   2.425
  237SOL    HW1  734   0.077   0.555   2.442
  237SOL    HW2  735   0.121   0.697   2.509
  238SOL     OW  736   1.842   1.767   2.221
  238SOL    HW1  737   1.896   1.738   2.301
  238SOL    HW2  738   1.872   1.857   2.192
  239SOL     OW  739   0.027   1.596   1.979
  239SOL    HW1  740   0.008   1.500   2.000
  239SOL    HW2  741  -0.006   1.654   2.054
  240SOL     OW  742   1.689   0.922   2.474
  240SOL    HW1  743   1.784   0.893   2.482
  240SOL    HW2  744   1.681   0.987   2.399
  241SOL     OW  745   1.641   1.108   2.294
  241SOL    HW1  746   1.727   1.110   2.242
  241SOL    HW2  747   1.655   1.155   2.382
  242SOL     OW  748   0.113   0.737   3.459
  242SOL    HW1  749   0.201   0.724   3.504
  242SOL    HW2  750   0.100   0.834   3.437
  243SOL     OW  751   0.613   1.365   2.588
  243SOL    HW1  752   0.564   1.278   2.597
  243SOL    HW2  753   0.590   1.408   2.501
  244SOL     OW  754   1.293   1.228   3.285
  244SOL    HW1  755   1.330   1.155   3.227
  244SOL    HW2  756   1.345   1.233   3.370
  245SOL     OW  757   0.809   0.004   2.364
  245SOL    HW1  758   0.849   0.095   2.355
  245SOL    HW2  759   0.709   0.012   2.370
  246SOL     OW  760   0.197   0.976   3.126
  246SOL    HW1  761   0.286   0.931   3.112
  246SOL    HW2  762   0.124   0.911   3.107
  247SOL     OW  763   1.525   0.999   2.052
  247SOL    HW1  764   1.462   0.923   2.065
  247SOL    HW2  765   1.573   1.017   2.138
  248SOL     OW  766   1.187   1.792   3.478
  248SOL    HW1  767   1.211   1.852   3.402
  248SOL    HW2  768   1.194   1.697   3.448
  249SOL     OW  769   0.317   0.251   3.663
  249SOL    HW1  770   0.388   0.322   3.669
  249SOL    HW2  771   0.229   0.290   3.691
  250SOL     OW  772   1.466   1.417   2.815
  250SOL    HW1  773   1.407   1.423   2.895
  250SOL    HW2  774   1.451   1.329   2.769
  251SOL     OW  775   1.667   1.714   2.434
  251SOL    HW1  776   1.626   1.691   2.346
  251SOL    HW2  777   1.649   1.640   2.499
  252SOL     OW  778   0.598   0.729   2.132
  252SOL    HW1  779   0.622   0.798   2.064
  252SOL    HW2  780   0.520   0.762   2.186
  253SOL     OW  781   1.281   0.345   2.806
  253SOL    HW1  782   1.195   0.295   2.793
  253SOL    HW2  783   1.343   0.291   2.862
  254SOL     OW  784   1.576   1.662   2.169
  254SOL    HW1  785   1.665   1.708   2.172
  254SOL    HW2  786   1.555   1.638   2.074
  255SOL     OW  787   0.807   0.605   3.327
  255SOL    HW1  788   0.760   0.602   3.416
  255SOL    HW2  789   0.756   0.550   3.261
  256SOL     OW  790   1.394   0.469   3.536
  256SOL    HW1  791   1.374   0.512   3.624
  256SOL    HW2  792   1.472   0.407   3.545
  257SOL     OW  793   0.973   0.890   3.434
  257SOL    HW1  794   1.019   0.806   3.405
  257SOL    HW2  795   0.917   0.924   3.359
  258SOL     OW  796   0.991   0.410   3.104
  258SOL    HW1  797   0.914   0.444   3.158
  258SOL    HW2  798   0.957   0.359   3.025
  259SOL     OW  799   1.041   0.701   2.291
  259SOL    HW1  800   1.067   0.697   2.387
  259SOL    HW2  801   0.956   0.650   2.277
  260SOL     OW  802   0.076   0.811   2.651
  260SOL    HW1  803   0.175   0.799   2.660
  260SOL    HW2  804   0.052   0.906   2.672
  261SOL     OW  805   0.130   1.821   3.433
  261SOL    HW1  806   0.120   1.806   3.532
  261SOL    HW2  807   0.044   1.857   3.397
  262SOL     OW  808   0.865   0.348   2.057
  262SOL    HW1  809   0.924   0.411   2.008
  262SOL    HW2  810   0.884   0.254   2.028
  263SOL     OW  811   1.719   0.585   3.693
  263SOL    HW1  812   1.693   0.674   3.657
  263SOL    HW2  813   1.717   0.517   3.620
  264SOL     OW  814   1.362   1.144   2.407
  264SOL    HW1  815   1.445   1.115   2.359
  264SOL    HW2  816   1.313   1.211   2.351
  265SOL     OW  817   0.550   0.196   2.747
  265SOL    HW1  818   0.545   0.191   2.847
  265SOL    HW2  819   0.552   0.292   2.718
  266SOL     OW  820   1.008   1.456   2.339
  266SOL    HW1  821   0.962   1.528   2.287
  266SOL    HW2  822   1.004   1.476   2.437
  267SOL     OW  823   0.351   1.801   2.715
  267SOL    HW1  824   0.401   1.715   2.721
  267SOL    HW2  825   0.416   1.878   2.712
  268SOL     OW  826   1.795   1.066   2.735
  268SOL    HW1  827   1.733   1.051   2.659
  268SOL    HW2  828   1.743   1.077   2.820
  269SOL     OW  829   1.227   1.550   3.368
  269SOL    HW1  830   1.233   1.473   3.432
  269SOL    HW2  831   1.175   1.524   3.288
  270SOL     OW  832   0.321   0.943   2.104
  270SOL    HW1  833   0.403   0.982   2.062
  270SOL    HW2  834   0.294   0.861   2.055
  271SOL     OW  835   1.458   0.735   2.590
  271SOL    HW1  836   1.453   0.670   2.665
  271SOL    HW2  837   1.538   0.794   2.603
  272SOL     OW  838   0.461   1.266   3.589
  272SOL    HW1  839   0.411   1.267   3.503
  272SOL    HW2  840   0.398   1.248   3.665
  273SOL     OW  841   1.111   1.776   2.099
  273SOL    HW1  842   1.051   1.714   2.149
  273SOL    HW2  843   1.142   1.732   2.014
  274SOL     OW  844   0.202   0.285   3.360
  274SOL    HW1  845   0.122   0.345   3.347
  274SOL    HW2  846   0.192   0.236   3.446
  275SOL     OW  847   1.632   1.377   1.943
  275SOL    HW1  848   1.600   1.471   1.933
  275SOL    HW2  849   1.556   1.314   1.931
  276SOL     OW  850   0.464   1.743   2.185
  276SOL    HW1  851   0.497   1.782   2.271
  276SOL    HW2  852   0.540   1.736   2.120
  277SOL     OW  853   1.400   0.107   2.288
  277SOL    HW1  854   1.376   0.070   2.198
  277SOL    HW2  855   1.499   0.123   2.292
  278SOL     OW  856   0.249   1.785   3.103
  278SOL    HW1  857   0.306   1.720   3.153
  278SOL    HW2  858   0.233   1.752   3.010
  279SOL     OW  859   0.940   1.698   2.766
  279SOL    HW1  860   1.020   1.641   2.787
  279SOL    HW2  861   0.891   1.658   2.689
  280SOL     OW  862   0.382   0.700   2.342
  280SOL    HW1  863   0.427   0.610   2.339
  280SOL    HW2  864   0.288   0.689   2.375
  281SOL     OW  865   1.547   0.222   3.591
  281SOL    HW1  866   1.542   0.259   3.683
  281SOL    HW2  867   1.475   0.153   3.579
  282SOL     OW  868   0.614   0.122   1.979
  282SOL    HW1  869   0.712   0.100   1.986
  282SOL    HW2  870   0.583   0.105   1.886
  283SOL     OW  871   0.781   0.264   3.611
  283SOL    HW1  872   0.848   0.203   3.654
  283SOL    HW2  873   0.708   0.283   3.676
  284SOL     OW  874   0.888   1.514   3.057
  284SOL    HW1  875   0.865   1.489   2.963
  284SOL    HW2  876   0.949   1.445   3.096
  285SOL     OW  877   1.351   0.590   3.295
  285SOL    HW1  878   1.379   0.547   3.380
  285SOL    HW2  879   1.376   0.686   3.296
  286SOL     OW  880   0.803   1.402   2.786
  286SOL    HW1  881   0.893   1.416   2.744
  286SOL    HW2  882   0.732   1.404   2.715
  287SOL     OW  883   0.922   0.503   2.761
  287SOL    HW1  884   0.897   0.494   2.665
  287SOL    HW2  885   0.970   0.421   2.792
  288SOL     OW  886   0.539   0.064   2.374
  288SOL    HW1  887   0.458   0.065   2.432
  288SOL    HW2  888   0.542   0.147   2.319
  289SOL     OW  889   1.434   1.188   1.903
  289SOL    HW1  890   1.466   1.112   1.960
  289SOL    HW2  891   1.342   1.215   1.933
  290SOL     OW  892   0.297   0.035   2.033
  290SOL    HW1  893   0.346   0.119   2.012
  290SOL    HW2  894   0.359  -0.030   2.078
  291SOL     OW  895   0.935   0.236   2.342
  291SOL    HW1  896   0.887   0.277   2.264
  291SOL    HW2  897   1.034   0.234   2.323
  292SOL     OW  898   1.076   0.683   3.326
  292SOL    HW1  899   0.996   0.622   3.329
  292SOL    HW2  900   1.157   0.630   3.302
  293SOL     OW  901   1.227   1.570   2.655
  293SOL    HW1  902   1.248   1.644   2.590
  293SOL    HW2  903   1.295   1.570   2.728
  294SOL     OW  904   0.459   1.152   2.603
  294SOL    HW1  905   0.388   1.125   2.668
  294SOL    HW2  906   0.433   1.124   2.510
  295SOL     OW  907   1.271   1.797   2.453
  295SOL    HW1  908   1.315   1.861   2.389
  295SOL    HW2  909   1.221   1.849   2.523
  296SOL     OW  910   1.032   0.549   1.878
  296SOL    HW1  911   0.991   0.631   1.839
  296SOL    HW2  912   1.096   0.575   1.951
  297SOL     OW  913   0.078   0.556   3.248
  297SOL    HW1  914   0.170   0.555   3.207
  297SOL    HW2  915   0.072   0.630   3.315
  298SOL     OW  916   0.561   0.222   3.009
  298SOL    HW1  917   0.599   0.138   3.046
  298SOL    HW2  918   0.473   0.241   3.053
  299SOL     OW  919   0.866   0.454   2.504
  299SOL    HW1  920   0.834   0.526   2.442
  299SOL    HW2  921   0.890   0.373   2.451
  300SOL     OW  922   1.017   0.039   2.615
  300SOL    HW1  923   0.945   0.044   2.546
  300SOL    HW2  924   0.993  -0.030   2.684
  301SOL     OW  925   1.429   1.173   2.729
  301SOL    HW1  926   1.374   1.089   2.722
  301SOL    HW2  927   1.455   1.202   2.637
  302SOL     OW  928   1.466   0.590   2.854
  302SOL    HW1  929   1.436   0.495   2.861
  302SOL    HW2  930   1.539   0.606   2.920
  303SOL     OW  931   1.857   0.833   2.239
  303SOL    HW1  932   1.899   0.769   2.303
  303SOL    HW2  933   1.819   0.782   2.161
  304SOL     OW  934   0.488   1.385   2.036
  304SOL    HW1  935   0.401   1.370   2.083
  304SOL    HW2  936   0.471   1.411   1.941
  305SOL     OW  937   1.664   1.280   2.519
  305SOL    HW1  938   1.763   1.288   2.533
  305SOL    HW2  939   1.619   1.364   2.550
  306SOL     OW  940   1.390   0.575   1.940
  306SOL    HW1  941   1.336   0.554   2.021
  306SOL    HW2  942   1.481   0.534   1.949
  307SOL     OW  943   0.527   0.256   2.190
  307SOL    HW1  944   0.554   0.197   2.115
  307SOL    HW2  945   0.527   0.351   2.159
  308SOL     OW  946   1.754   1.223   3.450
  308SOL    HW1  947   1.845   1.184   3.437
  308SOL    HW2  948   1.762   1.319   3.474
  309SOL     OW  949   1.064   1.347   3.202
  309SOL    HW1  950   0.984   1.324   3.257
  309SOL    HW2  951   1.147   1.321   3.251
  310SOL     OW  952   1.592   1.629   3.487
  310SOL    HW1  953   1.619   1.663   3.397
  310SOL    HW2  954   1.671   1.591   3.533
  311SOL     OW  955   1.111   1.195   2.962
  311SOL    HW1  956   1.071   1.239   3.043
  311SOL    HW2  957   1.070   1.232   2.879
  312SOL     OW  958   1.638   1.099   2.941
  312SOL    HW1  959   1.643   1.180   3.000
  312SOL    HW2  960   1.552   1.101   2.890
  313SOL     OW  961   0.915   0.089   3.264
  313SOL    HW1  962   0.940   0.069   3.169
  313SOL    HW2  963   0.987   0.145   3.306
  314SOL     OW  964   0.980   1.116   3.581
  314SOL    HW1  965   0.881   1.122   3.591
  314SOL    HW2  966   1.003   1.036   3.525
  315SOL     OW  967   0.705   1.050   2.230
  315SOL    HW1  968   0.691   1.057   2.329
  315SOL    HW2  969   0.789   0.999   2.212
  316SOL     OW  970   0.410   0.813   3.113
  316SOL    HW1  971   0.496   0.825   3.163
  316SOL    HW2  972   0.368   0.726   3.140
  317SOL     OW  973   1.274   0.386   3.124
  317SOL    HW1  974   1.295   0.460   3.188
  317SOL    HW2  975   1.185   0.403   3.081
  318SOL     OW  976   0.064   1.564   3.193
  318SOL    HW1  977   0.018   1.646   3.159
  318SOL    HW2  978   0.162   1.583   3.202
  319SOL     OW  979   0.367   1.100   2.363
  319SOL    HW1  980   0.360   1.183   2.307
  319SOL    HW2  981   0.371   1.020   2.303
  320SOL     OW  982   0.566   0.537   2.727
  320SOL    HW1  983   0.578   0.603   2.653
  320SOL    HW2  984   0.612   0.571   2.810
  321SOL     OW  985   1.252   1.348   2.250
  321SOL    HW1  986   1.302   1.425   2.290
  321SOL    HW2  987   1.157   1.350   2.282
  322SOL     OW  988   1.272   1.445   3.004
  322SOL    HW1  989   1.319   1.458   3.091
  322SOL    HW2  990   1.206   1.371   3.013
  323SOL     OW  991   1.582   0.639   2.334
  323SOL    HW1  992   1.551   0.700   2.407
  323SOL    HW2  993   1.632   0.691   2.265
  324SOL     OW  994   0.354   1.510   3.191
  324SOL    HW1  995   0.333   1.466   3.104
  324SOL    HW2  996   0.451   1.536   3.194
  325SOL     OW  997   0.402   0.751   3.460
  325SOL    HW1  998   0.470   0.806   3.413
  325SOL    HW2  999   0.442   0.663   3.487
  326SOL     OW 1000   1.587   0.779   3.532
  326SOL    HW1 1001   1.495   0.817   3.527
  326SOL    HW2 1002   1.647   0.826   3.467
  327SOL     OW 1003   1.013   0.105   3.632
  327SOL    HW1 1004   1.019   0.190   3.580
  327SOL    HW2 1005   1.045   0.029   3.575
  328SOL     OW 1006   0.504   0.050   3.602
  328SOL    HW1 1007   0.462  -0.007   3.532
  328SOL    HW2 1008   0.438   0.119   3.634
  329SOL     OW 1009   0.573   0.870   2.891
  329SOL    HW1 1010   0.617   0.959   2.882
  329SOL    HW2 1011   0.510   0.870   2.968
  330SOL     OW 1012   1.360   0.862   2.907
  330SOL    HW1 1013   1.285   0.862   2.841
  330SOL    HW2 1014   1.397   0.770   2.916
  331SOL     OW 1015   1.209   0.525   2.137
  331SOL    HW1 1016   1.222   0.441   2.191
  331SOL    HW2 1017   1.180   0.599   2.197
  332SOL     OW 1018   0.307   0.213   3.093
  332SOL    HW1 1019   0.284   0.250   3.183
  332SOL    HW2 1020   0.277   0.118   3.087
  333SOL     OW 1021   0.037   1.310   3.144
  333SOL    HW1 1022   0.090   1.261   3.212
  333SOL    HW2 1023   0.059   1.408   3.149
  334SOL     OW 1024   0.732   0.634   2.926
  334SOL    HW1 1025   0.791   0.608   2.850
  334SOL    HW2 1026   0.704   0.730   2.915
  335SOL     OW 1027   1.728   0.935   3.716
  335SOL    HW1 1028   1.682   0.928   3.627
  335SOL    HW2 1029   1.666   0.979   3.782
  336SOL     OW 1030   0.307   0.063   2.480
  336SOL    HW1 1031   0.296   0.157   2.513
  336SOL    HW2 1032   0.302   0.000   2.557
  337SOL     OW 1033   1.622   0.367   2.236
  337SOL    HW1 1034   1.624   0.291   2.300
  337SOL    HW2 1035   1.574   0.444   2.276
  338SOL     OW 1036   1.023   0.766   2.828
  338SOL    HW1 1037   1.038   0.787   2.924
  338SOL    HW2 1038   0.993   0.671   2.819
  339SOL     OW 1039   0.980   1.573   3.562
  339SOL    HW1 1040   0.960   1.617   3.474
  339SOL    HW2 1041   1.019   1.482   3.546
  340SOL     OW 1042   1.859   1.518   3.467
  340SOL    HW1 1043   1.873   1.545   3.372
  340SOL    HW2 1044   1.942   1.540   3.520
  341SOL     OW 1045   0.350   0.898   3.666
  341SOL    HW1 1046   0.426   0.942   3.714
  341SOL    HW2 1047   0.385   0.851   3.584
  342SOL     OW 1048   1.540   0.274   1.987
  342SOL    HW1 1049   1.479   0.199   2.010
  342SOL    HW2 1050   1.562   0.326   2.070
  343SOL     OW 1051   1.303   0.838   1.904
  343SOL    HW1 1052   1.337   0.745   1.919
  343SOL    HW2 1053   1.321   0.865   1.809
  344SOL     OW 1054   1.068   1.333   2.711
  344SOL    HW1 1055   1.075   1.249   2.656
  344SOL    HW2 1056   1.130   1.402   2.675
  345SOL     OW 1057   0.319   0.810   2.811
  345SOL    HW1 1058   0.412   0.846   2.816
  345SOL    HW2 1059   0.313   0.725   2.863
  346SOL     OW 1060   0.339   0.509   2.868
  346SOL    HW1 1061   0.287   0.426   2.851
  346SOL    HW2 1062   0.416   0.514   2.804
  347SOL     OW 1063   1.138   0.380   3.540
  347SOL    HW1 1064   1.093   0.443   3.604
  347SOL    HW2 1065   1.231   0.411   3.523
  348SOL     OW 1066   1.160   0.207   3.339
  348SOL    HW1 1067   1.160   0.271   3.416
  348SOL    HW2 1068   1.188   0.255   3.256
  349SOL     OW 1069   0.008   1.326   2.062
  349SOL    HW1 1070  -0.085   1.347   2.031
  349SOL    HW2 1071   0.018   1.227   2.075
  350SOL     OW 1072   0.088   1.801   2.789
  350SOL    HW1 1073   0.046   1.715   2.762
  350SOL    HW2 1074   0.182   1.804   2.755
  351SOL     OW 1075   0.504   1.568   2.772
  351SOL    HW1 1076   0.570   1.642   2.781
  351SOL    HW2 1077   0.548   1.489   2.730
  352SOL     OW 1078   1.002   0.796   3.100
  352SOL    HW1 1079   1.043   0.764   3.186
  352SOL    HW2 1080   0.906   0.769   3.097
  353SOL     OW 1081   0.040   0.544   2.976
  353SOL    HW1 1082   0.125   0.511   2.935
  353SOL    HW2 1083   0.053   0.559   3.074
  354SOL     OW 1084   0.189   0.520   3.584
  354SOL    HW1 1085   0.248   0.480   3.514
  354SOL    HW2 1086   0.131   0.591   3.543
  355SOL     OW 1087   1.369   0.950   3.522
  355SOL    HW1 1088   1.408   1.039   3.542
  355SOL    HW2 1089   1.379   0.930   3.425
  356SOL     OW 1090   0.815   0.572   2.187
  356SOL    HW1 1091   0.822   0.483   2.141
  356SOL    HW2 1092   0.721   0.606   2.179
  357SOL     OW 1093   1.657   0.604   3.068
  357SOL    HW1 1094   1.619   0.535   3.130
  357SOL    HW2 1095   1.739   0.568   3.024
  358SOL     OW 1096   0.252   1.564   3.606
  358SOL    HW1 1097   0.222   1.621   3.682
  358SOL    HW2 1098   0.245   1.467   3.632
  359SOL     OW 1099   0.671   0.464   3.131
  359SOL    HW1 1100   0.637   0.375   3.101
  359SOL    HW2 1101   0.697   0.518   3.051
  360SOL     OW 1102   0.930   1.678   3.327
  360SOL    HW1 1103   0.906   1.660   3.232
  360SOL    HW2 1104   0.960   1.772   3.337
  361SOL     OW 1105   0.473   0.500   2.053
  361SOL    HW1 1106   0.534   0.580   2.057
  361SOL    HW2 1107   0.378   0.531   2.060
  362SOL     OW 1108   0.159   1.137   3.328
  362SOL    HW1 1109   0.181   1.076   3.404
  362SOL    HW2 1110   0.169   1.088   3.242
  363SOL     OW 1111   1.347   1.059   3.096
  363SOL    HW1 1112   1.371   0.996   3.022
  363SOL    HW2 1113   1.257   1.099   3.078
  364SOL     OW 1114   1.302   0.855   2.171
  364SOL    HW1 1115   1.216   0.824   2.213
  364SOL    HW2 1116   1.298   0.841   2.072
  365SOL     OW 1117   1.759   1.747   3.016
  365SOL    HW1 1118   1.820   1.777   2.943
  365SOL    HW2 1119   1.721   1.658   2.994
  366SOL     OW 1120   1.252   1.731   2.990
  366SOL    HW1 1121   1.336   1.736   2.936
  366SOL    HW2 1122   1.229   1.635   3.008
  367SOL     OW 1123   0.083   1.258   2.884
  367SOL    HW1 1124   0.078   1.257   2.984
  367SOL    HW2 1125   0.000   1.217   2.846
  368SOL     OW 1126   0.688   1.662   3.578
  368SOL    HW1 1127   0.632   1.743   3.587
  368SOL    HW2 1128   0.740   1.666   3.492
  369SOL     OW 1129   1.726   0.135   2.385
  369SOL    HW1 1130   1.799   0.118   2.318
  369SOL    HW2 1131   1.695   0.048   2.423
  370SOL     OW 1132   1.388   1.573   2.339
  370SOL    HW1 1133   1.455   1.585   2.265
  370SOL    HW2 1134   1.348   1.662   2.362
  371SOL     OW 1135   0.130   1.794   3.713
  371SOL    HW1 1136   0.089   1.720   3.766
  371SOL    HW2 1137   0.194   1.845   3.771
  372SOL     OW 1138   1.280   0.927   2.534
  372SOL    HW1 1139   1.340   0.846   2.536
  372SOL    HW2 1140   1.320   0.996   2.474
  373SOL     OW 1141   0.830   1.273   3.284
  373SOL    HW1 1142   0.825   1.306   3.379
  373SOL    HW2 1143   0.744   1.292   3.238
  374SOL     OW 1144   0.672   1.616   2.016
  374SOL    HW1 1145   0.681   1.626   1.917
  374SOL    HW2 1146   0.632   1.527   2.037
  375SOL     OW 1147   1.650   1.720   3.256
  375SOL    HW1 1148   1.703   1.730   3.172
  375SOL    HW2 1149   1.623   1.810   3.290
  376SOL     OW 1150   1.841   0.175   2.825
  376SOL    HW1 1151   1.880   0.090   2.789
  376SOL    HW2 1152   1.743   0.177   2.806
  377SOL     OW 1153   0.263   0.326   2.582
  377SOL    HW1 1154   0.184   0.377   2.548
  377SOL    HW2 1155   0.254   0.311   2.680
  378SOL     OW 1156   1.194   1.612   1.893
  378SOL    HW1 1157   1.200   1.519   1.930
  378SOL    HW2 1158   1.135   1.612   1.813
  379SOL     OW 1159   0.822   1.002   3.234
  379SOL    HW1 1160   0.862   1.001   3.142
  379SOL    HW2 1161   0.832   1.094   3.274
  380SOL     OW 1162   0.916   0.910   2.153
  380SOL    HW1 1163   0.979   0.948   2.085
  380SOL    HW2 1164   0.956   0.827   2.192
  381SOL     OW 1165   1.504   1.607   1.906
  381SOL    HW1 1166   1.412   1.644   1.913
  381SOL    HW2 1167   1.542   1.627   1.816
  382SOL     OW 1168   0.372   1.288   3.352
  382SOL    HW1 1169   0.359   1.381   3.318
  382SOL    HW2 1170   0.288   1.236   3.339
  383SOL     OW 1171   1.614   1.292   3.151
  383SOL    HW1 1172   1.674   1.295   3.231
  383SOL    HW2 1173   1.539   1.356   3.164
  384SOL     OW 1174   1.039   1.098   2.558
  384SOL    HW1 1175   0.969   1.051   2.612
  384SOL    HW2 1176   1.098   1.030   2.515
  385SOL     OW 1177   1.014   0.236   2.833
  385SOL    HW1 1178   1.006   0.200   2.740
  385SOL    HW2 1179   1.012   0.160   2.898
  386SOL     OW 1180   0.590   1.487   2.353
  386SOL    HW1 1181   0.632   1.429   2.283
  386SOL    HW2 1182   0.546   1.566   2.309
  387SOL     OW 1183   1.709   0.385   3.243
  387SOL    HW1 1184   1.782   0.454   3.247
  387SOL    HW2 1185   1.737   0.310   3.184
  388SOL     OW 1186   0.255   1.348   2.152
  388SOL    HW1 1187   0.159   1.349   2.125
  388SOL    HW2 1188   0.267   1.401   2.236
  389SOL     OW 1189   0.105   1.013   3.588
  389SOL    HW1 1190   0.028   0.980   3.642
  389SOL    HW2 1191   0.190   0.983   3.630
  390SOL     OW 1192   0.672   0.203   3.351
  390SOL    HW1 1193   0.762   0.187   3.311
  390SOL    HW2 1194   0.680   0.208   3.450
  391SOL     OW 1195   0.075   0.345   1.895
  391SOL    HW1 1196  -0.017   0.317   1.866
  391SOL    HW2 1197   0.106   0.422   1.839
  392SOL     OW 1198   1.440   0.856   3.260
  392SOL    HW1 1199   1.383   0.908   3.197
  392SOL    HW2 1200   1.536   0.868   3.236
  393SOL     OW 1201   0.072   0.166   2.180
  393SOL    HW1 1202   0.055   0.249   2.126
  393SOL    HW2 1203   0.162   0.129   2.158
  394SOL     OW 1204   1.183   1.335   1.981
  394SOL    HW1 1205   1.084   1.324   1.983
  394SOL    HW2 1206   1.217   1.350   2.074
  395SOL     OW 1207   0.613   0.842   3.293
  395SOL    HW1 1208   0.669   0.923   3.276
  395SOL    HW2 1209   0.672   0.762   3.296
  396SOL     OW 1210   1.493   1.767   2.821
  396SOL    HW1 1211   1.526   1.831   2.752
  396SOL    HW2 1212   1.559   1.761   2.896
  397SOL     OW 1213   0.716   0.565   3.570
  397SOL    HW1 1214   0.735   0.630   3.644
  397SOL    HW2 1215   0.776   0.485   3.579
  398SOL     OW 1216   1.450   1.220   3.495
  398SOL    HW1 1217   1.441   1.210   3.594
  398SOL    HW2 1218   1.546   1.213   3.469
  399SOL     OW 1219   0.390   1.741   3.422
  399SOL    HW1 1220   0.299   1.782   3.420
  399SOL    HW2 1221   0.383   1.647   3.454
  400SOL     OW 1222   1.674   0.883   3.116
  400SOL    HW1 1223   1.647   0.794   3.079
  400SOL    HW2 1224   1.675   0.951   3.043
  401SOL     OW 1225   1.225   0.325   2.311
  401SOL    HW1 1226   1.290   0.251   2.300
  401SOL    HW2 1227   1.245   0.375   2.395
  402SOL     OW 1228   0.594   0.745   2.514
  402SOL    HW1 1229   0.644   0.830   2.495
  402SOL    HW2 1230   0.506   0.747   2.466
  403SOL     OW 1231   1.777   0.342   3.504
  403SOL    HW1 1232   1.760   0.373   3.410
  403SOL    HW2 1233   1.693   0.305   3.542
  404SOL     OW 1234   1.730   0.934   3.379
  404SOL    HW1 1235   1.768   1.025   3.394
  404SOL    HW2 1236   1.722   0.917   3.280
  405SOL     OW 1237   0.859   1.374   1.878
  405SOL    HW1 1238   0.813   1.389   1.966
  405SOL    HW2 1239   0.903   1.459   1.848
  406SOL     OW 1240   0.661   1.790   2.815
  406SOL    HW1 1241   0.615   1.878   2.802
  406SOL    HW2 1242   0.760   1.802   2.808
  407SOL     OW 1243   0.859   0.956   2.723
  407SOL    HW1 1244   0.913   0.887   2.771
  407SOL    HW2 1245   0.827   1.025   2.789
  408SOL     OW 1246   1.083   0.984   1.949
  408SOL    HW1 1247   1.060   1.037   1.867
  408SOL    HW2 1248   1.164   0.928   1.930
  409SOL     OW 1249   1.861   1.569   2.713
  409SOL    HW1 1250   1.790   1.557   2.643
  409SOL    HW2 1251   1.862   1.490   2.773
  410SOL     OW 1252   0.221   1.314   3.706
  410SOL    HW1 1253   0.156   1.241   3.685
  410SOL    HW2 1254   0.225   1.328   3.804
  411SOL     OW 1255   0.079   1.240   2.515
  411SOL    HW1 1256   0.078   1.193   2.603
  411SOL    HW2 1257   0.161   1.212   2.464
  412SOL     OW 1258   0.672   1.391   3.486
  412SOL    HW1 1259   0.594   1.341   3.524
  412SOL    HW2 1260   0.669   1.486   3.517
  413SOL     OW 1261   1.824   0.192   3.089
  413SOL    HW1 1262   1.820   0.102   3.133
  413SOL    HW2 1263   1.827   0.181   2.990
  414SOL     OW 1264   0.428   0.424   2.382
  414SOL    HW1 1265   0.458   0.352   2.320
  414SOL    HW2 1266   0.389   0.384   2.465
  415SOL     OW 1267   1.705   1.487   2.966
  415SOL    HW1 1268   1.612   1.462   2.939
  415SOL    HW2 1269   1.731   1.437   3.048
  416SOL     OW 1270   0.317   0.547   3.142
  416SOL    HW1 1271   0.355   0.488   3.214
  416SOL    HW2 1272   0.357   0.521   3.054
  417SOL     OW 1273   0.812   1.586   2.549
  417SOL    HW1 1274   0.844   1.596   2.455
  417SOL    HW2 1275   0.733   1.524   2.551
  418SOL     OW 1276   1.424   0.214   2.974
  418SOL    HW1 1277   1.476   0.149   3.029
  418SOL    HW2 1278   1.375   0.277   3.035
  419SOL     OW 1279   1.001   0.034   3.016
  419SOL    HW1 1280   0.938  -0.038   2.985
  419SOL    HW2 1281   1.094  -0.002   3.016
  420SOL     OW 1282   0.770   1.330   2.163
  420SOL    HW1 1283   0.724   1.243   2.180
  420SOL    HW2 1284   0.861   1.327   2.204
  421SOL     OW 1285   0.618   1.567   3.146
  421SOL    HW1 1286   0.613   1.649   3.203
  421SOL    HW2 1287   0.707   1.564   3.101
  422SOL     OW 1288   1.352   0.052   2.030
  422SOL    HW1 1289   1.387   0.011   1.946
  422SOL    HW2 1290   1.262   0.014   2.050
  423SOL     OW 1291   1.300   0.453   2.553
  423SOL    HW1 1292   1.241   0.533   2.557
  423SOL    HW2 1293   1.315   0.418   2.646
  424SOL     OW 1294   1.593   0.221   2.744
  424SOL    HW1 1295   1.509   0.220   2.798
  424SOL    HW2 1296   1.595   0.304   2.688
  425SOL     OW 1297   0.039   1.077   2.162
  425SOL    HW1 1298   0.138   1.066   2.153
  425SOL    HW2 1299  -0.001   0.991   2.194
  426SOL     OW 1300   0.875   1.646   2.199
  426SOL    HW1 1301   0.798   1.611   2.145
  426SOL    HW2 1302   0.843   1.717   2.261
  427SOL     OW 1303   0.230   0.628   3.837
  427SOL    HW1 1304   0.137   0.626   3.874
  427SOL    HW2 1305   0.231   0.589   3.745
  428SOL     OW 1306   0.225   0.275   4.720
  428SOL    HW1 1307   0.260   0.258   4.812
  428SOL    HW2 1308   0.137   0.230   4.708
  429SOL     OW 1309   0.019   0.368   4.371
  429SOL    HW1 1310  -0.063   0.411   4.410
  429SOL    HW2 1311  -0.009   0.295   4.308
  430SOL     OW 1312   1.555   1.511   4.427
  430SOL    HW1 1313   1.498   1.495   4.508
  430SOL    HW2 1314   1.496   1.521   4.347
  431SOL     OW 1315   1.135   0.703   4.441
  431SOL    HW1 1316   1.192   0.781   4.416
  431SOL    HW2 1317   1.075   0.729   4.517
  432SOL     OW 1318   1.755   0.607   3.955
  432SOL    HW1 1319   1.743   0.594   3.856
  432SOL    HW2 1320   1.725   0.526   4.004
  433SOL     OW 1321   0.768   1.144   4.747
  433SOL    HW1 1322   0.690   1.161   4.807
  433SOL    HW2 1323   0.802   1.231   4.711
  434SOL     OW 1324   0.685   1.012   4.389
  434SOL    HW1 1325   0.754   0.996   4.459
  434SOL    HW2 1326   0.612   1.069   4.427
  435SOL     OW 1327   0.335   1.435   4.785
  435SOL    HW1 1328   0.257   1.404   4.732
  435SOL    HW2 1329   0.393   1.493   4.728
  436SOL     OW 1330   1.603   0.447   4.461
  436SOL    HW1 1331   1.529   0.493   4.411
  436SOL    HW2 1332   1.654   0.515   4.514
  437SOL     OW 1333   0.231   1.713   4.207
  437SOL    HW1 1334   0.265   1.790   4.261
  437SOL    HW2 1335   0.275   1.713   4.117
  438SOL     OW 1336   0.230   1.434   4.262
  438SOL    HW1 1337   0.204   1.530   4.262
  438SOL    HW2 1338   0.159   1.380   4.307
  439SOL     OW 1339   0.240   1.091   4.610
  439SOL    HW1 1340   0.254   1.007   4.662
  439SOL    HW2 1341   0.185   1.155   4.665
  440SOL     OW 1342   0.606   0.964   3.847
  440SOL    HW1 1343   0.613   1.048   3.793
  440SOL    HW2 1344   0.652   0.977   3.935
  441SOL     OW 1345   0.122   0.643   4.287
  441SOL    HW1 1346   0.077   0.555   4.304
  441SOL    HW2 1347   0.121   0.697   4.371
  442SOL     OW 1348   1.842   1.767   4.083
  442SOL    HW1 1349   1.896   1.738   4.163
  442SOL    HW2 1350   1.872   1.857   4.054
  443SOL     OW 1351   0.027   1.596   3.841
  443SOL    HW1 1352   0.008   1.500   3.862
  443SOL    HW2 1353  -0.006   1.654   3.916
  444SOL     OW 1354   1.689   0.922   4.336
  444SOL    HW1 1355   1.784   0.893   4.344
  444SOL    HW2 1356   1.681   0.987   4.261
  445SOL     OW 1357   1.641   1.108   4.156
  445SOL    HW1 1358   1.727   1.110   4.104
  445SOL    HW2 1359   1.655   1.155   4.244
  446SOL     OW 1360   0.613   1.365   4.450
  446SOL    HW1 1361   0.564   1.278   4.459
  446SOL    HW2 1362   0.590   1.408   4.363
  447SOL     OW 1363   0.809   0.004   4.226
  447SOL    HW1 1364   0.849   0.095   4.217
  447SOL    HW2 1365   0.709   0.012   4.232
  448SOL     OW 1366   1.525   0.999   3.914
  448SOL    HW1 1367   1.462   0.923   3.927
  448SOL    HW2 1368   1.573   1.017   4.000
  449SOL     OW 1369   1.466   1.417   4.677
  449SOL    HW1 1370   1.407   1.423   4.757
  449SOL    HW2 1371   1.451   1.329   4.631
  450SOL     OW 1372   1.667   1.714   4.296
  450SOL    HW1 1373   1.626   1.691   4.208
  450SOL    HW2 1374   1.649   1.640   4.361
  451SOL     OW 1375   0.598   0.729   3.994
  451SOL    HW1 1376   0.622   0.798   3.926
  451SOL    HW2 1377   0.520   0.762   4.048
  452SOL     OW 1378   1.281   0.345   4.668
  452SOL    HW1 1379   1.195   0.295   4.655
  452SOL    HW2 1380   1.343   0.291   4.724
  453SOL     OW 1381   1.576   1.662   4.031
  453SOL    HW1 1382   1.665   1.708   4.034
  453SOL    HW2 1383   1.555   1.638   3.936
  454SOL     OW 1384   1.041   0.701   4.153
  454SOL    HW1 1385   1.067   0.697   4.249
  454SOL    HW2 1386   0.956   0.650   4.139
  455SOL     OW 1387   0.076   0.811   4.513
  455SOL    HW1 1388   0.175   0.799   4.522
  455SOL    HW2 1389   0.052   0.906   4.534
  456SOL     OW 1390   0.865   0.348   3.919
  456SOL    HW1 1391   0.924   0.411   3.870
  456SOL    HW2 1392   0.884   0.254   3.890
  457SOL     OW 1393   1.362   1.144   4.269
  457SOL    HW1 1394   1.445   1.115   4.221
  457SOL    HW2 1395   1.313   1.211   4.213
  458SOL     OW 1396   0.550   0.196   4.609
  458SOL    HW1 1397   0.545   0.191   4.709
  458SOL    HW2 1398   0.552   0.292   4.580
  459SOL     OW 1399   1.008   1.456   4.201
  459SOL    HW1 1400   0.962   1.528   4.149
  459SOL    HW2 1401   1.004   1.476   4.299
  460SOL     OW 1402   0.351   1.801   4.577
  460SOL    HW1 1403   0.401   1.715   4.583
  460SOL    HW2 1404   0.416   1.878   4.574
  461SOL     OW 1405   1.795   1.066   4.597
  461SOL    HW1 1406   1.733   1.051   4.521
  461SOL    HW2 1407   1.743   1.077   4.682
  462SOL     OW 1408   0.321   0.943   3.966
  462SOL    HW1 1409   0.403   0.982   3.924
  462SOL    HW2 1410   0.294   0.861   3.917
  463SOL     OW 1411   1.458   0.735   4.452
  463SOL    HW1 1412   1.453   0.670   4.527
  463SOL    HW2 1413   1.538   0.794   4.465
  464SOL     OW 1414   1.111   1.776   3.961
  464SOL    HW1 1415   1.051   1.714   4.011
  464SOL    HW2 1416   1.142   1.732   3.876
  465SOL     OW 1417   1.632   1.377   3.805
  465SOL    HW1 1418   1.600   1.471   3.795
  465SOL    HW2 1419   1.556   1.314   3.793
  466SOL     OW 1420   0.464   1.743   4.047
  466SOL    HW1 1421   0.497   1.782   4.133
  466SOL    HW2 1422   0.540   1.736   3.982
  467SOL     OW 1423   1.400   0.107   4.150
  467SOL    HW1 1424   1.376   0.070   4.060
  467SOL    HW2 1425   1.499   0.123   4.154
  468SOL     OW 1426   0.249   1.785   4.965
  468SOL    HW1 1427   0.306   1.720   5.015
  468SOL    HW2 1428   0.233   1.752   4.872
  469SOL     OW 1429   0.940   1.698   4.628
  469SOL    HW1 1430   1.020   1.641   4.649
  469SOL    HW2 1431   0.891   1.658   4.551
  470SOL     OW 1432   0.382   0.700   4.204
  470SOL    HW1 1433   0.427   0.610   4.201
  470SOL    HW2 1434   0.288   0.689   4.237
  471SOL     OW 1435   0.614   0.122   3.841
  471SOL    HW1 1436   0.712   0.100   3.848
  471SOL    HW2 1437   0.583   0.105   3.748
  472SOL     OW 1438   0.803   1.402   4.648
  472SOL    HW1 1439   0.893   1.416   4.606
  472SOL    HW2 1440   0.732   1.404   4.577
  473SOL     OW 1441   0.922   0.503   4.623
  473SOL    HW1 1442   0.897   0.494   4.527
  473SOL    HW2 1443   0.970   0.421   4.654
  474SOL     OW 1444   0.539   0.064   4.236
  474SOL    HW1 1445   0.458   0.065   4.294
  474SOL    HW2 1446   0.542   0.147   4.181
  475SOL     OW 1447   1.434   1.188   3.765
  475SOL    HW1 1448   1.466   1.112   3.822
  475SOL    HW2 1449   1.342   1.215   3.795
  476SOL     OW 1450   0.297   0.035   3.895
  476SOL    HW1 1451   0.346   0.119   3.874
  476SOL    HW2 1452   0.359  -0.030   3.940
  477SOL     OW 1453   0.935   0.236   4.204
  477SOL    HW1 1454   0.887   0.277   4.126
  477SOL    HW2 1455   1.034   0.234   4.185
  478SOL     OW 1456   1.227   1.570   4.517
  478SOL    HW1 1457   1.248   1.644   4.452
  478SOL    HW2 1458   1.295   1.570   4.590
  479SOL     OW 1459   0.459   1.152   4.465
  479SOL    HW1 1460   0.388   1.125   4.530
  479SOL    HW2 1461   0.433   1.124   4.372
  480SOL     OW 1462   1.271   1.797   4.315
  480SOL    HW1 1463   1.315   1.861   4.251
  480SOL    HW2 1464   1.221   1.849   4.385
  481SOL     OW 1465   1.032   0.549   3.740
  481SOL    HW1 1466   0.991   0.631   3.701
  481SOL    HW2 1467   1.096   0.575   3.813
  482SOL     OW 1468   0.866   0.454   4.366
  482SOL    HW1 1469   0.834   0.526   4.304
  482SOL    HW2 1470   0.890   0.373   4.313
  483SOL     OW 1471   1.017   0.039   4.477
  483SOL    HW1 1472   0.945   0.044   4.408
  483SOL    HW2 1473   0.993  -0.030   4.546
  484SOL     OW 1474   1.429   1.173   4.591
  484SOL    HW1 1475   1.374   1.089   4.584
  484SOL    HW2 1476   1.455   1.202   4.499
  485SOL     OW 1477   1.466   0.590   4.716
  485SOL    HW1 1478   1.436   0.495   4.723
  485SOL    HW2 1479   1.539   0.606   4.782
  486SOL     OW 1480   1.857   0.833   4.101
  486SOL    HW1 1481   1.899   0.769   4.165
  486SOL    HW2 1482   1.819   0.782   4.023
  487SOL     OW 1483   0.488   1.385   3.898
  487SOL    HW1 1484   0.401   1.370   3.945
  487SOL    HW2 1485   0.471   1.411   3.803
  488SOL     OW 1486   1.664   1.280   4.381
  488SOL    HW1 1487   1.763   1.288   4.395
  488SOL    HW2 1488   1.619   1.364   4.412
  489SOL     OW 1489   1.390   0.575   3.802
  489SOL    HW1 1490   1.336   0.554   3.883
  489SOL    HW2 1491   1.481   0.534   3.811
  490SOL     OW 1492   0.527   0.256   4.052
  490SOL    HW1 1493   0.554   0.197   3.977
  490SOL    HW2 1494   0.527   0.351   4.021
  491SOL     OW 1495   1.638   1.099   4.803
  491SOL    HW1 1496   1.643   1.180   4.862
  491SOL    HW2 1497   1.552   1.101   4.752
  492SOL     OW 1498   0.705   1.050   4.092
  492SOL    HW1 1499   0.691   1.057   4.191
  492SOL    HW2 1500   0.789   0.999   4.074
  493SOL     OW 1501   0.367   1.100   4.225
  493SOL    HW1 1502   0.360   1.183   4.169
  493SOL    HW2 1503   0.371   1.020   4.165
  494SOL     OW 1504   0.566   0.537   4.589
  494SOL    HW1 1505   0.578   0.603   4.515
  494SOL    HW2 1506   0.612   0.571   4.672
  495SOL     OW 1507   1.252   1.348   4.112
  495SOL    HW1 1508   1.302   1.425   4.152
  495SOL    HW2 1509   1.157   1.350   4.144
  496SOL     OW 1510   1.582   0.639   4.196
  496SOL    HW1 1511   1.551   0.700   4.269
  496SOL    HW2 1512   1.632   0.691   4.127
  497SOL     OW 1513   0.573   0.870   4.753
  497SOL    HW1 1514   0.617   0.959   4.744
  497SOL    HW2 1515   0.510   0.870   4.830
  498SOL     OW 1516   1.209   0.525   3.999
  498SOL    HW1 1517   1.222   0.441   4.053
  498SOL    HW2 1518   1.180   0.599   4.059
  499SOL     OW 1519   0.732   0.634   4.788
  499SOL    HW1 1520   0.791   0.608   4.712
  499SOL    HW2 1521   0.704   0.730   4.777
  500SOL     OW 1522   0.307   0.063   4.342
  500SOL    HW1 1523   0.296   0.157   4.375
  500SOL    HW2 1524   0.302   0.000   4.419
  501SOL     OW 1525   1.622   0.367   4.098
  501SOL    HW1 1526   1.624   0.291   4.162
  501SOL    HW2 1527   1.574   0.444   4.138
  502SOL     OW 1528   1.540   0.274   3.849
  502SOL    HW1 1529   1.479   0.199   3.872
  502SOL    HW2 1530   1.562   0.326   3.932
  503SOL     OW 1531   1.303   0.838   3.766
  503SOL    HW1 1532   1.337   0.745   3.781
  503SOL    HW2 1533   1.321   0.865   3.671
  504SOL     OW 1534   1.068   1.333   4.573
  504SOL    HW1 1535   1.075   1.249   4.518
  504SOL    HW2 1536   1.130   1.402   4.537
  505SOL     OW 1537   0.319   0.810   4.673
  505SOL    HW1 1538   0.412   0.846   4.678
  505SOL    HW2 1539   0.313   0.725   4.725
  506SOL     OW 1540   0.339   0.509   4.730
  506SOL    HW1 1541   0.287   0.426   4.713
  506SOL    HW2 1542   0.416   0.514   4.666
  507SOL     OW 1543   0.008   1.326   3.924
  507SOL    HW1 1544  -0.085   1.347   3.893
  507SOL    HW2 1545   0.018   1.227   3.937
  508SOL     OW 1546   0.088   1.801   4.651
  508SOL    HW1 1547   0.046   1.715   4.624
  508SOL    HW2 1548   0.182   1.804   4.617
  509SOL     OW 1549   0.504   1.568   4.634
  509SOL    HW1 1550   0.570   1.642   4.643
  509SOL    HW2 1551   0.548   1.489   4.592
  510SOL     OW 1552   1.002   0.796   4.962
  510SOL    HW1 1553   1.043   0.764   5.048
  510SOL    HW2 1554   0.906   0.769   4.959
  511SOL     OW 1555   0.815   0.572   4.049
  511SOL    HW1 1556   0.822   0.483   4.003
  511SOL    HW2 1557   0.721   0.606   4.041
  512SOL     OW 1558   0.671   0.464   4.993
  512SOL    HW1 1559   0.637   0.375   4.963
  512SOL    HW2 1560   0.697   0.518   4.913
  513SOL     OW 1561   0.473   0.500   3.915
  513SOL    HW1 1562   0.534   0.580   3.919
  513SOL    HW2 1563   0.378   0.531   3.922
  514SOL     OW 1564   1.302   0.855   4.033
  514SOL    HW1 1565   1.216   0.824   4.075
  514SOL    HW2 1566   1.298   0.841   3.934
  515SOL     OW 1567   1.759   1.747   4.878
  515SOL    HW1 1568   1.820   1.777   4.805
  515SOL    HW2 1569   1.721   1.658   4.856
  516SOL     OW 1570   0.083   1.258   4.746
  516SOL    HW1 1571   0.078   1.257   4.846
  516SOL    HW2 1572   0.000   1.217   4.708
  517SOL     OW 1573   1.726   0.135   4.247
  517SOL    HW1 1574   1.799   0.118   4.180
  517SOL    HW2 1575   1.695   0.048   4.285
  518SOL     OW 1576   1.388   1.573   4.201
  518SOL    HW1 1577   1.455   1.585   4.127
  518SOL    HW2 1578   1.348   1.662   4.224
  519SOL     OW 1579   1.280   0.927   4.396
  519SOL    HW1 1580   1.340   0.846   4.398
  519SOL    HW2 1581   1.320   0.996   4.336
  520SOL     OW 1582   0.672   1.616   3.878
  520SOL    HW1 1583   0.681   1.626   3.779
  520SOL    HW2 1584   0.632   1.527   3.899
  521SOL     OW 1585   1.841   0.175   4.687
  521SOL    HW1 1586   1.880   0.090   4.651
  521SOL    HW2 1587   1.743   0.177   4.668
  522SOL     OW 1588   0.263   0.326   4.444
  522SOL    HW1 1589   0.184   0.377   4.410
  522SOL    HW2 1590   0.254   0.311   4.542
  523SOL     OW 1591   1.194   1.612   3.755
  523SOL    HW1 1592   1.200   1.519   3.792
  523SOL    HW2 1593   1.135   1.612   3.675
  524SOL     OW 1594   0.916   0.910   4.015
  524SOL    HW1 1595   0.979   0.948   3.947
  524SOL    HW2 1596   0.956   0.827   4.054
  525SOL     OW 1597   1.504   1.607   3.768
  525SOL    HW1 1598   1.412   1.644   3.775
  525SOL    HW2 1599   1.542   1.627   3.678
  526SOL     OW 1600   1.039   1.098   4.420
  526SOL    HW1 1601   0.969   1.051   4.474
  526SOL    HW2 1602   1.098   1.030   4.377
  527SOL     OW 1603   1.014   0.236   4.695
  527SOL    HW1 1604   1.006   0.200   4.602
  527SOL    HW2 1605   1.012   0.160   4.760
  528SOL     OW 1606   0.590   1.487   4.215
  528SOL    HW1 1607   0.632   1.429   4.145
  528SOL    HW2 1608   0.546   1.566   4.171
  529SOL     OW 1609   0.255   1.348   4.014
  529SOL    HW1 1610   0.159   1.349   3.987
  529SOL    HW2 1611   0.267   1.401   4.098
  530SOL     OW 1612   0.075   0.345   3.757
  530SOL    HW1 1613  -0.017   0.317   3.728
  530SOL    HW2 1614   0.106   0.422   3.701
  531SOL     OW 1615   0.072   0.166   4.042
  531SOL    HW1 1616   0.055   0.249   3.988
  531SOL    HW2 1617   0.162   0.129   4.020
  532SOL     OW 1618   1.183   1.335   3.843
  532SOL    HW1 1619   1.084   1.324   3.845
  532SOL    HW2 1620   1.217   1.350   3.936
  533SOL     OW 1621   1.674   0.883   4.978
  533SOL    HW1 1622   1.647   0.794   4.941
  533SOL    HW2 1623   1.675   0.951   4.905
  534SOL     OW 1624   1.225   0.325   4.173
  534SOL    HW1 1625   1.290   0.251   4.162
  534SOL    HW2 1626   1.245   0.375   4.257
  535SOL     OW 1627   0.594   0.745   4.376
  535SOL    HW1 1628   0.644   0.830   4.357
  535SOL    HW2 1629   0.506   0.747   4.328
  536SOL     OW 1630   0.859   1.374   3.740
  536SOL    HW1 1631   0.813   1.389   3.828
  536SOL    HW2 1632   0.903   1.459   3.710
  537SOL     OW 1633   0.661   1.790   4.677
  537SOL    HW1 1634   0.615   1.878   4.664
  537SOL    HW2 1635   0.760   1.802   4.670
  538SOL     OW 1636   0.859   0.956   4.585
  538SOL    HW1 1637   0.913   0.887   4.633
  538SOL    HW2 1638   0.827   1.025   4.651
  539SOL     OW 1639   1.083   0.984   3.811
  539SOL    HW1 1640   1.060   1.037   3.729
  539SOL    HW2 1641   1.164   0.928   3.792
  540SOL     OW 1642   1.861   1.569   4.575
  540SOL    HW1 1643   1.790   1.557   4.505
  540SOL    HW2 1644   1.862   1.490   4.635
  541SOL     OW 1645   0.079   1.240   4.377
  541SOL    HW1 1646   0.078   1.193   4.465
  541SOL    HW2 1647   0.161   1.212   4.326
  542SOL     OW 1648   1.824   0.192   4.951
  542SOL    HW1 1649   1.820   0.102   4.995
  542SOL    HW2 1650   1.827   0.181   4.852
  543SOL     OW 1651   0.428   0.424   4.244
  543SOL    HW1 1652   0.458   0.352   4.182
  543SOL    HW2 1653   0.389   0.384   4.327
  544SOL     OW 1654   0.812   1.586   4.411
  544SOL    HW1 1655   0.844   1.596   4.317
  544SOL    HW2 1656   0.733   1.524   4.413
  545SOL     OW 1657   0.770   1.330   4.025
  545SOL    HW1 1658   0.724   1.243   4.042
  545SOL    HW2 1659   0.861   1.327   4.066
  546SOL     OW 1660   1.352   0.052   3.892
  546SOL    HW1 1661   1.387   0.011   3.808
  546SOL    HW2 1662   1.262   0.014   3.912
  547SOL     OW 1663   1.300   0.453   4.415
  547SOL    HW1 1664   1.241   0.533   4.419
  547SOL    HW2 1665   1.315   0.418   4.508
  548SOL     OW 1666   1.593   0.221   4.606
  548SOL    HW1 1667   1.509   0.220   4.660
  548SOL    HW2 1668   1.595   0.304   4.550
  549SOL     OW 1669   0.039   1.077   4.024
  549SOL    HW1 1670   0.138   1.066   4.015
  549SOL    HW2 1671  -0.001   0.991   4.056
  550SOL     OW 1672   0.875   1.646   4.061
  550SOL    HW1 1673   0.798   1.611   4.007
  550SOL    HW2 1674   0.843   1.717   4.123
  551SOL     OW 1675   0.230   2.490   0.113
  551SOL    HW1 1676   0.137   2.488   0.150
  551SOL    HW2 1677   0.231   2.451   0.021
  552SOL     OW 1678   0.225   2.137   0.996
  552SOL    HW1 1679   0.260   2.120   1.088
  552SOL    HW2 1680   0.137   2.092   0.984
  553SOL     OW 1681   0.019   2.230   0.647
  553SOL    HW1 1682  -0.063   2.273   0.686
  553SOL    HW2 1683  -0.009   2.157   0.584
  554SOL     OW 1684   0.569   3.137   1.165
  554SOL    HW1 1685   0.476   3.130   1.128
  554SOL    HW2 1686   0.580   3.226   1.209
  555SOL     OW 1687   1.555   3.373   0.703
  555SOL    HW1 1688   1.498   3.357   0.784
  555SOL    HW2 1689   1.496   3.383   0.623
  556SOL     OW 1690   1.135   2.565   0.717
  556SOL    HW1 1691   1.192   2.643   0.692
  556SOL    HW2 1692   1.075   2.591   0.793
  557SOL     OW 1693   1.755   2.469   0.231
  557SOL    HW1 1694   1.743   2.456   0.132
  557SOL    HW2 1695   1.725   2.388   0.280
  558SOL     OW 1696   0.768   3.006   1.023
  558SOL    HW1 1697   0.690   3.023   1.083
  558SOL    HW2 1698   0.802   3.093   0.987
  559SOL     OW 1699   0.850   2.660   1.823
  559SOL    HW1 1700   0.846   2.736   1.888
  559SOL    HW2 1701   0.872   2.696   1.732
  560SOL     OW 1702   0.685   2.874   0.665
  560SOL    HW1 1703   0.754   2.858   0.735
  560SOL    HW2 1704   0.612   2.931   0.703
  561SOL     OW 1705   0.686   3.023   1.803
  561SOL    HW1 1706   0.746   3.102   1.817
  561SOL    HW2 1707   0.600   3.054   1.762
  562SOL     OW 1708   0.335   3.297   1.061
  562SOL    HW1 1709   0.257   3.266   1.008
  562SOL    HW2 1710   0.393   3.355   1.004
  563SOL     OW 1711   1.460   3.367   1.339
  563SOL    HW1 1712   1.484   3.461   1.365
  563SOL    HW2 1713   1.444   3.313   1.421
  564SOL     OW 1714   0.438   2.254   1.499
  564SOL    HW1 1715   0.520   2.198   1.508
  564SOL    HW2 1716   0.357   2.196   1.503
  565SOL     OW 1717   1.603   2.309   0.737
  565SOL    HW1 1718   1.529   2.355   0.687
  565SOL    HW2 1719   1.654   2.377   0.790
  566SOL     OW 1720   0.231   3.575   0.483
  566SOL    HW1 1721   0.265   3.652   0.537
  566SOL    HW2 1722   0.275   3.575   0.393
  567SOL     OW 1723   1.127   3.203   1.690
  567SOL    HW1 1724   1.174   3.203   1.778
  567SOL    HW2 1725   1.079   3.116   1.679
  568SOL     OW 1726   0.230   3.296   0.538
  568SOL    HW1 1727   0.204   3.392   0.538
  568SOL    HW2 1728   0.159   3.242   0.583
  569SOL     OW 1729   0.240   2.953   0.886
  569SOL    HW1 1730   0.254   2.869   0.938
  569SOL    HW2 1731   0.185   3.017   0.941
  570SOL     OW 1732   0.620   3.648   1.439
  570SOL    HW1 1733   0.528   3.631   1.474
  570SOL    HW2 1734   0.648   3.740   1.465
  571SOL     OW 1735   0.606   2.826   0.123
  571SOL    HW1 1736   0.613   2.910   0.069
  571SOL    HW2 1737   0.652   2.839   0.211
  572SOL     OW 1738   1.594   1.976   1.480
  572SOL    HW1 1739   1.576   2.043   1.408
  572SOL    HW2 1740   1.591   2.022   1.569
  573SOL     OW 1741   0.122   2.505   0.563
  573SOL    HW1 1742   0.077   2.417   0.580
  573SOL    HW2 1743   0.121   2.559   0.647
  574SOL     OW 1744   1.842   3.629   0.359
  574SOL    HW1 1745   1.896   3.600   0.439
  574SOL    HW2 1746   1.872   3.719   0.330
  575SOL     OW 1747   0.027   3.458   0.117
  575SOL    HW1 1748   0.008   3.362   0.138
  575SOL    HW2 1749  -0.006   3.516   0.192
  576SOL     OW 1750   1.689   2.784   0.612
  576SOL    HW1 1751   1.784   2.755   0.620
  576SOL    HW2 1752   1.681   2.849   0.537
  577SOL     OW 1753   1.641   2.970   0.432
  577SOL    HW1 1754   1.727   2.972   0.380
  577SOL    HW2 1755   1.655   3.017   0.520
  578SOL     OW 1756   0.113   2.599   1.597
  578SOL    HW1 1757   0.201   2.586   1.642
  578SOL    HW2 1758   0.100   2.696   1.575
  579SOL     OW 1759   0.613   3.227   0.726
  579SOL    HW1 1760   0.564   3.140   0.735
  579SOL    HW2 1761   0.590   3.270   0.639
  580SOL     OW 1762   1.293   3.090   1.423
  580SOL    HW1 1763   1.330   3.017   1.365
  580SOL    HW2 1764   1.345   3.095   1.508
  581SOL     OW 1765   0.809   1.866   0.502
  581SOL    HW1 1766   0.849   1.957   0.493
  581SOL    HW2 1767   0.709   1.874   0.508
  582SOL     OW 1768   0.197   2.838   1.264
  582SOL    HW1 1769   0.286   2.793   1.250
  582SOL    HW2 1770   0.124   2.773   1.245
  583SOL     OW 1771   1.525   2.861   0.190
  583SOL    HW1 1772   1.462   2.785   0.203
  583SOL    HW2 1773   1.573   2.879   0.276
  584SOL     OW 1774   1.187   3.654   1.616
  584SOL    HW1 1775   1.211   3.714   1.540
  584SOL    HW2 1776   1.194   3.559   1.586
  585SOL     OW 1777   0.317   2.113   1.801
  585SOL    HW1 1778   0.388   2.184   1.807
  585SOL    HW2 1779   0.229   2.152   1.829
  586SOL     OW 1780   1.466   3.279   0.953
  586SOL    HW1 1781   1.407   3.285   1.033
  586SOL    HW2 1782   1.451   3.191   0.907
  587SOL     OW 1783   1.667   3.576   0.572
  587SOL    HW1 1784   1.626   3.553   0.484
  587SOL    HW2 1785   1.649   3.502   0.637
  588SOL     OW 1786   0.598   2.591   0.270
  588SOL    HW1 1787   0.622   2.660   0.202
  588SOL    HW2 1788   0.520   2.624   0.324
  589SOL     OW 1789   1.281   2.207   0.944
  589SOL    HW1 1790   1.195   2.157   0.931
  589SOL    HW2 1791   1.343   2.153   1.000
  590SOL     OW 1792   1.576   3.524   0.307
  590SOL    HW1 1793   1.665   3.570   0.310
  590SOL    HW2 1794   1.555   3.500   0.212
  591SOL     OW 1795   0.807   2.467   1.465
  591SOL    HW1 1796   0.760   2.464   1.554
  591SOL    HW2 1797   0.756   2.412   1.399
  592SOL     OW 1798   1.394   2.331   1.674
  592SOL    HW1 1799   1.374   2.374   1.762
  592SOL    HW2 1800   1.472   2.269   1.683
  593SOL     OW 1801   0.973   2.752   1.572
  593SOL    HW1 1802   1.019   2.668   1.543
  593SOL    HW2 1803   0.917   2.786   1.497
  594SOL     OW 1804   0.991   2.272   1.242
  594SOL    HW1 1805   0.914   2.306   1.296
  594SOL    HW2 1806   0.957   2.221   1.163
  595SOL     OW 1807   1.041   2.563   0.429
  595SOL    HW1 1808   1.067   2.559   0.525
  595SOL    HW2 1809   0.956   2.512   0.415
  596SOL     OW 1810   0.076   2.673   0.789
  596SOL    HW1 1811   0.175   2.661   0.798
  596SOL    HW2 1812   0.052   2.768   0.810
  597SOL     OW 1813   0.130   3.683   1.571
  597SOL    HW1 1814   0.120   3.668   1.670
  597SOL    HW2 1815   0.044   3.719   1.535
  598SOL     OW 1816   0.865   2.210   0.195
  598SOL    HW1 1817   0.924   2.273   0.146
  598SOL    HW2 1818   0.884   2.116   0.166
  599SOL     OW 1819   1.719   2.447   1.831
  599SOL    HW1 1820   1.693   2.536   1.795
  599SOL    HW2 1821   1.717   2.379   1.758
  600SOL     OW 1822   1.362   3.006   0.545
  600SOL    HW1 1823   1.445   2.977   0.497
  600SOL    HW2 1824   1.313   3.073   0.489
  601SOL     OW 1825   0.550   2.058   0.885
  601SOL    HW1 1826   0.545   2.053   0.985
  601SOL    HW2 1827   0.552   2.154   0.856
  602SOL     OW 1828   1.008   3.318   0.477
  602SOL    HW1 1829   0.962   3.390   0.425
  602SOL    HW2 1830   1.004   3.338   0.575
  603SOL     OW 1831   0.351   3.663   0.853
  603SOL    HW1 1832   0.401   3.577   0.859
  603SOL    HW2 1833   0.416   3.740   0.850
  604SOL     OW 1834   1.795   2.928   0.873
  604SOL    HW1 1835   1.733   2.913   0.797
  604SOL    HW2 1836   1.743   2.939   0.958
  605SOL     OW 1837   1.227   3.412   1.506
  605SOL    HW1 1838   1.233   3.335   1.570
  605SOL    HW2 1839   1.175   3.386   1.426
  606SOL     OW 1840   0.321   2.805   0.242
  606SOL    HW1 1841   0.403   2.844   0.200
  606SOL    HW2 1842   0.294   2.723   0.193
  607SOL     OW 1843   1.458   2.597   0.728
  607SOL    HW1 1844   1.453   2.532   0.803
  607SOL    HW2 1845   1.538   2.656   0.741
  608SOL     OW 1846   0.461   3.128   1.727
  608SOL    HW1 1847   0.411   3.129   1.641
  608SOL    HW2 1848   0.398   3.110   1.803
  609SOL     OW 1849   1.111   3.638   0.237
  609SOL    HW1 1850   1.051   3.576   0.287
  609SOL    HW2 1851   1.142   3.594   0.152
  610SOL     OW 1852   0.202   2.147   1.498
  610SOL    HW1 1853   0.122   2.207   1.485
  610SOL    HW2 1854   0.192   2.098   1.584
  611SOL     OW 1855   1.632   3.239   0.081
  611SOL    HW1 1856   1.600   3.333   0.071
  611SOL    HW2 1857   1.556   3.176   0.069
  612SOL     OW 1858   0.464   3.605   0.323
  612SOL    HW1 1859   0.497   3.644   0.409
  612SOL    HW2 1860   0.540   3.598   0.258
  613SOL     OW 1861   1.400   1.969   0.426
  613SOL    HW1 1862   1.376   1.932   0.336
  613SOL    HW2 1863   1.499   1.985   0.430
  614SOL     OW 1864   0.249   3.647   1.241
  614SOL    HW1 1865   0.306   3.582   1.291
  614SOL    HW2 1866   0.233   3.614   1.148
  615SOL     OW 1867   0.940   3.560   0.904
  615SOL    HW1 1868   1.020   3.503   0.925
  615SOL    HW2 1869   0.891   3.520   0.827
  616SOL     OW 1870   0.382   2.562   0.480
  616SOL    HW1 1871   0.427   2.472   0.477
  616SOL    HW2 1872   0.288   2.551   0.513
  617SOL     OW 1873   1.547   2.084   1.729
  617SOL    HW1 1874   1.542   2.121   1.821
  617SOL    HW2 1875   1.475   2.015   1.717
  618SOL     OW 1876   0.614   1.984   0.117
  618SOL    HW1 1877   0.712   1.962   0.124
  618SOL    HW2 1878   0.583   1.967   0.024
  619SOL     OW 1879   0.781   2.126   1.749
  619SOL    HW1 1880   0.848   2.065   1.792
  619SOL    HW2 1881   0.708   2.145   1.814
  620SOL     OW 1882   0.888   3.376   1.195
  620SOL    HW1 1883   0.865   3.351   1.101
  620SOL    HW2 1884   0.949   3.307   1.234
  621SOL     OW 1885   1.351   2.452   1.433
  621SOL    HW1 1886   1.379   2.409   1.518
  621SOL    HW2 1887   1.376   2.548   1.434
  622SOL     OW 1888   0.803   3.264   0.924
  622SOL    HW1 1889   0.893   3.278   0.882
  622SOL    HW2 1890   0.732   3.266   0.853
  623SOL     OW 1891   0.922   2.365   0.899
  623SOL    HW1 1892   0.897   2.356   0.803
  623SOL    HW2 1893   0.970   2.283   0.930
  624SOL     OW 1894   0.539   1.926   0.512
  624SOL    HW1 1895   0.458   1.927   0.570
  624SOL    HW2 1896   0.542   2.009   0.457
  625SOL     OW 1897   1.434   3.050   0.041
  625SOL    HW1 1898   1.466   2.974   0.098
  625SOL    HW2 1899   1.342   3.077   0.071
  626SOL     OW 1900   0.935   2.098   0.480
  626SOL    HW1 1901   0.887   2.139   0.402
  626SOL    HW2 1902   1.034   2.096   0.461
  627SOL     OW 1903   1.076   2.545   1.464
  627SOL    HW1 1904   0.996   2.484   1.467
  627SOL    HW2 1905   1.157   2.492   1.440
  628SOL     OW 1906   1.227   3.432   0.793
  628SOL    HW1 1907   1.248   3.506   0.728
  628SOL    HW2 1908   1.295   3.432   0.866
  629SOL     OW 1909   0.459   3.014   0.741
  629SOL    HW1 1910   0.388   2.987   0.806
  629SOL    HW2 1911   0.433   2.986   0.648
  630SOL     OW 1912   1.271   3.659   0.591
  630SOL    HW1 1913   1.315   3.723   0.527
  630SOL    HW2 1914   1.221   3.711   0.661
  631SOL     OW 1915   1.032   2.411   0.016
  631SOL    HW1 1916   0.991   2.493  -0.023
  631SOL    HW2 1917   1.096   2.437   0.089
  632SOL     OW 1918   0.078   2.418   1.386
  632SOL    HW1 1919   0.170   2.417   1.345
  632SOL    HW2 1920   0.072   2.492   1.453
  633SOL     OW 1921   0.561   2.084   1.147
  633SOL    HW1 1922   0.599   2.000   1.184
  633SOL    HW2 1923   0.473   2.103   1.191
  634SOL     OW 1924   0.866   2.316   0.642
  634SOL    HW1 1925   0.834   2.388   0.580
  634SOL    HW2 1926   0.890   2.235   0.589
  635SOL     OW 1927   1.017   1.901   0.753
  635SOL    HW1 1928   0.945   1.906   0.684
  635SOL    HW2 1929   0.993   1.832   0.822
  636SOL     OW 1930   1.429   3.035   0.867
  636SOL    HW1 1931   1.374   2.951   0.860
  636SOL    HW2 1932   1.455   3.064   0.775
  637SOL     OW 1933   1.466   2.452   0.992
  637SOL    HW1 1934   1.436   2.357   0.999
  637SOL    HW2 1935   1.539   2.468   1.058
  638SOL     OW 1936   1.857   2.695   0.377
  638SOL    HW1 1937   1.899   2.631   0.441
  638SOL    HW2 1938   1.819   2.644   0.299
  639SOL     OW 1939   0.488   3.247   0.174
  639SOL    HW1 1940   0.401   3.232   0.221
  639SOL    HW2 1941   0.471   3.273   0.079
  640SOL     OW 1942   1.664   3.142   0.657
  640SOL    HW1 1943   1.763   3.150   0.671
  640SOL    HW2 1944   1.619   3.226   0.688
  641SOL     OW 1945   1.390   2.437   0.078
  641SOL    HW1 1946   1.336   2.416   0.159
  641SOL    HW2 1947   1.481   2.396   0.087
  642SOL     OW 1948   0.527   2.118   0.328
  642SOL    HW1 1949   0.554   2.059   0.253
  642SOL    HW2 1950   0.527   2.213   0.297
  643SOL     OW 1951   1.754   3.085   1.588
  643SOL    HW1 1952   1.845   3.046   1.575
  643SOL    HW2 1953   1.762   3.181   1.612
  644SOL     OW 1954   1.064   3.209   1.340
  644SOL    HW1 1955   0.984   3.186   1.395
  644SOL    HW2 1956   1.147   3.183   1.389
  645SOL     OW 1957   1.592   3.491   1.625
  645SOL    HW1 1958   1.619   3.525   1.535
  645SOL    HW2 1959   1.671   3.453   1.671
  646SOL     OW 1960   1.111   3.057   1.100
  646SOL    HW1 1961   1.071   3.101   1.181
  646SOL    HW2 1962   1.070   3.094   1.017
  647SOL     OW 1963   1.638   2.961   1.079
  647SOL    HW1 1964   1.643   3.042   1.138
  647SOL    HW2 1965   1.552   2.963   1.028
  648SOL     OW 1966   0.915   1.951   1.402
  648SOL    HW1 1967   0.940   1.931   1.307
  648SOL    HW2 1968   0.987   2.007   1.444
  649SOL     OW 1969   0.980   2.978   1.719
  649SOL    HW1 1970   0.881   2.984   1.729
  649SOL    HW2 1971   1.003   2.898   1.663
  650SOL     OW 1972   0.705   2.912   0.368
  650SOL    HW1 1973   0.691   2.919   0.467
  650SOL    HW2 1974   0.789   2.861   0.350
  651SOL     OW 1975   0.410   2.675   1.251
  651SOL    HW1 1976   0.496   2.687   1.301
  651SOL    HW2 1977   0.368   2.588   1.278
  652SOL     OW 1978   1.274   2.248   1.262
  652SOL    HW1 1979   1.295   2.322   1.326
  652SOL    HW2 1980   1.185   2.265   1.219
  653SOL     OW 1981   0.064   3.426   1.331
  653SOL    HW1 1982   0.018   3.508   1.297
  653SOL    HW2 1983   0.162   3.445   1.340
  654SOL     OW 1984   0.367   2.962   0.501
  654SOL    HW1 1985   0.360   3.045   0.445
  654SOL    HW2 1986   0.371   2.882   0.441
  655SOL     OW 1987   0.566   2.399   0.865
  655SOL    HW1 1988   0.578   2.465   0.791
  655SOL    HW2 1989   0.612   2.433   0.948
  656SOL     OW 1990   1.252   3.210   0.388
  656SOL    HW1 1991   1.302   3.287   0.428
  656SOL    HW2 1992   1.157   3.212   0.420
  657SOL     OW 1993   1.272   3.307   1.142
  657SOL    HW1 1994   1.319   3.320   1.229
  657SOL    HW2 1995   1.206   3.233   1.151
  658SOL     OW 1996   1.582   2.501   0.472
  658SOL    HW1 1997   1.551   2.562   0.545
  658SOL    HW2 1998   1.632   2.553   0.403
  659SOL     OW 1999   0.354   3.372   1.329
  659SOL    HW1 2000   0.333   3.328   1.242
  659SOL    HW2 2001   0.451   3.398   1.332
  660SOL     OW 2002   0.402   2.613   1.598
  660SOL    HW1 2003   0.470   2.668   1.551
  660SOL    HW2 2004   0.442   2.525   1.625
  661SOL     OW 2005   1.587   2.641   1.670
  661SOL    HW1 2006   1.495   2.679   1.665
  661SOL    HW2 2007   1.647   2.688   1.605
  662SOL     OW 2008   1.013   1.967   1.770
  662SOL    HW1 2009   1.019   2.052   1.718
  662SOL    HW2 2010   1.045   1.891   1.713
  663SOL     OW 2011   0.504   1.912   1.740
  663SOL    HW1 2012   0.462   1.855   1.670
  663SOL    HW2 2013   0.438   1.981   1.772
  664SOL     OW 2014   0.573   2.732   1.029
  664SOL    HW1 2015   0.617   2.821   1.020
  664SOL    HW2 2016   0.510   2.732   1.106
  665SOL     OW 2017   1.360   2.724   1.045
  665SOL    HW1 2018   1.285   2.724   0.979
  665SOL    HW2 2019   1.397   2.632   1.054
  666SOL     OW 2020   1.209   2.387   0.275
  666SOL    HW1 2021   1.222   2.303   0.329
  666SOL    HW2 2022   1.180   2.461   0.335
  667SOL     OW 2023   0.307   2.075   1.231
  667SOL    HW1 2024   0.284   2.112   1.321
  667SOL    HW2 2025   0.277   1.980   1.225
  668SOL     OW 2026   0.037   3.172   1.282
  668SOL    HW1 2027   0.090   3.123   1.350
  668SOL    HW2 2028   0.059   3.270   1.287
  669SOL     OW 2029   0.732   2.496   1.064
  669SOL    HW1 2030   0.791   2.470   0.988
  669SOL    HW2 2031   0.704   2.592   1.053
  670SOL     OW 2032   1.728   2.797   1.854
  670SOL    HW1 2033   1.682   2.790   1.765
  670SOL    HW2 2034   1.666   2.841   1.920
  671SOL     OW 2035   0.307   1.925   0.618
  671SOL    HW1 2036   0.296   2.019   0.651
  671SOL    HW2 2037   0.302   1.862   0.695
  672SOL     OW 2038   1.622   2.229   0.374
  672SOL    HW1 2039   1.624   2.153   0.438
  672SOL    HW2 2040   1.574   2.306   0.414
  673SOL     OW 2041   1.023   2.628   0.966
  673SOL    HW1 2042   1.038   2.649   1.062
  673SOL    HW2 2043   0.993   2.533   0.957
  674SOL     OW 2044   0.980   3.435   1.700
  674SOL    HW1 2045   0.960   3.479   1.612
  674SOL    HW2 2046   1.019   3.344   1.684
  675SOL     OW 2047   1.859   3.380   1.605
  675SOL    HW1 2048   1.873   3.407   1.510
  675SOL    HW2 2049   1.942   3.402   1.658
  676SOL     OW 2050   0.350   2.760   1.804
  676SOL    HW1 2051   0.426   2.804   1.852
  676SOL    HW2 2052   0.385   2.713   1.722
  677SOL     OW 2053   1.540   2.136   0.125
  677SOL    HW1 2054   1.479   2.061   0.148
  677SOL    HW2 2055   1.562   2.188   0.208
  678SOL     OW 2056   1.303   2.700   0.042
  678SOL    HW1 2057   1.337   2.607   0.057
  678SOL    HW2 2058   1.321   2.727  -0.053
  679SOL     OW 2059   1.068   3.195   0.849
  679SOL    HW1 2060   1.075   3.111   0.794
  679SOL    HW2 2061   1.130   3.264   0.813
  680SOL     OW 2062   0.319   2.672   0.949
  680SOL    HW1 2063   0.412   2.708   0.954
  680SOL    HW2 2064   0.313   2.587   1.001
  681SOL     OW 2065   0.339   2.371   1.006
  681SOL    HW1 2066   0.287   2.288   0.989
  681SOL    HW2 2067   0.416   2.376   0.942
  682SOL     OW 2068   1.138   2.242   1.678
  682SOL    HW1 2069   1.093   2.305   1.742
  682SOL    HW2 2070   1.231   2.273   1.661
  683SOL     OW 2071   1.160   2.069   1.477
  683SOL    HW1 2072   1.160   2.133   1.554
  683SOL    HW2 2073   1.188   2.117   1.394
  684SOL     OW 2074   0.008   3.188   0.200
  684SOL    HW1 2075  -0.085   3.209   0.169
  684SOL    HW2 2076   0.018   3.089   0.213
  685SOL     OW 2077   0.088   3.663   0.927
  685SOL    HW1 2078   0.046   3.577   0.900
  685SOL    HW2 2079   0.182   3.666   0.893
  686SOL     OW 2080   0.504   3.430   0.910
  686SOL    HW1 2081   0.570   3.504   0.919
  686SOL    HW2 2082   0.548   3.351   0.868
  687SOL     OW 2083   1.002   2.658   1.238
  687SOL    HW1 2084   1.043   2.626   1.324
  687SOL    HW2 2085   0.906   2.631   1.235
  688SOL     OW 2086   0.040   2.406   1.114
  688SOL    HW1 2087   0.125   2.373   1.073
  688SOL    HW2 2088   0.053   2.421   1.212
  689SOL     OW 2089   0.189   2.382   1.722
  689SOL    HW1 2090   0.248   2.342   1.652
  689SOL    HW2 2091   0.131   2.453   1.681
  690SOL     OW 2092   1.369   2.812   1.660
  690SOL    HW1 2093   1.408   2.901   1.680
  690SOL    HW2 2094   1.379   2.792   1.563
  691SOL     OW 2095   0.815   2.434   0.325
  691SOL    HW1 2096   0.822   2.345   0.279
  691SOL    HW2 2097   0.721   2.468   0.317
  692SOL     OW 2098   1.657   2.466   1.206
  692SOL    HW1 2099   1.619   2.397   1.268
  692SOL    HW2 2100   1.739   2.430   1.162
  693SOL     OW 2101   0.252   3.426   1.744
  693SOL    HW1 2102   0.222   3.483   1.820
  693SOL    HW2 2103   0.245   3.329   1.770
  694SOL     OW 2104   0.671   2.326   1.269
  694SOL    HW1 2105   0.637   2.237   1.239
  694SOL    HW2 2106   0.697   2.380   1.189
  695SOL     OW 2107   0.930   3.540   1.465
  695SOL    HW1 2108   0.906   3.522   1.370
  695SOL    HW2 2109   0.960   3.634   1.475
  696SOL     OW 2110   0.473   2.362   0.191
  696SOL    HW1 2111   0.534   2.442   0.195
  696SOL    HW2 2112   0.378   2.393   0.198
  697SOL     OW 2113   0.159   2.999   1.466
  697SOL    HW1 2114   0.181   2.938   1.542
  697SOL    HW2 2115   0.169   2.950   1.380
  698SOL     OW 2116   1.347   2.921   1.234
  698SOL    HW1 2117   1.371   2.858   1.160
  698SOL    HW2 2118   1.257   2.961   1.216
  699SOL     OW 2119   1.302   2.717   0.309
  699SOL    HW1 2120   1.216   2.686   0.351
  699SOL    HW2 2121   1.298   2.703   0.210
  700SOL     OW 2122   1.759   3.609   1.154
  700SOL    HW1 2123   1.820   3.639   1.081
  700SOL    HW2 2124   1.721   3.520   1.132
  701SOL     OW 2125   1.252   3.593   1.128
  701SOL    HW1 2126   1.336   3.598   1.074
  701SOL    HW2 2127   1.229   3.497   1.146
  702SOL     OW 2128   0.083   3.120   1.022
  702SOL    HW1 2129   0.078   3.119   1.122
  702SOL    HW2 2130   0.000   3.079   0.984
  703SOL     OW 2131   0.688   3.524   1.716
  703SOL    HW1 2132   0.632   3.605   1.725
  703SOL    HW2 2133   0.740   3.528   1.630
  704SOL     OW 2134   0.903   1.948   0.133
  704SOL    HW1 2135   0.954   1.949   0.047
  704SOL    HW2 2136   0.959   1.906   0.204
  705SOL     OW 2137   1.726   1.997   0.523
  705SOL    HW1 2138   1.799   1.980   0.456
  705SOL    HW2 2139   1.695   1.910   0.561
  706SOL     OW 2140   1.388   3.435   0.477
  706SOL    HW1 2141   1.455   3.447   0.403
  706SOL    HW2 2142   1.348   3.524   0.500
  707SOL     OW 2143   0.130   3.656   1.851
  707SOL    HW1 2144   0.089   3.582   1.904
  707SOL    HW2 2145   0.194   3.707   1.909
  708SOL     OW 2146   1.280   2.789   0.672
  708SOL    HW1 2147   1.340   2.708   0.674
  708SOL    HW2 2148   1.320   2.858   0.612
  709SOL     OW 2149   0.830   3.135   1.422
  709SOL    HW1 2150   0.825   3.168   1.517
  709SOL    HW2 2151   0.744   3.154   1.376
  710SOL     OW 2152   0.672   3.478   0.154
  710SOL    HW1 2153   0.681   3.488   0.055
  710SOL    HW2 2154   0.632   3.389   0.175
  711SOL     OW 2155   1.650   3.582   1.394
  711SOL    HW1 2156   1.703   3.592   1.310
  711SOL    HW2 2157   1.623   3.672   1.428
  712SOL     OW 2158   1.841   2.037   0.963
  712SOL    HW1 2159   1.880   1.952   0.927
  712SOL    HW2 2160   1.743   2.039   0.944
  713SOL     OW 2161   0.263   2.188   0.720
  713SOL    HW1 2162   0.184   2.239   0.686
  713SOL    HW2 2163   0.254   2.173   0.818
  714SOL     OW 2164   1.194   3.474   0.031
  714SOL    HW1 2165   1.200   3.381   0.068
  714SOL    HW2 2166   1.135   3.474  -0.049
  715SOL     OW 2167   0.822   2.864   1.372
  715SOL    HW1 2168   0.862   2.863   1.280
  715SOL    HW2 2169   0.832   2.956   1.412
  716SOL     OW 2170   0.916   2.772   0.291
  716SOL    HW1 2171   0.979   2.810   0.223
  716SOL    HW2 2172   0.956   2.689   0.330
  717SOL     OW 2173   1.504   3.469   0.044
  717SOL    HW1 2174   1.412   3.506   0.051
  717SOL    HW2 2175   1.542   3.489  -0.046
  718SOL     OW 2176   0.372   3.150   1.490
  718SOL    HW1 2177   0.359   3.243   1.456
  718SOL    HW2 2178   0.288   3.098   1.477
  719SOL     OW 2179   1.614   3.154   1.289
  719SOL    HW1 2180   1.674   3.157   1.369
  719SOL    HW2 2181   1.539   3.218   1.302
  720SOL     OW 2182   1.039   2.960   0.696
  720SOL    HW1 2183   0.969   2.913   0.750
  720SOL    HW2 2184   1.098   2.892   0.653
  721SOL     OW 2185   1.014   2.098   0.971
  721SOL    HW1 2186   1.006   2.062   0.878
  721SOL    HW2 2187   1.012   2.022   1.036
  722SOL     OW 2188   0.590   3.349   0.491
  722SOL    HW1 2189   0.632   3.291   0.421
  722SOL    HW2 2190   0.546   3.428   0.447
  723SOL     OW 2191   1.709   2.247   1.381
  723SOL    HW1 2192   1.782   2.316   1.385
  723SOL    HW2 2193   1.737   2.172   1.322
  724SOL     OW 2194   0.255   3.210   0.290
  724SOL    HW1 2195   0.159   3.211   0.263
  724SOL    HW2 2196   0.267   3.263   0.374
  725SOL     OW 2197   0.105   2.875   1.726
  725SOL    HW1 2198   0.028   2.842   1.780
  725SOL    HW2 2199   0.190   2.845   1.768
  726SOL     OW 2200   0.672   2.065   1.489
  726SOL    HW1 2201   0.762   2.049   1.449
  726SOL    HW2 2202   0.680   2.070   1.588
  727SOL     OW 2203   0.075   2.207   0.033
  727SOL    HW1 2204  -0.017   2.179   0.004
  727SOL    HW2 2205   0.106   2.284  -0.023
  728SOL     OW 2206   1.440   2.718   1.398
  728SOL    HW1 2207   1.383   2.770   1.335
  728SOL    HW2 2208   1.536   2.730   1.374
  729SOL     OW 2209   0.072   2.028   0.318
  729SOL    HW1 2210   0.055   2.111   0.264
  729SOL    HW2 2211   0.162   1.991   0.296
  730SOL     OW 2212   1.183   3.197   0.119
  730SOL    HW1 2213   1.084   3.186   0.121
  730SOL    HW2 2214   1.217   3.212   0.212
  731SOL     OW 2215   0.613   2.704   1.431
  731SOL    HW1 2216   0.669   2.785   1.414
  731SOL    HW2 2217   0.672   2.624   1.434
  732SOL     OW 2218   1.493   3.629   0.959
  732SOL    HW1 2219   1.526   3.693   0.890
  732SOL    HW2 2220   1.559   3.623   1.034
  733SOL     OW 2221   0.716   2.427   1.708
  733SOL    HW1 2222   0.735   2.492   1.782
  733SOL    HW2 2223   0.776   2.347   1.717
  734SOL     OW 2224   1.450   3.082   1.633
  734SOL    HW1 2225   1.441   3.072   1.732
  734SOL    HW2 2226   1.546   3.075   1.607
  735SOL     OW 2227   0.390   3.603   1.560
  735SOL    HW1 2228   0.299   3.644   1.558
  735SOL    HW2 2229   0.383   3.509   1.592
  736SOL     OW 2230   1.674   2.745   1.254
  736SOL    HW1 2231   1.647   2.656   1.217
  736SOL    HW2 2232   1.675   2.813   1.181
  737SOL     OW 2233   1.225   2.187   0.449
  737SOL    HW1 2234   1.290   2.113   0.438
  737SOL    HW2 2235   1.245   2.237   0.533
  738SOL     OW 2236   0.594   2.607   0.652
  738SOL    HW1 2237   0.644   2.692   0.633
  738SOL    HW2 2238   0.506   2.609   0.604
  739SOL     OW 2239   1.777   2.204   1.642
  739SOL    HW1 2240   1.760   2.235   1.548
  739SOL    HW2 2241   1.693   2.167   1.680
  740SOL     OW 2242   1.730   2.796   1.517
  740SOL    HW1 2243   1.768   2.887   1.532
  740SOL    HW2 2244   1.722   2.779   1.418
  741SOL     OW 2245   0.859   3.236   0.016
  741SOL    HW1 2246   0.813   3.251   0.104
  741SOL    HW2 2247   0.903   3.321  -0.014
  742SOL     OW 2248   0.661   3.652   0.953
  742SOL    HW1 2249   0.615   3.740   0.940
  742SOL    HW2 2250   0.760   3.664   0.946
  743SOL     OW 2251   0.859   2.818   0.861
  743SOL    HW1 2252   0.913   2.749   0.909
  743SOL    HW2 2253   0.827   2.887   0.927
  744SOL     OW 2254   1.083   2.846   0.087
  744SOL    HW1 2255   1.060   2.899   0.005
  744SOL    HW2 2256   1.164   2.790   0.068
  745SOL     OW 2257   1.861   3.431   0.851
  745SOL    HW1 2258   1.790   3.419   0.781
  745SOL    HW2 2259   1.862   3.352   0.911
  746SOL     OW 2260   0.221   3.176   1.844
  746SOL    HW1 2261   0.156   3.103   1.823
  746SOL    HW2 2262   0.225   3.190   1.942
  747SOL     OW 2263   0.079   3.102   0.653
  747SOL    HW1 2264   0.078   3.055   0.741
  747SOL    HW2 2265   0.161   3.074   0.602
  748SOL     OW 2266   0.672   3.253   1.624
  748SOL    HW1 2267   0.594   3.203   1.662
  748SOL    HW2 2268   0.669   3.348   1.655
  749SOL     OW 2269   1.824   2.054   1.227
  749SOL    HW1 2270   1.820   1.964   1.271
  749SOL    HW2 2271   1.827   2.043   1.128
  750SOL     OW 2272   0.428   2.286   0.520
  750SOL    HW1 2273   0.458   2.214   0.458
  750SOL    HW2 2274   0.389   2.246   0.603
  751SOL     OW 2275   1.705   3.349   1.104
  751SOL    HW1 2276   1.612   3.324   1.077
  751SOL    HW2 2277   1.731   3.299   1.186
  752SOL     OW 2278   0.317   2.409   1.280
  752SOL    HW1 2279   0.355   2.350   1.352
  752SOL    HW2 2280   0.357   2.383   1.192
  753SOL     OW 2281   0.812   3.448   0.687
  753SOL    HW1 2282   0.844   3.458   0.593
  753SOL    HW2 2283   0.733   3.386   0.689
  754SOL     OW 2284   1.424   2.076   1.112
  754SOL    HW1 2285   1.476   2.011   1.167
  754SOL    HW2 2286   1.375   2.139   1.173
  755SOL     OW 2287   1.001   1.896   1.154
  755SOL    HW1 2288   0.938   1.824   1.123
  755SOL    HW2 2289   1.094   1.860   1.154
  756SOL     OW 2290   0.770   3.192   0.301
  756SOL    HW1 2291   0.724   3.105   0.318
  756SOL    HW2 2292   0.861   3.189   0.342
  757SOL     OW 2293   0.618   3.429   1.284
  757SOL    HW1 2294   0.613   3.511   1.341
  757SOL    HW2 2295   0.707   3.426   1.239
  758SOL     OW 2296   1.352   1.914   0.168
  758SOL    HW1 2297   1.387   1.873   0.084
  758SOL    HW2 2298   1.262   1.876   0.188
  759SOL     OW 2299   1.300   2.315   0.691
  759SOL    HW1 2300   1.241   2.395   0.695
  759SOL    HW2 2301   1.315   2.280   0.784
  760SOL     OW 2302   1.593   2.083   0.882
  760SOL    HW1 2303   1.509   2.082   0.936
  760SOL    HW2 2304   1.595   2.166   0.826
  761SOL     OW 2305   0.039   2.939   0.300
  761SOL    HW1 2306   0.138   2.928   0.291
  761SOL    HW2 2307  -0.001   2.853   0.332
  762SOL     OW 2308   0.875   3.508   0.337
  762SOL    HW1 2309   0.798   3.473   0.283
  762SOL    HW2 2310   0.843   3.579   0.399
  763SOL     OW 2311   0.230   2.490   1.975
  763SOL    HW1 2312   0.137   2.488   2.012
  763SOL    HW2 2313   0.231   2.451   1.883
  764SOL     OW 2314   0.225   2.137   2.858
  764SOL    HW1 2315   0.260   2.120   2.950
  764SOL    HW2 2316   0.137   2.092   2.846
  765SOL     OW 2317   0.019   2.230   2.509
  765SOL    HW1 2318  -0.063   2.273   2.548
  765SOL    HW2 2319  -0.009   2.157   2.446
  766SOL     OW 2320   0.569   3.137   3.027
  766SOL    HW1 2321   0.476   3.130   2.990
  766SOL    HW2 2322   0.580   3.226   3.071
  767SOL     OW 2323   1.555   3.373   2.565
  767SOL    HW1 2324   1.498   3.357   2.646
  767SOL    HW2 2325   1.496   3.383   2.485
  768SOL     OW 2326   1.135   2.565   2.579
  768SOL    HW1 2327   1.192   2.643   2.554
  768SOL    HW2 2328   1.075   2.591   2.655
  769SOL     OW 2329   1.755   2.469   2.093
  769SOL    HW1 2330   1.743   2.456   1.994
  769SOL    HW2 2331   1.725   2.388   2.142
  770SOL     OW 2332   0.768   3.006   2.885
  770SOL    HW1 2333   0.690   3.023   2.945
  770SOL    HW2 2334   0.802   3.093   2.849
  771SOL     OW 2335   0.850   2.660   3.685
  771SOL    HW1 2336   0.846   2.736   3.750
  771SOL    HW2 2337   0.872   2.696   3.594
  772SOL     OW 2338   0.685   2.874   2.527
  772SOL    HW1 2339   0.754   2.858   2.597
  772SOL    HW2 2340   0.612   2.931   2.565
  773SOL     OW 2341   0.686   3.023   3.665
  773SOL    HW1 2342   0.746   3.102   3.679
  773SOL    HW2 2343   0.600   3.054   3.624
  774SOL     OW 2344   0.335   3.297   2.923
  774SOL    HW1 2345   0.257   3.266   2.870
  774SOL    HW2 2346   0.393   3.355   2.866
  775SOL     OW 2347   1.460   3.367   3.201
  775SOL    HW1 2348   1.484   3.461   3.227
  775SOL    HW2 2349   1.444   3.313   3.283
  776SOL     OW 2350   0.438   2.254   3.361
  776SOL    HW1 2351   0.520   2.198   3.370
  776SOL    HW2 2352   0.357   2.196   3.365
  777SOL     OW 2353   1.603   2.309   2.599
  777SOL    HW1 2354   1.529   2.355   2.549
  777SOL    HW2 2355   1.654   2.377   2.652
  778SOL     OW 2356   0.231   3.575   2.345
  778SOL    HW1 2357   0.265   3.652   2.399
  778SOL    HW2 2358   0.275   3.575   2.255
  779SOL     OW 2359   1.127   3.203   3.552
  779SOL    HW1 2360   1.174   3.203   3.640
  779SOL    HW2 2361   1.079   3.116   3.541
  780SOL     OW 2362   0.230   3.296   2.400
  780SOL    HW1 2363   0.204   3.392   2.400
  780SOL    HW2 2364   0.159   3.242   2.445
  781SOL     OW 2365   0.240   2.953   2.748
  781SOL    HW1 2366   0.254   2.869   2.800
  781SOL    HW2 2367   0.185   3.017   2.803
  782SOL     OW 2368   0.620   3.648   3.301
  782SOL    HW1 2369   0.528   3.631   3.336
  782SOL    HW2 2370   0.648   3.740   3.327
  783SOL     OW 2371   0.606   2.826   1.985
  783SOL    HW1 2372   0.613   2.910   1.931
  783SOL    HW2 2373   0.652   2.839   2.073
  784SOL     OW 2374   1.594   1.976   3.342
  784SOL    HW1 2375   1.576   2.043   3.270
  784SOL    HW2 2376   1.591   2.022   3.431
  785SOL     OW 2377   0.122   2.505   2.425
  785SOL    HW1 2378   0.077   2.417   2.442
  785SOL    HW2 2379   0.121   2.559   2.509
  786SOL     OW 2380   1.842   3.629   2.221
  786SOL    HW1 2381   1.896   3.600   2.301
  786SOL    HW2 2382   1.872   3.719   2.192
  787SOL     OW 2383   0.027   3.458   1.979
  787SOL    HW1 2384   0.008   3.362   2.000
  787SOL    HW2 2385  -0.006   3.516   2.054
  788SOL     OW 2386   1.689   2.784   2.474
  788SOL    HW1 2387   1.784   2.755   2.482
  788SOL    HW2 2388   1.681   2.849   2.399
  789SOL     OW 2389   1.641   2.970   2.294
  789SOL    HW1 2390   1.727   2.972   2.242
  789SOL    HW2 2391   1.655   3.017   2.382
  790SOL     OW 2392   0.113   2.599   3.459
  790SOL    HW1 2393   0.201   2.586   3.504
  790SOL    HW2 2394   0.100   2.696   3.437
  791SOL     OW 2395   0.613   3.227   2.588
  791SOL    HW1 2396   0.564   3.140   2.597
  791SOL    HW2 2397   0.590   3.270   2.501
  792SOL     OW 2398   1.293   3.090   3.285
  792SOL    HW1 2399   1.330   3.017   3.227
  792SOL    HW2 2400   1.345   3.095   3.370
  793SOL     OW 2401   0.809   1.866   2.364
  793SOL    HW1 2402   0.849   1.957   2.355
  793SOL    HW2 2403   0.709   1.874   2.370
  794SOL     OW 2404   0.197   2.838   3.126
  794SOL    HW1 2405   0.286   2.793   3.112
  794SOL    HW2 2406   0.124   2.773   3.107
  795SOL     OW 2407   1.525   2.861   2.052
  795SOL    HW1 2408   1.462   2.785   2.065
  795SOL    HW2 2409   1.573   2.879   2.138
  796SOL     OW 2410   1.187   3.654   3.478
  796SOL    HW1 2411   1.211   3.714   3.402
  796SOL    HW2 2412   1.194   3.559   3.448
  797SOL     OW 2413   0.317   2.113   3.663
  797SOL    HW1 2414   0.388   2.184   3.669
  797SOL    HW2 2415   0.229   2.152   3.691
  798SOL     OW 2416   1.466   3.279   2.815
  798SOL    HW1 2417   1.407   3.285   2.895
  798SOL    HW2 2418   1.451   3.191   2.769
  799SOL     OW 2419   1.667   3.576   2.434
  799SOL    HW1 2420   1.626   3.553   2.346
  799SOL    HW2 2421   1.649   3.502   2.499
  800SOL     OW 2422   0.598   2.591   2.132
  800SOL    HW1 2423   0.622   2.660   2.064
  800SOL    HW2 2424   0.520   2.624   2.186
  801SOL     OW 2425   1.281   2.207   2.806
  801SOL    HW1 2426   1.195   2.157   2.793
  801SOL    HW2 2427   1.343   2.153   2.862
  802SOL     OW 2428   1.576   3.524   2.169
  802SOL    HW1 2429   1.665   3.570   2.172
  802SOL    HW2 2430   1.555   3.500   2.074
  803SOL     OW 2431   0.807   2.467   3.327
  803SOL    HW1 2432   0.760   2.464   3.416
  803SOL    HW2 2433   0.756   2.412   3.261
  804SOL     OW 2434   1.394   2.331   3.536
  804SOL    HW1 2435   1.374   2.374   3.624
  804SOL    HW2 2436   1.472   2.269   3.545
  805SOL     OW 2437   0.973   2.752   3.434
  805SOL    HW1 2438   1.019   2.668   3.405
  805SOL    HW2 2439   0.917   2.786   3.359
  806SOL     OW 2440   0.991   2.272   3.104
  806SOL    HW1 2441   0.914   2.306   3.158
  806SOL    HW2 2442   0.957   2.221   3.025
  807SOL     OW 2443   1.041   2.563   2.291
  807SOL    HW1 2444   1.067   2.559   2.387
  807SOL    HW2 2445   0.956   2.512   2.277
  808SOL     OW 2446   0.076   2.673   2.651
  808SOL    HW1 2447   0.175   2.661   2.660
  808SOL    HW2 2448   0.052   2.768   2.672
  809SOL     OW 2449   0.130   3.683   3.433
  809SOL    HW1 2450   0.120   3.668   3.532
  809SOL    HW2 2451   0.044   3.719   3.397
  810SOL     OW 2452   0.865   2.210   2.057
  810SOL    HW1 2453   0.924   2.273   2.008
  810SOL    HW2 2454   0.884   2.116   2.028
  811SOL     OW 2455   1.719   2.447   3.693
  811SOL    HW1 2456   1.693   2.536   3.657
  811SOL    HW2 2457   1.717   2.379   3.620
  812SOL     OW 2458   1.362   3.006   2.407
  812SOL    HW1 2459   1.445   2.977   2.359
  812SOL    HW2 2460   1.313   3.073   2.351
  813SOL     OW 2461   0.550   2.058   2.747
  813SOL    HW1 2462   0.545   2.053   2.847
  813SOL    HW2 2463   0.552   2.154   2.718
  814SOL     OW 2464   1.008   3.318   2.339
  814SOL    HW1 2465   0.962   3.390   2.287
  814SOL    HW2 2466   1.004   3.338   2.437
  815SOL     OW 2467   0.351   3.663   2.715
  815SOL    HW1 2468   0.401   3.577   2.721
  815SOL    HW2 2469   0.416   3.740   2.712
  816SOL     OW 2470   1.795   2.928   2.735
  816SOL    HW1 2471   1.733   2.913   2.659
  816SOL    HW2 2472   1.743   2.939   2.820
  817SOL     OW 2473   1.227   3.412   3.368
  817SOL    HW1 2474   1.233   3.335   3.432
  817SOL    HW2 2475   1.175   3.386   3.288
  818SOL     OW 2476   0.321   2.805   2.104
  818SOL    HW1 2477   0.403   2.844   2.062
  818SOL    HW2 2478   0.294   2.723   2.055
  819SOL     OW 2479   1.458   2.597   2.590
  819SOL    HW1 2480   1.453   2.532   2.665
  819SOL    HW2 2481   1.538   2.656   2.603
  820SOL     OW 2482   0.461   3.128   3.589
  820SOL    HW1 2483   0.411   3.129   3.503
  820SOL    HW2 2484   0.398   3.110   3.665
  821SOL     OW 2485   1.111   3.638   2.099
  821SOL    HW1 2486   1.051   3.576   2.149
  821SOL    HW2 2487   1.142   3.594   2.014
  822SOL     OW 2488   0.202   2.147   3.360
  822SOL    HW1 2489   0.122   2.207   3.347
  822SOL    HW2 2490   0.192   2.098   3.446
  823SOL     OW 2491   1.632   3.239   1.943
  823SOL    HW1 2492   1.600   3.333   1.933
  823SOL    HW2 2493   1.556   3.176   1.931
  824SOL     OW 2494   0.464   3.605   2.185
  824SOL    HW1 2495   0.497   3.644   2.271
  824SOL    HW2 2496   0.540   3.598   2.120
  825SOL     OW 2497   1.400   1.969   2.288
  825SOL    HW1 2498   1.376   1.932   2.198
  825SOL    HW2 2499   1.499   1.985   2.292
  826SOL     OW 2500   0.249   3.647   3.103
  826SOL    HW1 2501   0.306   3.582   3.153
  826SOL    HW2 2502   0.233   3.614   3.010
  827SOL     OW 2503   0.940   3.560   2.766
  827SOL    HW1 2504   1.020   3.503   2.787
  827SOL    HW2 2505   0.891   3.520   2.689
  828SOL     OW 2506   0.382   2.562   2.342
  828SOL    HW1 2507   0.427   2.472   2.339
  828SOL    HW2 2508   0.288   2.551   2.375
  829SOL     OW 2509   1.547   2.084   3.591
  829SOL    HW1 2510   1.542   2.121   3.683
  829SOL    HW2 2511   1.475   2.015   3.579
  830SOL     OW 2512   0.614   1.984   1.979
  830SOL    HW1 2513   0.712   1.962   1.986
  830SOL    HW2 2514   0.583   1.967   1.886
  831SOL     OW 2515   0.781   2.126   3.611
  831SOL    HW1 2516   0.848   2.065   3.654
  831SOL    HW2 2517   0.708   2.145   3.676
  832SOL     OW 2518   0.888   3.376   3.057
  832SOL    HW1 2519   0.865   3.351   2.963
  832SOL    HW2 2520   0.949   3.307   3.096
  833SOL     OW 2521   1.351   2.452   3.295
  833SOL    HW1 2522   1.379   2.409   3.380
  833SOL    HW2 2523   1.376   2.548   3.296
  834SOL     OW 2524   0.803   3.264   2.786
  834SOL    HW1 2525   0.893   3.278   2.744
  834SOL    HW2 2526   0.732   3.266   2.715
  835SOL     OW 2527   0.922   2.365   2.761
  835SOL    HW1 2528   0.897   2.356   2.665
  835SOL    HW2 2529   0.970   2.283   2.792
  836SOL     OW 2530   0.539   1.926   2.374
  836SOL    HW1 2531   0.458   1.927   2.432
  836SOL    HW2 2532   0.542   2.009   2.319
  837SOL     OW 2533   1.434   3.050   1.903
  837SOL    HW1 2534   1.466   2.974   1.960
  837SOL    HW2 2535   1.342   3.077   1.933
  838SOL     OW 2536   0.297   1.897   2.033
  838SOL    HW1 2537   0.346   1.981   2.012
  838SOL    HW2 2538   0.359   1.832   2.078
  839SOL     OW 2539   0.935   2.098   2.342
  839SOL    HW1 2540   0.887   2.139   2.264
  839SOL    HW2 2541   1.034   2.096   2.323
  840SOL     OW 2542   1.076   2.545   3.326
  840SOL    HW1 2543   0.996   2.484   3.329
  840SOL    HW2 2544   1.157   2.492   3.302
  841SOL     OW 2545   1.227   3.432   2.655
  841SOL    HW1 2546   1.248   3.506   2.590
  841SOL    HW2 2547   1.295   3.432   2.728
  842SOL     OW 2548   0.459   3.014   2.603
  842SOL    HW1 2549   0.388   2.987   2.668
  842SOL    HW2 2550   0.433   2.986   2.510
  843SOL     OW 2551   1.271   3.659   2.453
  843SOL    HW1 2552   1.315   3.723   2.389
  843SOL    HW2 2553   1.221   3.711   2.523
  844SOL     OW 2554   1.032   2.411   1.878
  844SOL    HW1 2555   0.991   2.493   1.839
  844SOL    HW2 2556   1.096   2.437   1.951
  845SOL     OW 2557   0.078   2.418   3.248
  845SOL    HW1 2558   0.170   2.417   3.207
  845SOL    HW2 2559   0.072   2.492   3.315
  846SOL     OW 2560   0.561   2.084   3.009
  846SOL    HW1 2561   0.599   2.000   3.046
  846SOL    HW2 2562   0.473   2.103   3.053
  847SOL     OW 2563   0.866   2.316   2.504
  847SOL    HW1 2564   0.834   2.388   2.442
  847SOL    HW2 2565   0.890   2.235   2.451
  848SOL     OW 2566   1.017   1.901   2.615
  848SOL    HW1 2567   0.945   1.906   2.546
  848SOL    HW2 2568   0.993   1.832   2.684
  849SOL     OW 2569   1.429   3.035   2.729
  849SOL    HW1 2570   1.374   2.951   2.722
  849SOL    HW2 2571   1.455   3.064   2.637
  850SOL     OW 2572   1.466   2.452   2.854
  850SOL    HW1 2573   1.436   2.357   2.861
  850SOL    HW2 2574   1.539   2.468   2.920
  851SOL     OW 2575   1.857   2.695   2.239
  851SOL    HW1 2576   1.899   2.631   2.303
  851SOL    HW2 2577   1.819   2.644   2.161
  852SOL     OW 2578   0.488   3.247   2.036
  852SOL    HW1 2579   0.401   3.232   2.083
  852SOL    HW2 2580   0.471   3.273   1.941
  853SOL     OW 2581   1.664   3.142   2.519
  853SOL    HW1 2582   1.763   3.150   2.533
  853SOL    HW2 2583   1.619   3.226   2.550
  854SOL     OW 2584   1.390   2.437   1.940
  854SOL    HW1 2585   1.336   2.416   2.021
  854SOL    HW2 2586   1.481   2.396   1.949
  855SOL     OW 2587   0.527   2.118   2.190
  855SOL    HW1 2588   0.554   2.059   2.115
  855SOL    HW2 2589   0.527   2.213   2.159
  856SOL     OW 2590   1.754   3.085   3.450
  856SOL    HW1 2591   1.845   3.046   3.437
  856SOL    HW2 2592   1.762   3.181   3.474
  857SOL     OW 2593   1.064   3.209   3.202
  857SOL    HW1 2594   0.984   3.186   3.257
  857SOL    HW2 2595   1.147   3.183   3.251
  858SOL     OW 2596   1.592   3.491   3.487
  858SOL    HW1 2597   1.619   3.525   3.397
  858SOL    HW2 2598   1.671   3.453   3.533
  859SOL     OW 2599   1.111   3.057   2.962
  859SOL    HW1 2600   1.071   3.101   3.043
  859SOL    HW2 2601   1.070   3.094   2.879
  860SOL     OW 2602   1.638   2.961   2.941
  860SOL    HW1 2603   1.643   3.042   3.000
  860SOL    HW2 2604   1.552   2.963   2.890
  861SOL     OW 2605   0.915   1.951   3.264
  861SOL    HW1 2606   0.940   1.931   3.169
  861SOL    HW2 2607   0.987   2.007   3.306
  862SOL     OW 2608   0.980   2.978   3.581
  862SOL    HW1 2609   0.881   2.984   3.591
  862SOL    HW2 2610   1.003   2.898   3.525
  863SOL     OW 2611   0.705   2.912   2.230
  863SOL    HW1 2612   0.691   2.919   2.329
  863SOL    HW2 2613   0.789   2.861   2.212
  864SOL     OW 2614   0.410   2.675   3.113
  864SOL    HW1 2615   0.496   2.687   3.163
  864SOL    HW2 2616   0.368   2.588   3.140
  865SOL     OW 2617   1.274   2.248   3.124
  865SOL    HW1 2618   1.295   2.322   3.188
  865SOL    HW2 2619   1.185   2.265   3.081
  866SOL     OW 2620   0.064   3.426   3.193
  866SOL    HW1 2621   0.018   3.508   3.159
  866SOL    HW2 2622   0.162   3.445   3.202
  867SOL     OW 2623   0.367   2.962   2.363
  867SOL    HW1 2624   0.360   3.045   2.307
  867SOL    HW2 2625   0.371   2.882   2.303
  868SOL     OW 2626   0.566   2.399   2.727
  868SOL    HW1 2627   0.578   2.465   2.653
  868SOL    HW2 2628   0.612   2.433   2.810
  869SOL     OW 2629   1.252   3.210   2.250
  869SOL    HW1 2630   1.302   3.287   2.290
  869SOL    HW2 2631   1.157   3.212   2.282
  870SOL     OW 2632   1.272   3.307   3.004
  870SOL    HW1 2633   1.319   3.320   3.091
  870SOL    HW2 2634   1.206   3.233   3.013
  871SOL     OW 2635   1.582   2.501   2.334
  871SOL    HW1 2636   1.551   2.562   2.407
  871SOL    HW2 2637   1.632   2.553   2.265
  872SOL     OW 2638   0.354   3.372   3.191
  872SOL    HW1 2639   0.333   3.328   3.104
  872SOL    HW2 2640   0.451   3.398   3.194
  873SOL     OW 2641   0.402   2.613   3.460
  873SOL    HW1 2642   0.470   2.668   3.413
  873SOL    HW2 2643   0.442   2.525   3.487
  874SOL     OW 2644   1.587   2.641   3.532
  874SOL    HW1 2645   1.495   2.679   3.527
  874SOL    HW2 2646   1.647   2.688   3.467
  875SOL     OW 2647   1.013   1.967   3.632
  875SOL    HW1 2648   1.019   2.052   3.580
  875SOL    HW2 2649   1.045   1.891   3.575
  876SOL     OW 2650   0.504   1.912   3.602
  876SOL    HW1 2651   0.462   1.855   3.532
  876SOL    HW2 2652   0.438   1.981   3.634
  877SOL     OW 2653   0.573   2.732   2.891
  877SOL    HW1 2654   0.617   2.821   2.882
  877SOL    HW2 2655   0.510   2.732   2.968
  878SOL     OW 2656   1.360   2.724   2.907
  878SOL    HW1 2657   1.285   2.724   2.841
  878SOL    HW2 2658   1.397   2.632   2.916
  879SOL     OW 2659   1.209   2.387   2.137
  879SOL    HW1 2660   1.222   2.303   2.191
  879SOL    HW2 2661   1.180   2.461   2.197
  880SOL     OW 2662   0.307   2.075   3.093
  880SOL    HW1 2663   0.284   2.112   3.183
  880SOL    HW2 2664   0.277   1.980   3.087
  881SOL     OW 2665   0.037   3.172   3.144
  881SOL    HW1 2666   0.090   3.123   3.212
  881SOL    HW2 2667   0.059   3.270   3.149
  882SOL     OW 2668   0.732   2.496   2.926
  882SOL    HW1 2669   0.791   2.470   2.850
  882SOL    HW2 2670   0.704   2.592   2.915
  883SOL     OW 2671   1.728   2.797   3.716
  883SOL    HW1 2672   1.682   2.790   3.627
  883SOL    HW2 2673   1.666   2.841   3.782
  884SOL     OW 2674   0.307   1.925   2.480
  884SOL    HW1 2675   0.296   2.019   2.513
  884SOL    HW2 2676   0.302   1.862   2.557
  885SOL     OW 2677   1.622   2.229   2.236
  885SOL    HW1 2678   1.624   2.153   2.300
  885SOL    HW2 2679   1.574   2.306   2.276
  886SOL     OW 2680   1.023   2.628   2.828
  886SOL    HW1 2681   1.038   2.649   2.924
  886SOL    HW2 2682   0.993   2.533   2.819
  887SOL     OW 2683   0.980   3.435   3.562
  887SOL    HW1 2684   0.960   3.479   3.474
  887SOL    HW2 2685   1.019   3.344   3.546
  888SOL     OW 2686   1.859   3.380   3.467
  888SOL    HW1 2687   1.873   3.407   3.372
  888SOL    HW2 2688   1.942   3.402   3.520
  889SOL     OW 2689   0.350   2.760   3.666
  889SOL    HW1 2690   0.426   2.804   3.714
  889SOL    HW2 2691   0.385   2.713   3.584
  890SOL     OW 2692   1.540   2.136   1.987
  890SOL    HW1 2693   1.479   2.061   2.010
  890SOL    HW2 2694   1.562   2.188   2.070
  891SOL     OW 2695   1.303   2.700   1.904
  891SOL    HW1 2696   1.337   2.607   1.919
  891SOL    HW2 2697   1.321   2.727   1.809
  892SOL     OW 2698   1.068   3.195   2.711
  892SOL    HW1 2699   1.075   3.111   2.656
  892SOL    HW2 2700   1.130   3.264   2.675
  893SOL     OW 2701   0.319   2.672   2.811
  893SOL    HW1 2702   0.412   2.708   2.816
  893SOL    HW2 2703   0.313   2.587   2.863
  894SOL     OW 2704   0.339   2.371   2.868
  894SOL    HW1 2705   0.287   2.288   2.851
  894SOL    HW2 2706   0.416   2.376   2.804
  895SOL     OW 2707   1.138   2.242   3.540
  895SOL    HW1 2708   1.093   2.305   3.604
  895SOL    HW2 2709   1.231   2.273   3.523
  896SOL     OW 2710   1.160   2.069   3.339
  896SOL    HW1 2711   1.160   2.133   3.416
  896SOL    HW2 2712   1.188   2.117   3.256
  897SOL     OW 2713   0.008   3.188   2.062
  897SOL    HW1 2714  -0.085   3.209   2.031
  897SOL    HW2 2715   0.018   3.089   2.075
  898SOL     OW 2716   0.088   3.663   2.789
  898SOL    HW1 2717   0.046   3.577   2.762
  898SOL    HW2 2718   0.182   3.666   2.755
  899SOL     OW 2719   0.504   3.430   2.772
  899SOL    HW1 2720   0.570   3.504   2.781
  899SOL    HW2 2721   0.548   3.351   2.730
  900SOL     OW 2722   1.002   2.658   3.100
  900SOL    HW1 2723   1.043   2.626   3.186
  900SOL    HW2 2724   0.906   2.631   3.097
  901SOL     OW 2725   0.040   2.406   2.976
  901SOL    HW1 2726   0.125   2.373   2.935
  901SOL    HW2 2727   0.053   2.421   3.074
  902SOL     OW 2728   0.189   2.382   3.584
  902SOL    HW1 2729   0.248   2.342   3.514
  902SOL    HW2 2730   0.131   2.453   3.543
  903SOL     OW 2731   1.369   2.812   3.522
  903SOL    HW1 2732   1.408   2.901   3.542
  903SOL    HW2 2733   1.379   2.792   3.425
  904SOL     OW 2734   0.815   2.434   2.187
  904SOL    HW1 2735   0.822   2.345   2.141
  904SOL    HW2 2736   0.721   2.468   2.179
  905SOL     OW 2737   1.657   2.466   3.068
  905SOL    HW1 2738   1.619   2.397   3.130
  905SOL    HW2 2739   1.739   2.430   3.024
  906SOL     OW 2740   0.252   3.426   3.606
  906SOL    HW1 2741   0.222   3.483   3.682
  906SOL    HW2 2742   0.245   3.329   3.632
  907SOL     OW 2743   0.671   2.326   3.131
  907SOL    HW1 2744   0.637   2.237   3.101
  907SOL    HW2 2745   0.697   2.380   3.051
  908SOL     OW 2746   0.930   3.540   3.327
  908SOL    HW1 2747   0.906   3.522   3.232
  908SOL    HW2 2748   0.960   3.634   3.337
  909SOL     OW 2749   0.473   2.362   2.053
  909SOL    HW1 2750   0.534   2.442   2.057
  909SOL    HW2 2751   0.378   2.393   2.060
  910SOL     OW 2752   0.159   2.999   3.328
  910SOL    HW1 2753   0.181   2.938   3.404
  910SOL    HW2 2754   0.169   2.950   3.242
  911SOL     OW 2755   1.347   2.921   3.096
  911SOL    HW1 2756   1.371   2.858   3.022
  911SOL    HW2 2757   1.257   2.961   3.078
  912SOL     OW 2758   1.302   2.717   2.171
  912SOL    HW1 2759   1.216   2.686   2.213
  912SOL    HW2 2760   1.298   2.703   2.072
  913SOL     OW 2761   1.759   3.609   3.016
  913SOL    HW1 2762   1.820   3.639   2.943
  913SOL    HW2 2763   1.721   3.520   2.994
  914SOL     OW 2764   1.252   3.593   2.990
  914SOL    HW1 2765   1.336   3.598   2.936
  914SOL    HW2 2766   1.229   3.497   3.008
  915SOL     OW 2767   0.083   3.120   2.884
  915SOL    HW1 2768   0.078   3.119   2.984
  915SOL    HW2 2769   0.000   3.079   2.846
  916SOL     OW 2770   0.688   3.524   3.578
  916SOL    HW1 2771   0.632   3.605   3.587
  916SOL    HW2 2772   0.740   3.528   3.492
  917SOL     OW 2773   1.726   1.997   2.385
  917SOL    HW1 2774   1.799   1.980   2.318
  917SOL    HW2 2775   1.695   1.910   2.423
  918SOL     OW 2776   1.388   3.435   2.339
  918SOL    HW1 2777   1.455   3.447   2.265
  918SOL    HW2 2778   1.348   3.524   2.362
  919SOL     OW 2779   0.130   3.656   3.713
  919SOL    HW1 2780   0.089   3.582   3.766
  919SOL    HW2 2781   0.194   3.707   3.771
  920SOL     OW 2782   1.280   2.789   2.534
  920SOL    HW1 2783   1.340   2.708   2.536
  920SOL    HW2 2784   1.320   2.858   2.474
  921SOL     OW 2785   0.830   3.135   3.284
  921SOL    HW1 2786   0.825   3.168   3.379
  921SOL    HW2 2787   0.744   3.154   3.238
  922SOL     OW 2788   0.672   3.478   2.016
  922SOL    HW1 2789   0.681   3.488   1.917
  922SOL    HW2 2790   0.632   3.389   2.037
  923SOL     OW 2791   1.650   3.582   3.256
  923SOL    HW1 2792   1.703   3.592   3.172
  923SOL    HW2 2793   1.623   3.672   3.290
  924SOL     OW 2794   1.841   2.037   2.825
  924SOL    HW1 2795   1.880   1.952   2.789
  924SOL    HW2 2796   1.743   2.039   2.806
  925SOL     OW 2797   0.263   2.188   2.582
  925SOL    HW1 2798   0.184   2.239   2.548
  925SOL    HW2 2799   0.254   2.173   2.680
  926SOL     OW 2800   1.194   3.474   1.893
  926SOL    HW1 2801   1.200   3.381   1.930
  926SOL    HW2 2802   1.135   3.474   1.813
  927SOL     OW 2803   0.822   2.864   3.234
  927SOL    HW1 2804   0.862   2.863   3.142
  927SOL    HW2 2805   0.832   2.956   3.274
  928SOL     OW 2806   0.916   2.772   2.153
  928SOL    HW1 2807   0.979   2.810   2.085
  928SOL    HW2 2808   0.956   2.689   2.192
  929SOL     OW 2809   1.504   3.469   1.906
  929SOL    HW1 2810   1.412   3.506   1.913
  929SOL    HW2 2811   1.542   3.489   1.816
  930SOL     OW 2812   0.372   3.150   3.352
  930SOL    HW1 2813   0.359   3.243   3.318
  930SOL    HW2 2814   0.288   3.098   3.339
  931SOL     OW 2815   1.614   3.154   3.151
  931SOL    HW1 2816   1.674   3.157   3.231
  931SOL    HW2 2817   1.539   3.218   3.164
  932SOL     OW 2818   1.039   2.960   2.558
  932SOL    HW1 2819   0.969   2.913   2.612
  932SOL    HW2 2820   1.098   2.892   2.515
  933SOL     OW 2821   1.014   2.098   2.833
  933SOL    HW1 2822   1.006   2.062   2.740
  933SOL    HW2 2823   1.012   2.022   2.898
  934SOL     OW 2824   0.590   3.349   2.353
  934SOL    HW1 2825   0.632   3.291   2.283
  934SOL    HW2 2826   0.546   3.428   2.309
  935SOL     OW 2827   1.709   2.247   3.243
  935SOL    HW1 2828   1.782   2.316   3.247
  935SOL    HW2 2829   1.737   2.172   3.184
  936SOL     OW 2830   0.255   3.210   2.152
  936SOL    HW1 2831   0.159   3.211   2.125
  936SOL    HW2 2832   0.267   3.263   2.236
  937SOL     OW 2833   0.105   2.875   3.588
  937SOL    HW1 2834   0.028   2.842   3.642
  937SOL    HW2 2835   0.190   2.845   3.630
  938SOL     OW 2836   0.672   2.065   3.351
  938SOL    HW1 2837   0.762   2.049   3.311
  938SOL    HW2 2838   0.680   2.070   3.450
  939SOL     OW 2839   0.075   2.207   1.895
  939SOL    HW1 2840  -0.017   2.179   1.866
  939SOL    HW2 2841   0.106   2.284   1.839
  940SOL     OW 2842   1.440   2.718   3.260
  940SOL    HW1 2843   1.383   2.770   3.197
  940SOL    HW2 2844   1.536   2.730   3.236
  941SOL     OW 2845   0.072   2.028   2.180
  941SOL    HW1 2846   0.055   2.111   2.126
  941SOL    HW2 2847   0.162   1.991   2.158
  942SOL     OW 2848   1.183   3.197   1.981
  942SOL    HW1 2849   1.084   3.186   1.983
  942SOL    HW2 2850   1.217   3.212   2.074
  943SOL     OW 2851   0.613   2.704   3.293
  943SOL    HW1 2852   0.669   2.785   3.276
  943SOL    HW2 2853   0.672   2.624   3.296
  944SOL     OW 2854   1.493   3.629   2.821
  944SOL    HW1 2855   1.526   3.693   2.752
  944SOL    HW2 2856   1.559   3.623   2.896
  945SOL     OW 2857   0.716   2.427   3.570
  945SOL    HW1 2858   0.735   2.492   3.644
  945SOL    HW2 2859   0.776   2.347   3.579
  946SOL     OW 2860   1.450   3.082   3.495
  946SOL    HW1 2861   1.441   3.072   3.594
  946SOL    HW2 2862   1.546   3.075   3.469
  947SOL     OW 2863   0.390   3.603   3.422
  947SOL    HW1 2864   0.299   3.644   3.420
  947SOL    HW2 2865   0.383   3.509   3.454
  948SOL     OW 2866   1.674   2.745   3.116
  948SOL    HW1 2867   1.647   2.656   3.079
  948SOL    HW2 2868   1.675   2.813   3.043
  949SOL     OW 2869   1.225   2.187   2.311
  949SOL    HW1 2870   1.290   2.113   2.300
  949SOL    HW2 2871   1.245   2.237   2.395
  950SOL     OW 2872   0.594   2.607   2.514
  950SOL    HW1 2873   0.644   2.692   2.495
  950SOL    HW2 2874   0.506   2.609   2.466
  951SOL     OW 2875   1.777   2.204   3.504
  951SOL    HW1 2876   1.760   2.235   3.410
  951SOL    HW2 2877   1.693   2.167   3.542
  952SOL     OW 2878   1.730   2.796   3.379
  952SOL    HW1 2879   1.768   2.887   3.394
  952SOL    HW2 2880   1.722   2.779   3.280
  953SOL     OW 2881   0.859   3.236   1.878
  953SOL    HW1 2882   0.813   3.251   1.966
  953SOL    HW2 2883   0.903   3.321   1.848
  954SOL     OW 2884   0.661   3.652   2.815
  954SOL    HW1 2885   0.615   3.740   2.802
  954SOL    HW2 2886   0.760   3.664   2.808
  955SOL     OW 2887   0.859   2.818   2.723
  955SOL    HW1 2888   0.913   2.749   2.771
  955SOL    HW2 2889   0.827   2.887   2.789
  956SOL     OW 2890   1.083   2.846   1.949
  956SOL    HW1 2891   1.060   2.899   1.867
  956SOL    HW2 2892   1.164   2.790   1.930
  957SOL     OW 2893   1.861   3.431   2.713
  957SOL    HW1 2894   1.790   3.419   2.643
  957SOL    HW2 2895   1.862   3.352   2.773
  958SOL     OW 2896   0.221   3.176   3.706
  958SOL    HW1 2897   0.156   3.103   3.685
  958SOL    HW2 2898   0.225   3.190   3.804
  959SOL     OW 2899   0.079   3.102   2.515
  959SOL    HW1 2900   0.078   3.055   2.603
  959SOL    HW2 2901   0.161   3.074   2.464
  960SOL     OW 2902   0.672   3.253   3.486
  960SOL    HW1 2903   0.594   3.203   3.524
  960SOL    HW2 2904   0.669   3.348   3.517
  961SOL     OW 2905   1.824   2.054   3.089
  961SOL    HW1 2906   1.820   1.964   3.133
  961SOL    HW2 2907   1.827   2.043   2.990
  962SOL     OW 2908   0.428   2.286   2.382
  962SOL    HW1 2909   0.458   2.214   2.320
  962SOL    HW2 2910   0.389   2.246   2.465
  963SOL     OW 2911   1.705   3.349   2.966
  963SOL    HW1 2912   1.612   3.324   2.939
  963SOL    HW2 2913   1.731   3.299   3.048
  964SOL     OW 2914   0.317   2.409   3.142
  964SOL    HW1 2915   0.355   2.350   3.214
  964SOL    HW2 2916   0.357   2.383   3.054
  965SOL     OW 2917   0.812   3.448   2.549
  965SOL    HW1 2918   0.844   3.458   2.455
  965SOL    HW2 2919   0.733   3.386   2.551
  966SOL     OW 2920   1.424   2.076   2.974
  966SOL    HW1 2921   1.476   2.011   3.029
  966SOL    HW2 2922   1.375   2.139   3.035
  967SOL     OW 2923   1.001   1.896   3.016
  967SOL    HW1 2924   0.938   1.824   2.985
  967SOL    HW2 2925   1.094   1.860   3.016
  968SOL     OW 2926   0.770   3.192   2.163
  968SOL    HW1 2927   0.724   3.105   2.180
  968SOL    HW2 2928   0.861   3.189   2.204
  969SOL     OW 2929   0.618   3.429   3.146
  969SOL    HW1 2930   0.613   3.511   3.203
  969SOL    HW2 2931   0.707   3.426   3.101
  970SOL     OW 2932   1.352   1.914   2.030
  970SOL    HW1 2933   1.387   1.873   1.946
  970SOL    HW2 2934   1.262   1.876   2.050
  971SOL     OW 2935   1.300   2.315   2.553
  971SOL    HW1 2936   1.241   2.395   2.557
  971SOL    HW2 2937   1.315   2.280   2.646
  972SOL     OW 2938   1.593   2.083   2.744
  972SOL    HW1 2939   1.509   2.082   2.798
  972SOL    HW2 2940   1.595   2.166   2.688
  973SOL     OW 2941   0.039   2.939   2.162
  973SOL    HW1 2942   0.138   2.928   2.153
  973SOL    HW2 2943  -0.001   2.853   2.194
  974SOL     OW 2944   0.875   3.508   2.199
  974SOL    HW1 2945   0.798   3.473   2.145
  974SOL    HW2 2946   0.843   3.579   2.261
  975SOL     OW 2947   0.230   2.490   3.837
  975SOL    HW1 2948   0.137   2.488   3.874
  975SOL    HW2 2949   0.231   2.451   3.745
  976SOL     OW 2950   0.225   2.137   4.720
  976SOL    HW1 2951   0.260   2.120   4.812
  976SOL    HW2 2952   0.137   2.092   4.708
  977SOL     OW 2953   0.019   2.230   4.371
  977SOL    HW1 2954  -0.063   2.273   4.410
  977SOL    HW2 2955  -0.009   2.157   4.308
  978SOL     OW 2956   1.555   3.373   4.427
  978SOL    HW1 2957   1.498   3.357   4.508
  978SOL    HW2 2958   1.496   3.383   4.347
  979SOL     OW 2959   1.135   2.565   4.441
  979SOL    HW1 2960   1.192   2.643   4.416
  979SOL    HW2 2961   1.075   2.591   4.517
  980SOL     OW 2962   1.755   2.469   3.955
  980SOL    HW1 2963   1.743   2.456   3.856
  980SOL    HW2 2964   1.725   2.388   4.004
  981SOL     OW 2965   0.768   3.006   4.747
  981SOL    HW1 2966   0.690   3.023   4.807
  981SOL    HW2 2967   0.802   3.093   4.711
  982SOL     OW 2968   0.685   2.874   4.389
  982SOL    HW1 2969   0.754   2.858   4.459
  982SOL    HW2 2970   0.612   2.931   4.427
  983SOL     OW 2971   0.335   3.297   4.785
  983SOL    HW1 2972   0.257   3.266   4.732
  983SOL    HW2 2973   0.393   3.355   4.728
  984SOL     OW 2974   1.603   2.309   4.461
  984SOL    HW1 2975   1.529   2.355   4.411
  984SOL    HW2 2976   1.654   2.377   4.514
  985SOL     OW 2977   0.231   3.575   4.207
  985SOL    HW1 2978   0.265   3.652   4.261
  985SOL    HW2 2979   0.275   3.575   4.117
  986SOL     OW 2980   0.230   3.296   4.262
  986SOL    HW1 2981   0.204   3.392   4.262
  986SOL    HW2 2982   0.159   3.242   4.307
  987SOL     OW 2983   0.240   2.953   4.610
  987SOL    HW1 2984   0.254   2.869   4.662
  987SOL    HW2 2985   0.185   3.017   4.665
  988SOL     OW 2986   0.606   2.826   3.847
  988SOL    HW1 2987   0.613   2.910   3.793
  988SOL    HW2 2988   0.652   2.839   3.935
  989SOL     OW 2989   0.122   2.505   4.287
  989SOL    HW1 2990   0.077   2.417   4.304
  989SOL    HW2 2991   0.121   2.559   4.371
  990SOL     OW 2992   1.842   3.629   4.083
  990SOL    HW1 2993   1.896   3.600   4.163
  990SOL    HW2 2994   1.872   3.719   4.054
  991SOL     OW 2995   0.027   3.458   3.841
  991SOL    HW1 2996   0.008   3.362   3.862
  991SOL    HW2 2997  -0.006   3.516   3.916
  992SOL     OW 2998   1.689   2.784   4.336
  992SOL    HW1 2999   1.784   2.755   4.344
  992SOL    HW2 3000   1.681   2.849   4.261
  993SOL     OW 3001   1.641   2.970   4.156
  993SOL    HW1 3002   1.727   2.972   4.104
  993SOL    HW2 3003   1.655   3.017   4.244
  994SOL     OW 3004   0.613   3.227   4.450
  994SOL    HW1 3005   0.564   3.140   4.459
  994SOL    HW2 3006   0.590   3.270   4.363
  995SOL     OW 3007   0.809   1.866   4.226
  995SOL    HW1 3008   0.849   1.957   4.217
  995SOL    HW2 3009   0.709   1.874   4.232
  996SOL     OW 3010   1.525   2.861   3.914
  996SOL    HW1 3011   1.462   2.785   3.927
  996SOL    HW2 3012   1.573   2.879   4.000
  997SOL     OW 3013   1.466   3.279   4.677
  997SOL    HW1 3014   1.407   3.285   4.757
  997SOL    HW2 3015   1.451   3.191   4.631
  998SOL     OW 3016   1.667   3.576   4.296
  998SOL    HW1 3017   1.626   3.553   4.208
  998SOL    HW2 3018   1.649   3.502   4.361
  999SOL     OW 3019   0.598   2.591   3.994
  999SOL    HW1 3020   0.622   2.660   3.926
  999SOL    HW2 3021   0.520   2.624   4.048
 1000SOL     OW 3022   1.281   2.207   4.668
 1000SOL    HW1 3023   1.195   2.157   4.655
 1000SOL    HW2 3024   1.343   2.153   4.724
 1001SOL     OW 3025   1.576   3.524   4.031
 1001SOL    HW1 3026   1.665   3.570   4.034
 1001SOL    HW2 3027   1.555   3.500   3.936
 1002SOL     OW 3028   1.041   2.563   4.153
 1002SOL    HW1 3029   1.067   2.559   4.249
 1002SOL    HW2 3030   0.956   2.512   4.139
 1003SOL     OW 3031   0.076   2.673   4.513
 1003SOL    HW1 3032   0.175   2.661   4.522
 1003SOL    HW2 3033   0.052   2.768   4.534
 1004SOL     OW 3034   0.865   2.210   3.919
 1004SOL    HW1 3035   0.924   2.273   3.870
 1004SOL    HW2 3036   0.884   2.116   3.890
 1005SOL     OW 3037   1.362   3.006   4.269
 1005SOL    HW1 3038   1.445   2.977   4.221
 1005SOL    HW2 3039   1.313   3.073   4.213
 1006SOL     OW 3040   0.550   2.058   4.609
 1006SOL    HW1 3041   0.545   2.053   4.709
 1006SOL    HW2 3042   0.552   2.154   4.580
 1007SOL     OW 3043   1.008   3.318   4.201
 1007SOL    HW1 3044   0.962   3.390   4.149
 1007SOL    HW2 3045   1.004   3.338   4.299
 1008SOL     OW 3046   0.351   3.663   4.577
 1008SOL    HW1 3047   0.401   3.577   4.583
 1008SOL    HW2 3048   0.416   3.740   4.574
 1009SOL     OW 3049   1.795   2.928   4.597
 1009SOL    HW1 3050   1.733   2.913   4.521
 1009SOL    HW2 3051   1.743   2.939   4.682
 1010SOL     OW 3052   0.321   2.805   3.966
 1010SOL    HW1 3053   0.403   2.844   3.924
 1010SOL    HW2 3054   0.294   2.723   3.917
 1011SOL     OW 3055   1.458   2.597   4.452
 1011SOL    HW1 3056   1.453   2.532   4.527
 1011SOL    HW2 3057   1.538   2.656   4.465
 1012SOL     OW 3058   1.111   3.638   3.961
 1012SOL    HW1 3059   1.051   3.576   4.011
 1012SOL    HW2 3060   1.142   3.594   3.876
 1013SOL     OW 3061   1.632   3.239   3.805
 1013SOL    HW1 3062   1.600   3.333   3.795
 1013SOL    HW2 3063   1.556   3.176   3.793
 1014SOL     OW 3064   0.464   3.605   4.047
 1014SOL    HW1 3065   0.497   3.644   4.133
 1014SOL    HW2 3066   0.540   3.598   3.982
 1015SOL     OW 3067   1.400   1.969   4.150
 1015SOL    HW1 3068   1.376   1.932   4.060
 1015SOL    HW2 3069   1.499   1.985   4.154
 1016SOL     OW 3070   0.249   3.647   4.965
 1016SOL    HW1 3071   0.306   3.582   5.015
 1016SOL    HW2 3072   0.233   3.614   4.872
 1017SOL     OW 3073   0.940   3.560   4.628
 1017SOL    HW1 3074   1.020   3.503   4.649
 1017SOL    HW2 3075   0.891   3.520   4.551
 1018SOL     OW 3076   0.382   2.562   4.204
 1018SOL    HW1 3077   0.427   2.472   4.201
 1018SOL    HW2 3078   0.288   2.551   4.237
 1019SOL     OW 3079   0.614   1.984   3.841
 1019SOL    HW1 3080   0.712   1.962   3.848
 1019SOL    HW2 3081   0.583   1.967   3.748
 1020SOL     OW 3082   0.803   3.264   4.648
 1020SOL    HW1 3083   0.893   3.278   4.606
 1020SOL    HW2 3084   0.732   3.266   4.577
 1021SOL     OW 3085   0.922   2.365   4.623
 1021SOL    HW1 3086   0.897   2.356   4.527
 1021SOL    HW2 3087   0.970   2.283   4.654
 1022SOL     OW 3088   0.539   1.926   4.236
 1022SOL    HW1 3089   0.458   1.927   4.294
 1022SOL    HW2 3090   0.542   2.009   4.181
 1023SOL     OW 3091   1.434   3.050   3.765
 1023SOL    HW1 3092   1.466   2.974   3.822
 1023SOL    HW2 3093   1.342   3.077   3.795
 1024SOL     OW 3094   0.297   1.897   3.895
 1024SOL    HW1 3095   0.346   1.981   3.874
 1024SOL    HW2 3096   0.359   1.832   3.940
 1025SOL     OW 3097   0.935   2.098   4.204
 1025SOL    HW1 3098   0.887   2.139   4.126
 1025SOL    HW2 3099   1.034   2.096   4.185
 1026SOL     OW 3100   1.227   3.432   4.517
 1026SOL    HW1 3101   1.248   3.506   4.452
 1026SOL    HW2 3102   1.295   3.432   4.590
 1027SOL     OW 3103   0.459   3.014   4.465
 1027SOL    HW1 3104   0.388   2.987   4.530
 1027SOL    HW2 3105   0.433   2.986   4.372
 1028SOL     OW 3106   1.271   3.659   4.315
 1028SOL    HW1 3107   1.315   3.723   4.251
 1028SOL    HW2 3108   1.221   3.711   4.385
 1029SOL     OW 3109   1.032   2.411   3.740
 1029SOL    HW1 3110   0.991   2.493   3.701
 1029SOL    HW2 3111   1.096   2.437   3.813
 1030SOL     OW 3112   0.866   2.316   4.366
 1030SOL    HW1 3113   0.834   2.388   4.304
 1030SOL    HW2 3114   0.890   2.235   4.313
 1031SOL     OW 3115   1.017   1.901   4.477
 1031SOL    HW1 3116   0.945   1.906   4.408
 1031SOL    HW2 3117   0.993   1.832   4.546
 1032SOL     OW 3118   1.429   3.035   4.591
 1032SOL    HW1 3119   1.374   2.951   4.584
 1032SOL    HW2 3120   1.455   3.064   4.499
 1033SOL     OW 3121   1.466   2.452   4.716
 1033SOL    HW1 3122   1.436   2.357   4.723
 1033SOL    HW2 3123   1.539   2.468   4.782
 1034SOL     OW 3124   1.857   2.695   4.101
 1034SOL    HW1 3125   1.899   2.631   4.165
 1034SOL    HW2 3126   1.819   2.644   4.023
 1035SOL     OW 3127   0.488   3.247   3.898
 1035SOL    HW1 3128   0.401   3.232   3.945
 1035SOL    HW2 3129   0.471   3.273   3.803
 1036SOL     OW 3130   1.664   3.142   4.381
 1036SOL    HW1 3131   1.763   3.150   4.395
 1036SOL    HW2 3132   1.619   3.226   4.412
 1037SOL     OW 3133   1.390   2.437   3.802
 1037SOL    HW1 3134   1.336   2.416   3.883
 1037SOL    HW2 3135   1.481   2.396   3.811
 1038SOL     OW 3136   0.527   2.118   4.052
 1038SOL    HW1 3137   0.554   2.059   3.977
 1038SOL    HW2 3138   0.527   2.213   4.021
 1039SOL     OW 3139   1.638   2.961   4.803
 1039SOL    HW1 3140   1.643   3.042   4.862
 1039SOL    HW2 3141   1.552   2.963   4.752
 1040SOL     OW 3142   0.705   2.912   4.092
 1040SOL    HW1 3143   0.691   2.919   4.191
 1040SOL    HW2 3144   0.789   2.861   4.074
 1041SOL     OW 3145   0.367   2.962   4.225
 1041SOL    HW1 3146   0.360   3.045   4.169
 1041SOL    HW2 3147   0.371   2.882   4.165
 1042SOL     OW 3148   0.566   2.399   4.589
 1042SOL    HW1 3149   0.578   2.465   4.515
 1042SOL    HW2 3150   0.612   2.433   4.672
 1043SOL     OW 3151   1.252   3.210   4.112
 1043SOL    HW1 3152   1.302   3.287   4.152
 1043SOL    HW2 3153   1.157   3.212   4.144
 1044SOL     OW 3154   1.582   2.501   4.196
 1044SOL    HW1 3155   1.551   2.562   4.269
 1044SOL    HW2 3156   1.632   2.553   4.127
 1045SOL     OW 3157   0.573   2.732   4.753
 1045SOL    HW1 3158   0.617   2.821   4.744
 1045SOL    HW2 3159   0.510   2.732   4.830
 1046SOL     OW 3160   1.209   2.387   3.999
 1046SOL    HW1 3161   1.222   2.303   4.053
 1046SOL    HW2 3162   1.180   2.461   4.059
 1047SOL     OW 3163   0.307   2.075   4.955
 1047SOL    HW1 3164   0.284   2.112   5.045
 1047SOL    HW2 3165   0.277   1.980   4.949
 1048SOL     OW 3166   0.732   2.496   4.788
 1048SOL    HW1 3167   0.791   2.470   4.712
 1048SOL    HW2 3168   0.704   2.592   4.777
 1049SOL     OW 3169   0.307   1.925   4.342
 1049SOL    HW1 3170   0.296   2.019   4.375
 1049SOL    HW2 3171   0.302   1.862   4.419
 1050SOL     OW 3172   1.622   2.229   4.098
 1050SOL    HW1 3173   1.624   2.153   4.162
 1050SOL    HW2 3174   1.574   2.306   4.138
 1051SOL     OW 3175   1.540   2.136   3.849
 1051SOL    HW1 3176   1.479   2.061   3.872
 1051SOL    HW2 3177   1.562   2.188   3.932
 1052SOL     OW 3178   1.303   2.700   3.766
 1052SOL    HW1 3179   1.337   2.607   3.781
 1052SOL    HW2 3180   1.321   2.727   3.671
 1053SOL     OW 3181   1.068   3.195   4.573
 1053SOL    HW1 3182   1.075   3.111   4.518
 1053SOL    HW2 3183   1.130   3.264   4.537
 1054SOL     OW 3184   0.319   2.672   4.673
 1054SOL    HW1 3185   0.412   2.708   4.678
 1054SOL    HW2 3186   0.313   2.587   4.725
 1055SOL     OW 3187   0.339   2.371   4.730
 1055SOL    HW1 3188   0.287   2.288   4.713
 1055SOL    HW2 3189   0.416   2.376   4.666
 1056SOL     OW 3190   0.008   3.188   3.924
 1056SOL    HW1 3191  -0.085   3.209   3.893
 1056SOL    HW2 3192   0.018   3.089   3.937
 1057SOL     OW 3193   0.088   3.663   4.651
 1057SOL    HW1 3194   0.046   3.577   4.624
 1057SOL    HW2 3195   0.182   3.666   4.617
 1058SOL     OW 3196   0.504   3.430   4.634
 1058SOL    HW1 3197   0.570   3.504   4.643
 1058SOL    HW2 3198   0.548   3.351   4.592
 1059SOL     OW 3199   1.002   2.658   4.962
 1059SOL    HW1 3200   1.043   2.626   5.048
 1059SOL    HW2 3201   0.906   2.631   4.959
 1060SOL     OW 3202   0.815   2.434   4.049
 1060SOL    HW1 3203   0.822   2.345   4.003
 1060SOL    HW2 3204   0.721   2.468   4.041
 1061SOL     OW 3205   0.671   2.326   4.993
 1061SOL    HW1 3206   0.637   2.237   4.963
 1061SOL    HW2 3207   0.697   2.380   4.913
 1062SOL     OW 3208   0.473   2.362   3.915
 1062SOL    HW1 3209   0.534   2.442   3.919
 1062SOL    HW2 3210   0.378   2.393   3.922
 1063SOL     OW 3211   1.302   2.717   4.033
 1063SOL    HW1 3212   1.216   2.686   4.075
 1063SOL    HW2 3213   1.298   2.703   3.934
 1064SOL     OW 3214   1.759   3.609   4.878
 1064SOL    HW1 3215   1.820   3.639   4.805
 1064SOL    HW2 3216   1.721   3.520   4.856
 1065SOL     OW 3217   0.083   3.120   4.746
 1065SOL    HW1 3218   0.078   3.119   4.846
 1065SOL    HW2 3219   0.000   3.079   4.708
 1066SOL     OW 3220   1.726   1.997   4.247
 1066SOL    HW1 3221   1.799   1.980   4.180
 1066SOL    HW2 3222   1.695   1.910   4.285
 1067SOL     OW 3223   1.388   3.435   4.201
 1067SOL    HW1 3224   1.455   3.447   4.127
 1067SOL    HW2 3225   1.348   3.524   4.224
 1068SOL     OW 3226   1.280   2.789   4.396
 1068SOL    HW1 3227   1.340   2.708   4.398
 1068SOL    HW2 3228   1.320   2.858   4.336
 1069SOL     OW 3229   0.672   3.478   3.878
 1069SOL    HW1 3230   0.681   3.488   3.779
 1069SOL    HW2 3231   0.632   3.389   3.899
 1070SOL     OW 3232   1.841   2.037   4.687
 1070SOL    HW1 3233   1.880   1.952   4.651
 1070SOL    HW2 3234   1.743   2.039   4.668
 1071SOL     OW 3235   0.263   2.188   4.444
 1071SOL    HW1 3236   0.184   2.239   4.410
 1071SOL    HW2 3237   0.254   2.173   4.542
 1072SOL     OW 3238   1.194   3.474   3.755
 1072SOL    HW1 3239   1.200   3.381   3.792
 1072SOL    HW2 3240   1.135   3.474   3.675
 1073SOL     OW 3241   0.916   2.772   4.015
 1073SOL    HW1 3242   0.979   2.810   3.947
 1073SOL    HW2 3243   0.956   2.689   4.054
 1074SOL     OW 3244   1.504   3.469   3.768
 1074SOL    HW1 3245   1.412   3.506   3.775
 1074SOL    HW2 3246   1.542   3.489   3.678
 1075SOL     OW 3247   1.039   2.960   4.420
 1075SOL    HW1 3248   0.969   2.913   4.474
 1075SOL    HW2 3249   1.098   2.892   4.377
 1076SOL     OW 3250   1.014   2.098   4.695
 1076SOL    HW1 3251   1.006   2.062   4.602
 1076SOL    HW2 3252   1.012   2.022   4.760
 1077SOL     OW 3253   0.590   3.349   4.215
 1077SOL    HW1 3254   0.632   3.291   4.145
 1077SOL    HW2 3255   0.546   3.428   4.171
 1078SOL     OW 3256   0.255   3.210   4.014
 1078SOL    HW1 3257   0.159   3.211   3.987
 1078SOL    HW2 3258   0.267   3.263   4.098
 1079SOL     OW 3259   0.075   2.207   3.757
 1079SOL    HW1 3260  -0.017   2.179   3.728
 1079SOL    HW2 3261   0.106   2.284   3.701
 1080SOL     OW 3262   0.072   2.028   4.042
 1080SOL    HW1 3263   0.055   2.111   3.988
 1080SOL    HW2 3264   0.162   1.991   4.020
 1081SOL     OW 3265   1.183   3.197   3.843
 1081SOL    HW1 3266   1.084   3.186   3.845
 1081SOL    HW2 3267   1.217   3.212   3.936
 1082SOL     OW 3268   1.674   2.745   4.978
 1082SOL    HW1 3269   1.647   2.656   4.941
 1082SOL    HW2 3270   1.675   2.813   4.905
 1083SOL     OW 3271   1.225   2.187   4.173
 1083SOL    HW1 3272   1.290   2.113   4.162
 1083SOL    HW2 3273   1.245   2.237   4.257
 1084SOL     OW 3274   0.594   2.607   4.376
 1084SOL    HW1 3275   0.644   2.692   4.357
 1084SOL    HW2 3276   0.506   2.609   4.328
 1085SOL     OW 3277   0.859   3.236   3.740
 1085SOL    HW1 3278   0.813   3.251   3.828
 1085SOL    HW2 3279   0.903   3.321   3.710
 1086SOL     OW 3280   0.661   3.652   4.677
 1086SOL    HW1 3281   0.615   3.740   4.664
 1086SOL    HW2 3282   0.760   3.664   4.670
 1087SOL     OW 3283   0.859   2.818   4.585
 1087SOL    HW1 3284   0.913   2.749   4.633
 1087SOL    HW2 3285   0.827   2.887   4.651
 1088SOL     OW 3286   1.083   2.846   3.811
 1088SOL    HW1 3287   1.060   2.899   3.729
 1088SOL    HW2 3288   1.164   2.790   3.792
 1089SOL     OW 3289   1.861   3.431   4.575
 1089SOL    HW1 3290   1.790   3.419   4.505
 1089SOL    HW2 3291   1.862   3.352   4.635
 1090SOL     OW 3292   0.079   3.102   4.377
 1090SOL    HW1 3293   0.078   3.055   4.465
 1090SOL    HW2 3294   0.161   3.074   4.326
 1091SOL     OW 3295   1.824   2.054   4.951
 1091SOL    HW1 3296   1.820   1.964   4.995
 1091SOL    HW2 3297   1.827   2.043   4.852
 1092SOL     OW 3298   0.428   2.286   4.244
 1092SOL    HW1 3299   0.458   2.214   4.182
 1092SOL    HW2 3300   0.389   2.246   4.327
 1093SOL     OW 3301   0.812   3.448   4.411
 1093SOL    HW1 3302   0.844   3.458   4.317
 1093SOL    HW2 3303   0.733   3.386   4.413
 1094SOL     OW 3304   0.770   3.192   4.025
 1094SOL    HW1 3305   0.724   3.105   4.042
 1094SOL    HW2 3306   0.861   3.189   4.066
 1095SOL     OW 3307   1.352   1.914   3.892
 1095SOL    HW1 3308   1.387   1.873   3.808
 1095SOL    HW2 3309   1.262   1.876   3.912
 1096SOL     OW 3310   1.300   2.315   4.415
 1096SOL    HW1 3311   1.241   2.395   4.419
 1096SOL    HW2 3312   1.315   2.280   4.508
 1097SOL     OW 3313   1.593   2.083   4.606
 1097SOL    HW1 3314   1.509   2.082   4.660
 1097SOL    HW2 3315   1.595   2.166   4.550
 1098SOL     OW 3316   0.039   2.939   4.024
 1098SOL    HW1 3317   0.138   2.928   4.015
 1098SOL    HW2 3318  -0.001   2.853   4.056
 1099SOL     OW 3319   0.875   3.508   4.061
 1099SOL    HW1 3320   0.798   3.473   4.007
 1099SOL    HW2 3321   0.843   3.579   4.123
 1100SOL     OW 3322   0.230   4.352   0.113
 1100SOL    HW1 3323   0.137   4.350   0.150
 1100SOL    HW2 3324   0.231   4.313   0.021
 1101SOL     OW 3325   0.225   3.999   0.996
 1101SOL    HW1 3326   0.260   3.982   1.088
 1101SOL    HW2 3327   0.137   3.954   0.984
 1102SOL     OW 3328   0.019   4.092   0.647
 1102SOL    HW1 3329  -0.063   4.135   0.686
 1102SOL    HW2 3330  -0.009   4.019   0.584
 1103SOL     OW 3331   1.135   4.427   0.717
 1103SOL    HW1 3332   1.192   4.505   0.692
 1103SOL    HW2 3333   1.075   4.453   0.793
 1104SOL     OW 3334   1.755   4.331   0.231
 1104SOL    HW1 3335   1.743   4.318   0.132
 1104SOL    HW2 3336   1.725   4.250   0.280
 1105SOL     OW 3337   0.768   4.868   1.023
 1105SOL    HW1 3338   0.690   4.885   1.083
 1105SOL    HW2 3339   0.802   4.955   0.987
 1106SOL     OW 3340   0.850   4.522   1.823
 1106SOL    HW1 3341   0.846   4.598   1.888
 1106SOL    HW2 3342   0.872   4.558   1.732
 1107SOL     OW 3343   0.685   4.736   0.665
 1107SOL    HW1 3344   0.754   4.720   0.735
 1107SOL    HW2 3345   0.612   4.793   0.703
 1108SOL     OW 3346   0.438   4.116   1.499
 1108SOL    HW1 3347   0.520   4.060   1.508
 1108SOL    HW2 3348   0.357   4.058   1.503
 1109SOL     OW 3349   1.603   4.171   0.737
 1109SOL    HW1 3350   1.529   4.217   0.687
 1109SOL    HW2 3351   1.654   4.239   0.790
 1110SOL     OW 3352   0.240   4.815   0.886
 1110SOL    HW1 3353   0.254   4.731   0.938
 1110SOL    HW2 3354   0.185   4.879   0.941
 1111SOL     OW 3355   0.606   4.688   0.123
 1111SOL    HW1 3356   0.613   4.772   0.069
 1111SOL    HW2 3357   0.652   4.701   0.211
 1112SOL     OW 3358   1.594   3.838   1.480
 1112SOL    HW1 3359   1.576   3.905   1.408
 1112SOL    HW2 3360   1.591   3.884   1.569
 1113SOL     OW 3361   0.122   4.367   0.563
 1113SOL    HW1 3362   0.077   4.279   0.580
 1113SOL    HW2 3363   0.121   4.421   0.647
 1114SOL     OW 3364   1.689   4.646   0.612
 1114SOL    HW1 3365   1.784   4.617   0.620
 1114SOL    HW2 3366   1.681   4.711   0.537
 1115SOL     OW 3367   0.113   4.461   1.597
 1115SOL    HW1 3368   0.201   4.448   1.642
 1115SOL    HW2 3369   0.100   4.558   1.575
 1116SOL     OW 3370   0.809   3.728   0.502
 1116SOL    HW1 3371   0.849   3.819   0.493
 1116SOL    HW2 3372   0.709   3.736   0.508
 1117SOL     OW 3373   0.197   4.700   1.264
 1117SOL    HW1 3374   0.286   4.655   1.250
 1117SOL    HW2 3375   0.124   4.635   1.245
 1118SOL     OW 3376   1.525   4.723   0.190
 1118SOL    HW1 3377   1.462   4.647   0.203
 1118SOL    HW2 3378   1.573   4.741   0.276
 1119SOL     OW 3379   0.317   3.975   1.801
 1119SOL    HW1 3380   0.388   4.046   1.807
 1119SOL    HW2 3381   0.229   4.014   1.829
 1120SOL     OW 3382   0.598   4.453   0.270
 1120SOL    HW1 3383   0.622   4.522   0.202
 1120SOL    HW2 3384   0.520   4.486   0.324
 1121SOL     OW 3385   1.281   4.069   0.944
 1121SOL    HW1 3386   1.195   4.019   0.931
 1121SOL    HW2 3387   1.343   4.015   1.000
 1122SOL     OW 3388   0.807   4.329   1.465
 1122SOL    HW1 3389   0.760   4.326   1.554
 1122SOL    HW2 3390   0.756   4.274   1.399
 1123SOL     OW 3391   1.394   4.193   1.674
 1123SOL    HW1 3392   1.374   4.236   1.762
 1123SOL    HW2 3393   1.472   4.131   1.683
 1124SOL     OW 3394   0.973   4.614   1.572
 1124SOL    HW1 3395   1.019   4.530   1.543
 1124SOL    HW2 3396   0.917   4.648   1.497
 1125SOL     OW 3397   0.991   4.134   1.242
 1125SOL    HW1 3398   0.914   4.168   1.296
 1125SOL    HW2 3399   0.957   4.083   1.163
 1126SOL     OW 3400   1.041   4.425   0.429
 1126SOL    HW1 3401   1.067   4.421   0.525
 1126SOL    HW2 3402   0.956   4.374   0.415
 1127SOL     OW 3403   0.076   4.535   0.789
 1127SOL    HW1 3404   0.175   4.523   0.798
 1127SOL    HW2 3405   0.052   4.630   0.810
 1128SOL     OW 3406   0.865   4.072   0.195
 1128SOL    HW1 3407   0.924   4.135   0.146
 1128SOL    HW2 3408   0.884   3.978   0.166
 1129SOL     OW 3409   1.719   4.309   1.831
 1129SOL    HW1 3410   1.693   4.398   1.795
 1129SOL    HW2 3411   1.717   4.241   1.758
 1130SOL     OW 3412   0.550   3.920   0.885
 1130SOL    HW1 3413   0.545   3.915   0.985
 1130SOL    HW2 3414   0.552   4.016   0.856
 1131SOL     OW 3415   1.458   4.459   0.728
 1131SOL    HW1 3416   1.453   4.394   0.803
 1131SOL    HW2 3417   1.538   4.518   0.741
 1132SOL     OW 3418   0.202   4.009   1.498
 1132SOL    HW1 3419   0.122   4.069   1.485
 1132SOL    HW2 3420   0.192   3.960   1.584
 1133SOL     OW 3421   1.400   3.831   0.426
 1133SOL    HW1 3422   1.376   3.794   0.336
 1133SOL    HW2 3423   1.499   3.847   0.430
 1134SOL     OW 3424   0.382   4.424   0.480
 1134SOL    HW1 3425   0.427   4.334   0.477
 1134SOL    HW2 3426   0.288   4.413   0.513
 1135SOL     OW 3427   1.547   3.946   1.729
 1135SOL    HW1 3428   1.542   3.983   1.821
 1135SOL    HW2 3429   1.475   3.877   1.717
 1136SOL     OW 3430   0.614   3.846   0.117
 1136SOL    HW1 3431   0.712   3.824   0.124
 1136SOL    HW2 3432   0.583   3.829   0.024
 1137SOL     OW 3433   0.781   3.988   1.749
 1137SOL    HW1 3434   0.848   3.927   1.792
 1137SOL    HW2 3435   0.708   4.007   1.814
 1138SOL     OW 3436   1.351   4.314   1.433
 1138SOL    HW1 3437   1.379   4.271   1.518
 1138SOL    HW2 3438   1.376   4.410   1.434
 1139SOL     OW 3439   0.922   4.227   0.899
 1139SOL    HW1 3440   0.897   4.218   0.803
 1139SOL    HW2 3441   0.970   4.145   0.930
 1140SOL     OW 3442   0.539   3.788   0.512
 1140SOL    HW1 3443   0.458   3.789   0.570
 1140SOL    HW2 3444   0.542   3.871   0.457
 1141SOL     OW 3445   0.935   3.960   0.480
 1141SOL    HW1 3446   0.887   4.001   0.402
 1141SOL    HW2 3447   1.034   3.958   0.461
 1142SOL     OW 3448   1.076   4.407   1.464
 1142SOL    HW1 3449   0.996   4.346   1.467
 1142SOL    HW2 3450   1.157   4.354   1.440
 1143SOL     OW 3451   1.032   4.273   0.016
 1143SOL    HW1 3452   0.991   4.355  -0.023
 1143SOL    HW2 3453   1.096   4.299   0.089
 1144SOL     OW 3454   0.078   4.280   1.386
 1144SOL    HW1 3455   0.170   4.279   1.345
 1144SOL    HW2 3456   0.072   4.354   1.453
 1145SOL     OW 3457   0.561   3.946   1.147
 1145SOL    HW1 3458   0.599   3.862   1.184
 1145SOL    HW2 3459   0.473   3.965   1.191
 1146SOL     OW 3460   0.866   4.178   0.642
 1146SOL    HW1 3461   0.834   4.250   0.580
 1146SOL    HW2 3462   0.890   4.097   0.589
 1147SOL     OW 3463   1.017   3.763   0.753
 1147SOL    HW1 3464   0.945   3.768   0.684
 1147SOL    HW2 3465   0.993   3.694   0.822
 1148SOL     OW 3466   1.429   4.897   0.867
 1148SOL    HW1 3467   1.374   4.813   0.860
 1148SOL    HW2 3468   1.455   4.926   0.775
 1149SOL     OW 3469   1.466   4.314   0.992
 1149SOL    HW1 3470   1.436   4.219   0.999
 1149SOL    HW2 3471   1.539   4.330   1.058
 1150SOL     OW 3472   1.857   4.557   0.377
 1150SOL    HW1 3473   1.899   4.493   0.441
 1150SOL    HW2 3474   1.819   4.506   0.299
 1151SOL     OW 3475   1.390   4.299   0.078
 1151SOL    HW1 3476   1.336   4.278   0.159
 1151SOL    HW2 3477   1.481   4.258   0.087
 1152SOL     OW 3478   0.527   3.980   0.328
 1152SOL    HW1 3479   0.554   3.921   0.253
 1152SOL    HW2 3480   0.527   4.075   0.297
 1153SOL     OW 3481   1.638   4.823   1.079
 1153SOL    HW1 3482   1.643   4.904   1.138
 1153SOL    HW2 3483   1.552   4.825   1.028
 1154SOL     OW 3484   0.915   3.813   1.402
 1154SOL    HW1 3485   0.940   3.793   1.307
 1154SOL    HW2 3486   0.987   3.869   1.444
 1155SOL     OW 3487   0.410   4.537   1.251
 1155SOL    HW1 3488   0.496   4.549   1.301
 1155SOL    HW2 3489   0.368   4.450   1.278
 1156SOL     OW 3490   1.274   4.110   1.262
 1156SOL    HW1 3491   1.295   4.184   1.326
 1156SOL    HW2 3492   1.185   4.127   1.219
 1157SOL     OW 3493   0.566   4.261   0.865
 1157SOL    HW1 3494   0.578   4.327   0.791
 1157SOL    HW2 3495   0.612   4.295   0.948
 1158SOL     OW 3496   1.582   4.363   0.472
 1158SOL    HW1 3497   1.551   4.424   0.545
 1158SOL    HW2 3498   1.632   4.415   0.403
 1159SOL     OW 3499   0.402   4.475   1.598
 1159SOL    HW1 3500   0.470   4.530   1.551
 1159SOL    HW2 3501   0.442   4.387   1.625
 1160SOL     OW 3502   1.587   4.503   1.670
 1160SOL    HW1 3503   1.495   4.541   1.665
 1160SOL    HW2 3504   1.647   4.550   1.605
 1161SOL     OW 3505   1.013   3.829   1.770
 1161SOL    HW1 3506   1.019   3.914   1.718
 1161SOL    HW2 3507   1.045   3.753   1.713
 1162SOL     OW 3508   0.504   3.774   1.740
 1162SOL    HW1 3509   0.462   3.717   1.670
 1162SOL    HW2 3510   0.438   3.843   1.772
 1163SOL     OW 3511   0.573   4.594   1.029
 1163SOL    HW1 3512   0.617   4.683   1.020
 1163SOL    HW2 3513   0.510   4.594   1.106
 1164SOL     OW 3514   1.360   4.586   1.045
 1164SOL    HW1 3515   1.285   4.586   0.979
 1164SOL    HW2 3516   1.397   4.494   1.054
 1165SOL     OW 3517   1.209   4.249   0.275
 1165SOL    HW1 3518   1.222   4.165   0.329
 1165SOL    HW2 3519   1.180   4.323   0.335
 1166SOL     OW 3520   0.307   3.937   1.231
 1166SOL    HW1 3521   0.284   3.974   1.321
 1166SOL    HW2 3522   0.277   3.842   1.225
 1167SOL     OW 3523   0.037   5.034   1.282
 1167SOL    HW1 3524   0.090   4.985   1.350
 1167SOL    HW2 3525   0.059   5.132   1.287
 1168SOL     OW 3526   0.732   4.358   1.064
 1168SOL    HW1 3527   0.791   4.332   0.988
 1168SOL    HW2 3528   0.704   4.454   1.053
 1169SOL     OW 3529   1.728   4.659   1.854
 1169SOL    HW1 3530   1.682   4.652   1.765
 1169SOL    HW2 3531   1.666   4.703   1.920
 1170SOL     OW 3532   0.307   3.787   0.618
 1170SOL    HW1 3533   0.296   3.881   0.651
 1170SOL    HW2 3534   0.302   3.724   0.695
 1171SOL     OW 3535   1.622   4.091   0.374
 1171SOL    HW1 3536   1.624   4.015   0.438
 1171SOL    HW2 3537   1.574   4.168   0.414
 1172SOL     OW 3538   1.023   4.490   0.966
 1172SOL    HW1 3539   1.038   4.511   1.062
 1172SOL    HW2 3540   0.993   4.395   0.957
 1173SOL     OW 3541   0.350   4.622   1.804
 1173SOL    HW1 3542   0.426   4.666   1.852
 1173SOL    HW2 3543   0.385   4.575   1.722
 1174SOL     OW 3544   1.540   3.998   0.125
 1174SOL    HW1 3545   1.479   3.923   0.148
 1174SOL    HW2 3546   1.562   4.050   0.208
 1175SOL     OW 3547   1.303   4.562   0.042
 1175SOL    HW1 3548   1.337   4.469   0.057
 1175SOL    HW2 3549   1.321   4.589  -0.053
 1176SOL     OW 3550   0.319   4.534   0.949
 1176SOL    HW1 3551   0.412   4.570   0.954
 1176SOL    HW2 3552   0.313   4.449   1.001
 1177SOL     OW 3553   0.339   4.233   1.006
 1177SOL    HW1 3554   0.287   4.150   0.989
 1177SOL    HW2 3555   0.416   4.238   0.942
 1178SOL     OW 3556   1.138   4.104   1.678
 1178SOL    HW1 3557   1.093   4.167   1.742
 1178SOL    HW2 3558   1.231   4.135   1.661
 1179SOL     OW 3559   1.160   3.931   1.477
 1179SOL    HW1 3560   1.160   3.995   1.554
 1179SOL    HW2 3561   1.188   3.979   1.394
 1180SOL     OW 3562   1.002   4.520   1.238
 1180SOL    HW1 3563   1.043   4.488   1.324
 1180SOL    HW2 3564   0.906   4.493   1.235
 1181SOL     OW 3565   0.040   4.268   1.114
 1181SOL    HW1 3566   0.125   4.235   1.073
 1181SOL    HW2 3567   0.053   4.283   1.212
 1182SOL     OW 3568   0.189   4.244   1.722
 1182SOL    HW1 3569   0.248   4.204   1.652
 1182SOL    HW2 3570   0.131   4.315   1.681
 1183SOL     OW 3571   1.369   4.674   1.660
 1183SOL    HW1 3572   1.408   4.763   1.680
 1183SOL    HW2 3573   1.379   4.654   1.563
 1184SOL     OW 3574   0.815   4.296   0.325
 1184SOL    HW1 3575   0.822   4.207   0.279
 1184SOL    HW2 3576   0.721   4.330   0.317
 1185SOL     OW 3577   1.657   4.328   1.206
 1185SOL    HW1 3578   1.619   4.259   1.268
 1185SOL    HW2 3579   1.739   4.292   1.162
 1186SOL     OW 3580   0.671   4.188   1.269
 1186SOL    HW1 3581   0.637   4.099   1.239
 1186SOL    HW2 3582   0.697   4.242   1.189
 1187SOL     OW 3583   0.473   4.224   0.191
 1187SOL    HW1 3584   0.534   4.304   0.195
 1187SOL    HW2 3585   0.378   4.255   0.198
 1188SOL     OW 3586   0.159   4.861   1.466
 1188SOL    HW1 3587   0.181   4.800   1.542
 1188SOL    HW2 3588   0.169   4.812   1.380
 1189SOL     OW 3589   1.347   4.783   1.234
 1189SOL    HW1 3590   1.371   4.720   1.160
 1189SOL    HW2 3591   1.257   4.823   1.216
 1190SOL     OW 3592   1.302   4.579   0.309
 1190SOL    HW1 3593   1.216   4.548   0.351
 1190SOL    HW2 3594   1.298   4.565   0.210
 1191SOL     OW 3595   0.903   3.810   0.133
 1191SOL    HW1 3596   0.954   3.811   0.047
 1191SOL    HW2 3597   0.959   3.768   0.204
 1192SOL     OW 3598   1.726   3.859   0.523
 1192SOL    HW1 3599   1.799   3.842   0.456
 1192SOL    HW2 3600   1.695   3.772   0.561
 1193SOL     OW 3601   1.280   4.651   0.672
 1193SOL    HW1 3602   1.340   4.570   0.674
 1193SOL    HW2 3603   1.320   4.720   0.612
 1194SOL     OW 3604   1.841   3.899   0.963
 1194SOL    HW1 3605   1.880   3.814   0.927
 1194SOL    HW2 3606   1.743   3.901   0.944
 1195SOL     OW 3607   0.263   4.050   0.720
 1195SOL    HW1 3608   0.184   4.101   0.686
 1195SOL    HW2 3609   0.254   4.035   0.818
 1196SOL     OW 3610   0.916   4.634   0.291
 1196SOL    HW1 3611   0.979   4.672   0.223
 1196SOL    HW2 3612   0.956   4.551   0.330
 1197SOL     OW 3613   1.014   3.960   0.971
 1197SOL    HW1 3614   1.006   3.924   0.878
 1197SOL    HW2 3615   1.012   3.884   1.036
 1198SOL     OW 3616   1.709   4.109   1.381
 1198SOL    HW1 3617   1.782   4.178   1.385
 1198SOL    HW2 3618   1.737   4.034   1.322
 1199SOL     OW 3619   0.105   4.737   1.726
 1199SOL    HW1 3620   0.028   4.704   1.780
 1199SOL    HW2 3621   0.190   4.707   1.768
 1200SOL     OW 3622   0.672   3.927   1.489
 1200SOL    HW1 3623   0.762   3.911   1.449
 1200SOL    HW2 3624   0.680   3.932   1.588
 1201SOL     OW 3625   0.075   4.069   0.033
 1201SOL    HW1 3626  -0.017   4.041   0.004
 1201SOL    HW2 3627   0.106   4.146  -0.023
 1202SOL     OW 3628   1.440   4.580   1.398
 1202SOL    HW1 3629   1.383   4.632   1.335
 1202SOL    HW2 3630   1.536   4.592   1.374
 1203SOL     OW 3631   0.072   3.890   0.318
 1203SOL    HW1 3632   0.055   3.973   0.264
 1203SOL    HW2 3633   0.162   3.853   0.296
 1204SOL     OW 3634   1.183   5.059   0.119
 1204SOL    HW1 3635   1.084   5.048   0.121
 1204SOL    HW2 3636   1.217   5.074   0.212
 1205SOL     OW 3637   0.613   4.566   1.431
 1205SOL    HW1 3638   0.669   4.647   1.414
 1205SOL    HW2 3639   0.672   4.486   1.434
 1206SOL     OW 3640   0.716   4.289   1.708
 1206SOL    HW1 3641   0.735   4.354   1.782
 1206SOL    HW2 3642   0.776   4.209   1.717
 1207SOL     OW 3643   1.674   4.607   1.254
 1207SOL    HW1 3644   1.647   4.518   1.217
 1207SOL    HW2 3645   1.675   4.675   1.181
 1208SOL     OW 3646   1.225   4.049   0.449
 1208SOL    HW1 3647   1.290   3.975   0.438
 1208SOL    HW2 3648   1.245   4.099   0.533
 1209SOL     OW 3649   0.594   4.469   0.652
 1209SOL    HW1 3650   0.644   4.554   0.633
 1209SOL    HW2 3651   0.506   4.471   0.604
 1210SOL     OW 3652   1.777   4.066   1.642
 1210SOL    HW1 3653   1.760   4.097   1.548
 1210SOL    HW2 3654   1.693   4.029   1.680
 1211SOL     OW 3655   1.730   4.658   1.517
 1211SOL    HW1 3656   1.768   4.749   1.532
 1211SOL    HW2 3657   1.722   4.641   1.418
 1212SOL     OW 3658   0.859   4.680   0.861
 1212SOL    HW1 3659   0.913   4.611   0.909
 1212SOL    HW2 3660   0.827   4.749   0.927
 1213SOL     OW 3661   1.083   4.708   0.087
 1213SOL    HW1 3662   1.060   4.761   0.005
 1213SOL    HW2 3663   1.164   4.652   0.068
 1214SOL     OW 3664   0.079   4.964   0.653
 1214SOL    HW1 3665   0.078   4.917   0.741
 1214SOL    HW2 3666   0.161   4.936   0.602
 1215SOL     OW 3667   1.824   3.916   1.227
 1215SOL    HW1 3668   1.820   3.826   1.271
 1215SOL    HW2 3669   1.827   3.905   1.128
 1216SOL     OW 3670   0.428   4.148   0.520
 1216SOL    HW1 3671   0.458   4.076   0.458
 1216SOL    HW2 3672   0.389   4.108   0.603
 1217SOL     OW 3673   0.317   4.271   1.280
 1217SOL    HW1 3674   0.355   4.212   1.352
 1217SOL    HW2 3675   0.357   4.245   1.192
 1218SOL     OW 3676   1.424   3.938   1.112
 1218SOL    HW1 3677   1.476   3.873   1.167
 1218SOL    HW2 3678   1.375   4.001   1.173
 1219SOL     OW 3679   1.001   3.758   1.154
 1219SOL    HW1 3680   0.938   3.686   1.123
 1219SOL    HW2 3681   1.094   3.722   1.154
 1220SOL     OW 3682   1.352   3.776   0.168
 1220SOL    HW1 3683   1.387   3.735   0.084
 1220SOL    HW2 3684   1.262   3.738   0.188
 1221SOL     OW 3685   1.300   4.177   0.691
 1221SOL    HW1 3686   1.241   4.257   0.695
 1221SOL    HW2 3687   1.315   4.142   0.784
 1222SOL     OW 3688   1.593   3.945   0.882
 1222SOL    HW1 3689   1.509   3.944   0.936
 1222SOL    HW2 3690   1.595   4.028   0.826
 1223SOL     OW 3691   0.039   4.801   0.300
 1223SOL    HW1 3692   0.138   4.790   0.291
 1223SOL    HW2 3693  -0.001   4.715   0.332
 1224SOL     OW 3694   0.230   4.352   1.975
 1224SOL    HW1 3695   0.137   4.350   2.012
 1224SOL    HW2 3696   0.231   4.313   1.883
 1225SOL     OW 3697   0.225   3.999   2.858
 1225SOL    HW1 3698   0.260   3.982   2.950
 1225SOL    HW2 3699   0.137   3.954   2.846
 1226SOL     OW 3700   0.019   4.092   2.509
 1226SOL    HW1 3701  -0.063   4.135   2.548
 1226SOL    HW2 3702  -0.009   4.019   2.446
 1227SOL     OW 3703   1.135   4.427   2.579
 1227SOL    HW1 3704   1.192   4.505   2.554
 1227SOL    HW2 3705   1.075   4.453   2.655
 1228SOL     OW 3706   1.755   4.331   2.093
 1228SOL    HW1 3707   1.743   4.318   1.994
 1228SOL    HW2 3708   1.725   4.250   2.142
 1229SOL     OW 3709   0.768   4.868   2.885
 1229SOL    HW1 3710   0.690   4.885   2.945
 1229SOL    HW2 3711   0.802   4.955   2.849
 1230SOL     OW 3712   0.850   4.522   3.685
 1230SOL    HW1 3713   0.846   4.598   3.750
 1230SOL    HW2 3714   0.872   4.558   3.594
 1231SOL     OW 3715   0.685   4.736   2.527
 1231SOL    HW1 3716   0.754   4.720   2.597
 1231SOL    HW2 3717   0.612   4.793   2.565
 1232SOL     OW 3718   0.438   4.116   3.361
 1232SOL    HW1 3719   0.520   4.060   3.370
 1232SOL    HW2 3720   0.357   4.058   3.365
 1233SOL     OW 3721   1.603   4.171   2.599
 1233SOL    HW1 3722   1.529   4.217   2.549
 1233SOL    HW2 3723   1.654   4.239   2.652
 1234SOL     OW 3724   0.240   4.815   2.748
 1234SOL    HW1 3725   0.254   4.731   2.800
 1234SOL    HW2 3726   0.185   4.879   2.803
 1235SOL     OW 3727   0.606   4.688   1.985
 1235SOL    HW1 3728   0.613   4.772   1.931
 1235SOL    HW2 3729   0.652   4.701   2.073
 1236SOL     OW 3730   1.594   3.838   3.342
 1236SOL    HW1 3731   1.576   3.905   3.270
 1236SOL    HW2 3732   1.591   3.884   3.431
 1237SOL     OW 3733   0.122   4.367   2.425
 1237SOL    HW1 3734   0.077   4.279   2.442
 1237SOL    HW2 3735   0.121   4.421   2.509
 1238SOL     OW 3736   1.689   4.646   2.474
 1238SOL    HW1 3737   1.784   4.617   2.482
 1238SOL    HW2 3738   1.681   4.711   2.399
 1239SOL     OW 3739   0.113   4.461   3.459
 1239SOL    HW1 3740   0.201   4.448   3.504
 1239SOL    HW2 3741   0.100   4.558   3.437
 1240SOL     OW 3742   0.809   3.728   2.364
 1240SOL    HW1 3743   0.849   3.819   2.355
 1240SOL    HW2 3744   0.709   3.736   2.370
 1241SOL     OW 3745   0.197   4.700   3.126
 1241SOL    HW1 3746   0.286   4.655   3.112
 1241SOL    HW2 3747   0.124   4.635   3.107
 1242SOL     OW 3748   1.525   4.723   2.052
 1242SOL    HW1 3749   1.462   4.647   2.065
 1242SOL    HW2 3750   1.573   4.741   2.138
 1243SOL     OW 3751   0.317   3.975   3.663
 1243SOL    HW1 3752   0.388   4.046   3.669
 1243SOL    HW2 3753   0.229   4.014   3.691
 1244SOL     OW 3754   0.598   4.453   2.132
 1244SOL    HW1 3755   0.622   4.522   2.064
 1244SOL    HW2 3756   0.520   4.486   2.186
 1245SOL     OW 3757   1.281   4.069   2.806
 1245SOL    HW1 3758   1.195   4.019   2.793
 1245SOL    HW2 3759   1.343   4.015   2.862
 1246SOL     OW 3760   0.807   4.329   3.327
 1246SOL    HW1 3761   0.760   4.326   3.416
 1246SOL    HW2 3762   0.756   4.274   3.261
 1247SOL     OW 3763   1.394   4.193   3.536
 1247SOL    HW1 3764   1.374   4.236   3.624
 1247SOL    HW2 3765   1.472   4.131   3.545
 1248SOL     OW 3766   0.973   4.614   3.434
 1248SOL    HW1 3767   1.019   4.530   3.405
 1248SOL    HW2 3768   0.917   4.648   3.359
 1249SOL     OW 3769   0.991   4.134   3.104
 1249SOL    HW1 3770   0.914   4.168   3.158
 1249SOL    HW2 3771   0.957   4.083   3.025
 1250SOL     OW 3772   1.041   4.425   2.291
 1250SOL    HW1 3773   1.067   4.421   2.387
 1250SOL    HW2 3774   0.956   4.374   2.277
 1251SOL     OW 3775   0.076   4.535   2.651
 1251SOL    HW1 3776   0.175   4.523   2.660
 1251SOL    HW2 3777   0.052   4.630   2.672
 1252SOL     OW 3778   0.865   4.072   2.057
 1252SOL    HW1 3779   0.924   4.135   2.008
 1252SOL    HW2 3780   0.884   3.978   2.028
 1253SOL     OW 3781   1.719   4.309   3.693
 1253SOL    HW1 3782   1.693   4.398   3.657
 1253SOL    HW2 3783   1.717   4.241   3.620
 1254SOL     OW 3784   0.550   3.920   2.747
 1254SOL    HW1 3785   0.545   3.915   2.847
 1254SOL    HW2 3786   0.552   4.016   2.718
 1255SOL     OW 3787   1.458   4.459   2.590
 1255SOL    HW1 3788   1.453   4.394   2.665
 1255SOL    HW2 3789   1.538   4.518   2.603
 1256SOL     OW 3790   0.202   4.009   3.360
 1256SOL    HW1 3791   0.122   4.069   3.347
 1256SOL    HW2 3792   0.192   3.960   3.446
 1257SOL     OW 3793   1.400   3.831   2.288
 1257SOL    HW1 3794   1.376   3.794   2.198
 1257SOL    HW2 3795   1.499   3.847   2.292
 1258SOL     OW 3796   0.382   4.424   2.342
 1258SOL    HW1 3797   0.427   4.334   2.339
 1258SOL    HW2 3798   0.288   4.413   2.375
 1259SOL     OW 3799   1.547   3.946   3.591
 1259SOL    HW1 3800   1.542   3.983   3.683
 1259SOL    HW2 3801   1.475   3.877   3.579
 1260SOL     OW 3802   0.614   3.846   1.979
 1260SOL    HW1 3803   0.712   3.824   1.986
 1260SOL    HW2 3804   0.583   3.829   1.886
 1261SOL     OW 3805   0.781   3.988   3.611
 1261SOL    HW1 3806   0.848   3.927   3.654
 1261SOL    HW2 3807   0.708   4.007   3.676
 1262SOL     OW 3808   1.351   4.314   3.295
 1262SOL    HW1 3809   1.379   4.271   3.380
 1262SOL    HW2 3810   1.376   4.410   3.296
 1263SOL     OW 3811   0.922   4.227   2.761
 1263SOL    HW1 3812   0.897   4.218   2.665
 1263SOL    HW2 3813   0.970   4.145   2.792
 1264SOL     OW 3814   0.539   3.788   2.374
 1264SOL    HW1 3815   0.458   3.789   2.432
 1264SOL    HW2 3816   0.542   3.871   2.319
 1265SOL     OW 3817   0.297   3.759   2.033
 1265SOL    HW1 3818   0.346   3.843   2.012
 1265SOL    HW2 3819   0.359   3.694   2.078
 1266SOL     OW 3820   0.935   3.960   2.342
 1266SOL    HW1 3821   0.887   4.001   2.264
 1266SOL    HW2 3822   1.034   3.958   2.323
 1267SOL     OW 3823   1.076   4.407   3.326
 1267SOL    HW1 3824   0.996   4.346   3.329
 1267SOL    HW2 3825   1.157   4.354   3.302
 1268SOL     OW 3826   1.032   4.273   1.878
 1268SOL    HW1 3827   0.991   4.355   1.839
 1268SOL    HW2 3828   1.096   4.299   1.951
 1269SOL     OW 3829   0.078   4.280   3.248
 1269SOL    HW1 3830   0.170   4.279   3.207
 1269SOL    HW2 3831   0.072   4.354   3.315
 1270SOL     OW 3832   0.561   3.946   3.009
 1270SOL    HW1 3833   0.599   3.862   3.046
 1270SOL    HW2 3834   0.473   3.965   3.053
 1271SOL     OW 3835   0.866   4.178   2.504
 1271SOL    HW1 3836   0.834   4.250   2.442
 1271SOL    HW2 3837   0.890   4.097   2.451
 1272SOL     OW 3838   1.017   3.763   2.615
 1272SOL    HW1 3839   0.945   3.768   2.546
 1272SOL    HW2 3840   0.993   3.694   2.684
 1273SOL     OW 3841   1.429   4.897   2.729
 1273SOL    HW1 3842   1.374   4.813   2.722
 1273SOL    HW2 3843   1.455   4.926   2.637
 1274SOL     OW 3844   1.466   4.314   2.854
 1274SOL    HW1 3845   1.436   4.219   2.861
 1274SOL    HW2 3846   1.539   4.330   2.920
 1275SOL     OW 3847   1.857   4.557   2.239
 1275SOL    HW1 3848   1.899   4.493   2.303
 1275SOL    HW2 3849   1.819   4.506   2.161
 1276SOL     OW 3850   1.390   4.299   1.940
 1276SOL    HW1 3851   1.336   4.278   2.021
 1276SOL    HW2 3852   1.481   4.258   1.949
 1277SOL     OW 3853   0.527   3.980   2.190
 1277SOL    HW1 3854   0.554   3.921   2.115
 1277SOL    HW2 3855   0.527   4.075   2.159
 1278SOL     OW 3856   1.638   4.823   2.941
 1278SOL    HW1 3857   1.643   4.904   3.000
 1278SOL    HW2 3858   1.552   4.825   2.890
 1279SOL     OW 3859   0.915   3.813   3.264
 1279SOL    HW1 3860   0.940   3.793   3.169
 1279SOL    HW2 3861   0.987   3.869   3.306
 1280SOL     OW 3862   0.410   4.537   3.113
 1280SOL    HW1 3863   0.496   4.549   3.163
 1280SOL    HW2 3864   0.368   4.450   3.140
 1281SOL     OW 3865   1.274   4.110   3.124
 1281SOL    HW1 3866   1.295   4.184   3.188
 1281SOL    HW2 3867   1.185   4.127   3.081
 1282SOL     OW 3868   0.566   4.261   2.727
 1282SOL    HW1 3869   0.578   4.327   2.653
 1282SOL    HW2 3870   0.612   4.295   2.810
 1283SOL     OW 3871   1.582   4.363   2.334
 1283SOL    HW1 3872   1.551   4.424   2.407
 1283SOL    HW2 3873   1.632   4.415   2.265
 1284SOL     OW 3874   0.402   4.475   3.460
 1284SOL    HW1 3875   0.470   4.530   3.413
 1284SOL    HW2 3876   0.442   4.387   3.487
 1285SOL     OW 3877   1.587   4.503   3.532
 1285SOL    HW1 3878   1.495   4.541   3.527
 1285SOL    HW2 3879   1.647   4.550   3.467
 1286SOL     OW 3880   1.013   3.829   3.632
 1286SOL    HW1 3881   1.019   3.914   3.580
 1286SOL    HW2 3882   1.045   3.753   3.575
 1287SOL     OW 3883   0.504   3.774   3.602
 1287SOL    HW1 3884   0.462   3.717   3.532
 1287SOL    HW2 3885   0.438   3.843   3.634
 1288SOL     OW 3886   0.573   4.594   2.891
 1288SOL    HW1 3887   0.617   4.683   2.882
 1288SOL    HW2 3888   0.510   4.594   2.968
 1289SOL     OW 3889   1.360   4.586   2.907
 1289SOL    HW1 3890   1.285   4.586   2.841
 1289SOL    HW2 3891   1.397   4.494   2.916
 1290SOL     OW 3892   1.209   4.249   2.137
 1290SOL    HW1 3893   1.222   4.165   2.191
 1290SOL    HW2 3894   1.180   4.323   2.197
 1291SOL     OW 3895   0.307   3.937   3.093
 1291SOL    HW1 3896   0.284   3.974   3.183
 1291SOL    HW2 3897   0.277   3.842   3.087
 1292SOL     OW 3898   0.037   5.034   3.144
 1292SOL    HW1 3899   0.090   4.985   3.212
 1292SOL    HW2 3900   0.059   5.132   3.149
 1293SOL     OW 3901   0.732   4.358   2.926
 1293SOL    HW1 3902   0.791   4.332   2.850
 1293SOL    HW2 3903   0.704   4.454   2.915
 1294SOL     OW 3904   1.728   4.659   3.716
 1294SOL    HW1 3905   1.682   4.652   3.627
 1294SOL    HW2 3906   1.666   4.703   3.782
 1295SOL     OW 3907   0.307   3.787   2.480
 1295SOL    HW1 3908   0.296   3.881   2.513
 1295SOL    HW2 3909   0.302   3.724   2.557
 1296SOL     OW 3910   1.622   4.091   2.236
 1296SOL    HW1 3911   1.624   4.015   2.300
 1296SOL    HW2 3912   1.574   4.168   2.276
 1297SOL     OW 3913   1.023   4.490   2.828
 1297SOL    HW1 3914   1.038   4.511   2.924
 1297SOL    HW2 3915   0.993   4.395   2.819
 1298SOL     OW 3916   0.350   4.622   3.666
 1298SOL    HW1 3917   0.426   4.666   3.714
 1298SOL    HW2 3918   0.385   4.575   3.584
 1299SOL     OW 3919   1.540   3.998   1.987
 1299SOL    HW1 3920   1.479   3.923   2.010
 1299SOL    HW2 3921   1.562   4.050   2.070
 1300SOL     OW 3922   1.303   4.562   1.904
 1300SOL    HW1 3923   1.337   4.469   1.919
 1300SOL    HW2 3924   1.321   4.589   1.809
 1301SOL     OW 3925   0.319   4.534   2.811
 1301SOL    HW1 3926   0.412   4.570   2.816
 1301SOL    HW2 3927   0.313   4.449   2.863
 1302SOL     OW 3928   0.339   4.233   2.868
 1302SOL    HW1 3929   0.287   4.150   2.851
 1302SOL    HW2 3930   0.416   4.238   2.804
 1303SOL     OW 3931   1.138   4.104   3.540
 1303SOL    HW1 3932   1.093   4.167   3.604
 1303SOL    HW2 3933   1.231   4.135   3.523
 1304SOL     OW 3934   1.160   3.931   3.339
 1304SOL    HW1 3935   1.160   3.995   3.416
 1304SOL    HW2 3936   1.188   3.979   3.256
 1305SOL     OW 3937   1.002   4.520   3.100
 1305SOL    HW1 3938   1.043   4.488   3.186
 1305SOL    HW2 3939   0.906   4.493   3.097
 1306SOL     OW 3940   0.040   4.268   2.976
 1306SOL    HW1 3941   0.125   4.235   2.935
 1306SOL    HW2 3942   0.053   4.283   3.074
 1307SOL     OW 3943   0.189   4.244   3.584
 1307SOL    HW1 3944   0.248   4.204   3.514
 1307SOL    HW2 3945   0.131   4.315   3.543
 1308SOL     OW 3946   1.369   4.674   3.522
 1308SOL    HW1 3947   1.408   4.763   3.542
 1308SOL    HW2 3948   1.379   4.654   3.425
 1309SOL     OW 3949   0.815   4.296   2.187
 1309SOL    HW1 3950   0.822   4.207   2.141
 1309SOL    HW2 3951   0.721   4.330   2.179
 1310SOL     OW 3952   1.657   4.328   3.068
 1310SOL    HW1 3953   1.619   4.259   3.130
 1310SOL    HW2 3954   1.739   4.292   3.024
 1311SOL     OW 3955   0.671   4.188   3.131
 1311SOL    HW1 3956   0.637   4.099   3.101
 1311SOL    HW2 3957   0.697   4.242   3.051
 1312SOL     OW 3958   0.473   4.224   2.053
 1312SOL    HW1 3959   0.534   4.304   2.057
 1312SOL    HW2 3960   0.378   4.255   2.060
 1313SOL     OW 3961   0.159   4.861   3.328
 1313SOL    HW1 3962   0.181   4.800   3.404
 1313SOL    HW2 3963   0.169   4.812   3.242
 1314SOL     OW 3964   1.347   4.783   3.096
 1314SOL    HW1 3965   1.371   4.720   3.022
 1314SOL    HW2 3966   1.257   4.823   3.078
 1315SOL     OW 3967   1.302   4.579   2.171
 1315SOL    HW1 3968   1.216   4.548   2.213
 1315SOL    HW2 3969   1.298   4.565   2.072
 1316SOL     OW 3970   1.726   3.859   2.385
 1316SOL    HW1 3971   1.799   3.842   2.318
 1316SOL    HW2 3972   1.695   3.772   2.423
 1317SOL     OW 3973   1.280   4.651   2.534
 1317SOL    HW1 3974   1.340   4.570   2.536
 1317SOL    HW2 3975   1.320   4.720   2.474
 1318SOL     OW 3976   1.841   3.899   2.825
 1318SOL    HW1 3977   1.880   3.814   2.789
 1318SOL    HW2 3978   1.743   3.901   2.806
 1319SOL     OW 3979   0.263   4.050   2.582
 1319SOL    HW1 3980   0.184   4.101   2.548
 1319SOL    HW2 3981   0.254   4.035   2.680
 1320SOL     OW 3982   0.916   4.634   2.153
 1320SOL    HW1 3983   0.979   4.672   2.085
 1320SOL    HW2 3984   0.956   4.551   2.192
 1321SOL     OW 3985   1.014   3.960   2.833
 1321SOL    HW1 3986   1.006   3.924   2.740
 1321SOL    HW2 3987   1.012   3.884   2.898
 1322SOL     OW 3988   1.709   4.109   3.243
 1322SOL    HW1 3989   1.782   4.178   3.247
 1322SOL    HW2 3990   1.737   4.034   3.184
 1323SOL     OW 3991   0.105   4.737   3.588
 1323SOL    HW1 3992   0.028   4.704   3.642
 1323SOL    HW2 3993   0.190   4.707   3.630
 1324SOL     OW 3994   0.672   3.927   3.351
 1324SOL    HW1 3995   0.762   3.911   3.311
 1324SOL    HW2 3996   0.680   3.932   3.450
 1325SOL     OW 3997   0.075   4.069   1.895
 1325SOL    HW1 3998  -0.017   4.041   1.866
 1325SOL    HW2 3999   0.106   4.146   1.839
 1326SOL     OW 4000   1.440   4.580   3.260
 1326SOL    HW1 4001   1.383   4.632   3.197
 1326SOL    HW2 4002   1.536   4.592   3.236
 1327SOL     OW 4003   0.072   3.890   2.180
 1327SOL    HW1 4004   0.055   3.973   2.126
 1327SOL    HW2 4005   0.162   3.853   2.158
 1328SOL     OW 4006   1.183   5.059   1.981
 1328SOL    HW1 4007   1.084   5.048   1.983
 1328SOL    HW2 4008   1.217   5.074   2.074
 1329SOL     OW 4009   0.613   4.566   3.293
 1329SOL    HW1 4010   0.669   4.647   3.276
 1329SOL    HW2 4011   0.672   4.486   3.296
 1330SOL     OW 4012   0.716   4.289   3.570
 1330SOL    HW1 4013   0.735   4.354   3.644
 1330SOL    HW2 4014   0.776   4.209   3.579
 1331SOL     OW 4015   1.674   4.607   3.116
 1331SOL    HW1 4016   1.647   4.518   3.079
 1331SOL    HW2 4017   1.675   4.675   3.043
 1332SOL     OW 4018   1.225   4.049   2.311
 1332SOL    HW1 4019   1.290   3.975   2.300
 1332SOL    HW2 4020   1.245   4.099   2.395
 1333SOL     OW 4021   0.594   4.469   2.514
 1333SOL    HW1 4022   0.644   4.554   2.495
 1333SOL    HW2 4023   0.506   4.471   2.466
 1334SOL     OW 4024   1.777   4.066   3.504
 1334SOL    HW1 4025   1.760   4.097   3.410
 1334SOL    HW2 4026   1.693   4.029   3.542
 1335SOL     OW 4027   1.730   4.658   3.379
 1335SOL    HW1 4028   1.768   4.749   3.394
 1335SOL    HW2 4029   1.722   4.641   3.280
 1336SOL     OW 4030   0.859   4.680   2.723
 1336SOL    HW1 4031   0.913   4.611   2.771
 1336SOL    HW2 4032   0.827   4.749   2.789
 1337SOL     OW 4033   1.083   4.708   1.949
 1337SOL    HW1 4034   1.060   4.761   1.867
 1337SOL    HW2 4035   1.164   4.652   1.930
 1338SOL     OW 4036   0.079   4.964   2.515
 1338SOL    HW1 4037   0.078   4.917   2.603
 1338SOL    HW2 4038   0.161   4.936   2.464
 1339SOL     OW 4039   1.824   3.916   3.089
 1339SOL    HW1 4040   1.820   3.826   3.133
 1339SOL    HW2 4041   1.827   3.905   2.990
 1340SOL     OW 4042   0.428   4.148   2.382
 1340SOL    HW1 4043   0.458   4.076   2.320
 1340SOL    HW2 4044   0.389   4.108   2.465
 1341SOL     OW 4045   0.317   4.271   3.142
 1341SOL    HW1 4046   0.355   4.212   3.214
 1341SOL    HW2 4047   0.357   4.245   3.054
 1342SOL     OW 4048   1.424   3.938   2.974
 1342SOL    HW1 4049   1.476   3.873   3.029
 1342SOL    HW2 4050   1.375   4.001   3.035
 1343SOL     OW 4051   1.001   3.758   3.016
 1343SOL    HW1 4052   0.938   3.686   2.985
 1343SOL    HW2 4053   1.094   3.722   3.016
 1344SOL     OW 4054   1.352   3.776   2.030
 1344SOL    HW1 4055   1.387   3.735   1.946
 1344SOL    HW2 4056   1.262   3.738   2.050
 1345SOL     OW 4057   1.300   4.177   2.553
 1345SOL    HW1 4058   1.241   4.257   2.557
 1345SOL    HW2 4059   1.315   4.142   2.646
 1346SOL     OW 4060   1.593   3.945   2.744
 1346SOL    HW1 4061   1.509   3.944   2.798
 1346SOL    HW2 4062   1.595   4.028   2.688
 1347SOL     OW 4063   0.039   4.801   2.162
 1347SOL    HW1 4064   0.138   4.790   2.153
 1347SOL    HW2 4065  -0.001   4.715   2.194
 1348SOL     OW 4066   0.230   4.352   3.837
 1348SOL    HW1 4067   0.137   4.350   3.874
 1348SOL    HW2 4068   0.231   4.313   3.745
 1349SOL     OW 4069   0.225   3.999   4.720
 1349SOL    HW1 4070   0.260   3.982   4.812
 1349SOL    HW2 4071   0.137   3.954   4.708
 1350SOL     OW 4072   0.019   4.092   4.371
 1350SOL    HW1 4073  -0.063   4.135   4.410
 1350SOL    HW2 4074  -0.009   4.019   4.308
 1351SOL     OW 4075   1.135   4.427   4.441
 1351SOL    HW1 4076   1.192   4.505   4.416
 1351SOL    HW2 4077   1.075   4.453   4.517
 1352SOL     OW 4078   1.755   4.331   3.955
 1352SOL    HW1 4079   1.743   4.318   3.856
 1352SOL    HW2 4080   1.725   4.250   4.004
 1353SOL     OW 4081   0.685   4.736   4.389
 1353SOL    HW1 4082   0.754   4.720   4.459
 1353SOL    HW2 4083   0.612   4.793   4.427
 1354SOL     OW 4084   1.603   4.171   4.461
 1354SOL    HW1 4085   1.529   4.217   4.411
 1354SOL    HW2 4086   1.654   4.239   4.514
 1355SOL     OW 4087   0.240   4.815   4.610
 1355SOL    HW1 4088   0.254   4.731   4.662
 1355SOL    HW2 4089   0.185   4.879   4.665
 1356SOL     OW 4090   0.606   4.688   3.847
 1356SOL    HW1 4091   0.613   4.772   3.793
 1356SOL    HW2 4092   0.652   4.701   3.935
 1357SOL     OW 4093   0.122   4.367   4.287
 1357SOL    HW1 4094   0.077   4.279   4.304
 1357SOL    HW2 4095   0.121   4.421   4.371
 1358SOL     OW 4096   1.689   4.646   4.336
 1358SOL    HW1 4097   1.784   4.617   4.344
 1358SOL    HW2 4098   1.681   4.711   4.261
 1359SOL     OW 4099   0.809   3.728   4.226
 1359SOL    HW1 4100   0.849   3.819   4.217
 1359SOL    HW2 4101   0.709   3.736   4.232
 1360SOL     OW 4102   0.197   4.700   4.988
 1360SOL    HW1 4103   0.286   4.655   4.974
 1360SOL    HW2 4104   0.124   4.635   4.969
 1361SOL     OW 4105   1.525   4.723   3.914
 1361SOL    HW1 4106   1.462   4.647   3.927
 1361SOL    HW2 4107   1.573   4.741   4.000
 1362SOL     OW 4108   0.598   4.453   3.994
 1362SOL    HW1 4109   0.622   4.522   3.926
 1362SOL    HW2 4110   0.520   4.486   4.048
 1363SOL     OW 4111   1.281   4.069   4.668
 1363SOL    HW1 4112   1.195   4.019   4.655
 1363SOL    HW2 4113   1.343   4.015   4.724
 1364SOL     OW 4114   1.041   4.425   4.153
 1364SOL    HW1 4115   1.067   4.421   4.249
 1364SOL    HW2 4116   0.956   4.374   4.139
 1365SOL     OW 4117   0.076   4.535   4.513
 1365SOL    HW1 4118   0.175   4.523   4.522
 1365SOL    HW2 4119   0.052   4.630   4.534
 1366SOL     OW 4120   0.865   4.072   3.919
 1366SOL    HW1 4121   0.924   4.135   3.870
 1366SOL    HW2 4122   0.884   3.978   3.890
 1367SOL     OW 4123   0.550   3.920   4.609
 1367SOL    HW1 4124   0.545   3.915   4.709
 1367SOL    HW2 4125   0.552   4.016   4.580
 1368SOL     OW 4126   1.458   4.459   4.452
 1368SOL    HW1 4127   1.453   4.394   4.527
 1368SOL    HW2 4128   1.538   4.518   4.465
 1369SOL     OW 4129   1.400   3.831   4.150
 1369SOL    HW1 4130   1.376   3.794   4.060
 1369SOL    HW2 4131   1.499   3.847   4.154
 1370SOL     OW 4132   0.382   4.424   4.204
 1370SOL    HW1 4133   0.427   4.334   4.201
 1370SOL    HW2 4134   0.288   4.413   4.237
 1371SOL     OW 4135   0.614   3.846   3.841
 1371SOL    HW1 4136   0.712   3.824   3.848
 1371SOL    HW2 4137   0.583   3.829   3.748
 1372SOL     OW 4138   0.922   4.227   4.623
 1372SOL    HW1 4139   0.897   4.218   4.527
 1372SOL    HW2 4140   0.970   4.145   4.654
 1373SOL     OW 4141   0.539   3.788   4.236
 1373SOL    HW1 4142   0.458   3.789   4.294
 1373SOL    HW2 4143   0.542   3.871   4.181
 1374SOL     OW 4144   0.297   3.759   3.895
 1374SOL    HW1 4145   0.346   3.843   3.874
 1374SOL    HW2 4146   0.359   3.694   3.940
 1375SOL     OW 4147   0.935   3.960   4.204
 1375SOL    HW1 4148   0.887   4.001   4.126
 1375SOL    HW2 4149   1.034   3.958   4.185
 1376SOL     OW 4150   1.032   4.273   3.740
 1376SOL    HW1 4151   0.991   4.355   3.701
 1376SOL    HW2 4152   1.096   4.299   3.813
 1377SOL     OW 4153   0.866   4.178   4.366
 1377SOL    HW1 4154   0.834   4.250   4.304
 1377SOL    HW2 4155   0.890   4.097   4.313
 1378SOL     OW 4156   1.017   3.763   4.477
 1378SOL    HW1 4157   0.945   3.768   4.408
 1378SOL    HW2 4158   0.993   3.694   4.546
 1379SOL     OW 4159   1.429   4.897   4.591
 1379SOL    HW1 4160   1.374   4.813   4.584
 1379SOL    HW2 4161   1.455   4.926   4.499
 1380SOL     OW 4162   1.466   4.314   4.716
 1380SOL    HW1 4163   1.436   4.219   4.723
 1380SOL    HW2 4164   1.539   4.330   4.782
 1381SOL     OW 4165   1.857   4.557   4.101
 1381SOL    HW1 4166   1.899   4.493   4.165
 1381SOL    HW2 4167   1.819   4.506   4.023
 1382SOL     OW 4168   1.390   4.299   3.802
 1382SOL    HW1 4169   1.336   4.278   3.883
 1382SOL    HW2 4170   1.481   4.258   3.811
 1383SOL     OW 4171   0.527   3.980   4.052
 1383SOL    HW1 4172   0.554   3.921   3.977
 1383SOL    HW2 4173   0.527   4.075   4.021
 1384SOL     OW 4174   1.638   4.823   4.803
 1384SOL    HW1 4175   1.643   4.904   4.862
 1384SOL    HW2 4176   1.552   4.825   4.752
 1385SOL     OW 4177   0.566   4.261   4.589
 1385SOL    HW1 4178   0.578   4.327   4.515
 1385SOL    HW2 4179   0.612   4.295   4.672
 1386SOL     OW 4180   1.582   4.363   4.196
 1386SOL    HW1 4181   1.551   4.424   4.269
 1386SOL    HW2 4182   1.632   4.415   4.127
 1387SOL     OW 4183   0.573   4.594   4.753
 1387SOL    HW1 4184   0.617   4.683   4.744
 1387SOL    HW2 4185   0.510   4.594   4.830
 1388SOL     OW 4186   1.209   4.249   3.999
 1388SOL    HW1 4187   1.222   4.165   4.053
 1388SOL    HW2 4188   1.180   4.323   4.059
 1389SOL     OW 4189   0.307   3.937   4.955
 1389SOL    HW1 4190   0.284   3.974   5.045
 1389SOL    HW2 4191   0.277   3.842   4.949
 1390SOL     OW 4192   0.732   4.358   4.788
 1390SOL    HW1 4193   0.791   4.332   4.712
 1390SOL    HW2 4194   0.704   4.454   4.777
 1391SOL     OW 4195   0.307   3.787   4.342
 1391SOL    HW1 4196   0.296   3.881   4.375
 1391SOL    HW2 4197   0.302   3.724   4.419
 1392SOL     OW 4198   1.622   4.091   4.098
 1392SOL    HW1 4199   1.624   4.015   4.162
 1392SOL    HW2 4200   1.574   4.168   4.138
 1393SOL     OW 4201   1.540   3.998   3.849
 1393SOL    HW1 4202   1.479   3.923   3.872
 1393SOL    HW2 4203   1.562   4.050   3.932
 1394SOL     OW 4204   1.303   4.562   3.766
 1394SOL    HW1 4205   1.337   4.469   3.781
 1394SOL    HW2 4206   1.321   4.589   3.671
 1395SOL     OW 4207   0.319   4.534   4.673
 1395SOL    HW1 4208   0.412   4.570   4.678
 1395SOL    HW2 4209   0.313   4.449   4.725
 1396SOL     OW 4210   0.339   4.233   4.730
 1396SOL    HW1 4211   0.287   4.150   4.713
 1396SOL    HW2 4212   0.416   4.238   4.666
 1397SOL     OW 4213   1.002   4.520   4.962
 1397SOL    HW1 4214   1.043   4.488   5.048
 1397SOL    HW2 4215   0.906   4.493   4.959
 1398SOL     OW 4216   0.815   4.296   4.049
 1398SOL    HW1 4217   0.822   4.207   4.003
 1398SOL    HW2 4218   0.721   4.330   4.041
 1399SOL     OW 4219   0.671   4.188   4.993
 1399SOL    HW1 4220   0.637   4.099   4.963
 1399SOL    HW2 4221   0.697   4.242   4.913
 1400SOL     OW 4222   0.473   4.224   3.915
 1400SOL    HW1 4223   0.534   4.304   3.919
 1400SOL    HW2 4224   0.378   4.255   3.922
 1401SOL     OW 4225   1.302   4.579   4.033
 1401SOL    HW1 4226   1.216   4.548   4.075
 1401SOL    HW2 4227   1.298   4.565   3.934
 1402SOL     OW 4228   1.726   3.859   4.247
 1402SOL    HW1 4229   1.799   3.842   4.180
 1402SOL    HW2 4230   1.695   3.772   4.285
 1403SOL     OW 4231   1.280   4.651   4.396
 1403SOL    HW1 4232   1.340   4.570   4.398
 1403SOL    HW2 4233   1.320   4.720   4.336
 1404SOL     OW 4234   1.841   3.899   4.687
 1404SOL    HW1 4235   1.880   3.814   4.651
 1404SOL    HW2 4236   1.743   3.901   4.668
 1405SOL     OW 4237   0.263   4.050   4.444
 1405SOL    HW1 4238   0.184   4.101   4.410
 1405SOL    HW2 4239   0.254   4.035   4.542
 1406SOL     OW 4240   0.916   4.634   4.015
 1406SOL    HW1 4241   0.979   4.672   3.947
 1406SOL    HW2 4242   0.956   4.551   4.054
 1407SOL     OW 4243   1.014   3.960   4.695
 1407SOL    HW1 4244   1.006   3.924   4.602
 1407SOL    HW2 4245   1.012   3.884   4.760
 1408SOL     OW 4246   0.075   4.069   3.757
 1408SOL    HW1 4247  -0.017   4.041   3.728
 1408SOL    HW2 4248   0.106   4.146   3.701
 1409SOL     OW 4249   0.072   3.890   4.042
 1409SOL    HW1 4250   0.055   3.973   3.988
 1409SOL    HW2 4251   0.162   3.853   4.020
 1410SOL     OW 4252   1.183   5.059   3.843
 1410SOL    HW1 4253   1.084   5.048   3.845
 1410SOL    HW2 4254   1.217   5.074   3.936
 1411SOL     OW 4255   1.674   4.607   4.978
 1411SOL    HW1 4256   1.647   4.518   4.941
 1411SOL    HW2 4257   1.675   4.675   4.905
 1412SOL     OW 4258   1.225   4.049   4.173
 1412SOL    HW1 4259   1.290   3.975   4.162
 1412SOL    HW2 4260   1.245   4.099   4.257
 1413SOL     OW 4261   0.594   4.469   4.376
 1413SOL    HW1 4262   0.644   4.554   4.357
 1413SOL    HW2 4263   0.506   4.471   4.328
 1414SOL     OW 4264   0.859   4.680   4.585
 1414SOL    HW1 4265   0.913   4.611   4.633
 1414SOL    HW2 4266   0.827   4.749   4.651
 1415SOL     OW 4267   1.083   4.708   3.811
 1415SOL    HW1 4268   1.060   4.761   3.729
 1415SOL    HW2 4269   1.164   4.652   3.792
 1416SOL     OW 4270   0.079   4.964   4.377
 1416SOL    HW1 4271   0.078   4.917   4.465
 1416SOL    HW2 4272   0.161   4.936   4.326
 1417SOL     OW 4273   1.824   3.916   4.951
 1417SOL    HW1 4274   1.820   3.826   4.995
 1417SOL    HW2 4275   1.827   3.905   4.852
 1418SOL     OW 4276   0.428   4.148   4.244
 1418SOL    HW1 4277   0.458   4.076   4.182
 1418SOL    HW2 4278   0.389   4.108   4.327
 1419SOL     OW 4279   1.352   3.776   3.892
 1419SOL    HW1 4280   1.387   3.735   3.808
 1419SOL    HW2 4281   1.262   3.738   3.912
 1420SOL     OW 4282   1.300   4.177   4.415
 1420SOL    HW1 4283   1.241   4.257   4.419
 1420SOL    HW2 4284   1.315   4.142   4.508
 1421SOL     OW 4285   1.593   3.945   4.606
 1421SOL    HW1 4286   1.509   3.944   4.660
 1421SOL    HW2 4287   1.595   4.028   4.550
 1422SOL     OW 4288   0.039   4.801   4.024
 1422SOL    HW1 4289   0.138   4.790   4.015
 1422SOL    HW2 4290  -0.001   4.715   4.056
 1423SOL     OW 4291   2.092   0.628   0.113
 1423SOL    HW1 4292   1.999   0.626   0.150
 1423SOL    HW2 4293   2.093   0.589   0.021
 1424SOL     OW 4294   2.087   0.275   0.996
 1424SOL    HW1 4295   2.122   0.258   1.088
 1424SOL    HW2 4296   1.999   0.230   0.984
 1425SOL     OW 4297   1.881   0.368   0.647
 1425SOL    HW1 4298   1.799   0.411   0.686
 1425SOL    HW2 4299   1.853   0.295   0.584
 1426SOL     OW 4300   2.431   1.275   1.165
 1426SOL    HW1 4301   2.338   1.268   1.128
 1426SOL    HW2 4302   2.442   1.364   1.209
 1427SOL     OW 4303   3.417   1.511   0.703
 1427SOL    HW1 4304   3.360   1.495   0.784
 1427SOL    HW2 4305   3.358   1.521   0.623
 1428SOL     OW 4306   2.997   0.703   0.717
 1428SOL    HW1 4307   3.054   0.781   0.692
 1428SOL    HW2 4308   2.937   0.729   0.793
 1429SOL     OW 4309   3.617   0.607   0.231
 1429SOL    HW1 4310   3.605   0.594   0.132
 1429SOL    HW2 4311   3.587   0.526   0.280
 1430SOL     OW 4312   2.630   1.144   1.023
 1430SOL    HW1 4313   2.552   1.161   1.083
 1430SOL    HW2 4314   2.664   1.231   0.987
 1431SOL     OW 4315   2.712   0.798   1.823
 1431SOL    HW1 4316   2.708   0.874   1.888
 1431SOL    HW2 4317   2.734   0.834   1.732
 1432SOL     OW 4318   2.547   1.012   0.665
 1432SOL    HW1 4319   2.616   0.996   0.735
 1432SOL    HW2 4320   2.474   1.069   0.703
 1433SOL     OW 4321   2.548   1.161   1.803
 1433SOL    HW1 4322   2.608   1.240   1.817
 1433SOL    HW2 4323   2.462   1.192   1.762
 1434SOL     OW 4324   2.197   1.435   1.061
 1434SOL    HW1 4325   2.119   1.404   1.008
 1434SOL    HW2 4326   2.255   1.493   1.004
 1435SOL     OW 4327   3.322   1.505   1.339
 1435SOL    HW1 4328   3.346   1.599   1.365
 1435SOL    HW2 4329   3.306   1.451   1.421
 1436SOL     OW 4330   2.300   0.392   1.499
 1436SOL    HW1 4331   2.382   0.336   1.508
 1436SOL    HW2 4332   2.219   0.334   1.503
 1437SOL     OW 4333   3.465   0.447   0.737
 1437SOL    HW1 4334   3.391   0.493   0.687
 1437SOL    HW2 4335   3.516   0.515   0.790
 1438SOL     OW 4336   2.093   1.713   0.483
 1438SOL    HW1 4337   2.127   1.790   0.537
 1438SOL    HW2 4338   2.137   1.713   0.393
 1439SOL     OW 4339   2.989   1.341   1.690
 1439SOL    HW1 4340   3.036   1.341   1.778
 1439SOL    HW2 4341   2.941   1.254   1.679
 1440SOL     OW 4342   2.092   1.434   0.538
 1440SOL    HW1 4343   2.066   1.530   0.538
 1440SOL    HW2 4344   2.021   1.380   0.583
 1441SOL     OW 4345   2.102   1.091   0.886
 1441SOL    HW1 4346   2.116   1.007   0.938
 1441SOL    HW2 4347   2.047   1.155   0.941
 1442SOL     OW 4348   2.482   1.786   1.439
 1442SOL    HW1 4349   2.390   1.769   1.474
 1442SOL    HW2 4350   2.510   1.878   1.465
 1443SOL     OW 4351   2.468   0.964   0.123
 1443SOL    HW1 4352   2.475   1.048   0.069
 1443SOL    HW2 4353   2.514   0.977   0.211
 1444SOL     OW 4354   3.456   0.114   1.480
 1444SOL    HW1 4355   3.438   0.181   1.408
 1444SOL    HW2 4356   3.453   0.160   1.569
 1445SOL     OW 4357   1.984   0.643   0.563
 1445SOL    HW1 4358   1.939   0.555   0.580
 1445SOL    HW2 4359   1.983   0.697   0.647
 1446SOL     OW 4360   3.704   1.767   0.359
 1446SOL    HW1 4361   3.758   1.738   0.439
 1446SOL    HW2 4362   3.734   1.857   0.330
 1447SOL     OW 4363   1.889   1.596   0.117
 1447SOL    HW1 4364   1.870   1.500   0.138
 1447SOL    HW2 4365   1.856   1.654   0.192
 1448SOL     OW 4366   3.551   0.922   0.612
 1448SOL    HW1 4367   3.646   0.893   0.620
 1448SOL    HW2 4368   3.543   0.987   0.537
 1449SOL     OW 4369   3.503   1.108   0.432
 1449SOL    HW1 4370   3.589   1.110   0.380
 1449SOL    HW2 4371   3.517   1.155   0.520
 1450SOL     OW 4372   1.975   0.737   1.597
 1450SOL    HW1 4373   2.063   0.724   1.642
 1450SOL    HW2 4374   1.962   0.834   1.575
 1451SOL     OW 4375   2.475   1.365   0.726
 1451SOL    HW1 4376   2.426   1.278   0.735
 1451SOL    HW2 4377   2.452   1.408   0.639
 1452SOL     OW 4378   3.155   1.228   1.423
 1452SOL    HW1 4379   3.192   1.155   1.365
 1452SOL    HW2 4380   3.207   1.233   1.508
 1453SOL     OW 4381   2.671   0.004   0.502
 1453SOL    HW1 4382   2.711   0.095   0.493
 1453SOL    HW2 4383   2.571   0.012   0.508
 1454SOL     OW 4384   2.059   0.976   1.264
 1454SOL    HW1 4385   2.148   0.931   1.250
 1454SOL    HW2 4386   1.986   0.911   1.245
 1455SOL     OW 4387   3.387   0.999   0.190
 1455SOL    HW1 4388   3.324   0.923   0.203
 1455SOL    HW2 4389   3.435   1.017   0.276
 1456SOL     OW 4390   3.049   1.792   1.616
 1456SOL    HW1 4391   3.073   1.852   1.540
 1456SOL    HW2 4392   3.056   1.697   1.586
 1457SOL     OW 4393   2.179   0.251   1.801
 1457SOL    HW1 4394   2.250   0.322   1.807
 1457SOL    HW2 4395   2.091   0.290   1.829
 1458SOL     OW 4396   3.328   1.417   0.953
 1458SOL    HW1 4397   3.269   1.423   1.033
 1458SOL    HW2 4398   3.313   1.329   0.907
 1459SOL     OW 4399   3.529   1.714   0.572
 1459SOL    HW1 4400   3.488   1.691   0.484
 1459SOL    HW2 4401   3.511   1.640   0.637
 1460SOL     OW 4402   2.460   0.729   0.270
 1460SOL    HW1 4403   2.484   0.798   0.202
 1460SOL    HW2 4404   2.382   0.762   0.324
 1461SOL     OW 4405   3.143   0.345   0.944
 1461SOL    HW1 4406   3.057   0.295   0.931
 1461SOL    HW2 4407   3.205   0.291   1.000
 1462SOL     OW 4408   3.438   1.662   0.307
 1462SOL    HW1 4409   3.527   1.708   0.310
 1462SOL    HW2 4410   3.417   1.638   0.212
 1463SOL     OW 4411   2.669   0.605   1.465
 1463SOL    HW1 4412   2.622   0.602   1.554
 1463SOL    HW2 4413   2.618   0.550   1.399
 1464SOL     OW 4414   3.256   0.469   1.674
 1464SOL    HW1 4415   3.236   0.512   1.762
 1464SOL    HW2 4416   3.334   0.407   1.683
 1465SOL     OW 4417   2.835   0.890   1.572
 1465SOL    HW1 4418   2.881   0.806   1.543
 1465SOL    HW2 4419   2.779   0.924   1.497
 1466SOL     OW 4420   2.853   0.410   1.242
 1466SOL    HW1 4421   2.776   0.444   1.296
 1466SOL    HW2 4422   2.819   0.359   1.163
 1467SOL     OW 4423   2.903   0.701   0.429
 1467SOL    HW1 4424   2.929   0.697   0.525
 1467SOL    HW2 4425   2.818   0.650   0.415
 1468SOL     OW 4426   1.938   0.811   0.789
 1468SOL    HW1 4427   2.037   0.799   0.798
 1468SOL    HW2 4428   1.914   0.906   0.810
 1469SOL     OW 4429   1.992   1.821   1.571
 1469SOL    HW1 4430   1.982   1.806   1.670
 1469SOL    HW2 4431   1.906   1.857   1.535
 1470SOL     OW 4432   2.727   0.348   0.195
 1470SOL    HW1 4433   2.786   0.411   0.146
 1470SOL    HW2 4434   2.746   0.254   0.166
 1471SOL     OW 4435   3.581   0.585   1.831
 1471SOL    HW1 4436   3.555   0.674   1.795
 1471SOL    HW2 4437   3.579   0.517   1.758
 1472SOL     OW 4438   3.224   1.144   0.545
 1472SOL    HW1 4439   3.307   1.115   0.497
 1472SOL    HW2 4440   3.175   1.211   0.489
 1473SOL     OW 4441   2.412   0.196   0.885
 1473SOL    HW1 4442   2.407   0.191   0.985
 1473SOL    HW2 4443   2.414   0.292   0.856
 1474SOL     OW 4444   2.870   1.456   0.477
 1474SOL    HW1 4445   2.824   1.528   0.425
 1474SOL    HW2 4446   2.866   1.476   0.575
 1475SOL     OW 4447   2.213   1.801   0.853
 1475SOL    HW1 4448   2.263   1.715   0.859
 1475SOL    HW2 4449   2.278   1.878   0.850
 1476SOL     OW 4450   3.657   1.066   0.873
 1476SOL    HW1 4451   3.595   1.051   0.797
 1476SOL    HW2 4452   3.605   1.077   0.958
 1477SOL     OW 4453   3.089   1.550   1.506
 1477SOL    HW1 4454   3.095   1.473   1.570
 1477SOL    HW2 4455   3.037   1.524   1.426
 1478SOL     OW 4456   2.183   0.943   0.242
 1478SOL    HW1 4457   2.265   0.982   0.200
 1478SOL    HW2 4458   2.156   0.861   0.193
 1479SOL     OW 4459   3.320   0.735   0.728
 1479SOL    HW1 4460   3.315   0.670   0.803
 1479SOL    HW2 4461   3.400   0.794   0.741
 1480SOL     OW 4462   2.323   1.266   1.727
 1480SOL    HW1 4463   2.273   1.267   1.641
 1480SOL    HW2 4464   2.260   1.248   1.803
 1481SOL     OW 4465   2.973   1.776   0.237
 1481SOL    HW1 4466   2.913   1.714   0.287
 1481SOL    HW2 4467   3.004   1.732   0.152
 1482SOL     OW 4468   2.064   0.285   1.498
 1482SOL    HW1 4469   1.984   0.345   1.485
 1482SOL    HW2 4470   2.054   0.236   1.584
 1483SOL     OW 4471   3.494   1.377   0.081
 1483SOL    HW1 4472   3.462   1.471   0.071
 1483SOL    HW2 4473   3.418   1.314   0.069
 1484SOL     OW 4474   2.326   1.743   0.323
 1484SOL    HW1 4475   2.359   1.782   0.409
 1484SOL    HW2 4476   2.402   1.736   0.258
 1485SOL     OW 4477   3.262   0.107   0.426
 1485SOL    HW1 4478   3.238   0.070   0.336
 1485SOL    HW2 4479   3.361   0.123   0.430
 1486SOL     OW 4480   2.111   1.785   1.241
 1486SOL    HW1 4481   2.168   1.720   1.291
 1486SOL    HW2 4482   2.095   1.752   1.148
 1487SOL     OW 4483   2.802   1.698   0.904
 1487SOL    HW1 4484   2.882   1.641   0.925
 1487SOL    HW2 4485   2.753   1.658   0.827
 1488SOL     OW 4486   2.244   0.700   0.480
 1488SOL    HW1 4487   2.289   0.610   0.477
 1488SOL    HW2 4488   2.150   0.689   0.513
 1489SOL     OW 4489   3.409   0.222   1.729
 1489SOL    HW1 4490   3.404   0.259   1.821
 1489SOL    HW2 4491   3.337   0.153   1.717
 1490SOL     OW 4492   2.476   0.122   0.117
 1490SOL    HW1 4493   2.574   0.100   0.124
 1490SOL    HW2 4494   2.445   0.105   0.024
 1491SOL     OW 4495   2.643   0.264   1.749
 1491SOL    HW1 4496   2.710   0.203   1.792
 1491SOL    HW2 4497   2.570   0.283   1.814
 1492SOL     OW 4498   2.750   1.514   1.195
 1492SOL    HW1 4499   2.727   1.489   1.101
 1492SOL    HW2 4500   2.811   1.445   1.234
 1493SOL     OW 4501   3.213   0.590   1.433
 1493SOL    HW1 4502   3.241   0.547   1.518
 1493SOL    HW2 4503   3.238   0.686   1.434
 1494SOL     OW 4504   2.665   1.402   0.924
 1494SOL    HW1 4505   2.755   1.416   0.882
 1494SOL    HW2 4506   2.594   1.404   0.853
 1495SOL     OW 4507   2.784   0.503   0.899
 1495SOL    HW1 4508   2.759   0.494   0.803
 1495SOL    HW2 4509   2.832   0.421   0.930
 1496SOL     OW 4510   2.401   0.064   0.512
 1496SOL    HW1 4511   2.320   0.065   0.570
 1496SOL    HW2 4512   2.404   0.147   0.457
 1497SOL     OW 4513   3.296   1.188   0.041
 1497SOL    HW1 4514   3.328   1.112   0.098
 1497SOL    HW2 4515   3.204   1.215   0.071
 1498SOL     OW 4516   2.159   0.035   0.171
 1498SOL    HW1 4517   2.208   0.119   0.150
 1498SOL    HW2 4518   2.221  -0.030   0.216
 1499SOL     OW 4519   2.797   0.236   0.480
 1499SOL    HW1 4520   2.749   0.277   0.402
 1499SOL    HW2 4521   2.896   0.234   0.461
 1500SOL     OW 4522   2.938   0.683   1.464
 1500SOL    HW1 4523   2.858   0.622   1.467
 1500SOL    HW2 4524   3.019   0.630   1.440
 1501SOL     OW 4525   3.089   1.570   0.793
 1501SOL    HW1 4526   3.110   1.644   0.728
 1501SOL    HW2 4527   3.157   1.570   0.866
 1502SOL     OW 4528   2.321   1.152   0.741
 1502SOL    HW1 4529   2.250   1.125   0.806
 1502SOL    HW2 4530   2.295   1.124   0.648
 1503SOL     OW 4531   3.133   1.797   0.591
 1503SOL    HW1 4532   3.177   1.861   0.527
 1503SOL    HW2 4533   3.083   1.849   0.661
 1504SOL     OW 4534   2.894   0.549   0.016
 1504SOL    HW1 4535   2.853   0.631  -0.023
 1504SOL    HW2 4536   2.958   0.575   0.089
 1505SOL     OW 4537   1.940   0.556   1.386
 1505SOL    HW1 4538   2.032   0.555   1.345
 1505SOL    HW2 4539   1.934   0.630   1.453
 1506SOL     OW 4540   2.423   0.222   1.147
 1506SOL    HW1 4541   2.461   0.138   1.184
 1506SOL    HW2 4542   2.335   0.241   1.191
 1507SOL     OW 4543   2.728   0.454   0.642
 1507SOL    HW1 4544   2.696   0.526   0.580
 1507SOL    HW2 4545   2.752   0.373   0.589
 1508SOL     OW 4546   2.879   0.039   0.753
 1508SOL    HW1 4547   2.807   0.044   0.684
 1508SOL    HW2 4548   2.855  -0.030   0.822
 1509SOL     OW 4549   3.291   1.173   0.867
 1509SOL    HW1 4550   3.236   1.089   0.860
 1509SOL    HW2 4551   3.317   1.202   0.775
 1510SOL     OW 4552   3.328   0.590   0.992
 1510SOL    HW1 4553   3.298   0.495   0.999
 1510SOL    HW2 4554   3.401   0.606   1.058
 1511SOL     OW 4555   3.719   0.833   0.377
 1511SOL    HW1 4556   3.761   0.769   0.441
 1511SOL    HW2 4557   3.681   0.782   0.299
 1512SOL     OW 4558   2.350   1.385   0.174
 1512SOL    HW1 4559   2.263   1.370   0.221
 1512SOL    HW2 4560   2.333   1.411   0.079
 1513SOL     OW 4561   3.526   1.280   0.657
 1513SOL    HW1 4562   3.625   1.288   0.671
 1513SOL    HW2 4563   3.481   1.364   0.688
 1514SOL     OW 4564   3.252   0.575   0.078
 1514SOL    HW1 4565   3.198   0.554   0.159
 1514SOL    HW2 4566   3.343   0.534   0.087
 1515SOL     OW 4567   2.389   0.256   0.328
 1515SOL    HW1 4568   2.416   0.197   0.253
 1515SOL    HW2 4569   2.389   0.351   0.297
 1516SOL     OW 4570   3.616   1.223   1.588
 1516SOL    HW1 4571   3.707   1.184   1.575
 1516SOL    HW2 4572   3.624   1.319   1.612
 1517SOL     OW 4573   2.926   1.347   1.340
 1517SOL    HW1 4574   2.846   1.324   1.395
 1517SOL    HW2 4575   3.009   1.321   1.389
 1518SOL     OW 4576   3.454   1.629   1.625
 1518SOL    HW1 4577   3.481   1.663   1.535
 1518SOL    HW2 4578   3.533   1.591   1.671
 1519SOL     OW 4579   2.973   1.195   1.100
 1519SOL    HW1 4580   2.933   1.239   1.181
 1519SOL    HW2 4581   2.932   1.232   1.017
 1520SOL     OW 4582   3.500   1.099   1.079
 1520SOL    HW1 4583   3.505   1.180   1.138
 1520SOL    HW2 4584   3.414   1.101   1.028
 1521SOL     OW 4585   2.777   0.089   1.402
 1521SOL    HW1 4586   2.802   0.069   1.307
 1521SOL    HW2 4587   2.849   0.145   1.444
 1522SOL     OW 4588   2.842   1.116   1.719
 1522SOL    HW1 4589   2.743   1.122   1.729
 1522SOL    HW2 4590   2.865   1.036   1.663
 1523SOL     OW 4591   2.567   1.050   0.368
 1523SOL    HW1 4592   2.553   1.057   0.467
 1523SOL    HW2 4593   2.651   0.999   0.350
 1524SOL     OW 4594   2.272   0.813   1.251
 1524SOL    HW1 4595   2.358   0.825   1.301
 1524SOL    HW2 4596   2.230   0.726   1.278
 1525SOL     OW 4597   3.136   0.386   1.262
 1525SOL    HW1 4598   3.157   0.460   1.326
 1525SOL    HW2 4599   3.047   0.403   1.219
 1526SOL     OW 4600   1.926   1.564   1.331
 1526SOL    HW1 4601   1.880   1.646   1.297
 1526SOL    HW2 4602   2.024   1.583   1.340
 1527SOL     OW 4603   2.229   1.100   0.501
 1527SOL    HW1 4604   2.222   1.183   0.445
 1527SOL    HW2 4605   2.233   1.020   0.441
 1528SOL     OW 4606   2.428   0.537   0.865
 1528SOL    HW1 4607   2.440   0.603   0.791
 1528SOL    HW2 4608   2.474   0.571   0.948
 1529SOL     OW 4609   3.114   1.348   0.388
 1529SOL    HW1 4610   3.164   1.425   0.428
 1529SOL    HW2 4611   3.019   1.350   0.420
 1530SOL     OW 4612   3.134   1.445   1.142
 1530SOL    HW1 4613   3.181   1.458   1.229
 1530SOL    HW2 4614   3.068   1.371   1.151
 1531SOL     OW 4615   3.444   0.639   0.472
 1531SOL    HW1 4616   3.413   0.700   0.545
 1531SOL    HW2 4617   3.494   0.691   0.403
 1532SOL     OW 4618   2.216   1.510   1.329
 1532SOL    HW1 4619   2.195   1.466   1.242
 1532SOL    HW2 4620   2.313   1.536   1.332
 1533SOL     OW 4621   2.264   0.751   1.598
 1533SOL    HW1 4622   2.332   0.806   1.551
 1533SOL    HW2 4623   2.304   0.663   1.625
 1534SOL     OW 4624   3.449   0.779   1.670
 1534SOL    HW1 4625   3.357   0.817   1.665
 1534SOL    HW2 4626   3.509   0.826   1.605
 1535SOL     OW 4627   2.875   0.105   1.770
 1535SOL    HW1 4628   2.881   0.190   1.718
 1535SOL    HW2 4629   2.907   0.029   1.713
 1536SOL     OW 4630   2.366   0.050   1.740
 1536SOL    HW1 4631   2.324  -0.007   1.670
 1536SOL    HW2 4632   2.300   0.119   1.772
 1537SOL     OW 4633   2.435   0.870   1.029
 1537SOL    HW1 4634   2.479   0.959   1.020
 1537SOL    HW2 4635   2.372   0.870   1.106
 1538SOL     OW 4636   3.222   0.862   1.045
 1538SOL    HW1 4637   3.147   0.862   0.979
 1538SOL    HW2 4638   3.259   0.770   1.054
 1539SOL     OW 4639   3.071   0.525   0.275
 1539SOL    HW1 4640   3.084   0.441   0.329
 1539SOL    HW2 4641   3.042   0.599   0.335
 1540SOL     OW 4642   2.169   0.213   1.231
 1540SOL    HW1 4643   2.146   0.250   1.321
 1540SOL    HW2 4644   2.139   0.118   1.225
 1541SOL     OW 4645   1.899   1.310   1.282
 1541SOL    HW1 4646   1.952   1.261   1.350
 1541SOL    HW2 4647   1.921   1.408   1.287
 1542SOL     OW 4648   2.594   0.634   1.064
 1542SOL    HW1 4649   2.653   0.608   0.988
 1542SOL    HW2 4650   2.566   0.730   1.053
 1543SOL     OW 4651   3.590   0.935   1.854
 1543SOL    HW1 4652   3.544   0.928   1.765
 1543SOL    HW2 4653   3.528   0.979   1.920
 1544SOL     OW 4654   2.169   0.063   0.618
 1544SOL    HW1 4655   2.158   0.157   0.651
 1544SOL    HW2 4656   2.164   0.000   0.695
 1545SOL     OW 4657   3.484   0.367   0.374
 1545SOL    HW1 4658   3.486   0.291   0.438
 1545SOL    HW2 4659   3.436   0.444   0.414
 1546SOL     OW 4660   2.885   0.766   0.966
 1546SOL    HW1 4661   2.900   0.787   1.062
 1546SOL    HW2 4662   2.855   0.671   0.957
 1547SOL     OW 4663   2.842   1.573   1.700
 1547SOL    HW1 4664   2.822   1.617   1.612
 1547SOL    HW2 4665   2.881   1.482   1.684
 1548SOL     OW 4666   3.721   1.518   1.605
 1548SOL    HW1 4667   3.735   1.545   1.510
 1548SOL    HW2 4668   3.804   1.540   1.658
 1549SOL     OW 4669   2.212   0.898   1.804
 1549SOL    HW1 4670   2.288   0.942   1.852
 1549SOL    HW2 4671   2.247   0.851   1.722
 1550SOL     OW 4672   3.402   0.274   0.125
 1550SOL    HW1 4673   3.341   0.199   0.148
 1550SOL    HW2 4674   3.424   0.326   0.208
 1551SOL     OW 4675   3.165   0.838   0.042
 1551SOL    HW1 4676   3.199   0.745   0.057
 1551SOL    HW2 4677   3.183   0.865  -0.053
 1552SOL     OW 4678   2.930   1.333   0.849
 1552SOL    HW1 4679   2.937   1.249   0.794
 1552SOL    HW2 4680   2.992   1.402   0.813
 1553SOL     OW 4681   2.181   0.810   0.949
 1553SOL    HW1 4682   2.274   0.846   0.954
 1553SOL    HW2 4683   2.175   0.725   1.001
 1554SOL     OW 4684   2.201   0.509   1.006
 1554SOL    HW1 4685   2.149   0.426   0.989
 1554SOL    HW2 4686   2.278   0.514   0.942
 1555SOL     OW 4687   3.000   0.380   1.678
 1555SOL    HW1 4688   2.955   0.443   1.742
 1555SOL    HW2 4689   3.093   0.411   1.661
 1556SOL     OW 4690   3.022   0.207   1.477
 1556SOL    HW1 4691   3.022   0.271   1.554
 1556SOL    HW2 4692   3.050   0.255   1.394
 1557SOL     OW 4693   1.870   1.326   0.200
 1557SOL    HW1 4694   1.777   1.347   0.169
 1557SOL    HW2 4695   1.880   1.227   0.213
 1558SOL     OW 4696   1.950   1.801   0.927
 1558SOL    HW1 4697   1.908   1.715   0.900
 1558SOL    HW2 4698   2.044   1.804   0.893
 1559SOL     OW 4699   2.366   1.568   0.910
 1559SOL    HW1 4700   2.432   1.642   0.919
 1559SOL    HW2 4701   2.410   1.489   0.868
 1560SOL     OW 4702   2.864   0.796   1.238
 1560SOL    HW1 4703   2.905   0.764   1.324
 1560SOL    HW2 4704   2.768   0.769   1.235
 1561SOL     OW 4705   1.902   0.544   1.114
 1561SOL    HW1 4706   1.987   0.511   1.073
 1561SOL    HW2 4707   1.915   0.559   1.212
 1562SOL     OW 4708   2.051   0.520   1.722
 1562SOL    HW1 4709   2.110   0.480   1.652
 1562SOL    HW2 4710   1.993   0.591   1.681
 1563SOL     OW 4711   3.231   0.950   1.660
 1563SOL    HW1 4712   3.270   1.039   1.680
 1563SOL    HW2 4713   3.241   0.930   1.563
 1564SOL     OW 4714   2.677   0.572   0.325
 1564SOL    HW1 4715   2.684   0.483   0.279
 1564SOL    HW2 4716   2.583   0.606   0.317
 1565SOL     OW 4717   3.519   0.604   1.206
 1565SOL    HW1 4718   3.481   0.535   1.268
 1565SOL    HW2 4719   3.601   0.568   1.162
 1566SOL     OW 4720   2.114   1.564   1.744
 1566SOL    HW1 4721   2.084   1.621   1.820
 1566SOL    HW2 4722   2.107   1.467   1.770
 1567SOL     OW 4723   2.533   0.464   1.269
 1567SOL    HW1 4724   2.499   0.375   1.239
 1567SOL    HW2 4725   2.559   0.518   1.189
 1568SOL     OW 4726   2.792   1.678   1.465
 1568SOL    HW1 4727   2.768   1.660   1.370
 1568SOL    HW2 4728   2.822   1.772   1.475
 1569SOL     OW 4729   2.335   0.500   0.191
 1569SOL    HW1 4730   2.396   0.580   0.195
 1569SOL    HW2 4731   2.240   0.531   0.198
 1570SOL     OW 4732   2.021   1.137   1.466
 1570SOL    HW1 4733   2.043   1.076   1.542
 1570SOL    HW2 4734   2.031   1.088   1.380
 1571SOL     OW 4735   3.209   1.059   1.234
 1571SOL    HW1 4736   3.233   0.996   1.160
 1571SOL    HW2 4737   3.119   1.099   1.216
 1572SOL     OW 4738   3.164   0.855   0.309
 1572SOL    HW1 4739   3.078   0.824   0.351
 1572SOL    HW2 4740   3.160   0.841   0.210
 1573SOL     OW 4741   3.621   1.747   1.154
 1573SOL    HW1 4742   3.682   1.777   1.081
 1573SOL    HW2 4743   3.583   1.658   1.132
 1574SOL     OW 4744   3.114   1.731   1.128
 1574SOL    HW1 4745   3.198   1.736   1.074
 1574SOL    HW2 4746   3.091   1.635   1.146
 1575SOL     OW 4747   1.945   1.258   1.022
 1575SOL    HW1 4748   1.940   1.257   1.122
 1575SOL    HW2 4749   1.862   1.217   0.984
 1576SOL     OW 4750   2.550   1.662   1.716
 1576SOL    HW1 4751   2.494   1.743   1.725
 1576SOL    HW2 4752   2.602   1.666   1.630
 1577SOL     OW 4753   2.765   0.086   0.133
 1577SOL    HW1 4754   2.816   0.087   0.047
 1577SOL    HW2 4755   2.821   0.044   0.204
 1578SOL     OW 4756   3.588   0.135   0.523
 1578SOL    HW1 4757   3.661   0.118   0.456
 1578SOL    HW2 4758   3.557   0.048   0.561
 1579SOL     OW 4759   3.250   1.573   0.477
 1579SOL    HW1 4760   3.317   1.585   0.403
 1579SOL    HW2 4761   3.210   1.662   0.500
 1580SOL     OW 4762   1.992   1.794   1.851
 1580SOL    HW1 4763   1.951   1.720   1.904
 1580SOL    HW2 4764   2.056   1.845   1.909
 1581SOL     OW 4765   3.142   0.927   0.672
 1581SOL    HW1 4766   3.202   0.846   0.674
 1581SOL    HW2 4767   3.182   0.996   0.612
 1582SOL     OW 4768   2.692   1.273   1.422
 1582SOL    HW1 4769   2.687   1.306   1.517
 1582SOL    HW2 4770   2.606   1.292   1.376
 1583SOL     OW 4771   2.534   1.616   0.154
 1583SOL    HW1 4772   2.543   1.626   0.055
 1583SOL    HW2 4773   2.494   1.527   0.175
 1584SOL     OW 4774   3.512   1.720   1.394
 1584SOL    HW1 4775   3.565   1.730   1.310
 1584SOL    HW2 4776   3.485   1.810   1.428
 1585SOL     OW 4777   3.703   0.175   0.963
 1585SOL    HW1 4778   3.742   0.090   0.927
 1585SOL    HW2 4779   3.605   0.177   0.944
 1586SOL     OW 4780   2.125   0.326   0.720
 1586SOL    HW1 4781   2.046   0.377   0.686
 1586SOL    HW2 4782   2.116   0.311   0.818
 1587SOL     OW 4783   3.056   1.612   0.031
 1587SOL    HW1 4784   3.062   1.519   0.068
 1587SOL    HW2 4785   2.997   1.612  -0.049
 1588SOL     OW 4786   2.684   1.002   1.372
 1588SOL    HW1 4787   2.724   1.001   1.280
 1588SOL    HW2 4788   2.694   1.094   1.412
 1589SOL     OW 4789   2.778   0.910   0.291
 1589SOL    HW1 4790   2.841   0.948   0.223
 1589SOL    HW2 4791   2.818   0.827   0.330
 1590SOL     OW 4792   3.366   1.607   0.044
 1590SOL    HW1 4793   3.274   1.644   0.051
 1590SOL    HW2 4794   3.404   1.627  -0.046
 1591SOL     OW 4795   2.234   1.288   1.490
 1591SOL    HW1 4796   2.221   1.381   1.456
 1591SOL    HW2 4797   2.150   1.236   1.477
 1592SOL     OW 4798   3.476   1.292   1.289
 1592SOL    HW1 4799   3.536   1.295   1.369
 1592SOL    HW2 4800   3.401   1.356   1.302
 1593SOL     OW 4801   2.901   1.098   0.696
 1593SOL    HW1 4802   2.831   1.051   0.750
 1593SOL    HW2 4803   2.960   1.030   0.653
 1594SOL     OW 4804   2.876   0.236   0.971
 1594SOL    HW1 4805   2.868   0.200   0.878
 1594SOL    HW2 4806   2.874   0.160   1.036
 1595SOL     OW 4807   2.452   1.487   0.491
 1595SOL    HW1 4808   2.494   1.429   0.421
 1595SOL    HW2 4809   2.408   1.566   0.447
 1596SOL     OW 4810   3.571   0.385   1.381
 1596SOL    HW1 4811   3.644   0.454   1.385
 1596SOL    HW2 4812   3.599   0.310   1.322
 1597SOL     OW 4813   2.117   1.348   0.290
 1597SOL    HW1 4814   2.021   1.349   0.263
 1597SOL    HW2 4815   2.129   1.401   0.374
 1598SOL     OW 4816   1.967   1.013   1.726
 1598SOL    HW1 4817   1.890   0.980   1.780
 1598SOL    HW2 4818   2.052   0.983   1.768
 1599SOL     OW 4819   2.534   0.203   1.489
 1599SOL    HW1 4820   2.624   0.187   1.449
 1599SOL    HW2 4821   2.542   0.208   1.588
 1600SOL     OW 4822   1.937   0.345   0.033
 1600SOL    HW1 4823   1.845   0.317   0.004
 1600SOL    HW2 4824   1.968   0.422  -0.023
 1601SOL     OW 4825   3.302   0.856   1.398
 1601SOL    HW1 4826   3.245   0.908   1.335
 1601SOL    HW2 4827   3.398   0.868   1.374
 1602SOL     OW 4828   1.934   0.166   0.318
 1602SOL    HW1 4829   1.917   0.249   0.264
 1602SOL    HW2 4830   2.024   0.129   0.296
 1603SOL     OW 4831   3.045   1.335   0.119
 1603SOL    HW1 4832   2.946   1.324   0.121
 1603SOL    HW2 4833   3.079   1.350   0.212
 1604SOL     OW 4834   2.475   0.842   1.431
 1604SOL    HW1 4835   2.531   0.923   1.414
 1604SOL    HW2 4836   2.534   0.762   1.434
 1605SOL     OW 4837   3.355   1.767   0.959
 1605SOL    HW1 4838   3.388   1.831   0.890
 1605SOL    HW2 4839   3.421   1.761   1.034
 1606SOL     OW 4840   2.578   0.565   1.708
 1606SOL    HW1 4841   2.597   0.630   1.782
 1606SOL    HW2 4842   2.638   0.485   1.717
 1607SOL     OW 4843   3.312   1.220   1.633
 1607SOL    HW1 4844   3.303   1.210   1.732
 1607SOL    HW2 4845   3.408   1.213   1.607
 1608SOL     OW 4846   2.252   1.741   1.560
 1608SOL    HW1 4847   2.161   1.782   1.558
 1608SOL    HW2 4848   2.245   1.647   1.592
 1609SOL     OW 4849   3.536   0.883   1.254
 1609SOL    HW1 4850   3.509   0.794   1.217
 1609SOL    HW2 4851   3.537   0.951   1.181
 1610SOL     OW 4852   3.087   0.325   0.449
 1610SOL    HW1 4853   3.152   0.251   0.438
 1610SOL    HW2 4854   3.107   0.375   0.533
 1611SOL     OW 4855   2.456   0.745   0.652
 1611SOL    HW1 4856   2.506   0.830   0.633
 1611SOL    HW2 4857   2.368   0.747   0.604
 1612SOL     OW 4858   3.639   0.342   1.642
 1612SOL    HW1 4859   3.622   0.373   1.548
 1612SOL    HW2 4860   3.555   0.305   1.680
 1613SOL     OW 4861   3.592   0.934   1.517
 1613SOL    HW1 4862   3.630   1.025   1.532
 1613SOL    HW2 4863   3.584   0.917   1.418
 1614SOL     OW 4864   2.721   1.374   0.016
 1614SOL    HW1 4865   2.675   1.389   0.104
 1614SOL    HW2 4866   2.765   1.459  -0.014
 1615SOL     OW 4867   2.523   1.790   0.953
 1615SOL    HW1 4868   2.477   1.878   0.940
 1615SOL    HW2 4869   2.622   1.802   0.946
 1616SOL     OW 4870   2.721   0.956   0.861
 1616SOL    HW1 4871   2.775   0.887   0.909
 1616SOL    HW2 4872   2.689   1.025   0.927
 1617SOL     OW 4873   2.945   0.984   0.087
 1617SOL    HW1 4874   2.922   1.037   0.005
 1617SOL    HW2 4875   3.026   0.928   0.068
 1618SOL     OW 4876   3.723   1.569   0.851
 1618SOL    HW1 4877   3.652   1.557   0.781
 1618SOL    HW2 4878   3.724   1.490   0.911
 1619SOL     OW 4879   2.083   1.314   1.844
 1619SOL    HW1 4880   2.018   1.241   1.823
 1619SOL    HW2 4881   2.087   1.328   1.942
 1620SOL     OW 4882   1.941   1.240   0.653
 1620SOL    HW1 4883   1.940   1.193   0.741
 1620SOL    HW2 4884   2.023   1.212   0.602
 1621SOL     OW 4885   2.534   1.391   1.624
 1621SOL    HW1 4886   2.456   1.341   1.662
 1621SOL    HW2 4887   2.531   1.486   1.655
 1622SOL     OW 4888   3.686   0.192   1.227
 1622SOL    HW1 4889   3.682   0.102   1.271
 1622SOL    HW2 4890   3.689   0.181   1.128
 1623SOL     OW 4891   2.290   0.424   0.520
 1623SOL    HW1 4892   2.320   0.352   0.458
 1623SOL    HW2 4893   2.251   0.384   0.603
 1624SOL     OW 4894   3.567   1.487   1.104
 1624SOL    HW1 4895   3.474   1.462   1.077
 1624SOL    HW2 4896   3.593   1.437   1.186
 1625SOL     OW 4897   2.179   0.547   1.280
 1625SOL    HW1 4898   2.217   0.488   1.352
 1625SOL    HW2 4899   2.219   0.521   1.192
 1626SOL     OW 4900   2.674   1.586   0.687
 1626SOL    HW1 4901   2.706   1.596   0.593
 1626SOL    HW2 4902   2.595   1.524   0.689
 1627SOL     OW 4903   3.286   0.214   1.112
 1627SOL    HW1 4904   3.338   0.149   1.167
 1627SOL    HW2 4905   3.237   0.277   1.173
 1628SOL     OW 4906   2.863   0.034   1.154
 1628SOL    HW1 4907   2.800  -0.038   1.123
 1628SOL    HW2 4908   2.956  -0.002   1.154
 1629SOL     OW 4909   2.632   1.330   0.301
 1629SOL    HW1 4910   2.586   1.243   0.318
 1629SOL    HW2 4911   2.723   1.327   0.342
 1630SOL     OW 4912   2.480   1.567   1.284
 1630SOL    HW1 4913   2.475   1.649   1.341
 1630SOL    HW2 4914   2.569   1.564   1.239
 1631SOL     OW 4915   3.214   0.052   0.168
 1631SOL    HW1 4916   3.249   0.011   0.084
 1631SOL    HW2 4917   3.124   0.014   0.188
 1632SOL     OW 4918   3.162   0.453   0.691
 1632SOL    HW1 4919   3.103   0.533   0.695
 1632SOL    HW2 4920   3.177   0.418   0.784
 1633SOL     OW 4921   3.455   0.221   0.882
 1633SOL    HW1 4922   3.371   0.220   0.936
 1633SOL    HW2 4923   3.457   0.304   0.826
 1634SOL     OW 4924   1.901   1.077   0.300
 1634SOL    HW1 4925   2.000   1.066   0.291
 1634SOL    HW2 4926   1.861   0.991   0.332
 1635SOL     OW 4927   2.737   1.646   0.337
 1635SOL    HW1 4928   2.660   1.611   0.283
 1635SOL    HW2 4929   2.705   1.717   0.399
 1636SOL     OW 4930   2.092   0.628   1.975
 1636SOL    HW1 4931   1.999   0.626   2.012
 1636SOL    HW2 4932   2.093   0.589   1.883
 1637SOL     OW 4933   2.087   0.275   2.858
 1637SOL    HW1 4934   2.122   0.258   2.950
 1637SOL    HW2 4935   1.999   0.230   2.846
 1638SOL     OW 4936   1.881   0.368   2.509
 1638SOL    HW1 4937   1.799   0.411   2.548
 1638SOL    HW2 4938   1.853   0.295   2.446
 1639SOL     OW 4939   2.431   1.275   3.027
 1639SOL    HW1 4940   2.338   1.268   2.990
 1639SOL    HW2 4941   2.442   1.364   3.071
 1640SOL     OW 4942   3.417   1.511   2.565
 1640SOL    HW1 4943   3.360   1.495   2.646
 1640SOL    HW2 4944   3.358   1.521   2.485
 1641SOL     OW 4945   2.997   0.703   2.579
 1641SOL    HW1 4946   3.054   0.781   2.554
 1641SOL    HW2 4947   2.937   0.729   2.655
 1642SOL     OW 4948   3.617   0.607   2.093
 1642SOL    HW1 4949   3.605   0.594   1.994
 1642SOL    HW2 4950   3.587   0.526   2.142
 1643SOL     OW 4951   2.630   1.144   2.885
 1643SOL    HW1 4952   2.552   1.161   2.945
 1643SOL    HW2 4953   2.664   1.231   2.849
 1644SOL     OW 4954   2.712   0.798   3.685
 1644SOL    HW1 4955   2.708   0.874   3.750
 1644SOL    HW2 4956   2.734   0.834   3.594
 1645SOL     OW 4957   2.547   1.012   2.527
 1645SOL    HW1 4958   2.616   0.996   2.597
 1645SOL    HW2 4959   2.474   1.069   2.565
 1646SOL     OW 4960   2.548   1.161   3.665
 1646SOL    HW1 4961   2.608   1.240   3.679
 1646SOL    HW2 4962   2.462   1.192   3.624
 1647SOL     OW 4963   2.197   1.435   2.923
 1647SOL    HW1 4964   2.119   1.404   2.870
 1647SOL    HW2 4965   2.255   1.493   2.866
 1648SOL     OW 4966   3.322   1.505   3.201
 1648SOL    HW1 4967   3.346   1.599   3.227
 1648SOL    HW2 4968   3.306   1.451   3.283
 1649SOL     OW 4969   2.300   0.392   3.361
 1649SOL    HW1 4970   2.382   0.336   3.370
 1649SOL    HW2 4971   2.219   0.334   3.365
 1650SOL     OW 4972   3.465   0.447   2.599
 1650SOL    HW1 4973   3.391   0.493   2.549
 1650SOL    HW2 4974   3.516   0.515   2.652
 1651SOL     OW 4975   2.093   1.713   2.345
 1651SOL    HW1 4976   2.127   1.790   2.399
 1651SOL    HW2 4977   2.137   1.713   2.255
 1652SOL     OW 4978   2.989   1.341   3.552
 1652SOL    HW1 4979   3.036   1.341   3.640
 1652SOL    HW2 4980   2.941   1.254   3.541
 1653SOL     OW 4981   2.092   1.434   2.400
 1653SOL    HW1 4982   2.066   1.530   2.400
 1653SOL    HW2 4983   2.021   1.380   2.445
 1654SOL     OW 4984   2.102   1.091   2.748
 1654SOL    HW1 4985   2.116   1.007   2.800
 1654SOL    HW2 4986   2.047   1.155   2.803
 1655SOL     OW 4987   2.482   1.786   3.301
 1655SOL    HW1 4988   2.390   1.769   3.336
 1655SOL    HW2 4989   2.510   1.878   3.327
 1656SOL     OW 4990   2.468   0.964   1.985
 1656SOL    HW1 4991   2.475   1.048   1.931
 1656SOL    HW2 4992   2.514   0.977   2.073
 1657SOL     OW 4993   3.456   0.114   3.342
 1657SOL    HW1 4994   3.438   0.181   3.270
 1657SOL    HW2 4995   3.453   0.160   3.431
 1658SOL     OW 4996   1.984   0.643   2.425
 1658SOL    HW1 4997   1.939   0.555   2.442
 1658SOL    HW2 4998   1.983   0.697   2.509
 1659SOL     OW 4999   3.704   1.767   2.221
 1659SOL    HW1 5000   3.758   1.738   2.301
 1659SOL    HW2 5001   3.734   1.857   2.192
 1660SOL     OW 5002   1.889   1.596   1.979
 1660SOL    HW1 5003   1.870   1.500   2.000
 1660SOL    HW2 5004   1.856   1.654   2.054
 1661SOL     OW 5005   3.551   0.922   2.474
 1661SOL    HW1 5006   3.646   0.893   2.482
 1661SOL    HW2 5007   3.543   0.987   2.399
 1662SOL     OW 5008   3.503   1.108   2.294
 1662SOL    HW1 5009   3.589   1.110   2.242
 1662SOL    HW2 5010   3.517   1.155   2.382
 1663SOL     OW 5011   1.975   0.737   3.459
 1663SOL    HW1 5012   2.063   0.724   3.504
 1663SOL    HW2 5013   1.962   0.834   3.437
 1664SOL     OW 5014   2.475   1.365   2.588
 1664SOL    HW1 5015   2.426   1.278   2.597
 1664SOL    HW2 5016   2.452   1.408   2.501
 1665SOL     OW 5017   3.155   1.228   3.285
 1665SOL    HW1 5018   3.192   1.155   3.227
 1665SOL    HW2 5019   3.207   1.233   3.370
 1666SOL     OW 5020   2.671   0.004   2.364
 1666SOL    HW1 5021   2.711   0.095   2.355
 1666SOL    HW2 5022   2.571   0.012   2.370
 1667SOL     OW 5023   2.059   0.976   3.126
 1667SOL    HW1 5024   2.148   0.931   3.112
 1667SOL    HW2 5025   1.986   0.911   3.107
 1668SOL     OW 5026   3.387   0.999   2.052
 1668SOL    HW1 5027   3.324   0.923   2.065
 1668SOL    HW2 5028   3.435   1.017   2.138
 1669SOL     OW 5029   3.049   1.792   3.478
 1669SOL    HW1 5030   3.073   1.852   3.402
 1669SOL    HW2 5031   3.056   1.697   3.448
 1670SOL     OW 5032   2.179   0.251   3.663
 1670SOL    HW1 5033   2.250   0.322   3.669
 1670SOL    HW2 5034   2.091   0.290   3.691
 1671SOL     OW 5035   3.328   1.417   2.815
 1671SOL    HW1 5036   3.269   1.423   2.895
 1671SOL    HW2 5037   3.313   1.329   2.769
 1672SOL     OW 5038   3.529   1.714   2.434
 1672SOL    HW1 5039   3.488   1.691   2.346
 1672SOL    HW2 5040   3.511   1.640   2.499
 1673SOL     OW 5041   2.460   0.729   2.132
 1673SOL    HW1 5042   2.484   0.798   2.064
 1673SOL    HW2 5043   2.382   0.762   2.186
 1674SOL     OW 5044   3.143   0.345   2.806
 1674SOL    HW1 5045   3.057   0.295   2.793
 1674SOL    HW2 5046   3.205   0.291   2.862
 1675SOL     OW 5047   3.438   1.662   2.169
 1675SOL    HW1 5048   3.527   1.708   2.172
 1675SOL    HW2 5049   3.417   1.638   2.074
 1676SOL     OW 5050   2.669   0.605   3.327
 1676SOL    HW1 5051   2.622   0.602   3.416
 1676SOL    HW2 5052   2.618   0.550   3.261
 1677SOL     OW 5053   3.256   0.469   3.536
 1677SOL    HW1 5054   3.236   0.512   3.624
 1677SOL    HW2 5055   3.334   0.407   3.545
 1678SOL     OW 5056   2.835   0.890   3.434
 1678SOL    HW1 5057   2.881   0.806   3.405
 1678SOL    HW2 5058   2.779   0.924   3.359
 1679SOL     OW 5059   2.853   0.410   3.104
 1679SOL    HW1 5060   2.776   0.444   3.158
 1679SOL    HW2 5061   2.819   0.359   3.025
 1680SOL     OW 5062   2.903   0.701   2.291
 1680SOL    HW1 5063   2.929   0.697   2.387
 1680SOL    HW2 5064   2.818   0.650   2.277
 1681SOL     OW 5065   1.938   0.811   2.651
 1681SOL    HW1 5066   2.037   0.799   2.660
 1681SOL    HW2 5067   1.914   0.906   2.672
 1682SOL     OW 5068   1.992   1.821   3.433
 1682SOL    HW1 5069   1.982   1.806   3.532
 1682SOL    HW2 5070   1.906   1.857   3.397
 1683SOL     OW 5071   2.727   0.348   2.057
 1683SOL    HW1 5072   2.786   0.411   2.008
 1683SOL    HW2 5073   2.746   0.254   2.028
 1684SOL     OW 5074   3.581   0.585   3.693
 1684SOL    HW1 5075   3.555   0.674   3.657
 1684SOL    HW2 5076   3.579   0.517   3.620
 1685SOL     OW 5077   3.224   1.144   2.407
 1685SOL    HW1 5078   3.307   1.115   2.359
 1685SOL    HW2 5079   3.175   1.211   2.351
 1686SOL     OW 5080   2.412   0.196   2.747
 1686SOL    HW1 5081   2.407   0.191   2.847
 1686SOL    HW2 5082   2.414   0.292   2.718
 1687SOL     OW 5083   2.870   1.456   2.339
 1687SOL    HW1 5084   2.824   1.528   2.287
 1687SOL    HW2 5085   2.866   1.476   2.437
 1688SOL     OW 5086   2.213   1.801   2.715
 1688SOL    HW1 5087   2.263   1.715   2.721
 1688SOL    HW2 5088   2.278   1.878   2.712
 1689SOL     OW 5089   3.657   1.066   2.735
 1689SOL    HW1 5090   3.595   1.051   2.659
 1689SOL    HW2 5091   3.605   1.077   2.820
 1690SOL     OW 5092   3.089   1.550   3.368
 1690SOL    HW1 5093   3.095   1.473   3.432
 1690SOL    HW2 5094   3.037   1.524   3.288
 1691SOL     OW 5095   2.183   0.943   2.104
 1691SOL    HW1 5096   2.265   0.982   2.062
 1691SOL    HW2 5097   2.156   0.861   2.055
 1692SOL     OW 5098   3.320   0.735   2.590
 1692SOL    HW1 5099   3.315   0.670   2.665
 1692SOL    HW2 5100   3.400   0.794   2.603
 1693SOL     OW 5101   2.323   1.266   3.589
 1693SOL    HW1 5102   2.273   1.267   3.503
 1693SOL    HW2 5103   2.260   1.248   3.665
 1694SOL     OW 5104   2.973   1.776   2.099
 1694SOL    HW1 5105   2.913   1.714   2.149
 1694SOL    HW2 5106   3.004   1.732   2.014
 1695SOL     OW 5107   2.064   0.285   3.360
 1695SOL    HW1 5108   1.984   0.345   3.347
 1695SOL    HW2 5109   2.054   0.236   3.446
 1696SOL     OW 5110   3.494   1.377   1.943
 1696SOL    HW1 5111   3.462   1.471   1.933
 1696SOL    HW2 5112   3.418   1.314   1.931
 1697SOL     OW 5113   2.326   1.743   2.185
 1697SOL    HW1 5114   2.359   1.782   2.271
 1697SOL    HW2 5115   2.402   1.736   2.120
 1698SOL     OW 5116   3.262   0.107   2.288
 1698SOL    HW1 5117   3.238   0.070   2.198
 1698SOL    HW2 5118   3.361   0.123   2.292
 1699SOL     OW 5119   2.111   1.785   3.103
 1699SOL    HW1 5120   2.168   1.720   3.153
 1699SOL    HW2 5121   2.095   1.752   3.010
 1700SOL     OW 5122   2.802   1.698   2.766
 1700SOL    HW1 5123   2.882   1.641   2.787
 1700SOL    HW2 5124   2.753   1.658   2.689
 1701SOL     OW 5125   2.244   0.700   2.342
 1701SOL    HW1 5126   2.289   0.610   2.339
 1701SOL    HW2 5127   2.150   0.689   2.375
 1702SOL     OW 5128   3.409   0.222   3.591
 1702SOL    HW1 5129   3.404   0.259   3.683
 1702SOL    HW2 5130   3.337   0.153   3.579
 1703SOL     OW 5131   2.476   0.122   1.979
 1703SOL    HW1 5132   2.574   0.100   1.986
 1703SOL    HW2 5133   2.445   0.105   1.886
 1704SOL     OW 5134   2.643   0.264   3.611
 1704SOL    HW1 5135   2.710   0.203   3.654
 1704SOL    HW2 5136   2.570   0.283   3.676
 1705SOL     OW 5137   2.750   1.514   3.057
 1705SOL    HW1 5138   2.727   1.489   2.963
 1705SOL    HW2 5139   2.811   1.445   3.096
 1706SOL     OW 5140   3.213   0.590   3.295
 1706SOL    HW1 5141   3.241   0.547   3.380
 1706SOL    HW2 5142   3.238   0.686   3.296
 1707SOL     OW 5143   2.665   1.402   2.786
 1707SOL    HW1 5144   2.755   1.416   2.744
 1707SOL    HW2 5145   2.594   1.404   2.715
 1708SOL     OW 5146   2.784   0.503   2.761
 1708SOL    HW1 5147   2.759   0.494   2.665
 1708SOL    HW2 5148   2.832   0.421   2.792
 1709SOL     OW 5149   2.401   0.064   2.374
 1709SOL    HW1 5150   2.320   0.065   2.432
 1709SOL    HW2 5151   2.404   0.147   2.319
 1710SOL     OW 5152   3.296   1.188   1.903
 1710SOL    HW1 5153   3.328   1.112   1.960
 1710SOL    HW2 5154   3.204   1.215   1.933
 1711SOL     OW 5155   2.159   0.035   2.033
 1711SOL    HW1 5156   2.208   0.119   2.012
 1711SOL    HW2 5157   2.221  -0.030   2.078
 1712SOL     OW 5158   2.797   0.236   2.342
 1712SOL    HW1 5159   2.749   0.277   2.264
 1712SOL    HW2 5160   2.896   0.234   2.323
 1713SOL     OW 5161   2.938   0.683   3.326
 1713SOL    HW1 5162   2.858   0.622   3.329
 1713SOL    HW2 5163   3.019   0.630   3.302
 1714SOL     OW 5164   3.089   1.570   2.655
 1714SOL    HW1 5165   3.110   1.644   2.590
 1714SOL    HW2 5166   3.157   1.570   2.728
 1715SOL     OW 5167   2.321   1.152   2.603
 1715SOL    HW1 5168   2.250   1.125   2.668
 1715SOL    HW2 5169   2.295   1.124   2.510
 1716SOL     OW 5170   3.133   1.797   2.453
 1716SOL    HW1 5171   3.177   1.861   2.389
 1716SOL    HW2 5172   3.083   1.849   2.523
 1717SOL     OW 5173   2.894   0.549   1.878
 1717SOL    HW1 5174   2.853   0.631   1.839
 1717SOL    HW2 5175   2.958   0.575   1.951
 1718SOL     OW 5176   1.940   0.556   3.248
 1718SOL    HW1 5177   2.032   0.555   3.207
 1718SOL    HW2 5178   1.934   0.630   3.315
 1719SOL     OW 5179   2.423   0.222   3.009
 1719SOL    HW1 5180   2.461   0.138   3.046
 1719SOL    HW2 5181   2.335   0.241   3.053
 1720SOL     OW 5182   2.728   0.454   2.504
 1720SOL    HW1 5183   2.696   0.526   2.442
 1720SOL    HW2 5184   2.752   0.373   2.451
 1721SOL     OW 5185   2.879   0.039   2.615
 1721SOL    HW1 5186   2.807   0.044   2.546
 1721SOL    HW2 5187   2.855  -0.030   2.684
 1722SOL     OW 5188   3.291   1.173   2.729
 1722SOL    HW1 5189   3.236   1.089   2.722
 1722SOL    HW2 5190   3.317   1.202   2.637
 1723SOL     OW 5191   3.328   0.590   2.854
 1723SOL    HW1 5192   3.298   0.495   2.861
 1723SOL    HW2 5193   3.401   0.606   2.920
 1724SOL     OW 5194   3.719   0.833   2.239
 1724SOL    HW1 5195   3.761   0.769   2.303
 1724SOL    HW2 5196   3.681   0.782   2.161
 1725SOL     OW 5197   2.350   1.385   2.036
 1725SOL    HW1 5198   2.263   1.370   2.083
 1725SOL    HW2 5199   2.333   1.411   1.941
 1726SOL     OW 5200   3.526   1.280   2.519
 1726SOL    HW1 5201   3.625   1.288   2.533
 1726SOL    HW2 5202   3.481   1.364   2.550
 1727SOL     OW 5203   3.252   0.575   1.940
 1727SOL    HW1 5204   3.198   0.554   2.021
 1727SOL    HW2 5205   3.343   0.534   1.949
 1728SOL     OW 5206   2.389   0.256   2.190
 1728SOL    HW1 5207   2.416   0.197   2.115
 1728SOL    HW2 5208   2.389   0.351   2.159
 1729SOL     OW 5209   3.616   1.223   3.450
 1729SOL    HW1 5210   3.707   1.184   3.437
 1729SOL    HW2 5211   3.624   1.319   3.474
 1730SOL     OW 5212   2.926   1.347   3.202
 1730SOL    HW1 5213   2.846   1.324   3.257
 1730SOL    HW2 5214   3.009   1.321   3.251
 1731SOL     OW 5215   3.454   1.629   3.487
 1731SOL    HW1 5216   3.481   1.663   3.397
 1731SOL    HW2 5217   3.533   1.591   3.533
 1732SOL     OW 5218   2.973   1.195   2.962
 1732SOL    HW1 5219   2.933   1.239   3.043
 1732SOL    HW2 5220   2.932   1.232   2.879
 1733SOL     OW 5221   3.500   1.099   2.941
 1733SOL    HW1 5222   3.505   1.180   3.000
 1733SOL    HW2 5223   3.414   1.101   2.890
 1734SOL     OW 5224   2.777   0.089   3.264
 1734SOL    HW1 5225   2.802   0.069   3.169
 1734SOL    HW2 5226   2.849   0.145   3.306
 1735SOL     OW 5227   2.842   1.116   3.581
 1735SOL    HW1 5228   2.743   1.122   3.591
 1735SOL    HW2 5229   2.865   1.036   3.525
 1736SOL     OW 5230   2.567   1.050   2.230
 1736SOL    HW1 5231   2.553   1.057   2.329
 1736SOL    HW2 5232   2.651   0.999   2.212
 1737SOL     OW 5233   2.272   0.813   3.113
 1737SOL    HW1 5234   2.358   0.825   3.163
 1737SOL    HW2 5235   2.230   0.726   3.140
 1738SOL     OW 5236   3.136   0.386   3.124
 1738SOL    HW1 5237   3.157   0.460   3.188
 1738SOL    HW2 5238   3.047   0.403   3.081
 1739SOL     OW 5239   1.926   1.564   3.193
 1739SOL    HW1 5240   1.880   1.646   3.159
 1739SOL    HW2 5241   2.024   1.583   3.202
 1740SOL     OW 5242   2.229   1.100   2.363
 1740SOL    HW1 5243   2.222   1.183   2.307
 1740SOL    HW2 5244   2.233   1.020   2.303
 1741SOL     OW 5245   2.428   0.537   2.727
 1741SOL    HW1 5246   2.440   0.603   2.653
 1741SOL    HW2 5247   2.474   0.571   2.810
 1742SOL     OW 5248   3.114   1.348   2.250
 1742SOL    HW1 5249   3.164   1.425   2.290
 1742SOL    HW2 5250   3.019   1.350   2.282
 1743SOL     OW 5251   3.134   1.445   3.004
 1743SOL    HW1 5252   3.181   1.458   3.091
 1743SOL    HW2 5253   3.068   1.371   3.013
 1744SOL     OW 5254   3.444   0.639   2.334
 1744SOL    HW1 5255   3.413   0.700   2.407
 1744SOL    HW2 5256   3.494   0.691   2.265
 1745SOL     OW 5257   2.216   1.510   3.191
 1745SOL    HW1 5258   2.195   1.466   3.104
 1745SOL    HW2 5259   2.313   1.536   3.194
 1746SOL     OW 5260   2.264   0.751   3.460
 1746SOL    HW1 5261   2.332   0.806   3.413
 1746SOL    HW2 5262   2.304   0.663   3.487
 1747SOL     OW 5263   3.449   0.779   3.532
 1747SOL    HW1 5264   3.357   0.817   3.527
 1747SOL    HW2 5265   3.509   0.826   3.467
 1748SOL     OW 5266   2.875   0.105   3.632
 1748SOL    HW1 5267   2.881   0.190   3.580
 1748SOL    HW2 5268   2.907   0.029   3.575
 1749SOL     OW 5269   2.366   0.050   3.602
 1749SOL    HW1 5270   2.324  -0.007   3.532
 1749SOL    HW2 5271   2.300   0.119   3.634
 1750SOL     OW 5272   2.435   0.870   2.891
 1750SOL    HW1 5273   2.479   0.959   2.882
 1750SOL    HW2 5274   2.372   0.870   2.968
 1751SOL     OW 5275   3.222   0.862   2.907
 1751SOL    HW1 5276   3.147   0.862   2.841
 1751SOL    HW2 5277   3.259   0.770   2.916
 1752SOL     OW 5278   3.071   0.525   2.137
 1752SOL    HW1 5279   3.084   0.441   2.191
 1752SOL    HW2 5280   3.042   0.599   2.197
 1753SOL     OW 5281   2.169   0.213   3.093
 1753SOL    HW1 5282   2.146   0.250   3.183
 1753SOL    HW2 5283   2.139   0.118   3.087
 1754SOL     OW 5284   1.899   1.310   3.144
 1754SOL    HW1 5285   1.952   1.261   3.212
 1754SOL    HW2 5286   1.921   1.408   3.149
 1755SOL     OW 5287   2.594   0.634   2.926
 1755SOL    HW1 5288   2.653   0.608   2.850
 1755SOL    HW2 5289   2.566   0.730   2.915
 1756SOL     OW 5290   3.590   0.935   3.716
 1756SOL    HW1 5291   3.544   0.928   3.627
 1756SOL    HW2 5292   3.528   0.979   3.782
 1757SOL     OW 5293   2.169   0.063   2.480
 1757SOL    HW1 5294   2.158   0.157   2.513
 1757SOL    HW2 5295   2.164   0.000   2.557
 1758SOL     OW 5296   3.484   0.367   2.236
 1758SOL    HW1 5297   3.486   0.291   2.300
 1758SOL    HW2 5298   3.436   0.444   2.276
 1759SOL     OW 5299   2.885   0.766   2.828
 1759SOL    HW1 5300   2.900   0.787   2.924
 1759SOL    HW2 5301   2.855   0.671   2.819
 1760SOL     OW 5302   2.842   1.573   3.562
 1760SOL    HW1 5303   2.822   1.617   3.474
 1760SOL    HW2 5304   2.881   1.482   3.546
 1761SOL     OW 5305   3.721   1.518   3.467
 1761SOL    HW1 5306   3.735   1.545   3.372
 1761SOL    HW2 5307   3.804   1.540   3.520
 1762SOL     OW 5308   2.212   0.898   3.666
 1762SOL    HW1 5309   2.288   0.942   3.714
 1762SOL    HW2 5310   2.247   0.851   3.584
 1763SOL     OW 5311   3.402   0.274   1.987
 1763SOL    HW1 5312   3.341   0.199   2.010
 1763SOL    HW2 5313   3.424   0.326   2.070
 1764SOL     OW 5314   3.165   0.838   1.904
 1764SOL    HW1 5315   3.199   0.745   1.919
 1764SOL    HW2 5316   3.183   0.865   1.809
 1765SOL     OW 5317   2.930   1.333   2.711
 1765SOL    HW1 5318   2.937   1.249   2.656
 1765SOL    HW2 5319   2.992   1.402   2.675
 1766SOL     OW 5320   2.181   0.810   2.811
 1766SOL    HW1 5321   2.274   0.846   2.816
 1766SOL    HW2 5322   2.175   0.725   2.863
 1767SOL     OW 5323   2.201   0.509   2.868
 1767SOL    HW1 5324   2.149   0.426   2.851
 1767SOL    HW2 5325   2.278   0.514   2.804
 1768SOL     OW 5326   3.000   0.380   3.540
 1768SOL    HW1 5327   2.955   0.443   3.604
 1768SOL    HW2 5328   3.093   0.411   3.523
 1769SOL     OW 5329   3.022   0.207   3.339
 1769SOL    HW1 5330   3.022   0.271   3.416
 1769SOL    HW2 5331   3.050   0.255   3.256
 1770SOL     OW 5332   1.870   1.326   2.062
 1770SOL    HW1 5333   1.777   1.347   2.031
 1770SOL    HW2 5334   1.880   1.227   2.075
 1771SOL     OW 5335   1.950   1.801   2.789
 1771SOL    HW1 5336   1.908   1.715   2.762
 1771SOL    HW2 5337   2.044   1.804   2.755
 1772SOL     OW 5338   2.366   1.568   2.772
 1772SOL    HW1 5339   2.432   1.642   2.781
 1772SOL    HW2 5340   2.410   1.489   2.730
 1773SOL     OW 5341   2.864   0.796   3.100
 1773SOL    HW1 5342   2.905   0.764   3.186
 1773SOL    HW2 5343   2.768   0.769   3.097
 1774SOL     OW 5344   1.902   0.544   2.976
 1774SOL    HW1 5345   1.987   0.511   2.935
 1774SOL    HW2 5346   1.915   0.559   3.074
 1775SOL     OW 5347   2.051   0.520   3.584
 1775SOL    HW1 5348   2.110   0.480   3.514
 1775SOL    HW2 5349   1.993   0.591   3.543
 1776SOL     OW 5350   3.231   0.950   3.522
 1776SOL    HW1 5351   3.270   1.039   3.542
 1776SOL    HW2 5352   3.241   0.930   3.425
 1777SOL     OW 5353   2.677   0.572   2.187
 1777SOL    HW1 5354   2.684   0.483   2.141
 1777SOL    HW2 5355   2.583   0.606   2.179
 1778SOL     OW 5356   3.519   0.604   3.068
 1778SOL    HW1 5357   3.481   0.535   3.130
 1778SOL    HW2 5358   3.601   0.568   3.024
 1779SOL     OW 5359   2.114   1.564   3.606
 1779SOL    HW1 5360   2.084   1.621   3.682
 1779SOL    HW2 5361   2.107   1.467   3.632
 1780SOL     OW 5362   2.533   0.464   3.131
 1780SOL    HW1 5363   2.499   0.375   3.101
 1780SOL    HW2 5364   2.559   0.518   3.051
 1781SOL     OW 5365   2.792   1.678   3.327
 1781SOL    HW1 5366   2.768   1.660   3.232
 1781SOL    HW2 5367   2.822   1.772   3.337
 1782SOL     OW 5368   2.335   0.500   2.053
 1782SOL    HW1 5369   2.396   0.580   2.057
 1782SOL    HW2 5370   2.240   0.531   2.060
 1783SOL     OW 5371   2.021   1.137   3.328
 1783SOL    HW1 5372   2.043   1.076   3.404
 1783SOL    HW2 5373   2.031   1.088   3.242
 1784SOL     OW 5374   3.209   1.059   3.096
 1784SOL    HW1 5375   3.233   0.996   3.022
 1784SOL    HW2 5376   3.119   1.099   3.078
 1785SOL     OW 5377   3.164   0.855   2.171
 1785SOL    HW1 5378   3.078   0.824   2.213
 1785SOL    HW2 5379   3.160   0.841   2.072
 1786SOL     OW 5380   3.621   1.747   3.016
 1786SOL    HW1 5381   3.682   1.777   2.943
 1786SOL    HW2 5382   3.583   1.658   2.994
 1787SOL     OW 5383   3.114   1.731   2.990
 1787SOL    HW1 5384   3.198   1.736   2.936
 1787SOL    HW2 5385   3.091   1.635   3.008
 1788SOL     OW 5386   1.945   1.258   2.884
 1788SOL    HW1 5387   1.940   1.257   2.984
 1788SOL    HW2 5388   1.862   1.217   2.846
 1789SOL     OW 5389   2.550   1.662   3.578
 1789SOL    HW1 5390   2.494   1.743   3.587
 1789SOL    HW2 5391   2.602   1.666   3.492
 1790SOL     OW 5392   3.588   0.135   2.385
 1790SOL    HW1 5393   3.661   0.118   2.318
 1790SOL    HW2 5394   3.557   0.048   2.423
 1791SOL     OW 5395   3.250   1.573   2.339
 1791SOL    HW1 5396   3.317   1.585   2.265
 1791SOL    HW2 5397   3.210   1.662   2.362
 1792SOL     OW 5398   1.992   1.794   3.713
 1792SOL    HW1 5399   1.951   1.720   3.766
 1792SOL    HW2 5400   2.056   1.845   3.771
 1793SOL     OW 5401   3.142   0.927   2.534
 1793SOL    HW1 5402   3.202   0.846   2.536
 1793SOL    HW2 5403   3.182   0.996   2.474
 1794SOL     OW 5404   2.692   1.273   3.284
 1794SOL    HW1 5405   2.687   1.306   3.379
 1794SOL    HW2 5406   2.606   1.292   3.238
 1795SOL     OW 5407   2.534   1.616   2.016
 1795SOL    HW1 5408   2.543   1.626   1.917
 1795SOL    HW2 5409   2.494   1.527   2.037
 1796SOL     OW 5410   3.512   1.720   3.256
 1796SOL    HW1 5411   3.565   1.730   3.172
 1796SOL    HW2 5412   3.485   1.810   3.290
 1797SOL     OW 5413   3.703   0.175   2.825
 1797SOL    HW1 5414   3.742   0.090   2.789
 1797SOL    HW2 5415   3.605   0.177   2.806
 1798SOL     OW 5416   2.125   0.326   2.582
 1798SOL    HW1 5417   2.046   0.377   2.548
 1798SOL    HW2 5418   2.116   0.311   2.680
 1799SOL     OW 5419   3.056   1.612   1.893
 1799SOL    HW1 5420   3.062   1.519   1.930
 1799SOL    HW2 5421   2.997   1.612   1.813
 1800SOL     OW 5422   2.684   1.002   3.234
 1800SOL    HW1 5423   2.724   1.001   3.142
 1800SOL    HW2 5424   2.694   1.094   3.274
 1801SOL     OW 5425   2.778   0.910   2.153
 1801SOL    HW1 5426   2.841   0.948   2.085
 1801SOL    HW2 5427   2.818   0.827   2.192
 1802SOL     OW 5428   3.366   1.607   1.906
 1802SOL    HW1 5429   3.274   1.644   1.913
 1802SOL    HW2 5430   3.404   1.627   1.816
 1803SOL     OW 5431   2.234   1.288   3.352
 1803SOL    HW1 5432   2.221   1.381   3.318
 1803SOL    HW2 5433   2.150   1.236   3.339
 1804SOL     OW 5434   3.476   1.292   3.151
 1804SOL    HW1 5435   3.536   1.295   3.231
 1804SOL    HW2 5436   3.401   1.356   3.164
 1805SOL     OW 5437   2.901   1.098   2.558
 1805SOL    HW1 5438   2.831   1.051   2.612
 1805SOL    HW2 5439   2.960   1.030   2.515
 1806SOL     OW 5440   2.876   0.236   2.833
 1806SOL    HW1 5441   2.868   0.200   2.740
 1806SOL    HW2 5442   2.874   0.160   2.898
 1807SOL     OW 5443   2.452   1.487   2.353
 1807SOL    HW1 5444   2.494   1.429   2.283
 1807SOL    HW2 5445   2.408   1.566   2.309
 1808SOL     OW 5446   3.571   0.385   3.243
 1808SOL    HW1 5447   3.644   0.454   3.247
 1808SOL    HW2 5448   3.599   0.310   3.184
 1809SOL     OW 5449   2.117   1.348   2.152
 1809SOL    HW1 5450   2.021   1.349   2.125
 1809SOL    HW2 5451   2.129   1.401   2.236
 1810SOL     OW 5452   1.967   1.013   3.588
 1810SOL    HW1 5453   1.890   0.980   3.642
 1810SOL    HW2 5454   2.052   0.983   3.630
 1811SOL     OW 5455   2.534   0.203   3.351
 1811SOL    HW1 5456   2.624   0.187   3.311
 1811SOL    HW2 5457   2.542   0.208   3.450
 1812SOL     OW 5458   1.937   0.345   1.895
 1812SOL    HW1 5459   1.845   0.317   1.866
 1812SOL    HW2 5460   1.968   0.422   1.839
 1813SOL     OW 5461   3.302   0.856   3.260
 1813SOL    HW1 5462   3.245   0.908   3.197
 1813SOL    HW2 5463   3.398   0.868   3.236
 1814SOL     OW 5464   1.934   0.166   2.180
 1814SOL    HW1 5465   1.917   0.249   2.126
 1814SOL    HW2 5466   2.024   0.129   2.158
 1815SOL     OW 5467   3.045   1.335   1.981
 1815SOL    HW1 5468   2.946   1.324   1.983
 1815SOL    HW2 5469   3.079   1.350   2.074
 1816SOL     OW 5470   2.475   0.842   3.293
 1816SOL    HW1 5471   2.531   0.923   3.276
 1816SOL    HW2 5472   2.534   0.762   3.296
 1817SOL     OW 5473   3.355   1.767   2.821
 1817SOL    HW1 5474   3.388   1.831   2.752
 1817SOL    HW2 5475   3.421   1.761   2.896
 1818SOL     OW 5476   2.578   0.565   3.570
 1818SOL    HW1 5477   2.597   0.630   3.644
 1818SOL    HW2 5478   2.638   0.485   3.579
 1819SOL     OW 5479   3.312   1.220   3.495
 1819SOL    HW1 5480   3.303   1.210   3.594
 1819SOL    HW2 5481   3.408   1.213   3.469
 1820SOL     OW 5482   2.252   1.741   3.422
 1820SOL    HW1 5483   2.161   1.782   3.420
 1820SOL    HW2 5484   2.245   1.647   3.454
 1821SOL     OW 5485   3.536   0.883   3.116
 1821SOL    HW1 5486   3.509   0.794   3.079
 1821SOL    HW2 5487   3.537   0.951   3.043
 1822SOL     OW 5488   3.087   0.325   2.311
 1822SOL    HW1 5489   3.152   0.251   2.300
 1822SOL    HW2 5490   3.107   0.375   2.395
 1823SOL     OW 5491   2.456   0.745   2.514
 1823SOL    HW1 5492   2.506   0.830   2.495
 1823SOL    HW2 5493   2.368   0.747   2.466
 1824SOL     OW 5494   3.639   0.342   3.504
 1824SOL    HW1 5495   3.622   0.373   3.410
 1824SOL    HW2 5496   3.555   0.305   3.542
 1825SOL     OW 5497   3.592   0.934   3.379
 1825SOL    HW1 5498   3.630   1.025   3.394
 1825SOL    HW2 5499   3.584   0.917   3.280
 1826SOL     OW 5500   2.721   1.374   1.878
 1826SOL    HW1 5501   2.675   1.389   1.966
 1826SOL    HW2 5502   2.765   1.459   1.848
 1827SOL     OW 5503   2.523   1.790   2.815
 1827SOL    HW1 5504   2.477   1.878   2.802
 1827SOL    HW2 5505   2.622   1.802   2.808
 1828SOL     OW 5506   2.721   0.956   2.723
 1828SOL    HW1 5507   2.775   0.887   2.771
 1828SOL    HW2 5508   2.689   1.025   2.789
 1829SOL     OW 5509   2.945   0.984   1.949
 1829SOL    HW1 5510   2.922   1.037   1.867
 1829SOL    HW2 5511   3.026   0.928   1.930
 1830SOL     OW 5512   3.723   1.569   2.713
 1830SOL    HW1 5513   3.652   1.557   2.643
 1830SOL    HW2 5514   3.724   1.490   2.773
 1831SOL     OW 5515   2.083   1.314   3.706
 1831SOL    HW1 5516   2.018   1.241   3.685
 1831SOL    HW2 5517   2.087   1.328   3.804
 1832SOL     OW 5518   1.941   1.240   2.515
 1832SOL    HW1 5519   1.940   1.193   2.603
 1832SOL    HW2 5520   2.023   1.212   2.464
 1833SOL     OW 5521   2.534   1.391   3.486
 1833SOL    HW1 5522   2.456   1.341   3.524
 1833SOL    HW2 5523   2.531   1.486   3.517
 1834SOL     OW 5524   3.686   0.192   3.089
 1834SOL    HW1 5525   3.682   0.102   3.133
 1834SOL    HW2 5526   3.689   0.181   2.990
 1835SOL     OW 5527   2.290   0.424   2.382
 1835SOL    HW1 5528   2.320   0.352   2.320
 1835SOL    HW2 5529   2.251   0.384   2.465
 1836SOL     OW 5530   3.567   1.487   2.966
 1836SOL    HW1 5531   3.474   1.462   2.939
 1836SOL    HW2 5532   3.593   1.437   3.048
 1837SOL     OW 5533   2.179   0.547   3.142
 1837SOL    HW1 5534   2.217   0.488   3.214
 1837SOL    HW2 5535   2.219   0.521   3.054
 1838SOL     OW 5536   2.674   1.586   2.549
 1838SOL    HW1 5537   2.706   1.596   2.455
 1838SOL    HW2 5538   2.595   1.524   2.551
 1839SOL     OW 5539   3.286   0.214   2.974
 1839SOL    HW1 5540   3.338   0.149   3.029
 1839SOL    HW2 5541   3.237   0.277   3.035
 1840SOL     OW 5542   2.863   0.034   3.016
 1840SOL    HW1 5543   2.800  -0.038   2.985
 1840SOL    HW2 5544   2.956  -0.002   3.016
 1841SOL     OW 5545   2.632   1.330   2.163
 1841SOL    HW1 5546   2.586   1.243   2.180
 1841SOL    HW2 5547   2.723   1.327   2.204
 1842SOL     OW 5548   2.480   1.567   3.146
 1842SOL    HW1 5549   2.475   1.649   3.203
 1842SOL    HW2 5550   2.569   1.564   3.101
 1843SOL     OW 5551   3.214   0.052   2.030
 1843SOL    HW1 5552   3.249   0.011   1.946
 1843SOL    HW2 5553   3.124   0.014   2.050
 1844SOL     OW 5554   3.162   0.453   2.553
 1844SOL    HW1 5555   3.103   0.533   2.557
 1844SOL    HW2 5556   3.177   0.418   2.646
 1845SOL     OW 5557   3.455   0.221   2.744
 1845SOL    HW1 5558   3.371   0.220   2.798
 1845SOL    HW2 5559   3.457   0.304   2.688
 1846SOL     OW 5560   1.901   1.077   2.162
 1846SOL    HW1 5561   2.000   1.066   2.153
 1846SOL    HW2 5562   1.861   0.991   2.194
 1847SOL     OW 5563   2.737   1.646   2.199
 1847SOL    HW1 5564   2.660   1.611   2.145
 1847SOL    HW2 5565   2.705   1.717   2.261
 1848SOL     OW 5566   2.092   0.628   3.837
 1848SOL    HW1 5567   1.999   0.626   3.874
 1848SOL    HW2 5568   2.093   0.589   3.745
 1849SOL     OW 5569   2.087   0.275   4.720
 1849SOL    HW1 5570   2.122   0.258   4.812
 1849SOL    HW2 5571   1.999   0.230   4.708
 1850SOL     OW 5572   1.881   0.368   4.371
 1850SOL    HW1 5573   1.799   0.411   4.410
 1850SOL    HW2 5574   1.853   0.295   4.308
 1851SOL     OW 5575   3.417   1.511   4.427
 1851SOL    HW1 5576   3.360   1.495   4.508
 1851SOL    HW2 5577   3.358   1.521   4.347
 1852SOL     OW 5578   2.997   0.703   4.441
 1852SOL    HW1 5579   3.054   0.781   4.416
 1852SOL    HW2 5580   2.937   0.729   4.517
 1853SOL     OW 5581   3.617   0.607   3.955
 1853SOL    HW1 5582   3.605   0.594   3.856
 1853SOL    HW2 5583   3.587   0.526   4.004
 1854SOL     OW 5584   2.630   1.144   4.747
 1854SOL    HW1 5585   2.552   1.161   4.807
 1854SOL    HW2 5586   2.664   1.231   4.711
 1855SOL     OW 5587   2.547   1.012   4.389
 1855SOL    HW1 5588   2.616   0.996   4.459
 1855SOL    HW2 5589   2.474   1.069   4.427
 1856SOL     OW 5590   2.197   1.435   4.785
 1856SOL    HW1 5591   2.119   1.404   4.732
 1856SOL    HW2 5592   2.255   1.493   4.728
 1857SOL     OW 5593   3.465   0.447   4.461
 1857SOL    HW1 5594   3.391   0.493   4.411
 1857SOL    HW2 5595   3.516   0.515   4.514
 1858SOL     OW 5596   2.093   1.713   4.207
 1858SOL    HW1 5597   2.127   1.790   4.261
 1858SOL    HW2 5598   2.137   1.713   4.117
 1859SOL     OW 5599   2.092   1.434   4.262
 1859SOL    HW1 5600   2.066   1.530   4.262
 1859SOL    HW2 5601   2.021   1.380   4.307
 1860SOL     OW 5602   2.102   1.091   4.610
 1860SOL    HW1 5603   2.116   1.007   4.662
 1860SOL    HW2 5604   2.047   1.155   4.665
 1861SOL     OW 5605   2.468   0.964   3.847
 1861SOL    HW1 5606   2.475   1.048   3.793
 1861SOL    HW2 5607   2.514   0.977   3.935
 1862SOL     OW 5608   1.984   0.643   4.287
 1862SOL    HW1 5609   1.939   0.555   4.304
 1862SOL    HW2 5610   1.983   0.697   4.371
 1863SOL     OW 5611   3.704   1.767   4.083
 1863SOL    HW1 5612   3.758   1.738   4.163
 1863SOL    HW2 5613   3.734   1.857   4.054
 1864SOL     OW 5614   1.889   1.596   3.841
 1864SOL    HW1 5615   1.870   1.500   3.862
 1864SOL    HW2 5616   1.856   1.654   3.916
 1865SOL     OW 5617   3.551   0.922   4.336
 1865SOL    HW1 5618   3.646   0.893   4.344
 1865SOL    HW2 5619   3.543   0.987   4.261
 1866SOL     OW 5620   3.503   1.108   4.156
 1866SOL    HW1 5621   3.589   1.110   4.104
 1866SOL    HW2 5622   3.517   1.155   4.244
 1867SOL     OW 5623   2.475   1.365   4.450
 1867SOL    HW1 5624   2.426   1.278   4.459
 1867SOL    HW2 5625   2.452   1.408   4.363
 1868SOL     OW 5626   2.671   0.004   4.226
 1868SOL    HW1 5627   2.711   0.095   4.217
 1868SOL    HW2 5628   2.571   0.012   4.232
 1869SOL     OW 5629   3.387   0.999   3.914
 1869SOL    HW1 5630   3.324   0.923   3.927
 1869SOL    HW2 5631   3.435   1.017   4.000
 1870SOL     OW 5632   3.328   1.417   4.677
 1870SOL    HW1 5633   3.269   1.423   4.757
 1870SOL    HW2 5634   3.313   1.329   4.631
 1871SOL     OW 5635   3.529   1.714   4.296
 1871SOL    HW1 5636   3.488   1.691   4.208
 1871SOL    HW2 5637   3.511   1.640   4.361
 1872SOL     OW 5638   2.460   0.729   3.994
 1872SOL    HW1 5639   2.484   0.798   3.926
 1872SOL    HW2 5640   2.382   0.762   4.048
 1873SOL     OW 5641   3.143   0.345   4.668
 1873SOL    HW1 5642   3.057   0.295   4.655
 1873SOL    HW2 5643   3.205   0.291   4.724
 1874SOL     OW 5644   3.438   1.662   4.031
 1874SOL    HW1 5645   3.527   1.708   4.034
 1874SOL    HW2 5646   3.417   1.638   3.936
 1875SOL     OW 5647   2.903   0.701   4.153
 1875SOL    HW1 5648   2.929   0.697   4.249
 1875SOL    HW2 5649   2.818   0.650   4.139
 1876SOL     OW 5650   1.938   0.811   4.513
 1876SOL    HW1 5651   2.037   0.799   4.522
 1876SOL    HW2 5652   1.914   0.906   4.534
 1877SOL     OW 5653   2.727   0.348   3.919
 1877SOL    HW1 5654   2.786   0.411   3.870
 1877SOL    HW2 5655   2.746   0.254   3.890
 1878SOL     OW 5656   3.224   1.144   4.269
 1878SOL    HW1 5657   3.307   1.115   4.221
 1878SOL    HW2 5658   3.175   1.211   4.213
 1879SOL     OW 5659   2.412   0.196   4.609
 1879SOL    HW1 5660   2.407   0.191   4.709
 1879SOL    HW2 5661   2.414   0.292   4.580
 1880SOL     OW 5662   2.870   1.456   4.201
 1880SOL    HW1 5663   2.824   1.528   4.149
 1880SOL    HW2 5664   2.866   1.476   4.299
 1881SOL     OW 5665   2.213   1.801   4.577
 1881SOL    HW1 5666   2.263   1.715   4.583
 1881SOL    HW2 5667   2.278   1.878   4.574
 1882SOL     OW 5668   3.657   1.066   4.597
 1882SOL    HW1 5669   3.595   1.051   4.521
 1882SOL    HW2 5670   3.605   1.077   4.682
 1883SOL     OW 5671   2.183   0.943   3.966
 1883SOL    HW1 5672   2.265   0.982   3.924
 1883SOL    HW2 5673   2.156   0.861   3.917
 1884SOL     OW 5674   3.320   0.735   4.452
 1884SOL    HW1 5675   3.315   0.670   4.527
 1884SOL    HW2 5676   3.400   0.794   4.465
 1885SOL     OW 5677   2.973   1.776   3.961
 1885SOL    HW1 5678   2.913   1.714   4.011
 1885SOL    HW2 5679   3.004   1.732   3.876
 1886SOL     OW 5680   3.494   1.377   3.805
 1886SOL    HW1 5681   3.462   1.471   3.795
 1886SOL    HW2 5682   3.418   1.314   3.793
 1887SOL     OW 5683   2.326   1.743   4.047
 1887SOL    HW1 5684   2.359   1.782   4.133
 1887SOL    HW2 5685   2.402   1.736   3.982
 1888SOL     OW 5686   3.262   0.107   4.150
 1888SOL    HW1 5687   3.238   0.070   4.060
 1888SOL    HW2 5688   3.361   0.123   4.154
 1889SOL     OW 5689   2.111   1.785   4.965
 1889SOL    HW1 5690   2.168   1.720   5.015
 1889SOL    HW2 5691   2.095   1.752   4.872
 1890SOL     OW 5692   2.802   1.698   4.628
 1890SOL    HW1 5693   2.882   1.641   4.649
 1890SOL    HW2 5694   2.753   1.658   4.551
 1891SOL     OW 5695   2.244   0.700   4.204
 1891SOL    HW1 5696   2.289   0.610   4.201
 1891SOL    HW2 5697   2.150   0.689   4.237
 1892SOL     OW 5698   2.476   0.122   3.841
 1892SOL    HW1 5699   2.574   0.100   3.848
 1892SOL    HW2 5700   2.445   0.105   3.748
 1893SOL     OW 5701   2.665   1.402   4.648
 1893SOL    HW1 5702   2.755   1.416   4.606
 1893SOL    HW2 5703   2.594   1.404   4.577
 1894SOL     OW 5704   2.784   0.503   4.623
 1894SOL    HW1 5705   2.759   0.494   4.527
 1894SOL    HW2 5706   2.832   0.421   4.654
 1895SOL     OW 5707   2.401   0.064   4.236
 1895SOL    HW1 5708   2.320   0.065   4.294
 1895SOL    HW2 5709   2.404   0.147   4.181
 1896SOL     OW 5710   3.296   1.188   3.765
 1896SOL    HW1 5711   3.328   1.112   3.822
 1896SOL    HW2 5712   3.204   1.215   3.795
 1897SOL     OW 5713   2.159   0.035   3.895
 1897SOL    HW1 5714   2.208   0.119   3.874
 1897SOL    HW2 5715   2.221  -0.030   3.940
 1898SOL     OW 5716   2.797   0.236   4.204
 1898SOL    HW1 5717   2.749   0.277   4.126
 1898SOL    HW2 5718   2.896   0.234   4.185
 1899SOL     OW 5719   3.089   1.570   4.517
 1899SOL    HW1 5720   3.110   1.644   4.452
 1899SOL    HW2 5721   3.157   1.570   4.590
 1900SOL     OW 5722   2.321   1.152   4.465
 1900SOL    HW1 5723   2.250   1.125   4.530
 1900SOL    HW2 5724   2.295   1.124   4.372
 1901SOL     OW 5725   3.133   1.797   4.315
 1901SOL    HW1 5726   3.177   1.861   4.251
 1901SOL    HW2 5727   3.083   1.849   4.385
 1902SOL     OW 5728   2.894   0.549   3.740
 1902SOL    HW1 5729   2.853   0.631   3.701
 1902SOL    HW2 5730   2.958   0.575   3.813
 1903SOL     OW 5731   2.728   0.454   4.366
 1903SOL    HW1 5732   2.696   0.526   4.304
 1903SOL    HW2 5733   2.752   0.373   4.313
 1904SOL     OW 5734   2.879   0.039   4.477
 1904SOL    HW1 5735   2.807   0.044   4.408
 1904SOL    HW2 5736   2.855  -0.030   4.546
 1905SOL     OW 5737   3.291   1.173   4.591
 1905SOL    HW1 5738   3.236   1.089   4.584
 1905SOL    HW2 5739   3.317   1.202   4.499
 1906SOL     OW 5740   3.328   0.590   4.716
 1906SOL    HW1 5741   3.298   0.495   4.723
 1906SOL    HW2 5742   3.401   0.606   4.782
 1907SOL     OW 5743   3.719   0.833   4.101
 1907SOL    HW1 5744   3.761   0.769   4.165
 1907SOL    HW2 5745   3.681   0.782   4.023
 1908SOL     OW 5746   2.350   1.385   3.898
 1908SOL    HW1 5747   2.263   1.370   3.945
 1908SOL    HW2 5748   2.333   1.411   3.803
 1909SOL     OW 5749   3.526   1.280   4.381
 1909SOL    HW1 5750   3.625   1.288   4.395
 1909SOL    HW2 5751   3.481   1.364   4.412
 1910SOL     OW 5752   3.252   0.575   3.802
 1910SOL    HW1 5753   3.198   0.554   3.883
 1910SOL    HW2 5754   3.343   0.534   3.811
 1911SOL     OW 5755   2.389   0.256   4.052
 1911SOL    HW1 5756   2.416   0.197   3.977
 1911SOL    HW2 5757   2.389   0.351   4.021
 1912SOL     OW 5758   3.500   1.099   4.803
 1912SOL    HW1 5759   3.505   1.180   4.862
 1912SOL    HW2 5760   3.414   1.101   4.752
 1913SOL     OW 5761   2.567   1.050   4.092
 1913SOL    HW1 5762   2.553   1.057   4.191
 1913SOL    HW2 5763   2.651   0.999   4.074
 1914SOL     OW 5764   2.229   1.100   4.225
 1914SOL    HW1 5765   2.222   1.183   4.169
 1914SOL    HW2 5766   2.233   1.020   4.165
 1915SOL     OW 5767   2.428   0.537   4.589
 1915SOL    HW1 5768   2.440   0.603   4.515
 1915SOL    HW2 5769   2.474   0.571   4.672
 1916SOL     OW 5770   3.114   1.348   4.112
 1916SOL    HW1 5771   3.164   1.425   4.152
 1916SOL    HW2 5772   3.019   1.350   4.144
 1917SOL     OW 5773   3.444   0.639   4.196
 1917SOL    HW1 5774   3.413   0.700   4.269
 1917SOL    HW2 5775   3.494   0.691   4.127
 1918SOL     OW 5776   2.435   0.870   4.753
 1918SOL    HW1 5777   2.479   0.959   4.744
 1918SOL    HW2 5778   2.372   0.870   4.830
 1919SOL     OW 5779   3.071   0.525   3.999
 1919SOL    HW1 5780   3.084   0.441   4.053
 1919SOL    HW2 5781   3.042   0.599   4.059
 1920SOL     OW 5782   2.594   0.634   4.788
 1920SOL    HW1 5783   2.653   0.608   4.712
 1920SOL    HW2 5784   2.566   0.730   4.777
 1921SOL     OW 5785   2.169   0.063   4.342
 1921SOL    HW1 5786   2.158   0.157   4.375
 1921SOL    HW2 5787   2.164   0.000   4.419
 1922SOL     OW 5788   3.484   0.367   4.098
 1922SOL    HW1 5789   3.486   0.291   4.162
 1922SOL    HW2 5790   3.436   0.444   4.138
 1923SOL     OW 5791   3.402   0.274   3.849
 1923SOL    HW1 5792   3.341   0.199   3.872
 1923SOL    HW2 5793   3.424   0.326   3.932
 1924SOL     OW 5794   3.165   0.838   3.766
 1924SOL    HW1 5795   3.199   0.745   3.781
 1924SOL    HW2 5796   3.183   0.865   3.671
 1925SOL     OW 5797   2.930   1.333   4.573
 1925SOL    HW1 5798   2.937   1.249   4.518
 1925SOL    HW2 5799   2.992   1.402   4.537
 1926SOL     OW 5800   2.181   0.810   4.673
 1926SOL    HW1 5801   2.274   0.846   4.678
 1926SOL    HW2 5802   2.175   0.725   4.725
 1927SOL     OW 5803   2.201   0.509   4.730
 1927SOL    HW1 5804   2.149   0.426   4.713
 1927SOL    HW2 5805   2.278   0.514   4.666
 1928SOL     OW 5806   1.870   1.326   3.924
 1928SOL    HW1 5807   1.777   1.347   3.893
 1928SOL    HW2 5808   1.880   1.227   3.937
 1929SOL     OW 5809   1.950   1.801   4.651
 1929SOL    HW1 5810   1.908   1.715   4.624
 1929SOL    HW2 5811   2.044   1.804   4.617
 1930SOL     OW 5812   2.366   1.568   4.634
 1930SOL    HW1 5813   2.432   1.642   4.643
 1930SOL    HW2 5814   2.410   1.489   4.592
 1931SOL     OW 5815   2.864   0.796   4.962
 1931SOL    HW1 5816   2.905   0.764   5.048
 1931SOL    HW2 5817   2.768   0.769   4.959
 1932SOL     OW 5818   2.677   0.572   4.049
 1932SOL    HW1 5819   2.684   0.483   4.003
 1932SOL    HW2 5820   2.583   0.606   4.041
 1933SOL     OW 5821   2.533   0.464   4.993
 1933SOL    HW1 5822   2.499   0.375   4.963
 1933SOL    HW2 5823   2.559   0.518   4.913
 1934SOL     OW 5824   2.335   0.500   3.915
 1934SOL    HW1 5825   2.396   0.580   3.919
 1934SOL    HW2 5826   2.240   0.531   3.922
 1935SOL     OW 5827   3.164   0.855   4.033
 1935SOL    HW1 5828   3.078   0.824   4.075
 1935SOL    HW2 5829   3.160   0.841   3.934
 1936SOL     OW 5830   3.621   1.747   4.878
 1936SOL    HW1 5831   3.682   1.777   4.805
 1936SOL    HW2 5832   3.583   1.658   4.856
 1937SOL     OW 5833   1.945   1.258   4.746
 1937SOL    HW1 5834   1.940   1.257   4.846
 1937SOL    HW2 5835   1.862   1.217   4.708
 1938SOL     OW 5836   3.588   0.135   4.247
 1938SOL    HW1 5837   3.661   0.118   4.180
 1938SOL    HW2 5838   3.557   0.048   4.285
 1939SOL     OW 5839   3.250   1.573   4.201
 1939SOL    HW1 5840   3.317   1.585   4.127
 1939SOL    HW2 5841   3.210   1.662   4.224
 1940SOL     OW 5842   3.142   0.927   4.396
 1940SOL    HW1 5843   3.202   0.846   4.398
 1940SOL    HW2 5844   3.182   0.996   4.336
 1941SOL     OW 5845   2.534   1.616   3.878
 1941SOL    HW1 5846   2.543   1.626   3.779
 1941SOL    HW2 5847   2.494   1.527   3.899
 1942SOL     OW 5848   3.703   0.175   4.687
 1942SOL    HW1 5849   3.742   0.090   4.651
 1942SOL    HW2 5850   3.605   0.177   4.668
 1943SOL     OW 5851   2.125   0.326   4.444
 1943SOL    HW1 5852   2.046   0.377   4.410
 1943SOL    HW2 5853   2.116   0.311   4.542
 1944SOL     OW 5854   3.056   1.612   3.755
 1944SOL    HW1 5855   3.062   1.519   3.792
 1944SOL    HW2 5856   2.997   1.612   3.675
 1945SOL     OW 5857   2.778   0.910   4.015
 1945SOL    HW1 5858   2.841   0.948   3.947
 1945SOL    HW2 5859   2.818   0.827   4.054
 1946SOL     OW 5860   3.366   1.607   3.768
 1946SOL    HW1 5861   3.274   1.644   3.775
 1946SOL    HW2 5862   3.404   1.627   3.678
 1947SOL     OW 5863   2.901   1.098   4.420
 1947SOL    HW1 5864   2.831   1.051   4.474
 1947SOL    HW2 5865   2.960   1.030   4.377
 1948SOL     OW 5866   2.876   0.236   4.695
 1948SOL    HW1 5867   2.868   0.200   4.602
 1948SOL    HW2 5868   2.874   0.160   4.760
 1949SOL     OW 5869   2.452   1.487   4.215
 1949SOL    HW1 5870   2.494   1.429   4.145
 1949SOL    HW2 5871   2.408   1.566   4.171
 1950SOL     OW 5872   2.117   1.348   4.014
 1950SOL    HW1 5873   2.021   1.349   3.987
 1950SOL    HW2 5874   2.129   1.401   4.098
 1951SOL     OW 5875   1.937   0.345   3.757
 1951SOL    HW1 5876   1.845   0.317   3.728
 1951SOL    HW2 5877   1.968   0.422   3.701
 1952SOL     OW 5878   1.934   0.166   4.042
 1952SOL    HW1 5879   1.917   0.249   3.988
 1952SOL    HW2 5880   2.024   0.129   4.020
 1953SOL     OW 5881   3.045   1.335   3.843
 1953SOL    HW1 5882   2.946   1.324   3.845
 1953SOL    HW2 5883   3.079   1.350   3.936
 1954SOL     OW 5884   3.536   0.883   4.978
 1954SOL    HW1 5885   3.509   0.794   4.941
 1954SOL    HW2 5886   3.537   0.951   4.905
 1955SOL     OW 5887   3.087   0.325   4.173
 1955SOL    HW1 5888   3.152   0.251   4.162
 1955SOL    HW2 5889   3.107   0.375   4.257
 1956SOL     OW 5890   2.456   0.745   4.376
 1956SOL    HW1 5891   2.506   0.830   4.357
 1956SOL    HW2 5892   2.368   0.747   4.328
 1957SOL     OW 5893   2.721   1.374   3.740
 1957SOL    HW1 5894   2.675   1.389   3.828
 1957SOL    HW2 5895   2.765   1.459   3.710
 1958SOL     OW 5896   2.523   1.790   4.677
 1958SOL    HW1 5897   2.477   1.878   4.664
 1958SOL    HW2 5898   2.622   1.802   4.670
 1959SOL     OW 5899   2.721   0.956   4.585
 1959SOL    HW1 5900   2.775   0.887   4.633
 1959SOL    HW2 5901   2.689   1.025   4.651
 1960SOL     OW 5902   2.945   0.984   3.811
 1960SOL    HW1 5903   2.922   1.037   3.729
 1960SOL    HW2 5904   3.026   0.928   3.792
 1961SOL     OW 5905   3.723   1.569   4.575
 1961SOL    HW1 5906   3.652   1.557   4.505
 1961SOL    HW2 5907   3.724   1.490   4.635
 1962SOL     OW 5908   1.941   1.240   4.377
 1962SOL    HW1 5909   1.940   1.193   4.465
 1962SOL    HW2 5910   2.023   1.212   4.326
 1963SOL     OW 5911   3.686   0.192   4.951
 1963SOL    HW1 5912   3.682   0.102   4.995
 1963SOL    HW2 5913   3.689   0.181   4.852
 1964SOL     OW 5914   2.290   0.424   4.244
 1964SOL    HW1 5915   2.320   0.352   4.182
 1964SOL    HW2 5916   2.251   0.384   4.327
 1965SOL     OW 5917   2.674   1.586   4.411
 1965SOL    HW1 5918   2.706   1.596   4.317
 1965SOL    HW2 5919   2.595   1.524   4.413
 1966SOL     OW 5920   2.632   1.330   4.025
 1966SOL    HW1 5921   2.586   1.243   4.042
 1966SOL    HW2 5922   2.723   1.327   4.066
 1967SOL     OW 5923   3.214   0.052   3.892
 1967SOL    HW1 5924   3.249   0.011   3.808
 1967SOL    HW2 5925   3.124   0.014   3.912
 1968SOL     OW 5926   3.162   0.453   4.415
 1968SOL    HW1 5927   3.103   0.533   4.419
 1968SOL    HW2 5928   3.177   0.418   4.508
 1969SOL     OW 5929   3.455   0.221   4.606
 1969SOL    HW1 5930   3.371   0.220   4.660
 1969SOL    HW2 5931   3.457   0.304   4.550
 1970SOL     OW 5932   1.901   1.077   4.024
 1970SOL    HW1 5933   2.000   1.066   4.015
 1970SOL    HW2 5934   1.861   0.991   4.056
 1971SOL     OW 5935   2.737   1.646   4.061
 1971SOL    HW1 5936   2.660   1.611   4.007
 1971SOL    HW2 5937   2.705   1.717   4.123
 1972SOL     OW 5938   2.092   2.490   0.113
 1972SOL    HW1 5939   1.999   2.488   0.150
 1972SOL    HW2 5940   2.093   2.451   0.021
 1973SOL     OW 5941   2.087   2.137   0.996
 1973SOL    HW1 5942   2.122   2.120   1.088
 1973SOL    HW2 5943   1.999   2.092   0.984
 1974SOL     OW 5944   1.881   2.230   0.647
 1974SOL    HW1 5945   1.799   2.273   0.686
 1974SOL    HW2 5946   1.853   2.157   0.584
 1975SOL     OW 5947   2.431   3.137   1.165
 1975SOL    HW1 5948   2.338   3.130   1.128
 1975SOL    HW2 5949   2.442   3.226   1.209
 1976SOL     OW 5950   3.417   3.373   0.703
 1976SOL    HW1 5951   3.360   3.357   0.784
 1976SOL    HW2 5952   3.358   3.383   0.623
 1977SOL     OW 5953   2.997   2.565   0.717
 1977SOL    HW1 5954   3.054   2.643   0.692
 1977SOL    HW2 5955   2.937   2.591   0.793
 1978SOL     OW 5956   3.617   2.469   0.231
 1978SOL    HW1 5957   3.605   2.456   0.132
 1978SOL    HW2 5958   3.587   2.388   0.280
 1979SOL     OW 5959   2.630   3.006   1.023
 1979SOL    HW1 5960   2.552   3.023   1.083
 1979SOL    HW2 5961   2.664   3.093   0.987
 1980SOL     OW 5962   2.712   2.660   1.823
 1980SOL    HW1 5963   2.708   2.736   1.888
 1980SOL    HW2 5964   2.734   2.696   1.732
 1981SOL     OW 5965   2.547   2.874   0.665
 1981SOL    HW1 5966   2.616   2.858   0.735
 1981SOL    HW2 5967   2.474   2.931   0.703
 1982SOL     OW 5968   2.548   3.023   1.803
 1982SOL    HW1 5969   2.608   3.102   1.817
 1982SOL    HW2 5970   2.462   3.054   1.762
 1983SOL     OW 5971   2.197   3.297   1.061
 1983SOL    HW1 5972   2.119   3.266   1.008
 1983SOL    HW2 5973   2.255   3.355   1.004
 1984SOL     OW 5974   3.322   3.367   1.339
 1984SOL    HW1 5975   3.346   3.461   1.365
 1984SOL    HW2 5976   3.306   3.313   1.421
 1985SOL     OW 5977   2.300   2.254   1.499
 1985SOL    HW1 5978   2.382   2.198   1.508
 1985SOL    HW2 5979   2.219   2.196   1.503
 1986SOL     OW 5980   3.465   2.309   0.737
 1986SOL    HW1 5981   3.391   2.355   0.687
 1986SOL    HW2 5982   3.516   2.377   0.790
 1987SOL     OW 5983   2.093   3.575   0.483
 1987SOL    HW1 5984   2.127   3.652   0.537
 1987SOL    HW2 5985   2.137   3.575   0.393
 1988SOL     OW 5986   2.989   3.203   1.690
 1988SOL    HW1 5987   3.036   3.203   1.778
 1988SOL    HW2 5988   2.941   3.116   1.679
 1989SOL     OW 5989   2.092   3.296   0.538
 1989SOL    HW1 5990   2.066   3.392   0.538
 1989SOL    HW2 5991   2.021   3.242   0.583
 1990SOL     OW 5992   2.102   2.953   0.886
 1990SOL    HW1 5993   2.116   2.869   0.938
 1990SOL    HW2 5994   2.047   3.017   0.941
 1991SOL     OW 5995   2.482   3.648   1.439
 1991SOL    HW1 5996   2.390   3.631   1.474
 1991SOL    HW2 5997   2.510   3.740   1.465
 1992SOL     OW 5998   2.468   2.826   0.123
 1992SOL    HW1 5999   2.475   2.910   0.069
 1992SOL    HW2 6000   2.514   2.839   0.211
 1993SOL     OW 6001   3.456   1.976   1.480
 1993SOL    HW1 6002   3.438   2.043   1.408
 1993SOL    HW2 6003   3.453   2.022   1.569
 1994SOL     OW 6004   1.984   2.505   0.563
 1994SOL    HW1 6005   1.939   2.417   0.580
 1994SOL    HW2 6006   1.983   2.559   0.647
 1995SOL     OW 6007   3.704   3.629   0.359
 1995SOL    HW1 6008   3.758   3.600   0.439
 1995SOL    HW2 6009   3.734   3.719   0.330
 1996SOL     OW 6010   1.889   3.458   0.117
 1996SOL    HW1 6011   1.870   3.362   0.138
 1996SOL    HW2 6012   1.856   3.516   0.192
 1997SOL     OW 6013   3.551   2.784   0.612
 1997SOL    HW1 6014   3.646   2.755   0.620
 1997SOL    HW2 6015   3.543   2.849   0.537
 1998SOL     OW 6016   3.503   2.970   0.432
 1998SOL    HW1 6017   3.589   2.972   0.380
 1998SOL    HW2 6018   3.517   3.017   0.520
 1999SOL     OW 6019   1.975   2.599   1.597
 1999SOL    HW1 6020   2.063   2.586   1.642
 1999SOL    HW2 6021   1.962   2.696   1.575
 2000SOL     OW 6022   2.475   3.227   0.726
 2000SOL    HW1 6023   2.426   3.140   0.735
 2000SOL    HW2 6024   2.452   3.270   0.639
 2001SOL     OW 6025   3.155   3.090   1.423
 2001SOL    HW1 6026   3.192   3.017   1.365
 2001SOL    HW2 6027   3.207   3.095   1.508
 2002SOL     OW 6028   2.671   1.866   0.502
 2002SOL    HW1 6029   2.711   1.957   0.493
 2002SOL    HW2 6030   2.571   1.874   0.508
 2003SOL     OW 6031   2.059   2.838   1.264
 2003SOL    HW1 6032   2.148   2.793   1.250
 2003SOL    HW2 6033   1.986   2.773   1.245
 2004SOL     OW 6034   3.387   2.861   0.190
 2004SOL    HW1 6035   3.324   2.785   0.203
 2004SOL    HW2 6036   3.435   2.879   0.276
 2005SOL     OW 6037   3.049   3.654   1.616
 2005SOL    HW1 6038   3.073   3.714   1.540
 2005SOL    HW2 6039   3.056   3.559   1.586
 2006SOL     OW 6040   2.179   2.113   1.801
 2006SOL    HW1 6041   2.250   2.184   1.807
 2006SOL    HW2 6042   2.091   2.152   1.829
 2007SOL     OW 6043   3.328   3.279   0.953
 2007SOL    HW1 6044   3.269   3.285   1.033
 2007SOL    HW2 6045   3.313   3.191   0.907
 2008SOL     OW 6046   3.529   3.576   0.572
 2008SOL    HW1 6047   3.488   3.553   0.484
 2008SOL    HW2 6048   3.511   3.502   0.637
 2009SOL     OW 6049   2.460   2.591   0.270
 2009SOL    HW1 6050   2.484   2.660   0.202
 2009SOL    HW2 6051   2.382   2.624   0.324
 2010SOL     OW 6052   3.143   2.207   0.944
 2010SOL    HW1 6053   3.057   2.157   0.931
 2010SOL    HW2 6054   3.205   2.153   1.000
 2011SOL     OW 6055   3.438   3.524   0.307
 2011SOL    HW1 6056   3.527   3.570   0.310
 2011SOL    HW2 6057   3.417   3.500   0.212
 2012SOL     OW 6058   2.669   2.467   1.465
 2012SOL    HW1 6059   2.622   2.464   1.554
 2012SOL    HW2 6060   2.618   2.412   1.399
 2013SOL     OW 6061   3.256   2.331   1.674
 2013SOL    HW1 6062   3.236   2.374   1.762
 2013SOL    HW2 6063   3.334   2.269   1.683
 2014SOL     OW 6064   2.835   2.752   1.572
 2014SOL    HW1 6065   2.881   2.668   1.543
 2014SOL    HW2 6066   2.779   2.786   1.497
 2015SOL     OW 6067   2.853   2.272   1.242
 2015SOL    HW1 6068   2.776   2.306   1.296
 2015SOL    HW2 6069   2.819   2.221   1.163
 2016SOL     OW 6070   2.903   2.563   0.429
 2016SOL    HW1 6071   2.929   2.559   0.525
 2016SOL    HW2 6072   2.818   2.512   0.415
 2017SOL     OW 6073   1.938   2.673   0.789
 2017SOL    HW1 6074   2.037   2.661   0.798
 2017SOL    HW2 6075   1.914   2.768   0.810
 2018SOL     OW 6076   1.992   3.683   1.571
 2018SOL    HW1 6077   1.982   3.668   1.670
 2018SOL    HW2 6078   1.906   3.719   1.535
 2019SOL     OW 6079   2.727   2.210   0.195
 2019SOL    HW1 6080   2.786   2.273   0.146
 2019SOL    HW2 6081   2.746   2.116   0.166
 2020SOL     OW 6082   3.581   2.447   1.831
 2020SOL    HW1 6083   3.555   2.536   1.795
 2020SOL    HW2 6084   3.579   2.379   1.758
 2021SOL     OW 6085   3.224   3.006   0.545
 2021SOL    HW1 6086   3.307   2.977   0.497
 2021SOL    HW2 6087   3.175   3.073   0.489
 2022SOL     OW 6088   2.412   2.058   0.885
 2022SOL    HW1 6089   2.407   2.053   0.985
 2022SOL    HW2 6090   2.414   2.154   0.856
 2023SOL     OW 6091   2.870   3.318   0.477
 2023SOL    HW1 6092   2.824   3.390   0.425
 2023SOL    HW2 6093   2.866   3.338   0.575
 2024SOL     OW 6094   2.213   3.663   0.853
 2024SOL    HW1 6095   2.263   3.577   0.859
 2024SOL    HW2 6096   2.278   3.740   0.850
 2025SOL     OW 6097   3.657   2.928   0.873
 2025SOL    HW1 6098   3.595   2.913   0.797
 2025SOL    HW2 6099   3.605   2.939   0.958
 2026SOL     OW 6100   3.089   3.412   1.506
 2026SOL    HW1 6101   3.095   3.335   1.570
 2026SOL    HW2 6102   3.037   3.386   1.426
 2027SOL     OW 6103   2.183   2.805   0.242
 2027SOL    HW1 6104   2.265   2.844   0.200
 2027SOL    HW2 6105   2.156   2.723   0.193
 2028SOL     OW 6106   3.320   2.597   0.728
 2028SOL    HW1 6107   3.315   2.532   0.803
 2028SOL    HW2 6108   3.400   2.656   0.741
 2029SOL     OW 6109   2.323   3.128   1.727
 2029SOL    HW1 6110   2.273   3.129   1.641
 2029SOL    HW2 6111   2.260   3.110   1.803
 2030SOL     OW 6112   2.973   3.638   0.237
 2030SOL    HW1 6113   2.913   3.576   0.287
 2030SOL    HW2 6114   3.004   3.594   0.152
 2031SOL     OW 6115   2.064   2.147   1.498
 2031SOL    HW1 6116   1.984   2.207   1.485
 2031SOL    HW2 6117   2.054   2.098   1.584
 2032SOL     OW 6118   3.494   3.239   0.081
 2032SOL    HW1 6119   3.462   3.333   0.071
 2032SOL    HW2 6120   3.418   3.176   0.069
 2033SOL     OW 6121   2.326   3.605   0.323
 2033SOL    HW1 6122   2.359   3.644   0.409
 2033SOL    HW2 6123   2.402   3.598   0.258
 2034SOL     OW 6124   3.262   1.969   0.426
 2034SOL    HW1 6125   3.238   1.932   0.336
 2034SOL    HW2 6126   3.361   1.985   0.430
 2035SOL     OW 6127   2.111   3.647   1.241
 2035SOL    HW1 6128   2.168   3.582   1.291
 2035SOL    HW2 6129   2.095   3.614   1.148
 2036SOL     OW 6130   2.802   3.560   0.904
 2036SOL    HW1 6131   2.882   3.503   0.925
 2036SOL    HW2 6132   2.753   3.520   0.827
 2037SOL     OW 6133   2.244   2.562   0.480
 2037SOL    HW1 6134   2.289   2.472   0.477
 2037SOL    HW2 6135   2.150   2.551   0.513
 2038SOL     OW 6136   3.409   2.084   1.729
 2038SOL    HW1 6137   3.404   2.121   1.821
 2038SOL    HW2 6138   3.337   2.015   1.717
 2039SOL     OW 6139   2.476   1.984   0.117
 2039SOL    HW1 6140   2.574   1.962   0.124
 2039SOL    HW2 6141   2.445   1.967   0.024
 2040SOL     OW 6142   2.643   2.126   1.749
 2040SOL    HW1 6143   2.710   2.065   1.792
 2040SOL    HW2 6144   2.570   2.145   1.814
 2041SOL     OW 6145   2.750   3.376   1.195
 2041SOL    HW1 6146   2.727   3.351   1.101
 2041SOL    HW2 6147   2.811   3.307   1.234
 2042SOL     OW 6148   3.213   2.452   1.433
 2042SOL    HW1 6149   3.241   2.409   1.518
 2042SOL    HW2 6150   3.238   2.548   1.434
 2043SOL     OW 6151   2.665   3.264   0.924
 2043SOL    HW1 6152   2.755   3.278   0.882
 2043SOL    HW2 6153   2.594   3.266   0.853
 2044SOL     OW 6154   2.784   2.365   0.899
 2044SOL    HW1 6155   2.759   2.356   0.803
 2044SOL    HW2 6156   2.832   2.283   0.930
 2045SOL     OW 6157   2.401   1.926   0.512
 2045SOL    HW1 6158   2.320   1.927   0.570
 2045SOL    HW2 6159   2.404   2.009   0.457
 2046SOL     OW 6160   3.296   3.050   0.041
 2046SOL    HW1 6161   3.328   2.974   0.098
 2046SOL    HW2 6162   3.204   3.077   0.071
 2047SOL     OW 6163   2.797   2.098   0.480
 2047SOL    HW1 6164   2.749   2.139   0.402
 2047SOL    HW2 6165   2.896   2.096   0.461
 2048SOL     OW 6166   2.938   2.545   1.464
 2048SOL    HW1 6167   2.858   2.484   1.467
 2048SOL    HW2 6168   3.019   2.492   1.440
 2049SOL     OW 6169   3.089   3.432   0.793
 2049SOL    HW1 6170   3.110   3.506   0.728
 2049SOL    HW2 6171   3.157   3.432   0.866
 2050SOL     OW 6172   2.321   3.014   0.741
 2050SOL    HW1 6173   2.250   2.987   0.806
 2050SOL    HW2 6174   2.295   2.986   0.648
 2051SOL     OW 6175   3.133   3.659   0.591
 2051SOL    HW1 6176   3.177   3.723   0.527
 2051SOL    HW2 6177   3.083   3.711   0.661
 2052SOL     OW 6178   2.894   2.411   0.016
 2052SOL    HW1 6179   2.853   2.493  -0.023
 2052SOL    HW2 6180   2.958   2.437   0.089
 2053SOL     OW 6181   1.940   2.418   1.386
 2053SOL    HW1 6182   2.032   2.417   1.345
 2053SOL    HW2 6183   1.934   2.492   1.453
 2054SOL     OW 6184   2.423   2.084   1.147
 2054SOL    HW1 6185   2.461   2.000   1.184
 2054SOL    HW2 6186   2.335   2.103   1.191
 2055SOL     OW 6187   2.728   2.316   0.642
 2055SOL    HW1 6188   2.696   2.388   0.580
 2055SOL    HW2 6189   2.752   2.235   0.589
 2056SOL     OW 6190   2.879   1.901   0.753
 2056SOL    HW1 6191   2.807   1.906   0.684
 2056SOL    HW2 6192   2.855   1.832   0.822
 2057SOL     OW 6193   3.291   3.035   0.867
 2057SOL    HW1 6194   3.236   2.951   0.860
 2057SOL    HW2 6195   3.317   3.064   0.775
 2058SOL     OW 6196   3.328   2.452   0.992
 2058SOL    HW1 6197   3.298   2.357   0.999
 2058SOL    HW2 6198   3.401   2.468   1.058
 2059SOL     OW 6199   3.719   2.695   0.377
 2059SOL    HW1 6200   3.761   2.631   0.441
 2059SOL    HW2 6201   3.681   2.644   0.299
 2060SOL     OW 6202   2.350   3.247   0.174
 2060SOL    HW1 6203   2.263   3.232   0.221
 2060SOL    HW2 6204   2.333   3.273   0.079
 2061SOL     OW 6205   3.526   3.142   0.657
 2061SOL    HW1 6206   3.625   3.150   0.671
 2061SOL    HW2 6207   3.481   3.226   0.688
 2062SOL     OW 6208   3.252   2.437   0.078
 2062SOL    HW1 6209   3.198   2.416   0.159
 2062SOL    HW2 6210   3.343   2.396   0.087
 2063SOL     OW 6211   2.389   2.118   0.328
 2063SOL    HW1 6212   2.416   2.059   0.253
 2063SOL    HW2 6213   2.389   2.213   0.297
 2064SOL     OW 6214   3.616   3.085   1.588
 2064SOL    HW1 6215   3.707   3.046   1.575
 2064SOL    HW2 6216   3.624   3.181   1.612
 2065SOL     OW 6217   2.926   3.209   1.340
 2065SOL    HW1 6218   2.846   3.186   1.395
 2065SOL    HW2 6219   3.009   3.183   1.389
 2066SOL     OW 6220   3.454   3.491   1.625
 2066SOL    HW1 6221   3.481   3.525   1.535
 2066SOL    HW2 6222   3.533   3.453   1.671
 2067SOL     OW 6223   2.973   3.057   1.100
 2067SOL    HW1 6224   2.933   3.101   1.181
 2067SOL    HW2 6225   2.932   3.094   1.017
 2068SOL     OW 6226   3.500   2.961   1.079
 2068SOL    HW1 6227   3.505   3.042   1.138
 2068SOL    HW2 6228   3.414   2.963   1.028
 2069SOL     OW 6229   2.777   1.951   1.402
 2069SOL    HW1 6230   2.802   1.931   1.307
 2069SOL    HW2 6231   2.849   2.007   1.444
 2070SOL     OW 6232   2.842   2.978   1.719
 2070SOL    HW1 6233   2.743   2.984   1.729
 2070SOL    HW2 6234   2.865   2.898   1.663
 2071SOL     OW 6235   2.567   2.912   0.368
 2071SOL    HW1 6236   2.553   2.919   0.467
 2071SOL    HW2 6237   2.651   2.861   0.350
 2072SOL     OW 6238   2.272   2.675   1.251
 2072SOL    HW1 6239   2.358   2.687   1.301
 2072SOL    HW2 6240   2.230   2.588   1.278
 2073SOL     OW 6241   3.136   2.248   1.262
 2073SOL    HW1 6242   3.157   2.322   1.326
 2073SOL    HW2 6243   3.047   2.265   1.219
 2074SOL     OW 6244   1.926   3.426   1.331
 2074SOL    HW1 6245   1.880   3.508   1.297
 2074SOL    HW2 6246   2.024   3.445   1.340
 2075SOL     OW 6247   2.229   2.962   0.501
 2075SOL    HW1 6248   2.222   3.045   0.445
 2075SOL    HW2 6249   2.233   2.882   0.441
 2076SOL     OW 6250   2.428   2.399   0.865
 2076SOL    HW1 6251   2.440   2.465   0.791
 2076SOL    HW2 6252   2.474   2.433   0.948
 2077SOL     OW 6253   3.114   3.210   0.388
 2077SOL    HW1 6254   3.164   3.287   0.428
 2077SOL    HW2 6255   3.019   3.212   0.420
 2078SOL     OW 6256   3.134   3.307   1.142
 2078SOL    HW1 6257   3.181   3.320   1.229
 2078SOL    HW2 6258   3.068   3.233   1.151
 2079SOL     OW 6259   3.444   2.501   0.472
 2079SOL    HW1 6260   3.413   2.562   0.545
 2079SOL    HW2 6261   3.494   2.553   0.403
 2080SOL     OW 6262   2.216   3.372   1.329
 2080SOL    HW1 6263   2.195   3.328   1.242
 2080SOL    HW2 6264   2.313   3.398   1.332
 2081SOL     OW 6265   2.264   2.613   1.598
 2081SOL    HW1 6266   2.332   2.668   1.551
 2081SOL    HW2 6267   2.304   2.525   1.625
 2082SOL     OW 6268   3.449   2.641   1.670
 2082SOL    HW1 6269   3.357   2.679   1.665
 2082SOL    HW2 6270   3.509   2.688   1.605
 2083SOL     OW 6271   2.875   1.967   1.770
 2083SOL    HW1 6272   2.881   2.052   1.718
 2083SOL    HW2 6273   2.907   1.891   1.713
 2084SOL     OW 6274   2.366   1.912   1.740
 2084SOL    HW1 6275   2.324   1.855   1.670
 2084SOL    HW2 6276   2.300   1.981   1.772
 2085SOL     OW 6277   2.435   2.732   1.029
 2085SOL    HW1 6278   2.479   2.821   1.020
 2085SOL    HW2 6279   2.372   2.732   1.106
 2086SOL     OW 6280   3.222   2.724   1.045
 2086SOL    HW1 6281   3.147   2.724   0.979
 2086SOL    HW2 6282   3.259   2.632   1.054
 2087SOL     OW 6283   3.071   2.387   0.275
 2087SOL    HW1 6284   3.084   2.303   0.329
 2087SOL    HW2 6285   3.042   2.461   0.335
 2088SOL     OW 6286   2.169   2.075   1.231
 2088SOL    HW1 6287   2.146   2.112   1.321
 2088SOL    HW2 6288   2.139   1.980   1.225
 2089SOL     OW 6289   1.899   3.172   1.282
 2089SOL    HW1 6290   1.952   3.123   1.350
 2089SOL    HW2 6291   1.921   3.270   1.287
 2090SOL     OW 6292   2.594   2.496   1.064
 2090SOL    HW1 6293   2.653   2.470   0.988
 2090SOL    HW2 6294   2.566   2.592   1.053
 2091SOL     OW 6295   3.590   2.797   1.854
 2091SOL    HW1 6296   3.544   2.790   1.765
 2091SOL    HW2 6297   3.528   2.841   1.920
 2092SOL     OW 6298   2.169   1.925   0.618
 2092SOL    HW1 6299   2.158   2.019   0.651
 2092SOL    HW2 6300   2.164   1.862   0.695
 2093SOL     OW 6301   3.484   2.229   0.374
 2093SOL    HW1 6302   3.486   2.153   0.438
 2093SOL    HW2 6303   3.436   2.306   0.414
 2094SOL     OW 6304   2.885   2.628   0.966
 2094SOL    HW1 6305   2.900   2.649   1.062
 2094SOL    HW2 6306   2.855   2.533   0.957
 2095SOL     OW 6307   2.842   3.435   1.700
 2095SOL    HW1 6308   2.822   3.479   1.612
 2095SOL    HW2 6309   2.881   3.344   1.684
 2096SOL     OW 6310   3.721   3.380   1.605
 2096SOL    HW1 6311   3.735   3.407   1.510
 2096SOL    HW2 6312   3.804   3.402   1.658
 2097SOL     OW 6313   2.212   2.760   1.804
 2097SOL    HW1 6314   2.288   2.804   1.852
 2097SOL    HW2 6315   2.247   2.713   1.722
 2098SOL     OW 6316   3.402   2.136   0.125
 2098SOL    HW1 6317   3.341   2.061   0.148
 2098SOL    HW2 6318   3.424   2.188   0.208
 2099SOL     OW 6319   3.165   2.700   0.042
 2099SOL    HW1 6320   3.199   2.607   0.057
 2099SOL    HW2 6321   3.183   2.727  -0.053
 2100SOL     OW 6322   2.930   3.195   0.849
 2100SOL    HW1 6323   2.937   3.111   0.794
 2100SOL    HW2 6324   2.992   3.264   0.813
 2101SOL     OW 6325   2.181   2.672   0.949
 2101SOL    HW1 6326   2.274   2.708   0.954
 2101SOL    HW2 6327   2.175   2.587   1.001
 2102SOL     OW 6328   2.201   2.371   1.006
 2102SOL    HW1 6329   2.149   2.288   0.989
 2102SOL    HW2 6330   2.278   2.376   0.942
 2103SOL     OW 6331   3.000   2.242   1.678
 2103SOL    HW1 6332   2.955   2.305   1.742
 2103SOL    HW2 6333   3.093   2.273   1.661
 2104SOL     OW 6334   3.022   2.069   1.477
 2104SOL    HW1 6335   3.022   2.133   1.554
 2104SOL    HW2 6336   3.050   2.117   1.394
 2105SOL     OW 6337   1.870   3.188   0.200
 2105SOL    HW1 6338   1.777   3.209   0.169
 2105SOL    HW2 6339   1.880   3.089   0.213
 2106SOL     OW 6340   1.950   3.663   0.927
 2106SOL    HW1 6341   1.908   3.577   0.900
 2106SOL    HW2 6342   2.044   3.666   0.893
 2107SOL     OW 6343   2.366   3.430   0.910
 2107SOL    HW1 6344   2.432   3.504   0.919
 2107SOL    HW2 6345   2.410   3.351   0.868
 2108SOL     OW 6346   2.864   2.658   1.238
 2108SOL    HW1 6347   2.905   2.626   1.324
 2108SOL    HW2 6348   2.768   2.631   1.235
 2109SOL     OW 6349   1.902   2.406   1.114
 2109SOL    HW1 6350   1.987   2.373   1.073
 2109SOL    HW2 6351   1.915   2.421   1.212
 2110SOL     OW 6352   2.051   2.382   1.722
 2110SOL    HW1 6353   2.110   2.342   1.652
 2110SOL    HW2 6354   1.993   2.453   1.681
 2111SOL     OW 6355   3.231   2.812   1.660
 2111SOL    HW1 6356   3.270   2.901   1.680
 2111SOL    HW2 6357   3.241   2.792   1.563
 2112SOL     OW 6358   2.677   2.434   0.325
 2112SOL    HW1 6359   2.684   2.345   0.279
 2112SOL    HW2 6360   2.583   2.468   0.317
 2113SOL     OW 6361   3.519   2.466   1.206
 2113SOL    HW1 6362   3.481   2.397   1.268
 2113SOL    HW2 6363   3.601   2.430   1.162
 2114SOL     OW 6364   2.114   3.426   1.744
 2114SOL    HW1 6365   2.084   3.483   1.820
 2114SOL    HW2 6366   2.107   3.329   1.770
 2115SOL     OW 6367   2.533   2.326   1.269
 2115SOL    HW1 6368   2.499   2.237   1.239
 2115SOL    HW2 6369   2.559   2.380   1.189
 2116SOL     OW 6370   2.792   3.540   1.465
 2116SOL    HW1 6371   2.768   3.522   1.370
 2116SOL    HW2 6372   2.822   3.634   1.475
 2117SOL     OW 6373   2.335   2.362   0.191
 2117SOL    HW1 6374   2.396   2.442   0.195
 2117SOL    HW2 6375   2.240   2.393   0.198
 2118SOL     OW 6376   2.021   2.999   1.466
 2118SOL    HW1 6377   2.043   2.938   1.542
 2118SOL    HW2 6378   2.031   2.950   1.380
 2119SOL     OW 6379   3.209   2.921   1.234
 2119SOL    HW1 6380   3.233   2.858   1.160
 2119SOL    HW2 6381   3.119   2.961   1.216
 2120SOL     OW 6382   3.164   2.717   0.309
 2120SOL    HW1 6383   3.078   2.686   0.351
 2120SOL    HW2 6384   3.160   2.703   0.210
 2121SOL     OW 6385   3.621   3.609   1.154
 2121SOL    HW1 6386   3.682   3.639   1.081
 2121SOL    HW2 6387   3.583   3.520   1.132
 2122SOL     OW 6388   3.114   3.593   1.128
 2122SOL    HW1 6389   3.198   3.598   1.074
 2122SOL    HW2 6390   3.091   3.497   1.146
 2123SOL     OW 6391   1.945   3.120   1.022
 2123SOL    HW1 6392   1.940   3.119   1.122
 2123SOL    HW2 6393   1.862   3.079   0.984
 2124SOL     OW 6394   2.550   3.524   1.716
 2124SOL    HW1 6395   2.494   3.605   1.725
 2124SOL    HW2 6396   2.602   3.528   1.630
 2125SOL     OW 6397   2.765   1.948   0.133
 2125SOL    HW1 6398   2.816   1.949   0.047
 2125SOL    HW2 6399   2.821   1.906   0.204
 2126SOL     OW 6400   3.588   1.997   0.523
 2126SOL    HW1 6401   3.661   1.980   0.456
 2126SOL    HW2 6402   3.557   1.910   0.561
 2127SOL     OW 6403   3.250   3.435   0.477
 2127SOL    HW1 6404   3.317   3.447   0.403
 2127SOL    HW2 6405   3.210   3.524   0.500
 2128SOL     OW 6406   1.992   3.656   1.851
 2128SOL    HW1 6407   1.951   3.582   1.904
 2128SOL    HW2 6408   2.056   3.707   1.909
 2129SOL     OW 6409   3.142   2.789   0.672
 2129SOL    HW1 6410   3.202   2.708   0.674
 2129SOL    HW2 6411   3.182   2.858   0.612
 2130SOL     OW 6412   2.692   3.135   1.422
 2130SOL    HW1 6413   2.687   3.168   1.517
 2130SOL    HW2 6414   2.606   3.154   1.376
 2131SOL     OW 6415   2.534   3.478   0.154
 2131SOL    HW1 6416   2.543   3.488   0.055
 2131SOL    HW2 6417   2.494   3.389   0.175
 2132SOL     OW 6418   3.512   3.582   1.394
 2132SOL    HW1 6419   3.565   3.592   1.310
 2132SOL    HW2 6420   3.485   3.672   1.428
 2133SOL     OW 6421   3.703   2.037   0.963
 2133SOL    HW1 6422   3.742   1.952   0.927
 2133SOL    HW2 6423   3.605   2.039   0.944
 2134SOL     OW 6424   2.125   2.188   0.720
 2134SOL    HW1 6425   2.046   2.239   0.686
 2134SOL    HW2 6426   2.116   2.173   0.818
 2135SOL     OW 6427   3.056   3.474   0.031
 2135SOL    HW1 6428   3.062   3.381   0.068
 2135SOL    HW2 6429   2.997   3.474  -0.049
 2136SOL     OW 6430   2.684   2.864   1.372
 2136SOL    HW1 6431   2.724   2.863   1.280
 2136SOL    HW2 6432   2.694   2.956   1.412
 2137SOL     OW 6433   2.778   2.772   0.291
 2137SOL    HW1 6434   2.841   2.810   0.223
 2137SOL    HW2 6435   2.818   2.689   0.330
 2138SOL     OW 6436   3.366   3.469   0.044
 2138SOL    HW1 6437   3.274   3.506   0.051
 2138SOL    HW2 6438   3.404   3.489  -0.046
 2139SOL     OW 6439   2.234   3.150   1.490
 2139SOL    HW1 6440   2.221   3.243   1.456
 2139SOL    HW2 6441   2.150   3.098   1.477
 2140SOL     OW 6442   3.476   3.154   1.289
 2140SOL    HW1 6443   3.536   3.157   1.369
 2140SOL    HW2 6444   3.401   3.218   1.302
 2141SOL     OW 6445   2.901   2.960   0.696
 2141SOL    HW1 6446   2.831   2.913   0.750
 2141SOL    HW2 6447   2.960   2.892   0.653
 2142SOL     OW 6448   2.876   2.098   0.971
 2142SOL    HW1 6449   2.868   2.062   0.878
 2142SOL    HW2 6450   2.874   2.022   1.036
 2143SOL     OW 6451   2.452   3.349   0.491
 2143SOL    HW1 6452   2.494   3.291   0.421
 2143SOL    HW2 6453   2.408   3.428   0.447
 2144SOL     OW 6454   3.571   2.247   1.381
 2144SOL    HW1 6455   3.644   2.316   1.385
 2144SOL    HW2 6456   3.599   2.172   1.322
 2145SOL     OW 6457   2.117   3.210   0.290
 2145SOL    HW1 6458   2.021   3.211   0.263
 2145SOL    HW2 6459   2.129   3.263   0.374
 2146SOL     OW 6460   1.967   2.875   1.726
 2146SOL    HW1 6461   1.890   2.842   1.780
 2146SOL    HW2 6462   2.052   2.845   1.768
 2147SOL     OW 6463   2.534   2.065   1.489
 2147SOL    HW1 6464   2.624   2.049   1.449
 2147SOL    HW2 6465   2.542   2.070   1.588
 2148SOL     OW 6466   1.937   2.207   0.033
 2148SOL    HW1 6467   1.845   2.179   0.004
 2148SOL    HW2 6468   1.968   2.284  -0.023
 2149SOL     OW 6469   3.302   2.718   1.398
 2149SOL    HW1 6470   3.245   2.770   1.335
 2149SOL    HW2 6471   3.398   2.730   1.374
 2150SOL     OW 6472   1.934   2.028   0.318
 2150SOL    HW1 6473   1.917   2.111   0.264
 2150SOL    HW2 6474   2.024   1.991   0.296
 2151SOL     OW 6475   3.045   3.197   0.119
 2151SOL    HW1 6476   2.946   3.186   0.121
 2151SOL    HW2 6477   3.079   3.212   0.212
 2152SOL     OW 6478   2.475   2.704   1.431
 2152SOL    HW1 6479   2.531   2.785   1.414
 2152SOL    HW2 6480   2.534   2.624   1.434
 2153SOL     OW 6481   3.355   3.629   0.959
 2153SOL    HW1 6482   3.388   3.693   0.890
 2153SOL    HW2 6483   3.421   3.623   1.034
 2154SOL     OW 6484   2.578   2.427   1.708
 2154SOL    HW1 6485   2.597   2.492   1.782
 2154SOL    HW2 6486   2.638   2.347   1.717
 2155SOL     OW 6487   3.312   3.082   1.633
 2155SOL    HW1 6488   3.303   3.072   1.732
 2155SOL    HW2 6489   3.408   3.075   1.607
 2156SOL     OW 6490   2.252   3.603   1.560
 2156SOL    HW1 6491   2.161   3.644   1.558
 2156SOL    HW2 6492   2.245   3.509   1.592
 2157SOL     OW 6493   3.536   2.745   1.254
 2157SOL    HW1 6494   3.509   2.656   1.217
 2157SOL    HW2 6495   3.537   2.813   1.181
 2158SOL     OW 6496   3.087   2.187   0.449
 2158SOL    HW1 6497   3.152   2.113   0.438
 2158SOL    HW2 6498   3.107   2.237   0.533
 2159SOL     OW 6499   2.456   2.607   0.652
 2159SOL    HW1 6500   2.506   2.692   0.633
 2159SOL    HW2 6501   2.368   2.609   0.604
 2160SOL     OW 6502   3.639   2.204   1.642
 2160SOL    HW1 6503   3.622   2.235   1.548
 2160SOL    HW2 6504   3.555   2.167   1.680
 2161SOL     OW 6505   3.592   2.796   1.517
 2161SOL    HW1 6506   3.630   2.887   1.532
 2161SOL    HW2 6507   3.584   2.779   1.418
 2162SOL     OW 6508   2.721   3.236   0.016
 2162SOL    HW1 6509   2.675   3.251   0.104
 2162SOL    HW2 6510   2.765   3.321  -0.014
 2163SOL     OW 6511   2.523   3.652   0.953
 2163SOL    HW1 6512   2.477   3.740   0.940
 2163SOL    HW2 6513   2.622   3.664   0.946
 2164SOL     OW 6514   2.721   2.818   0.861
 2164SOL    HW1 6515   2.775   2.749   0.909
 2164SOL    HW2 6516   2.689   2.887   0.927
 2165SOL     OW 6517   2.945   2.846   0.087
 2165SOL    HW1 6518   2.922   2.899   0.005
 2165SOL    HW2 6519   3.026   2.790   0.068
 2166SOL     OW 6520   3.723   3.431   0.851
 2166SOL    HW1 6521   3.652   3.419   0.781
 2166SOL    HW2 6522   3.724   3.352   0.911
 2167SOL     OW 6523   2.083   3.176   1.844
 2167SOL    HW1 6524   2.018   3.103   1.823
 2167SOL    HW2 6525   2.087   3.190   1.942
 2168SOL     OW 6526   1.941   3.102   0.653
 2168SOL    HW1 6527   1.940   3.055   0.741
 2168SOL    HW2 6528   2.023   3.074   0.602
 2169SOL     OW 6529   2.534   3.253   1.624
 2169SOL    HW1 6530   2.456   3.203   1.662
 2169SOL    HW2 6531   2.531   3.348   1.655
 2170SOL     OW 6532   3.686   2.054   1.227
 2170SOL    HW1 6533   3.682   1.964   1.271
 2170SOL    HW2 6534   3.689   2.043   1.128
 2171SOL     OW 6535   2.290   2.286   0.520
 2171SOL    HW1 6536   2.320   2.214   0.458
 2171SOL    HW2 6537   2.251   2.246   0.603
 2172SOL     OW 6538   3.567   3.349   1.104
 2172SOL    HW1 6539   3.474   3.324   1.077
 2172SOL    HW2 6540   3.593   3.299   1.186
 2173SOL     OW 6541   2.179   2.409   1.280
 2173SOL    HW1 6542   2.217   2.350   1.352
 2173SOL    HW2 6543   2.219   2.383   1.192
 2174SOL     OW 6544   2.674   3.448   0.687
 2174SOL    HW1 6545   2.706   3.458   0.593
 2174SOL    HW2 6546   2.595   3.386   0.689
 2175SOL     OW 6547   3.286   2.076   1.112
 2175SOL    HW1 6548   3.338   2.011   1.167
 2175SOL    HW2 6549   3.237   2.139   1.173
 2176SOL     OW 6550   2.863   1.896   1.154
 2176SOL    HW1 6551   2.800   1.824   1.123
 2176SOL    HW2 6552   2.956   1.860   1.154
 2177SOL     OW 6553   2.632   3.192   0.301
 2177SOL    HW1 6554   2.586   3.105   0.318
 2177SOL    HW2 6555   2.723   3.189   0.342
 2178SOL     OW 6556   2.480   3.429   1.284
 2178SOL    HW1 6557   2.475   3.511   1.341
 2178SOL    HW2 6558   2.569   3.426   1.239
 2179SOL     OW 6559   3.214   1.914   0.168
 2179SOL    HW1 6560   3.249   1.873   0.084
 2179SOL    HW2 6561   3.124   1.876   0.188
 2180SOL     OW 6562   3.162   2.315   0.691
 2180SOL    HW1 6563   3.103   2.395   0.695
 2180SOL    HW2 6564   3.177   2.280   0.784
 2181SOL     OW 6565   3.455   2.083   0.882
 2181SOL    HW1 6566   3.371   2.082   0.936
 2181SOL    HW2 6567   3.457   2.166   0.826
 2182SOL     OW 6568   1.901   2.939   0.300
 2182SOL    HW1 6569   2.000   2.928   0.291
 2182SOL    HW2 6570   1.861   2.853   0.332
 2183SOL     OW 6571   2.737   3.508   0.337
 2183SOL    HW1 6572   2.660   3.473   0.283
 2183SOL    HW2 6573   2.705   3.579   0.399
 2184SOL     OW 6574   2.092   2.490   1.975
 2184SOL    HW1 6575   1.999   2.488   2.012
 2184SOL    HW2 6576   2.093   2.451   1.883
 2185SOL     OW 6577   2.087   2.137   2.858
 2185SOL    HW1 6578   2.122   2.120   2.950
 2185SOL    HW2 6579   1.999   2.092   2.846
 2186SOL     OW 6580   1.881   2.230   2.509
 2186SOL    HW1 6581   1.799   2.273   2.548
 2186SOL    HW2 6582   1.853   2.157   2.446
 2187SOL     OW 6583   2.431   3.137   3.027
 2187SOL    HW1 6584   2.338   3.130   2.990
 2187SOL    HW2 6585   2.442   3.226   3.071
 2188SOL     OW 6586   3.417   3.373   2.565
 2188SOL    HW1 6587   3.360   3.357   2.646
 2188SOL    HW2 6588   3.358   3.383   2.485
 2189SOL     OW 6589   2.997   2.565   2.579
 2189SOL    HW1 6590   3.054   2.643   2.554
 2189SOL    HW2 6591   2.937   2.591   2.655
 2190SOL     OW 6592   3.617   2.469   2.093
 2190SOL    HW1 6593   3.605   2.456   1.994
 2190SOL    HW2 6594   3.587   2.388   2.142
 2191SOL     OW 6595   2.630   3.006   2.885
 2191SOL    HW1 6596   2.552   3.023   2.945
 2191SOL    HW2 6597   2.664   3.093   2.849
 2192SOL     OW 6598   2.712   2.660   3.685
 2192SOL    HW1 6599   2.708   2.736   3.750
 2192SOL    HW2 6600   2.734   2.696   3.594
 2193SOL     OW 6601   2.548   3.023   3.665
 2193SOL    HW1 6602   2.608   3.102   3.679
 2193SOL    HW2 6603   2.462   3.054   3.624
 2194SOL     OW 6604   2.197   3.297   2.923
 2194SOL    HW1 6605   2.119   3.266   2.870
 2194SOL    HW2 6606   2.255   3.355   2.866
 2195SOL     OW 6607   3.322   3.367   3.201
 2195SOL    HW1 6608   3.346   3.461   3.227
 2195SOL    HW2 6609   3.306   3.313   3.283
 2196SOL     OW 6610   2.300   2.254   3.361
 2196SOL    HW1 6611   2.382   2.198   3.370
 2196SOL    HW2 6612   2.219   2.196   3.365
 2197SOL     OW 6613   3.465   2.309   2.599
 2197SOL    HW1 6614   3.391   2.355   2.549
 2197SOL    HW2 6615   3.516   2.377   2.652
 2198SOL     OW 6616   2.093   3.575   2.345
 2198SOL    HW1 6617   2.127   3.652   2.399
 2198SOL    HW2 6618   2.137   3.575   2.255
 2199SOL     OW 6619   2.989   3.203   3.552
 2199SOL    HW1 6620   3.036   3.203   3.640
 2199SOL    HW2 6621   2.941   3.116   3.541
 2200SOL     OW 6622   2.092   3.296   2.400
 2200SOL    HW1 6623   2.066   3.392   2.400
 2200SOL    HW2 6624   2.021   3.242   2.445
 2201SOL     OW 6625   2.102   2.953   2.748
 2201SOL    HW1 6626   2.116   2.869   2.800
 2201SOL    HW2 6627   2.047   3.017   2.803
 2202SOL     OW 6628   2.482   3.648   3.301
 2202SOL    HW1 6629   2.390   3.631   3.336
 2202SOL    HW2 6630   2.510   3.740   3.327
 2203SOL     OW 6631   2.468   2.826   1.985
 2203SOL    HW1 6632   2.475   2.910   1.931
 2203SOL    HW2 6633   2.514   2.839   2.073
 2204SOL     OW 6634   3.456   1.976   3.342
 2204SOL    HW1 6635   3.438   2.043   3.270
 2204SOL    HW2 6636   3.453   2.022   3.431
 2205SOL     OW 6637   1.984   2.505   2.425
 2205SOL    HW1 6638   1.939   2.417   2.442
 2205SOL    HW2 6639   1.983   2.559   2.509
 2206SOL     OW 6640   3.704   3.629   2.221
 2206SOL    HW1 6641   3.758   3.600   2.301
 2206SOL    HW2 6642   3.734   3.719   2.192
 2207SOL     OW 6643   1.889   3.458   1.979
 2207SOL    HW1 6644   1.870   3.362   2.000
 2207SOL    HW2 6645   1.856   3.516   2.054
 2208SOL     OW 6646   3.551   2.784   2.474
 2208SOL    HW1 6647   3.646   2.755   2.482
 2208SOL    HW2 6648   3.543   2.849   2.399
 2209SOL     OW 6649   3.503   2.970   2.294
 2209SOL    HW1 6650   3.589   2.972   2.242
 2209SOL    HW2 6651   3.517   3.017   2.382
 2210SOL     OW 6652   1.975   2.599   3.459
 2210SOL    HW1 6653   2.063   2.586   3.504
 2210SOL    HW2 6654   1.962   2.696   3.437
 2211SOL     OW 6655   2.475   3.227   2.588
 2211SOL    HW1 6656   2.426   3.140   2.597
 2211SOL    HW2 6657   2.452   3.270   2.501
 2212SOL     OW 6658   3.155   3.090   3.285
 2212SOL    HW1 6659   3.192   3.017   3.227
 2212SOL    HW2 6660   3.207   3.095   3.370
 2213SOL     OW 6661   2.671   1.866   2.364
 2213SOL    HW1 6662   2.711   1.957   2.355
 2213SOL    HW2 6663   2.571   1.874   2.370
 2214SOL     OW 6664   2.059   2.838   3.126
 2214SOL    HW1 6665   2.148   2.793   3.112
 2214SOL    HW2 6666   1.986   2.773   3.107
 2215SOL     OW 6667   3.387   2.861   2.052
 2215SOL    HW1 6668   3.324   2.785   2.065
 2215SOL    HW2 6669   3.435   2.879   2.138
 2216SOL     OW 6670   3.049   3.654   3.478
 2216SOL    HW1 6671   3.073   3.714   3.402
 2216SOL    HW2 6672   3.056   3.559   3.448
 2217SOL     OW 6673   2.179   2.113   3.663
 2217SOL    HW1 6674   2.250   2.184   3.669
 2217SOL    HW2 6675   2.091   2.152   3.691
 2218SOL     OW 6676   3.328   3.279   2.815
 2218SOL    HW1 6677   3.269   3.285   2.895
 2218SOL    HW2 6678   3.313   3.191   2.769
 2219SOL     OW 6679   3.529   3.576   2.434
 2219SOL    HW1 6680   3.488   3.553   2.346
 2219SOL    HW2 6681   3.511   3.502   2.499
 2220SOL     OW 6682   2.460   2.591   2.132
 2220SOL    HW1 6683   2.484   2.660   2.064
 2220SOL    HW2 6684   2.382   2.624   2.186
 2221SOL     OW 6685   3.143   2.207   2.806
 2221SOL    HW1 6686   3.057   2.157   2.793
 2221SOL    HW2 6687   3.205   2.153   2.862
 2222SOL     OW 6688   3.438   3.524   2.169
 2222SOL    HW1 6689   3.527   3.570   2.172
 2222SOL    HW2 6690   3.417   3.500   2.074
 2223SOL     OW 6691   2.669   2.467   3.327
 2223SOL    HW1 6692   2.622   2.464   3.416
 2223SOL    HW2 6693   2.618   2.412   3.261
 2224SOL     OW 6694   3.256   2.331   3.536
 2224SOL    HW1 6695   3.236   2.374   3.624
 2224SOL    HW2 6696   3.334   2.269   3.545
 2225SOL     OW 6697   2.835   2.752   3.434
 2225SOL    HW1 6698   2.881   2.668   3.405
 2225SOL    HW2 6699   2.779   2.786   3.359
 2226SOL     OW 6700   2.853   2.272   3.104
 2226SOL    HW1 6701   2.776   2.306   3.158
 2226SOL    HW2 6702   2.819   2.221   3.025
 2227SOL     OW 6703   2.903   2.563   2.291
 2227SOL    HW1 6704   2.929   2.559   2.387
 2227SOL    HW2 6705   2.818   2.512   2.277
 2228SOL     OW 6706   1.938   2.673   2.651
 2228SOL    HW1 6707   2.037   2.661   2.660
 2228SOL    HW2 6708   1.914   2.768   2.672
 2229SOL     OW 6709   1.992   3.683   3.433
 2229SOL    HW1 6710   1.982   3.668   3.532
 2229SOL    HW2 6711   1.906   3.719   3.397
 2230SOL     OW 6712   2.727   2.210   2.057
 2230SOL    HW1 6713   2.786   2.273   2.008
 2230SOL    HW2 6714   2.746   2.116   2.028
 2231SOL     OW 6715   3.581   2.447   3.693
 2231SOL    HW1 6716   3.555   2.536   3.657
 2231SOL    HW2 6717   3.579   2.379   3.620
 2232SOL     OW 6718   3.224   3.006   2.407
 2232SOL    HW1 6719   3.307   2.977   2.359
 2232SOL    HW2 6720   3.175   3.073   2.351
 2233SOL     OW 6721   2.412   2.058   2.747
 2233SOL    HW1 6722   2.407   2.053   2.847
 2233SOL    HW2 6723   2.414   2.154   2.718
 2234SOL     OW 6724   2.870   3.318   2.339
 2234SOL    HW1 6725   2.824   3.390   2.287
 2234SOL    HW2 6726   2.866   3.338   2.437
 2235SOL     OW 6727   2.213   3.663   2.715
 2235SOL    HW1 6728   2.263   3.577   2.721
 2235SOL    HW2 6729   2.278   3.740   2.712
 2236SOL     OW 6730   3.657   2.928   2.735
 2236SOL    HW1 6731   3.595   2.913   2.659
 2236SOL    HW2 6732   3.605   2.939   2.820
 2237SOL     OW 6733   3.089   3.412   3.368
 2237SOL    HW1 6734   3.095   3.335   3.432
 2237SOL    HW2 6735   3.037   3.386   3.288
 2238SOL     OW 6736   2.183   2.805   2.104
 2238SOL    HW1 6737   2.265   2.844   2.062
 2238SOL    HW2 6738   2.156   2.723   2.055
 2239SOL     OW 6739   3.320   2.597   2.590
 2239SOL    HW1 6740   3.315   2.532   2.665
 2239SOL    HW2 6741   3.400   2.656   2.603
 2240SOL     OW 6742   2.323   3.128   3.589
 2240SOL    HW1 6743   2.273   3.129   3.503
 2240SOL    HW2 6744   2.260   3.110   3.665
 2241SOL     OW 6745   2.973   3.638   2.099
 2241SOL    HW1 6746   2.913   3.576   2.149
 2241SOL    HW2 6747   3.004   3.594   2.014
 2242SOL     OW 6748   2.064   2.147   3.360
 2242SOL    HW1 6749   1.984   2.207   3.347
 2242SOL    HW2 6750   2.054   2.098   3.446
 2243SOL     OW 6751   3.494   3.239   1.943
 2243SOL    HW1 6752   3.462   3.333   1.933
 2243SOL    HW2 6753   3.418   3.176   1.931
 2244SOL     OW 6754   2.326   3.605   2.185
 2244SOL    HW1 6755   2.359   3.644   2.271
 2244SOL    HW2 6756   2.402   3.598   2.120
 2245SOL     OW 6757   3.262   1.969   2.288
 2245SOL    HW1 6758   3.238   1.932   2.198
 2245SOL    HW2 6759   3.361   1.985   2.292
 2246SOL     OW 6760   2.111   3.647   3.103
 2246SOL    HW1 6761   2.168   3.582   3.153
 2246SOL    HW2 6762   2.095   3.614   3.010
 2247SOL     OW 6763   2.802   3.560   2.766
 2247SOL    HW1 6764   2.882   3.503   2.787
 2247SOL    HW2 6765   2.753   3.520   2.689
 2248SOL     OW 6766   3.409   2.084   3.591
 2248SOL    HW1 6767   3.404   2.121   3.683
 2248SOL    HW2 6768   3.337   2.015   3.579
 2249SOL     OW 6769   2.476   1.984   1.979
 2249SOL    HW1 6770   2.574   1.962   1.986
 2249SOL    HW2 6771   2.445   1.967   1.886
 2250SOL     OW 6772   2.643   2.126   3.611
 2250SOL    HW1 6773   2.710   2.065   3.654
 2250SOL    HW2 6774   2.570   2.145   3.676
 2251SOL     OW 6775   2.750   3.376   3.057
 2251SOL    HW1 6776   2.727   3.351   2.963
 2251SOL    HW2 6777   2.811   3.307   3.096
 2252SOL     OW 6778   3.213   2.452   3.295
 2252SOL    HW1 6779   3.241   2.409   3.380
 2252SOL    HW2 6780   3.238   2.548   3.296
 2253SOL     OW 6781   2.665   3.264   2.786
 2253SOL    HW1 6782   2.755   3.278   2.744
 2253SOL    HW2 6783   2.594   3.266   2.715
 2254SOL     OW 6784   2.784   2.365   2.761
 2254SOL    HW1 6785   2.759   2.356   2.665
 2254SOL    HW2 6786   2.832   2.283   2.792
 2255SOL     OW 6787   3.296   3.050   1.903
 2255SOL    HW1 6788   3.328   2.974   1.960
 2255SOL    HW2 6789   3.204   3.077   1.933
 2256SOL     OW 6790   2.159   1.897   2.033
 2256SOL    HW1 6791   2.208   1.981   2.012
 2256SOL    HW2 6792   2.221   1.832   2.078
 2257SOL     OW 6793   2.797   2.098   2.342
 2257SOL    HW1 6794   2.749   2.139   2.264
 2257SOL    HW2 6795   2.896   2.096   2.323
 2258SOL     OW 6796   2.938   2.545   3.326
 2258SOL    HW1 6797   2.858   2.484   3.329
 2258SOL    HW2 6798   3.019   2.492   3.302
 2259SOL     OW 6799   3.089   3.432   2.655
 2259SOL    HW1 6800   3.110   3.506   2.590
 2259SOL    HW2 6801   3.157   3.432   2.728
 2260SOL     OW 6802   2.321   3.014   2.603
 2260SOL    HW1 6803   2.250   2.987   2.668
 2260SOL    HW2 6804   2.295   2.986   2.510
 2261SOL     OW 6805   3.133   3.659   2.453
 2261SOL    HW1 6806   3.177   3.723   2.389
 2261SOL    HW2 6807   3.083   3.711   2.523
 2262SOL     OW 6808   2.894   2.411   1.878
 2262SOL    HW1 6809   2.853   2.493   1.839
 2262SOL    HW2 6810   2.958   2.437   1.951
 2263SOL     OW 6811   1.940   2.418   3.248
 2263SOL    HW1 6812   2.032   2.417   3.207
 2263SOL    HW2 6813   1.934   2.492   3.315
 2264SOL     OW 6814   2.423   2.084   3.009
 2264SOL    HW1 6815   2.461   2.000   3.046
 2264SOL    HW2 6816   2.335   2.103   3.053
 2265SOL     OW 6817   2.879   1.901   2.615
 2265SOL    HW1 6818   2.807   1.906   2.546
 2265SOL    HW2 6819   2.855   1.832   2.684
 2266SOL     OW 6820   3.291   3.035   2.729
 2266SOL    HW1 6821   3.236   2.951   2.722
 2266SOL    HW2 6822   3.317   3.064   2.637
 2267SOL     OW 6823   3.328   2.452   2.854
 2267SOL    HW1 6824   3.298   2.357   2.861
 2267SOL    HW2 6825   3.401   2.468   2.920
 2268SOL     OW 6826   3.719   2.695   2.239
 2268SOL    HW1 6827   3.761   2.631   2.303
 2268SOL    HW2 6828   3.681   2.644   2.161
 2269SOL     OW 6829   2.350   3.247   2.036
 2269SOL    HW1 6830   2.263   3.232   2.083
 2269SOL    HW2 6831   2.333   3.273   1.941
 2270SOL     OW 6832   3.526   3.142   2.519
 2270SOL    HW1 6833   3.625   3.150   2.533
 2270SOL    HW2 6834   3.481   3.226   2.550
 2271SOL     OW 6835   3.252   2.437   1.940
 2271SOL    HW1 6836   3.198   2.416   2.021
 2271SOL    HW2 6837   3.343   2.396   1.949
 2272SOL     OW 6838   3.616   3.085   3.450
 2272SOL    HW1 6839   3.707   3.046   3.437
 2272SOL    HW2 6840   3.624   3.181   3.474
 2273SOL     OW 6841   2.926   3.209   3.202
 2273SOL    HW1 6842   2.846   3.186   3.257
 2273SOL    HW2 6843   3.009   3.183   3.251
 2274SOL     OW 6844   3.454   3.491   3.487
 2274SOL    HW1 6845   3.481   3.525   3.397
 2274SOL    HW2 6846   3.533   3.453   3.533
 2275SOL     OW 6847   2.973   3.057   2.962
 2275SOL    HW1 6848   2.933   3.101   3.043
 2275SOL    HW2 6849   2.932   3.094   2.879
 2276SOL     OW 6850   3.500   2.961   2.941
 2276SOL    HW1 6851   3.505   3.042   3.000
 2276SOL    HW2 6852   3.414   2.963   2.890
 2277SOL     OW 6853   2.777   1.951   3.264
 2277SOL    HW1 6854   2.802   1.931   3.169
 2277SOL    HW2 6855   2.849   2.007   3.306
 2278SOL     OW 6856   2.842   2.978   3.581
 2278SOL    HW1 6857   2.743   2.984   3.591
 2278SOL    HW2 6858   2.865   2.898   3.525
 2279SOL     OW 6859   2.567   2.912   2.230
 2279SOL    HW1 6860   2.553   2.919   2.329
 2279SOL    HW2 6861   2.651   2.861   2.212
 2280SOL     OW 6862   2.272   2.675   3.113
 2280SOL    HW1 6863   2.358   2.687   3.163
 2280SOL    HW2 6864   2.230   2.588   3.140
 2281SOL     OW 6865   3.136   2.248   3.124
 2281SOL    HW1 6866   3.157   2.322   3.188
 2281SOL    HW2 6867   3.047   2.265   3.081
 2282SOL     OW 6868   1.926   3.426   3.193
 2282SOL    HW1 6869   1.880   3.508   3.159
 2282SOL    HW2 6870   2.024   3.445   3.202
 2283SOL     OW 6871   2.229   2.962   2.363
 2283SOL    HW1 6872   2.222   3.045   2.307
 2283SOL    HW2 6873   2.233   2.882   2.303
 2284SOL     OW 6874   3.114   3.210   2.250
 2284SOL    HW1 6875   3.164   3.287   2.290
 2284SOL    HW2 6876   3.019   3.212   2.282
 2285SOL     OW 6877   3.134   3.307   3.004
 2285SOL    HW1 6878   3.181   3.320   3.091
 2285SOL    HW2 6879   3.068   3.233   3.013
 2286SOL     OW 6880   3.444   2.501   2.334
 2286SOL    HW1 6881   3.413   2.562   2.407
 2286SOL    HW2 6882   3.494   2.553   2.265
 2287SOL     OW 6883   2.216   3.372   3.191
 2287SOL    HW1 6884   2.195   3.328   3.104
 2287SOL    HW2 6885   2.313   3.398   3.194
 2288SOL     OW 6886   2.264   2.613   3.460
 2288SOL    HW1 6887   2.332   2.668   3.413
 2288SOL    HW2 6888   2.304   2.525   3.487
 2289SOL     OW 6889   3.449   2.641   3.532
 2289SOL    HW1 6890   3.357   2.679   3.527
 2289SOL    HW2 6891   3.509   2.688   3.467
 2290SOL     OW 6892   2.875   1.967   3.632
 2290SOL    HW1 6893   2.881   2.052   3.580
 2290SOL    HW2 6894   2.907   1.891   3.575
 2291SOL     OW 6895   2.366   1.912   3.602
 2291SOL    HW1 6896   2.324   1.855   3.532
 2291SOL    HW2 6897   2.300   1.981   3.634
 2292SOL     OW 6898   2.435   2.732   2.891
 2292SOL    HW1 6899   2.479   2.821   2.882
 2292SOL    HW2 6900   2.372   2.732   2.968
 2293SOL     OW 6901   3.222   2.724   2.907
 2293SOL    HW1 6902   3.147   2.724   2.841
 2293SOL    HW2 6903   3.259   2.632   2.916
 2294SOL     OW 6904   3.071   2.387   2.137
 2294SOL    HW1 6905   3.084   2.303   2.191
 2294SOL    HW2 6906   3.042   2.461   2.197
 2295SOL     OW 6907   2.169   2.075   3.093
 2295SOL    HW1 6908   2.146   2.112   3.183
 2295SOL    HW2 6909   2.139   1.980   3.087
 2296SOL     OW 6910   1.899   3.172   3.144
 2296SOL    HW1 6911   1.952   3.123   3.212
 2296SOL    HW2 6912   1.921   3.270   3.149
 2297SOL     OW 6913   2.594   2.496   2.926
 2297SOL    HW1 6914   2.653   2.470   2.850
 2297SOL    HW2 6915   2.566   2.592   2.915
 2298SOL     OW 6916   3.590   2.797   3.716
 2298SOL    HW1 6917   3.544   2.790   3.627
 2298SOL    HW2 6918   3.528   2.841   3.782
 2299SOL     OW 6919   2.169   1.925   2.480
 2299SOL    HW1 6920   2.158   2.019   2.513
 2299SOL    HW2 6921   2.164   1.862   2.557
 2300SOL     OW 6922   3.484   2.229   2.236
 2300SOL    HW1 6923   3.486   2.153   2.300
 2300SOL    HW2 6924   3.436   2.306   2.276
 2301SOL     OW 6925   2.885   2.628   2.828
 2301SOL    HW1 6926   2.900   2.649   2.924
 2301SOL    HW2 6927   2.855   2.533   2.819
 2302SOL     OW 6928   2.842   3.435   3.562
 2302SOL    HW1 6929   2.822   3.479   3.474
 2302SOL    HW2 6930   2.881   3.344   3.546
 2303SOL     OW 6931   3.721   3.380   3.467
 2303SOL    HW1 6932   3.735   3.407   3.372
 2303SOL    HW2 6933   3.804   3.402   3.520
 2304SOL     OW 6934   2.212   2.760   3.666
 2304SOL    HW1 6935   2.288   2.804   3.714
 2304SOL    HW2 6936   2.247   2.713   3.584
 2305SOL     OW 6937   3.402   2.136   1.987
 2305SOL    HW1 6938   3.341   2.061   2.010
 2305SOL    HW2 6939   3.424   2.188   2.070
 2306SOL     OW 6940   3.165   2.700   1.904
 2306SOL    HW1 6941   3.199   2.607   1.919
 2306SOL    HW2 6942   3.183   2.727   1.809
 2307SOL     OW 6943   2.930   3.195   2.711
 2307SOL    HW1 6944   2.937   3.111   2.656
 2307SOL    HW2 6945   2.992   3.264   2.675
 2308SOL     OW 6946   2.181   2.672   2.811
 2308SOL    HW1 6947   2.274   2.708   2.816
 2308SOL    HW2 6948   2.175   2.587   2.863
 2309SOL     OW 6949   3.000   2.242   3.540
 2309SOL    HW1 6950   2.955   2.305   3.604
 2309SOL    HW2 6951   3.093   2.273   3.523
 2310SOL     OW 6952   3.022   2.069   3.339
 2310SOL    HW1 6953   3.022   2.133   3.416
 2310SOL    HW2 6954   3.050   2.117   3.256
 2311SOL     OW 6955   1.870   3.188   2.062
 2311SOL    HW1 6956   1.777   3.209   2.031
 2311SOL    HW2 6957   1.880   3.089   2.075
 2312SOL     OW 6958   1.950   3.663   2.789
 2312SOL    HW1 6959   1.908   3.577   2.762
 2312SOL    HW2 6960   2.044   3.666   2.755
 2313SOL     OW 6961   2.366   3.430   2.772
 2313SOL    HW1 6962   2.432   3.504   2.781
 2313SOL    HW2 6963   2.410   3.351   2.730
 2314SOL     OW 6964   2.864   2.658   3.100
 2314SOL    HW1 6965   2.905   2.626   3.186
 2314SOL    HW2 6966   2.768   2.631   3.097
 2315SOL     OW 6967   1.902   2.406   2.976
 2315SOL    HW1 6968   1.987   2.373   2.935
 2315SOL    HW2 6969   1.915   2.421   3.074
 2316SOL     OW 6970   2.051   2.382   3.584
 2316SOL    HW1 6971   2.110   2.342   3.514
 2316SOL    HW2 6972   1.993   2.453   3.543
 2317SOL     OW 6973   3.231   2.812   3.522
 2317SOL    HW1 6974   3.270   2.901   3.542
 2317SOL    HW2 6975   3.241   2.792   3.425
 2318SOL     OW 6976   2.677   2.434   2.187
 2318SOL    HW1 6977   2.684   2.345   2.141
 2318SOL    HW2 6978   2.583   2.468   2.179
 2319SOL     OW 6979   3.519   2.466   3.068
 2319SOL    HW1 6980   3.481   2.397   3.130
 2319SOL    HW2 6981   3.601   2.430   3.024
 2320SOL     OW 6982   2.114   3.426   3.606
 2320SOL    HW1 6983   2.084   3.483   3.682
 2320SOL    HW2 6984   2.107   3.329   3.632
 2321SOL     OW 6985   2.533   2.326   3.131
 2321SOL    HW1 6986   2.499   2.237   3.101
 2321SOL    HW2 6987   2.559   2.380   3.051
 2322SOL     OW 6988   2.792   3.540   3.327
 2322SOL    HW1 6989   2.768   3.522   3.232
 2322SOL    HW2 6990   2.822   3.634   3.337
 2323SOL     OW 6991   2.021   2.999   3.328
 2323SOL    HW1 6992   2.043   2.938   3.404
 2323SOL    HW2 6993   2.031   2.950   3.242
 2324SOL     OW 6994   3.209   2.921   3.096
 2324SOL    HW1 6995   3.233   2.858   3.022
 2324SOL    HW2 6996   3.119   2.961   3.078
 2325SOL     OW 6997   3.164   2.717   2.171
 2325SOL    HW1 6998   3.078   2.686   2.213
 2325SOL    HW2 6999   3.160   2.703   2.072
 2326SOL     OW 7000   3.621   3.609   3.016
 2326SOL    HW1 7001   3.682   3.639   2.943
 2326SOL    HW2 7002   3.583   3.520   2.994
 2327SOL     OW 7003   3.114   3.593   2.990
 2327SOL    HW1 7004   3.198   3.598   2.936
 2327SOL    HW2 7005   3.091   3.497   3.008
 2328SOL     OW 7006   1.945   3.120   2.884
 2328SOL    HW1 7007   1.940   3.119   2.984
 2328SOL    HW2 7008   1.862   3.079   2.846
 2329SOL     OW 7009   2.550   3.524   3.578
 2329SOL    HW1 7010   2.494   3.605   3.587
 2329SOL    HW2 7011   2.602   3.528   3.492
 2330SOL     OW 7012   3.588   1.997   2.385
 2330SOL    HW1 7013   3.661   1.980   2.318
 2330SOL    HW2 7014   3.557   1.910   2.423
 2331SOL     OW 7015   3.250   3.435   2.339
 2331SOL    HW1 7016   3.317   3.447   2.265
 2331SOL    HW2 7017   3.210   3.524   2.362
 2332SOL     OW 7018   1.992   3.656   3.713
 2332SOL    HW1 7019   1.951   3.582   3.766
 2332SOL    HW2 7020   2.056   3.707   3.771
 2333SOL     OW 7021   3.142   2.789   2.534
 2333SOL    HW1 7022   3.202   2.708   2.536
 2333SOL    HW2 7023   3.182   2.858   2.474
 2334SOL     OW 7024   2.692   3.135   3.284
 2334SOL    HW1 7025   2.687   3.168   3.379
 2334SOL    HW2 7026   2.606   3.154   3.238
 2335SOL     OW 7027   2.534   3.478   2.016
 2335SOL    HW1 7028   2.543   3.488   1.917
 2335SOL    HW2 7029   2.494   3.389   2.037
 2336SOL     OW 7030   3.512   3.582   3.256
 2336SOL    HW1 7031   3.565   3.592   3.172
 2336SOL    HW2 7032   3.485   3.672   3.290
 2337SOL     OW 7033   3.703   2.037   2.825
 2337SOL    HW1 7034   3.742   1.952   2.789
 2337SOL    HW2 7035   3.605   2.039   2.806
 2338SOL     OW 7036   2.125   2.188   2.582
 2338SOL    HW1 7037   2.046   2.239   2.548
 2338SOL    HW2 7038   2.116   2.173   2.680
 2339SOL     OW 7039   3.056   3.474   1.893
 2339SOL    HW1 7040   3.062   3.381   1.930
 2339SOL    HW2 7041   2.997   3.474   1.813
 2340SOL     OW 7042   2.684   2.864   3.234
 2340SOL    HW1 7043   2.724   2.863   3.142
 2340SOL    HW2 7044   2.694   2.956   3.274
 2341SOL     OW 7045   2.778   2.772   2.153
 2341SOL    HW1 7046   2.841   2.810   2.085
 2341SOL    HW2 7047   2.818   2.689   2.192
 2342SOL     OW 7048   3.366   3.469   1.906
 2342SOL    HW1 7049   3.274   3.506   1.913
 2342SOL    HW2 7050   3.404   3.489   1.816
 2343SOL     OW 7051   2.234   3.150   3.352
 2343SOL    HW1 7052   2.221   3.243   3.318
 2343SOL    HW2 7053   2.150   3.098   3.339
 2344SOL     OW 7054   3.476   3.154   3.151
 2344SOL    HW1 7055   3.536   3.157   3.231
 2344SOL    HW2 7056   3.401   3.218   3.164
 2345SOL     OW 7057   2.901   2.960   2.558
 2345SOL    HW1 7058   2.831   2.913   2.612
 2345SOL    HW2 7059   2.960   2.892   2.515
 2346SOL     OW 7060   2.876   2.098   2.833
 2346SOL    HW1 7061   2.868   2.062   2.740
 2346SOL    HW2 7062   2.874   2.022   2.898
 2347SOL     OW 7063   2.452   3.349   2.353
 2347SOL    HW1 7064   2.494   3.291   2.283
 2347SOL    HW2 7065   2.408   3.428   2.309
 2348SOL     OW 7066   3.571   2.247   3.243
 2348SOL    HW1 7067   3.644   2.316   3.247
 2348SOL    HW2 7068   3.599   2.172   3.184
 2349SOL     OW 7069   2.117   3.210   2.152
 2349SOL    HW1 7070   2.021   3.211   2.125
 2349SOL    HW2 7071   2.129   3.263   2.236
 2350SOL     OW 7072   1.967   2.875   3.588
 2350SOL    HW1 7073   1.890   2.842   3.642
 2350SOL    HW2 7074   2.052   2.845   3.630
 2351SOL     OW 7075   2.534   2.065   3.351
 2351SOL    HW1 7076   2.624   2.049   3.311
 2351SOL    HW2 7077   2.542   2.070   3.450
 2352SOL     OW 7078   1.937   2.207   1.895
 2352SOL    HW1 7079   1.845   2.179   1.866
 2352SOL    HW2 7080   1.968   2.284   1.839
 2353SOL     OW 7081   3.302   2.718   3.260
 2353SOL    HW1 7082   3.245   2.770   3.197
 2353SOL    HW2 7083   3.398   2.730   3.236
 2354SOL     OW 7084   1.934   2.028   2.180
 2354SOL    HW1 7085   1.917   2.111   2.126
 2354SOL    HW2 7086   2.024   1.991   2.158
 2355SOL     OW 7087   3.045   3.197   1.981
 2355SOL    HW1 7088   2.946   3.186   1.983
 2355SOL    HW2 7089   3.079   3.212   2.074
 2356SOL     OW 7090   2.475   2.704   3.293
 2356SOL    HW1 7091   2.531   2.785   3.276
 2356SOL    HW2 7092   2.534   2.624   3.296
 2357SOL     OW 7093   3.355   3.629   2.821
 2357SOL    HW1 7094   3.388   3.693   2.752
 2357SOL    HW2 7095   3.421   3.623   2.896
 2358SOL     OW 7096   2.578   2.427   3.570
 2358SOL    HW1 7097   2.597   2.492   3.644
 2358SOL    HW2 7098   2.638   2.347   3.579
 2359SOL     OW 7099   3.312   3.082   3.495
 2359SOL    HW1 7100   3.303   3.072   3.594
 2359SOL    HW2 7101   3.408   3.075   3.469
 2360SOL     OW 7102   2.252   3.603   3.422
 2360SOL    HW1 7103   2.161   3.644   3.420
 2360SOL    HW2 7104   2.245   3.509   3.454
 2361SOL     OW 7105   3.536   2.745   3.116
 2361SOL    HW1 7106   3.509   2.656   3.079
 2361SOL    HW2 7107   3.537   2.813   3.043
 2362SOL     OW 7108   3.087   2.187   2.311
 2362SOL    HW1 7109   3.152   2.113   2.300
 2362SOL    HW2 7110   3.107   2.237   2.395
 2363SOL     OW 7111   3.639   2.204   3.504
 2363SOL    HW1 7112   3.622   2.235   3.410
 2363SOL    HW2 7113   3.555   2.167   3.542
 2364SOL     OW 7114   3.592   2.796   3.379
 2364SOL    HW1 7115   3.630   2.887   3.394
 2364SOL    HW2 7116   3.584   2.779   3.280
 2365SOL     OW 7117   2.721   3.236   1.878
 2365SOL    HW1 7118   2.675   3.251   1.966
 2365SOL    HW2 7119   2.765   3.321   1.848
 2366SOL     OW 7120   2.523   3.652   2.815
 2366SOL    HW1 7121   2.477   3.740   2.802
 2366SOL    HW2 7122   2.622   3.664   2.808
 2367SOL     OW 7123   2.721   2.818   2.723
 2367SOL    HW1 7124   2.775   2.749   2.771
 2367SOL    HW2 7125   2.689   2.887   2.789
 2368SOL     OW 7126   2.945   2.846   1.949
 2368SOL    HW1 7127   2.922   2.899   1.867
 2368SOL    HW2 7128   3.026   2.790   1.930
 2369SOL     OW 7129   3.723   3.431   2.713
 2369SOL    HW1 7130   3.652   3.419   2.643
 2369SOL    HW2 7131   3.724   3.352   2.773
 2370SOL     OW 7132   2.083   3.176   3.706
 2370SOL    HW1 7133   2.018   3.103   3.685
 2370SOL    HW2 7134   2.087   3.190   3.804
 2371SOL     OW 7135   1.941   3.102   2.515
 2371SOL    HW1 7136   1.940   3.055   2.603
 2371SOL    HW2 7137   2.023   3.074   2.464
 2372SOL     OW 7138   2.534   3.253   3.486
 2372SOL    HW1 7139   2.456   3.203   3.524
 2372SOL    HW2 7140   2.531   3.348   3.517
 2373SOL     OW 7141   3.686   2.054   3.089
 2373SOL    HW1 7142   3.682   1.964   3.133
 2373SOL    HW2 7143   3.689   2.043   2.990
 2374SOL     OW 7144   3.567   3.349   2.966
 2374SOL    HW1 7145   3.474   3.324   2.939
 2374SOL    HW2 7146   3.593   3.299   3.048
 2375SOL     OW 7147   2.179   2.409   3.142
 2375SOL    HW1 7148   2.217   2.350   3.214
 2375SOL    HW2 7149   2.219   2.383   3.054
 2376SOL     OW 7150   2.674   3.448   2.549
 2376SOL    HW1 7151   2.706   3.458   2.455
 2376SOL    HW2 7152   2.595   3.386   2.551
 2377SOL     OW 7153   3.286   2.076   2.974
 2377SOL    HW1 7154   3.338   2.011   3.029
 2377SOL    HW2 7155   3.237   2.139   3.035
 2378SOL     OW 7156   2.863   1.896   3.016
 2378SOL    HW1 7157   2.800   1.824   2.985
 2378SOL    HW2 7158   2.956   1.860   3.016
 2379SOL     OW 7159   2.632   3.192   2.163
 2379SOL    HW1 7160   2.586   3.105   2.180
 2379SOL    HW2 7161   2.723   3.189   2.204
 2380SOL     OW 7162   2.480   3.429   3.146
 2380SOL    HW1 7163   2.475   3.511   3.203
 2380SOL    HW2 7164   2.569   3.426   3.101
 2381SOL     OW 7165   3.214   1.914   2.030
 2381SOL    HW1 7166   3.249   1.873   1.946
 2381SOL    HW2 7167   3.124   1.876   2.050
 2382SOL     OW 7168   3.162   2.315   2.553
 2382SOL    HW1 7169   3.103   2.395   2.557
 2382SOL    HW2 7170   3.177   2.280   2.646
 2383SOL     OW 7171   3.455   2.083   2.744
 2383SOL    HW1 7172   3.371   2.082   2.798
 2383SOL    HW2 7173   3.457   2.166   2.688
 2384SOL     OW 7174   1.901   2.939   2.162
 2384SOL    HW1 7175   2.000   2.928   2.153
 2384SOL    HW2 7176   1.861   2.853   2.194
 2385SOL     OW 7177   2.737   3.508   2.199
 2385SOL    HW1 7178   2.660   3.473   2.145
 2385SOL    HW2 7179   2.705   3.579   2.261
 2386SOL     OW 7180   2.092   2.490   3.837
 2386SOL    HW1 7181   1.999   2.488   3.874
 2386SOL    HW2 7182   2.093   2.451   3.745
 2387SOL     OW 7183   2.087   2.137   4.720
 2387SOL    HW1 7184   2.122   2.120   4.812
 2387SOL    HW2 7185   1.999   2.092   4.708
 2388SOL     OW 7186   1.881   2.230   4.371
 2388SOL    HW1 7187   1.799   2.273   4.410
 2388SOL    HW2 7188   1.853   2.157   4.308
 2389SOL     OW 7189   3.417   3.373   4.427
 2389SOL    HW1 7190   3.360   3.357   4.508
 2389SOL    HW2 7191   3.358   3.383   4.347
 2390SOL     OW 7192   2.997   2.565   4.441
 2390SOL    HW1 7193   3.054   2.643   4.416
 2390SOL    HW2 7194   2.937   2.591   4.517
 2391SOL     OW 7195   3.617   2.469   3.955
 2391SOL    HW1 7196   3.605   2.456   3.856
 2391SOL    HW2 7197   3.587   2.388   4.004
 2392SOL     OW 7198   2.630   3.006   4.747
 2392SOL    HW1 7199   2.552   3.023   4.807
 2392SOL    HW2 7200   2.664   3.093   4.711
 2393SOL     OW 7201   2.547   2.874   4.389
 2393SOL    HW1 7202   2.616   2.858   4.459
 2393SOL    HW2 7203   2.474   2.931   4.427
 2394SOL     OW 7204   2.197   3.297   4.785
 2394SOL    HW1 7205   2.119   3.266   4.732
 2394SOL    HW2 7206   2.255   3.355   4.728
 2395SOL     OW 7207   3.465   2.309   4.461
 2395SOL    HW1 7208   3.391   2.355   4.411
 2395SOL    HW2 7209   3.516   2.377   4.514
 2396SOL     OW 7210   2.093   3.575   4.207
 2396SOL    HW1 7211   2.127   3.652   4.261
 2396SOL    HW2 7212   2.137   3.575   4.117
 2397SOL     OW 7213   2.092   3.296   4.262
 2397SOL    HW1 7214   2.066   3.392   4.262
 2397SOL    HW2 7215   2.021   3.242   4.307
 2398SOL     OW 7216   2.102   2.953   4.610
 2398SOL    HW1 7217   2.116   2.869   4.662
 2398SOL    HW2 7218   2.047   3.017   4.665
 2399SOL     OW 7219   2.468   2.826   3.847
 2399SOL    HW1 7220   2.475   2.910   3.793
 2399SOL    HW2 7221   2.514   2.839   3.935
 2400SOL     OW 7222   1.984   2.505   4.287
 2400SOL    HW1 7223   1.939   2.417   4.304
 2400SOL    HW2 7224   1.983   2.559   4.371
 2401SOL     OW 7225   3.704   3.629   4.083
 2401SOL    HW1 7226   3.758   3.600   4.163
 2401SOL    HW2 7227   3.734   3.719   4.054
 2402SOL     OW 7228   1.889   3.458   3.841
 2402SOL    HW1 7229   1.870   3.362   3.862
 2402SOL    HW2 7230   1.856   3.516   3.916
 2403SOL     OW 7231   3.551   2.784   4.336
 2403SOL    HW1 7232   3.646   2.755   4.344
 2403SOL    HW2 7233   3.543   2.849   4.261
 2404SOL     OW 7234   3.503   2.970   4.156
 2404SOL    HW1 7235   3.589   2.972   4.104
 2404SOL    HW2 7236   3.517   3.017   4.244
 2405SOL     OW 7237   2.475   3.227   4.450
 2405SOL    HW1 7238   2.426   3.140   4.459
 2405SOL    HW2 7239   2.452   3.270   4.363
 2406SOL     OW 7240   2.671   1.866   4.226
 2406SOL    HW1 7241   2.711   1.957   4.217
 2406SOL    HW2 7242   2.571   1.874   4.232
 2407SOL     OW 7243   3.387   2.861   3.914
 2407SOL    HW1 7244   3.324   2.785   3.927
 2407SOL    HW2 7245   3.435   2.879   4.000
 2408SOL     OW 7246   3.328   3.279   4.677
 2408SOL    HW1 7247   3.269   3.285   4.757
 2408SOL    HW2 7248   3.313   3.191   4.631
 2409SOL     OW 7249   3.529   3.576   4.296
 2409SOL    HW1 7250   3.488   3.553   4.208
 2409SOL    HW2 7251   3.511   3.502   4.361
 2410SOL     OW 7252   2.460   2.591   3.994
 2410SOL    HW1 7253   2.484   2.660   3.926
 2410SOL    HW2 7254   2.382   2.624   4.048
 2411SOL     OW 7255   3.143   2.207   4.668
 2411SOL    HW1 7256   3.057   2.157   4.655
 2411SOL    HW2 7257   3.205   2.153   4.724
 2412SOL     OW 7258   3.438   3.524   4.031
 2412SOL    HW1 7259   3.527   3.570   4.034
 2412SOL    HW2 7260   3.417   3.500   3.936
 2413SOL     OW 7261   2.903   2.563   4.153
 2413SOL    HW1 7262   2.929   2.559   4.249
 2413SOL    HW2 7263   2.818   2.512   4.139
 2414SOL     OW 7264   1.938   2.673   4.513
 2414SOL    HW1 7265   2.037   2.661   4.522
 2414SOL    HW2 7266   1.914   2.768   4.534
 2415SOL     OW 7267   2.727   2.210   3.919
 2415SOL    HW1 7268   2.786   2.273   3.870
 2415SOL    HW2 7269   2.746   2.116   3.890
 2416SOL     OW 7270   3.224   3.006   4.269
 2416SOL    HW1 7271   3.307   2.977   4.221
 2416SOL    HW2 7272   3.175   3.073   4.213
 2417SOL     OW 7273   2.412   2.058   4.609
 2417SOL    HW1 7274   2.407   2.053   4.709
 2417SOL    HW2 7275   2.414   2.154   4.580
 2418SOL     OW 7276   2.870   3.318   4.201
 2418SOL    HW1 7277   2.824   3.390   4.149
 2418SOL    HW2 7278   2.866   3.338   4.299
 2419SOL     OW 7279   2.213   3.663   4.577
 2419SOL    HW1 7280   2.263   3.577   4.583
 2419SOL    HW2 7281   2.278   3.740   4.574
 2420SOL     OW 7282   3.657   2.928   4.597
 2420SOL    HW1 7283   3.595   2.913   4.521
 2420SOL    HW2 7284   3.605   2.939   4.682
 2421SOL     OW 7285   2.183   2.805   3.966
 2421SOL    HW1 7286   2.265   2.844   3.924
 2421SOL    HW2 7287   2.156   2.723   3.917
 2422SOL     OW 7288   3.320   2.597   4.452
 2422SOL    HW1 7289   3.315   2.532   4.527
 2422SOL    HW2 7290   3.400   2.656   4.465
 2423SOL     OW 7291   2.973   3.638   3.961
 2423SOL    HW1 7292   2.913   3.576   4.011
 2423SOL    HW2 7293   3.004   3.594   3.876
 2424SOL     OW 7294   3.494   3.239   3.805
 2424SOL    HW1 7295   3.462   3.333   3.795
 2424SOL    HW2 7296   3.418   3.176   3.793
 2425SOL     OW 7297   2.326   3.605   4.047
 2425SOL    HW1 7298   2.359   3.644   4.133
 2425SOL    HW2 7299   2.402   3.598   3.982
 2426SOL     OW 7300   3.262   1.969   4.150
 2426SOL    HW1 7301   3.238   1.932   4.060
 2426SOL    HW2 7302   3.361   1.985   4.154
 2427SOL     OW 7303   2.111   3.647   4.965
 2427SOL    HW1 7304   2.168   3.582   5.015
 2427SOL    HW2 7305   2.095   3.614   4.872
 2428SOL     OW 7306   2.802   3.560   4.628
 2428SOL    HW1 7307   2.882   3.503   4.649
 2428SOL    HW2 7308   2.753   3.520   4.551
 2429SOL     OW 7309   2.244   2.562   4.204
 2429SOL    HW1 7310   2.289   2.472   4.201
 2429SOL    HW2 7311   2.150   2.551   4.237
 2430SOL     OW 7312   2.476   1.984   3.841
 2430SOL    HW1 7313   2.574   1.962   3.848
 2430SOL    HW2 7314   2.445   1.967   3.748
 2431SOL     OW 7315   2.665   3.264   4.648
 2431SOL    HW1 7316   2.755   3.278   4.606
 2431SOL    HW2 7317   2.594   3.266   4.577
 2432SOL     OW 7318   2.784   2.365   4.623
 2432SOL    HW1 7319   2.759   2.356   4.527
 2432SOL    HW2 7320   2.832   2.283   4.654
 2433SOL     OW 7321   2.401   1.926   4.236
 2433SOL    HW1 7322   2.320   1.927   4.294
 2433SOL    HW2 7323   2.404   2.009   4.181
 2434SOL     OW 7324   3.296   3.050   3.765
 2434SOL    HW1 7325   3.328   2.974   3.822
 2434SOL    HW2 7326   3.204   3.077   3.795
 2435SOL     OW 7327   2.159   1.897   3.895
 2435SOL    HW1 7328   2.208   1.981   3.874
 2435SOL    HW2 7329   2.221   1.832   3.940
 2436SOL     OW 7330   2.797   2.098   4.204
 2436SOL    HW1 7331   2.749   2.139   4.126
 2436SOL    HW2 7332   2.896   2.096   4.185
 2437SOL     OW 7333   3.089   3.432   4.517
 2437SOL    HW1 7334   3.110   3.506   4.452
 2437SOL    HW2 7335   3.157   3.432   4.590
 2438SOL     OW 7336   2.321   3.014   4.465
 2438SOL    HW1 7337   2.250   2.987   4.530
 2438SOL    HW2 7338   2.295   2.986   4.372
 2439SOL     OW 7339   3.133   3.659   4.315
 2439SOL    HW1 7340   3.177   3.723   4.251
 2439SOL    HW2 7341   3.083   3.711   4.385
 2440SOL     OW 7342   2.894   2.411   3.740
 2440SOL    HW1 7343   2.853   2.493   3.701
 2440SOL    HW2 7344   2.958   2.437   3.813
 2441SOL     OW 7345   2.728   2.316   4.366
 2441SOL    HW1 7346   2.696   2.388   4.304
 2441SOL    HW2 7347   2.752   2.235   4.313
 2442SOL     OW 7348   2.879   1.901   4.477
 2442SOL    HW1 7349   2.807   1.906   4.408
 2442SOL    HW2 7350   2.855   1.832   4.546
 2443SOL     OW 7351   3.291   3.035   4.591
 2443SOL    HW1 7352   3.236   2.951   4.584
 2443SOL    HW2 7353   3.317   3.064   4.499
 2444SOL     OW 7354   3.328   2.452   4.716
 2444SOL    HW1 7355   3.298   2.357   4.723
 2444SOL    HW2 7356   3.401   2.468   4.782
 2445SOL     OW 7357   3.719   2.695   4.101
 2445SOL    HW1 7358   3.761   2.631   4.165
 2445SOL    HW2 7359   3.681   2.644   4.023
 2446SOL     OW 7360   2.350   3.247   3.898
 2446SOL    HW1 7361   2.263   3.232   3.945
 2446SOL    HW2 7362   2.333   3.273   3.803
 2447SOL     OW 7363   3.526   3.142   4.381
 2447SOL    HW1 7364   3.625   3.150   4.395
 2447SOL    HW2 7365   3.481   3.226   4.412
 2448SOL     OW 7366   3.252   2.437   3.802
 2448SOL    HW1 7367   3.198   2.416   3.883
 2448SOL    HW2 7368   3.343   2.396   3.811
 2449SOL     OW 7369   2.389   2.118   4.052
 2449SOL    HW1 7370   2.416   2.059   3.977
 2449SOL    HW2 7371   2.389   2.213   4.021
 2450SOL     OW 7372   3.500   2.961   4.803
 2450SOL    HW1 7373   3.505   3.042   4.862
 2450SOL    HW2 7374   3.414   2.963   4.752
 2451SOL     OW 7375   2.567   2.912   4.092
 2451SOL    HW1 7376   2.553   2.919   4.191
 2451SOL    HW2 7377   2.651   2.861   4.074
 2452SOL     OW 7378   2.229   2.962   4.225
 2452SOL    HW1 7379   2.222   3.045   4.169
 2452SOL    HW2 7380   2.233   2.882   4.165
 2453SOL     OW 7381   2.428   2.399   4.589
 2453SOL    HW1 7382   2.440   2.465   4.515
 2453SOL    HW2 7383   2.474   2.433   4.672
 2454SOL     OW 7384   3.114   3.210   4.112
 2454SOL    HW1 7385   3.164   3.287   4.152
 2454SOL    HW2 7386   3.019   3.212   4.144
 2455SOL     OW 7387   3.444   2.501   4.196
 2455SOL    HW1 7388   3.413   2.562   4.269
 2455SOL    HW2 7389   3.494   2.553   4.127
 2456SOL     OW 7390   2.435   2.732   4.753
 2456SOL    HW1 7391   2.479   2.821   4.744
 2456SOL    HW2 7392   2.372   2.732   4.830
 2457SOL     OW 7393   3.071   2.387   3.999
 2457SOL    HW1 7394   3.084   2.303   4.053
 2457SOL    HW2 7395   3.042   2.461   4.059
 2458SOL     OW 7396   2.169   2.075   4.955
 2458SOL    HW1 7397   2.146   2.112   5.045
 2458SOL    HW2 7398   2.139   1.980   4.949
 2459SOL     OW 7399   2.594   2.496   4.788
 2459SOL    HW1 7400   2.653   2.470   4.712
 2459SOL    HW2 7401   2.566   2.592   4.777
 2460SOL     OW 7402   2.169   1.925   4.342
 2460SOL    HW1 7403   2.158   2.019   4.375
 2460SOL    HW2 7404   2.164   1.862   4.419
 2461SOL     OW 7405   3.484   2.229   4.098
 2461SOL    HW1 7406   3.486   2.153   4.162
 2461SOL    HW2 7407   3.436   2.306   4.138
 2462SOL     OW 7408   3.402   2.136   3.849
 2462SOL    HW1 7409   3.341   2.061   3.872
 2462SOL    HW2 7410   3.424   2.188   3.932
 2463SOL     OW 7411   3.165   2.700   3.766
 2463SOL    HW1 7412   3.199   2.607   3.781
 2463SOL    HW2 7413   3.183   2.727   3.671
 2464SOL     OW 7414   2.930   3.195   4.573
 2464SOL    HW1 7415   2.937   3.111   4.518
 2464SOL    HW2 7416   2.992   3.264   4.537
 2465SOL     OW 7417   2.181   2.672   4.673
 2465SOL    HW1 7418   2.274   2.708   4.678
 2465SOL    HW2 7419   2.175   2.587   4.725
 2466SOL     OW 7420   2.201   2.371   4.730
 2466SOL    HW1 7421   2.149   2.288   4.713
 2466SOL    HW2 7422   2.278   2.376   4.666
 2467SOL     OW 7423   1.870   3.188   3.924
 2467SOL    HW1 7424   1.777   3.209   3.893
 2467SOL    HW2 7425   1.880   3.089   3.937
 2468SOL     OW 7426   1.950   3.663   4.651
 2468SOL    HW1 7427   1.908   3.577   4.624
 2468SOL    HW2 7428   2.044   3.666   4.617
 2469SOL     OW 7429   2.366   3.430   4.634
 2469SOL    HW1 7430   2.432   3.504   4.643
 2469SOL    HW2 7431   2.410   3.351   4.592
 2470SOL     OW 7432   2.864   2.658   4.962
 2470SOL    HW1 7433   2.905   2.626   5.048
 2470SOL    HW2 7434   2.768   2.631   4.959
 2471SOL     OW 7435   2.677   2.434   4.049
 2471SOL    HW1 7436   2.684   2.345   4.003
 2471SOL    HW2 7437   2.583   2.468   4.041
 2472SOL     OW 7438   2.533   2.326   4.993
 2472SOL    HW1 7439   2.499   2.237   4.963
 2472SOL    HW2 7440   2.559   2.380   4.913
 2473SOL     OW 7441   2.335   2.362   3.915
 2473SOL    HW1 7442   2.396   2.442   3.919
 2473SOL    HW2 7443   2.240   2.393   3.922
 2474SOL     OW 7444   3.164   2.717   4.033
 2474SOL    HW1 7445   3.078   2.686   4.075
 2474SOL    HW2 7446   3.160   2.703   3.934
 2475SOL     OW 7447   3.621   3.609   4.878
 2475SOL    HW1 7448   3.682   3.639   4.805
 2475SOL    HW2 7449   3.583   3.520   4.856
 2476SOL     OW 7450   1.945   3.120   4.746
 2476SOL    HW1 7451   1.940   3.119   4.846
 2476SOL    HW2 7452   1.862   3.079   4.708
 2477SOL     OW 7453   3.588   1.997   4.247
 2477SOL    HW1 7454   3.661   1.980   4.180
 2477SOL    HW2 7455   3.557   1.910   4.285
 2478SOL     OW 7456   3.250   3.435   4.201
 2478SOL    HW1 7457   3.317   3.447   4.127
 2478SOL    HW2 7458   3.210   3.524   4.224
 2479SOL     OW 7459   3.142   2.789   4.396
 2479SOL    HW1 7460   3.202   2.708   4.398
 2479SOL    HW2 7461   3.182   2.858   4.336
 2480SOL     OW 7462   2.534   3.478   3.878
 2480SOL    HW1 7463   2.543   3.488   3.779
 2480SOL    HW2 7464   2.494   3.389   3.899
 2481SOL     OW 7465   3.703   2.037   4.687
 2481SOL    HW1 7466   3.742   1.952   4.651
 2481SOL    HW2 7467   3.605   2.039   4.668
 2482SOL     OW 7468   2.125   2.188   4.444
 2482SOL    HW1 7469   2.046   2.239   4.410
 2482SOL    HW2 7470   2.116   2.173   4.542
 2483SOL     OW 7471   3.056   3.474   3.755
 2483SOL    HW1 7472   3.062   3.381   3.792
 2483SOL    HW2 7473   2.997   3.474   3.675
 2484SOL     OW 7474   2.778   2.772   4.015
 2484SOL    HW1 7475   2.841   2.810   3.947
 2484SOL    HW2 7476   2.818   2.689   4.054
 2485SOL     OW 7477   3.366   3.469   3.768
 2485SOL    HW1 7478   3.274   3.506   3.775
 2485SOL    HW2 7479   3.404   3.489   3.678
 2486SOL     OW 7480   2.901   2.960   4.420
 2486SOL    HW1 7481   2.831   2.913   4.474
 2486SOL    HW2 7482   2.960   2.892   4.377
 2487SOL     OW 7483   2.876   2.098   4.695
 2487SOL    HW1 7484   2.868   2.062   4.602
 2487SOL    HW2 7485   2.874   2.022   4.760
 2488SOL     OW 7486   2.452   3.349   4.215
 2488SOL    HW1 7487   2.494   3.291   4.145
 2488SOL    HW2 7488   2.408   3.428   4.171
 2489SOL     OW 7489   2.117   3.210   4.014
 2489SOL    HW1 7490   2.021   3.211   3.987
 2489SOL    HW2 7491   2.129   3.263   4.098
 2490SOL     OW 7492   1.937   2.207   3.757
 2490SOL    HW1 7493   1.845   2.179   3.728
 2490SOL    HW2 7494   1.968   2.284   3.701
 2491SOL     OW 7495   1.934   2.028   4.042
 2491SOL    HW1 7496   1.917   2.111   3.988
 2491SOL    HW2 7497   2.024   1.991   4.020
 2492SOL     OW 7498   3.045   3.197   3.843
 2492SOL    HW1 7499   2.946   3.186   3.845
 2492SOL    HW2 7500   3.079   3.212   3.936
 2493SOL     OW 7501   3.536   2.745   4.978
 2493SOL    HW1 7502   3.509   2.656   4.941
 2493SOL    HW2 7503   3.537   2.813   4.905
 2494SOL     OW 7504   3.087   2.187   4.173
 2494SOL    HW1 7505   3.152   2.113   4.162
 2494SOL    HW2 7506   3.107   2.237   4.257
 2495SOL     OW 7507   2.456   2.607   4.376
 2495SOL    HW1 7508   2.506   2.692   4.357
 2495SOL    HW2 7509   2.368   2.609   4.328
 2496SOL     OW 7510   2.721   3.236   3.740
 2496SOL    HW1 7511   2.675   3.251   3.828
 2496SOL    HW2 7512   2.765   3.321   3.710
 2497SOL     OW 7513   2.523   3.652   4.677
 2497SOL    HW1 7514   2.477   3.740   4.664
 2497SOL    HW2 7515   2.622   3.664   4.670
 2498SOL     OW 7516   2.721   2.818   4.585
 2498SOL    HW1 7517   2.775   2.749   4.633
 2498SOL    HW2 7518   2.689   2.887   4.651
 2499SOL     OW 7519   2.945   2.846   3.811
 2499SOL    HW1 7520   2.922   2.899   3.729
 2499SOL    HW2 7521   3.026   2.790   3.792
 2500SOL     OW 7522   3.723   3.431   4.575
 2500SOL    HW1 7523   3.652   3.419   4.505
 2500SOL    HW2 7524   3.724   3.352   4.635
 2501SOL     OW 7525   1.941   3.102   4.377
 2501SOL    HW1 7526   1.940   3.055   4.465
 2501SOL    HW2 7527   2.023   3.074   4.326
 2502SOL     OW 7528   3.686   2.054   4.951
 2502SOL    HW1 7529   3.682   1.964   4.995
 2502SOL    HW2 7530   3.689   2.043   4.852
 2503SOL     OW 7531   2.290   2.286   4.244
 2503SOL    HW1 7532   2.320   2.214   4.182
 2503SOL    HW2 7533   2.251   2.246   4.327
 2504SOL     OW 7534   2.674   3.448   4.411
 2504SOL    HW1 7535   2.706   3.458   4.317
 2504SOL    HW2 7536   2.595   3.386   4.413
 2505SOL     OW 7537   2.632   3.192   4.025
 2505SOL    HW1 7538   2.586   3.105   4.042
 2505SOL    HW2 7539   2.723   3.189   4.066
 2506SOL     OW 7540   3.214   1.914   3.892
 2506SOL    HW1 7541   3.249   1.873   3.808
 2506SOL    HW2 7542   3.124   1.876   3.912
 2507SOL     OW 7543   3.162   2.315   4.415
 2507SOL    HW1 7544   3.103   2.395   4.419
 2507SOL    HW2 7545   3.177   2.280   4.508
 2508SOL     OW 7546   3.455   2.083   4.606
 2508SOL    HW1 7547   3.371   2.082   4.660
 2508SOL    HW2 7548   3.457   2.166   4.550
 2509SOL     OW 7549   1.901   2.939   4.024
 2509SOL    HW1 7550   2.000   2.928   4.015
 2509SOL    HW2 7551   1.861   2.853   4.056
 2510SOL     OW 7552   2.737   3.508   4.061
 2510SOL    HW1 7553   2.660   3.473   4.007
 2510SOL    HW2 7554   2.705   3.579   4.123
 2511SOL     OW 7555   2.092   4.352   0.113
 2511SOL    HW1 7556   1.999   4.350   0.150
 2511SOL    HW2 7557   2.093   4.313   0.021
 2512SOL     OW 7558   2.087   3.999   0.996
 2512SOL    HW1 7559   2.122   3.982   1.088
 2512SOL    HW2 7560   1.999   3.954   0.984
 2513SOL     OW 7561   1.881   4.092   0.647
 2513SOL    HW1 7562   1.799   4.135   0.686
 2513SOL    HW2 7563   1.853   4.019   0.584
 2514SOL     OW 7564   2.997   4.427   0.717
 2514SOL    HW1 7565   3.054   4.505   0.692
 2514SOL    HW2 7566   2.937   4.453   0.793
 2515SOL     OW 7567   3.617   4.331   0.231
 2515SOL    HW1 7568   3.605   4.318   0.132
 2515SOL    HW2 7569   3.587   4.250   0.280
 2516SOL     OW 7570   2.630   4.868   1.023
 2516SOL    HW1 7571   2.552   4.885   1.083
 2516SOL    HW2 7572   2.664   4.955   0.987
 2517SOL     OW 7573   2.712   4.522   1.823
 2517SOL    HW1 7574   2.708   4.598   1.888
 2517SOL    HW2 7575   2.734   4.558   1.732
 2518SOL     OW 7576   2.547   4.736   0.665
 2518SOL    HW1 7577   2.616   4.720   0.735
 2518SOL    HW2 7578   2.474   4.793   0.703
 2519SOL     OW 7579   2.300   4.116   1.499
 2519SOL    HW1 7580   2.382   4.060   1.508
 2519SOL    HW2 7581   2.219   4.058   1.503
 2520SOL     OW 7582   3.465   4.171   0.737
 2520SOL    HW1 7583   3.391   4.217   0.687
 2520SOL    HW2 7584   3.516   4.239   0.790
 2521SOL     OW 7585   2.102   4.815   0.886
 2521SOL    HW1 7586   2.116   4.731   0.938
 2521SOL    HW2 7587   2.047   4.879   0.941
 2522SOL     OW 7588   2.468   4.688   0.123
 2522SOL    HW1 7589   2.475   4.772   0.069
 2522SOL    HW2 7590   2.514   4.701   0.211
 2523SOL     OW 7591   3.456   3.838   1.480
 2523SOL    HW1 7592   3.438   3.905   1.408
 2523SOL    HW2 7593   3.453   3.884   1.569
 2524SOL     OW 7594   1.984   4.367   0.563
 2524SOL    HW1 7595   1.939   4.279   0.580
 2524SOL    HW2 7596   1.983   4.421   0.647
 2525SOL     OW 7597   3.551   4.646   0.612
 2525SOL    HW1 7598   3.646   4.617   0.620
 2525SOL    HW2 7599   3.543   4.711   0.537
 2526SOL     OW 7600   1.975   4.461   1.597
 2526SOL    HW1 7601   2.063   4.448   1.642
 2526SOL    HW2 7602   1.962   4.558   1.575
 2527SOL     OW 7603   2.671   3.728   0.502
 2527SOL    HW1 7604   2.711   3.819   0.493
 2527SOL    HW2 7605   2.571   3.736   0.508
 2528SOL     OW 7606   2.059   4.700   1.264
 2528SOL    HW1 7607   2.148   4.655   1.250
 2528SOL    HW2 7608   1.986   4.635   1.245
 2529SOL     OW 7609   3.387   4.723   0.190
 2529SOL    HW1 7610   3.324   4.647   0.203
 2529SOL    HW2 7611   3.435   4.741   0.276
 2530SOL     OW 7612   2.179   3.975   1.801
 2530SOL    HW1 7613   2.250   4.046   1.807
 2530SOL    HW2 7614   2.091   4.014   1.829
 2531SOL     OW 7615   2.460   4.453   0.270
 2531SOL    HW1 7616   2.484   4.522   0.202
 2531SOL    HW2 7617   2.382   4.486   0.324
 2532SOL     OW 7618   3.143   4.069   0.944
 2532SOL    HW1 7619   3.057   4.019   0.931
 2532SOL    HW2 7620   3.205   4.015   1.000
 2533SOL     OW 7621   2.669   4.329   1.465
 2533SOL    HW1 7622   2.622   4.326   1.554
 2533SOL    HW2 7623   2.618   4.274   1.399
 2534SOL     OW 7624   3.256   4.193   1.674
 2534SOL    HW1 7625   3.236   4.236   1.762
 2534SOL    HW2 7626   3.334   4.131   1.683
 2535SOL     OW 7627   2.835   4.614   1.572
 2535SOL    HW1 7628   2.881   4.530   1.543
 2535SOL    HW2 7629   2.779   4.648   1.497
 2536SOL     OW 7630   2.853   4.134   1.242
 2536SOL    HW1 7631   2.776   4.168   1.296
 2536SOL    HW2 7632   2.819   4.083   1.163
 2537SOL     OW 7633   2.903   4.425   0.429
 2537SOL    HW1 7634   2.929   4.421   0.525
 2537SOL    HW2 7635   2.818   4.374   0.415
 2538SOL     OW 7636   1.938   4.535   0.789
 2538SOL    HW1 7637   2.037   4.523   0.798
 2538SOL    HW2 7638   1.914   4.630   0.810
 2539SOL     OW 7639   2.727   4.072   0.195
 2539SOL    HW1 7640   2.786   4.135   0.146
 2539SOL    HW2 7641   2.746   3.978   0.166
 2540SOL     OW 7642   3.581   4.309   1.831
 2540SOL    HW1 7643   3.555   4.398   1.795
 2540SOL    HW2 7644   3.579   4.241   1.758
 2541SOL     OW 7645   2.412   3.920   0.885
 2541SOL    HW1 7646   2.407   3.915   0.985
 2541SOL    HW2 7647   2.414   4.016   0.856
 2542SOL     OW 7648   3.320   4.459   0.728
 2542SOL    HW1 7649   3.315   4.394   0.803
 2542SOL    HW2 7650   3.400   4.518   0.741
 2543SOL     OW 7651   2.064   4.009   1.498
 2543SOL    HW1 7652   1.984   4.069   1.485
 2543SOL    HW2 7653   2.054   3.960   1.584
 2544SOL     OW 7654   3.262   3.831   0.426
 2544SOL    HW1 7655   3.238   3.794   0.336
 2544SOL    HW2 7656   3.361   3.847   0.430
 2545SOL     OW 7657   2.244   4.424   0.480
 2545SOL    HW1 7658   2.289   4.334   0.477
 2545SOL    HW2 7659   2.150   4.413   0.513
 2546SOL     OW 7660   3.409   3.946   1.729
 2546SOL    HW1 7661   3.404   3.983   1.821
 2546SOL    HW2 7662   3.337   3.877   1.717
 2547SOL     OW 7663   2.476   3.846   0.117
 2547SOL    HW1 7664   2.574   3.824   0.124
 2547SOL    HW2 7665   2.445   3.829   0.024
 2548SOL     OW 7666   2.643   3.988   1.749
 2548SOL    HW1 7667   2.710   3.927   1.792
 2548SOL    HW2 7668   2.570   4.007   1.814
 2549SOL     OW 7669   3.213   4.314   1.433
 2549SOL    HW1 7670   3.241   4.271   1.518
 2549SOL    HW2 7671   3.238   4.410   1.434
 2550SOL     OW 7672   2.784   4.227   0.899
 2550SOL    HW1 7673   2.759   4.218   0.803
 2550SOL    HW2 7674   2.832   4.145   0.930
 2551SOL     OW 7675   2.401   3.788   0.512
 2551SOL    HW1 7676   2.320   3.789   0.570
 2551SOL    HW2 7677   2.404   3.871   0.457
 2552SOL     OW 7678   2.797   3.960   0.480
 2552SOL    HW1 7679   2.749   4.001   0.402
 2552SOL    HW2 7680   2.896   3.958   0.461
 2553SOL     OW 7681   2.938   4.407   1.464
 2553SOL    HW1 7682   2.858   4.346   1.467
 2553SOL    HW2 7683   3.019   4.354   1.440
 2554SOL     OW 7684   2.894   4.273   0.016
 2554SOL    HW1 7685   2.853   4.355  -0.023
 2554SOL    HW2 7686   2.958   4.299   0.089
 2555SOL     OW 7687   1.940   4.280   1.386
 2555SOL    HW1 7688   2.032   4.279   1.345
 2555SOL    HW2 7689   1.934   4.354   1.453
 2556SOL     OW 7690   2.423   3.946   1.147
 2556SOL    HW1 7691   2.461   3.862   1.184
 2556SOL    HW2 7692   2.335   3.965   1.191
 2557SOL     OW 7693   2.728   4.178   0.642
 2557SOL    HW1 7694   2.696   4.250   0.580
 2557SOL    HW2 7695   2.752   4.097   0.589
 2558SOL     OW 7696   2.879   3.763   0.753
 2558SOL    HW1 7697   2.807   3.768   0.684
 2558SOL    HW2 7698   2.855   3.694   0.822
 2559SOL     OW 7699   3.291   4.897   0.867
 2559SOL    HW1 7700   3.236   4.813   0.860
 2559SOL    HW2 7701   3.317   4.926   0.775
 2560SOL     OW 7702   3.328   4.314   0.992
 2560SOL    HW1 7703   3.298   4.219   0.999
 2560SOL    HW2 7704   3.401   4.330   1.058
 2561SOL     OW 7705   3.719   4.557   0.377
 2561SOL    HW1 7706   3.761   4.493   0.441
 2561SOL    HW2 7707   3.681   4.506   0.299
 2562SOL     OW 7708   3.252   4.299   0.078
 2562SOL    HW1 7709   3.198   4.278   0.159
 2562SOL    HW2 7710   3.343   4.258   0.087
 2563SOL     OW 7711   2.389   3.980   0.328
 2563SOL    HW1 7712   2.416   3.921   0.253
 2563SOL    HW2 7713   2.389   4.075   0.297
 2564SOL     OW 7714   3.500   4.823   1.079
 2564SOL    HW1 7715   3.505   4.904   1.138
 2564SOL    HW2 7716   3.414   4.825   1.028
 2565SOL     OW 7717   2.777   3.813   1.402
 2565SOL    HW1 7718   2.802   3.793   1.307
 2565SOL    HW2 7719   2.849   3.869   1.444
 2566SOL     OW 7720   2.272   4.537   1.251
 2566SOL    HW1 7721   2.358   4.549   1.301
 2566SOL    HW2 7722   2.230   4.450   1.278
 2567SOL     OW 7723   3.136   4.110   1.262
 2567SOL    HW1 7724   3.157   4.184   1.326
 2567SOL    HW2 7725   3.047   4.127   1.219
 2568SOL     OW 7726   2.428   4.261   0.865
 2568SOL    HW1 7727   2.440   4.327   0.791
 2568SOL    HW2 7728   2.474   4.295   0.948
 2569SOL     OW 7729   3.444   4.363   0.472
 2569SOL    HW1 7730   3.413   4.424   0.545
 2569SOL    HW2 7731   3.494   4.415   0.403
 2570SOL     OW 7732   2.264   4.475   1.598
 2570SOL    HW1 7733   2.332   4.530   1.551
 2570SOL    HW2 7734   2.304   4.387   1.625
 2571SOL     OW 7735   3.449   4.503   1.670
 2571SOL    HW1 7736   3.357   4.541   1.665
 2571SOL    HW2 7737   3.509   4.550   1.605
 2572SOL     OW 7738   2.875   3.829   1.770
 2572SOL    HW1 7739   2.881   3.914   1.718
 2572SOL    HW2 7740   2.907   3.753   1.713
 2573SOL     OW 7741   2.366   3.774   1.740
 2573SOL    HW1 7742   2.324   3.717   1.670
 2573SOL    HW2 7743   2.300   3.843   1.772
 2574SOL     OW 7744   2.435   4.594   1.029
 2574SOL    HW1 7745   2.479   4.683   1.020
 2574SOL    HW2 7746   2.372   4.594   1.106
 2575SOL     OW 7747   3.222   4.586   1.045
 2575SOL    HW1 7748   3.147   4.586   0.979
 2575SOL    HW2 7749   3.259   4.494   1.054
 2576SOL     OW 7750   3.071   4.249   0.275
 2576SOL    HW1 7751   3.084   4.165   0.329
 2576SOL    HW2 7752   3.042   4.323   0.335
 2577SOL     OW 7753   2.169   3.937   1.231
 2577SOL    HW1 7754   2.146   3.974   1.321
 2577SOL    HW2 7755   2.139   3.842   1.225
 2578SOL     OW 7756   2.594   4.358   1.064
 2578SOL    HW1 7757   2.653   4.332   0.988
 2578SOL    HW2 7758   2.566   4.454   1.053
 2579SOL     OW 7759   3.590   4.659   1.854
 2579SOL    HW1 7760   3.544   4.652   1.765
 2579SOL    HW2 7761   3.528   4.703   1.920
 2580SOL     OW 7762   2.169   3.787   0.618
 2580SOL    HW1 7763   2.158   3.881   0.651
 2580SOL    HW2 7764   2.164   3.724   0.695
 2581SOL     OW 7765   3.484   4.091   0.374
 2581SOL    HW1 7766   3.486   4.015   0.438
 2581SOL    HW2 7767   3.436   4.168   0.414
 2582SOL     OW 7768   2.885   4.490   0.966
 2582SOL    HW1 7769   2.900   4.511   1.062
 2582SOL    HW2 7770   2.855   4.395   0.957
 2583SOL     OW 7771   2.212   4.622   1.804
 2583SOL    HW1 7772   2.288   4.666   1.852
 2583SOL    HW2 7773   2.247   4.575   1.722
 2584SOL     OW 7774   3.402   3.998   0.125
 2584SOL    HW1 7775   3.341   3.923   0.148
 2584SOL    HW2 7776   3.424   4.050   0.208
 2585SOL     OW 7777   3.165   4.562   0.042
 2585SOL    HW1 7778   3.199   4.469   0.057
 2585SOL    HW2 7779   3.183   4.589  -0.053
 2586SOL     OW 7780   2.181   4.534   0.949
 2586SOL    HW1 7781   2.274   4.570   0.954
 2586SOL    HW2 7782   2.175   4.449   1.001
 2587SOL     OW 7783   2.201   4.233   1.006
 2587SOL    HW1 7784   2.149   4.150   0.989
 2587SOL    HW2 7785   2.278   4.238   0.942
 2588SOL     OW 7786   3.000   4.104   1.678
 2588SOL    HW1 7787   2.955   4.167   1.742
 2588SOL    HW2 7788   3.093   4.135   1.661
 2589SOL     OW 7789   3.022   3.931   1.477
 2589SOL    HW1 7790   3.022   3.995   1.554
 2589SOL    HW2 7791   3.050   3.979   1.394
 2590SOL     OW 7792   2.864   4.520   1.238
 2590SOL    HW1 7793   2.905   4.488   1.324
 2590SOL    HW2 7794   2.768   4.493   1.235
 2591SOL     OW 7795   1.902   4.268   1.114
 2591SOL    HW1 7796   1.987   4.235   1.073
 2591SOL    HW2 7797   1.915   4.283   1.212
 2592SOL     OW 7798   2.051   4.244   1.722
 2592SOL    HW1 7799   2.110   4.204   1.652
 2592SOL    HW2 7800   1.993   4.315   1.681
 2593SOL     OW 7801   3.231   4.674   1.660
 2593SOL    HW1 7802   3.270   4.763   1.680
 2593SOL    HW2 7803   3.241   4.654   1.563
 2594SOL     OW 7804   2.677   4.296   0.325
 2594SOL    HW1 7805   2.684   4.207   0.279
 2594SOL    HW2 7806   2.583   4.330   0.317
 2595SOL     OW 7807   3.519   4.328   1.206
 2595SOL    HW1 7808   3.481   4.259   1.268
 2595SOL    HW2 7809   3.601   4.292   1.162
 2596SOL     OW 7810   2.533   4.188   1.269
 2596SOL    HW1 7811   2.499   4.099   1.239
 2596SOL    HW2 7812   2.559   4.242   1.189
 2597SOL     OW 7813   2.335   4.224   0.191
 2597SOL    HW1 7814   2.396   4.304   0.195
 2597SOL    HW2 7815   2.240   4.255   0.198
 2598SOL     OW 7816   2.021   4.861   1.466
 2598SOL    HW1 7817   2.043   4.800   1.542
 2598SOL    HW2 7818   2.031   4.812   1.380
 2599SOL     OW 7819   3.209   4.783   1.234
 2599SOL    HW1 7820   3.233   4.720   1.160
 2599SOL    HW2 7821   3.119   4.823   1.216
 2600SOL     OW 7822   3.164   4.579   0.309
 2600SOL    HW1 7823   3.078   4.548   0.351
 2600SOL    HW2 7824   3.160   4.565   0.210
 2601SOL     OW 7825   2.765   3.810   0.133
 2601SOL    HW1 7826   2.816   3.811   0.047
 2601SOL    HW2 7827   2.821   3.768   0.204
 2602SOL     OW 7828   3.588   3.859   0.523
 2602SOL    HW1 7829   3.661   3.842   0.456
 2602SOL    HW2 7830   3.557   3.772   0.561
 2603SOL     OW 7831   3.142   4.651   0.672
 2603SOL    HW1 7832   3.202   4.570   0.674
 2603SOL    HW2 7833   3.182   4.720   0.612
 2604SOL     OW 7834   3.703   3.899   0.963
 2604SOL    HW1 7835   3.742   3.814   0.927
 2604SOL    HW2 7836   3.605   3.901   0.944
 2605SOL     OW 7837   2.125   4.050   0.720
 2605SOL    HW1 7838   2.046   4.101   0.686
 2605SOL    HW2 7839   2.116   4.035   0.818
 2606SOL     OW 7840   2.778   4.634   0.291
 2606SOL    HW1 7841   2.841   4.672   0.223
 2606SOL    HW2 7842   2.818   4.551   0.330
 2607SOL     OW 7843   2.876   3.960   0.971
 2607SOL    HW1 7844   2.868   3.924   0.878
 2607SOL    HW2 7845   2.874   3.884   1.036
 2608SOL     OW 7846   3.571   4.109   1.381
 2608SOL    HW1 7847   3.644   4.178   1.385
 2608SOL    HW2 7848   3.599   4.034   1.322
 2609SOL     OW 7849   1.967   4.737   1.726
 2609SOL    HW1 7850   1.890   4.704   1.780
 2609SOL    HW2 7851   2.052   4.707   1.768
 2610SOL     OW 7852   2.534   3.927   1.489
 2610SOL    HW1 7853   2.624   3.911   1.449
 2610SOL    HW2 7854   2.542   3.932   1.588
 2611SOL     OW 7855   1.937   4.069   0.033
 2611SOL    HW1 7856   1.845   4.041   0.004
 2611SOL    HW2 7857   1.968   4.146  -0.023
 2612SOL     OW 7858   3.302   4.580   1.398
 2612SOL    HW1 7859   3.245   4.632   1.335
 2612SOL    HW2 7860   3.398   4.592   1.374
 2613SOL     OW 7861   1.934   3.890   0.318
 2613SOL    HW1 7862   1.917   3.973   0.264
 2613SOL    HW2 7863   2.024   3.853   0.296
 2614SOL     OW 7864   3.045   5.059   0.119
 2614SOL    HW1 7865   2.946   5.048   0.121
 2614SOL    HW2 7866   3.079   5.074   0.212
 2615SOL     OW 7867   2.475   4.566   1.431
 2615SOL    HW1 7868   2.531   4.647   1.414
 2615SOL    HW2 7869   2.534   4.486   1.434
 2616SOL     OW 7870   2.578   4.289   1.708
 2616SOL    HW1 7871   2.597   4.354   1.782
 2616SOL    HW2 7872   2.638   4.209   1.717
 2617SOL     OW 7873   3.536   4.607   1.254
 2617SOL    HW1 7874   3.509   4.518   1.217
 2617SOL    HW2 7875   3.537   4.675   1.181
 2618SOL     OW 7876   3.087   4.049   0.449
 2618SOL    HW1 7877   3.152   3.975   0.438
 2618SOL    HW2 7878   3.107   4.099   0.533
 2619SOL     OW 7879   2.456   4.469   0.652
 2619SOL    HW1 7880   2.506   4.554   0.633
 2619SOL    HW2 7881   2.368   4.471   0.604
 2620SOL     OW 7882   3.639   4.066   1.642
 2620SOL    HW1 7883   3.622   4.097   1.548
 2620SOL    HW2 7884   3.555   4.029   1.680
 2621SOL     OW 7885   3.592   4.658   1.517
 2621SOL    HW1 7886   3.630   4.749   1.532
 2621SOL    HW2 7887   3.584   4.641   1.418
 2622SOL     OW 7888   2.721   4.680   0.861
 2622SOL    HW1 7889   2.775   4.611   0.909
 2622SOL    HW2 7890   2.689   4.749   0.927
 2623SOL     OW 7891   2.945   4.708   0.087
 2623SOL    HW1 7892   2.922   4.761   0.005
 2623SOL    HW2 7893   3.026   4.652   0.068
 2624SOL     OW 7894   1.941   4.964   0.653
 2624SOL    HW1 7895   1.940   4.917   0.741
 2624SOL    HW2 7896   2.023   4.936   0.602
 2625SOL     OW 7897   3.686   3.916   1.227
 2625SOL    HW1 7898   3.682   3.826   1.271
 2625SOL    HW2 7899   3.689   3.905   1.128
 2626SOL     OW 7900   2.290   4.148   0.520
 2626SOL    HW1 7901   2.320   4.076   0.458
 2626SOL    HW2 7902   2.251   4.108   0.603
 2627SOL     OW 7903   2.179   4.271   1.280
 2627SOL    HW1 7904   2.217   4.212   1.352
 2627SOL    HW2 7905   2.219   4.245   1.192
 2628SOL     OW 7906   3.286   3.938   1.112
 2628SOL    HW1 7907   3.338   3.873   1.167
 2628SOL    HW2 7908   3.237   4.001   1.173
 2629SOL     OW 7909   2.863   3.758   1.154
 2629SOL    HW1 7910   2.800   3.686   1.123
 2629SOL    HW2 7911   2.956   3.722   1.154
 2630SOL     OW 7912   3.214   3.776   0.168
 2630SOL    HW1 7913   3.249   3.735   0.084
 2630SOL    HW2 7914   3.124   3.738   0.188
 2631SOL     OW 7915   3.162   4.177   0.691
 2631SOL    HW1 7916   3.103   4.257   0.695
 2631SOL    HW2 7917   3.177   4.142   0.784
 2632SOL     OW 7918   3.455   3.945   0.882
 2632SOL    HW1 7919   3.371   3.944   0.936
 2632SOL    HW2 7920   3.457   4.028   0.826
 2633SOL     OW 7921   1.901   4.801   0.300
 2633SOL    HW1 7922   2.000   4.790   0.291
 2633SOL    HW2 7923   1.861   4.715   0.332
 2634SOL     OW 7924   2.092   4.352   1.975
 2634SOL    HW1 7925   1.999   4.350   2.012
 2634SOL    HW2 7926   2.093   4.313   1.883
 2635SOL     OW 7927   2.087   3.999   2.858
 2635SOL    HW1 7928   2.122   3.982   2.950
 2635SOL    HW2 7929   1.999   3.954   2.846
 2636SOL     OW 7930   1.881   4.092   2.509
 2636SOL    HW1 7931   1.799   4.135   2.548
 2636SOL    HW2 7932   1.853   4.019   2.446
 2637SOL     OW 7933   2.997   4.427   2.579
 2637SOL    HW1 7934   3.054   4.505   2.554
 2637SOL    HW2 7935   2.937   4.453   2.655
 2638SOL     OW 7936   3.617   4.331   2.093
 2638SOL    HW1 7937   3.605   4.318   1.994
 2638SOL    HW2 7938   3.587   4.250   2.142
 2639SOL     OW 7939   2.630   4.868   2.885
 2639SOL    HW1 7940   2.552   4.885   2.945
 2639SOL    HW2 7941   2.664   4.955   2.849
 2640SOL     OW 7942   2.712   4.522   3.685
 2640SOL    HW1 7943   2.708   4.598   3.750
 2640SOL    HW2 7944   2.734   4.558   3.594
 2641SOL     OW 7945   2.547   4.736   2.527
 2641SOL    HW1 7946   2.616   4.720   2.597
 2641SOL    HW2 7947   2.474   4.793   2.565
 2642SOL     OW 7948   2.300   4.116   3.361
 2642SOL    HW1 7949   2.382   4.060   3.370
 2642SOL    HW2 7950   2.219   4.058   3.365
 2643SOL     OW 7951   3.465   4.171   2.599
 2643SOL    HW1 7952   3.391   4.217   2.549
 2643SOL    HW2 7953   3.516   4.239   2.652
 2644SOL     OW 7954   2.102   4.815   2.748
 2644SOL    HW1 7955   2.116   4.731   2.800
 2644SOL    HW2 7956   2.047   4.879   2.803
 2645SOL     OW 7957   2.468   4.688   1.985
 2645SOL    HW1 7958   2.475   4.772   1.931
 2645SOL    HW2 7959   2.514   4.701   2.073
 2646SOL     OW 7960   3.456   3.838   3.342
 2646SOL    HW1 7961   3.438   3.905   3.270
 2646SOL    HW2 7962   3.453   3.884   3.431
 2647SOL     OW 7963   1.984   4.367   2.425
 2647SOL    HW1 7964   1.939   4.279   2.442
 2647SOL    HW2 7965   1.983   4.421   2.509
 2648SOL     OW 7966   3.551   4.646   2.474
 2648SOL    HW1 7967   3.646   4.617   2.482
 2648SOL    HW2 7968   3.543   4.711   2.399
 2649SOL     OW 7969   1.975   4.461   3.459
 2649SOL    HW1 7970   2.063   4.448   3.504
 2649SOL    HW2 7971   1.962   4.558   3.437
 2650SOL     OW 7972   2.671   3.728   2.364
 2650SOL    HW1 7973   2.711   3.819   2.355
 2650SOL    HW2 7974   2.571   3.736   2.370
 2651SOL     OW 7975   2.059   4.700   3.126
 2651SOL    HW1 7976   2.148   4.655   3.112
 2651SOL    HW2 7977   1.986   4.635   3.107
 2652SOL     OW 7978   3.387   4.723   2.052
 2652SOL    HW1 7979   3.324   4.647   2.065
 2652SOL    HW2 7980   3.435   4.741   2.138
 2653SOL     OW 7981   2.179   3.975   3.663
 2653SOL    HW1 7982   2.250   4.046   3.669
 2653SOL    HW2 7983   2.091   4.014   3.691
 2654SOL     OW 7984   2.460   4.453   2.132
 2654SOL    HW1 7985   2.484   4.522   2.064
 2654SOL    HW2 7986   2.382   4.486   2.186
 2655SOL     OW 7987   3.143   4.069   2.806
 2655SOL    HW1 7988   3.057   4.019   2.793
 2655SOL    HW2 7989   3.205   4.015   2.862
 2656SOL     OW 7990   2.669   4.329   3.327
 2656SOL    HW1 7991   2.622   4.326   3.416
 2656SOL    HW2 7992   2.618   4.274   3.261
 2657SOL     OW 7993   3.256   4.193   3.536
 2657SOL    HW1 7994   3.236   4.236   3.624
 2657SOL    HW2 7995   3.334   4.131   3.545
 2658SOL     OW 7996   2.835   4.614   3.434
 2658SOL    HW1 7997   2.881   4.530   3.405
 2658SOL    HW2 7998   2.779   4.648   3.359
 2659SOL     OW 7999   2.853   4.134   3.104
 2659SOL    HW1 8000   2.776   4.168   3.158
 2659SOL    HW2 8001   2.819   4.083   3.025
 2660SOL     OW 8002   2.903   4.425   2.291
 2660SOL    HW1 8003   2.929   4.421   2.387
 2660SOL    HW2 8004   2.818   4.374   2.277
 2661SOL     OW 8005   1.938   4.535   2.651
 2661SOL    HW1 8006   2.037   4.523   2.660
 2661SOL    HW2 8007   1.914   4.630   2.672
 2662SOL     OW 8008   2.727   4.072   2.057
 2662SOL    HW1 8009   2.786   4.135   2.008
 2662SOL    HW2 8010   2.746   3.978   2.028
 2663SOL     OW 8011   3.581   4.309   3.693
 2663SOL    HW1 8012   3.555   4.398   3.657
 2663SOL    HW2 8013   3.579   4.241   3.620
 2664SOL     OW 8014   2.412   3.920   2.747
 2664SOL    HW1 8015   2.407   3.915   2.847
 2664SOL    HW2 8016   2.414   4.016   2.718
 2665SOL     OW 8017   3.320   4.459   2.590
 2665SOL    HW1 8018   3.315   4.394   2.665
 2665SOL    HW2 8019   3.400   4.518   2.603
 2666SOL     OW 8020   2.064   4.009   3.360
 2666SOL    HW1 8021   1.984   4.069   3.347
 2666SOL    HW2 8022   2.054   3.960   3.446
 2667SOL     OW 8023   3.262   3.831   2.288
 2667SOL    HW1 8024   3.238   3.794   2.198
 2667SOL    HW2 8025   3.361   3.847   2.292
 2668SOL     OW 8026   2.244   4.424   2.342
 2668SOL    HW1 8027   2.289   4.334   2.339
 2668SOL    HW2 8028   2.150   4.413   2.375
 2669SOL     OW 8029   3.409   3.946   3.591
 2669SOL    HW1 8030   3.404   3.983   3.683
 2669SOL    HW2 8031   3.337   3.877   3.579
 2670SOL     OW 8032   2.476   3.846   1.979
 2670SOL    HW1 8033   2.574   3.824   1.986
 2670SOL    HW2 8034   2.445   3.829   1.886
 2671SOL     OW 8035   2.643   3.988   3.611
 2671SOL    HW1 8036   2.710   3.927   3.654
 2671SOL    HW2 8037   2.570   4.007   3.676
 2672SOL     OW 8038   3.213   4.314   3.295
 2672SOL    HW1 8039   3.241   4.271   3.380
 2672SOL    HW2 8040   3.238   4.410   3.296
 2673SOL     OW 8041   2.784   4.227   2.761
 2673SOL    HW1 8042   2.759   4.218   2.665
 2673SOL    HW2 8043   2.832   4.145   2.792
 2674SOL     OW 8044   2.401   3.788   2.374
 2674SOL    HW1 8045   2.320   3.789   2.432
 2674SOL    HW2 8046   2.404   3.871   2.319
 2675SOL     OW 8047   2.159   3.759   2.033
 2675SOL    HW1 8048   2.208   3.843   2.012
 2675SOL    HW2 8049   2.221   3.694   2.078
 2676SOL     OW 8050   2.797   3.960   2.342
 2676SOL    HW1 8051   2.749   4.001   2.264
 2676SOL    HW2 8052   2.896   3.958   2.323
 2677SOL     OW 8053   2.938   4.407   3.326
 2677SOL    HW1 8054   2.858   4.346   3.329
 2677SOL    HW2 8055   3.019   4.354   3.302
 2678SOL     OW 8056   2.894   4.273   1.878
 2678SOL    HW1 8057   2.853   4.355   1.839
 2678SOL    HW2 8058   2.958   4.299   1.951
 2679SOL     OW 8059   1.940   4.280   3.248
 2679SOL    HW1 8060   2.032   4.279   3.207
 2679SOL    HW2 8061   1.934   4.354   3.315
 2680SOL     OW 8062   2.423   3.946   3.009
 2680SOL    HW1 8063   2.461   3.862   3.046
 2680SOL    HW2 8064   2.335   3.965   3.053
 2681SOL     OW 8065   2.728   4.178   2.504
 2681SOL    HW1 8066   2.696   4.250   2.442
 2681SOL    HW2 8067   2.752   4.097   2.451
 2682SOL     OW 8068   2.879   3.763   2.615
 2682SOL    HW1 8069   2.807   3.768   2.546
 2682SOL    HW2 8070   2.855   3.694   2.684
 2683SOL     OW 8071   3.291   4.897   2.729
 2683SOL    HW1 8072   3.236   4.813   2.722
 2683SOL    HW2 8073   3.317   4.926   2.637
 2684SOL     OW 8074   3.328   4.314   2.854
 2684SOL    HW1 8075   3.298   4.219   2.861
 2684SOL    HW2 8076   3.401   4.330   2.920
 2685SOL     OW 8077   3.719   4.557   2.239
 2685SOL    HW1 8078   3.761   4.493   2.303
 2685SOL    HW2 8079   3.681   4.506   2.161
 2686SOL     OW 8080   3.252   4.299   1.940
 2686SOL    HW1 8081   3.198   4.278   2.021
 2686SOL    HW2 8082   3.343   4.258   1.949
 2687SOL     OW 8083   2.389   3.980   2.190
 2687SOL    HW1 8084   2.416   3.921   2.115
 2687SOL    HW2 8085   2.389   4.075   2.159
 2688SOL     OW 8086   3.500   4.823   2.941
 2688SOL    HW1 8087   3.505   4.904   3.000
 2688SOL    HW2 8088   3.414   4.825   2.890
 2689SOL     OW 8089   2.777   3.813   3.264
 2689SOL    HW1 8090   2.802   3.793   3.169
 2689SOL    HW2 8091   2.849   3.869   3.306
 2690SOL     OW 8092   2.272   4.537   3.113
 2690SOL    HW1 8093   2.358   4.549   3.163
 2690SOL    HW2 8094   2.230   4.450   3.140
 2691SOL     OW 8095   3.136   4.110   3.124
 2691SOL    HW1 8096   3.157   4.184   3.188
 2691SOL    HW2 8097   3.047   4.127   3.081
 2692SOL     OW 8098   2.428   4.261   2.727
 2692SOL    HW1 8099   2.440   4.327   2.653
 2692SOL    HW2 8100   2.474   4.295   2.810
 2693SOL     OW 8101   3.444   4.363   2.334
 2693SOL    HW1 8102   3.413   4.424   2.407
 2693SOL    HW2 8103   3.494   4.415   2.265
 2694SOL     OW 8104   2.264   4.475   3.460
 2694SOL    HW1 8105   2.332   4.530   3.413
 2694SOL    HW2 8106   2.304   4.387   3.487
 2695SOL     OW 8107   3.449   4.503   3.532
 2695SOL    HW1 8108   3.357   4.541   3.527
 2695SOL    HW2 8109   3.509   4.550   3.467
 2696SOL     OW 8110   2.875   3.829   3.632
 2696SOL    HW1 8111   2.881   3.914   3.580
 2696SOL    HW2 8112   2.907   3.753   3.575
 2697SOL     OW 8113   2.366   3.774   3.602
 2697SOL    HW1 8114   2.324   3.717   3.532
 2697SOL    HW2 8115   2.300   3.843   3.634
 2698SOL     OW 8116   2.435   4.594   2.891
 2698SOL    HW1 8117   2.479   4.683   2.882
 2698SOL    HW2 8118   2.372   4.594   2.968
 2699SOL     OW 8119   3.222   4.586   2.907
 2699SOL    HW1 8120   3.147   4.586   2.841
 2699SOL    HW2 8121   3.259   4.494   2.916
 2700SOL     OW 8122   3.071   4.249   2.137
 2700SOL    HW1 8123   3.084   4.165   2.191
 2700SOL    HW2 8124   3.042   4.323   2.197
 2701SOL     OW 8125   2.169   3.937   3.093
 2701SOL    HW1 8126   2.146   3.974   3.183
 2701SOL    HW2 8127   2.139   3.842   3.087
 2702SOL     OW 8128   2.594   4.358   2.926
 2702SOL    HW1 8129   2.653   4.332   2.850
 2702SOL    HW2 8130   2.566   4.454   2.915
 2703SOL     OW 8131   3.590   4.659   3.716
 2703SOL    HW1 8132   3.544   4.652   3.627
 2703SOL    HW2 8133   3.528   4.703   3.782
 2704SOL     OW 8134   2.169   3.787   2.480
 2704SOL    HW1 8135   2.158   3.881   2.513
 2704SOL    HW2 8136   2.164   3.724   2.557
 2705SOL     OW 8137   3.484   4.091   2.236
 2705SOL    HW1 8138   3.486   4.015   2.300
 2705SOL    HW2 8139   3.436   4.168   2.276
 2706SOL     OW 8140   2.885   4.490   2.828
 2706SOL    HW1 8141   2.900   4.511   2.924
 2706SOL    HW2 8142   2.855   4.395   2.819
 2707SOL     OW 8143   2.212   4.622   3.666
 2707SOL    HW1 8144   2.288   4.666   3.714
 2707SOL    HW2 8145   2.247   4.575   3.584
 2708SOL     OW 8146   3.402   3.998   1.987
 2708SOL    HW1 8147   3.341   3.923   2.010
 2708SOL    HW2 8148   3.424   4.050   2.070
 2709SOL     OW 8149   3.165   4.562   1.904
 2709SOL    HW1 8150   3.199   4.469   1.919
 2709SOL    HW2 8151   3.183   4.589   1.809
 2710SOL     OW 8152   2.181   4.534   2.811
 2710SOL    HW1 8153   2.274   4.570   2.816
 2710SOL    HW2 8154   2.175   4.449   2.863
 2711SOL     OW 8155   2.201   4.233   2.868
 2711SOL    HW1 8156   2.149   4.150   2.851
 2711SOL    HW2 8157   2.278   4.238   2.804
 2712SOL     OW 8158   3.000   4.104   3.540
 2712SOL    HW1 8159   2.955   4.167   3.604
 2712SOL    HW2 8160   3.093   4.135   3.523
 2713SOL     OW 8161   3.022   3.931   3.339
 2713SOL    HW1 8162   3.022   3.995   3.416
 2713SOL    HW2 8163   3.050   3.979   3.256
 2714SOL     OW 8164   2.864   4.520   3.100
 2714SOL    HW1 8165   2.905   4.488   3.186
 2714SOL    HW2 8166   2.768   4.493   3.097
 2715SOL     OW 8167   1.902   4.268   2.976
 2715SOL    HW1 8168   1.987   4.235   2.935
 2715SOL    HW2 8169   1.915   4.283   3.074
 2716SOL     OW 8170   2.051   4.244   3.584
 2716SOL    HW1 8171   2.110   4.204   3.514
 2716SOL    HW2 8172   1.993   4.315   3.543
 2717SOL     OW 8173   3.231   4.674   3.522
 2717SOL    HW1 8174   3.270   4.763   3.542
 2717SOL    HW2 8175   3.241   4.654   3.425
 2718SOL     OW 8176   2.677   4.296   2.187
 2718SOL    HW1 8177   2.684   4.207   2.141
 2718SOL    HW2 8178   2.583   4.330   2.179
 2719SOL     OW 8179   3.519   4.328   3.068
 2719SOL    HW1 8180   3.481   4.259   3.130
 2719SOL    HW2 8181   3.601   4.292   3.024
 2720SOL     OW 8182   2.533   4.188   3.131
 2720SOL    HW1 8183   2.499   4.099   3.101
 2720SOL    HW2 8184   2.559   4.242   3.051
 2721SOL     OW 8185   2.335   4.224   2.053
 2721SOL    HW1 8186   2.396   4.304   2.057
 2721SOL    HW2 8187   2.240   4.255   2.060
 2722SOL     OW 8188   2.021   4.861   3.328
 2722SOL    HW1 8189   2.043   4.800   3.404
 2722SOL    HW2 8190   2.031   4.812   3.242
 2723SOL     OW 8191   3.209   4.783   3.096
 2723SOL    HW1 8192   3.233   4.720   3.022
 2723SOL    HW2 8193   3.119   4.823   3.078
 2724SOL     OW 8194   3.164   4.579   2.171
 2724SOL    HW1 8195   3.078   4.548   2.213
 2724SOL    HW2 8196   3.160   4.565   2.072
 2725SOL     OW 8197   3.588   3.859   2.385
 2725SOL    HW1 8198   3.661   3.842   2.318
 2725SOL    HW2 8199   3.557   3.772   2.423
 2726SOL     OW 8200   3.142   4.651   2.534
 2726SOL    HW1 8201   3.202   4.570   2.536
 2726SOL    HW2 8202   3.182   4.720   2.474
 2727SOL     OW 8203   3.703   3.899   2.825
 2727SOL    HW1 8204   3.742   3.814   2.789
 2727SOL    HW2 8205   3.605   3.901   2.806
 2728SOL     OW 8206   2.125   4.050   2.582
 2728SOL    HW1 8207   2.046   4.101   2.548
 2728SOL    HW2 8208   2.116   4.035   2.680
 2729SOL     OW 8209   2.778   4.634   2.153
 2729SOL    HW1 8210   2.841   4.672   2.085
 2729SOL    HW2 8211   2.818   4.551   2.192
 2730SOL     OW 8212   2.876   3.960   2.833
 2730SOL    HW1 8213   2.868   3.924   2.740
 2730SOL    HW2 8214   2.874   3.884   2.898
 2731SOL     OW 8215   3.571   4.109   3.243
 2731SOL    HW1 8216   3.644   4.178   3.247
 2731SOL    HW2 8217   3.599   4.034   3.184
 2732SOL     OW 8218   1.967   4.737   3.588
 2732SOL    HW1 8219   1.890   4.704   3.642
 2732SOL    HW2 8220   2.052   4.707   3.630
 2733SOL     OW 8221   2.534   3.927   3.351
 2733SOL    HW1 8222   2.624   3.911   3.311
 2733SOL    HW2 8223   2.542   3.932   3.450
 2734SOL     OW 8224   1.937   4.069   1.895
 2734SOL    HW1 8225   1.845   4.041   1.866
 2734SOL    HW2 8226   1.968   4.146   1.839
 2735SOL     OW 8227   3.302   4.580   3.260
 2735SOL    HW1 8228   3.245   4.632   3.197
 2735SOL    HW2 8229   3.398   4.592   3.236
 2736SOL     OW 8230   1.934   3.890   2.180
 2736SOL    HW1 8231   1.917   3.973   2.126
 2736SOL    HW2 8232   2.024   3.853   2.158
 2737SOL     OW 8233   3.045   5.059   1.981
 2737SOL    HW1 8234   2.946   5.048   1.983
 2737SOL    HW2 8235   3.079   5.074   2.074
 2738SOL     OW 8236   2.475   4.566   3.293
 2738SOL    HW1 8237   2.531   4.647   3.276
 2738SOL    HW2 8238   2.534   4.486   3.296
 2739SOL     OW 8239   2.578   4.289   3.570
 2739SOL    HW1 8240   2.597   4.354   3.644
 2739SOL    HW2 8241   2.638   4.209   3.579
 2740SOL     OW 8242   3.536   4.607   3.116
 2740SOL    HW1 8243   3.509   4.518   3.079
 2740SOL    HW2 8244   3.537   4.675   3.043
 2741SOL     OW 8245   3.087   4.049   2.311
 2741SOL    HW1 8246   3.152   3.975   2.300
 2741SOL    HW2 8247   3.107   4.099   2.395
 2742SOL     OW 8248   2.456   4.469   2.514
 2742SOL    HW1 8249   2.506   4.554   2.495
 2742SOL    HW2 8250   2.368   4.471   2.466
 2743SOL     OW 8251   3.639   4.066   3.504
 2743SOL    HW1 8252   3.622   4.097   3.410
 2743SOL    HW2 8253   3.555   4.029   3.542
 2744SOL     OW 8254   3.592   4.658   3.379
 2744SOL    HW1 8255   3.630   4.749   3.394
 2744SOL    HW2 8256   3.584   4.641   3.280
 2745SOL     OW 8257   2.721   4.680   2.723
 2745SOL    HW1 8258   2.775   4.611   2.771
 2745SOL    HW2 8259   2.689   4.749   2.789
 2746SOL     OW 8260   2.945   4.708   1.949
 2746SOL    HW1 8261   2.922   4.761   1.867
 2746SOL    HW2 8262   3.026   4.652   1.930
 2747SOL     OW 8263   1.941   4.964   2.515
 2747SOL    HW1 8264   1.940   4.917   2.603
 2747SOL    HW2 8265   2.023   4.936   2.464
 2748SOL     OW 8266   3.686   3.916   3.089
 2748SOL    HW1 8267   3.682   3.826   3.133
 2748SOL    HW2 8268   3.689   3.905   2.990
 2749SOL     OW 8269   2.290   4.148   2.382
 2749SOL    HW1 8270   2.320   4.076   2.320
 2749SOL    HW2 8271   2.251   4.108   2.465
 2750SOL     OW 8272   2.179   4.271   3.142
 2750SOL    HW1 8273   2.217   4.212   3.214
 2750SOL    HW2 8274   2.219   4.245   3.054
 2751SOL     OW 8275   3.286   3.938   2.974
 2751SOL    HW1 8276   3.338   3.873   3.029
 2751SOL    HW2 8277   3.237   4.001   3.035
 2752SOL     OW 8278   2.863   3.758   3.016
 2752SOL    HW1 8279   2.800   3.686   2.985
 2752SOL    HW2 8280   2.956   3.722   3.016
 2753SOL     OW 8281   3.214   3.776   2.030
 2753SOL    HW1 8282   3.249   3.735   1.946
 2753SOL    HW2 8283   3.124   3.738   2.050
 2754SOL     OW 8284   3.162   4.177   2.553
 2754SOL    HW1 8285   3.103   4.257   2.557
 2754SOL    HW2 8286   3.177   4.142   2.646
 2755SOL     OW 8287   3.455   3.945   2.744
 2755SOL    HW1 8288   3.371   3.944   2.798
 2755SOL    HW2 8289   3.457   4.028   2.688
 2756SOL     OW 8290   1.901   4.801   2.162
 2756SOL    HW1 8291   2.000   4.790   2.153
 2756SOL    HW2 8292   1.861   4.715   2.194
 2757SOL     OW 8293   2.092   4.352   3.837
 2757SOL    HW1 8294   1.999   4.350   3.874
 2757SOL    HW2 8295   2.093   4.313   3.745
 2758SOL     OW 8296   2.087   3.999   4.720
 2758SOL    HW1 8297   2.122   3.982   4.812
 2758SOL    HW2 8298   1.999   3.954   4.708
 2759SOL     OW 8299   1.881   4.092   4.371
 2759SOL    HW1 8300   1.799   4.135   4.410
 2759SOL    HW2 8301   1.853   4.019   4.308
 2760SOL     OW 8302   2.997   4.427   4.441
 2760SOL    HW1 8303   3.054   4.505   4.416
 2760SOL    HW2 8304   2.937   4.453   4.517
 2761SOL     OW 8305   3.617   4.331   3.955
 2761SOL    HW1 8306   3.605   4.318   3.856
 2761SOL    HW2 8307   3.587   4.250   4.004
 2762SOL     OW 8308   2.547   4.736   4.389
 2762SOL    HW1 8309   2.616   4.720   4.459
 2762SOL    HW2 8310   2.474   4.793   4.427
 2763SOL     OW 8311   3.465   4.171   4.461
 2763SOL    HW1 8312   3.391   4.217   4.411
 2763SOL    HW2 8313   3.516   4.239   4.514
 2764SOL     OW 8314   2.102   4.815   4.610
 2764SOL    HW1 8315   2.116   4.731   4.662
 2764SOL    HW2 8316   2.047   4.879   4.665
 2765SOL     OW 8317   2.468   4.688   3.847
 2765SOL    HW1 8318   2.475   4.772   3.793
 2765SOL    HW2 8319   2.514   4.701   3.935
 2766SOL     OW 8320   1.984   4.367   4.287
 2766SOL    HW1 8321   1.939   4.279   4.304
 2766SOL    HW2 8322   1.983   4.421   4.371
 2767SOL     OW 8323   3.551   4.646   4.336
 2767SOL    HW1 8324   3.646   4.617   4.344
 2767SOL    HW2 8325   3.543   4.711   4.261
 2768SOL     OW 8326   2.671   3.728   4.226
 2768SOL    HW1 8327   2.711   3.819   4.217
 2768SOL    HW2 8328   2.571   3.736   4.232
 2769SOL     OW 8329   2.059   4.700   4.988
 2769SOL    HW1 8330   2.148   4.655   4.974
 2769SOL    HW2 8331   1.986   4.635   4.969
 2770SOL     OW 8332   3.387   4.723   3.914
 2770SOL    HW1 8333   3.324   4.647   3.927
 2770SOL    HW2 8334   3.435   4.741   4.000
 2771SOL     OW 8335   2.460   4.453   3.994
 2771SOL    HW1 8336   2.484   4.522   3.926
 2771SOL    HW2 8337   2.382   4.486   4.048
 2772SOL     OW 8338   3.143   4.069   4.668
 2772SOL    HW1 8339   3.057   4.019   4.655
 2772SOL    HW2 8340   3.205   4.015   4.724
 2773SOL     OW 8341   2.903   4.425   4.153
 2773SOL    HW1 8342   2.929   4.421   4.249
 2773SOL    HW2 8343   2.818   4.374   4.139
 2774SOL     OW 8344   1.938   4.535   4.513
 2774SOL    HW1 8345   2.037   4.523   4.522
 2774SOL    HW2 8346   1.914   4.630   4.534
 2775SOL     OW 8347   2.727   4.072   3.919
 2775SOL    HW1 8348   2.786   4.135   3.870
 2775SOL    HW2 8349   2.746   3.978   3.890
 2776SOL     OW 8350   2.412   3.920   4.609
 2776SOL    HW1 8351   2.407   3.915   4.709
 2776SOL    HW2 8352   2.414   4.016   4.580
 2777SOL     OW 8353   3.320   4.459   4.452
 2777SOL    HW1 8354   3.315   4.394   4.527
 2777SOL    HW2 8355   3.400   4.518   4.465
 2778SOL     OW 8356   3.262   3.831   4.150
 2778SOL    HW1 8357   3.238   3.794   4.060
 2778SOL    HW2 8358   3.361   3.847   4.154
 2779SOL     OW 8359   2.244   4.424   4.204
 2779SOL    HW1 8360   2.289   4.334   4.201
 2779SOL    HW2 8361   2.150   4.413   4.237
 2780SOL     OW 8362   2.476   3.846   3.841
 2780SOL    HW1 8363   2.574   3.824   3.848
 2780SOL    HW2 8364   2.445   3.829   3.748
 2781SOL     OW 8365   2.784   4.227   4.623
 2781SOL    HW1 8366   2.759   4.218   4.527
 2781SOL    HW2 8367   2.832   4.145   4.654
 2782SOL     OW 8368   2.401   3.788   4.236
 2782SOL    HW1 8369   2.320   3.789   4.294
 2782SOL    HW2 8370   2.404   3.871   4.181
 2783SOL     OW 8371   2.159   3.759   3.895
 2783SOL    HW1 8372   2.208   3.843   3.874
 2783SOL    HW2 8373   2.221   3.694   3.940
 2784SOL     OW 8374   2.797   3.960   4.204
 2784SOL    HW1 8375   2.749   4.001   4.126
 2784SOL    HW2 8376   2.896   3.958   4.185
 2785SOL     OW 8377   2.894   4.273   3.740
 2785SOL    HW1 8378   2.853   4.355   3.701
 2785SOL    HW2 8379   2.958   4.299   3.813
 2786SOL     OW 8380   2.728   4.178   4.366
 2786SOL    HW1 8381   2.696   4.250   4.304
 2786SOL    HW2 8382   2.752   4.097   4.313
 2787SOL     OW 8383   2.879   3.763   4.477
 2787SOL    HW1 8384   2.807   3.768   4.408
 2787SOL    HW2 8385   2.855   3.694   4.546
 2788SOL     OW 8386   3.291   4.897   4.591
 2788SOL    HW1 8387   3.236   4.813   4.584
 2788SOL    HW2 8388   3.317   4.926   4.499
 2789SOL     OW 8389   3.328   4.314   4.716
 2789SOL    HW1 8390   3.298   4.219   4.723
 2789SOL    HW2 8391   3.401   4.330   4.782
 2790SOL     OW 8392   3.719   4.557   4.101
 2790SOL    HW1 8393   3.761   4.493   4.165
 2790SOL    HW2 8394   3.681   4.506   4.023
 2791SOL     OW 8395   3.252   4.299   3.802
 2791SOL    HW1 8396   3.198   4.278   3.883
 2791SOL    HW2 8397   3.343   4.258   3.811
 2792SOL     OW 8398   2.389   3.980   4.052
 2792SOL    HW1 8399   2.416   3.921   3.977
 2792SOL    HW2 8400   2.389   4.075   4.021
 2793SOL     OW 8401   3.500   4.823   4.803
 2793SOL    HW1 8402   3.505   4.904   4.862
 2793SOL    HW2 8403   3.414   4.825   4.752
 2794SOL     OW 8404   2.428   4.261   4.589
 2794SOL    HW1 8405   2.440   4.327   4.515
 2794SOL    HW2 8406   2.474   4.295   4.672
 2795SOL     OW 8407   3.444   4.363   4.196
 2795SOL    HW1 8408   3.413   4.424   4.269
 2795SOL    HW2 8409   3.494   4.415   4.127
 2796SOL     OW 8410   2.435   4.594   4.753
 2796SOL    HW1 8411   2.479   4.683   4.744
 2796SOL    HW2 8412   2.372   4.594   4.830
 2797SOL     OW 8413   3.071   4.249   3.999
 2797SOL    HW1 8414   3.084   4.165   4.053
 2797SOL    HW2 8415   3.042   4.323   4.059
 2798SOL     OW 8416   2.169   3.937   4.955
 2798SOL    HW1 8417   2.146   3.974   5.045
 2798SOL    HW2 8418   2.139   3.842   4.949
 2799SOL     OW 8419   2.594   4.358   4.788
 2799SOL    HW1 8420   2.653   4.332   4.712
 2799SOL    HW2 8421   2.566   4.454   4.777
 2800SOL     OW 8422   2.169   3.787   4.342
 2800SOL    HW1 8423   2.158   3.881   4.375
 2800SOL    HW2 8424   2.164   3.724   4.419
 2801SOL     OW 8425   3.484   4.091   4.098
 2801SOL    HW1 8426   3.486   4.015   4.162
 2801SOL    HW2 8427   3.436   4.168   4.138
 2802SOL     OW 8428   3.402   3.998   3.849
 2802SOL    HW1 8429   3.341   3.923   3.872
 2802SOL    HW2 8430   3.424   4.050   3.932
 2803SOL     OW 8431   3.165   4.562   3.766
 2803SOL    HW1 8432   3.199   4.469   3.781
 2803SOL    HW2 8433   3.183   4.589   3.671
 2804SOL     OW 8434   2.181   4.534   4.673
 2804SOL    HW1 8435   2.274   4.570   4.678
 2804SOL    HW2 8436   2.175   4.449   4.725
 2805SOL     OW 8437   2.201   4.233   4.730
 2805SOL    HW1 8438   2.149   4.150   4.713
 2805SOL    HW2 8439   2.278   4.238   4.666
 2806SOL     OW 8440   2.864   4.520   4.962
 2806SOL    HW1 8441   2.905   4.488   5.048
 2806SOL    HW2 8442   2.768   4.493   4.959
 2807SOL     OW 8443   2.677   4.296   4.049
 2807SOL    HW1 8444   2.684   4.207   4.003
 2807SOL    HW2 8445   2.583   4.330   4.041
 2808SOL     OW 8446   2.533   4.188   4.993
 2808SOL    HW1 8447   2.499   4.099   4.963
 2808SOL    HW2 8448   2.559   4.242   4.913
 2809SOL     OW 8449   2.335   4.224   3.915
 2809SOL    HW1 8450   2.396   4.304   3.919
 2809SOL    HW2 8451   2.240   4.255   3.922
 2810SOL     OW 8452   3.164   4.579   4.033
 2810SOL    HW1 8453   3.078   4.548   4.075
 2810SOL    HW2 8454   3.160   4.565   3.934
 2811SOL     OW 8455   3.588   3.859   4.247
 2811SOL    HW1 8456   3.661   3.842   4.180
 2811SOL    HW2 8457   3.557   3.772   4.285
 2812SOL     OW 8458   3.142   4.651   4.396
 2812SOL    HW1 8459   3.202   4.570   4.398
 2812SOL    HW2 8460   3.182   4.720   4.336
 2813SOL     OW 8461   3.703   3.899   4.687
 2813SOL    HW1 8462   3.742   3.814   4.651
 2813SOL    HW2 8463   3.605   3.901   4.668
 2814SOL     OW 8464   2.125   4.050   4.444
 2814SOL    HW1 8465   2.046   4.101   4.410
 2814SOL    HW2 8466   2.116   4.035   4.542
 2815SOL     OW 8467   2.778   4.634   4.015
 2815SOL    HW1 8468   2.841   4.672   3.947
 2815SOL    HW2 8469   2.818   4.551   4.054
 2816SOL     OW 8470   2.876   3.960   4.695
 2816SOL    HW1 8471   2.868   3.924   4.602
 2816SOL    HW2 8472   2.874   3.884   4.760
 2817SOL     OW 8473   1.937   4.069   3.757
 2817SOL    HW1 8474   1.845   4.041   3.728
 2817SOL    HW2 8475   1.968   4.146   3.701
 2818SOL     OW 8476   1.934   3.890   4.042
 2818SOL    HW1 8477   1.917   3.973   3.988
 2818SOL    HW2 8478   2.024   3.853   4.020
 2819SOL     OW 8479   3.045   5.059   3.843
 2819SOL    HW1 8480   2.946   5.048   3.845
 2819SOL    HW2 8481   3.079   5.074   3.936
 2820SOL     OW 8482   3.536   4.607   4.978
 2820SOL    HW1 8483   3.509   4.518   4.941
 2820SOL    HW2 8484   3.537   4.675   4.905
 2821SOL     OW 8485   3.087   4.049   4.173
 2821SOL    HW1 8486   3.152   3.975   4.162
 2821SOL    HW2 8487   3.107   4.099   4.257
 2822SOL     OW 8488   2.456   4.469   4.376
 2822SOL    HW1 8489   2.506   4.554   4.357
 2822SOL    HW2 8490   2.368   4.471   4.328
 2823SOL     OW 8491   2.721   4.680   4.585
 2823SOL    HW1 8492   2.775   4.611   4.633
 2823SOL    HW2 8493   2.689   4.749   4.651
 2824SOL     OW 8494   2.945   4.708   3.811
 2824SOL    HW1 8495   2.922   4.761   3.729
 2824SOL    HW2 8496   3.026   4.652   3.792
 2825SOL     OW 8497   1.941   4.964   4.377
 2825SOL    HW1 8498   1.940   4.917   4.465
 2825SOL    HW2 8499   2.023   4.936   4.326
 2826SOL     OW 8500   3.686   3.916   4.951
 2826SOL    HW1 8501   3.682   3.826   4.995
 2826SOL    HW2 8502   3.689   3.905   4.852
 2827SOL     OW 8503   2.290   4.148   4.244
 2827SOL    HW1 8504   2.320   4.076   4.182
 2827SOL    HW2 8505   2.251   4.108   4.327
 2828SOL     OW 8506   3.214   3.776   3.892
 2828SOL    HW1 8507   3.249   3.735   3.808
 2828SOL    HW2 8508   3.124   3.738   3.912
 2829SOL     OW 8509   3.162   4.177   4.415
 2829SOL    HW1 8510   3.103   4.257   4.419
 2829SOL    HW2 8511   3.177   4.142   4.508
 2830SOL     OW 8512   3.455   3.945   4.606
 2830SOL    HW1 8513   3.371   3.944   4.660
 2830SOL    HW2 8514   3.457   4.028   4.550
 2831SOL     OW 8515   1.901   4.801   4.024
 2831SOL    HW1 8516   2.000   4.790   4.015
 2831SOL    HW2 8517   1.861   4.715   4.056
 2832SOL     OW 8518   3.954   0.628   0.113
 2832SOL    HW1 8519   3.861   0.626   0.150
 2832SOL    HW2 8520   3.955   0.589   0.021
 2833SOL     OW 8521   3.949   0.275   0.996
 2833SOL    HW1 8522   3.984   0.258   1.088
 2833SOL    HW2 8523   3.861   0.230   0.984
 2834SOL     OW 8524   3.743   0.368   0.647
 2834SOL    HW1 8525   3.661   0.411   0.686
 2834SOL    HW2 8526   3.715   0.295   0.584
 2835SOL     OW 8527   4.293   1.275   1.165
 2835SOL    HW1 8528   4.200   1.268   1.128
 2835SOL    HW2 8529   4.304   1.364   1.209
 2836SOL     OW 8530   4.492   1.144   1.023
 2836SOL    HW1 8531   4.414   1.161   1.083
 2836SOL    HW2 8532   4.526   1.231   0.987
 2837SOL     OW 8533   4.574   0.798   1.823
 2837SOL    HW1 8534   4.570   0.874   1.888
 2837SOL    HW2 8535   4.596   0.834   1.732
 2838SOL     OW 8536   4.409   1.012   0.665
 2838SOL    HW1 8537   4.478   0.996   0.735
 2838SOL    HW2 8538   4.336   1.069   0.703
 2839SOL     OW 8539   4.410   1.161   1.803
 2839SOL    HW1 8540   4.470   1.240   1.817
 2839SOL    HW2 8541   4.324   1.192   1.762
 2840SOL     OW 8542   4.059   1.435   1.061
 2840SOL    HW1 8543   3.981   1.404   1.008
 2840SOL    HW2 8544   4.117   1.493   1.004
 2841SOL     OW 8545   4.162   0.392   1.499
 2841SOL    HW1 8546   4.244   0.336   1.508
 2841SOL    HW2 8547   4.081   0.334   1.503
 2842SOL     OW 8548   3.955   1.713   0.483
 2842SOL    HW1 8549   3.989   1.790   0.537
 2842SOL    HW2 8550   3.999   1.713   0.393
 2843SOL     OW 8551   3.954   1.434   0.538
 2843SOL    HW1 8552   3.928   1.530   0.538
 2843SOL    HW2 8553   3.883   1.380   0.583
 2844SOL     OW 8554   3.964   1.091   0.886
 2844SOL    HW1 8555   3.978   1.007   0.938
 2844SOL    HW2 8556   3.909   1.155   0.941
 2845SOL     OW 8557   4.344   1.786   1.439
 2845SOL    HW1 8558   4.252   1.769   1.474
 2845SOL    HW2 8559   4.372   1.878   1.465
 2846SOL     OW 8560   4.330   0.964   0.123
 2846SOL    HW1 8561   4.337   1.048   0.069
 2846SOL    HW2 8562   4.376   0.977   0.211
 2847SOL     OW 8563   3.846   0.643   0.563
 2847SOL    HW1 8564   3.801   0.555   0.580
 2847SOL    HW2 8565   3.845   0.697   0.647
 2848SOL     OW 8566   3.751   1.596   0.117
 2848SOL    HW1 8567   3.732   1.500   0.138
 2848SOL    HW2 8568   3.718   1.654   0.192
 2849SOL     OW 8569   3.837   0.737   1.597
 2849SOL    HW1 8570   3.925   0.724   1.642
 2849SOL    HW2 8571   3.824   0.834   1.575
 2850SOL     OW 8572   4.337   1.365   0.726
 2850SOL    HW1 8573   4.288   1.278   0.735
 2850SOL    HW2 8574   4.314   1.408   0.639
 2851SOL     OW 8575   4.533   0.004   0.502
 2851SOL    HW1 8576   4.573   0.095   0.493
 2851SOL    HW2 8577   4.433   0.012   0.508
 2852SOL     OW 8578   3.921   0.976   1.264
 2852SOL    HW1 8579   4.010   0.931   1.250
 2852SOL    HW2 8580   3.848   0.911   1.245
 2853SOL     OW 8581   4.041   0.251   1.801
 2853SOL    HW1 8582   4.112   0.322   1.807
 2853SOL    HW2 8583   3.953   0.290   1.829
 2854SOL     OW 8584   4.322   0.729   0.270
 2854SOL    HW1 8585   4.346   0.798   0.202
 2854SOL    HW2 8586   4.244   0.762   0.324
 2855SOL     OW 8587   4.531   0.605   1.465
 2855SOL    HW1 8588   4.484   0.602   1.554
 2855SOL    HW2 8589   4.480   0.550   1.399
 2856SOL     OW 8590   4.697   0.890   1.572
 2856SOL    HW1 8591   4.743   0.806   1.543
 2856SOL    HW2 8592   4.641   0.924   1.497
 2857SOL     OW 8593   4.715   0.410   1.242
 2857SOL    HW1 8594   4.638   0.444   1.296
 2857SOL    HW2 8595   4.681   0.359   1.163
 2858SOL     OW 8596   4.765   0.701   0.429
 2858SOL    HW1 8597   4.791   0.697   0.525
 2858SOL    HW2 8598   4.680   0.650   0.415
 2859SOL     OW 8599   3.800   0.811   0.789
 2859SOL    HW1 8600   3.899   0.799   0.798
 2859SOL    HW2 8601   3.776   0.906   0.810
 2860SOL     OW 8602   3.854   1.821   1.571
 2860SOL    HW1 8603   3.844   1.806   1.670
 2860SOL    HW2 8604   3.768   1.857   1.535
 2861SOL     OW 8605   4.589   0.348   0.195
 2861SOL    HW1 8606   4.648   0.411   0.146
 2861SOL    HW2 8607   4.608   0.254   0.166
 2862SOL     OW 8608   4.274   0.196   0.885
 2862SOL    HW1 8609   4.269   0.191   0.985
 2862SOL    HW2 8610   4.276   0.292   0.856
 2863SOL     OW 8611   4.732   1.456   0.477
 2863SOL    HW1 8612   4.686   1.528   0.425
 2863SOL    HW2 8613   4.728   1.476   0.575
 2864SOL     OW 8614   4.075   1.801   0.853
 2864SOL    HW1 8615   4.125   1.715   0.859
 2864SOL    HW2 8616   4.140   1.878   0.850
 2865SOL     OW 8617   4.045   0.943   0.242
 2865SOL    HW1 8618   4.127   0.982   0.200
 2865SOL    HW2 8619   4.018   0.861   0.193
 2866SOL     OW 8620   4.185   1.266   1.727
 2866SOL    HW1 8621   4.135   1.267   1.641
 2866SOL    HW2 8622   4.122   1.248   1.803
 2867SOL     OW 8623   3.926   0.285   1.498
 2867SOL    HW1 8624   3.846   0.345   1.485
 2867SOL    HW2 8625   3.916   0.236   1.584
 2868SOL     OW 8626   4.188   1.743   0.323
 2868SOL    HW1 8627   4.221   1.782   0.409
 2868SOL    HW2 8628   4.264   1.736   0.258
 2869SOL     OW 8629   3.973   1.785   1.241
 2869SOL    HW1 8630   4.030   1.720   1.291
 2869SOL    HW2 8631   3.957   1.752   1.148
 2870SOL     OW 8632   4.664   1.698   0.904
 2870SOL    HW1 8633   4.744   1.641   0.925
 2870SOL    HW2 8634   4.615   1.658   0.827
 2871SOL     OW 8635   4.106   0.700   0.480
 2871SOL    HW1 8636   4.151   0.610   0.477
 2871SOL    HW2 8637   4.012   0.689   0.513
 2872SOL     OW 8638   4.338   0.122   0.117
 2872SOL    HW1 8639   4.436   0.100   0.124
 2872SOL    HW2 8640   4.307   0.105   0.024
 2873SOL     OW 8641   4.505   0.264   1.749
 2873SOL    HW1 8642   4.572   0.203   1.792
 2873SOL    HW2 8643   4.432   0.283   1.814
 2874SOL     OW 8644   4.612   1.514   1.195
 2874SOL    HW1 8645   4.589   1.489   1.101
 2874SOL    HW2 8646   4.673   1.445   1.234
 2875SOL     OW 8647   4.527   1.402   0.924
 2875SOL    HW1 8648   4.617   1.416   0.882
 2875SOL    HW2 8649   4.456   1.404   0.853
 2876SOL     OW 8650   4.646   0.503   0.899
 2876SOL    HW1 8651   4.621   0.494   0.803
 2876SOL    HW2 8652   4.694   0.421   0.930
 2877SOL     OW 8653   4.263   0.064   0.512
 2877SOL    HW1 8654   4.182   0.065   0.570
 2877SOL    HW2 8655   4.266   0.147   0.457
 2878SOL     OW 8656   5.158   1.188   0.041
 2878SOL    HW1 8657   5.190   1.112   0.098
 2878SOL    HW2 8658   5.066   1.215   0.071
 2879SOL     OW 8659   4.021   0.035   0.171
 2879SOL    HW1 8660   4.070   0.119   0.150
 2879SOL    HW2 8661   4.083  -0.030   0.216
 2880SOL     OW 8662   4.659   0.236   0.480
 2880SOL    HW1 8663   4.611   0.277   0.402
 2880SOL    HW2 8664   4.758   0.234   0.461
 2881SOL     OW 8665   4.951   1.570   0.793
 2881SOL    HW1 8666   4.972   1.644   0.728
 2881SOL    HW2 8667   5.019   1.570   0.866
 2882SOL     OW 8668   4.183   1.152   0.741
 2882SOL    HW1 8669   4.112   1.125   0.806
 2882SOL    HW2 8670   4.157   1.124   0.648
 2883SOL     OW 8671   4.756   0.549   0.016
 2883SOL    HW1 8672   4.715   0.631  -0.023
 2883SOL    HW2 8673   4.820   0.575   0.089
 2884SOL     OW 8674   3.802   0.556   1.386
 2884SOL    HW1 8675   3.894   0.555   1.345
 2884SOL    HW2 8676   3.796   0.630   1.453
 2885SOL     OW 8677   4.285   0.222   1.147
 2885SOL    HW1 8678   4.323   0.138   1.184
 2885SOL    HW2 8679   4.197   0.241   1.191
 2886SOL     OW 8680   4.590   0.454   0.642
 2886SOL    HW1 8681   4.558   0.526   0.580
 2886SOL    HW2 8682   4.614   0.373   0.589
 2887SOL     OW 8683   4.741   0.039   0.753
 2887SOL    HW1 8684   4.669   0.044   0.684
 2887SOL    HW2 8685   4.717  -0.030   0.822
 2888SOL     OW 8686   4.212   1.385   0.174
 2888SOL    HW1 8687   4.125   1.370   0.221
 2888SOL    HW2 8688   4.195   1.411   0.079
 2889SOL     OW 8689   4.251   0.256   0.328
 2889SOL    HW1 8690   4.278   0.197   0.253
 2889SOL    HW2 8691   4.251   0.351   0.297
 2890SOL     OW 8692   4.639   0.089   1.402
 2890SOL    HW1 8693   4.664   0.069   1.307
 2890SOL    HW2 8694   4.711   0.145   1.444
 2891SOL     OW 8695   4.704   1.116   1.719
 2891SOL    HW1 8696   4.605   1.122   1.729
 2891SOL    HW2 8697   4.727   1.036   1.663
 2892SOL     OW 8698   4.429   1.050   0.368
 2892SOL    HW1 8699   4.415   1.057   0.467
 2892SOL    HW2 8700   4.513   0.999   0.350
 2893SOL     OW 8701   4.134   0.813   1.251
 2893SOL    HW1 8702   4.220   0.825   1.301
 2893SOL    HW2 8703   4.092   0.726   1.278
 2894SOL     OW 8704   3.788   1.564   1.331
 2894SOL    HW1 8705   3.742   1.646   1.297
 2894SOL    HW2 8706   3.886   1.583   1.340
 2895SOL     OW 8707   4.091   1.100   0.501
 2895SOL    HW1 8708   4.084   1.183   0.445
 2895SOL    HW2 8709   4.095   1.020   0.441
 2896SOL     OW 8710   4.290   0.537   0.865
 2896SOL    HW1 8711   4.302   0.603   0.791
 2896SOL    HW2 8712   4.336   0.571   0.948
 2897SOL     OW 8713   4.078   1.510   1.329
 2897SOL    HW1 8714   4.057   1.466   1.242
 2897SOL    HW2 8715   4.175   1.536   1.332
 2898SOL     OW 8716   4.126   0.751   1.598
 2898SOL    HW1 8717   4.194   0.806   1.551
 2898SOL    HW2 8718   4.166   0.663   1.625
 2899SOL     OW 8719   4.737   0.105   1.770
 2899SOL    HW1 8720   4.743   0.190   1.718
 2899SOL    HW2 8721   4.769   0.029   1.713
 2900SOL     OW 8722   4.228   0.050   1.740
 2900SOL    HW1 8723   4.186  -0.007   1.670
 2900SOL    HW2 8724   4.162   0.119   1.772
 2901SOL     OW 8725   4.297   0.870   1.029
 2901SOL    HW1 8726   4.341   0.959   1.020
 2901SOL    HW2 8727   4.234   0.870   1.106
 2902SOL     OW 8728   4.933   0.525   0.275
 2902SOL    HW1 8729   4.946   0.441   0.329
 2902SOL    HW2 8730   4.904   0.599   0.335
 2903SOL     OW 8731   4.031   0.213   1.231
 2903SOL    HW1 8732   4.008   0.250   1.321
 2903SOL    HW2 8733   4.001   0.118   1.225
 2904SOL     OW 8734   3.761   1.310   1.282
 2904SOL    HW1 8735   3.814   1.261   1.350
 2904SOL    HW2 8736   3.783   1.408   1.287
 2905SOL     OW 8737   4.456   0.634   1.064
 2905SOL    HW1 8738   4.515   0.608   0.988
 2905SOL    HW2 8739   4.428   0.730   1.053
 2906SOL     OW 8740   4.031   0.063   0.618
 2906SOL    HW1 8741   4.020   0.157   0.651
 2906SOL    HW2 8742   4.026   0.000   0.695
 2907SOL     OW 8743   4.747   0.766   0.966
 2907SOL    HW1 8744   4.762   0.787   1.062
 2907SOL    HW2 8745   4.717   0.671   0.957
 2908SOL     OW 8746   4.704   1.573   1.700
 2908SOL    HW1 8747   4.684   1.617   1.612
 2908SOL    HW2 8748   4.743   1.482   1.684
 2909SOL     OW 8749   4.074   0.898   1.804
 2909SOL    HW1 8750   4.150   0.942   1.852
 2909SOL    HW2 8751   4.109   0.851   1.722
 2910SOL     OW 8752   4.043   0.810   0.949
 2910SOL    HW1 8753   4.136   0.846   0.954
 2910SOL    HW2 8754   4.037   0.725   1.001
 2911SOL     OW 8755   4.063   0.509   1.006
 2911SOL    HW1 8756   4.011   0.426   0.989
 2911SOL    HW2 8757   4.140   0.514   0.942
 2912SOL     OW 8758   3.732   1.326   0.200
 2912SOL    HW1 8759   3.639   1.347   0.169
 2912SOL    HW2 8760   3.742   1.227   0.213
 2913SOL     OW 8761   3.812   1.801   0.927
 2913SOL    HW1 8762   3.770   1.715   0.900
 2913SOL    HW2 8763   3.906   1.804   0.893
 2914SOL     OW 8764   4.228   1.568   0.910
 2914SOL    HW1 8765   4.294   1.642   0.919
 2914SOL    HW2 8766   4.272   1.489   0.868
 2915SOL     OW 8767   4.726   0.796   1.238
 2915SOL    HW1 8768   4.767   0.764   1.324
 2915SOL    HW2 8769   4.630   0.769   1.235
 2916SOL     OW 8770   3.764   0.544   1.114
 2916SOL    HW1 8771   3.849   0.511   1.073
 2916SOL    HW2 8772   3.777   0.559   1.212
 2917SOL     OW 8773   3.913   0.520   1.722
 2917SOL    HW1 8774   3.972   0.480   1.652
 2917SOL    HW2 8775   3.855   0.591   1.681
 2918SOL     OW 8776   4.539   0.572   0.325
 2918SOL    HW1 8777   4.546   0.483   0.279
 2918SOL    HW2 8778   4.445   0.606   0.317
 2919SOL     OW 8779   3.976   1.564   1.744
 2919SOL    HW1 8780   3.946   1.621   1.820
 2919SOL    HW2 8781   3.969   1.467   1.770
 2920SOL     OW 8782   4.395   0.464   1.269
 2920SOL    HW1 8783   4.361   0.375   1.239
 2920SOL    HW2 8784   4.421   0.518   1.189
 2921SOL     OW 8785   4.654   1.678   1.465
 2921SOL    HW1 8786   4.630   1.660   1.370
 2921SOL    HW2 8787   4.684   1.772   1.475
 2922SOL     OW 8788   4.197   0.500   0.191
 2922SOL    HW1 8789   4.258   0.580   0.195
 2922SOL    HW2 8790   4.102   0.531   0.198
 2923SOL     OW 8791   3.883   1.137   1.466
 2923SOL    HW1 8792   3.905   1.076   1.542
 2923SOL    HW2 8793   3.893   1.088   1.380
 2924SOL     OW 8794   3.807   1.258   1.022
 2924SOL    HW1 8795   3.802   1.257   1.122
 2924SOL    HW2 8796   3.724   1.217   0.984
 2925SOL     OW 8797   4.412   1.662   1.716
 2925SOL    HW1 8798   4.356   1.743   1.725
 2925SOL    HW2 8799   4.464   1.666   1.630
 2926SOL     OW 8800   4.627   0.086   0.133
 2926SOL    HW1 8801   4.678   0.087   0.047
 2926SOL    HW2 8802   4.683   0.044   0.204
 2927SOL     OW 8803   3.854   1.794   1.851
 2927SOL    HW1 8804   3.813   1.720   1.904
 2927SOL    HW2 8805   3.918   1.845   1.909
 2928SOL     OW 8806   5.004   0.927   0.672
 2928SOL    HW1 8807   5.064   0.846   0.674
 2928SOL    HW2 8808   5.044   0.996   0.612
 2929SOL     OW 8809   4.554   1.273   1.422
 2929SOL    HW1 8810   4.549   1.306   1.517
 2929SOL    HW2 8811   4.468   1.292   1.376
 2930SOL     OW 8812   4.396   1.616   0.154
 2930SOL    HW1 8813   4.405   1.626   0.055
 2930SOL    HW2 8814   4.356   1.527   0.175
 2931SOL     OW 8815   3.987   0.326   0.720
 2931SOL    HW1 8816   3.908   0.377   0.686
 2931SOL    HW2 8817   3.978   0.311   0.818
 2932SOL     OW 8818   4.546   1.002   1.372
 2932SOL    HW1 8819   4.586   1.001   1.280
 2932SOL    HW2 8820   4.556   1.094   1.412
 2933SOL     OW 8821   4.640   0.910   0.291
 2933SOL    HW1 8822   4.703   0.948   0.223
 2933SOL    HW2 8823   4.680   0.827   0.330
 2934SOL     OW 8824   4.096   1.288   1.490
 2934SOL    HW1 8825   4.083   1.381   1.456
 2934SOL    HW2 8826   4.012   1.236   1.477
 2935SOL     OW 8827   4.763   1.098   0.696
 2935SOL    HW1 8828   4.693   1.051   0.750
 2935SOL    HW2 8829   4.822   1.030   0.653
 2936SOL     OW 8830   4.738   0.236   0.971
 2936SOL    HW1 8831   4.730   0.200   0.878
 2936SOL    HW2 8832   4.736   0.160   1.036
 2937SOL     OW 8833   4.314   1.487   0.491
 2937SOL    HW1 8834   4.356   1.429   0.421
 2937SOL    HW2 8835   4.270   1.566   0.447
 2938SOL     OW 8836   3.979   1.348   0.290
 2938SOL    HW1 8837   3.883   1.349   0.263
 2938SOL    HW2 8838   3.991   1.401   0.374
 2939SOL     OW 8839   3.829   1.013   1.726
 2939SOL    HW1 8840   3.752   0.980   1.780
 2939SOL    HW2 8841   3.914   0.983   1.768
 2940SOL     OW 8842   4.396   0.203   1.489
 2940SOL    HW1 8843   4.486   0.187   1.449
 2940SOL    HW2 8844   4.404   0.208   1.588
 2941SOL     OW 8845   3.799   0.345   0.033
 2941SOL    HW1 8846   3.707   0.317   0.004
 2941SOL    HW2 8847   3.830   0.422  -0.023
 2942SOL     OW 8848   3.796   0.166   0.318
 2942SOL    HW1 8849   3.779   0.249   0.264
 2942SOL    HW2 8850   3.886   0.129   0.296
 2943SOL     OW 8851   4.337   0.842   1.431
 2943SOL    HW1 8852   4.393   0.923   1.414
 2943SOL    HW2 8853   4.396   0.762   1.434
 2944SOL     OW 8854   4.440   0.565   1.708
 2944SOL    HW1 8855   4.459   0.630   1.782
 2944SOL    HW2 8856   4.500   0.485   1.717
 2945SOL     OW 8857   4.114   1.741   1.560
 2945SOL    HW1 8858   4.023   1.782   1.558
 2945SOL    HW2 8859   4.107   1.647   1.592
 2946SOL     OW 8860   4.949   0.325   0.449
 2946SOL    HW1 8861   5.014   0.251   0.438
 2946SOL    HW2 8862   4.969   0.375   0.533
 2947SOL     OW 8863   4.318   0.745   0.652
 2947SOL    HW1 8864   4.368   0.830   0.633
 2947SOL    HW2 8865   4.230   0.747   0.604
 2948SOL     OW 8866   4.583   1.374   0.016
 2948SOL    HW1 8867   4.537   1.389   0.104
 2948SOL    HW2 8868   4.627   1.459  -0.014
 2949SOL     OW 8869   4.385   1.790   0.953
 2949SOL    HW1 8870   4.339   1.878   0.940
 2949SOL    HW2 8871   4.484   1.802   0.946
 2950SOL     OW 8872   4.583   0.956   0.861
 2950SOL    HW1 8873   4.637   0.887   0.909
 2950SOL    HW2 8874   4.551   1.025   0.927
 2951SOL     OW 8875   4.807   0.984   0.087
 2951SOL    HW1 8876   4.784   1.037   0.005
 2951SOL    HW2 8877   4.888   0.928   0.068
 2952SOL     OW 8878   3.945   1.314   1.844
 2952SOL    HW1 8879   3.880   1.241   1.823
 2952SOL    HW2 8880   3.949   1.328   1.942
 2953SOL     OW 8881   3.803   1.240   0.653
 2953SOL    HW1 8882   3.802   1.193   0.741
 2953SOL    HW2 8883   3.885   1.212   0.602
 2954SOL     OW 8884   4.396   1.391   1.624
 2954SOL    HW1 8885   4.318   1.341   1.662
 2954SOL    HW2 8886   4.393   1.486   1.655
 2955SOL     OW 8887   4.152   0.424   0.520
 2955SOL    HW1 8888   4.182   0.352   0.458
 2955SOL    HW2 8889   4.113   0.384   0.603
 2956SOL     OW 8890   4.041   0.547   1.280
 2956SOL    HW1 8891   4.079   0.488   1.352
 2956SOL    HW2 8892   4.081   0.521   1.192
 2957SOL     OW 8893   4.536   1.586   0.687
 2957SOL    HW1 8894   4.568   1.596   0.593
 2957SOL    HW2 8895   4.457   1.524   0.689
 2958SOL     OW 8896   4.725   0.034   1.154
 2958SOL    HW1 8897   4.662  -0.038   1.123
 2958SOL    HW2 8898   4.818  -0.002   1.154
 2959SOL     OW 8899   4.494   1.330   0.301
 2959SOL    HW1 8900   4.448   1.243   0.318
 2959SOL    HW2 8901   4.585   1.327   0.342
 2960SOL     OW 8902   4.342   1.567   1.284
 2960SOL    HW1 8903   4.337   1.649   1.341
 2960SOL    HW2 8904   4.431   1.564   1.239
 2961SOL     OW 8905   3.763   1.077   0.300
 2961SOL    HW1 8906   3.862   1.066   0.291
 2961SOL    HW2 8907   3.723   0.991   0.332
 2962SOL     OW 8908   4.599   1.646   0.337
 2962SOL    HW1 8909   4.522   1.611   0.283
 2962SOL    HW2 8910   4.567   1.717   0.399
 2963SOL     OW 8911   3.954   0.628   1.975
 2963SOL    HW1 8912   3.861   0.626   2.012
 2963SOL    HW2 8913   3.955   0.589   1.883
 2964SOL     OW 8914   3.949   0.275   2.858
 2964SOL    HW1 8915   3.984   0.258   2.950
 2964SOL    HW2 8916   3.861   0.230   2.846
 2965SOL     OW 8917   3.743   0.368   2.509
 2965SOL    HW1 8918   3.661   0.411   2.548
 2965SOL    HW2 8919   3.715   0.295   2.446
 2966SOL     OW 8920   4.293   1.275   3.027
 2966SOL    HW1 8921   4.200   1.268   2.990
 2966SOL    HW2 8922   4.304   1.364   3.071
 2967SOL     OW 8923   4.492   1.144   2.885
 2967SOL    HW1 8924   4.414   1.161   2.945
 2967SOL    HW2 8925   4.526   1.231   2.849
 2968SOL     OW 8926   4.574   0.798   3.685
 2968SOL    HW1 8927   4.570   0.874   3.750
 2968SOL    HW2 8928   4.596   0.834   3.594
 2969SOL     OW 8929   4.409   1.012   2.527
 2969SOL    HW1 8930   4.478   0.996   2.597
 2969SOL    HW2 8931   4.336   1.069   2.565
 2970SOL     OW 8932   4.410   1.161   3.665
 2970SOL    HW1 8933   4.470   1.240   3.679
 2970SOL    HW2 8934   4.324   1.192   3.624
 2971SOL     OW 8935   4.059   1.435   2.923
 2971SOL    HW1 8936   3.981   1.404   2.870
 2971SOL    HW2 8937   4.117   1.493   2.866
 2972SOL     OW 8938   4.162   0.392   3.361
 2972SOL    HW1 8939   4.244   0.336   3.370
 2972SOL    HW2 8940   4.081   0.334   3.365
 2973SOL     OW 8941   3.955   1.713   2.345
 2973SOL    HW1 8942   3.989   1.790   2.399
 2973SOL    HW2 8943   3.999   1.713   2.255
 2974SOL     OW 8944   3.954   1.434   2.400
 2974SOL    HW1 8945   3.928   1.530   2.400
 2974SOL    HW2 8946   3.883   1.380   2.445
 2975SOL     OW 8947   3.964   1.091   2.748
 2975SOL    HW1 8948   3.978   1.007   2.800
 2975SOL    HW2 8949   3.909   1.155   2.803
 2976SOL     OW 8950   4.344   1.786   3.301
 2976SOL    HW1 8951   4.252   1.769   3.336
 2976SOL    HW2 8952   4.372   1.878   3.327
 2977SOL     OW 8953   4.330   0.964   1.985
 2977SOL    HW1 8954   4.337   1.048   1.931
 2977SOL    HW2 8955   4.376   0.977   2.073
 2978SOL     OW 8956   3.846   0.643   2.425
 2978SOL    HW1 8957   3.801   0.555   2.442
 2978SOL    HW2 8958   3.845   0.697   2.509
 2979SOL     OW 8959   3.751   1.596   1.979
 2979SOL    HW1 8960   3.732   1.500   2.000
 2979SOL    HW2 8961   3.718   1.654   2.054
 2980SOL     OW 8962   3.837   0.737   3.459
 2980SOL    HW1 8963   3.925   0.724   3.504
 2980SOL    HW2 8964   3.824   0.834   3.437
 2981SOL     OW 8965   4.337   1.365   2.588
 2981SOL    HW1 8966   4.288   1.278   2.597
 2981SOL    HW2 8967   4.314   1.408   2.501
 2982SOL     OW 8968   4.533   0.004   2.364
 2982SOL    HW1 8969   4.573   0.095   2.355
 2982SOL    HW2 8970   4.433   0.012   2.370
 2983SOL     OW 8971   3.921   0.976   3.126
 2983SOL    HW1 8972   4.010   0.931   3.112
 2983SOL    HW2 8973   3.848   0.911   3.107
 2984SOL     OW 8974   4.041   0.251   3.663
 2984SOL    HW1 8975   4.112   0.322   3.669
 2984SOL    HW2 8976   3.953   0.290   3.691
 2985SOL     OW 8977   4.322   0.729   2.132
 2985SOL    HW1 8978   4.346   0.798   2.064
 2985SOL    HW2 8979   4.244   0.762   2.186
 2986SOL     OW 8980   4.531   0.605   3.327
 2986SOL    HW1 8981   4.484   0.602   3.416
 2986SOL    HW2 8982   4.480   0.550   3.261
 2987SOL     OW 8983   4.697   0.890   3.434
 2987SOL    HW1 8984   4.743   0.806   3.405
 2987SOL    HW2 8985   4.641   0.924   3.359
 2988SOL     OW 8986   4.715   0.410   3.104
 2988SOL    HW1 8987   4.638   0.444   3.158
 2988SOL    HW2 8988   4.681   0.359   3.025
 2989SOL     OW 8989   4.765   0.701   2.291
 2989SOL    HW1 8990   4.791   0.697   2.387
 2989SOL    HW2 8991   4.680   0.650   2.277
 2990SOL     OW 8992   3.800   0.811   2.651
 2990SOL    HW1 8993   3.899   0.799   2.660
 2990SOL    HW2 8994   3.776   0.906   2.672
 2991SOL     OW 8995   3.854   1.821   3.433
 2991SOL    HW1 8996   3.844   1.806   3.532
 2991SOL    HW2 8997   3.768   1.857   3.397
 2992SOL     OW 8998   4.589   0.348   2.057
 2992SOL    HW1 8999   4.648   0.411   2.008
 2992SOL    HW2 9000   4.608   0.254   2.028
 2993SOL     OW 9001   4.274   0.196   2.747
 2993SOL    HW1 9002   4.269   0.191   2.847
 2993SOL    HW2 9003   4.276   0.292   2.718
 2994SOL     OW 9004   4.732   1.456   2.339
 2994SOL    HW1 9005   4.686   1.528   2.287
 2994SOL    HW2 9006   4.728   1.476   2.437
 2995SOL     OW 9007   4.075   1.801   2.715
 2995SOL    HW1 9008   4.125   1.715   2.721
 2995SOL    HW2 9009   4.140   1.878   2.712
 2996SOL     OW 9010   4.045   0.943   2.104
 2996SOL    HW1 9011   4.127   0.982   2.062
 2996SOL    HW2 9012   4.018   0.861   2.055
 2997SOL     OW 9013   4.185   1.266   3.589
 2997SOL    HW1 9014   4.135   1.267   3.503
 2997SOL    HW2 9015   4.122   1.248   3.665
 2998SOL     OW 9016   3.926   0.285   3.360
 2998SOL    HW1 9017   3.846   0.345   3.347
 2998SOL    HW2 9018   3.916   0.236   3.446
 2999SOL     OW 9019   4.188   1.743   2.185
 2999SOL    HW1 9020   4.221   1.782   2.271
 2999SOL    HW2 9021   4.264   1.736   2.120
 3000SOL     OW 9022   3.973   1.785   3.103
 3000SOL    HW1 9023   4.030   1.720   3.153
 3000SOL    HW2 9024   3.957   1.752   3.010
 3001SOL     OW 9025   4.664   1.698   2.766
 3001SOL    HW1 9026   4.744   1.641   2.787
 3001SOL    HW2 9027   4.615   1.658   2.689
 3002SOL     OW 9028   4.106   0.700   2.342
 3002SOL    HW1 9029   4.151   0.610   2.339
 3002SOL    HW2 9030   4.012   0.689   2.375
 3003SOL     OW 9031   4.338   0.122   1.979
 3003SOL    HW1 9032   4.436   0.100   1.986
 3003SOL    HW2 9033   4.307   0.105   1.886
 3004SOL     OW 9034   4.505   0.264   3.611
 3004SOL    HW1 9035   4.572   0.203   3.654
 3004SOL    HW2 9036   4.432   0.283   3.676
 3005SOL     OW 9037   4.612   1.514   3.057
 3005SOL    HW1 9038   4.589   1.489   2.963
 3005SOL    HW2 9039   4.673   1.445   3.096
 3006SOL     OW 9040   4.527   1.402   2.786
 3006SOL    HW1 9041   4.617   1.416   2.744
 3006SOL    HW2 9042   4.456   1.404   2.715
 3007SOL     OW 9043   4.646   0.503   2.761
 3007SOL    HW1 9044   4.621   0.494   2.665
 3007SOL    HW2 9045   4.694   0.421   2.792
 3008SOL     OW 9046   4.263   0.064   2.374
 3008SOL    HW1 9047   4.182   0.065   2.432
 3008SOL    HW2 9048   4.266   0.147   2.319
 3009SOL     OW 9049   4.021   0.035   2.033
 3009SOL    HW1 9050   4.070   0.119   2.012
 3009SOL    HW2 9051   4.083  -0.030   2.078
 3010SOL     OW 9052   4.659   0.236   2.342
 3010SOL    HW1 9053   4.611   0.277   2.264
 3010SOL    HW2 9054   4.758   0.234   2.323
 3011SOL     OW 9055   4.951   1.570   2.655
 3011SOL    HW1 9056   4.972   1.644   2.590
 3011SOL    HW2 9057   5.019   1.570   2.728
 3012SOL     OW 9058   4.183   1.152   2.603
 3012SOL    HW1 9059   4.112   1.125   2.668
 3012SOL    HW2 9060   4.157   1.124   2.510
 3013SOL     OW 9061   4.756   0.549   1.878
 3013SOL    HW1 9062   4.715   0.631   1.839
 3013SOL    HW2 9063   4.820   0.575   1.951
 3014SOL     OW 9064   3.802   0.556   3.248
 3014SOL    HW1 9065   3.894   0.555   3.207
 3014SOL    HW2 9066   3.796   0.630   3.315
 3015SOL     OW 9067   4.285   0.222   3.009
 3015SOL    HW1 9068   4.323   0.138   3.046
 3015SOL    HW2 9069   4.197   0.241   3.053
 3016SOL     OW 9070   4.590   0.454   2.504
 3016SOL    HW1 9071   4.558   0.526   2.442
 3016SOL    HW2 9072   4.614   0.373   2.451
 3017SOL     OW 9073   4.741   0.039   2.615
 3017SOL    HW1 9074   4.669   0.044   2.546
 3017SOL    HW2 9075   4.717  -0.030   2.684
 3018SOL     OW 9076   4.212   1.385   2.036
 3018SOL    HW1 9077   4.125   1.370   2.083
 3018SOL    HW2 9078   4.195   1.411   1.941
 3019SOL     OW 9079   4.251   0.256   2.190
 3019SOL    HW1 9080   4.278   0.197   2.115
 3019SOL    HW2 9081   4.251   0.351   2.159
 3020SOL     OW 9082   4.639   0.089   3.264
 3020SOL    HW1 9083   4.664   0.069   3.169
 3020SOL    HW2 9084   4.711   0.145   3.306
 3021SOL     OW 9085   4.704   1.116   3.581
 3021SOL    HW1 9086   4.605   1.122   3.591
 3021SOL    HW2 9087   4.727   1.036   3.525
 3022SOL     OW 9088   4.429   1.050   2.230
 3022SOL    HW1 9089   4.415   1.057   2.329
 3022SOL    HW2 9090   4.513   0.999   2.212
 3023SOL     OW 9091   4.134   0.813   3.113
 3023SOL    HW1 9092   4.220   0.825   3.163
 3023SOL    HW2 9093   4.092   0.726   3.140
 3024SOL     OW 9094   3.788   1.564   3.193
 3024SOL    HW1 9095   3.742   1.646   3.159
 3024SOL    HW2 9096   3.886   1.583   3.202
 3025SOL     OW 9097   4.091   1.100   2.363
 3025SOL    HW1 9098   4.084   1.183   2.307
 3025SOL    HW2 9099   4.095   1.020   2.303
 3026SOL     OW 9100   4.290   0.537   2.727
 3026SOL    HW1 9101   4.302   0.603   2.653
 3026SOL    HW2 9102   4.336   0.571   2.810
 3027SOL     OW 9103   4.078   1.510   3.191
 3027SOL    HW1 9104   4.057   1.466   3.104
 3027SOL    HW2 9105   4.175   1.536   3.194
 3028SOL     OW 9106   4.126   0.751   3.460
 3028SOL    HW1 9107   4.194   0.806   3.413
 3028SOL    HW2 9108   4.166   0.663   3.487
 3029SOL     OW 9109   4.737   0.105   3.632
 3029SOL    HW1 9110   4.743   0.190   3.580
 3029SOL    HW2 9111   4.769   0.029   3.575
 3030SOL     OW 9112   4.228   0.050   3.602
 3030SOL    HW1 9113   4.186  -0.007   3.532
 3030SOL    HW2 9114   4.162   0.119   3.634
 3031SOL     OW 9115   4.297   0.870   2.891
 3031SOL    HW1 9116   4.341   0.959   2.882
 3031SOL    HW2 9117   4.234   0.870   2.968
 3032SOL     OW 9118   4.933   0.525   2.137
 3032SOL    HW1 9119   4.946   0.441   2.191
 3032SOL    HW2 9120   4.904   0.599   2.197
 3033SOL     OW 9121   4.031   0.213   3.093
 3033SOL    HW1 9122   4.008   0.250   3.183
 3033SOL    HW2 9123   4.001   0.118   3.087
 3034SOL     OW 9124   3.761   1.310   3.144
 3034SOL    HW1 9125   3.814   1.261   3.212
 3034SOL    HW2 9126   3.783   1.408   3.149
 3035SOL     OW 9127   4.456   0.634   2.926
 3035SOL    HW1 9128   4.515   0.608   2.850
 3035SOL    HW2 9129   4.428   0.730   2.915
 3036SOL     OW 9130   4.031   0.063   2.480
 3036SOL    HW1 9131   4.020   0.157   2.513
 3036SOL    HW2 9132   4.026   0.000   2.557
 3037SOL     OW 9133   4.747   0.766   2.828
 3037SOL    HW1 9134   4.762   0.787   2.924
 3037SOL    HW2 9135   4.717   0.671   2.819
 3038SOL     OW 9136   4.704   1.573   3.562
 3038SOL    HW1 9137   4.684   1.617   3.474
 3038SOL    HW2 9138   4.743   1.482   3.546
 3039SOL     OW 9139   4.074   0.898   3.666
 3039SOL    HW1 9140   4.150   0.942   3.714
 3039SOL    HW2 9141   4.109   0.851   3.584
 3040SOL     OW 9142   4.043   0.810   2.811
 3040SOL    HW1 9143   4.136   0.846   2.816
 3040SOL    HW2 9144   4.037   0.725   2.863
 3041SOL     OW 9145   4.063   0.509   2.868
 3041SOL    HW1 9146   4.011   0.426   2.851
 3041SOL    HW2 9147   4.140   0.514   2.804
 3042SOL     OW 9148   3.732   1.326   2.062
 3042SOL    HW1 9149   3.639   1.347   2.031
 3042SOL    HW2 9150   3.742   1.227   2.075
 3043SOL     OW 9151   3.812   1.801   2.789
 3043SOL    HW1 9152   3.770   1.715   2.762
 3043SOL    HW2 9153   3.906   1.804   2.755
 3044SOL     OW 9154   4.228   1.568   2.772
 3044SOL    HW1 9155   4.294   1.642   2.781
 3044SOL    HW2 9156   4.272   1.489   2.730
 3045SOL     OW 9157   4.726   0.796   3.100
 3045SOL    HW1 9158   4.767   0.764   3.186
 3045SOL    HW2 9159   4.630   0.769   3.097
 3046SOL     OW 9160   3.764   0.544   2.976
 3046SOL    HW1 9161   3.849   0.511   2.935
 3046SOL    HW2 9162   3.777   0.559   3.074
 3047SOL     OW 9163   3.913   0.520   3.584
 3047SOL    HW1 9164   3.972   0.480   3.514
 3047SOL    HW2 9165   3.855   0.591   3.543
 3048SOL     OW 9166   4.539   0.572   2.187
 3048SOL    HW1 9167   4.546   0.483   2.141
 3048SOL    HW2 9168   4.445   0.606   2.179
 3049SOL     OW 9169   3.976   1.564   3.606
 3049SOL    HW1 9170   3.946   1.621   3.682
 3049SOL    HW2 9171   3.969   1.467   3.632
 3050SOL     OW 9172   4.395   0.464   3.131
 3050SOL    HW1 9173   4.361   0.375   3.101
 3050SOL    HW2 9174   4.421   0.518   3.051
 3051SOL     OW 9175   4.654   1.678   3.327
 3051SOL    HW1 9176   4.630   1.660   3.232
 3051SOL    HW2 9177   4.684   1.772   3.337
 3052SOL     OW 9178   4.197   0.500   2.053
 3052SOL    HW1 9179   4.258   0.580   2.057
 3052SOL    HW2 9180   4.102   0.531   2.060
 3053SOL     OW 9181   3.883   1.137   3.328
 3053SOL    HW1 9182   3.905   1.076   3.404
 3053SOL    HW2 9183   3.893   1.088   3.242
 3054SOL     OW 9184   3.807   1.258   2.884
 3054SOL    HW1 9185   3.802   1.257   2.984
 3054SOL    HW2 9186   3.724   1.217   2.846
 3055SOL     OW 9187   4.412   1.662   3.578
 3055SOL    HW1 9188   4.356   1.743   3.587
 3055SOL    HW2 9189   4.464   1.666   3.492
 3056SOL     OW 9190   3.854   1.794   3.713
 3056SOL    HW1 9191   3.813   1.720   3.766
 3056SOL    HW2 9192   3.918   1.845   3.771
 3057SOL     OW 9193   5.004   0.927   2.534
 3057SOL    HW1 9194   5.064   0.846   2.536
 3057SOL    HW2 9195   5.044   0.996   2.474
 3058SOL     OW 9196   4.554   1.273   3.284
 3058SOL    HW1 9197   4.549   1.306   3.379
 3058SOL    HW2 9198   4.468   1.292   3.238
 3059SOL     OW 9199   4.396   1.616   2.016
 3059SOL    HW1 9200   4.405   1.626   1.917
 3059SOL    HW2 9201   4.356   1.527   2.037
 3060SOL     OW 9202   3.987   0.326   2.582
 3060SOL    HW1 9203   3.908   0.377   2.548
 3060SOL    HW2 9204   3.978   0.311   2.680
 3061SOL     OW 9205   4.546   1.002   3.234
 3061SOL    HW1 9206   4.586   1.001   3.142
 3061SOL    HW2 9207   4.556   1.094   3.274
 3062SOL     OW 9208   4.640   0.910   2.153
 3062SOL    HW1 9209   4.703   0.948   2.085
 3062SOL    HW2 9210   4.680   0.827   2.192
 3063SOL     OW 9211   4.096   1.288   3.352
 3063SOL    HW1 9212   4.083   1.381   3.318
 3063SOL    HW2 9213   4.012   1.236   3.339
 3064SOL     OW 9214   4.763   1.098   2.558
 3064SOL    HW1 9215   4.693   1.051   2.612
 3064SOL    HW2 9216   4.822   1.030   2.515
 3065SOL     OW 9217   4.738   0.236   2.833
 3065SOL    HW1 9218   4.730   0.200   2.740
 3065SOL    HW2 9219   4.736   0.160   2.898
 3066SOL     OW 9220   4.314   1.487   2.353
 3066SOL    HW1 9221   4.356   1.429   2.283
 3066SOL    HW2 9222   4.270   1.566   2.309
 3067SOL     OW 9223   3.979   1.348   2.152
 3067SOL    HW1 9224   3.883   1.349   2.125
 3067SOL    HW2 9225   3.991   1.401   2.236
 3068SOL     OW 9226   3.829   1.013   3.588
 3068SOL    HW1 9227   3.752   0.980   3.642
 3068SOL    HW2 9228   3.914   0.983   3.630
 3069SOL     OW 9229   4.396   0.203   3.351
 3069SOL    HW1 9230   4.486   0.187   3.311
 3069SOL    HW2 9231   4.404   0.208   3.450
 3070SOL     OW 9232   3.799   0.345   1.895
 3070SOL    HW1 9233   3.707   0.317   1.866
 3070SOL    HW2 9234   3.830   0.422   1.839
 3071SOL     OW 9235   3.796   0.166   2.180
 3071SOL    HW1 9236   3.779   0.249   2.126
 3071SOL    HW2 9237   3.886   0.129   2.158
 3072SOL     OW 9238   4.337   0.842   3.293
 3072SOL    HW1 9239   4.393   0.923   3.276
 3072SOL    HW2 9240   4.396   0.762   3.296
 3073SOL     OW 9241   4.440   0.565   3.570
 3073SOL    HW1 9242   4.459   0.630   3.644
 3073SOL    HW2 9243   4.500   0.485   3.579
 3074SOL     OW 9244   4.114   1.741   3.422
 3074SOL    HW1 9245   4.023   1.782   3.420
 3074SOL    HW2 9246   4.107   1.647   3.454
 3075SOL     OW 9247   4.949   0.325   2.311
 3075SOL    HW1 9248   5.014   0.251   2.300
 3075SOL    HW2 9249   4.969   0.375   2.395
 3076SOL     OW 9250   4.318   0.745   2.514
 3076SOL    HW1 9251   4.368   0.830   2.495
 3076SOL    HW2 9252   4.230   0.747   2.466
 3077SOL     OW 9253   4.583   1.374   1.878
 3077SOL    HW1 9254   4.537   1.389   1.966
 3077SOL    HW2 9255   4.627   1.459   1.848
 3078SOL     OW 9256   4.385   1.790   2.815
 3078SOL    HW1 9257   4.339   1.878   2.802
 3078SOL    HW2 9258   4.484   1.802   2.808
 3079SOL     OW 9259   4.583   0.956   2.723
 3079SOL    HW1 9260   4.637   0.887   2.771
 3079SOL    HW2 9261   4.551   1.025   2.789
 3080SOL     OW 9262   3.945   1.314   3.706
 3080SOL    HW1 9263   3.880   1.241   3.685
 3080SOL    HW2 9264   3.949   1.328   3.804
 3081SOL     OW 9265   3.803   1.240   2.515
 3081SOL    HW1 9266   3.802   1.193   2.603
 3081SOL    HW2 9267   3.885   1.212   2.464
 3082SOL     OW 9268   4.396   1.391   3.486
 3082SOL    HW1 9269   4.318   1.341   3.524
 3082SOL    HW2 9270   4.393   1.486   3.517
 3083SOL     OW 9271   4.152   0.424   2.382
 3083SOL    HW1 9272   4.182   0.352   2.320
 3083SOL    HW2 9273   4.113   0.384   2.465
 3084SOL     OW 9274   4.041   0.547   3.142
 3084SOL    HW1 9275   4.079   0.488   3.214
 3084SOL    HW2 9276   4.081   0.521   3.054
 3085SOL     OW 9277   4.536   1.586   2.549
 3085SOL    HW1 9278   4.568   1.596   2.455
 3085SOL    HW2 9279   4.457   1.524   2.551
 3086SOL     OW 9280   4.725   0.034   3.016
 3086SOL    HW1 9281   4.662  -0.038   2.985
 3086SOL    HW2 9282   4.818  -0.002   3.016
 3087SOL     OW 9283   4.494   1.330   2.163
 3087SOL    HW1 9284   4.448   1.243   2.180
 3087SOL    HW2 9285   4.585   1.327   2.204
 3088SOL     OW 9286   4.342   1.567   3.146
 3088SOL    HW1 9287   4.337   1.649   3.203
 3088SOL    HW2 9288   4.431   1.564   3.101
 3089SOL     OW 9289   3.763   1.077   2.162
 3089SOL    HW1 9290   3.862   1.066   2.153
 3089SOL    HW2 9291   3.723   0.991   2.194
 3090SOL     OW 9292   4.599   1.646   2.199
 3090SOL    HW1 9293   4.522   1.611   2.145
 3090SOL    HW2 9294   4.567   1.717   2.261
 3091SOL     OW 9295   3.954   0.628   3.837
 3091SOL    HW1 9296   3.861   0.626   3.874
 3091SOL    HW2 9297   3.955   0.589   3.745
 3092SOL     OW 9298   3.949   0.275   4.720
 3092SOL    HW1 9299   3.984   0.258   4.812
 3092SOL    HW2 9300   3.861   0.230   4.708
 3093SOL     OW 9301   3.743   0.368   4.371
 3093SOL    HW1 9302   3.661   0.411   4.410
 3093SOL    HW2 9303   3.715   0.295   4.308
 3094SOL     OW 9304   4.492   1.144   4.747
 3094SOL    HW1 9305   4.414   1.161   4.807
 3094SOL    HW2 9306   4.526   1.231   4.711
 3095SOL     OW 9307   4.409   1.012   4.389
 3095SOL    HW1 9308   4.478   0.996   4.459
 3095SOL    HW2 9309   4.336   1.069   4.427
 3096SOL     OW 9310   4.059   1.435   4.785
 3096SOL    HW1 9311   3.981   1.404   4.732
 3096SOL    HW2 9312   4.117   1.493   4.728
 3097SOL     OW 9313   3.955   1.713   4.207
 3097SOL    HW1 9314   3.989   1.790   4.261
 3097SOL    HW2 9315   3.999   1.713   4.117
 3098SOL     OW 9316   3.954   1.434   4.262
 3098SOL    HW1 9317   3.928   1.530   4.262
 3098SOL    HW2 9318   3.883   1.380   4.307
 3099SOL     OW 9319   3.964   1.091   4.610
 3099SOL    HW1 9320   3.978   1.007   4.662
 3099SOL    HW2 9321   3.909   1.155   4.665
 3100SOL     OW 9322   4.330   0.964   3.847
 3100SOL    HW1 9323   4.337   1.048   3.793
 3100SOL    HW2 9324   4.376   0.977   3.935
 3101SOL     OW 9325   3.846   0.643   4.287
 3101SOL    HW1 9326   3.801   0.555   4.304
 3101SOL    HW2 9327   3.845   0.697   4.371
 3102SOL     OW 9328   3.751   1.596   3.841
 3102SOL    HW1 9329   3.732   1.500   3.862
 3102SOL    HW2 9330   3.718   1.654   3.916
 3103SOL     OW 9331   4.337   1.365   4.450
 3103SOL    HW1 9332   4.288   1.278   4.459
 3103SOL    HW2 9333   4.314   1.408   4.363
 3104SOL     OW 9334   4.533   0.004   4.226
 3104SOL    HW1 9335   4.573   0.095   4.217
 3104SOL    HW2 9336   4.433   0.012   4.232
 3105SOL     OW 9337   4.322   0.729   3.994
 3105SOL    HW1 9338   4.346   0.798   3.926
 3105SOL    HW2 9339   4.244   0.762   4.048
 3106SOL     OW 9340   4.765   0.701   4.153
 3106SOL    HW1 9341   4.791   0.697   4.249
 3106SOL    HW2 9342   4.680   0.650   4.139
 3107SOL     OW 9343   3.800   0.811   4.513
 3107SOL    HW1 9344   3.899   0.799   4.522
 3107SOL    HW2 9345   3.776   0.906   4.534
 3108SOL     OW 9346   4.589   0.348   3.919
 3108SOL    HW1 9347   4.648   0.411   3.870
 3108SOL    HW2 9348   4.608   0.254   3.890
 3109SOL     OW 9349   4.274   0.196   4.609
 3109SOL    HW1 9350   4.269   0.191   4.709
 3109SOL    HW2 9351   4.276   0.292   4.580
 3110SOL     OW 9352   4.732   1.456   4.201
 3110SOL    HW1 9353   4.686   1.528   4.149
 3110SOL    HW2 9354   4.728   1.476   4.299
 3111SOL     OW 9355   4.075   1.801   4.577
 3111SOL    HW1 9356   4.125   1.715   4.583
 3111SOL    HW2 9357   4.140   1.878   4.574
 3112SOL     OW 9358   4.045   0.943   3.966
 3112SOL    HW1 9359   4.127   0.982   3.924
 3112SOL    HW2 9360   4.018   0.861   3.917
 3113SOL     OW 9361   4.188   1.743   4.047
 3113SOL    HW1 9362   4.221   1.782   4.133
 3113SOL    HW2 9363   4.264   1.736   3.982
 3114SOL     OW 9364   3.973   1.785   4.965
 3114SOL    HW1 9365   4.030   1.720   5.015
 3114SOL    HW2 9366   3.957   1.752   4.872
 3115SOL     OW 9367   4.664   1.698   4.628
 3115SOL    HW1 9368   4.744   1.641   4.649
 3115SOL    HW2 9369   4.615   1.658   4.551
 3116SOL     OW 9370   4.106   0.700   4.204
 3116SOL    HW1 9371   4.151   0.610   4.201
 3116SOL    HW2 9372   4.012   0.689   4.237
 3117SOL     OW 9373   4.338   0.122   3.841
 3117SOL    HW1 9374   4.436   0.100   3.848
 3117SOL    HW2 9375   4.307   0.105   3.748
 3118SOL     OW 9376   4.527   1.402   4.648
 3118SOL    HW1 9377   4.617   1.416   4.606
 3118SOL    HW2 9378   4.456   1.404   4.577
 3119SOL     OW 9379   4.646   0.503   4.623
 3119SOL    HW1 9380   4.621   0.494   4.527
 3119SOL    HW2 9381   4.694   0.421   4.654
 3120SOL     OW 9382   4.263   0.064   4.236
 3120SOL    HW1 9383   4.182   0.065   4.294
 3120SOL    HW2 9384   4.266   0.147   4.181
 3121SOL     OW 9385   4.021   0.035   3.895
 3121SOL    HW1 9386   4.070   0.119   3.874
 3121SOL    HW2 9387   4.083  -0.030   3.940
 3122SOL     OW 9388   4.659   0.236   4.204
 3122SOL    HW1 9389   4.611   0.277   4.126
 3122SOL    HW2 9390   4.758   0.234   4.185
 3123SOL     OW 9391   4.951   1.570   4.517
 3123SOL    HW1 9392   4.972   1.644   4.452
 3123SOL    HW2 9393   5.019   1.570   4.590
 3124SOL     OW 9394   4.183   1.152   4.465
 3124SOL    HW1 9395   4.112   1.125   4.530
 3124SOL    HW2 9396   4.157   1.124   4.372
 3125SOL     OW 9397   4.756   0.549   3.740
 3125SOL    HW1 9398   4.715   0.631   3.701
 3125SOL    HW2 9399   4.820   0.575   3.813
 3126SOL     OW 9400   4.590   0.454   4.366
 3126SOL    HW1 9401   4.558   0.526   4.304
 3126SOL    HW2 9402   4.614   0.373   4.313
 3127SOL     OW 9403   4.741   0.039   4.477
 3127SOL    HW1 9404   4.669   0.044   4.408
 3127SOL    HW2 9405   4.717  -0.030   4.546
 3128SOL     OW 9406   4.212   1.385   3.898
 3128SOL    HW1 9407   4.125   1.370   3.945
 3128SOL    HW2 9408   4.195   1.411   3.803
 3129SOL     OW 9409   4.251   0.256   4.052
 3129SOL    HW1 9410   4.278   0.197   3.977
 3129SOL    HW2 9411   4.251   0.351   4.021
 3130SOL     OW 9412   4.429   1.050   4.092
 3130SOL    HW1 9413   4.415   1.057   4.191
 3130SOL    HW2 9414   4.513   0.999   4.074
 3131SOL     OW 9415   4.091   1.100   4.225
 3131SOL    HW1 9416   4.084   1.183   4.169
 3131SOL    HW2 9417   4.095   1.020   4.165
 3132SOL     OW 9418   4.290   0.537   4.589
 3132SOL    HW1 9419   4.302   0.603   4.515
 3132SOL    HW2 9420   4.336   0.571   4.672
 3133SOL     OW 9421   4.297   0.870   4.753
 3133SOL    HW1 9422   4.341   0.959   4.744
 3133SOL    HW2 9423   4.234   0.870   4.830
 3134SOL     OW 9424   4.933   0.525   3.999
 3134SOL    HW1 9425   4.946   0.441   4.053
 3134SOL    HW2 9426   4.904   0.599   4.059
 3135SOL     OW 9427   4.456   0.634   4.788
 3135SOL    HW1 9428   4.515   0.608   4.712
 3135SOL    HW2 9429   4.428   0.730   4.777
 3136SOL     OW 9430   4.031   0.063   4.342
 3136SOL    HW1 9431   4.020   0.157   4.375
 3136SOL    HW2 9432   4.026   0.000   4.419
 3137SOL     OW 9433   4.043   0.810   4.673
 3137SOL    HW1 9434   4.136   0.846   4.678
 3137SOL    HW2 9435   4.037   0.725   4.725
 3138SOL     OW 9436   4.063   0.509   4.730
 3138SOL    HW1 9437   4.011   0.426   4.713
 3138SOL    HW2 9438   4.140   0.514   4.666
 3139SOL     OW 9439   3.732   1.326   3.924
 3139SOL    HW1 9440   3.639   1.347   3.893
 3139SOL    HW2 9441   3.742   1.227   3.937
 3140SOL     OW 9442   3.812   1.801   4.651
 3140SOL    HW1 9443   3.770   1.715   4.624
 3140SOL    HW2 9444   3.906   1.804   4.617
 3141SOL     OW 9445   4.228   1.568   4.634
 3141SOL    HW1 9446   4.294   1.642   4.643
 3141SOL    HW2 9447   4.272   1.489   4.592
 3142SOL     OW 9448   4.726   0.796   4.962
 3142SOL    HW1 9449   4.767   0.764   5.048
 3142SOL    HW2 9450   4.630   0.769   4.959
 3143SOL     OW 9451   4.539   0.572   4.049
 3143SOL    HW1 9452   4.546   0.483   4.003
 3143SOL    HW2 9453   4.445   0.606   4.041
 3144SOL     OW 9454   4.395   0.464   4.993
 3144SOL    HW1 9455   4.361   0.375   4.963
 3144SOL    HW2 9456   4.421   0.518   4.913
 3145SOL     OW 9457   4.197   0.500   3.915
 3145SOL    HW1 9458   4.258   0.580   3.919
 3145SOL    HW2 9459   4.102   0.531   3.922
 3146SOL     OW 9460   3.807   1.258   4.746
 3146SOL    HW1 9461   3.802   1.257   4.846
 3146SOL    HW2 9462   3.724   1.217   4.708
 3147SOL     OW 9463   5.004   0.927   4.396
 3147SOL    HW1 9464   5.064   0.846   4.398
 3147SOL    HW2 9465   5.044   0.996   4.336
 3148SOL     OW 9466   4.396   1.616   3.878
 3148SOL    HW1 9467   4.405   1.626   3.779
 3148SOL    HW2 9468   4.356   1.527   3.899
 3149SOL     OW 9469   3.987   0.326   4.444
 3149SOL    HW1 9470   3.908   0.377   4.410
 3149SOL    HW2 9471   3.978   0.311   4.542
 3150SOL     OW 9472   4.640   0.910   4.015
 3150SOL    HW1 9473   4.703   0.948   3.947
 3150SOL    HW2 9474   4.680   0.827   4.054
 3151SOL     OW 9475   4.763   1.098   4.420
 3151SOL    HW1 9476   4.693   1.051   4.474
 3151SOL    HW2 9477   4.822   1.030   4.377
 3152SOL     OW 9478   4.738   0.236   4.695
 3152SOL    HW1 9479   4.730   0.200   4.602
 3152SOL    HW2 9480   4.736   0.160   4.760
 3153SOL     OW 9481   4.314   1.487   4.215
 3153SOL    HW1 9482   4.356   1.429   4.145
 3153SOL    HW2 9483   4.270   1.566   4.171
 3154SOL     OW 9484   3.979   1.348   4.014
 3154SOL    HW1 9485   3.883   1.349   3.987
 3154SOL    HW2 9486   3.991   1.401   4.098
 3155SOL     OW 9487   3.799   0.345   3.757
 3155SOL    HW1 9488   3.707   0.317   3.728
 3155SOL    HW2 9489   3.830   0.422   3.701
 3156SOL     OW 9490   3.796   0.166   4.042
 3156SOL    HW1 9491   3.779   0.249   3.988
 3156SOL    HW2 9492   3.886   0.129   4.020
 3157SOL     OW 9493   4.949   0.325   4.173
 3157SOL    HW1 9494   5.014   0.251   4.162
 3157SOL    HW2 9495   4.969   0.375   4.257
 3158SOL     OW 9496   4.318   0.745   4.376
 3158SOL    HW1 9497   4.368   0.830   4.357
 3158SOL    HW2 9498   4.230   0.747   4.328
 3159SOL     OW 9499   4.583   1.374   3.740
 3159SOL    HW1 9500   4.537   1.389   3.828
 3159SOL    HW2 9501   4.627   1.459   3.710
 3160SOL     OW 9502   4.385   1.790   4.677
 3160SOL    HW1 9503   4.339   1.878   4.664
 3160SOL    HW2 9504   4.484   1.802   4.670
 3161SOL     OW 9505   4.583   0.956   4.585
 3161SOL    HW1 9506   4.637   0.887   4.633
 3161SOL    HW2 9507   4.551   1.025   4.651
 3162SOL     OW 9508   3.803   1.240   4.377
 3162SOL    HW1 9509   3.802   1.193   4.465
 3162SOL    HW2 9510   3.885   1.212   4.326
 3163SOL     OW 9511   4.152   0.424   4.244
 3163SOL    HW1 9512   4.182   0.352   4.182
 3163SOL    HW2 9513   4.113   0.384   4.327
 3164SOL     OW 9514   4.536   1.586   4.411
 3164SOL    HW1 9515   4.568   1.596   4.317
 3164SOL    HW2 9516   4.457   1.524   4.413
 3165SOL     OW 9517   4.494   1.330   4.025
 3165SOL    HW1 9518   4.448   1.243   4.042
 3165SOL    HW2 9519   4.585   1.327   4.066
 3166SOL     OW 9520   3.763   1.077   4.024
 3166SOL    HW1 9521   3.862   1.066   4.015
 3166SOL    HW2 9522   3.723   0.991   4.056
 3167SOL     OW 9523   4.599   1.646   4.061
 3167SOL    HW1 9524   4.522   1.611   4.007
 3167SOL    HW2 9525   4.567   1.717   4.123
 3168SOL     OW 9526   3.954   2.490   0.113
 3168SOL    HW1 9527   3.861   2.488   0.150
 3168SOL    HW2 9528   3.955   2.451   0.021
 3169SOL     OW 9529   3.949   2.137   0.996
 3169SOL    HW1 9530   3.984   2.120   1.088
 3169SOL    HW2 9531   3.861   2.092   0.984
 3170SOL     OW 9532   3.743   2.230   0.647
 3170SOL    HW1 9533   3.661   2.273   0.686
 3170SOL    HW2 9534   3.715   2.157   0.584
 3171SOL     OW 9535   4.293   3.137   1.165
 3171SOL    HW1 9536   4.200   3.130   1.128
 3171SOL    HW2 9537   4.304   3.226   1.209
 3172SOL     OW 9538   4.492   3.006   1.023
 3172SOL    HW1 9539   4.414   3.023   1.083
 3172SOL    HW2 9540   4.526   3.093   0.987
 3173SOL     OW 9541   4.574   2.660   1.823
 3173SOL    HW1 9542   4.570   2.736   1.888
 3173SOL    HW2 9543   4.596   2.696   1.732
 3174SOL     OW 9544   4.409   2.874   0.665
 3174SOL    HW1 9545   4.478   2.858   0.735
 3174SOL    HW2 9546   4.336   2.931   0.703
 3175SOL     OW 9547   4.410   3.023   1.803
 3175SOL    HW1 9548   4.470   3.102   1.817
 3175SOL    HW2 9549   4.324   3.054   1.762
 3176SOL     OW 9550   4.059   3.297   1.061
 3176SOL    HW1 9551   3.981   3.266   1.008
 3176SOL    HW2 9552   4.117   3.355   1.004
 3177SOL     OW 9553   4.162   2.254   1.499
 3177SOL    HW1 9554   4.244   2.198   1.508
 3177SOL    HW2 9555   4.081   2.196   1.503
 3178SOL     OW 9556   3.955   3.575   0.483
 3178SOL    HW1 9557   3.989   3.652   0.537
 3178SOL    HW2 9558   3.999   3.575   0.393
 3179SOL     OW 9559   3.954   3.296   0.538
 3179SOL    HW1 9560   3.928   3.392   0.538
 3179SOL    HW2 9561   3.883   3.242   0.583
 3180SOL     OW 9562   3.964   2.953   0.886
 3180SOL    HW1 9563   3.978   2.869   0.938
 3180SOL    HW2 9564   3.909   3.017   0.941
 3181SOL     OW 9565   4.344   3.648   1.439
 3181SOL    HW1 9566   4.252   3.631   1.474
 3181SOL    HW2 9567   4.372   3.740   1.465
 3182SOL     OW 9568   4.330   2.826   0.123
 3182SOL    HW1 9569   4.337   2.910   0.069
 3182SOL    HW2 9570   4.376   2.839   0.211
 3183SOL     OW 9571   3.846   2.505   0.563
 3183SOL    HW1 9572   3.801   2.417   0.580
 3183SOL    HW2 9573   3.845   2.559   0.647
 3184SOL     OW 9574   3.751   3.458   0.117
 3184SOL    HW1 9575   3.732   3.362   0.138
 3184SOL    HW2 9576   3.718   3.516   0.192
 3185SOL     OW 9577   3.837   2.599   1.597
 3185SOL    HW1 9578   3.925   2.586   1.642
 3185SOL    HW2 9579   3.824   2.696   1.575
 3186SOL     OW 9580   4.337   3.227   0.726
 3186SOL    HW1 9581   4.288   3.140   0.735
 3186SOL    HW2 9582   4.314   3.270   0.639
 3187SOL     OW 9583   4.533   1.866   0.502
 3187SOL    HW1 9584   4.573   1.957   0.493
 3187SOL    HW2 9585   4.433   1.874   0.508
 3188SOL     OW 9586   3.921   2.838   1.264
 3188SOL    HW1 9587   4.010   2.793   1.250
 3188SOL    HW2 9588   3.848   2.773   1.245
 3189SOL     OW 9589   4.041   2.113   1.801
 3189SOL    HW1 9590   4.112   2.184   1.807
 3189SOL    HW2 9591   3.953   2.152   1.829
 3190SOL     OW 9592   4.322   2.591   0.270
 3190SOL    HW1 9593   4.346   2.660   0.202
 3190SOL    HW2 9594   4.244   2.624   0.324
 3191SOL     OW 9595   4.531   2.467   1.465
 3191SOL    HW1 9596   4.484   2.464   1.554
 3191SOL    HW2 9597   4.480   2.412   1.399
 3192SOL     OW 9598   4.697   2.752   1.572
 3192SOL    HW1 9599   4.743   2.668   1.543
 3192SOL    HW2 9600   4.641   2.786   1.497
 3193SOL     OW 9601   4.715   2.272   1.242
 3193SOL    HW1 9602   4.638   2.306   1.296
 3193SOL    HW2 9603   4.681   2.221   1.163
 3194SOL     OW 9604   4.765   2.563   0.429
 3194SOL    HW1 9605   4.791   2.559   0.525
 3194SOL    HW2 9606   4.680   2.512   0.415
 3195SOL     OW 9607   3.800   2.673   0.789
 3195SOL    HW1 9608   3.899   2.661   0.798
 3195SOL    HW2 9609   3.776   2.768   0.810
 3196SOL     OW 9610   3.854   3.683   1.571
 3196SOL    HW1 9611   3.844   3.668   1.670
 3196SOL    HW2 9612   3.768   3.719   1.535
 3197SOL     OW 9613   4.589   2.210   0.195
 3197SOL    HW1 9614   4.648   2.273   0.146
 3197SOL    HW2 9615   4.608   2.116   0.166
 3198SOL     OW 9616   4.274   2.058   0.885
 3198SOL    HW1 9617   4.269   2.053   0.985
 3198SOL    HW2 9618   4.276   2.154   0.856
 3199SOL     OW 9619   4.732   3.318   0.477
 3199SOL    HW1 9620   4.686   3.390   0.425
 3199SOL    HW2 9621   4.728   3.338   0.575
 3200SOL     OW 9622   4.075   3.663   0.853
 3200SOL    HW1 9623   4.125   3.577   0.859
 3200SOL    HW2 9624   4.140   3.740   0.850
 3201SOL     OW 9625   4.045   2.805   0.242
 3201SOL    HW1 9626   4.127   2.844   0.200
 3201SOL    HW2 9627   4.018   2.723   0.193
 3202SOL     OW 9628   4.185   3.128   1.727
 3202SOL    HW1 9629   4.135   3.129   1.641
 3202SOL    HW2 9630   4.122   3.110   1.803
 3203SOL     OW 9631   3.926   2.147   1.498
 3203SOL    HW1 9632   3.846   2.207   1.485
 3203SOL    HW2 9633   3.916   2.098   1.584
 3204SOL     OW 9634   4.188   3.605   0.323
 3204SOL    HW1 9635   4.221   3.644   0.409
 3204SOL    HW2 9636   4.264   3.598   0.258
 3205SOL     OW 9637   3.973   3.647   1.241
 3205SOL    HW1 9638   4.030   3.582   1.291
 3205SOL    HW2 9639   3.957   3.614   1.148
 3206SOL     OW 9640   4.664   3.560   0.904
 3206SOL    HW1 9641   4.744   3.503   0.925
 3206SOL    HW2 9642   4.615   3.520   0.827
 3207SOL     OW 9643   4.106   2.562   0.480
 3207SOL    HW1 9644   4.151   2.472   0.477
 3207SOL    HW2 9645   4.012   2.551   0.513
 3208SOL     OW 9646   4.338   1.984   0.117
 3208SOL    HW1 9647   4.436   1.962   0.124
 3208SOL    HW2 9648   4.307   1.967   0.024
 3209SOL     OW 9649   4.505   2.126   1.749
 3209SOL    HW1 9650   4.572   2.065   1.792
 3209SOL    HW2 9651   4.432   2.145   1.814
 3210SOL     OW 9652   4.612   3.376   1.195
 3210SOL    HW1 9653   4.589   3.351   1.101
 3210SOL    HW2 9654   4.673   3.307   1.234
 3211SOL     OW 9655   4.527   3.264   0.924
 3211SOL    HW1 9656   4.617   3.278   0.882
 3211SOL    HW2 9657   4.456   3.266   0.853
 3212SOL     OW 9658   4.646   2.365   0.899
 3212SOL    HW1 9659   4.621   2.356   0.803
 3212SOL    HW2 9660   4.694   2.283   0.930
 3213SOL     OW 9661   4.263   1.926   0.512
 3213SOL    HW1 9662   4.182   1.927   0.570
 3213SOL    HW2 9663   4.266   2.009   0.457
 3214SOL     OW 9664   5.158   3.050   0.041
 3214SOL    HW1 9665   5.190   2.974   0.098
 3214SOL    HW2 9666   5.066   3.077   0.071
 3215SOL     OW 9667   4.659   2.098   0.480
 3215SOL    HW1 9668   4.611   2.139   0.402
 3215SOL    HW2 9669   4.758   2.096   0.461
 3216SOL     OW 9670   4.951   3.432   0.793
 3216SOL    HW1 9671   4.972   3.506   0.728
 3216SOL    HW2 9672   5.019   3.432   0.866
 3217SOL     OW 9673   4.183   3.014   0.741
 3217SOL    HW1 9674   4.112   2.987   0.806
 3217SOL    HW2 9675   4.157   2.986   0.648
 3218SOL     OW 9676   4.756   2.411   0.016
 3218SOL    HW1 9677   4.715   2.493  -0.023
 3218SOL    HW2 9678   4.820   2.437   0.089
 3219SOL     OW 9679   3.802   2.418   1.386
 3219SOL    HW1 9680   3.894   2.417   1.345
 3219SOL    HW2 9681   3.796   2.492   1.453
 3220SOL     OW 9682   4.285   2.084   1.147
 3220SOL    HW1 9683   4.323   2.000   1.184
 3220SOL    HW2 9684   4.197   2.103   1.191
 3221SOL     OW 9685   4.590   2.316   0.642
 3221SOL    HW1 9686   4.558   2.388   0.580
 3221SOL    HW2 9687   4.614   2.235   0.589
 3222SOL     OW 9688   4.741   1.901   0.753
 3222SOL    HW1 9689   4.669   1.906   0.684
 3222SOL    HW2 9690   4.717   1.832   0.822
 3223SOL     OW 9691   4.212   3.247   0.174
 3223SOL    HW1 9692   4.125   3.232   0.221
 3223SOL    HW2 9693   4.195   3.273   0.079
 3224SOL     OW 9694   4.251   2.118   0.328
 3224SOL    HW1 9695   4.278   2.059   0.253
 3224SOL    HW2 9696   4.251   2.213   0.297
 3225SOL     OW 9697   4.639   1.951   1.402
 3225SOL    HW1 9698   4.664   1.931   1.307
 3225SOL    HW2 9699   4.711   2.007   1.444
 3226SOL     OW 9700   4.704   2.978   1.719
 3226SOL    HW1 9701   4.605   2.984   1.729
 3226SOL    HW2 9702   4.727   2.898   1.663
 3227SOL     OW 9703   4.429   2.912   0.368
 3227SOL    HW1 9704   4.415   2.919   0.467
 3227SOL    HW2 9705   4.513   2.861   0.350
 3228SOL     OW 9706   4.134   2.675   1.251
 3228SOL    HW1 9707   4.220   2.687   1.301
 3228SOL    HW2 9708   4.092   2.588   1.278
 3229SOL     OW 9709   3.788   3.426   1.331
 3229SOL    HW1 9710   3.742   3.508   1.297
 3229SOL    HW2 9711   3.886   3.445   1.340
 3230SOL     OW 9712   4.091   2.962   0.501
 3230SOL    HW1 9713   4.084   3.045   0.445
 3230SOL    HW2 9714   4.095   2.882   0.441
 3231SOL     OW 9715   4.290   2.399   0.865
 3231SOL    HW1 9716   4.302   2.465   0.791
 3231SOL    HW2 9717   4.336   2.433   0.948
 3232SOL     OW 9718   4.078   3.372   1.329
 3232SOL    HW1 9719   4.057   3.328   1.242
 3232SOL    HW2 9720   4.175   3.398   1.332
 3233SOL     OW 9721   4.126   2.613   1.598
 3233SOL    HW1 9722   4.194   2.668   1.551
 3233SOL    HW2 9723   4.166   2.525   1.625
 3234SOL     OW 9724   4.737   1.967   1.770
 3234SOL    HW1 9725   4.743   2.052   1.718
 3234SOL    HW2 9726   4.769   1.891   1.713
 3235SOL     OW 9727   4.228   1.912   1.740
 3235SOL    HW1 9728   4.186   1.855   1.670
 3235SOL    HW2 9729   4.162   1.981   1.772
 3236SOL     OW 9730   4.297   2.732   1.029
 3236SOL    HW1 9731   4.341   2.821   1.020
 3236SOL    HW2 9732   4.234   2.732   1.106
 3237SOL     OW 9733   4.933   2.387   0.275
 3237SOL    HW1 9734   4.946   2.303   0.329
 3237SOL    HW2 9735   4.904   2.461   0.335
 3238SOL     OW 9736   4.031   2.075   1.231
 3238SOL    HW1 9737   4.008   2.112   1.321
 3238SOL    HW2 9738   4.001   1.980   1.225
 3239SOL     OW 9739   3.761   3.172   1.282
 3239SOL    HW1 9740   3.814   3.123   1.350
 3239SOL    HW2 9741   3.783   3.270   1.287
 3240SOL     OW 9742   4.456   2.496   1.064
 3240SOL    HW1 9743   4.515   2.470   0.988
 3240SOL    HW2 9744   4.428   2.592   1.053
 3241SOL     OW 9745   4.031   1.925   0.618
 3241SOL    HW1 9746   4.020   2.019   0.651
 3241SOL    HW2 9747   4.026   1.862   0.695
 3242SOL     OW 9748   4.747   2.628   0.966
 3242SOL    HW1 9749   4.762   2.649   1.062
 3242SOL    HW2 9750   4.717   2.533   0.957
 3243SOL     OW 9751   4.704   3.435   1.700
 3243SOL    HW1 9752   4.684   3.479   1.612
 3243SOL    HW2 9753   4.743   3.344   1.684
 3244SOL     OW 9754   4.074   2.760   1.804
 3244SOL    HW1 9755   4.150   2.804   1.852
 3244SOL    HW2 9756   4.109   2.713   1.722
 3245SOL     OW 9757   4.043   2.672   0.949
 3245SOL    HW1 9758   4.136   2.708   0.954
 3245SOL    HW2 9759   4.037   2.587   1.001
 3246SOL     OW 9760   4.063   2.371   1.006
 3246SOL    HW1 9761   4.011   2.288   0.989
 3246SOL    HW2 9762   4.140   2.376   0.942
 3247SOL     OW 9763   3.732   3.188   0.200
 3247SOL    HW1 9764   3.639   3.209   0.169
 3247SOL    HW2 9765   3.742   3.089   0.213
 3248SOL     OW 9766   3.812   3.663   0.927
 3248SOL    HW1 9767   3.770   3.577   0.900
 3248SOL    HW2 9768   3.906   3.666   0.893
 3249SOL     OW 9769   4.228   3.430   0.910
 3249SOL    HW1 9770   4.294   3.504   0.919
 3249SOL    HW2 9771   4.272   3.351   0.868
 3250SOL     OW 9772   4.726   2.658   1.238
 3250SOL    HW1 9773   4.767   2.626   1.324
 3250SOL    HW2 9774   4.630   2.631   1.235
 3251SOL     OW 9775   3.764   2.406   1.114
 3251SOL    HW1 9776   3.849   2.373   1.073
 3251SOL    HW2 9777   3.777   2.421   1.212
 3252SOL     OW 9778   3.913   2.382   1.722
 3252SOL    HW1 9779   3.972   2.342   1.652
 3252SOL    HW2 9780   3.855   2.453   1.681
 3253SOL     OW 9781   4.539   2.434   0.325
 3253SOL    HW1 9782   4.546   2.345   0.279
 3253SOL    HW2 9783   4.445   2.468   0.317
 3254SOL     OW 9784   3.976   3.426   1.744
 3254SOL    HW1 9785   3.946   3.483   1.820
 3254SOL    HW2 9786   3.969   3.329   1.770
 3255SOL     OW 9787   4.395   2.326   1.269
 3255SOL    HW1 9788   4.361   2.237   1.239
 3255SOL    HW2 9789   4.421   2.380   1.189
 3256SOL     OW 9790   4.654   3.540   1.465
 3256SOL    HW1 9791   4.630   3.522   1.370
 3256SOL    HW2 9792   4.684   3.634   1.475
 3257SOL     OW 9793   4.197   2.362   0.191
 3257SOL    HW1 9794   4.258   2.442   0.195
 3257SOL    HW2 9795   4.102   2.393   0.198
 3258SOL     OW 9796   3.883   2.999   1.466
 3258SOL    HW1 9797   3.905   2.938   1.542
 3258SOL    HW2 9798   3.893   2.950   1.380
 3259SOL     OW 9799   3.807   3.120   1.022
 3259SOL    HW1 9800   3.802   3.119   1.122
 3259SOL    HW2 9801   3.724   3.079   0.984
 3260SOL     OW 9802   4.412   3.524   1.716
 3260SOL    HW1 9803   4.356   3.605   1.725
 3260SOL    HW2 9804   4.464   3.528   1.630
 3261SOL     OW 9805   4.627   1.948   0.133
 3261SOL    HW1 9806   4.678   1.949   0.047
 3261SOL    HW2 9807   4.683   1.906   0.204
 3262SOL     OW 9808   3.854   3.656   1.851
 3262SOL    HW1 9809   3.813   3.582   1.904
 3262SOL    HW2 9810   3.918   3.707   1.909
 3263SOL     OW 9811   5.004   2.789   0.672
 3263SOL    HW1 9812   5.064   2.708   0.674
 3263SOL    HW2 9813   5.044   2.858   0.612
 3264SOL     OW 9814   4.554   3.135   1.422
 3264SOL    HW1 9815   4.549   3.168   1.517
 3264SOL    HW2 9816   4.468   3.154   1.376
 3265SOL     OW 9817   4.396   3.478   0.154
 3265SOL    HW1 9818   4.405   3.488   0.055
 3265SOL    HW2 9819   4.356   3.389   0.175
 3266SOL     OW 9820   3.987   2.188   0.720
 3266SOL    HW1 9821   3.908   2.239   0.686
 3266SOL    HW2 9822   3.978   2.173   0.818
 3267SOL     OW 9823   4.546   2.864   1.372
 3267SOL    HW1 9824   4.586   2.863   1.280
 3267SOL    HW2 9825   4.556   2.956   1.412
 3268SOL     OW 9826   4.640   2.772   0.291
 3268SOL    HW1 9827   4.703   2.810   0.223
 3268SOL    HW2 9828   4.680   2.689   0.330
 3269SOL     OW 9829   4.096   3.150   1.490
 3269SOL    HW1 9830   4.083   3.243   1.456
 3269SOL    HW2 9831   4.012   3.098   1.477
 3270SOL     OW 9832   4.763   2.960   0.696
 3270SOL    HW1 9833   4.693   2.913   0.750
 3270SOL    HW2 9834   4.822   2.892   0.653
 3271SOL     OW 9835   4.738   2.098   0.971
 3271SOL    HW1 9836   4.730   2.062   0.878
 3271SOL    HW2 9837   4.736   2.022   1.036
 3272SOL     OW 9838   4.314   3.349   0.491
 3272SOL    HW1 9839   4.356   3.291   0.421
 3272SOL    HW2 9840   4.270   3.428   0.447
 3273SOL     OW 9841   3.979   3.210   0.290
 3273SOL    HW1 9842   3.883   3.211   0.263
 3273SOL    HW2 9843   3.991   3.263   0.374
 3274SOL     OW 9844   3.829   2.875   1.726
 3274SOL    HW1 9845   3.752   2.842   1.780
 3274SOL    HW2 9846   3.914   2.845   1.768
 3275SOL     OW 9847   4.396   2.065   1.489
 3275SOL    HW1 9848   4.486   2.049   1.449
 3275SOL    HW2 9849   4.404   2.070   1.588
 3276SOL     OW 9850   3.799   2.207   0.033
 3276SOL    HW1 9851   3.707   2.179   0.004
 3276SOL    HW2 9852   3.830   2.284  -0.023
 3277SOL     OW 9853   3.796   2.028   0.318
 3277SOL    HW1 9854   3.779   2.111   0.264
 3277SOL    HW2 9855   3.886   1.991   0.296
 3278SOL     OW 9856   4.337   2.704   1.431
 3278SOL    HW1 9857   4.393   2.785   1.414
 3278SOL    HW2 9858   4.396   2.624   1.434
 3279SOL     OW 9859   4.440   2.427   1.708
 3279SOL    HW1 9860   4.459   2.492   1.782
 3279SOL    HW2 9861   4.500   2.347   1.717
 3280SOL     OW 9862   4.114   3.603   1.560
 3280SOL    HW1 9863   4.023   3.644   1.558
 3280SOL    HW2 9864   4.107   3.509   1.592
 3281SOL     OW 9865   4.949   2.187   0.449
 3281SOL    HW1 9866   5.014   2.113   0.438
 3281SOL    HW2 9867   4.969   2.237   0.533
 3282SOL     OW 9868   4.318   2.607   0.652
 3282SOL    HW1 9869   4.368   2.692   0.633
 3282SOL    HW2 9870   4.230   2.609   0.604
 3283SOL     OW 9871   4.583   3.236   0.016
 3283SOL    HW1 9872   4.537   3.251   0.104
 3283SOL    HW2 9873   4.627   3.321  -0.014
 3284SOL     OW 9874   4.385   3.652   0.953
 3284SOL    HW1 9875   4.339   3.740   0.940
 3284SOL    HW2 9876   4.484   3.664   0.946
 3285SOL     OW 9877   4.583   2.818   0.861
 3285SOL    HW1 9878   4.637   2.749   0.909
 3285SOL    HW2 9879   4.551   2.887   0.927
 3286SOL     OW 9880   4.807   2.846   0.087
 3286SOL    HW1 9881   4.784   2.899   0.005
 3286SOL    HW2 9882   4.888   2.790   0.068
 3287SOL     OW 9883   3.945   3.176   1.844
 3287SOL    HW1 9884   3.880   3.103   1.823
 3287SOL    HW2 9885   3.949   3.190   1.942
 3288SOL     OW 9886   3.803   3.102   0.653
 3288SOL    HW1 9887   3.802   3.055   0.741
 3288SOL    HW2 9888   3.885   3.074   0.602
 3289SOL     OW 9889   4.396   3.253   1.624
 3289SOL    HW1 9890   4.318   3.203   1.662
 3289SOL    HW2 9891   4.393   3.348   1.655
 3290SOL     OW 9892   4.152   2.286   0.520
 3290SOL    HW1 9893   4.182   2.214   0.458
 3290SOL    HW2 9894   4.113   2.246   0.603
 3291SOL     OW 9895   4.041   2.409   1.280
 3291SOL    HW1 9896   4.079   2.350   1.352
 3291SOL    HW2 9897   4.081   2.383   1.192
 3292SOL     OW 9898   4.536   3.448   0.687
 3292SOL    HW1 9899   4.568   3.458   0.593
 3292SOL    HW2 9900   4.457   3.386   0.689
 3293SOL     OW 9901   4.725   1.896   1.154
 3293SOL    HW1 9902   4.662   1.824   1.123
 3293SOL    HW2 9903   4.818   1.860   1.154
 3294SOL     OW 9904   4.494   3.192   0.301
 3294SOL    HW1 9905   4.448   3.105   0.318
 3294SOL    HW2 9906   4.585   3.189   0.342
 3295SOL     OW 9907   4.342   3.429   1.284
 3295SOL    HW1 9908   4.337   3.511   1.341
 3295SOL    HW2 9909   4.431   3.426   1.239
 3296SOL     OW 9910   3.763   2.939   0.300
 3296SOL    HW1 9911   3.862   2.928   0.291
 3296SOL    HW2 9912   3.723   2.853   0.332
 3297SOL     OW 9913   4.599   3.508   0.337
 3297SOL    HW1 9914   4.522   3.473   0.283
 3297SOL    HW2 9915   4.567   3.579   0.399
 3298SOL     OW 9916   3.954   2.490   1.975
 3298SOL    HW1 9917   3.861   2.488   2.012
 3298SOL    HW2 9918   3.955   2.451   1.883
 3299SOL     OW 9919   3.949   2.137   2.858
 3299SOL    HW1 9920   3.984   2.120   2.950
 3299SOL    HW2 9921   3.861   2.092   2.846
 3300SOL     OW 9922   3.743   2.230   2.509
 3300SOL    HW1 9923   3.661   2.273   2.548
 3300SOL    HW2 9924   3.715   2.157   2.446
 3301SOL     OW 9925   4.293   3.137   3.027
 3301SOL    HW1 9926   4.200   3.130   2.990
 3301SOL    HW2 9927   4.304   3.226   3.071
 3302SOL     OW 9928   4.492   3.006   2.885
 3302SOL    HW1 9929   4.414   3.023   2.945
 3302SOL    HW2 9930   4.526   3.093   2.849
 3303SOL     OW 9931   4.574   2.660   3.685
 3303SOL    HW1 9932   4.570   2.736   3.750
 3303SOL    HW2 9933   4.596   2.696   3.594
 3304SOL     OW 9934   4.409   2.874   2.527
 3304SOL    HW1 9935   4.478   2.858   2.597
 3304SOL    HW2 9936   4.336   2.931   2.565
 3305SOL     OW 9937   4.410   3.023   3.665
 3305SOL    HW1 9938   4.470   3.102   3.679
 3305SOL    HW2 9939   4.324   3.054   3.624
 3306SOL     OW 9940   4.059   3.297   2.923
 3306SOL    HW1 9941   3.981   3.266   2.870
 3306SOL    HW2 9942   4.117   3.355   2.866
 3307SOL     OW 9943   4.162   2.254   3.361
 3307SOL    HW1 9944   4.244   2.198   3.370
 3307SOL    HW2 9945   4.081   2.196   3.365
 3308SOL     OW 9946   3.955   3.575   2.345
 3308SOL    HW1 9947   3.989   3.652   2.399
 3308SOL    HW2 9948   3.999   3.575   2.255
 3309SOL     OW 9949   3.954   3.296   2.400
 3309SOL    HW1 9950   3.928   3.392   2.400
 3309SOL    HW2 9951   3.883   3.242   2.445
 3310SOL     OW 9952   3.964   2.953   2.748
 3310SOL    HW1 9953   3.978   2.869   2.800
 3310SOL    HW2 9954   3.909   3.017   2.803
 3311SOL     OW 9955   4.344   3.648   3.301
 3311SOL    HW1 9956   4.252   3.631   3.336
 3311SOL    HW2 9957   4.372   3.740   3.327
 3312SOL     OW 9958   4.330   2.826   1.985
 3312SOL    HW1 9959   4.337   2.910   1.931
 3312SOL    HW2 9960   4.376   2.839   2.073
 3313SOL     OW 9961   3.846   2.505   2.425
 3313SOL    HW1 9962   3.801   2.417   2.442
 3313SOL    HW2 9963   3.845   2.559   2.509
 3314SOL     OW 9964   3.751   3.458   1.979
 3314SOL    HW1 9965   3.732   3.362   2.000
 3314SOL    HW2 9966   3.718   3.516   2.054
 3315SOL     OW 9967   3.837   2.599   3.459
 3315SOL    HW1 9968   3.925   2.586   3.504
 3315SOL    HW2 9969   3.824   2.696   3.437
 3316SOL     OW 9970   4.337   3.227   2.588
 3316SOL    HW1 9971   4.288   3.140   2.597
 3316SOL    HW2 9972   4.314   3.270   2.501
 3317SOL     OW 9973   4.533   1.866   2.364
 3317SOL    HW1 9974   4.573   1.957   2.355
 3317SOL    HW2 9975   4.433   1.874   2.370
 3318SOL     OW 9976   3.921   2.838   3.126
 3318SOL    HW1 9977   4.010   2.793   3.112
 3318SOL    HW2 9978   3.848   2.773   3.107
 3319SOL     OW 9979   4.041   2.113   3.663
 3319SOL    HW1 9980   4.112   2.184   3.669
 3319SOL    HW2 9981   3.953   2.152   3.691
 3320SOL     OW 9982   4.322   2.591   2.132
 3320SOL    HW1 9983   4.346   2.660   2.064
 3320SOL    HW2 9984   4.244   2.624   2.186
 3321SOL     OW 9985   4.531   2.467   3.327
 3321SOL    HW1 9986   4.484   2.464   3.416
 3321SOL    HW2 9987   4.480   2.412   3.261
 3322SOL     OW 9988   4.697   2.752   3.434
 3322SOL    HW1 9989   4.743   2.668   3.405
 3322SOL    HW2 9990   4.641   2.786   3.359
 3323SOL     OW 9991   4.715   2.272   3.104
 3323SOL    HW1 9992   4.638   2.306   3.158
 3323SOL    HW2 9993   4.681   2.221   3.025
 3324SOL     OW 9994   4.765   2.563   2.291
 3324SOL    HW1 9995   4.791   2.559   2.387
 3324SOL    HW2 9996   4.680   2.512   2.277
 3325SOL     OW 9997   3.800   2.673   2.651
 3325SOL    HW1 9998   3.899   2.661   2.660
 3325SOL    HW2 9999   3.776   2.768   2.672
 3326SOL     OW10000   3.854   3.683   3.433
 3326SOL    HW110001   3.844   3.668   3.532
 3326SOL    HW210002   3.768   3.719   3.397
 3327SOL     OW10003   4.589   2.210   2.057
 3327SOL    HW110004   4.648   2.273   2.008
 3327SOL    HW210005   4.608   2.116   2.028
 3328SOL     OW10006   4.274   2.058   2.747
 3328SOL    HW110007   4.269   2.053   2.847
 3328SOL    HW210008   4.276   2.154   2.718
 3329SOL     OW10009   4.732   3.318   2.339
 3329SOL    HW110010   4.686   3.390   2.287
 3329SOL    HW210011   4.728   3.338   2.437
 3330SOL     OW10012   4.075   3.663   2.715
 3330SOL    HW110013   4.125   3.577   2.721
 3330SOL    HW210014   4.140   3.740   2.712
 3331SOL     OW10015   4.045   2.805   2.104
 3331SOL    HW110016   4.127   2.844   2.062
 3331SOL    HW210017   4.018   2.723   2.055
 3332SOL     OW10018   4.185   3.128   3.589
 3332SOL    HW110019   4.135   3.129   3.503
 3332SOL    HW210020   4.122   3.110   3.665
 3333SOL     OW10021   3.926   2.147   3.360
 3333SOL    HW110022   3.846   2.207   3.347
 3333SOL    HW210023   3.916   2.098   3.446
 3334SOL     OW10024   4.188   3.605   2.185
 3334SOL    HW110025   4.221   3.644   2.271
 3334SOL    HW210026   4.264   3.598   2.120
 3335SOL     OW10027   3.973   3.647   3.103
 3335SOL    HW110028   4.030   3.582   3.153
 3335SOL    HW210029   3.957   3.614   3.010
 3336SOL     OW10030   4.664   3.560   2.766
 3336SOL    HW110031   4.744   3.503   2.787
 3336SOL    HW210032   4.615   3.520   2.689
 3337SOL     OW10033   4.106   2.562   2.342
 3337SOL    HW110034   4.151   2.472   2.339
 3337SOL    HW210035   4.012   2.551   2.375
 3338SOL     OW10036   4.338   1.984   1.979
 3338SOL    HW110037   4.436   1.962   1.986
 3338SOL    HW210038   4.307   1.967   1.886
 3339SOL     OW10039   4.505   2.126   3.611
 3339SOL    HW110040   4.572   2.065   3.654
 3339SOL    HW210041   4.432   2.145   3.676
 3340SOL     OW10042   4.612   3.376   3.057
 3340SOL    HW110043   4.589   3.351   2.963
 3340SOL    HW210044   4.673   3.307   3.096
 3341SOL     OW10045   4.527   3.264   2.786
 3341SOL    HW110046   4.617   3.278   2.744
 3341SOL    HW210047   4.456   3.266   2.715
 3342SOL     OW10048   4.646   2.365   2.761
 3342SOL    HW110049   4.621   2.356   2.665
 3342SOL    HW210050   4.694   2.283   2.792
 3343SOL     OW10051   4.263   1.926   2.374
 3343SOL    HW110052   4.182   1.927   2.432
 3343SOL    HW210053   4.266   2.009   2.319
 3344SOL     OW10054   4.021   1.897   2.033
 3344SOL    HW110055   4.070   1.981   2.012
 3344SOL    HW210056   4.083   1.832   2.078
 3345SOL     OW10057   4.659   2.098   2.342
 3345SOL    HW110058   4.611   2.139   2.264
 3345SOL    HW210059   4.758   2.096   2.323
 3346SOL     OW10060   4.951   3.432   2.655
 3346SOL    HW110061   4.972   3.506   2.590
 3346SOL    HW210062   5.019   3.432   2.728
 3347SOL     OW10063   4.183   3.014   2.603
 3347SOL    HW110064   4.112   2.987   2.668
 3347SOL    HW210065   4.157   2.986   2.510
 3348SOL     OW10066   4.756   2.411   1.878
 3348SOL    HW110067   4.715   2.493   1.839
 3348SOL    HW210068   4.820   2.437   1.951
 3349SOL     OW10069   3.802   2.418   3.248
 3349SOL    HW110070   3.894   2.417   3.207
 3349SOL    HW210071   3.796   2.492   3.315
 3350SOL     OW10072   4.285   2.084   3.009
 3350SOL    HW110073   4.323   2.000   3.046
 3350SOL    HW210074   4.197   2.103   3.053
 3351SOL     OW10075   4.590   2.316   2.504
 3351SOL    HW110076   4.558   2.388   2.442
 3351SOL    HW210077   4.614   2.235   2.451
 3352SOL     OW10078   4.741   1.901   2.615
 3352SOL    HW110079   4.669   1.906   2.546
 3352SOL    HW210080   4.717   1.832   2.684
 3353SOL     OW10081   4.212   3.247   2.036
 3353SOL    HW110082   4.125   3.232   2.083
 3353SOL    HW210083   4.195   3.273   1.941
 3354SOL     OW10084   4.251   2.118   2.190
 3354SOL    HW110085   4.278   2.059   2.115
 3354SOL    HW210086   4.251   2.213   2.159
 3355SOL     OW10087   4.639   1.951   3.264
 3355SOL    HW110088   4.664   1.931   3.169
 3355SOL    HW210089   4.711   2.007   3.306
 3356SOL     OW10090   4.704   2.978   3.581
 3356SOL    HW110091   4.605   2.984   3.591
 3356SOL    HW210092   4.727   2.898   3.525
 3357SOL     OW10093   4.429   2.912   2.230
 3357SOL    HW110094   4.415   2.919   2.329
 3357SOL    HW210095   4.513   2.861   2.212
 3358SOL     OW10096   4.134   2.675   3.113
 3358SOL    HW110097   4.220   2.687   3.163
 3358SOL    HW210098   4.092   2.588   3.140
 3359SOL     OW10099   3.788   3.426   3.193
 3359SOL    HW110100   3.742   3.508   3.159
 3359SOL    HW210101   3.886   3.445   3.202
 3360SOL     OW10102   4.091   2.962   2.363
 3360SOL    HW110103   4.084   3.045   2.307
 3360SOL    HW210104   4.095   2.882   2.303
 3361SOL     OW10105   4.290   2.399   2.727
 3361SOL    HW110106   4.302   2.465   2.653
 3361SOL    HW210107   4.336   2.433   2.810
 3362SOL     OW10108   4.078   3.372   3.191
 3362SOL    HW110109   4.057   3.328   3.104
 3362SOL    HW210110   4.175   3.398   3.194
 3363SOL     OW10111   4.126   2.613   3.460
 3363SOL    HW110112   4.194   2.668   3.413
 3363SOL    HW210113   4.166   2.525   3.487
 3364SOL     OW10114   4.737   1.967   3.632
 3364SOL    HW110115   4.743   2.052   3.580
 3364SOL    HW210116   4.769   1.891   3.575
 3365SOL     OW10117   4.228   1.912   3.602
 3365SOL    HW110118   4.186   1.855   3.532
 3365SOL    HW210119   4.162   1.981   3.634
 3366SOL     OW10120   4.297   2.732   2.891
 3366SOL    HW110121   4.341   2.821   2.882
 3366SOL    HW210122   4.234   2.732   2.968
 3367SOL     OW10123   4.933   2.387   2.137
 3367SOL    HW110124   4.946   2.303   2.191
 3367SOL    HW210125   4.904   2.461   2.197
 3368SOL     OW10126   4.031   2.075   3.093
 3368SOL    HW110127   4.008   2.112   3.183
 3368SOL    HW210128   4.001   1.980   3.087
 3369SOL     OW10129   3.761   3.172   3.144
 3369SOL    HW110130   3.814   3.123   3.212
 3369SOL    HW210131   3.783   3.270   3.149
 3370SOL     OW10132   4.456   2.496   2.926
 3370SOL    HW110133   4.515   2.470   2.850
 3370SOL    HW210134   4.428   2.592   2.915
 3371SOL     OW10135   4.031   1.925   2.480
 3371SOL    HW110136   4.020   2.019   2.513
 3371SOL    HW210137   4.026   1.862   2.557
 3372SOL     OW10138   4.747   2.628   2.828
 3372SOL    HW110139   4.762   2.649   2.924
 3372SOL    HW210140   4.717   2.533   2.819
 3373SOL     OW10141   4.704   3.435   3.562
 3373SOL    HW110142   4.684   3.479   3.474
 3373SOL    HW210143   4.743   3.344   3.546
 3374SOL     OW10144   4.074   2.760   3.666
 3374SOL    HW110145   4.150   2.804   3.714
 3374SOL    HW210146   4.109   2.713   3.584
 3375SOL     OW10147   4.043   2.672   2.811
 3375SOL    HW110148   4.136   2.708   2.816
 3375SOL    HW210149   4.037   2.587   2.863
 3376SOL     OW10150   4.063   2.371   2.868
 3376SOL    HW110151   4.011   2.288   2.851
 3376SOL    HW210152   4.140   2.376   2.804
 3377SOL     OW10153   3.732   3.188   2.062
 3377SOL    HW110154   3.639   3.209   2.031
 3377SOL    HW210155   3.742   3.089   2.075
 3378SOL     OW10156   3.812   3.663   2.789
 3378SOL    HW110157   3.770   3.577   2.762
 3378SOL    HW210158   3.906   3.666   2.755
 3379SOL     OW10159   4.228   3.430   2.772
 3379SOL    HW110160   4.294   3.504   2.781
 3379SOL    HW210161   4.272   3.351   2.730
 3380SOL     OW10162   4.726   2.658   3.100
 3380SOL    HW110163   4.767   2.626   3.186
 3380SOL    HW210164   4.630   2.631   3.097
 3381SOL     OW10165   3.764   2.406   2.976
 3381SOL    HW110166   3.849   2.373   2.935
 3381SOL    HW210167   3.777   2.421   3.074
 3382SOL     OW10168   3.913   2.382   3.584
 3382SOL    HW110169   3.972   2.342   3.514
 3382SOL    HW210170   3.855   2.453   3.543
 3383SOL     OW10171   4.539   2.434   2.187
 3383SOL    HW110172   4.546   2.345   2.141
 3383SOL    HW210173   4.445   2.468   2.179
 3384SOL     OW10174   3.976   3.426   3.606
 3384SOL    HW110175   3.946   3.483   3.682
 3384SOL    HW210176   3.969   3.329   3.632
 3385SOL     OW10177   4.395   2.326   3.131
 3385SOL    HW110178   4.361   2.237   3.101
 3385SOL    HW210179   4.421   2.380   3.051
 3386SOL     OW10180   4.654   3.540   3.327
 3386SOL    HW110181   4.630   3.522   3.232
 3386SOL    HW210182   4.684   3.634   3.337
 3387SOL     OW10183   4.197   2.362   2.053
 3387SOL    HW110184   4.258   2.442   2.057
 3387SOL    HW210185   4.102   2.393   2.060
 3388SOL     OW10186   3.883   2.999   3.328
 3388SOL    HW110187   3.905   2.938   3.404
 3388SOL    HW210188   3.893   2.950   3.242
 3389SOL     OW10189   3.807   3.120   2.884
 3389SOL    HW110190   3.802   3.119   2.984
 3389SOL    HW210191   3.724   3.079   2.846
 3390SOL     OW10192   4.412   3.524   3.578
 3390SOL    HW110193   4.356   3.605   3.587
 3390SOL    HW210194   4.464   3.528   3.492
 3391SOL     OW10195   3.854   3.656   3.713
 3391SOL    HW110196   3.813   3.582   3.766
 3391SOL    HW210197   3.918   3.707   3.771
 3392SOL     OW10198   5.004   2.789   2.534
 3392SOL    HW110199   5.064   2.708   2.536
 3392SOL    HW210200   5.044   2.858   2.474
 3393SOL     OW10201   4.554   3.135   3.284
 3393SOL    HW110202   4.549   3.168   3.379
 3393SOL    HW210203   4.468   3.154   3.238
 3394SOL     OW10204   4.396   3.478   2.016
 3394SOL    HW110205   4.405   3.488   1.917
 3394SOL    HW210206   4.356   3.389   2.037
 3395SOL     OW10207   3.987   2.188   2.582
 3395SOL    HW110208   3.908   2.239   2.548
 3395SOL    HW210209   3.978   2.173   2.680
 3396SOL     OW10210   4.546   2.864   3.234
 3396SOL    HW110211   4.586   2.863   3.142
 3396SOL    HW210212   4.556   2.956   3.274
 3397SOL     OW10213   4.640   2.772   2.153
 3397SOL    HW110214   4.703   2.810   2.085
 3397SOL    HW210215   4.680   2.689   2.192
 3398SOL     OW10216   4.096   3.150   3.352
 3398SOL    HW110217   4.083   3.243   3.318
 3398SOL    HW210218   4.012   3.098   3.339
 3399SOL     OW10219   4.763   2.960   2.558
 3399SOL    HW110220   4.693   2.913   2.612
 3399SOL    HW210221   4.822   2.892   2.515
 3400SOL     OW10222   4.738   2.098   2.833
 3400SOL    HW110223   4.730   2.062   2.740
 3400SOL    HW210224   4.736   2.022   2.898
 3401SOL     OW10225   4.314   3.349   2.353
 3401SOL    HW110226   4.356   3.291   2.283
 3401SOL    HW210227   4.270   3.428   2.309
 3402SOL     OW10228   3.979   3.210   2.152
 3402SOL    HW110229   3.883   3.211   2.125
 3402SOL    HW210230   3.991   3.263   2.236
 3403SOL     OW10231   3.829   2.875   3.588
 3403SOL    HW110232   3.752   2.842   3.642
 3403SOL    HW210233   3.914   2.845   3.630
 3404SOL     OW10234   4.396   2.065   3.351
 3404SOL    HW110235   4.486   2.049   3.311
 3404SOL    HW210236   4.404   2.070   3.450
 3405SOL     OW10237   3.799   2.207   1.895
 3405SOL    HW110238   3.707   2.179   1.866
 3405SOL    HW210239   3.830   2.284   1.839
 3406SOL     OW10240   3.796   2.028   2.180
 3406SOL    HW110241   3.779   2.111   2.126
 3406SOL    HW210242   3.886   1.991   2.158
 3407SOL     OW10243   4.337   2.704   3.293
 3407SOL    HW110244   4.393   2.785   3.276
 3407SOL    HW210245   4.396   2.624   3.296
 3408SOL     OW10246   4.440   2.427   3.570
 3408SOL    HW110247   4.459   2.492   3.644
 3408SOL    HW210248   4.500   2.347   3.579
 3409SOL     OW10249   4.114   3.603   3.422
 3409SOL    HW110250   4.023   3.644   3.420
 3409SOL    HW210251   4.107   3.509   3.454
 3410SOL     OW10252   4.949   2.187   2.311
 3410SOL    HW110253   5.014   2.113   2.300
 3410SOL    HW210254   4.969   2.237   2.395
 3411SOL     OW10255   4.318   2.607   2.514
 3411SOL    HW110256   4.368   2.692   2.495
 3411SOL    HW210257   4.230   2.609   2.466
 3412SOL     OW10258   4.583   3.236   1.878
 3412SOL    HW110259   4.537   3.251   1.966
 3412SOL    HW210260   4.627   3.321   1.848
 3413SOL     OW10261   4.385   3.652   2.815
 3413SOL    HW110262   4.339   3.740   2.802
 3413SOL    HW210263   4.484   3.664   2.808
 3414SOL     OW10264   4.583   2.818   2.723
 3414SOL    HW110265   4.637   2.749   2.771
 3414SOL    HW210266   4.551   2.887   2.789
 3415SOL     OW10267   3.945   3.176   3.706
 3415SOL    HW110268   3.880   3.103   3.685
 3415SOL    HW210269   3.949   3.190   3.804
 3416SOL     OW10270   3.803   3.102   2.515
 3416SOL    HW110271   3.802   3.055   2.603
 3416SOL    HW210272   3.885   3.074   2.464
 3417SOL     OW10273   4.396   3.253   3.486
 3417SOL    HW110274   4.318   3.203   3.524
 3417SOL    HW210275   4.393   3.348   3.517
 3418SOL     OW10276   4.152   2.286   2.382
 3418SOL    HW110277   4.182   2.214   2.320
 3418SOL    HW210278   4.113   2.246   2.465
 3419SOL     OW10279   4.041   2.409   3.142
 3419SOL    HW110280   4.079   2.350   3.214
 3419SOL    HW210281   4.081   2.383   3.054
 3420SOL     OW10282   4.536   3.448   2.549
 3420SOL    HW110283   4.568   3.458   2.455
 3420SOL    HW210284   4.457   3.386   2.551
 3421SOL     OW10285   4.725   1.896   3.016
 3421SOL    HW110286   4.662   1.824   2.985
 3421SOL    HW210287   4.818   1.860   3.016
 3422SOL     OW10288   4.494   3.192   2.163
 3422SOL    HW110289   4.448   3.105   2.180
 3422SOL    HW210290   4.585   3.189   2.204
 3423SOL     OW10291   4.342   3.429   3.146
 3423SOL    HW110292   4.337   3.511   3.203
 3423SOL    HW210293   4.431   3.426   3.101
 3424SOL     OW10294   3.763   2.939   2.162
 3424SOL    HW110295   3.862   2.928   2.153
 3424SOL    HW210296   3.723   2.853   2.194
 3425SOL     OW10297   4.599   3.508   2.199
 3425SOL    HW110298   4.522   3.473   2.145
 3425SOL    HW210299   4.567   3.579   2.261
 3426SOL     OW10300   3.954   2.490   3.837
 3426SOL    HW110301   3.861   2.488   3.874
 3426SOL    HW210302   3.955   2.451   3.745
 3427SOL     OW10303   3.949   2.137   4.720
 3427SOL    HW110304   3.984   2.120   4.812
 3427SOL    HW210305   3.861   2.092   4.708
 3428SOL     OW10306   3.743   2.230   4.371
 3428SOL    HW110307   3.661   2.273   4.410
 3428SOL    HW210308   3.715   2.157   4.308
 3429SOL     OW10309   4.492   3.006   4.747
 3429SOL    HW110310   4.414   3.023   4.807
 3429SOL    HW210311   4.526   3.093   4.711
 3430SOL     OW10312   4.409   2.874   4.389
 3430SOL    HW110313   4.478   2.858   4.459
 3430SOL    HW210314   4.336   2.931   4.427
 3431SOL     OW10315   4.059   3.297   4.785
 3431SOL    HW110316   3.981   3.266   4.732
 3431SOL    HW210317   4.117   3.355   4.728
 3432SOL     OW10318   3.955   3.575   4.207
 3432SOL    HW110319   3.989   3.652   4.261
 3432SOL    HW210320   3.999   3.575   4.117
 3433SOL     OW10321   3.954   3.296   4.262
 3433SOL    HW110322   3.928   3.392   4.262
 3433SOL    HW210323   3.883   3.242   4.307
 3434SOL     OW10324   3.964   2.953   4.610
 3434SOL    HW110325   3.978   2.869   4.662
 3434SOL    HW210326   3.909   3.017   4.665
 3435SOL     OW10327   4.330   2.826   3.847
 3435SOL    HW110328   4.337   2.910   3.793
 3435SOL    HW210329   4.376   2.839   3.935
 3436SOL     OW10330   3.846   2.505   4.287
 3436SOL    HW110331   3.801   2.417   4.304
 3436SOL    HW210332   3.845   2.559   4.371
 3437SOL     OW10333   3.751   3.458   3.841
 3437SOL    HW110334   3.732   3.362   3.862
 3437SOL    HW210335   3.718   3.516   3.916
 3438SOL     OW10336   4.337   3.227   4.450
 3438SOL    HW110337   4.288   3.140   4.459
 3438SOL    HW210338   4.314   3.270   4.363
 3439SOL     OW10339   4.533   1.866   4.226
 3439SOL    HW110340   4.573   1.957   4.217
 3439SOL    HW210341   4.433   1.874   4.232
 3440SOL     OW10342   4.322   2.591   3.994
 3440SOL    HW110343   4.346   2.660   3.926
 3440SOL    HW210344   4.244   2.624   4.048
 3441SOL     OW10345   4.765   2.563   4.153
 3441SOL    HW110346   4.791   2.559   4.249
 3441SOL    HW210347   4.680   2.512   4.139
 3442SOL     OW10348   3.800   2.673   4.513
 3442SOL    HW110349   3.899   2.661   4.522
 3442SOL    HW210350   3.776   2.768   4.534
 3443SOL     OW10351   4.589   2.210   3.919
 3443SOL    HW110352   4.648   2.273   3.870
 3443SOL    HW210353   4.608   2.116   3.890
 3444SOL     OW10354   4.274   2.058   4.609
 3444SOL    HW110355   4.269   2.053   4.709
 3444SOL    HW210356   4.276   2.154   4.580
 3445SOL     OW10357   4.732   3.318   4.201
 3445SOL    HW110358   4.686   3.390   4.149
 3445SOL    HW210359   4.728   3.338   4.299
 3446SOL     OW10360   4.075   3.663   4.577
 3446SOL    HW110361   4.125   3.577   4.583
 3446SOL    HW210362   4.140   3.740   4.574
 3447SOL     OW10363   4.045   2.805   3.966
 3447SOL    HW110364   4.127   2.844   3.924
 3447SOL    HW210365   4.018   2.723   3.917
 3448SOL     OW10366   4.188   3.605   4.047
 3448SOL    HW110367   4.221   3.644   4.133
 3448SOL    HW210368   4.264   3.598   3.982
 3449SOL     OW10369   3.973   3.647   4.965
 3449SOL    HW110370   4.030   3.582   5.015
 3449SOL    HW210371   3.957   3.614   4.872
 3450SOL     OW10372   4.664   3.560   4.628
 3450SOL    HW110373   4.744   3.503   4.649
 3450SOL    HW210374   4.615   3.520   4.551
 3451SOL     OW10375   4.106   2.562   4.204
 3451SOL    HW110376   4.151   2.472   4.201
 3451SOL    HW210377   4.012   2.551   4.237
 3452SOL     OW10378   4.338   1.984   3.841
 3452SOL    HW110379   4.436   1.962   3.848
 3452SOL    HW210380   4.307   1.967   3.748
 3453SOL     OW10381   4.527   3.264   4.648
 3453SOL    HW110382   4.617   3.278   4.606
 3453SOL    HW210383   4.456   3.266   4.577
 3454SOL     OW10384   4.646   2.365   4.623
 3454SOL    HW110385   4.621   2.356   4.527
 3454SOL    HW210386   4.694   2.283   4.654
 3455SOL     OW10387   4.263   1.926   4.236
 3455SOL    HW110388   4.182   1.927   4.294
 3455SOL    HW210389   4.266   2.009   4.181
 3456SOL     OW10390   4.021   1.897   3.895
 3456SOL    HW110391   4.070   1.981   3.874
 3456SOL    HW210392   4.083   1.832   3.940
 3457SOL     OW10393   4.659   2.098   4.204
 3457SOL    HW110394   4.611   2.139   4.126
 3457SOL    HW210395   4.758   2.096   4.185
 3458SOL     OW10396   4.951   3.432   4.517
 3458SOL    HW110397   4.972   3.506   4.452
 3458SOL    HW210398   5.019   3.432   4.590
 3459SOL     OW10399   4.183   3.014   4.465
 3459SOL    HW110400   4.112   2.987   4.530
 3459SOL    HW210401   4.157   2.986   4.372
 3460SOL     OW10402   4.756   2.411   3.740
 3460SOL    HW110403   4.715   2.493   3.701
 3460SOL    HW210404   4.820   2.437   3.813
 3461SOL     OW10405   4.590   2.316   4.366
 3461SOL    HW110406   4.558   2.388   4.304
 3461SOL    HW210407   4.614   2.235   4.313
 3462SOL     OW10408   4.741   1.901   4.477
 3462SOL    HW110409   4.669   1.906   4.408
 3462SOL    HW210410   4.717   1.832   4.546
 3463SOL     OW10411   4.212   3.247   3.898
 3463SOL    HW110412   4.125   3.232   3.945
 3463SOL    HW210413   4.195   3.273   3.803
 3464SOL     OW10414   4.251   2.118   4.052
 3464SOL    HW110415   4.278   2.059   3.977
 3464SOL    HW210416   4.251   2.213   4.021
 3465SOL     OW10417   4.429   2.912   4.092
 3465SOL    HW110418   4.415   2.919   4.191
 3465SOL    HW210419   4.513   2.861   4.074
 3466SOL     OW10420   4.091   2.962   4.225
 3466SOL    HW110421   4.084   3.045   4.169
 3466SOL    HW210422   4.095   2.882   4.165
 3467SOL     OW10423   4.290   2.399   4.589
 3467SOL    HW110424   4.302   2.465   4.515
 3467SOL    HW210425   4.336   2.433   4.672
 3468SOL     OW10426   4.297   2.732   4.753
 3468SOL    HW110427   4.341   2.821   4.744
 3468SOL    HW210428   4.234   2.732   4.830
 3469SOL     OW10429   4.933   2.387   3.999
 3469SOL    HW110430   4.946   2.303   4.053
 3469SOL    HW210431   4.904   2.461   4.059
 3470SOL     OW10432   4.031   2.075   4.955
 3470SOL    HW110433   4.008   2.112   5.045
 3470SOL    HW210434   4.001   1.980   4.949
 3471SOL     OW10435   4.456   2.496   4.788
 3471SOL    HW110436   4.515   2.470   4.712
 3471SOL    HW210437   4.428   2.592   4.777
 3472SOL     OW10438   4.031   1.925   4.342
 3472SOL    HW110439   4.020   2.019   4.375
 3472SOL    HW210440   4.026   1.862   4.419
 3473SOL     OW10441   4.043   2.672   4.673
 3473SOL    HW110442   4.136   2.708   4.678
 3473SOL    HW210443   4.037   2.587   4.725
 3474SOL     OW10444   4.063   2.371   4.730
 3474SOL    HW110445   4.011   2.288   4.713
 3474SOL    HW210446   4.140   2.376   4.666
 3475SOL     OW10447   3.732   3.188   3.924
 3475SOL    HW110448   3.639   3.209   3.893
 3475SOL    HW210449   3.742   3.089   3.937
 3476SOL     OW10450   3.812   3.663   4.651
 3476SOL    HW110451   3.770   3.577   4.624
 3476SOL    HW210452   3.906   3.666   4.617
 3477SOL     OW10453   4.228   3.430   4.634
 3477SOL    HW110454   4.294   3.504   4.643
 3477SOL    HW210455   4.272   3.351   4.592
 3478SOL     OW10456   4.726   2.658   4.962
 3478SOL    HW110457   4.767   2.626   5.048
 3478SOL    HW210458   4.630   2.631   4.959
 3479SOL     OW10459   4.539   2.434   4.049
 3479SOL    HW110460   4.546   2.345   4.003
 3479SOL    HW210461   4.445   2.468   4.041
 3480SOL     OW10462   4.395   2.326   4.993
 3480SOL    HW110463   4.361   2.237   4.963
 3480SOL    HW210464   4.421   2.380   4.913
 3481SOL     OW10465   4.197   2.362   3.915
 3481SOL    HW110466   4.258   2.442   3.919
 3481SOL    HW210467   4.102   2.393   3.922
 3482SOL     OW10468   3.807   3.120   4.746
 3482SOL    HW110469   3.802   3.119   4.846
 3482SOL    HW210470   3.724   3.079   4.708
 3483SOL     OW10471   5.004   2.789   4.396
 3483SOL    HW110472   5.064   2.708   4.398
 3483SOL    HW210473   5.044   2.858   4.336
 3484SOL     OW10474   4.396   3.478   3.878
 3484SOL    HW110475   4.405   3.488   3.779
 3484SOL    HW210476   4.356   3.389   3.899
 3485SOL     OW10477   3.987   2.188   4.444
 3485SOL    HW110478   3.908   2.239   4.410
 3485SOL    HW210479   3.978   2.173   4.542
 3486SOL     OW10480   4.640   2.772   4.015
 3486SOL    HW110481   4.703   2.810   3.947
 3486SOL    HW210482   4.680   2.689   4.054
 3487SOL     OW10483   4.763   2.960   4.420
 3487SOL    HW110484   4.693   2.913   4.474
 3487SOL    HW210485   4.822   2.892   4.377
 3488SOL     OW10486   4.738   2.098   4.695
 3488SOL    HW110487   4.730   2.062   4.602
 3488SOL    HW210488   4.736   2.022   4.760
 3489SOL     OW10489   4.314   3.349   4.215
 3489SOL    HW110490   4.356   3.291   4.145
 3489SOL    HW210491   4.270   3.428   4.171
 3490SOL     OW10492   3.979   3.210   4.014
 3490SOL    HW110493   3.883   3.211   3.987
 3490SOL    HW210494   3.991   3.263   4.098
 3491SOL     OW10495   3.799   2.207   3.757
 3491SOL    HW110496   3.707   2.179   3.728
 3491SOL    HW210497   3.830   2.284   3.701
 3492SOL     OW10498   3.796   2.028   4.042
 3492SOL    HW110499   3.779   2.111   3.988
 3492SOL    HW210500   3.886   1.991   4.020
 3493SOL     OW10501   4.949   2.187   4.173
 3493SOL    HW110502   5.014   2.113   4.162
 3493SOL    HW210503   4.969   2.237   4.257
 3494SOL     OW10504   4.318   2.607   4.376
 3494SOL    HW110505   4.368   2.692   4.357
 3494SOL    HW210506   4.230   2.609   4.328
 3495SOL     OW10507   4.583   3.236   3.740
 3495SOL    HW110508   4.537   3.251   3.828
 3495SOL    HW210509   4.627   3.321   3.710
 3496SOL     OW10510   4.385   3.652   4.677
 3496SOL    HW110511   4.339   3.740   4.664
 3496SOL    HW210512   4.484   3.664   4.670
 3497SOL     OW10513   4.583   2.818   4.585
 3497SOL    HW110514   4.637   2.749   4.633
 3497SOL    HW210515   4.551   2.887   4.651
 3498SOL     OW10516   3.803   3.102   4.377
 3498SOL    HW110517   3.802   3.055   4.465
 3498SOL    HW210518   3.885   3.074   4.326
 3499SOL     OW10519   4.152   2.286   4.244
 3499SOL    HW110520   4.182   2.214   4.182
 3499SOL    HW210521   4.113   2.246   4.327
 3500SOL     OW10522   4.536   3.448   4.411
 3500SOL    HW110523   4.568   3.458   4.317
 3500SOL    HW210524   4.457   3.386   4.413
 3501SOL     OW10525   4.494   3.192   4.025
 3501SOL    HW110526   4.448   3.105   4.042
 3501SOL    HW210527   4.585   3.189   4.066
 3502SOL     OW10528   3.763   2.939   4.024
 3502SOL    HW110529   3.862   2.928   4.015
 3502SOL    HW210530   3.723   2.853   4.056
 3503SOL     OW10531   4.599   3.508   4.061
 3503SOL    HW110532   4.522   3.473   4.007
 3503SOL    HW210533   4.567   3.579   4.123
 3504SOL     OW10534   3.954   4.352   0.113
 3504SOL    HW110535   3.861   4.350   0.150
 3504SOL    HW210536   3.955   4.313   0.021
 3505SOL     OW10537   3.949   3.999   0.996
 3505SOL    HW110538   3.984   3.982   1.088
 3505SOL    HW210539   3.861   3.954   0.984
 3506SOL     OW10540   3.743   4.092   0.647
 3506SOL    HW110541   3.661   4.135   0.686
 3506SOL    HW210542   3.715   4.019   0.584
 3507SOL     OW10543   4.492   4.868   1.023
 3507SOL    HW110544   4.414   4.885   1.083
 3507SOL    HW210545   4.526   4.955   0.987
 3508SOL     OW10546   4.574   4.522   1.823
 3508SOL    HW110547   4.570   4.598   1.888
 3508SOL    HW210548   4.596   4.558   1.732
 3509SOL     OW10549   4.409   4.736   0.665
 3509SOL    HW110550   4.478   4.720   0.735
 3509SOL    HW210551   4.336   4.793   0.703
 3510SOL     OW10552   4.162   4.116   1.499
 3510SOL    HW110553   4.244   4.060   1.508
 3510SOL    HW210554   4.081   4.058   1.503
 3511SOL     OW10555   3.964   4.815   0.886
 3511SOL    HW110556   3.978   4.731   0.938
 3511SOL    HW210557   3.909   4.879   0.941
 3512SOL     OW10558   4.330   4.688   0.123
 3512SOL    HW110559   4.337   4.772   0.069
 3512SOL    HW210560   4.376   4.701   0.211
 3513SOL     OW10561   3.846   4.367   0.563
 3513SOL    HW110562   3.801   4.279   0.580
 3513SOL    HW210563   3.845   4.421   0.647
 3514SOL     OW10564   3.837   4.461   1.597
 3514SOL    HW110565   3.925   4.448   1.642
 3514SOL    HW210566   3.824   4.558   1.575
 3515SOL     OW10567   4.533   3.728   0.502
 3515SOL    HW110568   4.573   3.819   0.493
 3515SOL    HW210569   4.433   3.736   0.508
 3516SOL     OW10570   3.921   4.700   1.264
 3516SOL    HW110571   4.010   4.655   1.250
 3516SOL    HW210572   3.848   4.635   1.245
 3517SOL     OW10573   4.041   3.975   1.801
 3517SOL    HW110574   4.112   4.046   1.807
 3517SOL    HW210575   3.953   4.014   1.829
 3518SOL     OW10576   4.322   4.453   0.270
 3518SOL    HW110577   4.346   4.522   0.202
 3518SOL    HW210578   4.244   4.486   0.324
 3519SOL     OW10579   4.531   4.329   1.465
 3519SOL    HW110580   4.484   4.326   1.554
 3519SOL    HW210581   4.480   4.274   1.399
 3520SOL     OW10582   4.697   4.614   1.572
 3520SOL    HW110583   4.743   4.530   1.543
 3520SOL    HW210584   4.641   4.648   1.497
 3521SOL     OW10585   4.715   4.134   1.242
 3521SOL    HW110586   4.638   4.168   1.296
 3521SOL    HW210587   4.681   4.083   1.163
 3522SOL     OW10588   4.765   4.425   0.429
 3522SOL    HW110589   4.791   4.421   0.525
 3522SOL    HW210590   4.680   4.374   0.415
 3523SOL     OW10591   3.800   4.535   0.789
 3523SOL    HW110592   3.899   4.523   0.798
 3523SOL    HW210593   3.776   4.630   0.810
 3524SOL     OW10594   4.589   4.072   0.195
 3524SOL    HW110595   4.648   4.135   0.146
 3524SOL    HW210596   4.608   3.978   0.166
 3525SOL     OW10597   4.274   3.920   0.885
 3525SOL    HW110598   4.269   3.915   0.985
 3525SOL    HW210599   4.276   4.016   0.856
 3526SOL     OW10600   3.926   4.009   1.498
 3526SOL    HW110601   3.846   4.069   1.485
 3526SOL    HW210602   3.916   3.960   1.584
 3527SOL     OW10603   4.106   4.424   0.480
 3527SOL    HW110604   4.151   4.334   0.477
 3527SOL    HW210605   4.012   4.413   0.513
 3528SOL     OW10606   4.338   3.846   0.117
 3528SOL    HW110607   4.436   3.824   0.124
 3528SOL    HW210608   4.307   3.829   0.024
 3529SOL     OW10609   4.505   3.988   1.749
 3529SOL    HW110610   4.572   3.927   1.792
 3529SOL    HW210611   4.432   4.007   1.814
 3530SOL     OW10612   4.646   4.227   0.899
 3530SOL    HW110613   4.621   4.218   0.803
 3530SOL    HW210614   4.694   4.145   0.930
 3531SOL     OW10615   4.263   3.788   0.512
 3531SOL    HW110616   4.182   3.789   0.570
 3531SOL    HW210617   4.266   3.871   0.457
 3532SOL     OW10618   4.659   3.960   0.480
 3532SOL    HW110619   4.611   4.001   0.402
 3532SOL    HW210620   4.758   3.958   0.461
 3533SOL     OW10621   4.756   4.273   0.016
 3533SOL    HW110622   4.715   4.355  -0.023
 3533SOL    HW210623   4.820   4.299   0.089
 3534SOL     OW10624   3.802   4.280   1.386
 3534SOL    HW110625   3.894   4.279   1.345
 3534SOL    HW210626   3.796   4.354   1.453
 3535SOL     OW10627   4.285   3.946   1.147
 3535SOL    HW110628   4.323   3.862   1.184
 3535SOL    HW210629   4.197   3.965   1.191
 3536SOL     OW10630   4.590   4.178   0.642
 3536SOL    HW110631   4.558   4.250   0.580
 3536SOL    HW210632   4.614   4.097   0.589
 3537SOL     OW10633   4.741   3.763   0.753
 3537SOL    HW110634   4.669   3.768   0.684
 3537SOL    HW210635   4.717   3.694   0.822
 3538SOL     OW10636   4.251   3.980   0.328
 3538SOL    HW110637   4.278   3.921   0.253
 3538SOL    HW210638   4.251   4.075   0.297
 3539SOL     OW10639   4.639   3.813   1.402
 3539SOL    HW110640   4.664   3.793   1.307
 3539SOL    HW210641   4.711   3.869   1.444
 3540SOL     OW10642   4.134   4.537   1.251
 3540SOL    HW110643   4.220   4.549   1.301
 3540SOL    HW210644   4.092   4.450   1.278
 3541SOL     OW10645   4.290   4.261   0.865
 3541SOL    HW110646   4.302   4.327   0.791
 3541SOL    HW210647   4.336   4.295   0.948
 3542SOL     OW10648   4.126   4.475   1.598
 3542SOL    HW110649   4.194   4.530   1.551
 3542SOL    HW210650   4.166   4.387   1.625
 3543SOL     OW10651   4.737   3.829   1.770
 3543SOL    HW110652   4.743   3.914   1.718
 3543SOL    HW210653   4.769   3.753   1.713
 3544SOL     OW10654   4.228   3.774   1.740
 3544SOL    HW110655   4.186   3.717   1.670
 3544SOL    HW210656   4.162   3.843   1.772
 3545SOL     OW10657   4.297   4.594   1.029
 3545SOL    HW110658   4.341   4.683   1.020
 3545SOL    HW210659   4.234   4.594   1.106
 3546SOL     OW10660   4.933   4.249   0.275
 3546SOL    HW110661   4.946   4.165   0.329
 3546SOL    HW210662   4.904   4.323   0.335
 3547SOL     OW10663   4.031   3.937   1.231
 3547SOL    HW110664   4.008   3.974   1.321
 3547SOL    HW210665   4.001   3.842   1.225
 3548SOL     OW10666   4.456   4.358   1.064
 3548SOL    HW110667   4.515   4.332   0.988
 3548SOL    HW210668   4.428   4.454   1.053
 3549SOL     OW10669   4.031   3.787   0.618
 3549SOL    HW110670   4.020   3.881   0.651
 3549SOL    HW210671   4.026   3.724   0.695
 3550SOL     OW10672   4.747   4.490   0.966
 3550SOL    HW110673   4.762   4.511   1.062
 3550SOL    HW210674   4.717   4.395   0.957
 3551SOL     OW10675   4.074   4.622   1.804
 3551SOL    HW110676   4.150   4.666   1.852
 3551SOL    HW210677   4.109   4.575   1.722
 3552SOL     OW10678   4.043   4.534   0.949
 3552SOL    HW110679   4.136   4.570   0.954
 3552SOL    HW210680   4.037   4.449   1.001
 3553SOL     OW10681   4.063   4.233   1.006
 3553SOL    HW110682   4.011   4.150   0.989
 3553SOL    HW210683   4.140   4.238   0.942
 3554SOL     OW10684   4.726   4.520   1.238
 3554SOL    HW110685   4.767   4.488   1.324
 3554SOL    HW210686   4.630   4.493   1.235
 3555SOL     OW10687   3.764   4.268   1.114
 3555SOL    HW110688   3.849   4.235   1.073
 3555SOL    HW210689   3.777   4.283   1.212
 3556SOL     OW10690   3.913   4.244   1.722
 3556SOL    HW110691   3.972   4.204   1.652
 3556SOL    HW210692   3.855   4.315   1.681
 3557SOL     OW10693   4.539   4.296   0.325
 3557SOL    HW110694   4.546   4.207   0.279
 3557SOL    HW210695   4.445   4.330   0.317
 3558SOL     OW10696   4.395   4.188   1.269
 3558SOL    HW110697   4.361   4.099   1.239
 3558SOL    HW210698   4.421   4.242   1.189
 3559SOL     OW10699   4.197   4.224   0.191
 3559SOL    HW110700   4.258   4.304   0.195
 3559SOL    HW210701   4.102   4.255   0.198
 3560SOL     OW10702   3.883   4.861   1.466
 3560SOL    HW110703   3.905   4.800   1.542
 3560SOL    HW210704   3.893   4.812   1.380
 3561SOL     OW10705   4.627   3.810   0.133
 3561SOL    HW110706   4.678   3.811   0.047
 3561SOL    HW210707   4.683   3.768   0.204
 3562SOL     OW10708   5.004   4.651   0.672
 3562SOL    HW110709   5.064   4.570   0.674
 3562SOL    HW210710   5.044   4.720   0.612
 3563SOL     OW10711   3.987   4.050   0.720
 3563SOL    HW110712   3.908   4.101   0.686
 3563SOL    HW210713   3.978   4.035   0.818
 3564SOL     OW10714   4.640   4.634   0.291
 3564SOL    HW110715   4.703   4.672   0.223
 3564SOL    HW210716   4.680   4.551   0.330
 3565SOL     OW10717   4.738   3.960   0.971
 3565SOL    HW110718   4.730   3.924   0.878
 3565SOL    HW210719   4.736   3.884   1.036
 3566SOL     OW10720   3.829   4.737   1.726
 3566SOL    HW110721   3.752   4.704   1.780
 3566SOL    HW210722   3.914   4.707   1.768
 3567SOL     OW10723   4.396   3.927   1.489
 3567SOL    HW110724   4.486   3.911   1.449
 3567SOL    HW210725   4.404   3.932   1.588
 3568SOL     OW10726   3.799   4.069   0.033
 3568SOL    HW110727   3.707   4.041   0.004
 3568SOL    HW210728   3.830   4.146  -0.023
 3569SOL     OW10729   3.796   3.890   0.318
 3569SOL    HW110730   3.779   3.973   0.264
 3569SOL    HW210731   3.886   3.853   0.296
 3570SOL     OW10732   4.337   4.566   1.431
 3570SOL    HW110733   4.393   4.647   1.414
 3570SOL    HW210734   4.396   4.486   1.434
 3571SOL     OW10735   4.440   4.289   1.708
 3571SOL    HW110736   4.459   4.354   1.782
 3571SOL    HW210737   4.500   4.209   1.717
 3572SOL     OW10738   4.949   4.049   0.449
 3572SOL    HW110739   5.014   3.975   0.438
 3572SOL    HW210740   4.969   4.099   0.533
 3573SOL     OW10741   4.318   4.469   0.652
 3573SOL    HW110742   4.368   4.554   0.633
 3573SOL    HW210743   4.230   4.471   0.604
 3574SOL     OW10744   4.583   4.680   0.861
 3574SOL    HW110745   4.637   4.611   0.909
 3574SOL    HW210746   4.551   4.749   0.927
 3575SOL     OW10747   3.803   4.964   0.653
 3575SOL    HW110748   3.802   4.917   0.741
 3575SOL    HW210749   3.885   4.936   0.602
 3576SOL     OW10750   4.152   4.148   0.520
 3576SOL    HW110751   4.182   4.076   0.458
 3576SOL    HW210752   4.113   4.108   0.603
 3577SOL     OW10753   4.041   4.271   1.280
 3577SOL    HW110754   4.079   4.212   1.352
 3577SOL    HW210755   4.081   4.245   1.192
 3578SOL     OW10756   4.725   3.758   1.154
 3578SOL    HW110757   4.662   3.686   1.123
 3578SOL    HW210758   4.818   3.722   1.154
 3579SOL     OW10759   3.763   4.801   0.300
 3579SOL    HW110760   3.862   4.790   0.291
 3579SOL    HW210761   3.723   4.715   0.332
 3580SOL     OW10762   3.954   4.352   1.975
 3580SOL    HW110763   3.861   4.350   2.012
 3580SOL    HW210764   3.955   4.313   1.883
 3581SOL     OW10765   3.949   3.999   2.858
 3581SOL    HW110766   3.984   3.982   2.950
 3581SOL    HW210767   3.861   3.954   2.846
 3582SOL     OW10768   3.743   4.092   2.509
 3582SOL    HW110769   3.661   4.135   2.548
 3582SOL    HW210770   3.715   4.019   2.446
 3583SOL     OW10771   4.492   4.868   2.885
 3583SOL    HW110772   4.414   4.885   2.945
 3583SOL    HW210773   4.526   4.955   2.849
 3584SOL     OW10774   4.574   4.522   3.685
 3584SOL    HW110775   4.570   4.598   3.750
 3584SOL    HW210776   4.596   4.558   3.594
 3585SOL     OW10777   4.409   4.736   2.527
 3585SOL    HW110778   4.478   4.720   2.597
 3585SOL    HW210779   4.336   4.793   2.565
 3586SOL     OW10780   4.162   4.116   3.361
 3586SOL    HW110781   4.244   4.060   3.370
 3586SOL    HW210782   4.081   4.058   3.365
 3587SOL     OW10783   3.964   4.815   2.748
 3587SOL    HW110784   3.978   4.731   2.800
 3587SOL    HW210785   3.909   4.879   2.803
 3588SOL     OW10786   4.330   4.688   1.985
 3588SOL    HW110787   4.337   4.772   1.931
 3588SOL    HW210788   4.376   4.701   2.073
 3589SOL     OW10789   3.846   4.367   2.425
 3589SOL    HW110790   3.801   4.279   2.442
 3589SOL    HW210791   3.845   4.421   2.509
 3590SOL     OW10792   3.837   4.461   3.459
 3590SOL    HW110793   3.925   4.448   3.504
 3590SOL    HW210794   3.824   4.558   3.437
 3591SOL     OW10795   4.533   3.728   2.364
 3591SOL    HW110796   4.573   3.819   2.355
 3591SOL    HW210797   4.433   3.736   2.370
 3592SOL     OW10798   3.921   4.700   3.126
 3592SOL    HW110799   4.010   4.655   3.112
 3592SOL    HW210800   3.848   4.635   3.107
 3593SOL     OW10801   4.041   3.975   3.663
 3593SOL    HW110802   4.112   4.046   3.669
 3593SOL    HW210803   3.953   4.014   3.691
 3594SOL     OW10804   4.322   4.453   2.132
 3594SOL    HW110805   4.346   4.522   2.064
 3594SOL    HW210806   4.244   4.486   2.186
 3595SOL     OW10807   4.531   4.329   3.327
 3595SOL    HW110808   4.484   4.326   3.416
 3595SOL    HW210809   4.480   4.274   3.261
 3596SOL     OW10810   4.697   4.614   3.434
 3596SOL    HW110811   4.743   4.530   3.405
 3596SOL    HW210812   4.641   4.648   3.359
 3597SOL     OW10813   4.715   4.134   3.104
 3597SOL    HW110814   4.638   4.168   3.158
 3597SOL    HW210815   4.681   4.083   3.025
 3598SOL     OW10816   4.765   4.425   2.291
 3598SOL    HW110817   4.791   4.421   2.387
 3598SOL    HW210818   4.680   4.374   2.277
 3599SOL     OW10819   3.800   4.535   2.651
 3599SOL    HW110820   3.899   4.523   2.660
 3599SOL    HW210821   3.776   4.630   2.672
 3600SOL     OW10822   4.589   4.072   2.057
 3600SOL    HW110823   4.648   4.135   2.008
 3600SOL    HW210824   4.608   3.978   2.028
 3601SOL     OW10825   4.274   3.920   2.747
 3601SOL    HW110826   4.269   3.915   2.847
 3601SOL    HW210827   4.276   4.016   2.718
 3602SOL     OW10828   3.926   4.009   3.360
 3602SOL    HW110829   3.846   4.069   3.347
 3602SOL    HW210830   3.916   3.960   3.446
 3603SOL     OW10831   4.106   4.424   2.342
 3603SOL    HW110832   4.151   4.334   2.339
 3603SOL    HW210833   4.012   4.413   2.375
 3604SOL     OW10834   4.338   3.846   1.979
 3604SOL    HW110835   4.436   3.824   1.986
 3604SOL    HW210836   4.307   3.829   1.886
 3605SOL     OW10837   4.505   3.988   3.611
 3605SOL    HW110838   4.572   3.927   3.654
 3605SOL    HW210839   4.432   4.007   3.676
 3606SOL     OW10840   4.646   4.227   2.761
 3606SOL    HW110841   4.621   4.218   2.665
 3606SOL    HW210842   4.694   4.145   2.792
 3607SOL     OW10843   4.263   3.788   2.374
 3607SOL    HW110844   4.182   3.789   2.432
 3607SOL    HW210845   4.266   3.871   2.319
 3608SOL     OW10846   4.021   3.759   2.033
 3608SOL    HW110847   4.070   3.843   2.012
 3608SOL    HW210848   4.083   3.694   2.078
 3609SOL     OW10849   4.659   3.960   2.342
 3609SOL    HW110850   4.611   4.001   2.264
 3609SOL    HW210851   4.758   3.958   2.323
 3610SOL     OW10852   4.756   4.273   1.878
 3610SOL    HW110853   4.715   4.355   1.839
 3610SOL    HW210854   4.820   4.299   1.951
 3611SOL     OW10855   3.802   4.280   3.248
 3611SOL    HW110856   3.894   4.279   3.207
 3611SOL    HW210857   3.796   4.354   3.315
 3612SOL     OW10858   4.285   3.946   3.009
 3612SOL    HW110859   4.323   3.862   3.046
 3612SOL    HW210860   4.197   3.965   3.053
 3613SOL     OW10861   4.590   4.178   2.504
 3613SOL    HW110862   4.558   4.250   2.442
 3613SOL    HW210863   4.614   4.097   2.451
 3614SOL     OW10864   4.741   3.763   2.615
 3614SOL    HW110865   4.669   3.768   2.546
 3614SOL    HW210866   4.717   3.694   2.684
 3615SOL     OW10867   4.251   3.980   2.190
 3615SOL    HW110868   4.278   3.921   2.115
 3615SOL    HW210869   4.251   4.075   2.159
 3616SOL     OW10870   4.639   3.813   3.264
 3616SOL    HW110871   4.664   3.793   3.169
 3616SOL    HW210872   4.711   3.869   3.306
 3617SOL     OW10873   4.134   4.537   3.113
 3617SOL    HW110874   4.220   4.549   3.163
 3617SOL    HW210875   4.092   4.450   3.140
 3618SOL     OW10876   4.290   4.261   2.727
 3618SOL    HW110877   4.302   4.327   2.653
 3618SOL    HW210878   4.336   4.295   2.810
 3619SOL     OW10879   4.126   4.475   3.460
 3619SOL    HW110880   4.194   4.530   3.413
 3619SOL    HW210881   4.166   4.387   3.487
 3620SOL     OW10882   4.737   3.829   3.632
 3620SOL    HW110883   4.743   3.914   3.580
 3620SOL    HW210884   4.769   3.753   3.575
 3621SOL     OW10885   4.228   3.774   3.602
 3621SOL    HW110886   4.186   3.717   3.532
 3621SOL    HW210887   4.162   3.843   3.634
 3622SOL     OW10888   4.297   4.594   2.891
 3622SOL    HW110889   4.341   4.683   2.882
 3622SOL    HW210890   4.234   4.594   2.968
 3623SOL     OW10891   4.933   4.249   2.137
 3623SOL    HW110892   4.946   4.165   2.191
 3623SOL    HW210893   4.904   4.323   2.197
 3624SOL     OW10894   4.031   3.937   3.093
 3624SOL    HW110895   4.008   3.974   3.183
 3624SOL    HW210896   4.001   3.842   3.087
 3625SOL     OW10897   4.456   4.358   2.926
 3625SOL    HW110898   4.515   4.332   2.850
 3625SOL    HW210899   4.428   4.454   2.915
 3626SOL     OW10900   4.031   3.787   2.480
 3626SOL    HW110901   4.020   3.881   2.513
 3626SOL    HW210902   4.026   3.724   2.557
 3627SOL     OW10903   4.747   4.490   2.828
 3627SOL    HW110904   4.762   4.511   2.924
 3627SOL    HW210905   4.717   4.395   2.819
 3628SOL     OW10906   4.074   4.622   3.666
 3628SOL    HW110907   4.150   4.666   3.714
 3628SOL    HW210908   4.109   4.575   3.584
 3629SOL     OW10909   4.043   4.534   2.811
 3629SOL    HW110910   4.136   4.570   2.816
 3629SOL    HW210911   4.037   4.449   2.863
 3630SOL     OW10912   4.063   4.233   2.868
 3630SOL    HW110913   4.011   4.150   2.851
 3630SOL    HW210914   4.140   4.238   2.804
 3631SOL     OW10915   4.726   4.520   3.100
 3631SOL    HW110916   4.767   4.488   3.186
 3631SOL    HW210917   4.630   4.493   3.097
 3632SOL     OW10918   3.764   4.268   2.976
 3632SOL    HW110919   3.849   4.235   2.935
 3632SOL    HW210920   3.777   4.283   3.074
 3633SOL     OW10921   3.913   4.244   3.584
 3633SOL    HW110922   3.972   4.204   3.514
 3633SOL    HW210923   3.855   4.315   3.543
 3634SOL     OW10924   4.539   4.296   2.187
 3634SOL    HW110925   4.546   4.207   2.141
 3634SOL    HW210926   4.445   4.330   2.179
 3635SOL     OW10927   4.395   4.188   3.131
 3635SOL    HW110928   4.361   4.099   3.101
 3635SOL    HW210929   4.421   4.242   3.051
 3636SOL     OW10930   4.197   4.224   2.053
 3636SOL    HW110931   4.258   4.304   2.057
 3636SOL    HW210932   4.102   4.255   2.060
 3637SOL     OW10933   3.883   4.861   3.328
 3637SOL    HW110934   3.905   4.800   3.404
 3637SOL    HW210935   3.893   4.812   3.242
 3638SOL     OW10936   5.026   4.579   2.171
 3638SOL    HW110937   4.940   4.548   2.213
 3638SOL    HW210938   5.022   4.565   2.072
 3639SOL     OW10939   5.004   4.651   2.534
 3639SOL    HW110940   5.064   4.570   2.536
 3639SOL    HW210941   5.044   4.720   2.474
 3640SOL     OW10942   3.987   4.050   2.582
 3640SOL    HW110943   3.908   4.101   2.548
 3640SOL    HW210944   3.978   4.035   2.680
 3641SOL     OW10945   4.640   4.634   2.153
 3641SOL    HW110946   4.703   4.672   2.085
 3641SOL    HW210947   4.680   4.551   2.192
 3642SOL     OW10948   4.738   3.960   2.833
 3642SOL    HW110949   4.730   3.924   2.740
 3642SOL    HW210950   4.736   3.884   2.898
 3643SOL     OW10951   3.829   4.737   3.588
 3643SOL    HW110952   3.752   4.704   3.642
 3643SOL    HW210953   3.914   4.707   3.630
 3644SOL     OW10954   4.396   3.927   3.351
 3644SOL    HW110955   4.486   3.911   3.311
 3644SOL    HW210956   4.404   3.932   3.450
 3645SOL     OW10957   3.799   4.069   1.895
 3645SOL    HW110958   3.707   4.041   1.866
 3645SOL    HW210959   3.830   4.146   1.839
 3646SOL     OW10960   3.796   3.890   2.180
 3646SOL    HW110961   3.779   3.973   2.126
 3646SOL    HW210962   3.886   3.853   2.158
 3647SOL     OW10963   4.337   4.566   3.293
 3647SOL    HW110964   4.393   4.647   3.276
 3647SOL    HW210965   4.396   4.486   3.296
 3648SOL     OW10966   4.440   4.289   3.570
 3648SOL    HW110967   4.459   4.354   3.644
 3648SOL    HW210968   4.500   4.209   3.579
 3649SOL     OW10969   4.949   4.049   2.311
 3649SOL    HW110970   5.014   3.975   2.300
 3649SOL    HW210971   4.969   4.099   2.395
 3650SOL     OW10972   4.318   4.469   2.514
 3650SOL    HW110973   4.368   4.554   2.495
 3650SOL    HW210974   4.230   4.471   2.466
 3651SOL     OW10975   4.583   4.680   2.723
 3651SOL    HW110976   4.637   4.611   2.771
 3651SOL    HW210977   4.551   4.749   2.789
 3652SOL     OW10978   3.803   4.964   2.515
 3652SOL    HW110979   3.802   4.917   2.603
 3652SOL    HW210980   3.885   4.936   2.464
 3653SOL     OW10981   4.152   4.148   2.382
 3653SOL    HW110982   4.182   4.076   2.320
 3653SOL    HW210983   4.113   4.108   2.465
 3654SOL     OW10984   4.041   4.271   3.142
 3654SOL    HW110985   4.079   4.212   3.214
 3654SOL    HW210986   4.081   4.245   3.054
 3655SOL     OW10987   4.725   3.758   3.016
 3655SOL    HW110988   4.662   3.686   2.985
 3655SOL    HW210989   4.818   3.722   3.016
 3656SOL     OW10990   3.763   4.801   2.162
 3656SOL    HW110991   3.862   4.790   2.153
 3656SOL    HW210992   3.723   4.715   2.194
 3657SOL     OW10993   3.954   4.352   3.837
 3657SOL    HW110994   3.861   4.350   3.874
 3657SOL    HW210995   3.955   4.313   3.745
 3658SOL     OW10996   3.949   3.999   4.720
 3658SOL    HW110997   3.984   3.982   4.812
 3658SOL    HW210998   3.861   3.954   4.708
 3659SOL     OW10999   3.743   4.092   4.371
 3659SOL    HW111000   3.661   4.135   4.410
 3659SOL    HW211001   3.715   4.019   4.308
 3660SOL     OW11002   4.409   4.736   4.389
 3660SOL    HW111003   4.478   4.720   4.459
 3660SOL    HW211004   4.336   4.793   4.427
 3661SOL     OW11005   3.964   4.815   4.610
 3661SOL    HW111006   3.978   4.731   4.662
 3661SOL    HW211007   3.909   4.879   4.665
 3662SOL     OW11008   4.330   4.688   3.847
 3662SOL    HW111009   4.337   4.772   3.793
 3662SOL    HW211010   4.376   4.701   3.935
 3663SOL     OW11011   3.846   4.367   4.287
 3663SOL    HW111012   3.801   4.279   4.304
 3663SOL    HW211013   3.845   4.421   4.371
 3664SOL     OW11014   4.533   3.728   4.226
 3664SOL    HW111015   4.573   3.819   4.217
 3664SOL    HW211016   4.433   3.736   4.232
 3665SOL     OW11017   3.921   4.700   4.988
 3665SOL    HW111018   4.010   4.655   4.974
 3665SOL    HW211019   3.848   4.635   4.969
 3666SOL     OW11020   4.322   4.453   3.994
 3666SOL    HW111021   4.346   4.522   3.926
 3666SOL    HW211022   4.244   4.486   4.048
 3667SOL     OW11023   4.765   4.425   4.153
 3667SOL    HW111024   4.791   4.421   4.249
 3667SOL    HW211025   4.680   4.374   4.139
 3668SOL     OW11026   3.800   4.535   4.513
 3668SOL    HW111027   3.899   4.523   4.522
 3668SOL    HW211028   3.776   4.630   4.534
 3669SOL     OW11029   4.589   4.072   3.919
 3669SOL    HW111030   4.648   4.135   3.870
 3669SOL    HW211031   4.608   3.978   3.890
 3670SOL     OW11032   4.274   3.920   4.609
 3670SOL    HW111033   4.269   3.915   4.709
 3670SOL    HW211034   4.276   4.016   4.580
 3671SOL     OW11035   4.106   4.424   4.204
 3671SOL    HW111036   4.151   4.334   4.201
 3671SOL    HW211037   4.012   4.413   4.237
 3672SOL     OW11038   4.338   3.846   3.841
 3672SOL    HW111039   4.436   3.824   3.848
 3672SOL    HW211040   4.307   3.829   3.748
 3673SOL     OW11041   4.646   4.227   4.623
 3673SOL    HW111042   4.621   4.218   4.527
 3673SOL    HW211043   4.694   4.145   4.654
 3674SOL     OW11044   4.263   3.788   4.236
 3674SOL    HW111045   4.182   3.789   4.294
 3674SOL    HW211046   4.266   3.871   4.181
 3675SOL     OW11047   4.021   3.759   3.895
 3675SOL    HW111048   4.070   3.843   3.874
 3675SOL    HW211049   4.083   3.694   3.940
 3676SOL     OW11050   4.659   3.960   4.204
 3676SOL    HW111051   4.611   4.001   4.126
 3676SOL    HW211052   4.758   3.958   4.185
 3677SOL     OW11053   4.756   4.273   3.740
 3677SOL    HW111054   4.715   4.355   3.701
 3677SOL    HW211055   4.820   4.299   3.813
 3678SOL     OW11056   4.590   4.178   4.366
 3678SOL    HW111057   4.558   4.250   4.304
 3678SOL    HW211058   4.614   4.097   4.313
 3679SOL     OW11059   4.741   3.763   4.477
 3679SOL    HW111060   4.669   3.768   4.408
 3679SOL    HW211061   4.717   3.694   4.546
 3680SOL     OW11062   4.251   3.980   4.052
 3680SOL    HW111063   4.278   3.921   3.977
 3680SOL    HW211064   4.251   4.075   4.021
 3681SOL     OW11065   4.290   4.261   4.589
 3681SOL    HW111066   4.302   4.327   4.515
 3681SOL    HW211067   4.336   4.295   4.672
 3682SOL     OW11068   4.297   4.594   4.753
 3682SOL    HW111069   4.341   4.683   4.744
 3682SOL    HW211070   4.234   4.594   4.830
 3683SOL     OW11071   4.933   4.249   3.999
 3683SOL    HW111072   4.946   4.165   4.053
 3683SOL    HW211073   4.904   4.323   4.059
 3684SOL     OW11074   4.031   3.937   4.955
 3684SOL    HW111075   4.008   3.974   5.045
 3684SOL    HW211076   4.001   3.842   4.949
 3685SOL     OW11077   4.456   4.358   4.788
 3685SOL    HW111078   4.515   4.332   4.712
 3685SOL    HW211079   4.428   4.454   4.777
 3686SOL     OW11080   4.031   3.787   4.342
 3686SOL    HW111081   4.020   3.881   4.375
 3686SOL    HW211082   4.026   3.724   4.419
 3687SOL     OW11083   4.043   4.534   4.673
 3687SOL    HW111084   4.136   4.570   4.678
 3687SOL    HW211085   4.037   4.449   4.725
 3688SOL     OW11086   4.063   4.233   4.730
 3688SOL    HW111087   4.011   4.150   4.713
 3688SOL    HW211088   4.140   4.238   4.666
 3689SOL     OW11089   4.726   4.520   4.962
 3689SOL    HW111090   4.767   4.488   5.048
 3689SOL    HW211091   4.630   4.493   4.959
 3690SOL     OW11092   4.539   4.296   4.049
 3690SOL    HW111093   4.546   4.207   4.003
 3690SOL    HW211094   4.445   4.330   4.041
 3691SOL     OW11095   4.395   4.188   4.993
 3691SOL    HW111096   4.361   4.099   4.963
 3691SOL    HW211097   4.421   4.242   4.913
 3692SOL     OW11098   4.197   4.224   3.915
 3692SOL    HW111099   4.258   4.304   3.919
 3692SOL    HW211100   4.102   4.255   3.922
 3693SOL     OW11101   5.026   4.579   4.033
 3693SOL    HW111102   4.940   4.548   4.075
 3693SOL    HW211103   5.022   4.565   3.934
 3694SOL     OW11104   5.004   4.651   4.396
 3694SOL    HW111105   5.064   4.570   4.398
 3694SOL    HW211106   5.044   4.720   4.336
 3695SOL     OW11107   3.987   4.050   4.444
 3695SOL    HW111108   3.908   4.101   4.410
 3695SOL    HW211109   3.978   4.035   4.542
 3696SOL     OW11110   4.640   4.634   4.015
 3696SOL    HW111111   4.703   4.672   3.947
 3696SOL    HW211112   4.680   4.551   4.054
 3697SOL     OW11113   4.738   3.960   4.695
 3697SOL    HW111114   4.730   3.924   4.602
 3697SOL    HW211115   4.736   3.884   4.760
 3698SOL     OW11116   3.799   4.069   3.757
 3698SOL    HW111117   3.707   4.041   3.728
 3698SOL    HW211118   3.830   4.146   3.701
 3699SOL     OW11119   3.796   3.890   4.042
 3699SOL    HW111120   3.779   3.973   3.988
 3699SOL    HW211121   3.886   3.853   4.020
 3700SOL     OW11122   4.949   4.049   4.173
 3700SOL    HW111123   5.014   3.975   4.162
 3700SOL    HW211124   4.969   4.099   4.257
 3701SOL     OW11125   4.318   4.469   4.376
 3701SOL    HW111126   4.368   4.554   4.357
 3701SOL    HW211127   4.230   4.471   4.328
 3702SOL     OW11128   4.583   4.680   4.585
 3702SOL    HW111129   4.637   4.611   4.633
 3702SOL    HW211130   4.551   4.749   4.651
 3703SOL     OW11131   3.803   4.964   4.377
 3703SOL    HW111132   3.802   4.917   4.465
 3703SOL    HW211133   3.885   4.936   4.326
 3704SOL     OW11134   4.152   4.148   4.244
 3704SOL    HW111135   4.182   4.076   4.182
 3704SOL    HW211136   4.113   4.108   4.327
 3705SOL     OW11137   3.763   4.801   4.024
 3705SOL    HW111138   3.862   4.790   4.015
 3705SOL    HW211139   3.723   4.715   4.056
   4.81464   4.81464   4.81464
