mobley_282648_GMX.gro created by acpype (v: 2023.10.27) on Thu May 21 00:01:14 2026
   18
    1MOL     C1    1   2.135   2.472   2.396
    1MOL     C2    2   2.225   2.574   2.368
    1MOL     C3    3   2.493   2.145   2.351
    1MOL     C4    4   2.583   2.247   2.323
    1MOL     C5    5   2.179   2.339   2.399
    1MOL     C6    6   2.359   2.544   2.342
    1MOL     C7    7   2.359   2.175   2.377
    1MOL     C8    8   2.539   2.380   2.320
    1MOL     C9    9   2.313   2.307   2.374
    1MOL    C10   10   2.405   2.411   2.345
    1MOL     H1   11   2.031   2.495   2.416
    1MOL     H2   12   2.191   2.677   2.365
    1MOL     H3   13   2.527   2.042   2.354
    1MOL     H4   14   2.687   2.224   2.303
    1MOL     H5   15   2.107   2.261   2.422
    1MOL     H6   16   2.428   2.626   2.320
    1MOL     H7   17   2.290   2.093   2.399
    1MOL     H8   18   2.611   2.458   2.297
   4.71871   4.71871   4.71871
