mobley_1674094_GMX.gro created by acpype (v: 2023.10.27) on Wed May 20 23:44:14 2026
 2386
    1MOL     C2    1   2.509   2.594   2.280
    1MOL     C3    2   2.326   2.184   2.500
    1MOL     C4    3   2.402   2.540   2.365
    1MOL     C5    4   2.308   2.334   2.477
    1MOL     C6    5   2.420   2.390   2.388
    1MOL     H1    6   2.674   2.678   2.149
    1MOL     C1    7   2.596   2.638   2.211
    1MOL     H2    8   2.245   2.146   2.563
    1MOL     H3    9   2.421   2.164   2.550
    1MOL     H4   10   2.324   2.129   2.405
    1MOL     H5   11   2.401   2.593   2.461
    1MOL     H6   12   2.305   2.559   2.318
    1MOL     H7   13   2.211   2.351   2.430
    1MOL     H8   14   2.308   2.385   2.573
    1MOL     H9   15   2.517   2.372   2.435
    1MOL    H10   16   2.421   2.337   2.292
   14SOL     OW   17   1.460   1.505   1.339
   14SOL    HW1   18   1.484   1.599   1.365
   14SOL    HW2   19   1.444   1.451   1.421
   35SOL     OW   20   1.187   1.792   1.616
   35SOL    HW1   21   1.211   1.852   1.540
   35SOL    HW2   22   1.194   1.697   1.586
   56SOL     OW   23   1.227   1.550   1.506
   56SOL    HW1   24   1.233   1.473   1.570
   56SOL    HW2   25   1.175   1.524   1.426
   95SOL     OW   26   1.754   1.223   1.588
   95SOL    HW1   27   1.845   1.184   1.575
   95SOL    HW2   28   1.762   1.319   1.612
   97SOL     OW   29   1.592   1.629   1.625
   97SOL    HW1   30   1.619   1.663   1.535
   97SOL    HW2   31   1.671   1.591   1.671
  122SOL     OW   32   1.728   0.935   1.854
  122SOL    HW1   33   1.682   0.928   1.765
  122SOL    HW2   34   1.666   0.979   1.920
  126SOL     OW   35   0.980   1.573   1.700
  126SOL    HW1   36   0.960   1.617   1.612
  126SOL    HW2   37   1.019   1.482   1.684
  127SOL     OW   38   1.859   1.518   1.605
  127SOL    HW1   39   1.873   1.545   1.510
  127SOL    HW2   40   1.942   1.540   1.658
  152SOL     OW   41   1.759   1.747   1.154
  152SOL    HW1   42   1.820   1.777   1.081
  152SOL    HW2   43   1.721   1.658   1.132
  163SOL     OW   44   1.650   1.720   1.394
  163SOL    HW1   45   1.703   1.730   1.310
  163SOL    HW2   46   1.623   1.810   1.428
  171SOL     OW   47   1.614   1.292   1.289
  171SOL    HW1   48   1.674   1.295   1.369
  171SOL    HW2   49   1.539   1.356   1.302
  186SOL     OW   50   1.450   1.220   1.633
  186SOL    HW1   51   1.441   1.210   1.732
  186SOL    HW2   52   1.546   1.213   1.607
  203SOL     OW   53   1.705   1.487   1.104
  203SOL    HW1   54   1.612   1.462   1.077
  203SOL    HW2   55   1.731   1.437   1.186
  219SOL     OW   56   1.555   1.511   2.565
  219SOL    HW1   57   1.498   1.495   2.646
  219SOL    HW2   58   1.496   1.521   2.485
  227SOL     OW   59   1.460   1.505   3.201
  227SOL    HW1   60   1.484   1.599   3.227
  227SOL    HW2   61   1.444   1.451   3.283
  238SOL     OW   62   1.842   1.767   2.221
  238SOL    HW1   63   1.896   1.738   2.301
  238SOL    HW2   64   1.872   1.857   2.192
  240SOL     OW   65   1.689   0.922   2.474
  240SOL    HW1   66   1.784   0.893   2.482
  240SOL    HW2   67   1.681   0.987   2.399
  241SOL     OW   68   1.641   1.108   2.294
  241SOL    HW1   69   1.727   1.110   2.242
  241SOL    HW2   70   1.655   1.155   2.382
  247SOL     OW   71   1.525   0.999   2.052
  247SOL    HW1   72   1.462   0.923   2.065
  247SOL    HW2   73   1.573   1.017   2.138
  248SOL     OW   74   1.187   1.792   3.478
  248SOL    HW1   75   1.211   1.852   3.402
  248SOL    HW2   76   1.194   1.697   3.448
  250SOL     OW   77   1.466   1.417   2.815
  250SOL    HW1   78   1.407   1.423   2.895
  250SOL    HW2   79   1.451   1.329   2.769
  251SOL     OW   80   1.667   1.714   2.434
  251SOL    HW1   81   1.626   1.691   2.346
  251SOL    HW2   82   1.649   1.640   2.499
  254SOL     OW   83   1.576   1.662   2.169
  254SOL    HW1   84   1.665   1.708   2.172
  254SOL    HW2   85   1.555   1.638   2.074
  264SOL     OW   86   1.362   1.144   2.407
  264SOL    HW1   87   1.445   1.115   2.359
  264SOL    HW2   88   1.313   1.211   2.351
  266SOL     OW   89   1.008   1.456   2.339
  266SOL    HW1   90   0.962   1.528   2.287
  266SOL    HW2   91   1.004   1.476   2.437
  268SOL     OW   92   1.795   1.066   2.735
  268SOL    HW1   93   1.733   1.051   2.659
  268SOL    HW2   94   1.743   1.077   2.820
  269SOL     OW   95   1.227   1.550   3.368
  269SOL    HW1   96   1.233   1.473   3.432
  269SOL    HW2   97   1.175   1.524   3.288
  273SOL     OW   98   1.111   1.776   2.099
  273SOL    HW1   99   1.051   1.714   2.149
  273SOL    HW2  100   1.142   1.732   2.014
  275SOL     OW  101   1.632   1.377   1.943
  275SOL    HW1  102   1.600   1.471   1.933
  275SOL    HW2  103   1.556   1.314   1.931
  279SOL     OW  104   0.940   1.698   2.766
  279SOL    HW1  105   1.020   1.641   2.787
  279SOL    HW2  106   0.891   1.658   2.689
  289SOL     OW  107   1.434   1.188   1.903
  289SOL    HW1  108   1.466   1.112   1.960
  289SOL    HW2  109   1.342   1.215   1.933
  293SOL     OW  110   1.227   1.570   2.655
  293SOL    HW1  111   1.248   1.644   2.590
  293SOL    HW2  112   1.295   1.570   2.728
  295SOL     OW  113   1.271   1.797   2.453
  295SOL    HW1  114   1.315   1.861   2.389
  295SOL    HW2  115   1.221   1.849   2.523
  301SOL     OW  116   1.429   1.173   2.729
  301SOL    HW1  117   1.374   1.089   2.722
  301SOL    HW2  118   1.455   1.202   2.637
  303SOL     OW  119   1.857   0.833   2.239
  303SOL    HW1  120   1.899   0.769   2.303
  303SOL    HW2  121   1.819   0.782   2.161
  305SOL     OW  122   1.664   1.280   2.519
  305SOL    HW1  123   1.763   1.288   2.533
  305SOL    HW2  124   1.619   1.364   2.550
  308SOL     OW  125   1.754   1.223   3.450
  308SOL    HW1  126   1.845   1.184   3.437
  308SOL    HW2  127   1.762   1.319   3.474
  310SOL     OW  128   1.592   1.629   3.487
  310SOL    HW1  129   1.619   1.663   3.397
  310SOL    HW2  130   1.671   1.591   3.533
  312SOL     OW  131   1.638   1.099   2.941
  312SOL    HW1  132   1.643   1.180   3.000
  312SOL    HW2  133   1.552   1.101   2.890
  321SOL     OW  134   1.252   1.348   2.250
  321SOL    HW1  135   1.302   1.425   2.290
  321SOL    HW2  136   1.157   1.350   2.282
  322SOL     OW  137   1.272   1.445   3.004
  322SOL    HW1  138   1.319   1.458   3.091
  322SOL    HW2  139   1.206   1.371   3.013
  340SOL     OW  140   1.859   1.518   3.467
  340SOL    HW1  141   1.873   1.545   3.372
  340SOL    HW2  142   1.942   1.540   3.520
  344SOL     OW  143   1.068   1.333   2.711
  344SOL    HW1  144   1.075   1.249   2.656
  344SOL    HW2  145   1.130   1.402   2.675
  365SOL     OW  146   1.759   1.747   3.016
  365SOL    HW1  147   1.820   1.777   2.943
  365SOL    HW2  148   1.721   1.658   2.994
  366SOL     OW  149   1.252   1.731   2.990
  366SOL    HW1  150   1.336   1.736   2.936
  366SOL    HW2  151   1.229   1.635   3.008
  370SOL     OW  152   1.388   1.573   2.339
  370SOL    HW1  153   1.455   1.585   2.265
  370SOL    HW2  154   1.348   1.662   2.362
  375SOL     OW  155   1.650   1.720   3.256
  375SOL    HW1  156   1.703   1.730   3.172
  375SOL    HW2  157   1.623   1.810   3.290
  378SOL     OW  158   1.194   1.612   1.893
  378SOL    HW1  159   1.200   1.519   1.930
  378SOL    HW2  160   1.135   1.612   1.813
  381SOL     OW  161   1.504   1.607   1.906
  381SOL    HW1  162   1.412   1.644   1.913
  381SOL    HW2  163   1.542   1.627   1.816
  383SOL     OW  164   1.614   1.292   3.151
  383SOL    HW1  165   1.674   1.295   3.231
  383SOL    HW2  166   1.539   1.356   3.164
  394SOL     OW  167   1.183   1.335   1.981
  394SOL    HW1  168   1.084   1.324   1.983
  394SOL    HW2  169   1.217   1.350   2.074
  396SOL     OW  170   1.493   1.767   2.821
  396SOL    HW1  171   1.526   1.831   2.752
  396SOL    HW2  172   1.559   1.761   2.896
  409SOL     OW  173   1.861   1.569   2.713
  409SOL    HW1  174   1.790   1.557   2.643
  409SOL    HW2  175   1.862   1.490   2.773
  415SOL     OW  176   1.705   1.487   2.966
  415SOL    HW1  177   1.612   1.462   2.939
  415SOL    HW2  178   1.731   1.437   3.048
  417SOL     OW  179   0.812   1.586   2.549
  417SOL    HW1  180   0.844   1.596   2.455
  417SOL    HW2  181   0.733   1.524   2.551
  426SOL     OW  182   0.875   1.646   2.199
  426SOL    HW1  183   0.798   1.611   2.145
  426SOL    HW2  184   0.843   1.717   2.261
  557SOL     OW  185   0.850   2.660   1.823
  557SOL    HW1  186   0.846   2.736   1.888
  557SOL    HW2  187   0.872   2.696   1.732
  561SOL     OW  188   1.460   3.367   1.339
  561SOL    HW1  189   1.484   3.461   1.365
  561SOL    HW2  190   1.444   3.313   1.421
  565SOL     OW  191   1.127   3.203   1.690
  565SOL    HW1  192   1.174   3.203   1.778
  565SOL    HW2  193   1.079   3.116   1.679
  570SOL     OW  194   1.594   1.976   1.480
  570SOL    HW1  195   1.576   2.043   1.408
  570SOL    HW2  196   1.591   2.022   1.569
  578SOL     OW  197   1.293   3.090   1.423
  578SOL    HW1  198   1.330   3.017   1.365
  578SOL    HW2  199   1.345   3.095   1.508
  590SOL     OW  200   1.394   2.331   1.674
  590SOL    HW1  201   1.374   2.374   1.762
  590SOL    HW2  202   1.472   2.269   1.683
  591SOL     OW  203   0.973   2.752   1.572
  591SOL    HW1  204   1.019   2.668   1.543
  591SOL    HW2  205   0.917   2.786   1.497
  597SOL     OW  206   1.719   2.447   1.831
  597SOL    HW1  207   1.693   2.536   1.795
  597SOL    HW2  208   1.717   2.379   1.758
  602SOL     OW  209   1.795   2.928   0.873
  602SOL    HW1  210   1.733   2.913   0.797
  602SOL    HW2  211   1.743   2.939   0.958
  603SOL     OW  212   1.227   3.412   1.506
  603SOL    HW1  213   1.233   3.335   1.570
  603SOL    HW2  214   1.175   3.386   1.426
  615SOL     OW  215   1.547   2.084   1.729
  615SOL    HW1  216   1.542   2.121   1.821
  615SOL    HW2  217   1.475   2.015   1.717
  617SOL     OW  218   0.781   2.126   1.749
  617SOL    HW1  219   0.848   2.065   1.792
  617SOL    HW2  220   0.708   2.145   1.814
  619SOL     OW  221   1.351   2.452   1.433
  619SOL    HW1  222   1.379   2.409   1.518
  619SOL    HW2  223   1.376   2.548   1.434
  625SOL     OW  224   1.076   2.545   1.464
  625SOL    HW1  225   0.996   2.484   1.467
  625SOL    HW2  226   1.157   2.492   1.440
  635SOL     OW  227   1.466   2.452   0.992
  635SOL    HW1  228   1.436   2.357   0.999
  635SOL    HW2  229   1.539   2.468   1.058
  641SOL     OW  230   1.754   3.085   1.588
  641SOL    HW1  231   1.845   3.046   1.575
  641SOL    HW2  232   1.762   3.181   1.612
  643SOL     OW  233   1.592   3.491   1.625
  643SOL    HW1  234   1.619   3.525   1.535
  643SOL    HW2  235   1.671   3.453   1.671
  645SOL     OW  236   1.638   2.961   1.079
  645SOL    HW1  237   1.643   3.042   1.138
  645SOL    HW2  238   1.552   2.963   1.028
  647SOL     OW  239   0.980   2.978   1.719
  647SOL    HW1  240   0.881   2.984   1.729
  647SOL    HW2  241   1.003   2.898   1.663
  650SOL     OW  242   1.274   2.248   1.262
  650SOL    HW1  243   1.295   2.322   1.326
  650SOL    HW2  244   1.185   2.265   1.219
  659SOL     OW  245   1.587   2.641   1.670
  659SOL    HW1  246   1.495   2.679   1.665
  659SOL    HW2  247   1.647   2.688   1.605
  660SOL     OW  248   1.013   1.967   1.770
  660SOL    HW1  249   1.019   2.052   1.718
  660SOL    HW2  250   1.045   1.891   1.713
  663SOL     OW  251   1.360   2.724   1.045
  663SOL    HW1  252   1.285   2.724   0.979
  663SOL    HW2  253   1.397   2.632   1.054
  668SOL     OW  254   1.728   2.797   1.854
  668SOL    HW1  255   1.682   2.790   1.765
  668SOL    HW2  256   1.666   2.841   1.920
  673SOL     OW  257   1.859   3.380   1.605
  673SOL    HW1  258   1.873   3.407   1.510
  673SOL    HW2  259   1.942   3.402   1.658
  680SOL     OW  260   1.138   2.242   1.678
  680SOL    HW1  261   1.093   2.305   1.742
  680SOL    HW2  262   1.231   2.273   1.661
  681SOL     OW  263   1.160   2.069   1.477
  681SOL    HW1  264   1.160   2.133   1.554
  681SOL    HW2  265   1.188   2.117   1.394
  688SOL     OW  266   1.369   2.812   1.660
  688SOL    HW1  267   1.408   2.901   1.680
  688SOL    HW2  268   1.379   2.792   1.563
  690SOL     OW  269   1.657   2.466   1.206
  690SOL    HW1  270   1.619   2.397   1.268
  690SOL    HW2  271   1.739   2.430   1.162
  696SOL     OW  272   1.347   2.921   1.234
  696SOL    HW1  273   1.371   2.858   1.160
  696SOL    HW2  274   1.257   2.961   1.216
  709SOL     OW  275   1.650   3.582   1.394
  709SOL    HW1  276   1.703   3.592   1.310
  709SOL    HW2  277   1.623   3.672   1.428
  710SOL     OW  278   1.841   2.037   0.963
  710SOL    HW1  279   1.880   1.952   0.927
  710SOL    HW2  280   1.743   2.039   0.944
  717SOL     OW  281   1.614   3.154   1.289
  717SOL    HW1  282   1.674   3.157   1.369
  717SOL    HW2  283   1.539   3.218   1.302
  721SOL     OW  284   1.709   2.247   1.381
  721SOL    HW1  285   1.782   2.316   1.385
  721SOL    HW2  286   1.737   2.172   1.322
  726SOL     OW  287   1.440   2.718   1.398
  726SOL    HW1  288   1.383   2.770   1.335
  726SOL    HW2  289   1.536   2.730   1.374
  732SOL     OW  290   1.450   3.082   1.633
  732SOL    HW1  291   1.441   3.072   1.732
  732SOL    HW2  292   1.546   3.075   1.607
  734SOL     OW  293   1.674   2.745   1.254
  734SOL    HW1  294   1.647   2.656   1.217
  734SOL    HW2  295   1.675   2.813   1.181
  737SOL     OW  296   1.777   2.204   1.642
  737SOL    HW1  297   1.760   2.235   1.548
  737SOL    HW2  298   1.693   2.167   1.680
  738SOL     OW  299   1.730   2.796   1.517
  738SOL    HW1  300   1.768   2.887   1.532
  738SOL    HW2  301   1.722   2.779   1.418
  747SOL     OW  302   1.824   2.054   1.227
  747SOL    HW1  303   1.820   1.964   1.271
  747SOL    HW2  304   1.827   2.043   1.128
  749SOL     OW  305   1.705   3.349   1.104
  749SOL    HW1  306   1.612   3.324   1.077
  749SOL    HW2  307   1.731   3.299   1.186
  752SOL     OW  308   1.424   2.076   1.112
  752SOL    HW1  309   1.476   2.011   1.167
  752SOL    HW2  310   1.375   2.139   1.173
  758SOL     OW  311   1.593   2.083   0.882
  758SOL    HW1  312   1.509   2.082   0.936
  758SOL    HW2  313   1.595   2.166   0.826
  765SOL     OW  314   1.555   3.373   2.565
  765SOL    HW1  315   1.498   3.357   2.646
  765SOL    HW2  316   1.496   3.383   2.485
  766SOL     OW  317   1.135   2.565   2.579
  766SOL    HW1  318   1.192   2.643   2.554
  766SOL    HW2  319   1.075   2.591   2.655
  767SOL     OW  320   1.755   2.469   2.093
  767SOL    HW1  321   1.743   2.456   1.994
  767SOL    HW2  322   1.725   2.388   2.142
  770SOL     OW  323   0.685   2.874   2.527
  770SOL    HW1  324   0.754   2.858   2.597
  770SOL    HW2  325   0.612   2.931   2.565
  773SOL     OW  326   1.460   3.367   3.201
  773SOL    HW1  327   1.484   3.461   3.227
  773SOL    HW2  328   1.444   3.313   3.283
  775SOL     OW  329   1.603   2.309   2.599
  775SOL    HW1  330   1.529   2.355   2.549
  775SOL    HW2  331   1.654   2.377   2.652
  782SOL     OW  332   1.594   1.976   3.342
  782SOL    HW1  333   1.576   2.043   3.270
  782SOL    HW2  334   1.591   2.022   3.431
  784SOL     OW  335   1.842   3.629   2.221
  784SOL    HW1  336   1.896   3.600   2.301
  784SOL    HW2  337   1.872   3.719   2.192
  786SOL     OW  338   1.689   2.784   2.474
  786SOL    HW1  339   1.784   2.755   2.482
  786SOL    HW2  340   1.681   2.849   2.399
  787SOL     OW  341   1.641   2.970   2.294
  787SOL    HW1  342   1.727   2.972   2.242
  787SOL    HW2  343   1.655   3.017   2.382
  790SOL     OW  344   1.293   3.090   3.285
  790SOL    HW1  345   1.330   3.017   3.227
  790SOL    HW2  346   1.345   3.095   3.370
  791SOL     OW  347   0.809   1.866   2.364
  791SOL    HW1  348   0.849   1.957   2.355
  791SOL    HW2  349   0.709   1.874   2.370
  793SOL     OW  350   1.525   2.861   2.052
  793SOL    HW1  351   1.462   2.785   2.065
  793SOL    HW2  352   1.573   2.879   2.138
  796SOL     OW  353   1.466   3.279   2.815
  796SOL    HW1  354   1.407   3.285   2.895
  796SOL    HW2  355   1.451   3.191   2.769
  797SOL     OW  356   1.667   3.576   2.434
  797SOL    HW1  357   1.626   3.553   2.346
  797SOL    HW2  358   1.649   3.502   2.499
  799SOL     OW  359   1.281   2.207   2.806
  799SOL    HW1  360   1.195   2.157   2.793
  799SOL    HW2  361   1.343   2.153   2.862
  800SOL     OW  362   1.576   3.524   2.169
  800SOL    HW1  363   1.665   3.570   2.172
  800SOL    HW2  364   1.555   3.500   2.074
  802SOL     OW  365   1.394   2.331   3.536
  802SOL    HW1  366   1.374   2.374   3.624
  802SOL    HW2  367   1.472   2.269   3.545
  803SOL     OW  368   0.973   2.752   3.434
  803SOL    HW1  369   1.019   2.668   3.405
  803SOL    HW2  370   0.917   2.786   3.359
  804SOL     OW  371   0.991   2.272   3.104
  804SOL    HW1  372   0.914   2.306   3.158
  804SOL    HW2  373   0.957   2.221   3.025
  805SOL     OW  374   1.041   2.563   2.291
  805SOL    HW1  375   1.067   2.559   2.387
  805SOL    HW2  376   0.956   2.512   2.277
  808SOL     OW  377   0.865   2.210   2.057
  808SOL    HW1  378   0.924   2.273   2.008
  808SOL    HW2  379   0.884   2.116   2.028
  809SOL     OW  380   1.719   2.447   3.693
  809SOL    HW1  381   1.693   2.536   3.657
  809SOL    HW2  382   1.717   2.379   3.620
  810SOL     OW  383   1.362   3.006   2.407
  810SOL    HW1  384   1.445   2.977   2.359
  810SOL    HW2  385   1.313   3.073   2.351
  812SOL     OW  386   1.008   3.318   2.339
  812SOL    HW1  387   0.962   3.390   2.287
  812SOL    HW2  388   1.004   3.338   2.437
  814SOL     OW  389   1.795   2.928   2.735
  814SOL    HW1  390   1.733   2.913   2.659
  814SOL    HW2  391   1.743   2.939   2.820
  817SOL     OW  392   1.458   2.597   2.590
  817SOL    HW1  393   1.453   2.532   2.665
  817SOL    HW2  394   1.538   2.656   2.603
  821SOL     OW  395   1.632   3.239   1.943
  821SOL    HW1  396   1.600   3.333   1.933
  821SOL    HW2  397   1.556   3.176   1.931
  823SOL     OW  398   1.400   1.969   2.288
  823SOL    HW1  399   1.376   1.932   2.198
  823SOL    HW2  400   1.499   1.985   2.292
  827SOL     OW  401   1.547   2.084   3.591
  827SOL    HW1  402   1.542   2.121   3.683
  827SOL    HW2  403   1.475   2.015   3.579
  831SOL     OW  404   1.351   2.452   3.295
  831SOL    HW1  405   1.379   2.409   3.380
  831SOL    HW2  406   1.376   2.548   3.296
  833SOL     OW  407   0.922   2.365   2.761
  833SOL    HW1  408   0.897   2.356   2.665
  833SOL    HW2  409   0.970   2.283   2.792
  835SOL     OW  410   1.434   3.050   1.903
  835SOL    HW1  411   1.466   2.974   1.960
  835SOL    HW2  412   1.342   3.077   1.933
  837SOL     OW  413   0.935   2.098   2.342
  837SOL    HW1  414   0.887   2.139   2.264
  837SOL    HW2  415   1.034   2.096   2.323
  838SOL     OW  416   1.076   2.545   3.326
  838SOL    HW1  417   0.996   2.484   3.329
  838SOL    HW2  418   1.157   2.492   3.302
  839SOL     OW  419   1.227   3.432   2.655
  839SOL    HW1  420   1.248   3.506   2.590
  839SOL    HW2  421   1.295   3.432   2.728
  841SOL     OW  422   1.271   3.659   2.453
  841SOL    HW1  423   1.315   3.723   2.389
  841SOL    HW2  424   1.221   3.711   2.523
  842SOL     OW  425   1.032   2.411   1.878
  842SOL    HW1  426   0.991   2.493   1.839
  842SOL    HW2  427   1.096   2.437   1.951
  845SOL     OW  428   0.866   2.316   2.504
  845SOL    HW1  429   0.834   2.388   2.442
  845SOL    HW2  430   0.890   2.235   2.451
  846SOL     OW  431   1.017   1.901   2.615
  846SOL    HW1  432   0.945   1.906   2.546
  846SOL    HW2  433   0.993   1.832   2.684
  847SOL     OW  434   1.429   3.035   2.729
  847SOL    HW1  435   1.374   2.951   2.722
  847SOL    HW2  436   1.455   3.064   2.637
  848SOL     OW  437   1.466   2.452   2.854
  848SOL    HW1  438   1.436   2.357   2.861
  848SOL    HW2  439   1.539   2.468   2.920
  849SOL     OW  440   1.857   2.695   2.239
  849SOL    HW1  441   1.899   2.631   2.303
  849SOL    HW2  442   1.819   2.644   2.161
  851SOL     OW  443   1.664   3.142   2.519
  851SOL    HW1  444   1.763   3.150   2.533
  851SOL    HW2  445   1.619   3.226   2.550
  852SOL     OW  446   1.390   2.437   1.940
  852SOL    HW1  447   1.336   2.416   2.021
  852SOL    HW2  448   1.481   2.396   1.949
  854SOL     OW  449   1.754   3.085   3.450
  854SOL    HW1  450   1.845   3.046   3.437
  854SOL    HW2  451   1.762   3.181   3.474
  855SOL     OW  452   1.064   3.209   3.202
  855SOL    HW1  453   0.984   3.186   3.257
  855SOL    HW2  454   1.147   3.183   3.251
  856SOL     OW  455   1.592   3.491   3.487
  856SOL    HW1  456   1.619   3.525   3.397
  856SOL    HW2  457   1.671   3.453   3.533
  857SOL     OW  458   1.111   3.057   2.962
  857SOL    HW1  459   1.071   3.101   3.043
  857SOL    HW2  460   1.070   3.094   2.879
  858SOL     OW  461   1.638   2.961   2.941
  858SOL    HW1  462   1.643   3.042   3.000
  858SOL    HW2  463   1.552   2.963   2.890
  859SOL     OW  464   0.915   1.951   3.264
  859SOL    HW1  465   0.940   1.931   3.169
  859SOL    HW2  466   0.987   2.007   3.306
  861SOL     OW  467   0.705   2.912   2.230
  861SOL    HW1  468   0.691   2.919   2.329
  861SOL    HW2  469   0.789   2.861   2.212
  863SOL     OW  470   1.274   2.248   3.124
  863SOL    HW1  471   1.295   2.322   3.188
  863SOL    HW2  472   1.185   2.265   3.081
  867SOL     OW  473   1.252   3.210   2.250
  867SOL    HW1  474   1.302   3.287   2.290
  867SOL    HW2  475   1.157   3.212   2.282
  868SOL     OW  476   1.272   3.307   3.004
  868SOL    HW1  477   1.319   3.320   3.091
  868SOL    HW2  478   1.206   3.233   3.013
  869SOL     OW  479   1.582   2.501   2.334
  869SOL    HW1  480   1.551   2.562   2.407
  869SOL    HW2  481   1.632   2.553   2.265
  872SOL     OW  482   1.587   2.641   3.532
  872SOL    HW1  483   1.495   2.679   3.527
  872SOL    HW2  484   1.647   2.688   3.467
  876SOL     OW  485   1.360   2.724   2.907
  876SOL    HW1  486   1.285   2.724   2.841
  876SOL    HW2  487   1.397   2.632   2.916
  877SOL     OW  488   1.209   2.387   2.137
  877SOL    HW1  489   1.222   2.303   2.191
  877SOL    HW2  490   1.180   2.461   2.197
  880SOL     OW  491   0.732   2.496   2.926
  880SOL    HW1  492   0.791   2.470   2.850
  880SOL    HW2  493   0.704   2.592   2.915
  881SOL     OW  494   1.728   2.797   3.716
  881SOL    HW1  495   1.682   2.790   3.627
  881SOL    HW2  496   1.666   2.841   3.782
  883SOL     OW  497   1.622   2.229   2.236
  883SOL    HW1  498   1.624   2.153   2.300
  883SOL    HW2  499   1.574   2.306   2.276
  884SOL     OW  500   1.023   2.628   2.828
  884SOL    HW1  501   1.038   2.649   2.924
  884SOL    HW2  502   0.993   2.533   2.819
  886SOL     OW  503   1.859   3.380   3.467
  886SOL    HW1  504   1.873   3.407   3.372
  886SOL    HW2  505   1.942   3.402   3.520
  888SOL     OW  506   1.540   2.136   1.987
  888SOL    HW1  507   1.479   2.061   2.010
  888SOL    HW2  508   1.562   2.188   2.070
  889SOL     OW  509   1.303   2.700   1.904
  889SOL    HW1  510   1.337   2.607   1.919
  889SOL    HW2  511   1.321   2.727   1.809
  890SOL     OW  512   1.068   3.195   2.711
  890SOL    HW1  513   1.075   3.111   2.656
  890SOL    HW2  514   1.130   3.264   2.675
  893SOL     OW  515   1.138   2.242   3.540
  893SOL    HW1  516   1.093   2.305   3.604
  893SOL    HW2  517   1.231   2.273   3.523
  894SOL     OW  518   1.160   2.069   3.339
  894SOL    HW1  519   1.160   2.133   3.416
  894SOL    HW2  520   1.188   2.117   3.256
  898SOL     OW  521   1.002   2.658   3.100
  898SOL    HW1  522   1.043   2.626   3.186
  898SOL    HW2  523   0.906   2.631   3.097
  901SOL     OW  524   1.369   2.812   3.522
  901SOL    HW1  525   1.408   2.901   3.542
  901SOL    HW2  526   1.379   2.792   3.425
  902SOL     OW  527   0.815   2.434   2.187
  902SOL    HW1  528   0.822   2.345   2.141
  902SOL    HW2  529   0.721   2.468   2.179
  903SOL     OW  530   1.657   2.466   3.068
  903SOL    HW1  531   1.619   2.397   3.130
  903SOL    HW2  532   1.739   2.430   3.024
  909SOL     OW  533   1.347   2.921   3.096
  909SOL    HW1  534   1.371   2.858   3.022
  909SOL    HW2  535   1.257   2.961   3.078
  910SOL     OW  536   1.302   2.717   2.171
  910SOL    HW1  537   1.216   2.686   2.213
  910SOL    HW2  538   1.298   2.703   2.072
  911SOL     OW  539   1.759   3.609   3.016
  911SOL    HW1  540   1.820   3.639   2.943
  911SOL    HW2  541   1.721   3.520   2.994
  912SOL     OW  542   1.252   3.593   2.990
  912SOL    HW1  543   1.336   3.598   2.936
  912SOL    HW2  544   1.229   3.497   3.008
  915SOL     OW  545   1.726   1.997   2.385
  915SOL    HW1  546   1.799   1.980   2.318
  915SOL    HW2  547   1.695   1.910   2.423
  916SOL     OW  548   1.388   3.435   2.339
  916SOL    HW1  549   1.455   3.447   2.265
  916SOL    HW2  550   1.348   3.524   2.362
  918SOL     OW  551   1.280   2.789   2.534
  918SOL    HW1  552   1.340   2.708   2.536
  918SOL    HW2  553   1.320   2.858   2.474
  921SOL     OW  554   1.650   3.582   3.256
  921SOL    HW1  555   1.703   3.592   3.172
  921SOL    HW2  556   1.623   3.672   3.290
  922SOL     OW  557   1.841   2.037   2.825
  922SOL    HW1  558   1.880   1.952   2.789
  922SOL    HW2  559   1.743   2.039   2.806
  924SOL     OW  560   1.194   3.474   1.893
  924SOL    HW1  561   1.200   3.381   1.930
  924SOL    HW2  562   1.135   3.474   1.813
  926SOL     OW  563   0.916   2.772   2.153
  926SOL    HW1  564   0.979   2.810   2.085
  926SOL    HW2  565   0.956   2.689   2.192
  927SOL     OW  566   1.504   3.469   1.906
  927SOL    HW1  567   1.412   3.506   1.913
  927SOL    HW2  568   1.542   3.489   1.816
  929SOL     OW  569   1.614   3.154   3.151
  929SOL    HW1  570   1.674   3.157   3.231
  929SOL    HW2  571   1.539   3.218   3.164
  930SOL     OW  572   1.039   2.960   2.558
  930SOL    HW1  573   0.969   2.913   2.612
  930SOL    HW2  574   1.098   2.892   2.515
  931SOL     OW  575   1.014   2.098   2.833
  931SOL    HW1  576   1.006   2.062   2.740
  931SOL    HW2  577   1.012   2.022   2.898
  933SOL     OW  578   1.709   2.247   3.243
  933SOL    HW1  579   1.782   2.316   3.247
  933SOL    HW2  580   1.737   2.172   3.184
  938SOL     OW  581   1.440   2.718   3.260
  938SOL    HW1  582   1.383   2.770   3.197
  938SOL    HW2  583   1.536   2.730   3.236
  940SOL     OW  584   1.183   3.197   1.981
  940SOL    HW1  585   1.084   3.186   1.983
  940SOL    HW2  586   1.217   3.212   2.074
  942SOL     OW  587   1.493   3.629   2.821
  942SOL    HW1  588   1.526   3.693   2.752
  942SOL    HW2  589   1.559   3.623   2.896
  944SOL     OW  590   1.450   3.082   3.495
  944SOL    HW1  591   1.441   3.072   3.594
  944SOL    HW2  592   1.546   3.075   3.469
  946SOL     OW  593   1.674   2.745   3.116
  946SOL    HW1  594   1.647   2.656   3.079
  946SOL    HW2  595   1.675   2.813   3.043
  947SOL     OW  596   1.225   2.187   2.311
  947SOL    HW1  597   1.290   2.113   2.300
  947SOL    HW2  598   1.245   2.237   2.395
  949SOL     OW  599   1.777   2.204   3.504
  949SOL    HW1  600   1.760   2.235   3.410
  949SOL    HW2  601   1.693   2.167   3.542
  950SOL     OW  602   1.730   2.796   3.379
  950SOL    HW1  603   1.768   2.887   3.394
  950SOL    HW2  604   1.722   2.779   3.280
  953SOL     OW  605   0.859   2.818   2.723
  953SOL    HW1  606   0.913   2.749   2.771
  953SOL    HW2  607   0.827   2.887   2.789
  954SOL     OW  608   1.083   2.846   1.949
  954SOL    HW1  609   1.060   2.899   1.867
  954SOL    HW2  610   1.164   2.790   1.930
  955SOL     OW  611   1.861   3.431   2.713
  955SOL    HW1  612   1.790   3.419   2.643
  955SOL    HW2  613   1.862   3.352   2.773
  959SOL     OW  614   1.824   2.054   3.089
  959SOL    HW1  615   1.820   1.964   3.133
  959SOL    HW2  616   1.827   2.043   2.990
  961SOL     OW  617   1.705   3.349   2.966
  961SOL    HW1  618   1.612   3.324   2.939
  961SOL    HW2  619   1.731   3.299   3.048
  964SOL     OW  620   1.424   2.076   2.974
  964SOL    HW1  621   1.476   2.011   3.029
  964SOL    HW2  622   1.375   2.139   3.035
  965SOL     OW  623   1.001   1.896   3.016
  965SOL    HW1  624   0.938   1.824   2.985
  965SOL    HW2  625   1.094   1.860   3.016
  968SOL     OW  626   1.352   1.914   2.030
  968SOL    HW1  627   1.387   1.873   1.946
  968SOL    HW2  628   1.262   1.876   2.050
  969SOL     OW  629   1.300   2.315   2.553
  969SOL    HW1  630   1.241   2.395   2.557
  969SOL    HW2  631   1.315   2.280   2.646
  970SOL     OW  632   1.593   2.083   2.744
  970SOL    HW1  633   1.509   2.082   2.798
  970SOL    HW2  634   1.595   2.166   2.688
  978SOL     OW  635   1.755   2.469   3.955
  978SOL    HW1  636   1.743   2.456   3.856
  978SOL    HW2  637   1.725   2.388   4.004
 1021SOL     OW  638   1.434   3.050   3.765
 1021SOL    HW1  639   1.466   2.974   3.822
 1021SOL    HW2  640   1.342   3.077   3.795
 1035SOL     OW  641   1.390   2.437   3.802
 1035SOL    HW1  642   1.336   2.416   3.883
 1035SOL    HW2  643   1.481   2.396   3.811
 1049SOL     OW  644   1.540   2.136   3.849
 1049SOL    HW1  645   1.479   2.061   3.872
 1049SOL    HW2  646   1.562   2.188   3.932
 1050SOL     OW  647   1.303   2.700   3.766
 1050SOL    HW1  648   1.337   2.607   3.781
 1050SOL    HW2  649   1.321   2.727   3.671
 1252SOL     OW  650   1.400   3.831   2.288
 1252SOL    HW1  651   1.376   3.794   2.198
 1252SOL    HW2  652   1.499   3.847   2.292
 1311SOL     OW  653   1.726   3.859   2.385
 1311SOL    HW1  654   1.799   3.842   2.318
 1311SOL    HW2  655   1.695   3.772   2.423
 1313SOL     OW  656   1.841   3.899   2.825
 1313SOL    HW1  657   1.880   3.814   2.789
 1313SOL    HW2  658   1.743   3.901   2.806
 1334SOL     OW  659   1.824   3.916   3.089
 1334SOL    HW1  660   1.820   3.826   3.133
 1334SOL    HW2  661   1.827   3.905   2.990
 1339SOL     OW  662   1.352   3.776   2.030
 1339SOL    HW1  663   1.387   3.735   1.946
 1339SOL    HW2  664   1.262   3.738   2.050
 1341SOL     OW  665   1.593   3.945   2.744
 1341SOL    HW1  666   1.509   3.944   2.798
 1341SOL    HW2  667   1.595   4.028   2.688
 1416SOL     OW  668   2.431   1.275   1.165
 1416SOL    HW1  669   2.338   1.268   1.128
 1416SOL    HW2  670   2.442   1.364   1.209
 1421SOL     OW  671   2.712   0.798   1.823
 1421SOL    HW1  672   2.708   0.874   1.888
 1421SOL    HW2  673   2.734   0.834   1.732
 1423SOL     OW  674   2.548   1.161   1.803
 1423SOL    HW1  675   2.608   1.240   1.817
 1423SOL    HW2  676   2.462   1.192   1.762
 1424SOL     OW  677   2.197   1.435   1.061
 1424SOL    HW1  678   2.119   1.404   1.008
 1424SOL    HW2  679   2.255   1.493   1.004
 1425SOL     OW  680   3.322   1.505   1.339
 1425SOL    HW1  681   3.346   1.599   1.365
 1425SOL    HW2  682   3.306   1.451   1.421
 1429SOL     OW  683   2.989   1.341   1.690
 1429SOL    HW1  684   3.036   1.341   1.778
 1429SOL    HW2  685   2.941   1.254   1.679
 1432SOL     OW  686   2.482   1.786   1.439
 1432SOL    HW1  687   2.390   1.769   1.474
 1432SOL    HW2  688   2.510   1.878   1.465
 1442SOL     OW  689   3.155   1.228   1.423
 1442SOL    HW1  690   3.192   1.155   1.365
 1442SOL    HW2  691   3.207   1.233   1.508
 1446SOL     OW  692   3.049   1.792   1.616
 1446SOL    HW1  693   3.073   1.852   1.540
 1446SOL    HW2  694   3.056   1.697   1.586
 1455SOL     OW  695   2.835   0.890   1.572
 1455SOL    HW1  696   2.881   0.806   1.543
 1455SOL    HW2  697   2.779   0.924   1.497
 1459SOL     OW  698   1.992   1.821   1.571
 1459SOL    HW1  699   1.982   1.806   1.670
 1459SOL    HW2  700   1.906   1.857   1.535
 1465SOL     OW  701   2.213   1.801   0.853
 1465SOL    HW1  702   2.263   1.715   0.859
 1465SOL    HW2  703   2.278   1.878   0.850
 1467SOL     OW  704   3.089   1.550   1.506
 1467SOL    HW1  705   3.095   1.473   1.570
 1467SOL    HW2  706   3.037   1.524   1.426
 1470SOL     OW  707   2.323   1.266   1.727
 1470SOL    HW1  708   2.273   1.267   1.641
 1470SOL    HW2  709   2.260   1.248   1.803
 1476SOL     OW  710   2.111   1.785   1.241
 1476SOL    HW1  711   2.168   1.720   1.291
 1476SOL    HW2  712   2.095   1.752   1.148
 1477SOL     OW  713   2.802   1.698   0.904
 1477SOL    HW1  714   2.882   1.641   0.925
 1477SOL    HW2  715   2.753   1.658   0.827
 1482SOL     OW  716   2.750   1.514   1.195
 1482SOL    HW1  717   2.727   1.489   1.101
 1482SOL    HW2  718   2.811   1.445   1.234
 1507SOL     OW  719   2.926   1.347   1.340
 1507SOL    HW1  720   2.846   1.324   1.395
 1507SOL    HW2  721   3.009   1.321   1.389
 1508SOL     OW  722   3.454   1.629   1.625
 1508SOL    HW1  723   3.481   1.663   1.535
 1508SOL    HW2  724   3.533   1.591   1.671
 1512SOL     OW  725   2.842   1.116   1.719
 1512SOL    HW1  726   2.743   1.122   1.729
 1512SOL    HW2  727   2.865   1.036   1.663
 1516SOL     OW  728   1.926   1.564   1.331
 1516SOL    HW1  729   1.880   1.646   1.297
 1516SOL    HW2  730   2.024   1.583   1.340
 1520SOL     OW  731   3.134   1.445   1.142
 1520SOL    HW1  732   3.181   1.458   1.229
 1520SOL    HW2  733   3.068   1.371   1.151
 1522SOL     OW  734   2.216   1.510   1.329
 1522SOL    HW1  735   2.195   1.466   1.242
 1522SOL    HW2  736   2.313   1.536   1.332
 1531SOL     OW  737   1.899   1.310   1.282
 1531SOL    HW1  738   1.952   1.261   1.350
 1531SOL    HW2  739   1.921   1.408   1.287
 1537SOL     OW  740   2.842   1.573   1.700
 1537SOL    HW1  741   2.822   1.617   1.612
 1537SOL    HW2  742   2.881   1.482   1.684
 1538SOL     OW  743   3.721   1.518   1.605
 1538SOL    HW1  744   3.735   1.545   1.510
 1538SOL    HW2  745   3.804   1.540   1.658
 1539SOL     OW  746   2.212   0.898   1.804
 1539SOL    HW1  747   2.288   0.942   1.852
 1539SOL    HW2  748   2.247   0.851   1.722
 1548SOL     OW  749   1.950   1.801   0.927
 1548SOL    HW1  750   1.908   1.715   0.900
 1548SOL    HW2  751   2.044   1.804   0.893
 1549SOL     OW  752   2.366   1.568   0.910
 1549SOL    HW1  753   2.432   1.642   0.919
 1549SOL    HW2  754   2.410   1.489   0.868
 1556SOL     OW  755   2.114   1.564   1.744
 1556SOL    HW1  756   2.084   1.621   1.820
 1556SOL    HW2  757   2.107   1.467   1.770
 1558SOL     OW  758   2.792   1.678   1.465
 1558SOL    HW1  759   2.768   1.660   1.370
 1558SOL    HW2  760   2.822   1.772   1.475
 1560SOL     OW  761   2.021   1.137   1.466
 1560SOL    HW1  762   2.043   1.076   1.542
 1560SOL    HW2  763   2.031   1.088   1.380
 1564SOL     OW  764   3.114   1.731   1.128
 1564SOL    HW1  765   3.198   1.736   1.074
 1564SOL    HW2  766   3.091   1.635   1.146
 1566SOL     OW  767   2.550   1.662   1.716
 1566SOL    HW1  768   2.494   1.743   1.725
 1566SOL    HW2  769   2.602   1.666   1.630
 1570SOL     OW  770   1.992   1.794   1.851
 1570SOL    HW1  771   1.951   1.720   1.904
 1570SOL    HW2  772   2.056   1.845   1.909
 1572SOL     OW  773   2.692   1.273   1.422
 1572SOL    HW1  774   2.687   1.306   1.517
 1572SOL    HW2  775   2.606   1.292   1.376
 1574SOL     OW  776   3.512   1.720   1.394
 1574SOL    HW1  777   3.565   1.730   1.310
 1574SOL    HW2  778   3.485   1.810   1.428
 1578SOL     OW  779   2.684   1.002   1.372
 1578SOL    HW1  780   2.724   1.001   1.280
 1578SOL    HW2  781   2.694   1.094   1.412
 1581SOL     OW  782   2.234   1.288   1.490
 1581SOL    HW1  783   2.221   1.381   1.456
 1581SOL    HW2  784   2.150   1.236   1.477
 1588SOL     OW  785   1.967   1.013   1.726
 1588SOL    HW1  786   1.890   0.980   1.780
 1588SOL    HW2  787   2.052   0.983   1.768
 1597SOL     OW  788   3.312   1.220   1.633
 1597SOL    HW1  789   3.303   1.210   1.732
 1597SOL    HW2  790   3.408   1.213   1.607
 1598SOL     OW  791   2.252   1.741   1.560
 1598SOL    HW1  792   2.161   1.782   1.558
 1598SOL    HW2  793   2.245   1.647   1.592
 1605SOL     OW  794   2.523   1.790   0.953
 1605SOL    HW1  795   2.477   1.878   0.940
 1605SOL    HW2  796   2.622   1.802   0.946
 1609SOL     OW  797   2.083   1.314   1.844
 1609SOL    HW1  798   2.018   1.241   1.823
 1609SOL    HW2  799   2.087   1.328   1.942
 1611SOL     OW  800   2.534   1.391   1.624
 1611SOL    HW1  801   2.456   1.341   1.662
 1611SOL    HW2  802   2.531   1.486   1.655
 1620SOL     OW  803   2.480   1.567   1.284
 1620SOL    HW1  804   2.475   1.649   1.341
 1620SOL    HW2  805   2.569   1.564   1.239
 1629SOL     OW  806   2.431   1.275   3.027
 1629SOL    HW1  807   2.338   1.268   2.990
 1629SOL    HW2  808   2.442   1.364   3.071
 1630SOL     OW  809   3.417   1.511   2.565
 1630SOL    HW1  810   3.360   1.495   2.646
 1630SOL    HW2  811   3.358   1.521   2.485
 1633SOL     OW  812   2.630   1.144   2.885
 1633SOL    HW1  813   2.552   1.161   2.945
 1633SOL    HW2  814   2.664   1.231   2.849
 1635SOL     OW  815   2.547   1.012   2.527
 1635SOL    HW1  816   2.616   0.996   2.597
 1635SOL    HW2  817   2.474   1.069   2.565
 1636SOL     OW  818   2.548   1.161   3.665
 1636SOL    HW1  819   2.608   1.240   3.679
 1636SOL    HW2  820   2.462   1.192   3.624
 1637SOL     OW  821   2.197   1.435   2.923
 1637SOL    HW1  822   2.119   1.404   2.870
 1637SOL    HW2  823   2.255   1.493   2.866
 1638SOL     OW  824   3.322   1.505   3.201
 1638SOL    HW1  825   3.346   1.599   3.227
 1638SOL    HW2  826   3.306   1.451   3.283
 1641SOL     OW  827   2.093   1.713   2.345
 1641SOL    HW1  828   2.127   1.790   2.399
 1641SOL    HW2  829   2.137   1.713   2.255
 1642SOL     OW  830   2.989   1.341   3.552
 1642SOL    HW1  831   3.036   1.341   3.640
 1642SOL    HW2  832   2.941   1.254   3.541
 1643SOL     OW  833   2.092   1.434   2.400
 1643SOL    HW1  834   2.066   1.530   2.400
 1643SOL    HW2  835   2.021   1.380   2.445
 1644SOL     OW  836   2.102   1.091   2.748
 1644SOL    HW1  837   2.116   1.007   2.800
 1644SOL    HW2  838   2.047   1.155   2.803
 1645SOL     OW  839   2.482   1.786   3.301
 1645SOL    HW1  840   2.390   1.769   3.336
 1645SOL    HW2  841   2.510   1.878   3.327
 1646SOL     OW  842   2.468   0.964   1.985
 1646SOL    HW1  843   2.475   1.048   1.931
 1646SOL    HW2  844   2.514   0.977   2.073
 1649SOL     OW  845   3.704   1.767   2.221
 1649SOL    HW1  846   3.758   1.738   2.301
 1649SOL    HW2  847   3.734   1.857   2.192
 1650SOL     OW  848   1.889   1.596   1.979
 1650SOL    HW1  849   1.870   1.500   2.000
 1650SOL    HW2  850   1.856   1.654   2.054
 1652SOL     OW  851   3.503   1.108   2.294
 1652SOL    HW1  852   3.589   1.110   2.242
 1652SOL    HW2  853   3.517   1.155   2.382
 1654SOL     OW  854   2.475   1.365   2.588
 1654SOL    HW1  855   2.426   1.278   2.597
 1654SOL    HW2  856   2.452   1.408   2.501
 1655SOL     OW  857   3.155   1.228   3.285
 1655SOL    HW1  858   3.192   1.155   3.227
 1655SOL    HW2  859   3.207   1.233   3.370
 1657SOL     OW  860   2.059   0.976   3.126
 1657SOL    HW1  861   2.148   0.931   3.112
 1657SOL    HW2  862   1.986   0.911   3.107
 1658SOL     OW  863   3.387   0.999   2.052
 1658SOL    HW1  864   3.324   0.923   2.065
 1658SOL    HW2  865   3.435   1.017   2.138
 1659SOL     OW  866   3.049   1.792   3.478
 1659SOL    HW1  867   3.073   1.852   3.402
 1659SOL    HW2  868   3.056   1.697   3.448
 1661SOL     OW  869   3.328   1.417   2.815
 1661SOL    HW1  870   3.269   1.423   2.895
 1661SOL    HW2  871   3.313   1.329   2.769
 1662SOL     OW  872   3.529   1.714   2.434
 1662SOL    HW1  873   3.488   1.691   2.346
 1662SOL    HW2  874   3.511   1.640   2.499
 1663SOL     OW  875   2.460   0.729   2.132
 1663SOL    HW1  876   2.484   0.798   2.064
 1663SOL    HW2  877   2.382   0.762   2.186
 1665SOL     OW  878   3.438   1.662   2.169
 1665SOL    HW1  879   3.527   1.708   2.172
 1665SOL    HW2  880   3.417   1.638   2.074
 1670SOL     OW  881   2.903   0.701   2.291
 1670SOL    HW1  882   2.929   0.697   2.387
 1670SOL    HW2  883   2.818   0.650   2.277
 1671SOL     OW  884   1.938   0.811   2.651
 1671SOL    HW1  885   2.037   0.799   2.660
 1671SOL    HW2  886   1.914   0.906   2.672
 1672SOL     OW  887   1.992   1.821   3.433
 1672SOL    HW1  888   1.982   1.806   3.532
 1672SOL    HW2  889   1.906   1.857   3.397
 1675SOL     OW  890   3.224   1.144   2.407
 1675SOL    HW1  891   3.307   1.115   2.359
 1675SOL    HW2  892   3.175   1.211   2.351
 1677SOL     OW  893   2.870   1.456   2.339
 1677SOL    HW1  894   2.824   1.528   2.287
 1677SOL    HW2  895   2.866   1.476   2.437
 1678SOL     OW  896   2.213   1.801   2.715
 1678SOL    HW1  897   2.263   1.715   2.721
 1678SOL    HW2  898   2.278   1.878   2.712
 1680SOL     OW  899   3.089   1.550   3.368
 1680SOL    HW1  900   3.095   1.473   3.432
 1680SOL    HW2  901   3.037   1.524   3.288
 1681SOL     OW  902   2.183   0.943   2.104
 1681SOL    HW1  903   2.265   0.982   2.062
 1681SOL    HW2  904   2.156   0.861   2.055
 1683SOL     OW  905   2.323   1.266   3.589
 1683SOL    HW1  906   2.273   1.267   3.503
 1683SOL    HW2  907   2.260   1.248   3.665
 1684SOL     OW  908   2.973   1.776   2.099
 1684SOL    HW1  909   2.913   1.714   2.149
 1684SOL    HW2  910   3.004   1.732   2.014
 1686SOL     OW  911   3.494   1.377   1.943
 1686SOL    HW1  912   3.462   1.471   1.933
 1686SOL    HW2  913   3.418   1.314   1.931
 1687SOL     OW  914   2.326   1.743   2.185
 1687SOL    HW1  915   2.359   1.782   2.271
 1687SOL    HW2  916   2.402   1.736   2.120
 1689SOL     OW  917   2.111   1.785   3.103
 1689SOL    HW1  918   2.168   1.720   3.153
 1689SOL    HW2  919   2.095   1.752   3.010
 1690SOL     OW  920   2.802   1.698   2.766
 1690SOL    HW1  921   2.882   1.641   2.787
 1690SOL    HW2  922   2.753   1.658   2.689
 1691SOL     OW  923   2.244   0.700   2.342
 1691SOL    HW1  924   2.289   0.610   2.339
 1691SOL    HW2  925   2.150   0.689   2.375
 1695SOL     OW  926   2.750   1.514   3.057
 1695SOL    HW1  927   2.727   1.489   2.963
 1695SOL    HW2  928   2.811   1.445   3.096
 1697SOL     OW  929   2.665   1.402   2.786
 1697SOL    HW1  930   2.755   1.416   2.744
 1697SOL    HW2  931   2.594   1.404   2.715
 1700SOL     OW  932   3.296   1.188   1.903
 1700SOL    HW1  933   3.328   1.112   1.960
 1700SOL    HW2  934   3.204   1.215   1.933
 1704SOL     OW  935   3.089   1.570   2.655
 1704SOL    HW1  936   3.110   1.644   2.590
 1704SOL    HW2  937   3.157   1.570   2.728
 1705SOL     OW  938   2.321   1.152   2.603
 1705SOL    HW1  939   2.250   1.125   2.668
 1705SOL    HW2  940   2.295   1.124   2.510
 1706SOL     OW  941   3.133   1.797   2.453
 1706SOL    HW1  942   3.177   1.861   2.389
 1706SOL    HW2  943   3.083   1.849   2.523
 1712SOL     OW  944   3.291   1.173   2.729
 1712SOL    HW1  945   3.236   1.089   2.722
 1712SOL    HW2  946   3.317   1.202   2.637
 1715SOL     OW  947   2.350   1.385   2.036
 1715SOL    HW1  948   2.263   1.370   2.083
 1715SOL    HW2  949   2.333   1.411   1.941
 1716SOL     OW  950   3.526   1.280   2.519
 1716SOL    HW1  951   3.625   1.288   2.533
 1716SOL    HW2  952   3.481   1.364   2.550
 1720SOL     OW  953   2.926   1.347   3.202
 1720SOL    HW1  954   2.846   1.324   3.257
 1720SOL    HW2  955   3.009   1.321   3.251
 1721SOL     OW  956   3.454   1.629   3.487
 1721SOL    HW1  957   3.481   1.663   3.397
 1721SOL    HW2  958   3.533   1.591   3.533
 1722SOL     OW  959   2.973   1.195   2.962
 1722SOL    HW1  960   2.933   1.239   3.043
 1722SOL    HW2  961   2.932   1.232   2.879
 1723SOL     OW  962   3.500   1.099   2.941
 1723SOL    HW1  963   3.505   1.180   3.000
 1723SOL    HW2  964   3.414   1.101   2.890
 1725SOL     OW  965   2.842   1.116   3.581
 1725SOL    HW1  966   2.743   1.122   3.591
 1725SOL    HW2  967   2.865   1.036   3.525
 1726SOL     OW  968   2.567   1.050   2.230
 1726SOL    HW1  969   2.553   1.057   2.329
 1726SOL    HW2  970   2.651   0.999   2.212
 1727SOL     OW  971   2.272   0.813   3.113
 1727SOL    HW1  972   2.358   0.825   3.163
 1727SOL    HW2  973   2.230   0.726   3.140
 1729SOL     OW  974   1.926   1.564   3.193
 1729SOL    HW1  975   1.880   1.646   3.159
 1729SOL    HW2  976   2.024   1.583   3.202
 1730SOL     OW  977   2.229   1.100   2.363
 1730SOL    HW1  978   2.222   1.183   2.307
 1730SOL    HW2  979   2.233   1.020   2.303
 1732SOL     OW  980   3.114   1.348   2.250
 1732SOL    HW1  981   3.164   1.425   2.290
 1732SOL    HW2  982   3.019   1.350   2.282
 1733SOL     OW  983   3.134   1.445   3.004
 1733SOL    HW1  984   3.181   1.458   3.091
 1733SOL    HW2  985   3.068   1.371   3.013
 1735SOL     OW  986   2.216   1.510   3.191
 1735SOL    HW1  987   2.195   1.466   3.104
 1735SOL    HW2  988   2.313   1.536   3.194
 1740SOL     OW  989   2.435   0.870   2.891
 1740SOL    HW1  990   2.479   0.959   2.882
 1740SOL    HW2  991   2.372   0.870   2.968
 1744SOL     OW  992   1.899   1.310   3.144
 1744SOL    HW1  993   1.952   1.261   3.212
 1744SOL    HW2  994   1.921   1.408   3.149
 1749SOL     OW  995   2.885   0.766   2.828
 1749SOL    HW1  996   2.900   0.787   2.924
 1749SOL    HW2  997   2.855   0.671   2.819
 1750SOL     OW  998   2.842   1.573   3.562
 1750SOL    HW1  999   2.822   1.617   3.474
 1750SOL    HW2 1000   2.881   1.482   3.546
 1755SOL     OW 1001   2.930   1.333   2.711
 1755SOL    HW1 1002   2.937   1.249   2.656
 1755SOL    HW2 1003   2.992   1.402   2.675
 1756SOL     OW 1004   2.181   0.810   2.811
 1756SOL    HW1 1005   2.274   0.846   2.816
 1756SOL    HW2 1006   2.175   0.725   2.863
 1760SOL     OW 1007   1.870   1.326   2.062
 1760SOL    HW1 1008   1.777   1.347   2.031
 1760SOL    HW2 1009   1.880   1.227   2.075
 1761SOL     OW 1010   1.950   1.801   2.789
 1761SOL    HW1 1011   1.908   1.715   2.762
 1761SOL    HW2 1012   2.044   1.804   2.755
 1762SOL     OW 1013   2.366   1.568   2.772
 1762SOL    HW1 1014   2.432   1.642   2.781
 1762SOL    HW2 1015   2.410   1.489   2.730
 1769SOL     OW 1016   2.114   1.564   3.606
 1769SOL    HW1 1017   2.084   1.621   3.682
 1769SOL    HW2 1018   2.107   1.467   3.632
 1771SOL     OW 1019   2.792   1.678   3.327
 1771SOL    HW1 1020   2.768   1.660   3.232
 1771SOL    HW2 1021   2.822   1.772   3.337
 1773SOL     OW 1022   2.021   1.137   3.328
 1773SOL    HW1 1023   2.043   1.076   3.404
 1773SOL    HW2 1024   2.031   1.088   3.242
 1774SOL     OW 1025   3.209   1.059   3.096
 1774SOL    HW1 1026   3.233   0.996   3.022
 1774SOL    HW2 1027   3.119   1.099   3.078
 1775SOL     OW 1028   3.164   0.855   2.171
 1775SOL    HW1 1029   3.078   0.824   2.213
 1775SOL    HW2 1030   3.160   0.841   2.072
 1776SOL     OW 1031   3.621   1.747   3.016
 1776SOL    HW1 1032   3.682   1.777   2.943
 1776SOL    HW2 1033   3.583   1.658   2.994
 1777SOL     OW 1034   3.114   1.731   2.990
 1777SOL    HW1 1035   3.198   1.736   2.936
 1777SOL    HW2 1036   3.091   1.635   3.008
 1778SOL     OW 1037   1.945   1.258   2.884
 1778SOL    HW1 1038   1.940   1.257   2.984
 1778SOL    HW2 1039   1.862   1.217   2.846
 1779SOL     OW 1040   2.550   1.662   3.578
 1779SOL    HW1 1041   2.494   1.743   3.587
 1779SOL    HW2 1042   2.602   1.666   3.492
 1781SOL     OW 1043   3.250   1.573   2.339
 1781SOL    HW1 1044   3.317   1.585   2.265
 1781SOL    HW2 1045   3.210   1.662   2.362
 1782SOL     OW 1046   1.992   1.794   3.713
 1782SOL    HW1 1047   1.951   1.720   3.766
 1782SOL    HW2 1048   2.056   1.845   3.771
 1783SOL     OW 1049   3.142   0.927   2.534
 1783SOL    HW1 1050   3.202   0.846   2.536
 1783SOL    HW2 1051   3.182   0.996   2.474
 1784SOL     OW 1052   2.692   1.273   3.284
 1784SOL    HW1 1053   2.687   1.306   3.379
 1784SOL    HW2 1054   2.606   1.292   3.238
 1785SOL     OW 1055   2.534   1.616   2.016
 1785SOL    HW1 1056   2.543   1.626   1.917
 1785SOL    HW2 1057   2.494   1.527   2.037
 1786SOL     OW 1058   3.512   1.720   3.256
 1786SOL    HW1 1059   3.565   1.730   3.172
 1786SOL    HW2 1060   3.485   1.810   3.290
 1789SOL     OW 1061   3.056   1.612   1.893
 1789SOL    HW1 1062   3.062   1.519   1.930
 1789SOL    HW2 1063   2.997   1.612   1.813
 1790SOL     OW 1064   2.684   1.002   3.234
 1790SOL    HW1 1065   2.724   1.001   3.142
 1790SOL    HW2 1066   2.694   1.094   3.274
 1791SOL     OW 1067   2.778   0.910   2.153
 1791SOL    HW1 1068   2.841   0.948   2.085
 1791SOL    HW2 1069   2.818   0.827   2.192
 1792SOL     OW 1070   3.366   1.607   1.906
 1792SOL    HW1 1071   3.274   1.644   1.913
 1792SOL    HW2 1072   3.404   1.627   1.816
 1793SOL     OW 1073   2.234   1.288   3.352
 1793SOL    HW1 1074   2.221   1.381   3.318
 1793SOL    HW2 1075   2.150   1.236   3.339
 1794SOL     OW 1076   3.476   1.292   3.151
 1794SOL    HW1 1077   3.536   1.295   3.231
 1794SOL    HW2 1078   3.401   1.356   3.164
 1795SOL     OW 1079   2.901   1.098   2.558
 1795SOL    HW1 1080   2.831   1.051   2.612
 1795SOL    HW2 1081   2.960   1.030   2.515
 1797SOL     OW 1082   2.452   1.487   2.353
 1797SOL    HW1 1083   2.494   1.429   2.283
 1797SOL    HW2 1084   2.408   1.566   2.309
 1799SOL     OW 1085   2.117   1.348   2.152
 1799SOL    HW1 1086   2.021   1.349   2.125
 1799SOL    HW2 1087   2.129   1.401   2.236
 1805SOL     OW 1088   3.045   1.335   1.981
 1805SOL    HW1 1089   2.946   1.324   1.983
 1805SOL    HW2 1090   3.079   1.350   2.074
 1806SOL     OW 1091   2.475   0.842   3.293
 1806SOL    HW1 1092   2.531   0.923   3.276
 1806SOL    HW2 1093   2.534   0.762   3.296
 1807SOL     OW 1094   3.355   1.767   2.821
 1807SOL    HW1 1095   3.388   1.831   2.752
 1807SOL    HW2 1096   3.421   1.761   2.896
 1810SOL     OW 1097   2.252   1.741   3.422
 1810SOL    HW1 1098   2.161   1.782   3.420
 1810SOL    HW2 1099   2.245   1.647   3.454
 1813SOL     OW 1100   2.456   0.745   2.514
 1813SOL    HW1 1101   2.506   0.830   2.495
 1813SOL    HW2 1102   2.368   0.747   2.466
 1816SOL     OW 1103   2.721   1.374   1.878
 1816SOL    HW1 1104   2.675   1.389   1.966
 1816SOL    HW2 1105   2.765   1.459   1.848
 1817SOL     OW 1106   2.523   1.790   2.815
 1817SOL    HW1 1107   2.477   1.878   2.802
 1817SOL    HW2 1108   2.622   1.802   2.808
 1818SOL     OW 1109   2.721   0.956   2.723
 1818SOL    HW1 1110   2.775   0.887   2.771
 1818SOL    HW2 1111   2.689   1.025   2.789
 1819SOL     OW 1112   2.945   0.984   1.949
 1819SOL    HW1 1113   2.922   1.037   1.867
 1819SOL    HW2 1114   3.026   0.928   1.930
 1820SOL     OW 1115   3.723   1.569   2.713
 1820SOL    HW1 1116   3.652   1.557   2.643
 1820SOL    HW2 1117   3.724   1.490   2.773
 1821SOL     OW 1118   2.083   1.314   3.706
 1821SOL    HW1 1119   2.018   1.241   3.685
 1821SOL    HW2 1120   2.087   1.328   3.804
 1822SOL     OW 1121   1.941   1.240   2.515
 1822SOL    HW1 1122   1.940   1.193   2.603
 1822SOL    HW2 1123   2.023   1.212   2.464
 1823SOL     OW 1124   2.534   1.391   3.486
 1823SOL    HW1 1125   2.456   1.341   3.524
 1823SOL    HW2 1126   2.531   1.486   3.517
 1826SOL     OW 1127   3.567   1.487   2.966
 1826SOL    HW1 1128   3.474   1.462   2.939
 1826SOL    HW2 1129   3.593   1.437   3.048
 1828SOL     OW 1130   2.674   1.586   2.549
 1828SOL    HW1 1131   2.706   1.596   2.455
 1828SOL    HW2 1132   2.595   1.524   2.551
 1831SOL     OW 1133   2.632   1.330   2.163
 1831SOL    HW1 1134   2.586   1.243   2.180
 1831SOL    HW2 1135   2.723   1.327   2.204
 1832SOL     OW 1136   2.480   1.567   3.146
 1832SOL    HW1 1137   2.475   1.649   3.203
 1832SOL    HW2 1138   2.569   1.564   3.101
 1836SOL     OW 1139   1.901   1.077   2.162
 1836SOL    HW1 1140   2.000   1.066   2.153
 1836SOL    HW2 1141   1.861   0.991   2.194
 1837SOL     OW 1142   2.737   1.646   2.199
 1837SOL    HW1 1143   2.660   1.611   2.145
 1837SOL    HW2 1144   2.705   1.717   2.261
 1854SOL     OW 1145   1.889   1.596   3.841
 1854SOL    HW1 1146   1.870   1.500   3.862
 1854SOL    HW2 1147   1.856   1.654   3.916
 1875SOL     OW 1148   2.973   1.776   3.961
 1875SOL    HW1 1149   2.913   1.714   4.011
 1875SOL    HW2 1150   3.004   1.732   3.876
 1877SOL     OW 1151   2.326   1.743   4.047
 1877SOL    HW1 1152   2.359   1.782   4.133
 1877SOL    HW2 1153   2.402   1.736   3.982
 1930SOL     OW 1154   2.534   1.616   3.878
 1930SOL    HW1 1155   2.543   1.626   3.779
 1930SOL    HW2 1156   2.494   1.527   3.899
 1933SOL     OW 1157   3.056   1.612   3.755
 1933SOL    HW1 1158   3.062   1.519   3.792
 1933SOL    HW2 1159   2.997   1.612   3.675
 1945SOL     OW 1160   2.721   1.374   3.740
 1945SOL    HW1 1161   2.675   1.389   3.828
 1945SOL    HW2 1162   2.765   1.459   3.710
 1961SOL     OW 1163   2.087   2.137   0.996
 1961SOL    HW1 1164   2.122   2.120   1.088
 1961SOL    HW2 1165   1.999   2.092   0.984
 1963SOL     OW 1166   2.431   3.137   1.165
 1963SOL    HW1 1167   2.338   3.130   1.128
 1963SOL    HW2 1168   2.442   3.226   1.209
 1965SOL     OW 1169   2.997   2.565   0.717
 1965SOL    HW1 1170   3.054   2.643   0.692
 1965SOL    HW2 1171   2.937   2.591   0.793
 1967SOL     OW 1172   2.630   3.006   1.023
 1967SOL    HW1 1173   2.552   3.023   1.083
 1967SOL    HW2 1174   2.664   3.093   0.987
 1968SOL     OW 1175   2.712   2.660   1.823
 1968SOL    HW1 1176   2.708   2.736   1.888
 1968SOL    HW2 1177   2.734   2.696   1.732
 1970SOL     OW 1178   2.548   3.023   1.803
 1970SOL    HW1 1179   2.608   3.102   1.817
 1970SOL    HW2 1180   2.462   3.054   1.762
 1971SOL     OW 1181   2.197   3.297   1.061
 1971SOL    HW1 1182   2.119   3.266   1.008
 1971SOL    HW2 1183   2.255   3.355   1.004
 1972SOL     OW 1184   3.322   3.367   1.339
 1972SOL    HW1 1185   3.346   3.461   1.365
 1972SOL    HW2 1186   3.306   3.313   1.421
 1973SOL     OW 1187   2.300   2.254   1.499
 1973SOL    HW1 1188   2.382   2.198   1.508
 1973SOL    HW2 1189   2.219   2.196   1.503
 1976SOL     OW 1190   2.989   3.203   1.690
 1976SOL    HW1 1191   3.036   3.203   1.778
 1976SOL    HW2 1192   2.941   3.116   1.679
 1978SOL     OW 1193   2.102   2.953   0.886
 1978SOL    HW1 1194   2.116   2.869   0.938
 1978SOL    HW2 1195   2.047   3.017   0.941
 1979SOL     OW 1196   2.482   3.648   1.439
 1979SOL    HW1 1197   2.390   3.631   1.474
 1979SOL    HW2 1198   2.510   3.740   1.465
 1981SOL     OW 1199   3.456   1.976   1.480
 1981SOL    HW1 1200   3.438   2.043   1.408
 1981SOL    HW2 1201   3.453   2.022   1.569
 1987SOL     OW 1202   1.975   2.599   1.597
 1987SOL    HW1 1203   2.063   2.586   1.642
 1987SOL    HW2 1204   1.962   2.696   1.575
 1989SOL     OW 1205   3.155   3.090   1.423
 1989SOL    HW1 1206   3.192   3.017   1.365
 1989SOL    HW2 1207   3.207   3.095   1.508
 1991SOL     OW 1208   2.059   2.838   1.264
 1991SOL    HW1 1209   2.148   2.793   1.250
 1991SOL    HW2 1210   1.986   2.773   1.245
 1993SOL     OW 1211   3.049   3.654   1.616
 1993SOL    HW1 1212   3.073   3.714   1.540
 1993SOL    HW2 1213   3.056   3.559   1.586
 1994SOL     OW 1214   2.179   2.113   1.801
 1994SOL    HW1 1215   2.250   2.184   1.807
 1994SOL    HW2 1216   2.091   2.152   1.829
 1998SOL     OW 1217   3.143   2.207   0.944
 1998SOL    HW1 1218   3.057   2.157   0.931
 1998SOL    HW2 1219   3.205   2.153   1.000
 2000SOL     OW 1220   2.669   2.467   1.465
 2000SOL    HW1 1221   2.622   2.464   1.554
 2000SOL    HW2 1222   2.618   2.412   1.399
 2001SOL     OW 1223   3.256   2.331   1.674
 2001SOL    HW1 1224   3.236   2.374   1.762
 2001SOL    HW2 1225   3.334   2.269   1.683
 2002SOL     OW 1226   2.835   2.752   1.572
 2002SOL    HW1 1227   2.881   2.668   1.543
 2002SOL    HW2 1228   2.779   2.786   1.497
 2003SOL     OW 1229   2.853   2.272   1.242
 2003SOL    HW1 1230   2.776   2.306   1.296
 2003SOL    HW2 1231   2.819   2.221   1.163
 2005SOL     OW 1232   1.938   2.673   0.789
 2005SOL    HW1 1233   2.037   2.661   0.798
 2005SOL    HW2 1234   1.914   2.768   0.810
 2006SOL     OW 1235   1.992   3.683   1.571
 2006SOL    HW1 1236   1.982   3.668   1.670
 2006SOL    HW2 1237   1.906   3.719   1.535
 2008SOL     OW 1238   3.581   2.447   1.831
 2008SOL    HW1 1239   3.555   2.536   1.795
 2008SOL    HW2 1240   3.579   2.379   1.758
 2010SOL     OW 1241   2.412   2.058   0.885
 2010SOL    HW1 1242   2.407   2.053   0.985
 2010SOL    HW2 1243   2.414   2.154   0.856
 2014SOL     OW 1244   3.089   3.412   1.506
 2014SOL    HW1 1245   3.095   3.335   1.570
 2014SOL    HW2 1246   3.037   3.386   1.426
 2017SOL     OW 1247   2.323   3.128   1.727
 2017SOL    HW1 1248   2.273   3.129   1.641
 2017SOL    HW2 1249   2.260   3.110   1.803
 2019SOL     OW 1250   2.064   2.147   1.498
 2019SOL    HW1 1251   1.984   2.207   1.485
 2019SOL    HW2 1252   2.054   2.098   1.584
 2023SOL     OW 1253   2.111   3.647   1.241
 2023SOL    HW1 1254   2.168   3.582   1.291
 2023SOL    HW2 1255   2.095   3.614   1.148
 2026SOL     OW 1256   3.409   2.084   1.729
 2026SOL    HW1 1257   3.404   2.121   1.821
 2026SOL    HW2 1258   3.337   2.015   1.717
 2028SOL     OW 1259   2.643   2.126   1.749
 2028SOL    HW1 1260   2.710   2.065   1.792
 2028SOL    HW2 1261   2.570   2.145   1.814
 2029SOL     OW 1262   2.750   3.376   1.195
 2029SOL    HW1 1263   2.727   3.351   1.101
 2029SOL    HW2 1264   2.811   3.307   1.234
 2030SOL     OW 1265   3.213   2.452   1.433
 2030SOL    HW1 1266   3.241   2.409   1.518
 2030SOL    HW2 1267   3.238   2.548   1.434
 2031SOL     OW 1268   2.665   3.264   0.924
 2031SOL    HW1 1269   2.755   3.278   0.882
 2031SOL    HW2 1270   2.594   3.266   0.853
 2032SOL     OW 1271   2.784   2.365   0.899
 2032SOL    HW1 1272   2.759   2.356   0.803
 2032SOL    HW2 1273   2.832   2.283   0.930
 2036SOL     OW 1274   2.938   2.545   1.464
 2036SOL    HW1 1275   2.858   2.484   1.467
 2036SOL    HW2 1276   3.019   2.492   1.440
 2038SOL     OW 1277   2.321   3.014   0.741
 2038SOL    HW1 1278   2.250   2.987   0.806
 2038SOL    HW2 1279   2.295   2.986   0.648
 2041SOL     OW 1280   1.940   2.418   1.386
 2041SOL    HW1 1281   2.032   2.417   1.345
 2041SOL    HW2 1282   1.934   2.492   1.453
 2042SOL     OW 1283   2.423   2.084   1.147
 2042SOL    HW1 1284   2.461   2.000   1.184
 2042SOL    HW2 1285   2.335   2.103   1.191
 2043SOL     OW 1286   2.728   2.316   0.642
 2043SOL    HW1 1287   2.696   2.388   0.580
 2043SOL    HW2 1288   2.752   2.235   0.589
 2044SOL     OW 1289   2.879   1.901   0.753
 2044SOL    HW1 1290   2.807   1.906   0.684
 2044SOL    HW2 1291   2.855   1.832   0.822
 2046SOL     OW 1292   3.328   2.452   0.992
 2046SOL    HW1 1293   3.298   2.357   0.999
 2046SOL    HW2 1294   3.401   2.468   1.058
 2052SOL     OW 1295   3.616   3.085   1.588
 2052SOL    HW1 1296   3.707   3.046   1.575
 2052SOL    HW2 1297   3.624   3.181   1.612
 2053SOL     OW 1298   2.926   3.209   1.340
 2053SOL    HW1 1299   2.846   3.186   1.395
 2053SOL    HW2 1300   3.009   3.183   1.389
 2054SOL     OW 1301   3.454   3.491   1.625
 2054SOL    HW1 1302   3.481   3.525   1.535
 2054SOL    HW2 1303   3.533   3.453   1.671
 2055SOL     OW 1304   2.973   3.057   1.100
 2055SOL    HW1 1305   2.933   3.101   1.181
 2055SOL    HW2 1306   2.932   3.094   1.017
 2057SOL     OW 1307   2.777   1.951   1.402
 2057SOL    HW1 1308   2.802   1.931   1.307
 2057SOL    HW2 1309   2.849   2.007   1.444
 2058SOL     OW 1310   2.842   2.978   1.719
 2058SOL    HW1 1311   2.743   2.984   1.729
 2058SOL    HW2 1312   2.865   2.898   1.663
 2060SOL     OW 1313   2.272   2.675   1.251
 2060SOL    HW1 1314   2.358   2.687   1.301
 2060SOL    HW2 1315   2.230   2.588   1.278
 2061SOL     OW 1316   3.136   2.248   1.262
 2061SOL    HW1 1317   3.157   2.322   1.326
 2061SOL    HW2 1318   3.047   2.265   1.219
 2062SOL     OW 1319   1.926   3.426   1.331
 2062SOL    HW1 1320   1.880   3.508   1.297
 2062SOL    HW2 1321   2.024   3.445   1.340
 2064SOL     OW 1322   2.428   2.399   0.865
 2064SOL    HW1 1323   2.440   2.465   0.791
 2064SOL    HW2 1324   2.474   2.433   0.948
 2066SOL     OW 1325   3.134   3.307   1.142
 2066SOL    HW1 1326   3.181   3.320   1.229
 2066SOL    HW2 1327   3.068   3.233   1.151
 2068SOL     OW 1328   2.216   3.372   1.329
 2068SOL    HW1 1329   2.195   3.328   1.242
 2068SOL    HW2 1330   2.313   3.398   1.332
 2069SOL     OW 1331   2.264   2.613   1.598
 2069SOL    HW1 1332   2.332   2.668   1.551
 2069SOL    HW2 1333   2.304   2.525   1.625
 2070SOL     OW 1334   3.449   2.641   1.670
 2070SOL    HW1 1335   3.357   2.679   1.665
 2070SOL    HW2 1336   3.509   2.688   1.605
 2071SOL     OW 1337   2.875   1.967   1.770
 2071SOL    HW1 1338   2.881   2.052   1.718
 2071SOL    HW2 1339   2.907   1.891   1.713
 2072SOL     OW 1340   2.366   1.912   1.740
 2072SOL    HW1 1341   2.324   1.855   1.670
 2072SOL    HW2 1342   2.300   1.981   1.772
 2073SOL     OW 1343   2.435   2.732   1.029
 2073SOL    HW1 1344   2.479   2.821   1.020
 2073SOL    HW2 1345   2.372   2.732   1.106
 2074SOL     OW 1346   3.222   2.724   1.045
 2074SOL    HW1 1347   3.147   2.724   0.979
 2074SOL    HW2 1348   3.259   2.632   1.054
 2076SOL     OW 1349   2.169   2.075   1.231
 2076SOL    HW1 1350   2.146   2.112   1.321
 2076SOL    HW2 1351   2.139   1.980   1.225
 2077SOL     OW 1352   1.899   3.172   1.282
 2077SOL    HW1 1353   1.952   3.123   1.350
 2077SOL    HW2 1354   1.921   3.270   1.287
 2078SOL     OW 1355   2.594   2.496   1.064
 2078SOL    HW1 1356   2.653   2.470   0.988
 2078SOL    HW2 1357   2.566   2.592   1.053
 2079SOL     OW 1358   3.590   2.797   1.854
 2079SOL    HW1 1359   3.544   2.790   1.765
 2079SOL    HW2 1360   3.528   2.841   1.920
 2082SOL     OW 1361   2.885   2.628   0.966
 2082SOL    HW1 1362   2.900   2.649   1.062
 2082SOL    HW2 1363   2.855   2.533   0.957
 2083SOL     OW 1364   2.842   3.435   1.700
 2083SOL    HW1 1365   2.822   3.479   1.612
 2083SOL    HW2 1366   2.881   3.344   1.684
 2085SOL     OW 1367   2.212   2.760   1.804
 2085SOL    HW1 1368   2.288   2.804   1.852
 2085SOL    HW2 1369   2.247   2.713   1.722
 2089SOL     OW 1370   2.181   2.672   0.949
 2089SOL    HW1 1371   2.274   2.708   0.954
 2089SOL    HW2 1372   2.175   2.587   1.001
 2090SOL     OW 1373   2.201   2.371   1.006
 2090SOL    HW1 1374   2.149   2.288   0.989
 2090SOL    HW2 1375   2.278   2.376   0.942
 2091SOL     OW 1376   3.000   2.242   1.678
 2091SOL    HW1 1377   2.955   2.305   1.742
 2091SOL    HW2 1378   3.093   2.273   1.661
 2092SOL     OW 1379   3.022   2.069   1.477
 2092SOL    HW1 1380   3.022   2.133   1.554
 2092SOL    HW2 1381   3.050   2.117   1.394
 2096SOL     OW 1382   2.864   2.658   1.238
 2096SOL    HW1 1383   2.905   2.626   1.324
 2096SOL    HW2 1384   2.768   2.631   1.235
 2097SOL     OW 1385   1.902   2.406   1.114
 2097SOL    HW1 1386   1.987   2.373   1.073
 2097SOL    HW2 1387   1.915   2.421   1.212
 2098SOL     OW 1388   2.051   2.382   1.722
 2098SOL    HW1 1389   2.110   2.342   1.652
 2098SOL    HW2 1390   1.993   2.453   1.681
 2099SOL     OW 1391   3.231   2.812   1.660
 2099SOL    HW1 1392   3.270   2.901   1.680
 2099SOL    HW2 1393   3.241   2.792   1.563
 2101SOL     OW 1394   3.519   2.466   1.206
 2101SOL    HW1 1395   3.481   2.397   1.268
 2101SOL    HW2 1396   3.601   2.430   1.162
 2102SOL     OW 1397   2.114   3.426   1.744
 2102SOL    HW1 1398   2.084   3.483   1.820
 2102SOL    HW2 1399   2.107   3.329   1.770
 2103SOL     OW 1400   2.533   2.326   1.269
 2103SOL    HW1 1401   2.499   2.237   1.239
 2103SOL    HW2 1402   2.559   2.380   1.189
 2104SOL     OW 1403   2.792   3.540   1.465
 2104SOL    HW1 1404   2.768   3.522   1.370
 2104SOL    HW2 1405   2.822   3.634   1.475
 2106SOL     OW 1406   2.021   2.999   1.466
 2106SOL    HW1 1407   2.043   2.938   1.542
 2106SOL    HW2 1408   2.031   2.950   1.380
 2107SOL     OW 1409   3.209   2.921   1.234
 2107SOL    HW1 1410   3.233   2.858   1.160
 2107SOL    HW2 1411   3.119   2.961   1.216
 2111SOL     OW 1412   1.945   3.120   1.022
 2111SOL    HW1 1413   1.940   3.119   1.122
 2111SOL    HW2 1414   1.862   3.079   0.984
 2112SOL     OW 1415   2.550   3.524   1.716
 2112SOL    HW1 1416   2.494   3.605   1.725
 2112SOL    HW2 1417   2.602   3.528   1.630
 2116SOL     OW 1418   1.992   3.656   1.851
 2116SOL    HW1 1419   1.951   3.582   1.904
 2116SOL    HW2 1420   2.056   3.707   1.909
 2118SOL     OW 1421   2.692   3.135   1.422
 2118SOL    HW1 1422   2.687   3.168   1.517
 2118SOL    HW2 1423   2.606   3.154   1.376
 2122SOL     OW 1424   2.125   2.188   0.720
 2122SOL    HW1 1425   2.046   2.239   0.686
 2122SOL    HW2 1426   2.116   2.173   0.818
 2124SOL     OW 1427   2.684   2.864   1.372
 2124SOL    HW1 1428   2.724   2.863   1.280
 2124SOL    HW2 1429   2.694   2.956   1.412
 2127SOL     OW 1430   2.234   3.150   1.490
 2127SOL    HW1 1431   2.221   3.243   1.456
 2127SOL    HW2 1432   2.150   3.098   1.477
 2128SOL     OW 1433   3.476   3.154   1.289
 2128SOL    HW1 1434   3.536   3.157   1.369
 2128SOL    HW2 1435   3.401   3.218   1.302
 2130SOL     OW 1436   2.876   2.098   0.971
 2130SOL    HW1 1437   2.868   2.062   0.878
 2130SOL    HW2 1438   2.874   2.022   1.036
 2132SOL     OW 1439   3.571   2.247   1.381
 2132SOL    HW1 1440   3.644   2.316   1.385
 2132SOL    HW2 1441   3.599   2.172   1.322
 2134SOL     OW 1442   1.967   2.875   1.726
 2134SOL    HW1 1443   1.890   2.842   1.780
 2134SOL    HW2 1444   2.052   2.845   1.768
 2135SOL     OW 1445   2.534   2.065   1.489
 2135SOL    HW1 1446   2.624   2.049   1.449
 2135SOL    HW2 1447   2.542   2.070   1.588
 2137SOL     OW 1448   3.302   2.718   1.398
 2137SOL    HW1 1449   3.245   2.770   1.335
 2137SOL    HW2 1450   3.398   2.730   1.374
 2140SOL     OW 1451   2.475   2.704   1.431
 2140SOL    HW1 1452   2.531   2.785   1.414
 2140SOL    HW2 1453   2.534   2.624   1.434
 2142SOL     OW 1454   2.578   2.427   1.708
 2142SOL    HW1 1455   2.597   2.492   1.782
 2142SOL    HW2 1456   2.638   2.347   1.717
 2143SOL     OW 1457   3.312   3.082   1.633
 2143SOL    HW1 1458   3.303   3.072   1.732
 2143SOL    HW2 1459   3.408   3.075   1.607
 2144SOL     OW 1460   2.252   3.603   1.560
 2144SOL    HW1 1461   2.161   3.644   1.558
 2144SOL    HW2 1462   2.245   3.509   1.592
 2145SOL     OW 1463   3.536   2.745   1.254
 2145SOL    HW1 1464   3.509   2.656   1.217
 2145SOL    HW2 1465   3.537   2.813   1.181
 2147SOL     OW 1466   2.456   2.607   0.652
 2147SOL    HW1 1467   2.506   2.692   0.633
 2147SOL    HW2 1468   2.368   2.609   0.604
 2148SOL     OW 1469   3.639   2.204   1.642
 2148SOL    HW1 1470   3.622   2.235   1.548
 2148SOL    HW2 1471   3.555   2.167   1.680
 2149SOL     OW 1472   3.592   2.796   1.517
 2149SOL    HW1 1473   3.630   2.887   1.532
 2149SOL    HW2 1474   3.584   2.779   1.418
 2152SOL     OW 1475   2.721   2.818   0.861
 2152SOL    HW1 1476   2.775   2.749   0.909
 2152SOL    HW2 1477   2.689   2.887   0.927
 2155SOL     OW 1478   2.083   3.176   1.844
 2155SOL    HW1 1479   2.018   3.103   1.823
 2155SOL    HW2 1480   2.087   3.190   1.942
 2157SOL     OW 1481   2.534   3.253   1.624
 2157SOL    HW1 1482   2.456   3.203   1.662
 2157SOL    HW2 1483   2.531   3.348   1.655
 2158SOL     OW 1484   3.686   2.054   1.227
 2158SOL    HW1 1485   3.682   1.964   1.271
 2158SOL    HW2 1486   3.689   2.043   1.128
 2161SOL     OW 1487   2.179   2.409   1.280
 2161SOL    HW1 1488   2.217   2.350   1.352
 2161SOL    HW2 1489   2.219   2.383   1.192
 2163SOL     OW 1490   3.286   2.076   1.112
 2163SOL    HW1 1491   3.338   2.011   1.167
 2163SOL    HW2 1492   3.237   2.139   1.173
 2164SOL     OW 1493   2.863   1.896   1.154
 2164SOL    HW1 1494   2.800   1.824   1.123
 2164SOL    HW2 1495   2.956   1.860   1.154
 2166SOL     OW 1496   2.480   3.429   1.284
 2166SOL    HW1 1497   2.475   3.511   1.341
 2166SOL    HW2 1498   2.569   3.426   1.239
 2172SOL     OW 1499   2.092   2.490   1.975
 2172SOL    HW1 1500   1.999   2.488   2.012
 2172SOL    HW2 1501   2.093   2.451   1.883
 2173SOL     OW 1502   2.087   2.137   2.858
 2173SOL    HW1 1503   2.122   2.120   2.950
 2173SOL    HW2 1504   1.999   2.092   2.846
 2174SOL     OW 1505   1.881   2.230   2.509
 2174SOL    HW1 1506   1.799   2.273   2.548
 2174SOL    HW2 1507   1.853   2.157   2.446
 2175SOL     OW 1508   2.431   3.137   3.027
 2175SOL    HW1 1509   2.338   3.130   2.990
 2175SOL    HW2 1510   2.442   3.226   3.071
 2176SOL     OW 1511   3.417   3.373   2.565
 2176SOL    HW1 1512   3.360   3.357   2.646
 2176SOL    HW2 1513   3.358   3.383   2.485
 2177SOL     OW 1514   2.997   2.565   2.579
 2177SOL    HW1 1515   3.054   2.643   2.554
 2177SOL    HW2 1516   2.937   2.591   2.655
 2178SOL     OW 1517   3.617   2.469   2.093
 2178SOL    HW1 1518   3.605   2.456   1.994
 2178SOL    HW2 1519   3.587   2.388   2.142
 2179SOL     OW 1520   2.630   3.006   2.885
 2179SOL    HW1 1521   2.552   3.023   2.945
 2179SOL    HW2 1522   2.664   3.093   2.849
 2180SOL     OW 1523   2.712   2.660   3.685
 2180SOL    HW1 1524   2.708   2.736   3.750
 2180SOL    HW2 1525   2.734   2.696   3.594
 2181SOL     OW 1526   2.547   2.874   2.527
 2181SOL    HW1 1527   2.616   2.858   2.597
 2181SOL    HW2 1528   2.474   2.931   2.565
 2182SOL     OW 1529   2.548   3.023   3.665
 2182SOL    HW1 1530   2.608   3.102   3.679
 2182SOL    HW2 1531   2.462   3.054   3.624
 2183SOL     OW 1532   2.197   3.297   2.923
 2183SOL    HW1 1533   2.119   3.266   2.870
 2183SOL    HW2 1534   2.255   3.355   2.866
 2184SOL     OW 1535   3.322   3.367   3.201
 2184SOL    HW1 1536   3.346   3.461   3.227
 2184SOL    HW2 1537   3.306   3.313   3.283
 2185SOL     OW 1538   2.300   2.254   3.361
 2185SOL    HW1 1539   2.382   2.198   3.370
 2185SOL    HW2 1540   2.219   2.196   3.365
 2186SOL     OW 1541   3.465   2.309   2.599
 2186SOL    HW1 1542   3.391   2.355   2.549
 2186SOL    HW2 1543   3.516   2.377   2.652
 2187SOL     OW 1544   2.093   3.575   2.345
 2187SOL    HW1 1545   2.127   3.652   2.399
 2187SOL    HW2 1546   2.137   3.575   2.255
 2188SOL     OW 1547   2.989   3.203   3.552
 2188SOL    HW1 1548   3.036   3.203   3.640
 2188SOL    HW2 1549   2.941   3.116   3.541
 2189SOL     OW 1550   2.092   3.296   2.400
 2189SOL    HW1 1551   2.066   3.392   2.400
 2189SOL    HW2 1552   2.021   3.242   2.445
 2190SOL     OW 1553   2.102   2.953   2.748
 2190SOL    HW1 1554   2.116   2.869   2.800
 2190SOL    HW2 1555   2.047   3.017   2.803
 2191SOL     OW 1556   2.482   3.648   3.301
 2191SOL    HW1 1557   2.390   3.631   3.336
 2191SOL    HW2 1558   2.510   3.740   3.327
 2192SOL     OW 1559   2.468   2.826   1.985
 2192SOL    HW1 1560   2.475   2.910   1.931
 2192SOL    HW2 1561   2.514   2.839   2.073
 2193SOL     OW 1562   3.456   1.976   3.342
 2193SOL    HW1 1563   3.438   2.043   3.270
 2193SOL    HW2 1564   3.453   2.022   3.431
 2194SOL     OW 1565   1.984   2.505   2.425
 2194SOL    HW1 1566   1.939   2.417   2.442
 2194SOL    HW2 1567   1.983   2.559   2.509
 2196SOL     OW 1568   1.889   3.458   1.979
 2196SOL    HW1 1569   1.870   3.362   2.000
 2196SOL    HW2 1570   1.856   3.516   2.054
 2197SOL     OW 1571   3.551   2.784   2.474
 2197SOL    HW1 1572   3.646   2.755   2.482
 2197SOL    HW2 1573   3.543   2.849   2.399
 2198SOL     OW 1574   3.503   2.970   2.294
 2198SOL    HW1 1575   3.589   2.972   2.242
 2198SOL    HW2 1576   3.517   3.017   2.382
 2199SOL     OW 1577   1.975   2.599   3.459
 2199SOL    HW1 1578   2.063   2.586   3.504
 2199SOL    HW2 1579   1.962   2.696   3.437
 2200SOL     OW 1580   2.475   3.227   2.588
 2200SOL    HW1 1581   2.426   3.140   2.597
 2200SOL    HW2 1582   2.452   3.270   2.501
 2201SOL     OW 1583   3.155   3.090   3.285
 2201SOL    HW1 1584   3.192   3.017   3.227
 2201SOL    HW2 1585   3.207   3.095   3.370
 2202SOL     OW 1586   2.671   1.866   2.364
 2202SOL    HW1 1587   2.711   1.957   2.355
 2202SOL    HW2 1588   2.571   1.874   2.370
 2203SOL     OW 1589   2.059   2.838   3.126
 2203SOL    HW1 1590   2.148   2.793   3.112
 2203SOL    HW2 1591   1.986   2.773   3.107
 2204SOL     OW 1592   3.387   2.861   2.052
 2204SOL    HW1 1593   3.324   2.785   2.065
 2204SOL    HW2 1594   3.435   2.879   2.138
 2205SOL     OW 1595   3.049   3.654   3.478
 2205SOL    HW1 1596   3.073   3.714   3.402
 2205SOL    HW2 1597   3.056   3.559   3.448
 2206SOL     OW 1598   2.179   2.113   3.663
 2206SOL    HW1 1599   2.250   2.184   3.669
 2206SOL    HW2 1600   2.091   2.152   3.691
 2207SOL     OW 1601   3.328   3.279   2.815
 2207SOL    HW1 1602   3.269   3.285   2.895
 2207SOL    HW2 1603   3.313   3.191   2.769
 2208SOL     OW 1604   3.529   3.576   2.434
 2208SOL    HW1 1605   3.488   3.553   2.346
 2208SOL    HW2 1606   3.511   3.502   2.499
 2209SOL     OW 1607   3.143   2.207   2.806
 2209SOL    HW1 1608   3.057   2.157   2.793
 2209SOL    HW2 1609   3.205   2.153   2.862
 2210SOL     OW 1610   3.438   3.524   2.169
 2210SOL    HW1 1611   3.527   3.570   2.172
 2210SOL    HW2 1612   3.417   3.500   2.074
 2211SOL     OW 1613   2.669   2.467   3.327
 2211SOL    HW1 1614   2.622   2.464   3.416
 2211SOL    HW2 1615   2.618   2.412   3.261
 2212SOL     OW 1616   3.256   2.331   3.536
 2212SOL    HW1 1617   3.236   2.374   3.624
 2212SOL    HW2 1618   3.334   2.269   3.545
 2213SOL     OW 1619   2.835   2.752   3.434
 2213SOL    HW1 1620   2.881   2.668   3.405
 2213SOL    HW2 1621   2.779   2.786   3.359
 2214SOL     OW 1622   2.853   2.272   3.104
 2214SOL    HW1 1623   2.776   2.306   3.158
 2214SOL    HW2 1624   2.819   2.221   3.025
 2215SOL     OW 1625   2.903   2.563   2.291
 2215SOL    HW1 1626   2.929   2.559   2.387
 2215SOL    HW2 1627   2.818   2.512   2.277
 2216SOL     OW 1628   1.938   2.673   2.651
 2216SOL    HW1 1629   2.037   2.661   2.660
 2216SOL    HW2 1630   1.914   2.768   2.672
 2217SOL     OW 1631   1.992   3.683   3.433
 2217SOL    HW1 1632   1.982   3.668   3.532
 2217SOL    HW2 1633   1.906   3.719   3.397
 2218SOL     OW 1634   2.727   2.210   2.057
 2218SOL    HW1 1635   2.786   2.273   2.008
 2218SOL    HW2 1636   2.746   2.116   2.028
 2219SOL     OW 1637   3.581   2.447   3.693
 2219SOL    HW1 1638   3.555   2.536   3.657
 2219SOL    HW2 1639   3.579   2.379   3.620
 2220SOL     OW 1640   3.224   3.006   2.407
 2220SOL    HW1 1641   3.307   2.977   2.359
 2220SOL    HW2 1642   3.175   3.073   2.351
 2221SOL     OW 1643   2.412   2.058   2.747
 2221SOL    HW1 1644   2.407   2.053   2.847
 2221SOL    HW2 1645   2.414   2.154   2.718
 2222SOL     OW 1646   2.870   3.318   2.339
 2222SOL    HW1 1647   2.824   3.390   2.287
 2222SOL    HW2 1648   2.866   3.338   2.437
 2223SOL     OW 1649   2.213   3.663   2.715
 2223SOL    HW1 1650   2.263   3.577   2.721
 2223SOL    HW2 1651   2.278   3.740   2.712
 2224SOL     OW 1652   3.657   2.928   2.735
 2224SOL    HW1 1653   3.595   2.913   2.659
 2224SOL    HW2 1654   3.605   2.939   2.820
 2225SOL     OW 1655   3.089   3.412   3.368
 2225SOL    HW1 1656   3.095   3.335   3.432
 2225SOL    HW2 1657   3.037   3.386   3.288
 2226SOL     OW 1658   2.183   2.805   2.104
 2226SOL    HW1 1659   2.265   2.844   2.062
 2226SOL    HW2 1660   2.156   2.723   2.055
 2227SOL     OW 1661   3.320   2.597   2.590
 2227SOL    HW1 1662   3.315   2.532   2.665
 2227SOL    HW2 1663   3.400   2.656   2.603
 2228SOL     OW 1664   2.323   3.128   3.589
 2228SOL    HW1 1665   2.273   3.129   3.503
 2228SOL    HW2 1666   2.260   3.110   3.665
 2229SOL     OW 1667   2.973   3.638   2.099
 2229SOL    HW1 1668   2.913   3.576   2.149
 2229SOL    HW2 1669   3.004   3.594   2.014
 2230SOL     OW 1670   2.064   2.147   3.360
 2230SOL    HW1 1671   1.984   2.207   3.347
 2230SOL    HW2 1672   2.054   2.098   3.446
 2231SOL     OW 1673   3.494   3.239   1.943
 2231SOL    HW1 1674   3.462   3.333   1.933
 2231SOL    HW2 1675   3.418   3.176   1.931
 2232SOL     OW 1676   2.326   3.605   2.185
 2232SOL    HW1 1677   2.359   3.644   2.271
 2232SOL    HW2 1678   2.402   3.598   2.120
 2233SOL     OW 1679   3.262   1.969   2.288
 2233SOL    HW1 1680   3.238   1.932   2.198
 2233SOL    HW2 1681   3.361   1.985   2.292
 2234SOL     OW 1682   2.111   3.647   3.103
 2234SOL    HW1 1683   2.168   3.582   3.153
 2234SOL    HW2 1684   2.095   3.614   3.010
 2235SOL     OW 1685   2.802   3.560   2.766
 2235SOL    HW1 1686   2.882   3.503   2.787
 2235SOL    HW2 1687   2.753   3.520   2.689
 2236SOL     OW 1688   3.409   2.084   3.591
 2236SOL    HW1 1689   3.404   2.121   3.683
 2236SOL    HW2 1690   3.337   2.015   3.579
 2237SOL     OW 1691   2.476   1.984   1.979
 2237SOL    HW1 1692   2.574   1.962   1.986
 2237SOL    HW2 1693   2.445   1.967   1.886
 2238SOL     OW 1694   2.643   2.126   3.611
 2238SOL    HW1 1695   2.710   2.065   3.654
 2238SOL    HW2 1696   2.570   2.145   3.676
 2239SOL     OW 1697   2.750   3.376   3.057
 2239SOL    HW1 1698   2.727   3.351   2.963
 2239SOL    HW2 1699   2.811   3.307   3.096
 2240SOL     OW 1700   3.213   2.452   3.295
 2240SOL    HW1 1701   3.241   2.409   3.380
 2240SOL    HW2 1702   3.238   2.548   3.296
 2241SOL     OW 1703   2.665   3.264   2.786
 2241SOL    HW1 1704   2.755   3.278   2.744
 2241SOL    HW2 1705   2.594   3.266   2.715
 2242SOL     OW 1706   2.784   2.365   2.761
 2242SOL    HW1 1707   2.759   2.356   2.665
 2242SOL    HW2 1708   2.832   2.283   2.792
 2243SOL     OW 1709   2.401   1.926   2.374
 2243SOL    HW1 1710   2.320   1.927   2.432
 2243SOL    HW2 1711   2.404   2.009   2.319
 2244SOL     OW 1712   3.296   3.050   1.903
 2244SOL    HW1 1713   3.328   2.974   1.960
 2244SOL    HW2 1714   3.204   3.077   1.933
 2245SOL     OW 1715   2.159   1.897   2.033
 2245SOL    HW1 1716   2.208   1.981   2.012
 2245SOL    HW2 1717   2.221   1.832   2.078
 2246SOL     OW 1718   2.797   2.098   2.342
 2246SOL    HW1 1719   2.749   2.139   2.264
 2246SOL    HW2 1720   2.896   2.096   2.323
 2247SOL     OW 1721   2.938   2.545   3.326
 2247SOL    HW1 1722   2.858   2.484   3.329
 2247SOL    HW2 1723   3.019   2.492   3.302
 2248SOL     OW 1724   3.089   3.432   2.655
 2248SOL    HW1 1725   3.110   3.506   2.590
 2248SOL    HW2 1726   3.157   3.432   2.728
 2249SOL     OW 1727   2.321   3.014   2.603
 2249SOL    HW1 1728   2.250   2.987   2.668
 2249SOL    HW2 1729   2.295   2.986   2.510
 2250SOL     OW 1730   3.133   3.659   2.453
 2250SOL    HW1 1731   3.177   3.723   2.389
 2250SOL    HW2 1732   3.083   3.711   2.523
 2251SOL     OW 1733   2.894   2.411   1.878
 2251SOL    HW1 1734   2.853   2.493   1.839
 2251SOL    HW2 1735   2.958   2.437   1.951
 2252SOL     OW 1736   1.940   2.418   3.248
 2252SOL    HW1 1737   2.032   2.417   3.207
 2252SOL    HW2 1738   1.934   2.492   3.315
 2253SOL     OW 1739   2.423   2.084   3.009
 2253SOL    HW1 1740   2.461   2.000   3.046
 2253SOL    HW2 1741   2.335   2.103   3.053
 2254SOL     OW 1742   2.728   2.316   2.504
 2254SOL    HW1 1743   2.696   2.388   2.442
 2254SOL    HW2 1744   2.752   2.235   2.451
 2255SOL     OW 1745   2.879   1.901   2.615
 2255SOL    HW1 1746   2.807   1.906   2.546
 2255SOL    HW2 1747   2.855   1.832   2.684
 2256SOL     OW 1748   3.291   3.035   2.729
 2256SOL    HW1 1749   3.236   2.951   2.722
 2256SOL    HW2 1750   3.317   3.064   2.637
 2257SOL     OW 1751   3.328   2.452   2.854
 2257SOL    HW1 1752   3.298   2.357   2.861
 2257SOL    HW2 1753   3.401   2.468   2.920
 2258SOL     OW 1754   3.719   2.695   2.239
 2258SOL    HW1 1755   3.761   2.631   2.303
 2258SOL    HW2 1756   3.681   2.644   2.161
 2259SOL     OW 1757   2.350   3.247   2.036
 2259SOL    HW1 1758   2.263   3.232   2.083
 2259SOL    HW2 1759   2.333   3.273   1.941
 2260SOL     OW 1760   3.526   3.142   2.519
 2260SOL    HW1 1761   3.625   3.150   2.533
 2260SOL    HW2 1762   3.481   3.226   2.550
 2261SOL     OW 1763   3.252   2.437   1.940
 2261SOL    HW1 1764   3.198   2.416   2.021
 2261SOL    HW2 1765   3.343   2.396   1.949
 2262SOL     OW 1766   2.389   2.118   2.190
 2262SOL    HW1 1767   2.416   2.059   2.115
 2262SOL    HW2 1768   2.389   2.213   2.159
 2263SOL     OW 1769   3.616   3.085   3.450
 2263SOL    HW1 1770   3.707   3.046   3.437
 2263SOL    HW2 1771   3.624   3.181   3.474
 2264SOL     OW 1772   2.926   3.209   3.202
 2264SOL    HW1 1773   2.846   3.186   3.257
 2264SOL    HW2 1774   3.009   3.183   3.251
 2266SOL     OW 1775   2.973   3.057   2.962
 2266SOL    HW1 1776   2.933   3.101   3.043
 2266SOL    HW2 1777   2.932   3.094   2.879
 2267SOL     OW 1778   3.500   2.961   2.941
 2267SOL    HW1 1779   3.505   3.042   3.000
 2267SOL    HW2 1780   3.414   2.963   2.890
 2268SOL     OW 1781   2.777   1.951   3.264
 2268SOL    HW1 1782   2.802   1.931   3.169
 2268SOL    HW2 1783   2.849   2.007   3.306
 2269SOL     OW 1784   2.842   2.978   3.581
 2269SOL    HW1 1785   2.743   2.984   3.591
 2269SOL    HW2 1786   2.865   2.898   3.525
 2270SOL     OW 1787   2.567   2.912   2.230
 2270SOL    HW1 1788   2.553   2.919   2.329
 2270SOL    HW2 1789   2.651   2.861   2.212
 2271SOL     OW 1790   2.272   2.675   3.113
 2271SOL    HW1 1791   2.358   2.687   3.163
 2271SOL    HW2 1792   2.230   2.588   3.140
 2272SOL     OW 1793   3.136   2.248   3.124
 2272SOL    HW1 1794   3.157   2.322   3.188
 2272SOL    HW2 1795   3.047   2.265   3.081
 2273SOL     OW 1796   1.926   3.426   3.193
 2273SOL    HW1 1797   1.880   3.508   3.159
 2273SOL    HW2 1798   2.024   3.445   3.202
 2274SOL     OW 1799   2.229   2.962   2.363
 2274SOL    HW1 1800   2.222   3.045   2.307
 2274SOL    HW2 1801   2.233   2.882   2.303
 2275SOL     OW 1802   2.428   2.399   2.727
 2275SOL    HW1 1803   2.440   2.465   2.653
 2275SOL    HW2 1804   2.474   2.433   2.810
 2276SOL     OW 1805   3.114   3.210   2.250
 2276SOL    HW1 1806   3.164   3.287   2.290
 2276SOL    HW2 1807   3.019   3.212   2.282
 2277SOL     OW 1808   3.134   3.307   3.004
 2277SOL    HW1 1809   3.181   3.320   3.091
 2277SOL    HW2 1810   3.068   3.233   3.013
 2278SOL     OW 1811   3.444   2.501   2.334
 2278SOL    HW1 1812   3.413   2.562   2.407
 2278SOL    HW2 1813   3.494   2.553   2.265
 2279SOL     OW 1814   2.216   3.372   3.191
 2279SOL    HW1 1815   2.195   3.328   3.104
 2279SOL    HW2 1816   2.313   3.398   3.194
 2280SOL     OW 1817   2.264   2.613   3.460
 2280SOL    HW1 1818   2.332   2.668   3.413
 2280SOL    HW2 1819   2.304   2.525   3.487
 2281SOL     OW 1820   3.449   2.641   3.532
 2281SOL    HW1 1821   3.357   2.679   3.527
 2281SOL    HW2 1822   3.509   2.688   3.467
 2282SOL     OW 1823   2.875   1.967   3.632
 2282SOL    HW1 1824   2.881   2.052   3.580
 2282SOL    HW2 1825   2.907   1.891   3.575
 2283SOL     OW 1826   2.366   1.912   3.602
 2283SOL    HW1 1827   2.324   1.855   3.532
 2283SOL    HW2 1828   2.300   1.981   3.634
 2284SOL     OW 1829   2.435   2.732   2.891
 2284SOL    HW1 1830   2.479   2.821   2.882
 2284SOL    HW2 1831   2.372   2.732   2.968
 2285SOL     OW 1832   3.222   2.724   2.907
 2285SOL    HW1 1833   3.147   2.724   2.841
 2285SOL    HW2 1834   3.259   2.632   2.916
 2286SOL     OW 1835   3.071   2.387   2.137
 2286SOL    HW1 1836   3.084   2.303   2.191
 2286SOL    HW2 1837   3.042   2.461   2.197
 2287SOL     OW 1838   2.169   2.075   3.093
 2287SOL    HW1 1839   2.146   2.112   3.183
 2287SOL    HW2 1840   2.139   1.980   3.087
 2288SOL     OW 1841   1.899   3.172   3.144
 2288SOL    HW1 1842   1.952   3.123   3.212
 2288SOL    HW2 1843   1.921   3.270   3.149
 2289SOL     OW 1844   2.594   2.496   2.926
 2289SOL    HW1 1845   2.653   2.470   2.850
 2289SOL    HW2 1846   2.566   2.592   2.915
 2291SOL     OW 1847   2.169   1.925   2.480
 2291SOL    HW1 1848   2.158   2.019   2.513
 2291SOL    HW2 1849   2.164   1.862   2.557
 2292SOL     OW 1850   3.484   2.229   2.236
 2292SOL    HW1 1851   3.486   2.153   2.300
 2292SOL    HW2 1852   3.436   2.306   2.276
 2293SOL     OW 1853   2.885   2.628   2.828
 2293SOL    HW1 1854   2.900   2.649   2.924
 2293SOL    HW2 1855   2.855   2.533   2.819
 2294SOL     OW 1856   2.842   3.435   3.562
 2294SOL    HW1 1857   2.822   3.479   3.474
 2294SOL    HW2 1858   2.881   3.344   3.546
 2296SOL     OW 1859   2.212   2.760   3.666
 2296SOL    HW1 1860   2.288   2.804   3.714
 2296SOL    HW2 1861   2.247   2.713   3.584
 2297SOL     OW 1862   3.402   2.136   1.987
 2297SOL    HW1 1863   3.341   2.061   2.010
 2297SOL    HW2 1864   3.424   2.188   2.070
 2298SOL     OW 1865   3.165   2.700   1.904
 2298SOL    HW1 1866   3.199   2.607   1.919
 2298SOL    HW2 1867   3.183   2.727   1.809
 2299SOL     OW 1868   2.930   3.195   2.711
 2299SOL    HW1 1869   2.937   3.111   2.656
 2299SOL    HW2 1870   2.992   3.264   2.675
 2300SOL     OW 1871   2.181   2.672   2.811
 2300SOL    HW1 1872   2.274   2.708   2.816
 2300SOL    HW2 1873   2.175   2.587   2.863
 2301SOL     OW 1874   2.201   2.371   2.868
 2301SOL    HW1 1875   2.149   2.288   2.851
 2301SOL    HW2 1876   2.278   2.376   2.804
 2302SOL     OW 1877   3.000   2.242   3.540
 2302SOL    HW1 1878   2.955   2.305   3.604
 2302SOL    HW2 1879   3.093   2.273   3.523
 2303SOL     OW 1880   3.022   2.069   3.339
 2303SOL    HW1 1881   3.022   2.133   3.416
 2303SOL    HW2 1882   3.050   2.117   3.256
 2304SOL     OW 1883   1.870   3.188   2.062
 2304SOL    HW1 1884   1.777   3.209   2.031
 2304SOL    HW2 1885   1.880   3.089   2.075
 2305SOL     OW 1886   1.950   3.663   2.789
 2305SOL    HW1 1887   1.908   3.577   2.762
 2305SOL    HW2 1888   2.044   3.666   2.755
 2306SOL     OW 1889   2.366   3.430   2.772
 2306SOL    HW1 1890   2.432   3.504   2.781
 2306SOL    HW2 1891   2.410   3.351   2.730
 2307SOL     OW 1892   2.864   2.658   3.100
 2307SOL    HW1 1893   2.905   2.626   3.186
 2307SOL    HW2 1894   2.768   2.631   3.097
 2308SOL     OW 1895   1.902   2.406   2.976
 2308SOL    HW1 1896   1.987   2.373   2.935
 2308SOL    HW2 1897   1.915   2.421   3.074
 2309SOL     OW 1898   2.051   2.382   3.584
 2309SOL    HW1 1899   2.110   2.342   3.514
 2309SOL    HW2 1900   1.993   2.453   3.543
 2310SOL     OW 1901   3.231   2.812   3.522
 2310SOL    HW1 1902   3.270   2.901   3.542
 2310SOL    HW2 1903   3.241   2.792   3.425
 2311SOL     OW 1904   2.677   2.434   2.187
 2311SOL    HW1 1905   2.684   2.345   2.141
 2311SOL    HW2 1906   2.583   2.468   2.179
 2312SOL     OW 1907   3.519   2.466   3.068
 2312SOL    HW1 1908   3.481   2.397   3.130
 2312SOL    HW2 1909   3.601   2.430   3.024
 2313SOL     OW 1910   2.114   3.426   3.606
 2313SOL    HW1 1911   2.084   3.483   3.682
 2313SOL    HW2 1912   2.107   3.329   3.632
 2314SOL     OW 1913   2.533   2.326   3.131
 2314SOL    HW1 1914   2.499   2.237   3.101
 2314SOL    HW2 1915   2.559   2.380   3.051
 2315SOL     OW 1916   2.792   3.540   3.327
 2315SOL    HW1 1917   2.768   3.522   3.232
 2315SOL    HW2 1918   2.822   3.634   3.337
 2316SOL     OW 1919   2.335   2.362   2.053
 2316SOL    HW1 1920   2.396   2.442   2.057
 2316SOL    HW2 1921   2.240   2.393   2.060
 2317SOL     OW 1922   2.021   2.999   3.328
 2317SOL    HW1 1923   2.043   2.938   3.404
 2317SOL    HW2 1924   2.031   2.950   3.242
 2318SOL     OW 1925   3.209   2.921   3.096
 2318SOL    HW1 1926   3.233   2.858   3.022
 2318SOL    HW2 1927   3.119   2.961   3.078
 2319SOL     OW 1928   3.164   2.717   2.171
 2319SOL    HW1 1929   3.078   2.686   2.213
 2319SOL    HW2 1930   3.160   2.703   2.072
 2321SOL     OW 1931   3.114   3.593   2.990
 2321SOL    HW1 1932   3.198   3.598   2.936
 2321SOL    HW2 1933   3.091   3.497   3.008
 2322SOL     OW 1934   1.945   3.120   2.884
 2322SOL    HW1 1935   1.940   3.119   2.984
 2322SOL    HW2 1936   1.862   3.079   2.846
 2323SOL     OW 1937   2.550   3.524   3.578
 2323SOL    HW1 1938   2.494   3.605   3.587
 2323SOL    HW2 1939   2.602   3.528   3.492
 2324SOL     OW 1940   3.588   1.997   2.385
 2324SOL    HW1 1941   3.661   1.980   2.318
 2324SOL    HW2 1942   3.557   1.910   2.423
 2325SOL     OW 1943   3.250   3.435   2.339
 2325SOL    HW1 1944   3.317   3.447   2.265
 2325SOL    HW2 1945   3.210   3.524   2.362
 2327SOL     OW 1946   3.142   2.789   2.534
 2327SOL    HW1 1947   3.202   2.708   2.536
 2327SOL    HW2 1948   3.182   2.858   2.474
 2328SOL     OW 1949   2.692   3.135   3.284
 2328SOL    HW1 1950   2.687   3.168   3.379
 2328SOL    HW2 1951   2.606   3.154   3.238
 2329SOL     OW 1952   2.534   3.478   2.016
 2329SOL    HW1 1953   2.543   3.488   1.917
 2329SOL    HW2 1954   2.494   3.389   2.037
 2331SOL     OW 1955   3.703   2.037   2.825
 2331SOL    HW1 1956   3.742   1.952   2.789
 2331SOL    HW2 1957   3.605   2.039   2.806
 2332SOL     OW 1958   3.056   3.474   1.893
 2332SOL    HW1 1959   3.062   3.381   1.930
 2332SOL    HW2 1960   2.997   3.474   1.813
 2333SOL     OW 1961   2.684   2.864   3.234
 2333SOL    HW1 1962   2.724   2.863   3.142
 2333SOL    HW2 1963   2.694   2.956   3.274
 2334SOL     OW 1964   3.366   3.469   1.906
 2334SOL    HW1 1965   3.274   3.506   1.913
 2334SOL    HW2 1966   3.404   3.489   1.816
 2335SOL     OW 1967   2.234   3.150   3.352
 2335SOL    HW1 1968   2.221   3.243   3.318
 2335SOL    HW2 1969   2.150   3.098   3.339
 2336SOL     OW 1970   3.476   3.154   3.151
 2336SOL    HW1 1971   3.536   3.157   3.231
 2336SOL    HW2 1972   3.401   3.218   3.164
 2337SOL     OW 1973   2.901   2.960   2.558
 2337SOL    HW1 1974   2.831   2.913   2.612
 2337SOL    HW2 1975   2.960   2.892   2.515
 2338SOL     OW 1976   2.876   2.098   2.833
 2338SOL    HW1 1977   2.868   2.062   2.740
 2338SOL    HW2 1978   2.874   2.022   2.898
 2339SOL     OW 1979   2.452   3.349   2.353
 2339SOL    HW1 1980   2.494   3.291   2.283
 2339SOL    HW2 1981   2.408   3.428   2.309
 2340SOL     OW 1982   3.571   2.247   3.243
 2340SOL    HW1 1983   3.644   2.316   3.247
 2340SOL    HW2 1984   3.599   2.172   3.184
 2341SOL     OW 1985   2.117   3.210   2.152
 2341SOL    HW1 1986   2.021   3.211   2.125
 2341SOL    HW2 1987   2.129   3.263   2.236
 2342SOL     OW 1988   1.967   2.875   3.588
 2342SOL    HW1 1989   1.890   2.842   3.642
 2342SOL    HW2 1990   2.052   2.845   3.630
 2343SOL     OW 1991   2.534   2.065   3.351
 2343SOL    HW1 1992   2.624   2.049   3.311
 2343SOL    HW2 1993   2.542   2.070   3.450
 2344SOL     OW 1994   1.937   2.207   1.895
 2344SOL    HW1 1995   1.845   2.179   1.866
 2344SOL    HW2 1996   1.968   2.284   1.839
 2345SOL     OW 1997   3.302   2.718   3.260
 2345SOL    HW1 1998   3.245   2.770   3.197
 2345SOL    HW2 1999   3.398   2.730   3.236
 2346SOL     OW 2000   1.934   2.028   2.180
 2346SOL    HW1 2001   1.917   2.111   2.126
 2346SOL    HW2 2002   2.024   1.991   2.158
 2347SOL     OW 2003   3.045   3.197   1.981
 2347SOL    HW1 2004   2.946   3.186   1.983
 2347SOL    HW2 2005   3.079   3.212   2.074
 2348SOL     OW 2006   2.475   2.704   3.293
 2348SOL    HW1 2007   2.531   2.785   3.276
 2348SOL    HW2 2008   2.534   2.624   3.296
 2349SOL     OW 2009   3.355   3.629   2.821
 2349SOL    HW1 2010   3.388   3.693   2.752
 2349SOL    HW2 2011   3.421   3.623   2.896
 2350SOL     OW 2012   2.578   2.427   3.570
 2350SOL    HW1 2013   2.597   2.492   3.644
 2350SOL    HW2 2014   2.638   2.347   3.579
 2351SOL     OW 2015   3.312   3.082   3.495
 2351SOL    HW1 2016   3.303   3.072   3.594
 2351SOL    HW2 2017   3.408   3.075   3.469
 2352SOL     OW 2018   2.252   3.603   3.422
 2352SOL    HW1 2019   2.161   3.644   3.420
 2352SOL    HW2 2020   2.245   3.509   3.454
 2353SOL     OW 2021   3.536   2.745   3.116
 2353SOL    HW1 2022   3.509   2.656   3.079
 2353SOL    HW2 2023   3.537   2.813   3.043
 2354SOL     OW 2024   3.087   2.187   2.311
 2354SOL    HW1 2025   3.152   2.113   2.300
 2354SOL    HW2 2026   3.107   2.237   2.395
 2355SOL     OW 2027   3.639   2.204   3.504
 2355SOL    HW1 2028   3.622   2.235   3.410
 2355SOL    HW2 2029   3.555   2.167   3.542
 2356SOL     OW 2030   3.592   2.796   3.379
 2356SOL    HW1 2031   3.630   2.887   3.394
 2356SOL    HW2 2032   3.584   2.779   3.280
 2357SOL     OW 2033   2.721   3.236   1.878
 2357SOL    HW1 2034   2.675   3.251   1.966
 2357SOL    HW2 2035   2.765   3.321   1.848
 2358SOL     OW 2036   2.523   3.652   2.815
 2358SOL    HW1 2037   2.477   3.740   2.802
 2358SOL    HW2 2038   2.622   3.664   2.808
 2359SOL     OW 2039   2.721   2.818   2.723
 2359SOL    HW1 2040   2.775   2.749   2.771
 2359SOL    HW2 2041   2.689   2.887   2.789
 2360SOL     OW 2042   2.945   2.846   1.949
 2360SOL    HW1 2043   2.922   2.899   1.867
 2360SOL    HW2 2044   3.026   2.790   1.930
 2361SOL     OW 2045   3.723   3.431   2.713
 2361SOL    HW1 2046   3.652   3.419   2.643
 2361SOL    HW2 2047   3.724   3.352   2.773
 2362SOL     OW 2048   2.083   3.176   3.706
 2362SOL    HW1 2049   2.018   3.103   3.685
 2362SOL    HW2 2050   2.087   3.190   3.804
 2363SOL     OW 2051   1.941   3.102   2.515
 2363SOL    HW1 2052   1.940   3.055   2.603
 2363SOL    HW2 2053   2.023   3.074   2.464
 2364SOL     OW 2054   2.534   3.253   3.486
 2364SOL    HW1 2055   2.456   3.203   3.524
 2364SOL    HW2 2056   2.531   3.348   3.517
 2365SOL     OW 2057   3.686   2.054   3.089
 2365SOL    HW1 2058   3.682   1.964   3.133
 2365SOL    HW2 2059   3.689   2.043   2.990
 2366SOL     OW 2060   3.567   3.349   2.966
 2366SOL    HW1 2061   3.474   3.324   2.939
 2366SOL    HW2 2062   3.593   3.299   3.048
 2367SOL     OW 2063   2.179   2.409   3.142
 2367SOL    HW1 2064   2.217   2.350   3.214
 2367SOL    HW2 2065   2.219   2.383   3.054
 2368SOL     OW 2066   2.674   3.448   2.549
 2368SOL    HW1 2067   2.706   3.458   2.455
 2368SOL    HW2 2068   2.595   3.386   2.551
 2369SOL     OW 2069   3.286   2.076   2.974
 2369SOL    HW1 2070   3.338   2.011   3.029
 2369SOL    HW2 2071   3.237   2.139   3.035
 2370SOL     OW 2072   2.863   1.896   3.016
 2370SOL    HW1 2073   2.800   1.824   2.985
 2370SOL    HW2 2074   2.956   1.860   3.016
 2371SOL     OW 2075   2.632   3.192   2.163
 2371SOL    HW1 2076   2.586   3.105   2.180
 2371SOL    HW2 2077   2.723   3.189   2.204
 2372SOL     OW 2078   2.480   3.429   3.146
 2372SOL    HW1 2079   2.475   3.511   3.203
 2372SOL    HW2 2080   2.569   3.426   3.101
 2373SOL     OW 2081   3.214   1.914   2.030
 2373SOL    HW1 2082   3.249   1.873   1.946
 2373SOL    HW2 2083   3.124   1.876   2.050
 2374SOL     OW 2084   3.162   2.315   2.553
 2374SOL    HW1 2085   3.103   2.395   2.557
 2374SOL    HW2 2086   3.177   2.280   2.646
 2375SOL     OW 2087   3.455   2.083   2.744
 2375SOL    HW1 2088   3.371   2.082   2.798
 2375SOL    HW2 2089   3.457   2.166   2.688
 2376SOL     OW 2090   1.901   2.939   2.162
 2376SOL    HW1 2091   2.000   2.928   2.153
 2376SOL    HW2 2092   1.861   2.853   2.194
 2377SOL     OW 2093   2.737   3.508   2.199
 2377SOL    HW1 2094   2.660   3.473   2.145
 2377SOL    HW2 2095   2.705   3.579   2.261
 2378SOL     OW 2096   2.092   2.490   3.837
 2378SOL    HW1 2097   1.999   2.488   3.874
 2378SOL    HW2 2098   2.093   2.451   3.745
 2391SOL     OW 2099   2.468   2.826   3.847
 2391SOL    HW1 2100   2.475   2.910   3.793
 2391SOL    HW2 2101   2.514   2.839   3.935
 2402SOL     OW 2102   2.460   2.591   3.994
 2402SOL    HW1 2103   2.484   2.660   3.926
 2402SOL    HW2 2104   2.382   2.624   4.048
 2407SOL     OW 2105   2.727   2.210   3.919
 2407SOL    HW1 2106   2.786   2.273   3.870
 2407SOL    HW2 2107   2.746   2.116   3.890
 2413SOL     OW 2108   2.183   2.805   3.966
 2413SOL    HW1 2109   2.265   2.844   3.924
 2413SOL    HW2 2110   2.156   2.723   3.917
 2422SOL     OW 2111   2.476   1.984   3.841
 2422SOL    HW1 2112   2.574   1.962   3.848
 2422SOL    HW2 2113   2.445   1.967   3.748
 2426SOL     OW 2114   3.296   3.050   3.765
 2426SOL    HW1 2115   3.328   2.974   3.822
 2426SOL    HW2 2116   3.204   3.077   3.795
 2427SOL     OW 2117   2.159   1.897   3.895
 2427SOL    HW1 2118   2.208   1.981   3.874
 2427SOL    HW2 2119   2.221   1.832   3.940
 2432SOL     OW 2120   2.894   2.411   3.740
 2432SOL    HW1 2121   2.853   2.493   3.701
 2432SOL    HW2 2122   2.958   2.437   3.813
 2438SOL     OW 2123   2.350   3.247   3.898
 2438SOL    HW1 2124   2.263   3.232   3.945
 2438SOL    HW2 2125   2.333   3.273   3.803
 2440SOL     OW 2126   3.252   2.437   3.802
 2440SOL    HW1 2127   3.198   2.416   3.883
 2440SOL    HW2 2128   3.343   2.396   3.811
 2441SOL     OW 2129   2.389   2.118   4.052
 2441SOL    HW1 2130   2.416   2.059   3.977
 2441SOL    HW2 2131   2.389   2.213   4.021
 2443SOL     OW 2132   2.567   2.912   4.092
 2443SOL    HW1 2133   2.553   2.919   4.191
 2443SOL    HW2 2134   2.651   2.861   4.074
 2449SOL     OW 2135   3.071   2.387   3.999
 2449SOL    HW1 2136   3.084   2.303   4.053
 2449SOL    HW2 2137   3.042   2.461   4.059
 2454SOL     OW 2138   3.402   2.136   3.849
 2454SOL    HW1 2139   3.341   2.061   3.872
 2454SOL    HW2 2140   3.424   2.188   3.932
 2455SOL     OW 2141   3.165   2.700   3.766
 2455SOL    HW1 2142   3.199   2.607   3.781
 2455SOL    HW2 2143   3.183   2.727   3.671
 2459SOL     OW 2144   1.870   3.188   3.924
 2459SOL    HW1 2145   1.777   3.209   3.893
 2459SOL    HW2 2146   1.880   3.089   3.937
 2462SOL     OW 2147   2.677   2.434   4.049
 2462SOL    HW1 2148   2.684   2.345   4.003
 2462SOL    HW2 2149   2.583   2.468   4.041
 2464SOL     OW 2150   2.335   2.362   3.915
 2464SOL    HW1 2151   2.396   2.442   3.919
 2464SOL    HW2 2152   2.240   2.393   3.922
 2475SOL     OW 2153   2.778   2.772   4.015
 2475SOL    HW1 2154   2.841   2.810   3.947
 2475SOL    HW2 2155   2.818   2.689   4.054
 2480SOL     OW 2156   1.937   2.207   3.757
 2480SOL    HW1 2157   1.845   2.179   3.728
 2480SOL    HW2 2158   1.968   2.284   3.701
 2481SOL     OW 2159   1.934   2.028   4.042
 2481SOL    HW1 2160   1.917   2.111   3.988
 2481SOL    HW2 2161   2.024   1.991   4.020
 2482SOL     OW 2162   3.045   3.197   3.843
 2482SOL    HW1 2163   2.946   3.186   3.845
 2482SOL    HW2 2164   3.079   3.212   3.936
 2486SOL     OW 2165   2.721   3.236   3.740
 2486SOL    HW1 2166   2.675   3.251   3.828
 2486SOL    HW2 2167   2.765   3.321   3.710
 2489SOL     OW 2168   2.945   2.846   3.811
 2489SOL    HW1 2169   2.922   2.899   3.729
 2489SOL    HW2 2170   3.026   2.790   3.792
 2496SOL     OW 2171   3.214   1.914   3.892
 2496SOL    HW1 2172   3.249   1.873   3.808
 2496SOL    HW2 2173   3.124   1.876   3.912
 2499SOL     OW 2174   1.901   2.939   4.024
 2499SOL    HW1 2175   2.000   2.928   4.015
 2499SOL    HW2 2176   1.861   2.853   4.056
 2520SOL     OW 2177   2.179   3.975   1.801
 2520SOL    HW1 2178   2.250   4.046   1.807
 2520SOL    HW2 2179   2.091   4.014   1.829
 2538SOL     OW 2180   2.643   3.988   1.749
 2538SOL    HW1 2181   2.710   3.927   1.792
 2538SOL    HW2 2182   2.570   4.007   1.814
 2555SOL     OW 2183   2.777   3.813   1.402
 2555SOL    HW1 2184   2.802   3.793   1.307
 2555SOL    HW2 2185   2.849   3.869   1.444
 2562SOL     OW 2186   2.875   3.829   1.770
 2562SOL    HW1 2187   2.881   3.914   1.718
 2562SOL    HW2 2188   2.907   3.753   1.713
 2563SOL     OW 2189   2.366   3.774   1.740
 2563SOL    HW1 2190   2.324   3.717   1.670
 2563SOL    HW2 2191   2.300   3.843   1.772
 2600SOL     OW 2192   2.534   3.927   1.489
 2600SOL    HW1 2193   2.624   3.911   1.449
 2600SOL    HW2 2194   2.542   3.932   1.588
 2624SOL     OW 2195   2.087   3.999   2.858
 2624SOL    HW1 2196   2.122   3.982   2.950
 2624SOL    HW2 2197   1.999   3.954   2.846
 2625SOL     OW 2198   1.881   4.092   2.509
 2625SOL    HW1 2199   1.799   4.135   2.548
 2625SOL    HW2 2200   1.853   4.019   2.446
 2639SOL     OW 2201   2.671   3.728   2.364
 2639SOL    HW1 2202   2.711   3.819   2.355
 2639SOL    HW2 2203   2.571   3.736   2.370
 2651SOL     OW 2204   2.727   4.072   2.057
 2651SOL    HW1 2205   2.786   4.135   2.008
 2651SOL    HW2 2206   2.746   3.978   2.028
 2653SOL     OW 2207   2.412   3.920   2.747
 2653SOL    HW1 2208   2.407   3.915   2.847
 2653SOL    HW2 2209   2.414   4.016   2.718
 2656SOL     OW 2210   3.262   3.831   2.288
 2656SOL    HW1 2211   3.238   3.794   2.198
 2656SOL    HW2 2212   3.361   3.847   2.292
 2659SOL     OW 2213   2.476   3.846   1.979
 2659SOL    HW1 2214   2.574   3.824   1.986
 2659SOL    HW2 2215   2.445   3.829   1.886
 2663SOL     OW 2216   2.401   3.788   2.374
 2663SOL    HW1 2217   2.320   3.789   2.432
 2663SOL    HW2 2218   2.404   3.871   2.319
 2664SOL     OW 2219   2.159   3.759   2.033
 2664SOL    HW1 2220   2.208   3.843   2.012
 2664SOL    HW2 2221   2.221   3.694   2.078
 2665SOL     OW 2222   2.797   3.960   2.342
 2665SOL    HW1 2223   2.749   4.001   2.264
 2665SOL    HW2 2224   2.896   3.958   2.323
 2669SOL     OW 2225   2.423   3.946   3.009
 2669SOL    HW1 2226   2.461   3.862   3.046
 2669SOL    HW2 2227   2.335   3.965   3.053
 2671SOL     OW 2228   2.879   3.763   2.615
 2671SOL    HW1 2229   2.807   3.768   2.546
 2671SOL    HW2 2230   2.855   3.694   2.684
 2676SOL     OW 2231   2.389   3.980   2.190
 2676SOL    HW1 2232   2.416   3.921   2.115
 2676SOL    HW2 2233   2.389   4.075   2.159
 2678SOL     OW 2234   2.777   3.813   3.264
 2678SOL    HW1 2235   2.802   3.793   3.169
 2678SOL    HW2 2236   2.849   3.869   3.306
 2690SOL     OW 2237   2.169   3.937   3.093
 2690SOL    HW1 2238   2.146   3.974   3.183
 2690SOL    HW2 2239   2.139   3.842   3.087
 2693SOL     OW 2240   2.169   3.787   2.480
 2693SOL    HW1 2241   2.158   3.881   2.513
 2693SOL    HW2 2242   2.164   3.724   2.557
 2717SOL     OW 2243   2.125   4.050   2.582
 2717SOL    HW1 2244   2.046   4.101   2.548
 2717SOL    HW2 2245   2.116   4.035   2.680
 2719SOL     OW 2246   2.876   3.960   2.833
 2719SOL    HW1 2247   2.868   3.924   2.740
 2719SOL    HW2 2248   2.874   3.884   2.898
 2725SOL     OW 2249   1.934   3.890   2.180
 2725SOL    HW1 2250   1.917   3.973   2.126
 2725SOL    HW2 2251   2.024   3.853   2.158
 2730SOL     OW 2252   3.087   4.049   2.311
 2730SOL    HW1 2253   3.152   3.975   2.300
 2730SOL    HW2 2254   3.107   4.099   2.395
 2738SOL     OW 2255   2.290   4.148   2.382
 2738SOL    HW1 2256   2.320   4.076   2.320
 2738SOL    HW2 2257   2.251   4.108   2.465
 2741SOL     OW 2258   2.863   3.758   3.016
 2741SOL    HW1 2259   2.800   3.686   2.985
 2741SOL    HW2 2260   2.956   3.722   3.016
 2742SOL     OW 2261   3.214   3.776   2.030
 2742SOL    HW1 2262   3.249   3.735   1.946
 2742SOL    HW2 2263   3.124   3.738   2.050
 2843SOL     OW 2264   3.854   1.821   1.571
 2843SOL    HW1 2265   3.844   1.806   1.670
 2843SOL    HW2 2266   3.768   1.857   1.535
 2908SOL     OW 2267   3.854   1.794   1.851
 2908SOL    HW1 2268   3.813   1.720   1.904
 2908SOL    HW2 2269   3.918   1.845   1.909
 2953SOL     OW 2270   3.955   1.713   2.345
 2953SOL    HW1 2271   3.989   1.790   2.399
 2953SOL    HW2 2272   3.999   1.713   2.255
 2959SOL     OW 2273   3.751   1.596   1.979
 2959SOL    HW1 2274   3.732   1.500   2.000
 2959SOL    HW2 2275   3.718   1.654   2.054
 3020SOL     OW 2276   3.732   1.326   2.062
 3020SOL    HW1 2277   3.639   1.347   2.031
 3020SOL    HW2 2278   3.742   1.227   2.075
 3021SOL     OW 2279   3.812   1.801   2.789
 3021SOL    HW1 2280   3.770   1.715   2.762
 3021SOL    HW2 2281   3.906   1.804   2.755
 3157SOL     OW 2282   3.837   2.599   1.597
 3157SOL    HW1 2283   3.925   2.586   1.642
 3157SOL    HW2 2284   3.824   2.696   1.575
 3161SOL     OW 2285   4.041   2.113   1.801
 3161SOL    HW1 2286   4.112   2.184   1.807
 3161SOL    HW2 2287   3.953   2.152   1.829
 3174SOL     OW 2288   3.926   2.147   1.498
 3174SOL    HW1 2289   3.846   2.207   1.485
 3174SOL    HW2 2290   3.916   2.098   1.584
 3188SOL     OW 2291   3.802   2.418   1.386
 3188SOL    HW1 2292   3.894   2.417   1.345
 3188SOL    HW2 2293   3.796   2.492   1.453
 3221SOL     OW 2294   3.913   2.382   1.722
 3221SOL    HW1 2295   3.972   2.342   1.652
 3221SOL    HW2 2296   3.855   2.453   1.681
 3242SOL     OW 2297   3.829   2.875   1.726
 3242SOL    HW1 2298   3.752   2.842   1.780
 3242SOL    HW2 2299   3.914   2.845   1.768
 3266SOL     OW 2300   3.954   2.490   1.975
 3266SOL    HW1 2301   3.861   2.488   2.012
 3266SOL    HW2 2302   3.955   2.451   1.883
 3267SOL     OW 2303   3.949   2.137   2.858
 3267SOL    HW1 2304   3.984   2.120   2.950
 3267SOL    HW2 2305   3.861   2.092   2.846
 3268SOL     OW 2306   3.743   2.230   2.509
 3268SOL    HW1 2307   3.661   2.273   2.548
 3268SOL    HW2 2308   3.715   2.157   2.446
 3277SOL     OW 2309   3.954   3.296   2.400
 3277SOL    HW1 2310   3.928   3.392   2.400
 3277SOL    HW2 2311   3.883   3.242   2.445
 3278SOL     OW 2312   3.964   2.953   2.748
 3278SOL    HW1 2313   3.978   2.869   2.800
 3278SOL    HW2 2314   3.909   3.017   2.803
 3281SOL     OW 2315   3.846   2.505   2.425
 3281SOL    HW1 2316   3.801   2.417   2.442
 3281SOL    HW2 2317   3.845   2.559   2.509
 3282SOL     OW 2318   3.751   3.458   1.979
 3282SOL    HW1 2319   3.732   3.362   2.000
 3282SOL    HW2 2320   3.718   3.516   2.054
 3283SOL     OW 2321   3.837   2.599   3.459
 3283SOL    HW1 2322   3.925   2.586   3.504
 3283SOL    HW2 2323   3.824   2.696   3.437
 3286SOL     OW 2324   3.921   2.838   3.126
 3286SOL    HW1 2325   4.010   2.793   3.112
 3286SOL    HW2 2326   3.848   2.773   3.107
 3292SOL     OW 2327   3.800   2.673   2.651
 3292SOL    HW1 2328   3.899   2.661   2.660
 3292SOL    HW2 2329   3.776   2.768   2.672
 3298SOL     OW 2330   4.045   2.805   2.104
 3298SOL    HW1 2331   4.127   2.844   2.062
 3298SOL    HW2 2332   4.018   2.723   2.055
 3303SOL     OW 2333   4.106   2.562   2.342
 3303SOL    HW1 2334   4.151   2.472   2.339
 3303SOL    HW2 2335   4.012   2.551   2.375
 3310SOL     OW 2336   4.021   1.897   2.033
 3310SOL    HW1 2337   4.070   1.981   2.012
 3310SOL    HW2 2338   4.083   1.832   2.078
 3315SOL     OW 2339   3.802   2.418   3.248
 3315SOL    HW1 2340   3.894   2.417   3.207
 3315SOL    HW2 2341   3.796   2.492   3.315
 3326SOL     OW 2342   4.091   2.962   2.363
 3326SOL    HW1 2343   4.084   3.045   2.307
 3326SOL    HW2 2344   4.095   2.882   2.303
 3335SOL     OW 2345   3.761   3.172   3.144
 3335SOL    HW1 2346   3.814   3.123   3.212
 3335SOL    HW2 2347   3.783   3.270   3.149
 3337SOL     OW 2348   4.031   1.925   2.480
 3337SOL    HW1 2349   4.020   2.019   2.513
 3337SOL    HW2 2350   4.026   1.862   2.557
 3341SOL     OW 2351   4.043   2.672   2.811
 3341SOL    HW1 2352   4.136   2.708   2.816
 3341SOL    HW2 2353   4.037   2.587   2.863
 3342SOL     OW 2354   4.063   2.371   2.868
 3342SOL    HW1 2355   4.011   2.288   2.851
 3342SOL    HW2 2356   4.140   2.376   2.804
 3343SOL     OW 2357   3.732   3.188   2.062
 3343SOL    HW1 2358   3.639   3.209   2.031
 3343SOL    HW2 2359   3.742   3.089   2.075
 3347SOL     OW 2360   3.764   2.406   2.976
 3347SOL    HW1 2361   3.849   2.373   2.935
 3347SOL    HW2 2362   3.777   2.421   3.074
 3355SOL     OW 2363   3.807   3.120   2.884
 3355SOL    HW1 2364   3.802   3.119   2.984
 3355SOL    HW2 2365   3.724   3.079   2.846
 3361SOL     OW 2366   3.987   2.188   2.582
 3361SOL    HW1 2367   3.908   2.239   2.548
 3361SOL    HW2 2368   3.978   2.173   2.680
 3367SOL     OW 2369   3.979   3.210   2.152
 3367SOL    HW1 2370   3.883   3.211   2.125
 3367SOL    HW2 2371   3.991   3.263   2.236
 3370SOL     OW 2372   3.799   2.207   1.895
 3370SOL    HW1 2373   3.707   2.179   1.866
 3370SOL    HW2 2374   3.830   2.284   1.839
 3371SOL     OW 2375   3.796   2.028   2.180
 3371SOL    HW1 2376   3.779   2.111   2.126
 3371SOL    HW2 2377   3.886   1.991   2.158
 3381SOL     OW 2378   3.803   3.102   2.515
 3381SOL    HW1 2379   3.802   3.055   2.603
 3381SOL    HW2 2380   3.885   3.074   2.464
 3383SOL     OW 2381   4.152   2.286   2.382
 3383SOL    HW1 2382   4.182   2.214   2.320
 3383SOL    HW2 2383   4.113   2.246   2.465
 3389SOL     OW 2384   3.763   2.939   2.162
 3389SOL    HW1 2385   3.862   2.928   2.153
 3389SOL    HW2 2386   3.723   2.853   2.194
   4.79904   4.79904   4.79904
