mobley_1674094_GMX.gro created by acpype (v: 2023.10.27) on Wed May 20 23:44:14 2026
10981
    1MOL     C2    1   2.509   2.594   2.280
    1MOL     C3    2   2.326   2.184   2.500
    1MOL     C4    3   2.402   2.540   2.365
    1MOL     C5    4   2.308   2.334   2.477
    1MOL     C6    5   2.420   2.390   2.388
    1MOL     H1    6   2.674   2.678   2.149
    1MOL     C1    7   2.596   2.638   2.211
    1MOL     H2    8   2.245   2.146   2.563
    1MOL     H3    9   2.421   2.164   2.550
    1MOL     H4   10   2.324   2.129   2.405
    1MOL     H5   11   2.401   2.593   2.461
    1MOL     H6   12   2.305   2.559   2.318
    1MOL     H7   13   2.211   2.351   2.430
    1MOL     H8   14   2.308   2.385   2.573
    1MOL     H9   15   2.517   2.372   2.435
    1MOL    H10   16   2.421   2.337   2.292
    2SOL     OW   17   0.230   0.628   0.113
    2SOL    HW1   18   0.137   0.626   0.150
    2SOL    HW2   19   0.231   0.589   0.021
    3SOL     OW   20   0.225   0.275   0.996
    3SOL    HW1   21   0.260   0.258   1.088
    3SOL    HW2   22   0.137   0.230   0.984
    4SOL     OW   23   0.019   0.368   0.647
    4SOL    HW1   24  -0.063   0.411   0.686
    4SOL    HW2   25  -0.009   0.295   0.584
    5SOL     OW   26   0.569   1.275   1.165
    5SOL    HW1   27   0.476   1.268   1.128
    5SOL    HW2   28   0.580   1.364   1.209
    6SOL     OW   29   1.555   1.511   0.703
    6SOL    HW1   30   1.498   1.495   0.784
    6SOL    HW2   31   1.496   1.521   0.623
    7SOL     OW   32   1.135   0.703   0.717
    7SOL    HW1   33   1.192   0.781   0.692
    7SOL    HW2   34   1.075   0.729   0.793
    8SOL     OW   35   1.755   0.607   0.231
    8SOL    HW1   36   1.743   0.594   0.132
    8SOL    HW2   37   1.725   0.526   0.280
    9SOL     OW   38   0.768   1.144   1.023
    9SOL    HW1   39   0.690   1.161   1.083
    9SOL    HW2   40   0.802   1.231   0.987
   10SOL     OW   41   0.850   0.798   1.823
   10SOL    HW1   42   0.846   0.874   1.888
   10SOL    HW2   43   0.872   0.834   1.732
   11SOL     OW   44   0.685   1.012   0.665
   11SOL    HW1   45   0.754   0.996   0.735
   11SOL    HW2   46   0.612   1.069   0.703
   12SOL     OW   47   0.686   1.161   1.803
   12SOL    HW1   48   0.746   1.240   1.817
   12SOL    HW2   49   0.600   1.192   1.762
   13SOL     OW   50   0.335   1.435   1.061
   13SOL    HW1   51   0.257   1.404   1.008
   13SOL    HW2   52   0.393   1.493   1.004
   14SOL     OW   53   1.460   1.505   1.339
   14SOL    HW1   54   1.484   1.599   1.365
   14SOL    HW2   55   1.444   1.451   1.421
   15SOL     OW   56   0.438   0.392   1.499
   15SOL    HW1   57   0.520   0.336   1.508
   15SOL    HW2   58   0.357   0.334   1.503
   16SOL     OW   59   1.603   0.447   0.737
   16SOL    HW1   60   1.529   0.493   0.687
   16SOL    HW2   61   1.654   0.515   0.790
   17SOL     OW   62   0.231   1.713   0.483
   17SOL    HW1   63   0.265   1.790   0.537
   17SOL    HW2   64   0.275   1.713   0.393
   18SOL     OW   65   1.127   1.341   1.690
   18SOL    HW1   66   1.174   1.341   1.778
   18SOL    HW2   67   1.079   1.254   1.679
   19SOL     OW   68   0.230   1.434   0.538
   19SOL    HW1   69   0.204   1.530   0.538
   19SOL    HW2   70   0.159   1.380   0.583
   20SOL     OW   71   0.240   1.091   0.886
   20SOL    HW1   72   0.254   1.007   0.938
   20SOL    HW2   73   0.185   1.155   0.941
   21SOL     OW   74   0.620   1.786   1.439
   21SOL    HW1   75   0.528   1.769   1.474
   21SOL    HW2   76   0.648   1.878   1.465
   22SOL     OW   77   0.606   0.964   0.123
   22SOL    HW1   78   0.613   1.048   0.069
   22SOL    HW2   79   0.652   0.977   0.211
   23SOL     OW   80   1.594   0.114   1.480
   23SOL    HW1   81   1.576   0.181   1.408
   23SOL    HW2   82   1.591   0.160   1.569
   24SOL     OW   83   0.122   0.643   0.563
   24SOL    HW1   84   0.077   0.555   0.580
   24SOL    HW2   85   0.121   0.697   0.647
   25SOL     OW   86   1.842   1.767   0.359
   25SOL    HW1   87   1.896   1.738   0.439
   25SOL    HW2   88   1.872   1.857   0.330
   26SOL     OW   89   0.027   1.596   0.117
   26SOL    HW1   90   0.008   1.500   0.138
   26SOL    HW2   91  -0.006   1.654   0.192
   27SOL     OW   92   1.689   0.922   0.612
   27SOL    HW1   93   1.784   0.893   0.620
   27SOL    HW2   94   1.681   0.987   0.537
   28SOL     OW   95   1.641   1.108   0.432
   28SOL    HW1   96   1.727   1.110   0.380
   28SOL    HW2   97   1.655   1.155   0.520
   29SOL     OW   98   0.113   0.737   1.597
   29SOL    HW1   99   0.201   0.724   1.642
   29SOL    HW2  100   0.100   0.834   1.575
   30SOL     OW  101   0.613   1.365   0.726
   30SOL    HW1  102   0.564   1.278   0.735
   30SOL    HW2  103   0.590   1.408   0.639
   31SOL     OW  104   1.293   1.228   1.423
   31SOL    HW1  105   1.330   1.155   1.365
   31SOL    HW2  106   1.345   1.233   1.508
   32SOL     OW  107   0.809   0.004   0.502
   32SOL    HW1  108   0.849   0.095   0.493
   32SOL    HW2  109   0.709   0.012   0.508
   33SOL     OW  110   0.197   0.976   1.264
   33SOL    HW1  111   0.286   0.931   1.250
   33SOL    HW2  112   0.124   0.911   1.245
   34SOL     OW  113   1.525   0.999   0.190
   34SOL    HW1  114   1.462   0.923   0.203
   34SOL    HW2  115   1.573   1.017   0.276
   35SOL     OW  116   1.187   1.792   1.616
   35SOL    HW1  117   1.211   1.852   1.540
   35SOL    HW2  118   1.194   1.697   1.586
   36SOL     OW  119   0.317   0.251   1.801
   36SOL    HW1  120   0.388   0.322   1.807
   36SOL    HW2  121   0.229   0.290   1.829
   37SOL     OW  122   1.466   1.417   0.953
   37SOL    HW1  123   1.407   1.423   1.033
   37SOL    HW2  124   1.451   1.329   0.907
   38SOL     OW  125   1.667   1.714   0.572
   38SOL    HW1  126   1.626   1.691   0.484
   38SOL    HW2  127   1.649   1.640   0.637
   39SOL     OW  128   0.598   0.729   0.270
   39SOL    HW1  129   0.622   0.798   0.202
   39SOL    HW2  130   0.520   0.762   0.324
   40SOL     OW  131   1.281   0.345   0.944
   40SOL    HW1  132   1.195   0.295   0.931
   40SOL    HW2  133   1.343   0.291   1.000
   41SOL     OW  134   1.576   1.662   0.307
   41SOL    HW1  135   1.665   1.708   0.310
   41SOL    HW2  136   1.555   1.638   0.212
   42SOL     OW  137   0.807   0.605   1.465
   42SOL    HW1  138   0.760   0.602   1.554
   42SOL    HW2  139   0.756   0.550   1.399
   43SOL     OW  140   1.394   0.469   1.674
   43SOL    HW1  141   1.374   0.512   1.762
   43SOL    HW2  142   1.472   0.407   1.683
   44SOL     OW  143   0.973   0.890   1.572
   44SOL    HW1  144   1.019   0.806   1.543
   44SOL    HW2  145   0.917   0.924   1.497
   45SOL     OW  146   0.991   0.410   1.242
   45SOL    HW1  147   0.914   0.444   1.296
   45SOL    HW2  148   0.957   0.359   1.163
   46SOL     OW  149   1.041   0.701   0.429
   46SOL    HW1  150   1.067   0.697   0.525
   46SOL    HW2  151   0.956   0.650   0.415
   47SOL     OW  152   0.076   0.811   0.789
   47SOL    HW1  153   0.175   0.799   0.798
   47SOL    HW2  154   0.052   0.906   0.810
   48SOL     OW  155   0.130   1.821   1.571
   48SOL    HW1  156   0.120   1.806   1.670
   48SOL    HW2  157   0.044   1.857   1.535
   49SOL     OW  158   0.865   0.348   0.195
   49SOL    HW1  159   0.924   0.411   0.146
   49SOL    HW2  160   0.884   0.254   0.166
   50SOL     OW  161   1.719   0.585   1.831
   50SOL    HW1  162   1.693   0.674   1.795
   50SOL    HW2  163   1.717   0.517   1.758
   51SOL     OW  164   1.362   1.144   0.545
   51SOL    HW1  165   1.445   1.115   0.497
   51SOL    HW2  166   1.313   1.211   0.489
   52SOL     OW  167   0.550   0.196   0.885
   52SOL    HW1  168   0.545   0.191   0.985
   52SOL    HW2  169   0.552   0.292   0.856
   53SOL     OW  170   1.008   1.456   0.477
   53SOL    HW1  171   0.962   1.528   0.425
   53SOL    HW2  172   1.004   1.476   0.575
   54SOL     OW  173   0.351   1.801   0.853
   54SOL    HW1  174   0.401   1.715   0.859
   54SOL    HW2  175   0.416   1.878   0.850
   55SOL     OW  176   1.795   1.066   0.873
   55SOL    HW1  177   1.733   1.051   0.797
   55SOL    HW2  178   1.743   1.077   0.958
   56SOL     OW  179   1.227   1.550   1.506
   56SOL    HW1  180   1.233   1.473   1.570
   56SOL    HW2  181   1.175   1.524   1.426
   57SOL     OW  182   0.321   0.943   0.242
   57SOL    HW1  183   0.403   0.982   0.200
   57SOL    HW2  184   0.294   0.861   0.193
   58SOL     OW  185   1.458   0.735   0.728
   58SOL    HW1  186   1.453   0.670   0.803
   58SOL    HW2  187   1.538   0.794   0.741
   59SOL     OW  188   0.461   1.266   1.727
   59SOL    HW1  189   0.411   1.267   1.641
   59SOL    HW2  190   0.398   1.248   1.803
   60SOL     OW  191   1.111   1.776   0.237
   60SOL    HW1  192   1.051   1.714   0.287
   60SOL    HW2  193   1.142   1.732   0.152
   61SOL     OW  194   0.202   0.285   1.498
   61SOL    HW1  195   0.122   0.345   1.485
   61SOL    HW2  196   0.192   0.236   1.584
   62SOL     OW  197   1.632   1.377   0.081
   62SOL    HW1  198   1.600   1.471   0.071
   62SOL    HW2  199   1.556   1.314   0.069
   63SOL     OW  200   0.464   1.743   0.323
   63SOL    HW1  201   0.497   1.782   0.409
   63SOL    HW2  202   0.540   1.736   0.258
   64SOL     OW  203   1.400   0.107   0.426
   64SOL    HW1  204   1.376   0.070   0.336
   64SOL    HW2  205   1.499   0.123   0.430
   65SOL     OW  206   0.249   1.785   1.241
   65SOL    HW1  207   0.306   1.720   1.291
   65SOL    HW2  208   0.233   1.752   1.148
   66SOL     OW  209   0.940   1.698   0.904
   66SOL    HW1  210   1.020   1.641   0.925
   66SOL    HW2  211   0.891   1.658   0.827
   67SOL     OW  212   0.382   0.700   0.480
   67SOL    HW1  213   0.427   0.610   0.477
   67SOL    HW2  214   0.288   0.689   0.513
   68SOL     OW  215   1.547   0.222   1.729
   68SOL    HW1  216   1.542   0.259   1.821
   68SOL    HW2  217   1.475   0.153   1.717
   69SOL     OW  218   0.614   0.122   0.117
   69SOL    HW1  219   0.712   0.100   0.124
   69SOL    HW2  220   0.583   0.105   0.024
   70SOL     OW  221   0.781   0.264   1.749
   70SOL    HW1  222   0.848   0.203   1.792
   70SOL    HW2  223   0.708   0.283   1.814
   71SOL     OW  224   0.888   1.514   1.195
   71SOL    HW1  225   0.865   1.489   1.101
   71SOL    HW2  226   0.949   1.445   1.234
   72SOL     OW  227   1.351   0.590   1.433
   72SOL    HW1  228   1.379   0.547   1.518
   72SOL    HW2  229   1.376   0.686   1.434
   73SOL     OW  230   0.803   1.402   0.924
   73SOL    HW1  231   0.893   1.416   0.882
   73SOL    HW2  232   0.732   1.404   0.853
   74SOL     OW  233   0.922   0.503   0.899
   74SOL    HW1  234   0.897   0.494   0.803
   74SOL    HW2  235   0.970   0.421   0.930
   75SOL     OW  236   0.539   0.064   0.512
   75SOL    HW1  237   0.458   0.065   0.570
   75SOL    HW2  238   0.542   0.147   0.457
   76SOL     OW  239   1.434   1.188   0.041
   76SOL    HW1  240   1.466   1.112   0.098
   76SOL    HW2  241   1.342   1.215   0.071
   77SOL     OW  242   0.297   0.035   0.171
   77SOL    HW1  243   0.346   0.119   0.150
   77SOL    HW2  244   0.359  -0.030   0.216
   78SOL     OW  245   0.935   0.236   0.480
   78SOL    HW1  246   0.887   0.277   0.402
   78SOL    HW2  247   1.034   0.234   0.461
   79SOL     OW  248   1.076   0.683   1.464
   79SOL    HW1  249   0.996   0.622   1.467
   79SOL    HW2  250   1.157   0.630   1.440
   80SOL     OW  251   1.227   1.570   0.793
   80SOL    HW1  252   1.248   1.644   0.728
   80SOL    HW2  253   1.295   1.570   0.866
   81SOL     OW  254   0.459   1.152   0.741
   81SOL    HW1  255   0.388   1.125   0.806
   81SOL    HW2  256   0.433   1.124   0.648
   82SOL     OW  257   1.271   1.797   0.591
   82SOL    HW1  258   1.315   1.861   0.527
   82SOL    HW2  259   1.221   1.849   0.661
   83SOL     OW  260   1.032   0.549   0.016
   83SOL    HW1  261   0.991   0.631  -0.023
   83SOL    HW2  262   1.096   0.575   0.089
   84SOL     OW  263   0.078   0.556   1.386
   84SOL    HW1  264   0.170   0.555   1.345
   84SOL    HW2  265   0.072   0.630   1.453
   85SOL     OW  266   0.561   0.222   1.147
   85SOL    HW1  267   0.599   0.138   1.184
   85SOL    HW2  268   0.473   0.241   1.191
   86SOL     OW  269   0.866   0.454   0.642
   86SOL    HW1  270   0.834   0.526   0.580
   86SOL    HW2  271   0.890   0.373   0.589
   87SOL     OW  272   1.017   0.039   0.753
   87SOL    HW1  273   0.945   0.044   0.684
   87SOL    HW2  274   0.993  -0.030   0.822
   88SOL     OW  275   1.429   1.173   0.867
   88SOL    HW1  276   1.374   1.089   0.860
   88SOL    HW2  277   1.455   1.202   0.775
   89SOL     OW  278   1.466   0.590   0.992
   89SOL    HW1  279   1.436   0.495   0.999
   89SOL    HW2  280   1.539   0.606   1.058
   90SOL     OW  281   1.857   0.833   0.377
   90SOL    HW1  282   1.899   0.769   0.441
   90SOL    HW2  283   1.819   0.782   0.299
   91SOL     OW  284   0.488   1.385   0.174
   91SOL    HW1  285   0.401   1.370   0.221
   91SOL    HW2  286   0.471   1.411   0.079
   92SOL     OW  287   1.664   1.280   0.657
   92SOL    HW1  288   1.763   1.288   0.671
   92SOL    HW2  289   1.619   1.364   0.688
   93SOL     OW  290   1.390   0.575   0.078
   93SOL    HW1  291   1.336   0.554   0.159
   93SOL    HW2  292   1.481   0.534   0.087
   94SOL     OW  293   0.527   0.256   0.328
   94SOL    HW1  294   0.554   0.197   0.253
   94SOL    HW2  295   0.527   0.351   0.297
   95SOL     OW  296   1.754   1.223   1.588
   95SOL    HW1  297   1.845   1.184   1.575
   95SOL    HW2  298   1.762   1.319   1.612
   96SOL     OW  299   1.064   1.347   1.340
   96SOL    HW1  300   0.984   1.324   1.395
   96SOL    HW2  301   1.147   1.321   1.389
   97SOL     OW  302   1.592   1.629   1.625
   97SOL    HW1  303   1.619   1.663   1.535
   97SOL    HW2  304   1.671   1.591   1.671
   98SOL     OW  305   1.111   1.195   1.100
   98SOL    HW1  306   1.071   1.239   1.181
   98SOL    HW2  307   1.070   1.232   1.017
   99SOL     OW  308   1.638   1.099   1.079
   99SOL    HW1  309   1.643   1.180   1.138
   99SOL    HW2  310   1.552   1.101   1.028
  100SOL     OW  311   0.915   0.089   1.402
  100SOL    HW1  312   0.940   0.069   1.307
  100SOL    HW2  313   0.987   0.145   1.444
  101SOL     OW  314   0.980   1.116   1.719
  101SOL    HW1  315   0.881   1.122   1.729
  101SOL    HW2  316   1.003   1.036   1.663
  102SOL     OW  317   0.705   1.050   0.368
  102SOL    HW1  318   0.691   1.057   0.467
  102SOL    HW2  319   0.789   0.999   0.350
  103SOL     OW  320   0.410   0.813   1.251
  103SOL    HW1  321   0.496   0.825   1.301
  103SOL    HW2  322   0.368   0.726   1.278
  104SOL     OW  323   1.274   0.386   1.262
  104SOL    HW1  324   1.295   0.460   1.326
  104SOL    HW2  325   1.185   0.403   1.219
  105SOL     OW  326   0.064   1.564   1.331
  105SOL    HW1  327   0.018   1.646   1.297
  105SOL    HW2  328   0.162   1.583   1.340
  106SOL     OW  329   0.367   1.100   0.501
  106SOL    HW1  330   0.360   1.183   0.445
  106SOL    HW2  331   0.371   1.020   0.441
  107SOL     OW  332   0.566   0.537   0.865
  107SOL    HW1  333   0.578   0.603   0.791
  107SOL    HW2  334   0.612   0.571   0.948
  108SOL     OW  335   1.252   1.348   0.388
  108SOL    HW1  336   1.302   1.425   0.428
  108SOL    HW2  337   1.157   1.350   0.420
  109SOL     OW  338   1.272   1.445   1.142
  109SOL    HW1  339   1.319   1.458   1.229
  109SOL    HW2  340   1.206   1.371   1.151
  110SOL     OW  341   1.582   0.639   0.472
  110SOL    HW1  342   1.551   0.700   0.545
  110SOL    HW2  343   1.632   0.691   0.403
  111SOL     OW  344   0.354   1.510   1.329
  111SOL    HW1  345   0.333   1.466   1.242
  111SOL    HW2  346   0.451   1.536   1.332
  112SOL     OW  347   0.402   0.751   1.598
  112SOL    HW1  348   0.470   0.806   1.551
  112SOL    HW2  349   0.442   0.663   1.625
  113SOL     OW  350   1.587   0.779   1.670
  113SOL    HW1  351   1.495   0.817   1.665
  113SOL    HW2  352   1.647   0.826   1.605
  114SOL     OW  353   1.013   0.105   1.770
  114SOL    HW1  354   1.019   0.190   1.718
  114SOL    HW2  355   1.045   0.029   1.713
  115SOL     OW  356   0.504   0.050   1.740
  115SOL    HW1  357   0.462  -0.007   1.670
  115SOL    HW2  358   0.438   0.119   1.772
  116SOL     OW  359   0.573   0.870   1.029
  116SOL    HW1  360   0.617   0.959   1.020
  116SOL    HW2  361   0.510   0.870   1.106
  117SOL     OW  362   1.360   0.862   1.045
  117SOL    HW1  363   1.285   0.862   0.979
  117SOL    HW2  364   1.397   0.770   1.054
  118SOL     OW  365   1.209   0.525   0.275
  118SOL    HW1  366   1.222   0.441   0.329
  118SOL    HW2  367   1.180   0.599   0.335
  119SOL     OW  368   0.307   0.213   1.231
  119SOL    HW1  369   0.284   0.250   1.321
  119SOL    HW2  370   0.277   0.118   1.225
  120SOL     OW  371   0.037   1.310   1.282
  120SOL    HW1  372   0.090   1.261   1.350
  120SOL    HW2  373   0.059   1.408   1.287
  121SOL     OW  374   0.732   0.634   1.064
  121SOL    HW1  375   0.791   0.608   0.988
  121SOL    HW2  376   0.704   0.730   1.053
  122SOL     OW  377   1.728   0.935   1.854
  122SOL    HW1  378   1.682   0.928   1.765
  122SOL    HW2  379   1.666   0.979   1.920
  123SOL     OW  380   0.307   0.063   0.618
  123SOL    HW1  381   0.296   0.157   0.651
  123SOL    HW2  382   0.302   0.000   0.695
  124SOL     OW  383   1.622   0.367   0.374
  124SOL    HW1  384   1.624   0.291   0.438
  124SOL    HW2  385   1.574   0.444   0.414
  125SOL     OW  386   1.023   0.766   0.966
  125SOL    HW1  387   1.038   0.787   1.062
  125SOL    HW2  388   0.993   0.671   0.957
  126SOL     OW  389   0.980   1.573   1.700
  126SOL    HW1  390   0.960   1.617   1.612
  126SOL    HW2  391   1.019   1.482   1.684
  127SOL     OW  392   1.859   1.518   1.605
  127SOL    HW1  393   1.873   1.545   1.510
  127SOL    HW2  394   1.942   1.540   1.658
  128SOL     OW  395   0.350   0.898   1.804
  128SOL    HW1  396   0.426   0.942   1.852
  128SOL    HW2  397   0.385   0.851   1.722
  129SOL     OW  398   1.540   0.274   0.125
  129SOL    HW1  399   1.479   0.199   0.148
  129SOL    HW2  400   1.562   0.326   0.208
  130SOL     OW  401   1.303   0.838   0.042
  130SOL    HW1  402   1.337   0.745   0.057
  130SOL    HW2  403   1.321   0.865  -0.053
  131SOL     OW  404   1.068   1.333   0.849
  131SOL    HW1  405   1.075   1.249   0.794
  131SOL    HW2  406   1.130   1.402   0.813
  132SOL     OW  407   0.319   0.810   0.949
  132SOL    HW1  408   0.412   0.846   0.954
  132SOL    HW2  409   0.313   0.725   1.001
  133SOL     OW  410   0.339   0.509   1.006
  133SOL    HW1  411   0.287   0.426   0.989
  133SOL    HW2  412   0.416   0.514   0.942
  134SOL     OW  413   1.138   0.380   1.678
  134SOL    HW1  414   1.093   0.443   1.742
  134SOL    HW2  415   1.231   0.411   1.661
  135SOL     OW  416   1.160   0.207   1.477
  135SOL    HW1  417   1.160   0.271   1.554
  135SOL    HW2  418   1.188   0.255   1.394
  136SOL     OW  419   0.008   1.326   0.200
  136SOL    HW1  420  -0.085   1.347   0.169
  136SOL    HW2  421   0.018   1.227   0.213
  137SOL     OW  422   0.088   1.801   0.927
  137SOL    HW1  423   0.046   1.715   0.900
  137SOL    HW2  424   0.182   1.804   0.893
  138SOL     OW  425   0.504   1.568   0.910
  138SOL    HW1  426   0.570   1.642   0.919
  138SOL    HW2  427   0.548   1.489   0.868
  139SOL     OW  428   1.002   0.796   1.238
  139SOL    HW1  429   1.043   0.764   1.324
  139SOL    HW2  430   0.906   0.769   1.235
  140SOL     OW  431   0.040   0.544   1.114
  140SOL    HW1  432   0.125   0.511   1.073
  140SOL    HW2  433   0.053   0.559   1.212
  141SOL     OW  434   0.189   0.520   1.722
  141SOL    HW1  435   0.248   0.480   1.652
  141SOL    HW2  436   0.131   0.591   1.681
  142SOL     OW  437   1.369   0.950   1.660
  142SOL    HW1  438   1.408   1.039   1.680
  142SOL    HW2  439   1.379   0.930   1.563
  143SOL     OW  440   0.815   0.572   0.325
  143SOL    HW1  441   0.822   0.483   0.279
  143SOL    HW2  442   0.721   0.606   0.317
  144SOL     OW  443   1.657   0.604   1.206
  144SOL    HW1  444   1.619   0.535   1.268
  144SOL    HW2  445   1.739   0.568   1.162
  145SOL     OW  446   0.252   1.564   1.744
  145SOL    HW1  447   0.222   1.621   1.820
  145SOL    HW2  448   0.245   1.467   1.770
  146SOL     OW  449   0.671   0.464   1.269
  146SOL    HW1  450   0.637   0.375   1.239
  146SOL    HW2  451   0.697   0.518   1.189
  147SOL     OW  452   0.930   1.678   1.465
  147SOL    HW1  453   0.906   1.660   1.370
  147SOL    HW2  454   0.960   1.772   1.475
  148SOL     OW  455   0.473   0.500   0.191
  148SOL    HW1  456   0.534   0.580   0.195
  148SOL    HW2  457   0.378   0.531   0.198
  149SOL     OW  458   0.159   1.137   1.466
  149SOL    HW1  459   0.181   1.076   1.542
  149SOL    HW2  460   0.169   1.088   1.380
  150SOL     OW  461   1.347   1.059   1.234
  150SOL    HW1  462   1.371   0.996   1.160
  150SOL    HW2  463   1.257   1.099   1.216
  151SOL     OW  464   1.302   0.855   0.309
  151SOL    HW1  465   1.216   0.824   0.351
  151SOL    HW2  466   1.298   0.841   0.210
  152SOL     OW  467   1.759   1.747   1.154
  152SOL    HW1  468   1.820   1.777   1.081
  152SOL    HW2  469   1.721   1.658   1.132
  153SOL     OW  470   1.252   1.731   1.128
  153SOL    HW1  471   1.336   1.736   1.074
  153SOL    HW2  472   1.229   1.635   1.146
  154SOL     OW  473   0.083   1.258   1.022
  154SOL    HW1  474   0.078   1.257   1.122
  154SOL    HW2  475   0.000   1.217   0.984
  155SOL     OW  476   0.688   1.662   1.716
  155SOL    HW1  477   0.632   1.743   1.725
  155SOL    HW2  478   0.740   1.666   1.630
  156SOL     OW  479   0.903   0.086   0.133
  156SOL    HW1  480   0.954   0.087   0.047
  156SOL    HW2  481   0.959   0.044   0.204
  157SOL     OW  482   1.726   0.135   0.523
  157SOL    HW1  483   1.799   0.118   0.456
  157SOL    HW2  484   1.695   0.048   0.561
  158SOL     OW  485   1.388   1.573   0.477
  158SOL    HW1  486   1.455   1.585   0.403
  158SOL    HW2  487   1.348   1.662   0.500
  159SOL     OW  488   0.130   1.794   1.851
  159SOL    HW1  489   0.089   1.720   1.904
  159SOL    HW2  490   0.194   1.845   1.909
  160SOL     OW  491   1.280   0.927   0.672
  160SOL    HW1  492   1.340   0.846   0.674
  160SOL    HW2  493   1.320   0.996   0.612
  161SOL     OW  494   0.830   1.273   1.422
  161SOL    HW1  495   0.825   1.306   1.517
  161SOL    HW2  496   0.744   1.292   1.376
  162SOL     OW  497   0.672   1.616   0.154
  162SOL    HW1  498   0.681   1.626   0.055
  162SOL    HW2  499   0.632   1.527   0.175
  163SOL     OW  500   1.650   1.720   1.394
  163SOL    HW1  501   1.703   1.730   1.310
  163SOL    HW2  502   1.623   1.810   1.428
  164SOL     OW  503   1.841   0.175   0.963
  164SOL    HW1  504   1.880   0.090   0.927
  164SOL    HW2  505   1.743   0.177   0.944
  165SOL     OW  506   0.263   0.326   0.720
  165SOL    HW1  507   0.184   0.377   0.686
  165SOL    HW2  508   0.254   0.311   0.818
  166SOL     OW  509   1.194   1.612   0.031
  166SOL    HW1  510   1.200   1.519   0.068
  166SOL    HW2  511   1.135   1.612  -0.049
  167SOL     OW  512   0.822   1.002   1.372
  167SOL    HW1  513   0.862   1.001   1.280
  167SOL    HW2  514   0.832   1.094   1.412
  168SOL     OW  515   0.916   0.910   0.291
  168SOL    HW1  516   0.979   0.948   0.223
  168SOL    HW2  517   0.956   0.827   0.330
  169SOL     OW  518   1.504   1.607   0.044
  169SOL    HW1  519   1.412   1.644   0.051
  169SOL    HW2  520   1.542   1.627  -0.046
  170SOL     OW  521   0.372   1.288   1.490
  170SOL    HW1  522   0.359   1.381   1.456
  170SOL    HW2  523   0.288   1.236   1.477
  171SOL     OW  524   1.614   1.292   1.289
  171SOL    HW1  525   1.674   1.295   1.369
  171SOL    HW2  526   1.539   1.356   1.302
  172SOL     OW  527   1.039   1.098   0.696
  172SOL    HW1  528   0.969   1.051   0.750
  172SOL    HW2  529   1.098   1.030   0.653
  173SOL     OW  530   1.014   0.236   0.971
  173SOL    HW1  531   1.006   0.200   0.878
  173SOL    HW2  532   1.012   0.160   1.036
  174SOL     OW  533   0.590   1.487   0.491
  174SOL    HW1  534   0.632   1.429   0.421
  174SOL    HW2  535   0.546   1.566   0.447
  175SOL     OW  536   1.709   0.385   1.381
  175SOL    HW1  537   1.782   0.454   1.385
  175SOL    HW2  538   1.737   0.310   1.322
  176SOL     OW  539   0.255   1.348   0.290
  176SOL    HW1  540   0.159   1.349   0.263
  176SOL    HW2  541   0.267   1.401   0.374
  177SOL     OW  542   0.105   1.013   1.726
  177SOL    HW1  543   0.028   0.980   1.780
  177SOL    HW2  544   0.190   0.983   1.768
  178SOL     OW  545   0.672   0.203   1.489
  178SOL    HW1  546   0.762   0.187   1.449
  178SOL    HW2  547   0.680   0.208   1.588
  179SOL     OW  548   0.075   0.345   0.033
  179SOL    HW1  549  -0.017   0.317   0.004
  179SOL    HW2  550   0.106   0.422  -0.023
  180SOL     OW  551   1.440   0.856   1.398
  180SOL    HW1  552   1.383   0.908   1.335
  180SOL    HW2  553   1.536   0.868   1.374
  181SOL     OW  554   0.072   0.166   0.318
  181SOL    HW1  555   0.055   0.249   0.264
  181SOL    HW2  556   0.162   0.129   0.296
  182SOL     OW  557   1.183   1.335   0.119
  182SOL    HW1  558   1.084   1.324   0.121
  182SOL    HW2  559   1.217   1.350   0.212
  183SOL     OW  560   0.613   0.842   1.431
  183SOL    HW1  561   0.669   0.923   1.414
  183SOL    HW2  562   0.672   0.762   1.434
  184SOL     OW  563   1.493   1.767   0.959
  184SOL    HW1  564   1.526   1.831   0.890
  184SOL    HW2  565   1.559   1.761   1.034
  185SOL     OW  566   0.716   0.565   1.708
  185SOL    HW1  567   0.735   0.630   1.782
  185SOL    HW2  568   0.776   0.485   1.717
  186SOL     OW  569   1.450   1.220   1.633
  186SOL    HW1  570   1.441   1.210   1.732
  186SOL    HW2  571   1.546   1.213   1.607
  187SOL     OW  572   0.390   1.741   1.560
  187SOL    HW1  573   0.299   1.782   1.558
  187SOL    HW2  574   0.383   1.647   1.592
  188SOL     OW  575   1.674   0.883   1.254
  188SOL    HW1  576   1.647   0.794   1.217
  188SOL    HW2  577   1.675   0.951   1.181
  189SOL     OW  578   1.225   0.325   0.449
  189SOL    HW1  579   1.290   0.251   0.438
  189SOL    HW2  580   1.245   0.375   0.533
  190SOL     OW  581   0.594   0.745   0.652
  190SOL    HW1  582   0.644   0.830   0.633
  190SOL    HW2  583   0.506   0.747   0.604
  191SOL     OW  584   1.777   0.342   1.642
  191SOL    HW1  585   1.760   0.373   1.548
  191SOL    HW2  586   1.693   0.305   1.680
  192SOL     OW  587   1.730   0.934   1.517
  192SOL    HW1  588   1.768   1.025   1.532
  192SOL    HW2  589   1.722   0.917   1.418
  193SOL     OW  590   0.859   1.374   0.016
  193SOL    HW1  591   0.813   1.389   0.104
  193SOL    HW2  592   0.903   1.459  -0.014
  194SOL     OW  593   0.661   1.790   0.953
  194SOL    HW1  594   0.615   1.878   0.940
  194SOL    HW2  595   0.760   1.802   0.946
  195SOL     OW  596   0.859   0.956   0.861
  195SOL    HW1  597   0.913   0.887   0.909
  195SOL    HW2  598   0.827   1.025   0.927
  196SOL     OW  599   1.083   0.984   0.087
  196SOL    HW1  600   1.060   1.037   0.005
  196SOL    HW2  601   1.164   0.928   0.068
  197SOL     OW  602   1.861   1.569   0.851
  197SOL    HW1  603   1.790   1.557   0.781
  197SOL    HW2  604   1.862   1.490   0.911
  198SOL     OW  605   0.221   1.314   1.844
  198SOL    HW1  606   0.156   1.241   1.823
  198SOL    HW2  607   0.225   1.328   1.942
  199SOL     OW  608   0.079   1.240   0.653
  199SOL    HW1  609   0.078   1.193   0.741
  199SOL    HW2  610   0.161   1.212   0.602
  200SOL     OW  611   0.672   1.391   1.624
  200SOL    HW1  612   0.594   1.341   1.662
  200SOL    HW2  613   0.669   1.486   1.655
  201SOL     OW  614   1.824   0.192   1.227
  201SOL    HW1  615   1.820   0.102   1.271
  201SOL    HW2  616   1.827   0.181   1.128
  202SOL     OW  617   0.428   0.424   0.520
  202SOL    HW1  618   0.458   0.352   0.458
  202SOL    HW2  619   0.389   0.384   0.603
  203SOL     OW  620   1.705   1.487   1.104
  203SOL    HW1  621   1.612   1.462   1.077
  203SOL    HW2  622   1.731   1.437   1.186
  204SOL     OW  623   0.317   0.547   1.280
  204SOL    HW1  624   0.355   0.488   1.352
  204SOL    HW2  625   0.357   0.521   1.192
  205SOL     OW  626   0.812   1.586   0.687
  205SOL    HW1  627   0.844   1.596   0.593
  205SOL    HW2  628   0.733   1.524   0.689
  206SOL     OW  629   1.424   0.214   1.112
  206SOL    HW1  630   1.476   0.149   1.167
  206SOL    HW2  631   1.375   0.277   1.173
  207SOL     OW  632   1.001   0.034   1.154
  207SOL    HW1  633   0.938  -0.038   1.123
  207SOL    HW2  634   1.094  -0.002   1.154
  208SOL     OW  635   0.770   1.330   0.301
  208SOL    HW1  636   0.724   1.243   0.318
  208SOL    HW2  637   0.861   1.327   0.342
  209SOL     OW  638   0.618   1.567   1.284
  209SOL    HW1  639   0.613   1.649   1.341
  209SOL    HW2  640   0.707   1.564   1.239
  210SOL     OW  641   1.352   0.052   0.168
  210SOL    HW1  642   1.387   0.011   0.084
  210SOL    HW2  643   1.262   0.014   0.188
  211SOL     OW  644   1.300   0.453   0.691
  211SOL    HW1  645   1.241   0.533   0.695
  211SOL    HW2  646   1.315   0.418   0.784
  212SOL     OW  647   1.593   0.221   0.882
  212SOL    HW1  648   1.509   0.220   0.936
  212SOL    HW2  649   1.595   0.304   0.826
  213SOL     OW  650   0.039   1.077   0.300
  213SOL    HW1  651   0.138   1.066   0.291
  213SOL    HW2  652  -0.001   0.991   0.332
  214SOL     OW  653   0.875   1.646   0.337
  214SOL    HW1  654   0.798   1.611   0.283
  214SOL    HW2  655   0.843   1.717   0.399
  215SOL     OW  656   0.230   0.628   1.975
  215SOL    HW1  657   0.137   0.626   2.012
  215SOL    HW2  658   0.231   0.589   1.883
  216SOL     OW  659   0.225   0.275   2.858
  216SOL    HW1  660   0.260   0.258   2.950
  216SOL    HW2  661   0.137   0.230   2.846
  217SOL     OW  662   0.019   0.368   2.509
  217SOL    HW1  663  -0.063   0.411   2.548
  217SOL    HW2  664  -0.009   0.295   2.446
  218SOL     OW  665   0.569   1.275   3.027
  218SOL    HW1  666   0.476   1.268   2.990
  218SOL    HW2  667   0.580   1.364   3.071
  219SOL     OW  668   1.555   1.511   2.565
  219SOL    HW1  669   1.498   1.495   2.646
  219SOL    HW2  670   1.496   1.521   2.485
  220SOL     OW  671   1.135   0.703   2.579
  220SOL    HW1  672   1.192   0.781   2.554
  220SOL    HW2  673   1.075   0.729   2.655
  221SOL     OW  674   1.755   0.607   2.093
  221SOL    HW1  675   1.743   0.594   1.994
  221SOL    HW2  676   1.725   0.526   2.142
  222SOL     OW  677   0.768   1.144   2.885
  222SOL    HW1  678   0.690   1.161   2.945
  222SOL    HW2  679   0.802   1.231   2.849
  223SOL     OW  680   0.850   0.798   3.685
  223SOL    HW1  681   0.846   0.874   3.750
  223SOL    HW2  682   0.872   0.834   3.594
  224SOL     OW  683   0.685   1.012   2.527
  224SOL    HW1  684   0.754   0.996   2.597
  224SOL    HW2  685   0.612   1.069   2.565
  225SOL     OW  686   0.686   1.161   3.665
  225SOL    HW1  687   0.746   1.240   3.679
  225SOL    HW2  688   0.600   1.192   3.624
  226SOL     OW  689   0.335   1.435   2.923
  226SOL    HW1  690   0.257   1.404   2.870
  226SOL    HW2  691   0.393   1.493   2.866
  227SOL     OW  692   1.460   1.505   3.201
  227SOL    HW1  693   1.484   1.599   3.227
  227SOL    HW2  694   1.444   1.451   3.283
  228SOL     OW  695   0.438   0.392   3.361
  228SOL    HW1  696   0.520   0.336   3.370
  228SOL    HW2  697   0.357   0.334   3.365
  229SOL     OW  698   1.603   0.447   2.599
  229SOL    HW1  699   1.529   0.493   2.549
  229SOL    HW2  700   1.654   0.515   2.652
  230SOL     OW  701   0.231   1.713   2.345
  230SOL    HW1  702   0.265   1.790   2.399
  230SOL    HW2  703   0.275   1.713   2.255
  231SOL     OW  704   1.127   1.341   3.552
  231SOL    HW1  705   1.174   1.341   3.640
  231SOL    HW2  706   1.079   1.254   3.541
  232SOL     OW  707   0.230   1.434   2.400
  232SOL    HW1  708   0.204   1.530   2.400
  232SOL    HW2  709   0.159   1.380   2.445
  233SOL     OW  710   0.240   1.091   2.748
  233SOL    HW1  711   0.254   1.007   2.800
  233SOL    HW2  712   0.185   1.155   2.803
  234SOL     OW  713   0.620   1.786   3.301
  234SOL    HW1  714   0.528   1.769   3.336
  234SOL    HW2  715   0.648   1.878   3.327
  235SOL     OW  716   0.606   0.964   1.985
  235SOL    HW1  717   0.613   1.048   1.931
  235SOL    HW2  718   0.652   0.977   2.073
  236SOL     OW  719   1.594   0.114   3.342
  236SOL    HW1  720   1.576   0.181   3.270
  236SOL    HW2  721   1.591   0.160   3.431
  237SOL     OW  722   0.122   0.643   2.425
  237SOL    HW1  723   0.077   0.555   2.442
  237SOL    HW2  724   0.121   0.697   2.509
  238SOL     OW  725   1.842   1.767   2.221
  238SOL    HW1  726   1.896   1.738   2.301
  238SOL    HW2  727   1.872   1.857   2.192
  239SOL     OW  728   0.027   1.596   1.979
  239SOL    HW1  729   0.008   1.500   2.000
  239SOL    HW2  730  -0.006   1.654   2.054
  240SOL     OW  731   1.689   0.922   2.474
  240SOL    HW1  732   1.784   0.893   2.482
  240SOL    HW2  733   1.681   0.987   2.399
  241SOL     OW  734   1.641   1.108   2.294
  241SOL    HW1  735   1.727   1.110   2.242
  241SOL    HW2  736   1.655   1.155   2.382
  242SOL     OW  737   0.113   0.737   3.459
  242SOL    HW1  738   0.201   0.724   3.504
  242SOL    HW2  739   0.100   0.834   3.437
  243SOL     OW  740   0.613   1.365   2.588
  243SOL    HW1  741   0.564   1.278   2.597
  243SOL    HW2  742   0.590   1.408   2.501
  244SOL     OW  743   1.293   1.228   3.285
  244SOL    HW1  744   1.330   1.155   3.227
  244SOL    HW2  745   1.345   1.233   3.370
  245SOL     OW  746   0.809   0.004   2.364
  245SOL    HW1  747   0.849   0.095   2.355
  245SOL    HW2  748   0.709   0.012   2.370
  246SOL     OW  749   0.197   0.976   3.126
  246SOL    HW1  750   0.286   0.931   3.112
  246SOL    HW2  751   0.124   0.911   3.107
  247SOL     OW  752   1.525   0.999   2.052
  247SOL    HW1  753   1.462   0.923   2.065
  247SOL    HW2  754   1.573   1.017   2.138
  248SOL     OW  755   1.187   1.792   3.478
  248SOL    HW1  756   1.211   1.852   3.402
  248SOL    HW2  757   1.194   1.697   3.448
  249SOL     OW  758   0.317   0.251   3.663
  249SOL    HW1  759   0.388   0.322   3.669
  249SOL    HW2  760   0.229   0.290   3.691
  250SOL     OW  761   1.466   1.417   2.815
  250SOL    HW1  762   1.407   1.423   2.895
  250SOL    HW2  763   1.451   1.329   2.769
  251SOL     OW  764   1.667   1.714   2.434
  251SOL    HW1  765   1.626   1.691   2.346
  251SOL    HW2  766   1.649   1.640   2.499
  252SOL     OW  767   0.598   0.729   2.132
  252SOL    HW1  768   0.622   0.798   2.064
  252SOL    HW2  769   0.520   0.762   2.186
  253SOL     OW  770   1.281   0.345   2.806
  253SOL    HW1  771   1.195   0.295   2.793
  253SOL    HW2  772   1.343   0.291   2.862
  254SOL     OW  773   1.576   1.662   2.169
  254SOL    HW1  774   1.665   1.708   2.172
  254SOL    HW2  775   1.555   1.638   2.074
  255SOL     OW  776   0.807   0.605   3.327
  255SOL    HW1  777   0.760   0.602   3.416
  255SOL    HW2  778   0.756   0.550   3.261
  256SOL     OW  779   1.394   0.469   3.536
  256SOL    HW1  780   1.374   0.512   3.624
  256SOL    HW2  781   1.472   0.407   3.545
  257SOL     OW  782   0.973   0.890   3.434
  257SOL    HW1  783   1.019   0.806   3.405
  257SOL    HW2  784   0.917   0.924   3.359
  258SOL     OW  785   0.991   0.410   3.104
  258SOL    HW1  786   0.914   0.444   3.158
  258SOL    HW2  787   0.957   0.359   3.025
  259SOL     OW  788   1.041   0.701   2.291
  259SOL    HW1  789   1.067   0.697   2.387
  259SOL    HW2  790   0.956   0.650   2.277
  260SOL     OW  791   0.076   0.811   2.651
  260SOL    HW1  792   0.175   0.799   2.660
  260SOL    HW2  793   0.052   0.906   2.672
  261SOL     OW  794   0.130   1.821   3.433
  261SOL    HW1  795   0.120   1.806   3.532
  261SOL    HW2  796   0.044   1.857   3.397
  262SOL     OW  797   0.865   0.348   2.057
  262SOL    HW1  798   0.924   0.411   2.008
  262SOL    HW2  799   0.884   0.254   2.028
  263SOL     OW  800   1.719   0.585   3.693
  263SOL    HW1  801   1.693   0.674   3.657
  263SOL    HW2  802   1.717   0.517   3.620
  264SOL     OW  803   1.362   1.144   2.407
  264SOL    HW1  804   1.445   1.115   2.359
  264SOL    HW2  805   1.313   1.211   2.351
  265SOL     OW  806   0.550   0.196   2.747
  265SOL    HW1  807   0.545   0.191   2.847
  265SOL    HW2  808   0.552   0.292   2.718
  266SOL     OW  809   1.008   1.456   2.339
  266SOL    HW1  810   0.962   1.528   2.287
  266SOL    HW2  811   1.004   1.476   2.437
  267SOL     OW  812   0.351   1.801   2.715
  267SOL    HW1  813   0.401   1.715   2.721
  267SOL    HW2  814   0.416   1.878   2.712
  268SOL     OW  815   1.795   1.066   2.735
  268SOL    HW1  816   1.733   1.051   2.659
  268SOL    HW2  817   1.743   1.077   2.820
  269SOL     OW  818   1.227   1.550   3.368
  269SOL    HW1  819   1.233   1.473   3.432
  269SOL    HW2  820   1.175   1.524   3.288
  270SOL     OW  821   0.321   0.943   2.104
  270SOL    HW1  822   0.403   0.982   2.062
  270SOL    HW2  823   0.294   0.861   2.055
  271SOL     OW  824   1.458   0.735   2.590
  271SOL    HW1  825   1.453   0.670   2.665
  271SOL    HW2  826   1.538   0.794   2.603
  272SOL     OW  827   0.461   1.266   3.589
  272SOL    HW1  828   0.411   1.267   3.503
  272SOL    HW2  829   0.398   1.248   3.665
  273SOL     OW  830   1.111   1.776   2.099
  273SOL    HW1  831   1.051   1.714   2.149
  273SOL    HW2  832   1.142   1.732   2.014
  274SOL     OW  833   0.202   0.285   3.360
  274SOL    HW1  834   0.122   0.345   3.347
  274SOL    HW2  835   0.192   0.236   3.446
  275SOL     OW  836   1.632   1.377   1.943
  275SOL    HW1  837   1.600   1.471   1.933
  275SOL    HW2  838   1.556   1.314   1.931
  276SOL     OW  839   0.464   1.743   2.185
  276SOL    HW1  840   0.497   1.782   2.271
  276SOL    HW2  841   0.540   1.736   2.120
  277SOL     OW  842   1.400   0.107   2.288
  277SOL    HW1  843   1.376   0.070   2.198
  277SOL    HW2  844   1.499   0.123   2.292
  278SOL     OW  845   0.249   1.785   3.103
  278SOL    HW1  846   0.306   1.720   3.153
  278SOL    HW2  847   0.233   1.752   3.010
  279SOL     OW  848   0.940   1.698   2.766
  279SOL    HW1  849   1.020   1.641   2.787
  279SOL    HW2  850   0.891   1.658   2.689
  280SOL     OW  851   0.382   0.700   2.342
  280SOL    HW1  852   0.427   0.610   2.339
  280SOL    HW2  853   0.288   0.689   2.375
  281SOL     OW  854   1.547   0.222   3.591
  281SOL    HW1  855   1.542   0.259   3.683
  281SOL    HW2  856   1.475   0.153   3.579
  282SOL     OW  857   0.614   0.122   1.979
  282SOL    HW1  858   0.712   0.100   1.986
  282SOL    HW2  859   0.583   0.105   1.886
  283SOL     OW  860   0.781   0.264   3.611
  283SOL    HW1  861   0.848   0.203   3.654
  283SOL    HW2  862   0.708   0.283   3.676
  284SOL     OW  863   0.888   1.514   3.057
  284SOL    HW1  864   0.865   1.489   2.963
  284SOL    HW2  865   0.949   1.445   3.096
  285SOL     OW  866   1.351   0.590   3.295
  285SOL    HW1  867   1.379   0.547   3.380
  285SOL    HW2  868   1.376   0.686   3.296
  286SOL     OW  869   0.803   1.402   2.786
  286SOL    HW1  870   0.893   1.416   2.744
  286SOL    HW2  871   0.732   1.404   2.715
  287SOL     OW  872   0.922   0.503   2.761
  287SOL    HW1  873   0.897   0.494   2.665
  287SOL    HW2  874   0.970   0.421   2.792
  288SOL     OW  875   0.539   0.064   2.374
  288SOL    HW1  876   0.458   0.065   2.432
  288SOL    HW2  877   0.542   0.147   2.319
  289SOL     OW  878   1.434   1.188   1.903
  289SOL    HW1  879   1.466   1.112   1.960
  289SOL    HW2  880   1.342   1.215   1.933
  290SOL     OW  881   0.297   0.035   2.033
  290SOL    HW1  882   0.346   0.119   2.012
  290SOL    HW2  883   0.359  -0.030   2.078
  291SOL     OW  884   0.935   0.236   2.342
  291SOL    HW1  885   0.887   0.277   2.264
  291SOL    HW2  886   1.034   0.234   2.323
  292SOL     OW  887   1.076   0.683   3.326
  292SOL    HW1  888   0.996   0.622   3.329
  292SOL    HW2  889   1.157   0.630   3.302
  293SOL     OW  890   1.227   1.570   2.655
  293SOL    HW1  891   1.248   1.644   2.590
  293SOL    HW2  892   1.295   1.570   2.728
  294SOL     OW  893   0.459   1.152   2.603
  294SOL    HW1  894   0.388   1.125   2.668
  294SOL    HW2  895   0.433   1.124   2.510
  295SOL     OW  896   1.271   1.797   2.453
  295SOL    HW1  897   1.315   1.861   2.389
  295SOL    HW2  898   1.221   1.849   2.523
  296SOL     OW  899   1.032   0.549   1.878
  296SOL    HW1  900   0.991   0.631   1.839
  296SOL    HW2  901   1.096   0.575   1.951
  297SOL     OW  902   0.078   0.556   3.248
  297SOL    HW1  903   0.170   0.555   3.207
  297SOL    HW2  904   0.072   0.630   3.315
  298SOL     OW  905   0.561   0.222   3.009
  298SOL    HW1  906   0.599   0.138   3.046
  298SOL    HW2  907   0.473   0.241   3.053
  299SOL     OW  908   0.866   0.454   2.504
  299SOL    HW1  909   0.834   0.526   2.442
  299SOL    HW2  910   0.890   0.373   2.451
  300SOL     OW  911   1.017   0.039   2.615
  300SOL    HW1  912   0.945   0.044   2.546
  300SOL    HW2  913   0.993  -0.030   2.684
  301SOL     OW  914   1.429   1.173   2.729
  301SOL    HW1  915   1.374   1.089   2.722
  301SOL    HW2  916   1.455   1.202   2.637
  302SOL     OW  917   1.466   0.590   2.854
  302SOL    HW1  918   1.436   0.495   2.861
  302SOL    HW2  919   1.539   0.606   2.920
  303SOL     OW  920   1.857   0.833   2.239
  303SOL    HW1  921   1.899   0.769   2.303
  303SOL    HW2  922   1.819   0.782   2.161
  304SOL     OW  923   0.488   1.385   2.036
  304SOL    HW1  924   0.401   1.370   2.083
  304SOL    HW2  925   0.471   1.411   1.941
  305SOL     OW  926   1.664   1.280   2.519
  305SOL    HW1  927   1.763   1.288   2.533
  305SOL    HW2  928   1.619   1.364   2.550
  306SOL     OW  929   1.390   0.575   1.940
  306SOL    HW1  930   1.336   0.554   2.021
  306SOL    HW2  931   1.481   0.534   1.949
  307SOL     OW  932   0.527   0.256   2.190
  307SOL    HW1  933   0.554   0.197   2.115
  307SOL    HW2  934   0.527   0.351   2.159
  308SOL     OW  935   1.754   1.223   3.450
  308SOL    HW1  936   1.845   1.184   3.437
  308SOL    HW2  937   1.762   1.319   3.474
  309SOL     OW  938   1.064   1.347   3.202
  309SOL    HW1  939   0.984   1.324   3.257
  309SOL    HW2  940   1.147   1.321   3.251
  310SOL     OW  941   1.592   1.629   3.487
  310SOL    HW1  942   1.619   1.663   3.397
  310SOL    HW2  943   1.671   1.591   3.533
  311SOL     OW  944   1.111   1.195   2.962
  311SOL    HW1  945   1.071   1.239   3.043
  311SOL    HW2  946   1.070   1.232   2.879
  312SOL     OW  947   1.638   1.099   2.941
  312SOL    HW1  948   1.643   1.180   3.000
  312SOL    HW2  949   1.552   1.101   2.890
  313SOL     OW  950   0.915   0.089   3.264
  313SOL    HW1  951   0.940   0.069   3.169
  313SOL    HW2  952   0.987   0.145   3.306
  314SOL     OW  953   0.980   1.116   3.581
  314SOL    HW1  954   0.881   1.122   3.591
  314SOL    HW2  955   1.003   1.036   3.525
  315SOL     OW  956   0.705   1.050   2.230
  315SOL    HW1  957   0.691   1.057   2.329
  315SOL    HW2  958   0.789   0.999   2.212
  316SOL     OW  959   0.410   0.813   3.113
  316SOL    HW1  960   0.496   0.825   3.163
  316SOL    HW2  961   0.368   0.726   3.140
  317SOL     OW  962   1.274   0.386   3.124
  317SOL    HW1  963   1.295   0.460   3.188
  317SOL    HW2  964   1.185   0.403   3.081
  318SOL     OW  965   0.064   1.564   3.193
  318SOL    HW1  966   0.018   1.646   3.159
  318SOL    HW2  967   0.162   1.583   3.202
  319SOL     OW  968   0.367   1.100   2.363
  319SOL    HW1  969   0.360   1.183   2.307
  319SOL    HW2  970   0.371   1.020   2.303
  320SOL     OW  971   0.566   0.537   2.727
  320SOL    HW1  972   0.578   0.603   2.653
  320SOL    HW2  973   0.612   0.571   2.810
  321SOL     OW  974   1.252   1.348   2.250
  321SOL    HW1  975   1.302   1.425   2.290
  321SOL    HW2  976   1.157   1.350   2.282
  322SOL     OW  977   1.272   1.445   3.004
  322SOL    HW1  978   1.319   1.458   3.091
  322SOL    HW2  979   1.206   1.371   3.013
  323SOL     OW  980   1.582   0.639   2.334
  323SOL    HW1  981   1.551   0.700   2.407
  323SOL    HW2  982   1.632   0.691   2.265
  324SOL     OW  983   0.354   1.510   3.191
  324SOL    HW1  984   0.333   1.466   3.104
  324SOL    HW2  985   0.451   1.536   3.194
  325SOL     OW  986   0.402   0.751   3.460
  325SOL    HW1  987   0.470   0.806   3.413
  325SOL    HW2  988   0.442   0.663   3.487
  326SOL     OW  989   1.587   0.779   3.532
  326SOL    HW1  990   1.495   0.817   3.527
  326SOL    HW2  991   1.647   0.826   3.467
  327SOL     OW  992   1.013   0.105   3.632
  327SOL    HW1  993   1.019   0.190   3.580
  327SOL    HW2  994   1.045   0.029   3.575
  328SOL     OW  995   0.504   0.050   3.602
  328SOL    HW1  996   0.462  -0.007   3.532
  328SOL    HW2  997   0.438   0.119   3.634
  329SOL     OW  998   0.573   0.870   2.891
  329SOL    HW1  999   0.617   0.959   2.882
  329SOL    HW2 1000   0.510   0.870   2.968
  330SOL     OW 1001   1.360   0.862   2.907
  330SOL    HW1 1002   1.285   0.862   2.841
  330SOL    HW2 1003   1.397   0.770   2.916
  331SOL     OW 1004   1.209   0.525   2.137
  331SOL    HW1 1005   1.222   0.441   2.191
  331SOL    HW2 1006   1.180   0.599   2.197
  332SOL     OW 1007   0.307   0.213   3.093
  332SOL    HW1 1008   0.284   0.250   3.183
  332SOL    HW2 1009   0.277   0.118   3.087
  333SOL     OW 1010   0.037   1.310   3.144
  333SOL    HW1 1011   0.090   1.261   3.212
  333SOL    HW2 1012   0.059   1.408   3.149
  334SOL     OW 1013   0.732   0.634   2.926
  334SOL    HW1 1014   0.791   0.608   2.850
  334SOL    HW2 1015   0.704   0.730   2.915
  335SOL     OW 1016   1.728   0.935   3.716
  335SOL    HW1 1017   1.682   0.928   3.627
  335SOL    HW2 1018   1.666   0.979   3.782
  336SOL     OW 1019   0.307   0.063   2.480
  336SOL    HW1 1020   0.296   0.157   2.513
  336SOL    HW2 1021   0.302   0.000   2.557
  337SOL     OW 1022   1.622   0.367   2.236
  337SOL    HW1 1023   1.624   0.291   2.300
  337SOL    HW2 1024   1.574   0.444   2.276
  338SOL     OW 1025   1.023   0.766   2.828
  338SOL    HW1 1026   1.038   0.787   2.924
  338SOL    HW2 1027   0.993   0.671   2.819
  339SOL     OW 1028   0.980   1.573   3.562
  339SOL    HW1 1029   0.960   1.617   3.474
  339SOL    HW2 1030   1.019   1.482   3.546
  340SOL     OW 1031   1.859   1.518   3.467
  340SOL    HW1 1032   1.873   1.545   3.372
  340SOL    HW2 1033   1.942   1.540   3.520
  341SOL     OW 1034   0.350   0.898   3.666
  341SOL    HW1 1035   0.426   0.942   3.714
  341SOL    HW2 1036   0.385   0.851   3.584
  342SOL     OW 1037   1.540   0.274   1.987
  342SOL    HW1 1038   1.479   0.199   2.010
  342SOL    HW2 1039   1.562   0.326   2.070
  343SOL     OW 1040   1.303   0.838   1.904
  343SOL    HW1 1041   1.337   0.745   1.919
  343SOL    HW2 1042   1.321   0.865   1.809
  344SOL     OW 1043   1.068   1.333   2.711
  344SOL    HW1 1044   1.075   1.249   2.656
  344SOL    HW2 1045   1.130   1.402   2.675
  345SOL     OW 1046   0.319   0.810   2.811
  345SOL    HW1 1047   0.412   0.846   2.816
  345SOL    HW2 1048   0.313   0.725   2.863
  346SOL     OW 1049   0.339   0.509   2.868
  346SOL    HW1 1050   0.287   0.426   2.851
  346SOL    HW2 1051   0.416   0.514   2.804
  347SOL     OW 1052   1.138   0.380   3.540
  347SOL    HW1 1053   1.093   0.443   3.604
  347SOL    HW2 1054   1.231   0.411   3.523
  348SOL     OW 1055   1.160   0.207   3.339
  348SOL    HW1 1056   1.160   0.271   3.416
  348SOL    HW2 1057   1.188   0.255   3.256
  349SOL     OW 1058   0.008   1.326   2.062
  349SOL    HW1 1059  -0.085   1.347   2.031
  349SOL    HW2 1060   0.018   1.227   2.075
  350SOL     OW 1061   0.088   1.801   2.789
  350SOL    HW1 1062   0.046   1.715   2.762
  350SOL    HW2 1063   0.182   1.804   2.755
  351SOL     OW 1064   0.504   1.568   2.772
  351SOL    HW1 1065   0.570   1.642   2.781
  351SOL    HW2 1066   0.548   1.489   2.730
  352SOL     OW 1067   1.002   0.796   3.100
  352SOL    HW1 1068   1.043   0.764   3.186
  352SOL    HW2 1069   0.906   0.769   3.097
  353SOL     OW 1070   0.040   0.544   2.976
  353SOL    HW1 1071   0.125   0.511   2.935
  353SOL    HW2 1072   0.053   0.559   3.074
  354SOL     OW 1073   0.189   0.520   3.584
  354SOL    HW1 1074   0.248   0.480   3.514
  354SOL    HW2 1075   0.131   0.591   3.543
  355SOL     OW 1076   1.369   0.950   3.522
  355SOL    HW1 1077   1.408   1.039   3.542
  355SOL    HW2 1078   1.379   0.930   3.425
  356SOL     OW 1079   0.815   0.572   2.187
  356SOL    HW1 1080   0.822   0.483   2.141
  356SOL    HW2 1081   0.721   0.606   2.179
  357SOL     OW 1082   1.657   0.604   3.068
  357SOL    HW1 1083   1.619   0.535   3.130
  357SOL    HW2 1084   1.739   0.568   3.024
  358SOL     OW 1085   0.252   1.564   3.606
  358SOL    HW1 1086   0.222   1.621   3.682
  358SOL    HW2 1087   0.245   1.467   3.632
  359SOL     OW 1088   0.671   0.464   3.131
  359SOL    HW1 1089   0.637   0.375   3.101
  359SOL    HW2 1090   0.697   0.518   3.051
  360SOL     OW 1091   0.930   1.678   3.327
  360SOL    HW1 1092   0.906   1.660   3.232
  360SOL    HW2 1093   0.960   1.772   3.337
  361SOL     OW 1094   0.473   0.500   2.053
  361SOL    HW1 1095   0.534   0.580   2.057
  361SOL    HW2 1096   0.378   0.531   2.060
  362SOL     OW 1097   0.159   1.137   3.328
  362SOL    HW1 1098   0.181   1.076   3.404
  362SOL    HW2 1099   0.169   1.088   3.242
  363SOL     OW 1100   1.347   1.059   3.096
  363SOL    HW1 1101   1.371   0.996   3.022
  363SOL    HW2 1102   1.257   1.099   3.078
  364SOL     OW 1103   1.302   0.855   2.171
  364SOL    HW1 1104   1.216   0.824   2.213
  364SOL    HW2 1105   1.298   0.841   2.072
  365SOL     OW 1106   1.759   1.747   3.016
  365SOL    HW1 1107   1.820   1.777   2.943
  365SOL    HW2 1108   1.721   1.658   2.994
  366SOL     OW 1109   1.252   1.731   2.990
  366SOL    HW1 1110   1.336   1.736   2.936
  366SOL    HW2 1111   1.229   1.635   3.008
  367SOL     OW 1112   0.083   1.258   2.884
  367SOL    HW1 1113   0.078   1.257   2.984
  367SOL    HW2 1114   0.000   1.217   2.846
  368SOL     OW 1115   0.688   1.662   3.578
  368SOL    HW1 1116   0.632   1.743   3.587
  368SOL    HW2 1117   0.740   1.666   3.492
  369SOL     OW 1118   1.726   0.135   2.385
  369SOL    HW1 1119   1.799   0.118   2.318
  369SOL    HW2 1120   1.695   0.048   2.423
  370SOL     OW 1121   1.388   1.573   2.339
  370SOL    HW1 1122   1.455   1.585   2.265
  370SOL    HW2 1123   1.348   1.662   2.362
  371SOL     OW 1124   0.130   1.794   3.713
  371SOL    HW1 1125   0.089   1.720   3.766
  371SOL    HW2 1126   0.194   1.845   3.771
  372SOL     OW 1127   1.280   0.927   2.534
  372SOL    HW1 1128   1.340   0.846   2.536
  372SOL    HW2 1129   1.320   0.996   2.474
  373SOL     OW 1130   0.830   1.273   3.284
  373SOL    HW1 1131   0.825   1.306   3.379
  373SOL    HW2 1132   0.744   1.292   3.238
  374SOL     OW 1133   0.672   1.616   2.016
  374SOL    HW1 1134   0.681   1.626   1.917
  374SOL    HW2 1135   0.632   1.527   2.037
  375SOL     OW 1136   1.650   1.720   3.256
  375SOL    HW1 1137   1.703   1.730   3.172
  375SOL    HW2 1138   1.623   1.810   3.290
  376SOL     OW 1139   1.841   0.175   2.825
  376SOL    HW1 1140   1.880   0.090   2.789
  376SOL    HW2 1141   1.743   0.177   2.806
  377SOL     OW 1142   0.263   0.326   2.582
  377SOL    HW1 1143   0.184   0.377   2.548
  377SOL    HW2 1144   0.254   0.311   2.680
  378SOL     OW 1145   1.194   1.612   1.893
  378SOL    HW1 1146   1.200   1.519   1.930
  378SOL    HW2 1147   1.135   1.612   1.813
  379SOL     OW 1148   0.822   1.002   3.234
  379SOL    HW1 1149   0.862   1.001   3.142
  379SOL    HW2 1150   0.832   1.094   3.274
  380SOL     OW 1151   0.916   0.910   2.153
  380SOL    HW1 1152   0.979   0.948   2.085
  380SOL    HW2 1153   0.956   0.827   2.192
  381SOL     OW 1154   1.504   1.607   1.906
  381SOL    HW1 1155   1.412   1.644   1.913
  381SOL    HW2 1156   1.542   1.627   1.816
  382SOL     OW 1157   0.372   1.288   3.352
  382SOL    HW1 1158   0.359   1.381   3.318
  382SOL    HW2 1159   0.288   1.236   3.339
  383SOL     OW 1160   1.614   1.292   3.151
  383SOL    HW1 1161   1.674   1.295   3.231
  383SOL    HW2 1162   1.539   1.356   3.164
  384SOL     OW 1163   1.039   1.098   2.558
  384SOL    HW1 1164   0.969   1.051   2.612
  384SOL    HW2 1165   1.098   1.030   2.515
  385SOL     OW 1166   1.014   0.236   2.833
  385SOL    HW1 1167   1.006   0.200   2.740
  385SOL    HW2 1168   1.012   0.160   2.898
  386SOL     OW 1169   0.590   1.487   2.353
  386SOL    HW1 1170   0.632   1.429   2.283
  386SOL    HW2 1171   0.546   1.566   2.309
  387SOL     OW 1172   1.709   0.385   3.243
  387SOL    HW1 1173   1.782   0.454   3.247
  387SOL    HW2 1174   1.737   0.310   3.184
  388SOL     OW 1175   0.255   1.348   2.152
  388SOL    HW1 1176   0.159   1.349   2.125
  388SOL    HW2 1177   0.267   1.401   2.236
  389SOL     OW 1178   0.105   1.013   3.588
  389SOL    HW1 1179   0.028   0.980   3.642
  389SOL    HW2 1180   0.190   0.983   3.630
  390SOL     OW 1181   0.672   0.203   3.351
  390SOL    HW1 1182   0.762   0.187   3.311
  390SOL    HW2 1183   0.680   0.208   3.450
  391SOL     OW 1184   0.075   0.345   1.895
  391SOL    HW1 1185  -0.017   0.317   1.866
  391SOL    HW2 1186   0.106   0.422   1.839
  392SOL     OW 1187   1.440   0.856   3.260
  392SOL    HW1 1188   1.383   0.908   3.197
  392SOL    HW2 1189   1.536   0.868   3.236
  393SOL     OW 1190   0.072   0.166   2.180
  393SOL    HW1 1191   0.055   0.249   2.126
  393SOL    HW2 1192   0.162   0.129   2.158
  394SOL     OW 1193   1.183   1.335   1.981
  394SOL    HW1 1194   1.084   1.324   1.983
  394SOL    HW2 1195   1.217   1.350   2.074
  395SOL     OW 1196   0.613   0.842   3.293
  395SOL    HW1 1197   0.669   0.923   3.276
  395SOL    HW2 1198   0.672   0.762   3.296
  396SOL     OW 1199   1.493   1.767   2.821
  396SOL    HW1 1200   1.526   1.831   2.752
  396SOL    HW2 1201   1.559   1.761   2.896
  397SOL     OW 1202   0.716   0.565   3.570
  397SOL    HW1 1203   0.735   0.630   3.644
  397SOL    HW2 1204   0.776   0.485   3.579
  398SOL     OW 1205   1.450   1.220   3.495
  398SOL    HW1 1206   1.441   1.210   3.594
  398SOL    HW2 1207   1.546   1.213   3.469
  399SOL     OW 1208   0.390   1.741   3.422
  399SOL    HW1 1209   0.299   1.782   3.420
  399SOL    HW2 1210   0.383   1.647   3.454
  400SOL     OW 1211   1.674   0.883   3.116
  400SOL    HW1 1212   1.647   0.794   3.079
  400SOL    HW2 1213   1.675   0.951   3.043
  401SOL     OW 1214   1.225   0.325   2.311
  401SOL    HW1 1215   1.290   0.251   2.300
  401SOL    HW2 1216   1.245   0.375   2.395
  402SOL     OW 1217   0.594   0.745   2.514
  402SOL    HW1 1218   0.644   0.830   2.495
  402SOL    HW2 1219   0.506   0.747   2.466
  403SOL     OW 1220   1.777   0.342   3.504
  403SOL    HW1 1221   1.760   0.373   3.410
  403SOL    HW2 1222   1.693   0.305   3.542
  404SOL     OW 1223   1.730   0.934   3.379
  404SOL    HW1 1224   1.768   1.025   3.394
  404SOL    HW2 1225   1.722   0.917   3.280
  405SOL     OW 1226   0.859   1.374   1.878
  405SOL    HW1 1227   0.813   1.389   1.966
  405SOL    HW2 1228   0.903   1.459   1.848
  406SOL     OW 1229   0.661   1.790   2.815
  406SOL    HW1 1230   0.615   1.878   2.802
  406SOL    HW2 1231   0.760   1.802   2.808
  407SOL     OW 1232   0.859   0.956   2.723
  407SOL    HW1 1233   0.913   0.887   2.771
  407SOL    HW2 1234   0.827   1.025   2.789
  408SOL     OW 1235   1.083   0.984   1.949
  408SOL    HW1 1236   1.060   1.037   1.867
  408SOL    HW2 1237   1.164   0.928   1.930
  409SOL     OW 1238   1.861   1.569   2.713
  409SOL    HW1 1239   1.790   1.557   2.643
  409SOL    HW2 1240   1.862   1.490   2.773
  410SOL     OW 1241   0.221   1.314   3.706
  410SOL    HW1 1242   0.156   1.241   3.685
  410SOL    HW2 1243   0.225   1.328   3.804
  411SOL     OW 1244   0.079   1.240   2.515
  411SOL    HW1 1245   0.078   1.193   2.603
  411SOL    HW2 1246   0.161   1.212   2.464
  412SOL     OW 1247   0.672   1.391   3.486
  412SOL    HW1 1248   0.594   1.341   3.524
  412SOL    HW2 1249   0.669   1.486   3.517
  413SOL     OW 1250   1.824   0.192   3.089
  413SOL    HW1 1251   1.820   0.102   3.133
  413SOL    HW2 1252   1.827   0.181   2.990
  414SOL     OW 1253   0.428   0.424   2.382
  414SOL    HW1 1254   0.458   0.352   2.320
  414SOL    HW2 1255   0.389   0.384   2.465
  415SOL     OW 1256   1.705   1.487   2.966
  415SOL    HW1 1257   1.612   1.462   2.939
  415SOL    HW2 1258   1.731   1.437   3.048
  416SOL     OW 1259   0.317   0.547   3.142
  416SOL    HW1 1260   0.355   0.488   3.214
  416SOL    HW2 1261   0.357   0.521   3.054
  417SOL     OW 1262   0.812   1.586   2.549
  417SOL    HW1 1263   0.844   1.596   2.455
  417SOL    HW2 1264   0.733   1.524   2.551
  418SOL     OW 1265   1.424   0.214   2.974
  418SOL    HW1 1266   1.476   0.149   3.029
  418SOL    HW2 1267   1.375   0.277   3.035
  419SOL     OW 1268   1.001   0.034   3.016
  419SOL    HW1 1269   0.938  -0.038   2.985
  419SOL    HW2 1270   1.094  -0.002   3.016
  420SOL     OW 1271   0.770   1.330   2.163
  420SOL    HW1 1272   0.724   1.243   2.180
  420SOL    HW2 1273   0.861   1.327   2.204
  421SOL     OW 1274   0.618   1.567   3.146
  421SOL    HW1 1275   0.613   1.649   3.203
  421SOL    HW2 1276   0.707   1.564   3.101
  422SOL     OW 1277   1.352   0.052   2.030
  422SOL    HW1 1278   1.387   0.011   1.946
  422SOL    HW2 1279   1.262   0.014   2.050
  423SOL     OW 1280   1.300   0.453   2.553
  423SOL    HW1 1281   1.241   0.533   2.557
  423SOL    HW2 1282   1.315   0.418   2.646
  424SOL     OW 1283   1.593   0.221   2.744
  424SOL    HW1 1284   1.509   0.220   2.798
  424SOL    HW2 1285   1.595   0.304   2.688
  425SOL     OW 1286   0.039   1.077   2.162
  425SOL    HW1 1287   0.138   1.066   2.153
  425SOL    HW2 1288  -0.001   0.991   2.194
  426SOL     OW 1289   0.875   1.646   2.199
  426SOL    HW1 1290   0.798   1.611   2.145
  426SOL    HW2 1291   0.843   1.717   2.261
  427SOL     OW 1292   0.230   0.628   3.837
  427SOL    HW1 1293   0.137   0.626   3.874
  427SOL    HW2 1294   0.231   0.589   3.745
  428SOL     OW 1295   0.225   0.275   4.720
  428SOL    HW1 1296   0.260   0.258   4.812
  428SOL    HW2 1297   0.137   0.230   4.708
  429SOL     OW 1298   0.019   0.368   4.371
  429SOL    HW1 1299  -0.063   0.411   4.410
  429SOL    HW2 1300  -0.009   0.295   4.308
  430SOL     OW 1301   1.555   1.511   4.427
  430SOL    HW1 1302   1.498   1.495   4.508
  430SOL    HW2 1303   1.496   1.521   4.347
  431SOL     OW 1304   1.135   0.703   4.441
  431SOL    HW1 1305   1.192   0.781   4.416
  431SOL    HW2 1306   1.075   0.729   4.517
  432SOL     OW 1307   1.755   0.607   3.955
  432SOL    HW1 1308   1.743   0.594   3.856
  432SOL    HW2 1309   1.725   0.526   4.004
  433SOL     OW 1310   0.768   1.144   4.747
  433SOL    HW1 1311   0.690   1.161   4.807
  433SOL    HW2 1312   0.802   1.231   4.711
  434SOL     OW 1313   0.685   1.012   4.389
  434SOL    HW1 1314   0.754   0.996   4.459
  434SOL    HW2 1315   0.612   1.069   4.427
  435SOL     OW 1316   0.335   1.435   4.785
  435SOL    HW1 1317   0.257   1.404   4.732
  435SOL    HW2 1318   0.393   1.493   4.728
  436SOL     OW 1319   1.603   0.447   4.461
  436SOL    HW1 1320   1.529   0.493   4.411
  436SOL    HW2 1321   1.654   0.515   4.514
  437SOL     OW 1322   0.231   1.713   4.207
  437SOL    HW1 1323   0.265   1.790   4.261
  437SOL    HW2 1324   0.275   1.713   4.117
  438SOL     OW 1325   0.230   1.434   4.262
  438SOL    HW1 1326   0.204   1.530   4.262
  438SOL    HW2 1327   0.159   1.380   4.307
  439SOL     OW 1328   0.240   1.091   4.610
  439SOL    HW1 1329   0.254   1.007   4.662
  439SOL    HW2 1330   0.185   1.155   4.665
  440SOL     OW 1331   0.606   0.964   3.847
  440SOL    HW1 1332   0.613   1.048   3.793
  440SOL    HW2 1333   0.652   0.977   3.935
  441SOL     OW 1334   0.122   0.643   4.287
  441SOL    HW1 1335   0.077   0.555   4.304
  441SOL    HW2 1336   0.121   0.697   4.371
  442SOL     OW 1337   1.842   1.767   4.083
  442SOL    HW1 1338   1.896   1.738   4.163
  442SOL    HW2 1339   1.872   1.857   4.054
  443SOL     OW 1340   0.027   1.596   3.841
  443SOL    HW1 1341   0.008   1.500   3.862
  443SOL    HW2 1342  -0.006   1.654   3.916
  444SOL     OW 1343   1.689   0.922   4.336
  444SOL    HW1 1344   1.784   0.893   4.344
  444SOL    HW2 1345   1.681   0.987   4.261
  445SOL     OW 1346   1.641   1.108   4.156
  445SOL    HW1 1347   1.727   1.110   4.104
  445SOL    HW2 1348   1.655   1.155   4.244
  446SOL     OW 1349   0.613   1.365   4.450
  446SOL    HW1 1350   0.564   1.278   4.459
  446SOL    HW2 1351   0.590   1.408   4.363
  447SOL     OW 1352   0.809   0.004   4.226
  447SOL    HW1 1353   0.849   0.095   4.217
  447SOL    HW2 1354   0.709   0.012   4.232
  448SOL     OW 1355   1.525   0.999   3.914
  448SOL    HW1 1356   1.462   0.923   3.927
  448SOL    HW2 1357   1.573   1.017   4.000
  449SOL     OW 1358   1.466   1.417   4.677
  449SOL    HW1 1359   1.407   1.423   4.757
  449SOL    HW2 1360   1.451   1.329   4.631
  450SOL     OW 1361   1.667   1.714   4.296
  450SOL    HW1 1362   1.626   1.691   4.208
  450SOL    HW2 1363   1.649   1.640   4.361
  451SOL     OW 1364   0.598   0.729   3.994
  451SOL    HW1 1365   0.622   0.798   3.926
  451SOL    HW2 1366   0.520   0.762   4.048
  452SOL     OW 1367   1.281   0.345   4.668
  452SOL    HW1 1368   1.195   0.295   4.655
  452SOL    HW2 1369   1.343   0.291   4.724
  453SOL     OW 1370   1.576   1.662   4.031
  453SOL    HW1 1371   1.665   1.708   4.034
  453SOL    HW2 1372   1.555   1.638   3.936
  454SOL     OW 1373   1.041   0.701   4.153
  454SOL    HW1 1374   1.067   0.697   4.249
  454SOL    HW2 1375   0.956   0.650   4.139
  455SOL     OW 1376   0.076   0.811   4.513
  455SOL    HW1 1377   0.175   0.799   4.522
  455SOL    HW2 1378   0.052   0.906   4.534
  456SOL     OW 1379   0.865   0.348   3.919
  456SOL    HW1 1380   0.924   0.411   3.870
  456SOL    HW2 1381   0.884   0.254   3.890
  457SOL     OW 1382   1.362   1.144   4.269
  457SOL    HW1 1383   1.445   1.115   4.221
  457SOL    HW2 1384   1.313   1.211   4.213
  458SOL     OW 1385   0.550   0.196   4.609
  458SOL    HW1 1386   0.545   0.191   4.709
  458SOL    HW2 1387   0.552   0.292   4.580
  459SOL     OW 1388   1.008   1.456   4.201
  459SOL    HW1 1389   0.962   1.528   4.149
  459SOL    HW2 1390   1.004   1.476   4.299
  460SOL     OW 1391   0.351   1.801   4.577
  460SOL    HW1 1392   0.401   1.715   4.583
  460SOL    HW2 1393   0.416   1.878   4.574
  461SOL     OW 1394   1.795   1.066   4.597
  461SOL    HW1 1395   1.733   1.051   4.521
  461SOL    HW2 1396   1.743   1.077   4.682
  462SOL     OW 1397   0.321   0.943   3.966
  462SOL    HW1 1398   0.403   0.982   3.924
  462SOL    HW2 1399   0.294   0.861   3.917
  463SOL     OW 1400   1.458   0.735   4.452
  463SOL    HW1 1401   1.453   0.670   4.527
  463SOL    HW2 1402   1.538   0.794   4.465
  464SOL     OW 1403   1.111   1.776   3.961
  464SOL    HW1 1404   1.051   1.714   4.011
  464SOL    HW2 1405   1.142   1.732   3.876
  465SOL     OW 1406   1.632   1.377   3.805
  465SOL    HW1 1407   1.600   1.471   3.795
  465SOL    HW2 1408   1.556   1.314   3.793
  466SOL     OW 1409   0.464   1.743   4.047
  466SOL    HW1 1410   0.497   1.782   4.133
  466SOL    HW2 1411   0.540   1.736   3.982
  467SOL     OW 1412   1.400   0.107   4.150
  467SOL    HW1 1413   1.376   0.070   4.060
  467SOL    HW2 1414   1.499   0.123   4.154
  468SOL     OW 1415   0.249   1.785   4.965
  468SOL    HW1 1416   0.306   1.720   5.015
  468SOL    HW2 1417   0.233   1.752   4.872
  469SOL     OW 1418   0.940   1.698   4.628
  469SOL    HW1 1419   1.020   1.641   4.649
  469SOL    HW2 1420   0.891   1.658   4.551
  470SOL     OW 1421   0.382   0.700   4.204
  470SOL    HW1 1422   0.427   0.610   4.201
  470SOL    HW2 1423   0.288   0.689   4.237
  471SOL     OW 1424   0.614   0.122   3.841
  471SOL    HW1 1425   0.712   0.100   3.848
  471SOL    HW2 1426   0.583   0.105   3.748
  472SOL     OW 1427   0.803   1.402   4.648
  472SOL    HW1 1428   0.893   1.416   4.606
  472SOL    HW2 1429   0.732   1.404   4.577
  473SOL     OW 1430   0.922   0.503   4.623
  473SOL    HW1 1431   0.897   0.494   4.527
  473SOL    HW2 1432   0.970   0.421   4.654
  474SOL     OW 1433   0.539   0.064   4.236
  474SOL    HW1 1434   0.458   0.065   4.294
  474SOL    HW2 1435   0.542   0.147   4.181
  475SOL     OW 1436   1.434   1.188   3.765
  475SOL    HW1 1437   1.466   1.112   3.822
  475SOL    HW2 1438   1.342   1.215   3.795
  476SOL     OW 1439   0.297   0.035   3.895
  476SOL    HW1 1440   0.346   0.119   3.874
  476SOL    HW2 1441   0.359  -0.030   3.940
  477SOL     OW 1442   0.935   0.236   4.204
  477SOL    HW1 1443   0.887   0.277   4.126
  477SOL    HW2 1444   1.034   0.234   4.185
  478SOL     OW 1445   1.227   1.570   4.517
  478SOL    HW1 1446   1.248   1.644   4.452
  478SOL    HW2 1447   1.295   1.570   4.590
  479SOL     OW 1448   0.459   1.152   4.465
  479SOL    HW1 1449   0.388   1.125   4.530
  479SOL    HW2 1450   0.433   1.124   4.372
  480SOL     OW 1451   1.271   1.797   4.315
  480SOL    HW1 1452   1.315   1.861   4.251
  480SOL    HW2 1453   1.221   1.849   4.385
  481SOL     OW 1454   1.032   0.549   3.740
  481SOL    HW1 1455   0.991   0.631   3.701
  481SOL    HW2 1456   1.096   0.575   3.813
  482SOL     OW 1457   0.866   0.454   4.366
  482SOL    HW1 1458   0.834   0.526   4.304
  482SOL    HW2 1459   0.890   0.373   4.313
  483SOL     OW 1460   1.017   0.039   4.477
  483SOL    HW1 1461   0.945   0.044   4.408
  483SOL    HW2 1462   0.993  -0.030   4.546
  484SOL     OW 1463   1.429   1.173   4.591
  484SOL    HW1 1464   1.374   1.089   4.584
  484SOL    HW2 1465   1.455   1.202   4.499
  485SOL     OW 1466   1.466   0.590   4.716
  485SOL    HW1 1467   1.436   0.495   4.723
  485SOL    HW2 1468   1.539   0.606   4.782
  486SOL     OW 1469   1.857   0.833   4.101
  486SOL    HW1 1470   1.899   0.769   4.165
  486SOL    HW2 1471   1.819   0.782   4.023
  487SOL     OW 1472   0.488   1.385   3.898
  487SOL    HW1 1473   0.401   1.370   3.945
  487SOL    HW2 1474   0.471   1.411   3.803
  488SOL     OW 1475   1.664   1.280   4.381
  488SOL    HW1 1476   1.763   1.288   4.395
  488SOL    HW2 1477   1.619   1.364   4.412
  489SOL     OW 1478   1.390   0.575   3.802
  489SOL    HW1 1479   1.336   0.554   3.883
  489SOL    HW2 1480   1.481   0.534   3.811
  490SOL     OW 1481   0.527   0.256   4.052
  490SOL    HW1 1482   0.554   0.197   3.977
  490SOL    HW2 1483   0.527   0.351   4.021
  491SOL     OW 1484   1.638   1.099   4.803
  491SOL    HW1 1485   1.643   1.180   4.862
  491SOL    HW2 1486   1.552   1.101   4.752
  492SOL     OW 1487   0.705   1.050   4.092
  492SOL    HW1 1488   0.691   1.057   4.191
  492SOL    HW2 1489   0.789   0.999   4.074
  493SOL     OW 1490   0.367   1.100   4.225
  493SOL    HW1 1491   0.360   1.183   4.169
  493SOL    HW2 1492   0.371   1.020   4.165
  494SOL     OW 1493   0.566   0.537   4.589
  494SOL    HW1 1494   0.578   0.603   4.515
  494SOL    HW2 1495   0.612   0.571   4.672
  495SOL     OW 1496   1.252   1.348   4.112
  495SOL    HW1 1497   1.302   1.425   4.152
  495SOL    HW2 1498   1.157   1.350   4.144
  496SOL     OW 1499   1.582   0.639   4.196
  496SOL    HW1 1500   1.551   0.700   4.269
  496SOL    HW2 1501   1.632   0.691   4.127
  497SOL     OW 1502   0.573   0.870   4.753
  497SOL    HW1 1503   0.617   0.959   4.744
  497SOL    HW2 1504   0.510   0.870   4.830
  498SOL     OW 1505   1.209   0.525   3.999
  498SOL    HW1 1506   1.222   0.441   4.053
  498SOL    HW2 1507   1.180   0.599   4.059
  499SOL     OW 1508   0.732   0.634   4.788
  499SOL    HW1 1509   0.791   0.608   4.712
  499SOL    HW2 1510   0.704   0.730   4.777
  500SOL     OW 1511   0.307   0.063   4.342
  500SOL    HW1 1512   0.296   0.157   4.375
  500SOL    HW2 1513   0.302   0.000   4.419
  501SOL     OW 1514   1.622   0.367   4.098
  501SOL    HW1 1515   1.624   0.291   4.162
  501SOL    HW2 1516   1.574   0.444   4.138
  502SOL     OW 1517   1.540   0.274   3.849
  502SOL    HW1 1518   1.479   0.199   3.872
  502SOL    HW2 1519   1.562   0.326   3.932
  503SOL     OW 1520   1.303   0.838   3.766
  503SOL    HW1 1521   1.337   0.745   3.781
  503SOL    HW2 1522   1.321   0.865   3.671
  504SOL     OW 1523   1.068   1.333   4.573
  504SOL    HW1 1524   1.075   1.249   4.518
  504SOL    HW2 1525   1.130   1.402   4.537
  505SOL     OW 1526   0.319   0.810   4.673
  505SOL    HW1 1527   0.412   0.846   4.678
  505SOL    HW2 1528   0.313   0.725   4.725
  506SOL     OW 1529   0.339   0.509   4.730
  506SOL    HW1 1530   0.287   0.426   4.713
  506SOL    HW2 1531   0.416   0.514   4.666
  507SOL     OW 1532   0.008   1.326   3.924
  507SOL    HW1 1533  -0.085   1.347   3.893
  507SOL    HW2 1534   0.018   1.227   3.937
  508SOL     OW 1535   0.088   1.801   4.651
  508SOL    HW1 1536   0.046   1.715   4.624
  508SOL    HW2 1537   0.182   1.804   4.617
  509SOL     OW 1538   0.504   1.568   4.634
  509SOL    HW1 1539   0.570   1.642   4.643
  509SOL    HW2 1540   0.548   1.489   4.592
  510SOL     OW 1541   0.815   0.572   4.049
  510SOL    HW1 1542   0.822   0.483   4.003
  510SOL    HW2 1543   0.721   0.606   4.041
  511SOL     OW 1544   0.671   0.464   4.993
  511SOL    HW1 1545   0.637   0.375   4.963
  511SOL    HW2 1546   0.697   0.518   4.913
  512SOL     OW 1547   0.473   0.500   3.915
  512SOL    HW1 1548   0.534   0.580   3.919
  512SOL    HW2 1549   0.378   0.531   3.922
  513SOL     OW 1550   1.302   0.855   4.033
  513SOL    HW1 1551   1.216   0.824   4.075
  513SOL    HW2 1552   1.298   0.841   3.934
  514SOL     OW 1553   1.759   1.747   4.878
  514SOL    HW1 1554   1.820   1.777   4.805
  514SOL    HW2 1555   1.721   1.658   4.856
  515SOL     OW 1556   0.083   1.258   4.746
  515SOL    HW1 1557   0.078   1.257   4.846
  515SOL    HW2 1558   0.000   1.217   4.708
  516SOL     OW 1559   1.726   0.135   4.247
  516SOL    HW1 1560   1.799   0.118   4.180
  516SOL    HW2 1561   1.695   0.048   4.285
  517SOL     OW 1562   1.388   1.573   4.201
  517SOL    HW1 1563   1.455   1.585   4.127
  517SOL    HW2 1564   1.348   1.662   4.224
  518SOL     OW 1565   1.280   0.927   4.396
  518SOL    HW1 1566   1.340   0.846   4.398
  518SOL    HW2 1567   1.320   0.996   4.336
  519SOL     OW 1568   0.672   1.616   3.878
  519SOL    HW1 1569   0.681   1.626   3.779
  519SOL    HW2 1570   0.632   1.527   3.899
  520SOL     OW 1571   1.841   0.175   4.687
  520SOL    HW1 1572   1.880   0.090   4.651
  520SOL    HW2 1573   1.743   0.177   4.668
  521SOL     OW 1574   0.263   0.326   4.444
  521SOL    HW1 1575   0.184   0.377   4.410
  521SOL    HW2 1576   0.254   0.311   4.542
  522SOL     OW 1577   1.194   1.612   3.755
  522SOL    HW1 1578   1.200   1.519   3.792
  522SOL    HW2 1579   1.135   1.612   3.675
  523SOL     OW 1580   0.916   0.910   4.015
  523SOL    HW1 1581   0.979   0.948   3.947
  523SOL    HW2 1582   0.956   0.827   4.054
  524SOL     OW 1583   1.504   1.607   3.768
  524SOL    HW1 1584   1.412   1.644   3.775
  524SOL    HW2 1585   1.542   1.627   3.678
  525SOL     OW 1586   1.039   1.098   4.420
  525SOL    HW1 1587   0.969   1.051   4.474
  525SOL    HW2 1588   1.098   1.030   4.377
  526SOL     OW 1589   0.590   1.487   4.215
  526SOL    HW1 1590   0.632   1.429   4.145
  526SOL    HW2 1591   0.546   1.566   4.171
  527SOL     OW 1592   0.255   1.348   4.014
  527SOL    HW1 1593   0.159   1.349   3.987
  527SOL    HW2 1594   0.267   1.401   4.098
  528SOL     OW 1595   0.075   0.345   3.757
  528SOL    HW1 1596  -0.017   0.317   3.728
  528SOL    HW2 1597   0.106   0.422   3.701
  529SOL     OW 1598   0.072   0.166   4.042
  529SOL    HW1 1599   0.055   0.249   3.988
  529SOL    HW2 1600   0.162   0.129   4.020
  530SOL     OW 1601   1.183   1.335   3.843
  530SOL    HW1 1602   1.084   1.324   3.845
  530SOL    HW2 1603   1.217   1.350   3.936
  531SOL     OW 1604   1.674   0.883   4.978
  531SOL    HW1 1605   1.647   0.794   4.941
  531SOL    HW2 1606   1.675   0.951   4.905
  532SOL     OW 1607   1.225   0.325   4.173
  532SOL    HW1 1608   1.290   0.251   4.162
  532SOL    HW2 1609   1.245   0.375   4.257
  533SOL     OW 1610   0.594   0.745   4.376
  533SOL    HW1 1611   0.644   0.830   4.357
  533SOL    HW2 1612   0.506   0.747   4.328
  534SOL     OW 1613   0.859   1.374   3.740
  534SOL    HW1 1614   0.813   1.389   3.828
  534SOL    HW2 1615   0.903   1.459   3.710
  535SOL     OW 1616   0.661   1.790   4.677
  535SOL    HW1 1617   0.615   1.878   4.664
  535SOL    HW2 1618   0.760   1.802   4.670
  536SOL     OW 1619   0.859   0.956   4.585
  536SOL    HW1 1620   0.913   0.887   4.633
  536SOL    HW2 1621   0.827   1.025   4.651
  537SOL     OW 1622   1.083   0.984   3.811
  537SOL    HW1 1623   1.060   1.037   3.729
  537SOL    HW2 1624   1.164   0.928   3.792
  538SOL     OW 1625   1.861   1.569   4.575
  538SOL    HW1 1626   1.790   1.557   4.505
  538SOL    HW2 1627   1.862   1.490   4.635
  539SOL     OW 1628   0.079   1.240   4.377
  539SOL    HW1 1629   0.078   1.193   4.465
  539SOL    HW2 1630   0.161   1.212   4.326
  540SOL     OW 1631   1.824   0.192   4.951
  540SOL    HW1 1632   1.820   0.102   4.995
  540SOL    HW2 1633   1.827   0.181   4.852
  541SOL     OW 1634   0.428   0.424   4.244
  541SOL    HW1 1635   0.458   0.352   4.182
  541SOL    HW2 1636   0.389   0.384   4.327
  542SOL     OW 1637   0.812   1.586   4.411
  542SOL    HW1 1638   0.844   1.596   4.317
  542SOL    HW2 1639   0.733   1.524   4.413
  543SOL     OW 1640   0.770   1.330   4.025
  543SOL    HW1 1641   0.724   1.243   4.042
  543SOL    HW2 1642   0.861   1.327   4.066
  544SOL     OW 1643   1.352   0.052   3.892
  544SOL    HW1 1644   1.387   0.011   3.808
  544SOL    HW2 1645   1.262   0.014   3.912
  545SOL     OW 1646   1.300   0.453   4.415
  545SOL    HW1 1647   1.241   0.533   4.419
  545SOL    HW2 1648   1.315   0.418   4.508
  546SOL     OW 1649   1.593   0.221   4.606
  546SOL    HW1 1650   1.509   0.220   4.660
  546SOL    HW2 1651   1.595   0.304   4.550
  547SOL     OW 1652   0.039   1.077   4.024
  547SOL    HW1 1653   0.138   1.066   4.015
  547SOL    HW2 1654  -0.001   0.991   4.056
  548SOL     OW 1655   0.875   1.646   4.061
  548SOL    HW1 1656   0.798   1.611   4.007
  548SOL    HW2 1657   0.843   1.717   4.123
  549SOL     OW 1658   0.230   2.490   0.113
  549SOL    HW1 1659   0.137   2.488   0.150
  549SOL    HW2 1660   0.231   2.451   0.021
  550SOL     OW 1661   0.225   2.137   0.996
  550SOL    HW1 1662   0.260   2.120   1.088
  550SOL    HW2 1663   0.137   2.092   0.984
  551SOL     OW 1664   0.019   2.230   0.647
  551SOL    HW1 1665  -0.063   2.273   0.686
  551SOL    HW2 1666  -0.009   2.157   0.584
  552SOL     OW 1667   0.569   3.137   1.165
  552SOL    HW1 1668   0.476   3.130   1.128
  552SOL    HW2 1669   0.580   3.226   1.209
  553SOL     OW 1670   1.555   3.373   0.703
  553SOL    HW1 1671   1.498   3.357   0.784
  553SOL    HW2 1672   1.496   3.383   0.623
  554SOL     OW 1673   1.135   2.565   0.717
  554SOL    HW1 1674   1.192   2.643   0.692
  554SOL    HW2 1675   1.075   2.591   0.793
  555SOL     OW 1676   1.755   2.469   0.231
  555SOL    HW1 1677   1.743   2.456   0.132
  555SOL    HW2 1678   1.725   2.388   0.280
  556SOL     OW 1679   0.768   3.006   1.023
  556SOL    HW1 1680   0.690   3.023   1.083
  556SOL    HW2 1681   0.802   3.093   0.987
  557SOL     OW 1682   0.850   2.660   1.823
  557SOL    HW1 1683   0.846   2.736   1.888
  557SOL    HW2 1684   0.872   2.696   1.732
  558SOL     OW 1685   0.685   2.874   0.665
  558SOL    HW1 1686   0.754   2.858   0.735
  558SOL    HW2 1687   0.612   2.931   0.703
  559SOL     OW 1688   0.686   3.023   1.803
  559SOL    HW1 1689   0.746   3.102   1.817
  559SOL    HW2 1690   0.600   3.054   1.762
  560SOL     OW 1691   0.335   3.297   1.061
  560SOL    HW1 1692   0.257   3.266   1.008
  560SOL    HW2 1693   0.393   3.355   1.004
  561SOL     OW 1694   1.460   3.367   1.339
  561SOL    HW1 1695   1.484   3.461   1.365
  561SOL    HW2 1696   1.444   3.313   1.421
  562SOL     OW 1697   0.438   2.254   1.499
  562SOL    HW1 1698   0.520   2.198   1.508
  562SOL    HW2 1699   0.357   2.196   1.503
  563SOL     OW 1700   1.603   2.309   0.737
  563SOL    HW1 1701   1.529   2.355   0.687
  563SOL    HW2 1702   1.654   2.377   0.790
  564SOL     OW 1703   0.231   3.575   0.483
  564SOL    HW1 1704   0.265   3.652   0.537
  564SOL    HW2 1705   0.275   3.575   0.393
  565SOL     OW 1706   1.127   3.203   1.690
  565SOL    HW1 1707   1.174   3.203   1.778
  565SOL    HW2 1708   1.079   3.116   1.679
  566SOL     OW 1709   0.230   3.296   0.538
  566SOL    HW1 1710   0.204   3.392   0.538
  566SOL    HW2 1711   0.159   3.242   0.583
  567SOL     OW 1712   0.240   2.953   0.886
  567SOL    HW1 1713   0.254   2.869   0.938
  567SOL    HW2 1714   0.185   3.017   0.941
  568SOL     OW 1715   0.620   3.648   1.439
  568SOL    HW1 1716   0.528   3.631   1.474
  568SOL    HW2 1717   0.648   3.740   1.465
  569SOL     OW 1718   0.606   2.826   0.123
  569SOL    HW1 1719   0.613   2.910   0.069
  569SOL    HW2 1720   0.652   2.839   0.211
  570SOL     OW 1721   1.594   1.976   1.480
  570SOL    HW1 1722   1.576   2.043   1.408
  570SOL    HW2 1723   1.591   2.022   1.569
  571SOL     OW 1724   0.122   2.505   0.563
  571SOL    HW1 1725   0.077   2.417   0.580
  571SOL    HW2 1726   0.121   2.559   0.647
  572SOL     OW 1727   1.842   3.629   0.359
  572SOL    HW1 1728   1.896   3.600   0.439
  572SOL    HW2 1729   1.872   3.719   0.330
  573SOL     OW 1730   0.027   3.458   0.117
  573SOL    HW1 1731   0.008   3.362   0.138
  573SOL    HW2 1732  -0.006   3.516   0.192
  574SOL     OW 1733   1.689   2.784   0.612
  574SOL    HW1 1734   1.784   2.755   0.620
  574SOL    HW2 1735   1.681   2.849   0.537
  575SOL     OW 1736   1.641   2.970   0.432
  575SOL    HW1 1737   1.727   2.972   0.380
  575SOL    HW2 1738   1.655   3.017   0.520
  576SOL     OW 1739   0.113   2.599   1.597
  576SOL    HW1 1740   0.201   2.586   1.642
  576SOL    HW2 1741   0.100   2.696   1.575
  577SOL     OW 1742   0.613   3.227   0.726
  577SOL    HW1 1743   0.564   3.140   0.735
  577SOL    HW2 1744   0.590   3.270   0.639
  578SOL     OW 1745   1.293   3.090   1.423
  578SOL    HW1 1746   1.330   3.017   1.365
  578SOL    HW2 1747   1.345   3.095   1.508
  579SOL     OW 1748   0.809   1.866   0.502
  579SOL    HW1 1749   0.849   1.957   0.493
  579SOL    HW2 1750   0.709   1.874   0.508
  580SOL     OW 1751   0.197   2.838   1.264
  580SOL    HW1 1752   0.286   2.793   1.250
  580SOL    HW2 1753   0.124   2.773   1.245
  581SOL     OW 1754   1.525   2.861   0.190
  581SOL    HW1 1755   1.462   2.785   0.203
  581SOL    HW2 1756   1.573   2.879   0.276
  582SOL     OW 1757   1.187   3.654   1.616
  582SOL    HW1 1758   1.211   3.714   1.540
  582SOL    HW2 1759   1.194   3.559   1.586
  583SOL     OW 1760   0.317   2.113   1.801
  583SOL    HW1 1761   0.388   2.184   1.807
  583SOL    HW2 1762   0.229   2.152   1.829
  584SOL     OW 1763   1.466   3.279   0.953
  584SOL    HW1 1764   1.407   3.285   1.033
  584SOL    HW2 1765   1.451   3.191   0.907
  585SOL     OW 1766   1.667   3.576   0.572
  585SOL    HW1 1767   1.626   3.553   0.484
  585SOL    HW2 1768   1.649   3.502   0.637
  586SOL     OW 1769   0.598   2.591   0.270
  586SOL    HW1 1770   0.622   2.660   0.202
  586SOL    HW2 1771   0.520   2.624   0.324
  587SOL     OW 1772   1.281   2.207   0.944
  587SOL    HW1 1773   1.195   2.157   0.931
  587SOL    HW2 1774   1.343   2.153   1.000
  588SOL     OW 1775   1.576   3.524   0.307
  588SOL    HW1 1776   1.665   3.570   0.310
  588SOL    HW2 1777   1.555   3.500   0.212
  589SOL     OW 1778   0.807   2.467   1.465
  589SOL    HW1 1779   0.760   2.464   1.554
  589SOL    HW2 1780   0.756   2.412   1.399
  590SOL     OW 1781   1.394   2.331   1.674
  590SOL    HW1 1782   1.374   2.374   1.762
  590SOL    HW2 1783   1.472   2.269   1.683
  591SOL     OW 1784   0.973   2.752   1.572
  591SOL    HW1 1785   1.019   2.668   1.543
  591SOL    HW2 1786   0.917   2.786   1.497
  592SOL     OW 1787   0.991   2.272   1.242
  592SOL    HW1 1788   0.914   2.306   1.296
  592SOL    HW2 1789   0.957   2.221   1.163
  593SOL     OW 1790   1.041   2.563   0.429
  593SOL    HW1 1791   1.067   2.559   0.525
  593SOL    HW2 1792   0.956   2.512   0.415
  594SOL     OW 1793   0.076   2.673   0.789
  594SOL    HW1 1794   0.175   2.661   0.798
  594SOL    HW2 1795   0.052   2.768   0.810
  595SOL     OW 1796   0.130   3.683   1.571
  595SOL    HW1 1797   0.120   3.668   1.670
  595SOL    HW2 1798   0.044   3.719   1.535
  596SOL     OW 1799   0.865   2.210   0.195
  596SOL    HW1 1800   0.924   2.273   0.146
  596SOL    HW2 1801   0.884   2.116   0.166
  597SOL     OW 1802   1.719   2.447   1.831
  597SOL    HW1 1803   1.693   2.536   1.795
  597SOL    HW2 1804   1.717   2.379   1.758
  598SOL     OW 1805   1.362   3.006   0.545
  598SOL    HW1 1806   1.445   2.977   0.497
  598SOL    HW2 1807   1.313   3.073   0.489
  599SOL     OW 1808   0.550   2.058   0.885
  599SOL    HW1 1809   0.545   2.053   0.985
  599SOL    HW2 1810   0.552   2.154   0.856
  600SOL     OW 1811   1.008   3.318   0.477
  600SOL    HW1 1812   0.962   3.390   0.425
  600SOL    HW2 1813   1.004   3.338   0.575
  601SOL     OW 1814   0.351   3.663   0.853
  601SOL    HW1 1815   0.401   3.577   0.859
  601SOL    HW2 1816   0.416   3.740   0.850
  602SOL     OW 1817   1.795   2.928   0.873
  602SOL    HW1 1818   1.733   2.913   0.797
  602SOL    HW2 1819   1.743   2.939   0.958
  603SOL     OW 1820   1.227   3.412   1.506
  603SOL    HW1 1821   1.233   3.335   1.570
  603SOL    HW2 1822   1.175   3.386   1.426
  604SOL     OW 1823   0.321   2.805   0.242
  604SOL    HW1 1824   0.403   2.844   0.200
  604SOL    HW2 1825   0.294   2.723   0.193
  605SOL     OW 1826   1.458   2.597   0.728
  605SOL    HW1 1827   1.453   2.532   0.803
  605SOL    HW2 1828   1.538   2.656   0.741
  606SOL     OW 1829   0.461   3.128   1.727
  606SOL    HW1 1830   0.411   3.129   1.641
  606SOL    HW2 1831   0.398   3.110   1.803
  607SOL     OW 1832   1.111   3.638   0.237
  607SOL    HW1 1833   1.051   3.576   0.287
  607SOL    HW2 1834   1.142   3.594   0.152
  608SOL     OW 1835   0.202   2.147   1.498
  608SOL    HW1 1836   0.122   2.207   1.485
  608SOL    HW2 1837   0.192   2.098   1.584
  609SOL     OW 1838   1.632   3.239   0.081
  609SOL    HW1 1839   1.600   3.333   0.071
  609SOL    HW2 1840   1.556   3.176   0.069
  610SOL     OW 1841   0.464   3.605   0.323
  610SOL    HW1 1842   0.497   3.644   0.409
  610SOL    HW2 1843   0.540   3.598   0.258
  611SOL     OW 1844   1.400   1.969   0.426
  611SOL    HW1 1845   1.376   1.932   0.336
  611SOL    HW2 1846   1.499   1.985   0.430
  612SOL     OW 1847   0.249   3.647   1.241
  612SOL    HW1 1848   0.306   3.582   1.291
  612SOL    HW2 1849   0.233   3.614   1.148
  613SOL     OW 1850   0.940   3.560   0.904
  613SOL    HW1 1851   1.020   3.503   0.925
  613SOL    HW2 1852   0.891   3.520   0.827
  614SOL     OW 1853   0.382   2.562   0.480
  614SOL    HW1 1854   0.427   2.472   0.477
  614SOL    HW2 1855   0.288   2.551   0.513
  615SOL     OW 1856   1.547   2.084   1.729
  615SOL    HW1 1857   1.542   2.121   1.821
  615SOL    HW2 1858   1.475   2.015   1.717
  616SOL     OW 1859   0.614   1.984   0.117
  616SOL    HW1 1860   0.712   1.962   0.124
  616SOL    HW2 1861   0.583   1.967   0.024
  617SOL     OW 1862   0.781   2.126   1.749
  617SOL    HW1 1863   0.848   2.065   1.792
  617SOL    HW2 1864   0.708   2.145   1.814
  618SOL     OW 1865   0.888   3.376   1.195
  618SOL    HW1 1866   0.865   3.351   1.101
  618SOL    HW2 1867   0.949   3.307   1.234
  619SOL     OW 1868   1.351   2.452   1.433
  619SOL    HW1 1869   1.379   2.409   1.518
  619SOL    HW2 1870   1.376   2.548   1.434
  620SOL     OW 1871   0.803   3.264   0.924
  620SOL    HW1 1872   0.893   3.278   0.882
  620SOL    HW2 1873   0.732   3.266   0.853
  621SOL     OW 1874   0.922   2.365   0.899
  621SOL    HW1 1875   0.897   2.356   0.803
  621SOL    HW2 1876   0.970   2.283   0.930
  622SOL     OW 1877   0.539   1.926   0.512
  622SOL    HW1 1878   0.458   1.927   0.570
  622SOL    HW2 1879   0.542   2.009   0.457
  623SOL     OW 1880   1.434   3.050   0.041
  623SOL    HW1 1881   1.466   2.974   0.098
  623SOL    HW2 1882   1.342   3.077   0.071
  624SOL     OW 1883   0.935   2.098   0.480
  624SOL    HW1 1884   0.887   2.139   0.402
  624SOL    HW2 1885   1.034   2.096   0.461
  625SOL     OW 1886   1.076   2.545   1.464
  625SOL    HW1 1887   0.996   2.484   1.467
  625SOL    HW2 1888   1.157   2.492   1.440
  626SOL     OW 1889   1.227   3.432   0.793
  626SOL    HW1 1890   1.248   3.506   0.728
  626SOL    HW2 1891   1.295   3.432   0.866
  627SOL     OW 1892   0.459   3.014   0.741
  627SOL    HW1 1893   0.388   2.987   0.806
  627SOL    HW2 1894   0.433   2.986   0.648
  628SOL     OW 1895   1.271   3.659   0.591
  628SOL    HW1 1896   1.315   3.723   0.527
  628SOL    HW2 1897   1.221   3.711   0.661
  629SOL     OW 1898   1.032   2.411   0.016
  629SOL    HW1 1899   0.991   2.493  -0.023
  629SOL    HW2 1900   1.096   2.437   0.089
  630SOL     OW 1901   0.078   2.418   1.386
  630SOL    HW1 1902   0.170   2.417   1.345
  630SOL    HW2 1903   0.072   2.492   1.453
  631SOL     OW 1904   0.561   2.084   1.147
  631SOL    HW1 1905   0.599   2.000   1.184
  631SOL    HW2 1906   0.473   2.103   1.191
  632SOL     OW 1907   0.866   2.316   0.642
  632SOL    HW1 1908   0.834   2.388   0.580
  632SOL    HW2 1909   0.890   2.235   0.589
  633SOL     OW 1910   1.017   1.901   0.753
  633SOL    HW1 1911   0.945   1.906   0.684
  633SOL    HW2 1912   0.993   1.832   0.822
  634SOL     OW 1913   1.429   3.035   0.867
  634SOL    HW1 1914   1.374   2.951   0.860
  634SOL    HW2 1915   1.455   3.064   0.775
  635SOL     OW 1916   1.466   2.452   0.992
  635SOL    HW1 1917   1.436   2.357   0.999
  635SOL    HW2 1918   1.539   2.468   1.058
  636SOL     OW 1919   1.857   2.695   0.377
  636SOL    HW1 1920   1.899   2.631   0.441
  636SOL    HW2 1921   1.819   2.644   0.299
  637SOL     OW 1922   0.488   3.247   0.174
  637SOL    HW1 1923   0.401   3.232   0.221
  637SOL    HW2 1924   0.471   3.273   0.079
  638SOL     OW 1925   1.664   3.142   0.657
  638SOL    HW1 1926   1.763   3.150   0.671
  638SOL    HW2 1927   1.619   3.226   0.688
  639SOL     OW 1928   1.390   2.437   0.078
  639SOL    HW1 1929   1.336   2.416   0.159
  639SOL    HW2 1930   1.481   2.396   0.087
  640SOL     OW 1931   0.527   2.118   0.328
  640SOL    HW1 1932   0.554   2.059   0.253
  640SOL    HW2 1933   0.527   2.213   0.297
  641SOL     OW 1934   1.754   3.085   1.588
  641SOL    HW1 1935   1.845   3.046   1.575
  641SOL    HW2 1936   1.762   3.181   1.612
  642SOL     OW 1937   1.064   3.209   1.340
  642SOL    HW1 1938   0.984   3.186   1.395
  642SOL    HW2 1939   1.147   3.183   1.389
  643SOL     OW 1940   1.592   3.491   1.625
  643SOL    HW1 1941   1.619   3.525   1.535
  643SOL    HW2 1942   1.671   3.453   1.671
  644SOL     OW 1943   1.111   3.057   1.100
  644SOL    HW1 1944   1.071   3.101   1.181
  644SOL    HW2 1945   1.070   3.094   1.017
  645SOL     OW 1946   1.638   2.961   1.079
  645SOL    HW1 1947   1.643   3.042   1.138
  645SOL    HW2 1948   1.552   2.963   1.028
  646SOL     OW 1949   0.915   1.951   1.402
  646SOL    HW1 1950   0.940   1.931   1.307
  646SOL    HW2 1951   0.987   2.007   1.444
  647SOL     OW 1952   0.980   2.978   1.719
  647SOL    HW1 1953   0.881   2.984   1.729
  647SOL    HW2 1954   1.003   2.898   1.663
  648SOL     OW 1955   0.705   2.912   0.368
  648SOL    HW1 1956   0.691   2.919   0.467
  648SOL    HW2 1957   0.789   2.861   0.350
  649SOL     OW 1958   0.410   2.675   1.251
  649SOL    HW1 1959   0.496   2.687   1.301
  649SOL    HW2 1960   0.368   2.588   1.278
  650SOL     OW 1961   1.274   2.248   1.262
  650SOL    HW1 1962   1.295   2.322   1.326
  650SOL    HW2 1963   1.185   2.265   1.219
  651SOL     OW 1964   0.064   3.426   1.331
  651SOL    HW1 1965   0.018   3.508   1.297
  651SOL    HW2 1966   0.162   3.445   1.340
  652SOL     OW 1967   0.367   2.962   0.501
  652SOL    HW1 1968   0.360   3.045   0.445
  652SOL    HW2 1969   0.371   2.882   0.441
  653SOL     OW 1970   0.566   2.399   0.865
  653SOL    HW1 1971   0.578   2.465   0.791
  653SOL    HW2 1972   0.612   2.433   0.948
  654SOL     OW 1973   1.252   3.210   0.388
  654SOL    HW1 1974   1.302   3.287   0.428
  654SOL    HW2 1975   1.157   3.212   0.420
  655SOL     OW 1976   1.272   3.307   1.142
  655SOL    HW1 1977   1.319   3.320   1.229
  655SOL    HW2 1978   1.206   3.233   1.151
  656SOL     OW 1979   1.582   2.501   0.472
  656SOL    HW1 1980   1.551   2.562   0.545
  656SOL    HW2 1981   1.632   2.553   0.403
  657SOL     OW 1982   0.354   3.372   1.329
  657SOL    HW1 1983   0.333   3.328   1.242
  657SOL    HW2 1984   0.451   3.398   1.332
  658SOL     OW 1985   0.402   2.613   1.598
  658SOL    HW1 1986   0.470   2.668   1.551
  658SOL    HW2 1987   0.442   2.525   1.625
  659SOL     OW 1988   1.587   2.641   1.670
  659SOL    HW1 1989   1.495   2.679   1.665
  659SOL    HW2 1990   1.647   2.688   1.605
  660SOL     OW 1991   1.013   1.967   1.770
  660SOL    HW1 1992   1.019   2.052   1.718
  660SOL    HW2 1993   1.045   1.891   1.713
  661SOL     OW 1994   0.504   1.912   1.740
  661SOL    HW1 1995   0.462   1.855   1.670
  661SOL    HW2 1996   0.438   1.981   1.772
  662SOL     OW 1997   0.573   2.732   1.029
  662SOL    HW1 1998   0.617   2.821   1.020
  662SOL    HW2 1999   0.510   2.732   1.106
  663SOL     OW 2000   1.360   2.724   1.045
  663SOL    HW1 2001   1.285   2.724   0.979
  663SOL    HW2 2002   1.397   2.632   1.054
  664SOL     OW 2003   1.209   2.387   0.275
  664SOL    HW1 2004   1.222   2.303   0.329
  664SOL    HW2 2005   1.180   2.461   0.335
  665SOL     OW 2006   0.307   2.075   1.231
  665SOL    HW1 2007   0.284   2.112   1.321
  665SOL    HW2 2008   0.277   1.980   1.225
  666SOL     OW 2009   0.037   3.172   1.282
  666SOL    HW1 2010   0.090   3.123   1.350
  666SOL    HW2 2011   0.059   3.270   1.287
  667SOL     OW 2012   0.732   2.496   1.064
  667SOL    HW1 2013   0.791   2.470   0.988
  667SOL    HW2 2014   0.704   2.592   1.053
  668SOL     OW 2015   1.728   2.797   1.854
  668SOL    HW1 2016   1.682   2.790   1.765
  668SOL    HW2 2017   1.666   2.841   1.920
  669SOL     OW 2018   0.307   1.925   0.618
  669SOL    HW1 2019   0.296   2.019   0.651
  669SOL    HW2 2020   0.302   1.862   0.695
  670SOL     OW 2021   1.622   2.229   0.374
  670SOL    HW1 2022   1.624   2.153   0.438
  670SOL    HW2 2023   1.574   2.306   0.414
  671SOL     OW 2024   1.023   2.628   0.966
  671SOL    HW1 2025   1.038   2.649   1.062
  671SOL    HW2 2026   0.993   2.533   0.957
  672SOL     OW 2027   0.980   3.435   1.700
  672SOL    HW1 2028   0.960   3.479   1.612
  672SOL    HW2 2029   1.019   3.344   1.684
  673SOL     OW 2030   1.859   3.380   1.605
  673SOL    HW1 2031   1.873   3.407   1.510
  673SOL    HW2 2032   1.942   3.402   1.658
  674SOL     OW 2033   0.350   2.760   1.804
  674SOL    HW1 2034   0.426   2.804   1.852
  674SOL    HW2 2035   0.385   2.713   1.722
  675SOL     OW 2036   1.540   2.136   0.125
  675SOL    HW1 2037   1.479   2.061   0.148
  675SOL    HW2 2038   1.562   2.188   0.208
  676SOL     OW 2039   1.303   2.700   0.042
  676SOL    HW1 2040   1.337   2.607   0.057
  676SOL    HW2 2041   1.321   2.727  -0.053
  677SOL     OW 2042   1.068   3.195   0.849
  677SOL    HW1 2043   1.075   3.111   0.794
  677SOL    HW2 2044   1.130   3.264   0.813
  678SOL     OW 2045   0.319   2.672   0.949
  678SOL    HW1 2046   0.412   2.708   0.954
  678SOL    HW2 2047   0.313   2.587   1.001
  679SOL     OW 2048   0.339   2.371   1.006
  679SOL    HW1 2049   0.287   2.288   0.989
  679SOL    HW2 2050   0.416   2.376   0.942
  680SOL     OW 2051   1.138   2.242   1.678
  680SOL    HW1 2052   1.093   2.305   1.742
  680SOL    HW2 2053   1.231   2.273   1.661
  681SOL     OW 2054   1.160   2.069   1.477
  681SOL    HW1 2055   1.160   2.133   1.554
  681SOL    HW2 2056   1.188   2.117   1.394
  682SOL     OW 2057   0.008   3.188   0.200
  682SOL    HW1 2058  -0.085   3.209   0.169
  682SOL    HW2 2059   0.018   3.089   0.213
  683SOL     OW 2060   0.088   3.663   0.927
  683SOL    HW1 2061   0.046   3.577   0.900
  683SOL    HW2 2062   0.182   3.666   0.893
  684SOL     OW 2063   0.504   3.430   0.910
  684SOL    HW1 2064   0.570   3.504   0.919
  684SOL    HW2 2065   0.548   3.351   0.868
  685SOL     OW 2066   1.002   2.658   1.238
  685SOL    HW1 2067   1.043   2.626   1.324
  685SOL    HW2 2068   0.906   2.631   1.235
  686SOL     OW 2069   0.040   2.406   1.114
  686SOL    HW1 2070   0.125   2.373   1.073
  686SOL    HW2 2071   0.053   2.421   1.212
  687SOL     OW 2072   0.189   2.382   1.722
  687SOL    HW1 2073   0.248   2.342   1.652
  687SOL    HW2 2074   0.131   2.453   1.681
  688SOL     OW 2075   1.369   2.812   1.660
  688SOL    HW1 2076   1.408   2.901   1.680
  688SOL    HW2 2077   1.379   2.792   1.563
  689SOL     OW 2078   0.815   2.434   0.325
  689SOL    HW1 2079   0.822   2.345   0.279
  689SOL    HW2 2080   0.721   2.468   0.317
  690SOL     OW 2081   1.657   2.466   1.206
  690SOL    HW1 2082   1.619   2.397   1.268
  690SOL    HW2 2083   1.739   2.430   1.162
  691SOL     OW 2084   0.252   3.426   1.744
  691SOL    HW1 2085   0.222   3.483   1.820
  691SOL    HW2 2086   0.245   3.329   1.770
  692SOL     OW 2087   0.671   2.326   1.269
  692SOL    HW1 2088   0.637   2.237   1.239
  692SOL    HW2 2089   0.697   2.380   1.189
  693SOL     OW 2090   0.930   3.540   1.465
  693SOL    HW1 2091   0.906   3.522   1.370
  693SOL    HW2 2092   0.960   3.634   1.475
  694SOL     OW 2093   0.473   2.362   0.191
  694SOL    HW1 2094   0.534   2.442   0.195
  694SOL    HW2 2095   0.378   2.393   0.198
  695SOL     OW 2096   0.159   2.999   1.466
  695SOL    HW1 2097   0.181   2.938   1.542
  695SOL    HW2 2098   0.169   2.950   1.380
  696SOL     OW 2099   1.347   2.921   1.234
  696SOL    HW1 2100   1.371   2.858   1.160
  696SOL    HW2 2101   1.257   2.961   1.216
  697SOL     OW 2102   1.302   2.717   0.309
  697SOL    HW1 2103   1.216   2.686   0.351
  697SOL    HW2 2104   1.298   2.703   0.210
  698SOL     OW 2105   1.759   3.609   1.154
  698SOL    HW1 2106   1.820   3.639   1.081
  698SOL    HW2 2107   1.721   3.520   1.132
  699SOL     OW 2108   1.252   3.593   1.128
  699SOL    HW1 2109   1.336   3.598   1.074
  699SOL    HW2 2110   1.229   3.497   1.146
  700SOL     OW 2111   0.083   3.120   1.022
  700SOL    HW1 2112   0.078   3.119   1.122
  700SOL    HW2 2113   0.000   3.079   0.984
  701SOL     OW 2114   0.688   3.524   1.716
  701SOL    HW1 2115   0.632   3.605   1.725
  701SOL    HW2 2116   0.740   3.528   1.630
  702SOL     OW 2117   0.903   1.948   0.133
  702SOL    HW1 2118   0.954   1.949   0.047
  702SOL    HW2 2119   0.959   1.906   0.204
  703SOL     OW 2120   1.726   1.997   0.523
  703SOL    HW1 2121   1.799   1.980   0.456
  703SOL    HW2 2122   1.695   1.910   0.561
  704SOL     OW 2123   1.388   3.435   0.477
  704SOL    HW1 2124   1.455   3.447   0.403
  704SOL    HW2 2125   1.348   3.524   0.500
  705SOL     OW 2126   0.130   3.656   1.851
  705SOL    HW1 2127   0.089   3.582   1.904
  705SOL    HW2 2128   0.194   3.707   1.909
  706SOL     OW 2129   1.280   2.789   0.672
  706SOL    HW1 2130   1.340   2.708   0.674
  706SOL    HW2 2131   1.320   2.858   0.612
  707SOL     OW 2132   0.830   3.135   1.422
  707SOL    HW1 2133   0.825   3.168   1.517
  707SOL    HW2 2134   0.744   3.154   1.376
  708SOL     OW 2135   0.672   3.478   0.154
  708SOL    HW1 2136   0.681   3.488   0.055
  708SOL    HW2 2137   0.632   3.389   0.175
  709SOL     OW 2138   1.650   3.582   1.394
  709SOL    HW1 2139   1.703   3.592   1.310
  709SOL    HW2 2140   1.623   3.672   1.428
  710SOL     OW 2141   1.841   2.037   0.963
  710SOL    HW1 2142   1.880   1.952   0.927
  710SOL    HW2 2143   1.743   2.039   0.944
  711SOL     OW 2144   0.263   2.188   0.720
  711SOL    HW1 2145   0.184   2.239   0.686
  711SOL    HW2 2146   0.254   2.173   0.818
  712SOL     OW 2147   1.194   3.474   0.031
  712SOL    HW1 2148   1.200   3.381   0.068
  712SOL    HW2 2149   1.135   3.474  -0.049
  713SOL     OW 2150   0.822   2.864   1.372
  713SOL    HW1 2151   0.862   2.863   1.280
  713SOL    HW2 2152   0.832   2.956   1.412
  714SOL     OW 2153   0.916   2.772   0.291
  714SOL    HW1 2154   0.979   2.810   0.223
  714SOL    HW2 2155   0.956   2.689   0.330
  715SOL     OW 2156   1.504   3.469   0.044
  715SOL    HW1 2157   1.412   3.506   0.051
  715SOL    HW2 2158   1.542   3.489  -0.046
  716SOL     OW 2159   0.372   3.150   1.490
  716SOL    HW1 2160   0.359   3.243   1.456
  716SOL    HW2 2161   0.288   3.098   1.477
  717SOL     OW 2162   1.614   3.154   1.289
  717SOL    HW1 2163   1.674   3.157   1.369
  717SOL    HW2 2164   1.539   3.218   1.302
  718SOL     OW 2165   1.039   2.960   0.696
  718SOL    HW1 2166   0.969   2.913   0.750
  718SOL    HW2 2167   1.098   2.892   0.653
  719SOL     OW 2168   1.014   2.098   0.971
  719SOL    HW1 2169   1.006   2.062   0.878
  719SOL    HW2 2170   1.012   2.022   1.036
  720SOL     OW 2171   0.590   3.349   0.491
  720SOL    HW1 2172   0.632   3.291   0.421
  720SOL    HW2 2173   0.546   3.428   0.447
  721SOL     OW 2174   1.709   2.247   1.381
  721SOL    HW1 2175   1.782   2.316   1.385
  721SOL    HW2 2176   1.737   2.172   1.322
  722SOL     OW 2177   0.255   3.210   0.290
  722SOL    HW1 2178   0.159   3.211   0.263
  722SOL    HW2 2179   0.267   3.263   0.374
  723SOL     OW 2180   0.105   2.875   1.726
  723SOL    HW1 2181   0.028   2.842   1.780
  723SOL    HW2 2182   0.190   2.845   1.768
  724SOL     OW 2183   0.672   2.065   1.489
  724SOL    HW1 2184   0.762   2.049   1.449
  724SOL    HW2 2185   0.680   2.070   1.588
  725SOL     OW 2186   0.075   2.207   0.033
  725SOL    HW1 2187  -0.017   2.179   0.004
  725SOL    HW2 2188   0.106   2.284  -0.023
  726SOL     OW 2189   1.440   2.718   1.398
  726SOL    HW1 2190   1.383   2.770   1.335
  726SOL    HW2 2191   1.536   2.730   1.374
  727SOL     OW 2192   0.072   2.028   0.318
  727SOL    HW1 2193   0.055   2.111   0.264
  727SOL    HW2 2194   0.162   1.991   0.296
  728SOL     OW 2195   1.183   3.197   0.119
  728SOL    HW1 2196   1.084   3.186   0.121
  728SOL    HW2 2197   1.217   3.212   0.212
  729SOL     OW 2198   0.613   2.704   1.431
  729SOL    HW1 2199   0.669   2.785   1.414
  729SOL    HW2 2200   0.672   2.624   1.434
  730SOL     OW 2201   1.493   3.629   0.959
  730SOL    HW1 2202   1.526   3.693   0.890
  730SOL    HW2 2203   1.559   3.623   1.034
  731SOL     OW 2204   0.716   2.427   1.708
  731SOL    HW1 2205   0.735   2.492   1.782
  731SOL    HW2 2206   0.776   2.347   1.717
  732SOL     OW 2207   1.450   3.082   1.633
  732SOL    HW1 2208   1.441   3.072   1.732
  732SOL    HW2 2209   1.546   3.075   1.607
  733SOL     OW 2210   0.390   3.603   1.560
  733SOL    HW1 2211   0.299   3.644   1.558
  733SOL    HW2 2212   0.383   3.509   1.592
  734SOL     OW 2213   1.674   2.745   1.254
  734SOL    HW1 2214   1.647   2.656   1.217
  734SOL    HW2 2215   1.675   2.813   1.181
  735SOL     OW 2216   1.225   2.187   0.449
  735SOL    HW1 2217   1.290   2.113   0.438
  735SOL    HW2 2218   1.245   2.237   0.533
  736SOL     OW 2219   0.594   2.607   0.652
  736SOL    HW1 2220   0.644   2.692   0.633
  736SOL    HW2 2221   0.506   2.609   0.604
  737SOL     OW 2222   1.777   2.204   1.642
  737SOL    HW1 2223   1.760   2.235   1.548
  737SOL    HW2 2224   1.693   2.167   1.680
  738SOL     OW 2225   1.730   2.796   1.517
  738SOL    HW1 2226   1.768   2.887   1.532
  738SOL    HW2 2227   1.722   2.779   1.418
  739SOL     OW 2228   0.859   3.236   0.016
  739SOL    HW1 2229   0.813   3.251   0.104
  739SOL    HW2 2230   0.903   3.321  -0.014
  740SOL     OW 2231   0.661   3.652   0.953
  740SOL    HW1 2232   0.615   3.740   0.940
  740SOL    HW2 2233   0.760   3.664   0.946
  741SOL     OW 2234   0.859   2.818   0.861
  741SOL    HW1 2235   0.913   2.749   0.909
  741SOL    HW2 2236   0.827   2.887   0.927
  742SOL     OW 2237   1.083   2.846   0.087
  742SOL    HW1 2238   1.060   2.899   0.005
  742SOL    HW2 2239   1.164   2.790   0.068
  743SOL     OW 2240   1.861   3.431   0.851
  743SOL    HW1 2241   1.790   3.419   0.781
  743SOL    HW2 2242   1.862   3.352   0.911
  744SOL     OW 2243   0.221   3.176   1.844
  744SOL    HW1 2244   0.156   3.103   1.823
  744SOL    HW2 2245   0.225   3.190   1.942
  745SOL     OW 2246   0.079   3.102   0.653
  745SOL    HW1 2247   0.078   3.055   0.741
  745SOL    HW2 2248   0.161   3.074   0.602
  746SOL     OW 2249   0.672   3.253   1.624
  746SOL    HW1 2250   0.594   3.203   1.662
  746SOL    HW2 2251   0.669   3.348   1.655
  747SOL     OW 2252   1.824   2.054   1.227
  747SOL    HW1 2253   1.820   1.964   1.271
  747SOL    HW2 2254   1.827   2.043   1.128
  748SOL     OW 2255   0.428   2.286   0.520
  748SOL    HW1 2256   0.458   2.214   0.458
  748SOL    HW2 2257   0.389   2.246   0.603
  749SOL     OW 2258   1.705   3.349   1.104
  749SOL    HW1 2259   1.612   3.324   1.077
  749SOL    HW2 2260   1.731   3.299   1.186
  750SOL     OW 2261   0.317   2.409   1.280
  750SOL    HW1 2262   0.355   2.350   1.352
  750SOL    HW2 2263   0.357   2.383   1.192
  751SOL     OW 2264   0.812   3.448   0.687
  751SOL    HW1 2265   0.844   3.458   0.593
  751SOL    HW2 2266   0.733   3.386   0.689
  752SOL     OW 2267   1.424   2.076   1.112
  752SOL    HW1 2268   1.476   2.011   1.167
  752SOL    HW2 2269   1.375   2.139   1.173
  753SOL     OW 2270   1.001   1.896   1.154
  753SOL    HW1 2271   0.938   1.824   1.123
  753SOL    HW2 2272   1.094   1.860   1.154
  754SOL     OW 2273   0.770   3.192   0.301
  754SOL    HW1 2274   0.724   3.105   0.318
  754SOL    HW2 2275   0.861   3.189   0.342
  755SOL     OW 2276   0.618   3.429   1.284
  755SOL    HW1 2277   0.613   3.511   1.341
  755SOL    HW2 2278   0.707   3.426   1.239
  756SOL     OW 2279   1.352   1.914   0.168
  756SOL    HW1 2280   1.387   1.873   0.084
  756SOL    HW2 2281   1.262   1.876   0.188
  757SOL     OW 2282   1.300   2.315   0.691
  757SOL    HW1 2283   1.241   2.395   0.695
  757SOL    HW2 2284   1.315   2.280   0.784
  758SOL     OW 2285   1.593   2.083   0.882
  758SOL    HW1 2286   1.509   2.082   0.936
  758SOL    HW2 2287   1.595   2.166   0.826
  759SOL     OW 2288   0.039   2.939   0.300
  759SOL    HW1 2289   0.138   2.928   0.291
  759SOL    HW2 2290  -0.001   2.853   0.332
  760SOL     OW 2291   0.875   3.508   0.337
  760SOL    HW1 2292   0.798   3.473   0.283
  760SOL    HW2 2293   0.843   3.579   0.399
  761SOL     OW 2294   0.230   2.490   1.975
  761SOL    HW1 2295   0.137   2.488   2.012
  761SOL    HW2 2296   0.231   2.451   1.883
  762SOL     OW 2297   0.225   2.137   2.858
  762SOL    HW1 2298   0.260   2.120   2.950
  762SOL    HW2 2299   0.137   2.092   2.846
  763SOL     OW 2300   0.019   2.230   2.509
  763SOL    HW1 2301  -0.063   2.273   2.548
  763SOL    HW2 2302  -0.009   2.157   2.446
  764SOL     OW 2303   0.569   3.137   3.027
  764SOL    HW1 2304   0.476   3.130   2.990
  764SOL    HW2 2305   0.580   3.226   3.071
  765SOL     OW 2306   1.555   3.373   2.565
  765SOL    HW1 2307   1.498   3.357   2.646
  765SOL    HW2 2308   1.496   3.383   2.485
  766SOL     OW 2309   1.135   2.565   2.579
  766SOL    HW1 2310   1.192   2.643   2.554
  766SOL    HW2 2311   1.075   2.591   2.655
  767SOL     OW 2312   1.755   2.469   2.093
  767SOL    HW1 2313   1.743   2.456   1.994
  767SOL    HW2 2314   1.725   2.388   2.142
  768SOL     OW 2315   0.768   3.006   2.885
  768SOL    HW1 2316   0.690   3.023   2.945
  768SOL    HW2 2317   0.802   3.093   2.849
  769SOL     OW 2318   0.850   2.660   3.685
  769SOL    HW1 2319   0.846   2.736   3.750
  769SOL    HW2 2320   0.872   2.696   3.594
  770SOL     OW 2321   0.685   2.874   2.527
  770SOL    HW1 2322   0.754   2.858   2.597
  770SOL    HW2 2323   0.612   2.931   2.565
  771SOL     OW 2324   0.686   3.023   3.665
  771SOL    HW1 2325   0.746   3.102   3.679
  771SOL    HW2 2326   0.600   3.054   3.624
  772SOL     OW 2327   0.335   3.297   2.923
  772SOL    HW1 2328   0.257   3.266   2.870
  772SOL    HW2 2329   0.393   3.355   2.866
  773SOL     OW 2330   1.460   3.367   3.201
  773SOL    HW1 2331   1.484   3.461   3.227
  773SOL    HW2 2332   1.444   3.313   3.283
  774SOL     OW 2333   0.438   2.254   3.361
  774SOL    HW1 2334   0.520   2.198   3.370
  774SOL    HW2 2335   0.357   2.196   3.365
  775SOL     OW 2336   1.603   2.309   2.599
  775SOL    HW1 2337   1.529   2.355   2.549
  775SOL    HW2 2338   1.654   2.377   2.652
  776SOL     OW 2339   0.231   3.575   2.345
  776SOL    HW1 2340   0.265   3.652   2.399
  776SOL    HW2 2341   0.275   3.575   2.255
  777SOL     OW 2342   1.127   3.203   3.552
  777SOL    HW1 2343   1.174   3.203   3.640
  777SOL    HW2 2344   1.079   3.116   3.541
  778SOL     OW 2345   0.230   3.296   2.400
  778SOL    HW1 2346   0.204   3.392   2.400
  778SOL    HW2 2347   0.159   3.242   2.445
  779SOL     OW 2348   0.240   2.953   2.748
  779SOL    HW1 2349   0.254   2.869   2.800
  779SOL    HW2 2350   0.185   3.017   2.803
  780SOL     OW 2351   0.620   3.648   3.301
  780SOL    HW1 2352   0.528   3.631   3.336
  780SOL    HW2 2353   0.648   3.740   3.327
  781SOL     OW 2354   0.606   2.826   1.985
  781SOL    HW1 2355   0.613   2.910   1.931
  781SOL    HW2 2356   0.652   2.839   2.073
  782SOL     OW 2357   1.594   1.976   3.342
  782SOL    HW1 2358   1.576   2.043   3.270
  782SOL    HW2 2359   1.591   2.022   3.431
  783SOL     OW 2360   0.122   2.505   2.425
  783SOL    HW1 2361   0.077   2.417   2.442
  783SOL    HW2 2362   0.121   2.559   2.509
  784SOL     OW 2363   1.842   3.629   2.221
  784SOL    HW1 2364   1.896   3.600   2.301
  784SOL    HW2 2365   1.872   3.719   2.192
  785SOL     OW 2366   0.027   3.458   1.979
  785SOL    HW1 2367   0.008   3.362   2.000
  785SOL    HW2 2368  -0.006   3.516   2.054
  786SOL     OW 2369   1.689   2.784   2.474
  786SOL    HW1 2370   1.784   2.755   2.482
  786SOL    HW2 2371   1.681   2.849   2.399
  787SOL     OW 2372   1.641   2.970   2.294
  787SOL    HW1 2373   1.727   2.972   2.242
  787SOL    HW2 2374   1.655   3.017   2.382
  788SOL     OW 2375   0.113   2.599   3.459
  788SOL    HW1 2376   0.201   2.586   3.504
  788SOL    HW2 2377   0.100   2.696   3.437
  789SOL     OW 2378   0.613   3.227   2.588
  789SOL    HW1 2379   0.564   3.140   2.597
  789SOL    HW2 2380   0.590   3.270   2.501
  790SOL     OW 2381   1.293   3.090   3.285
  790SOL    HW1 2382   1.330   3.017   3.227
  790SOL    HW2 2383   1.345   3.095   3.370
  791SOL     OW 2384   0.809   1.866   2.364
  791SOL    HW1 2385   0.849   1.957   2.355
  791SOL    HW2 2386   0.709   1.874   2.370
  792SOL     OW 2387   0.197   2.838   3.126
  792SOL    HW1 2388   0.286   2.793   3.112
  792SOL    HW2 2389   0.124   2.773   3.107
  793SOL     OW 2390   1.525   2.861   2.052
  793SOL    HW1 2391   1.462   2.785   2.065
  793SOL    HW2 2392   1.573   2.879   2.138
  794SOL     OW 2393   1.187   3.654   3.478
  794SOL    HW1 2394   1.211   3.714   3.402
  794SOL    HW2 2395   1.194   3.559   3.448
  795SOL     OW 2396   0.317   2.113   3.663
  795SOL    HW1 2397   0.388   2.184   3.669
  795SOL    HW2 2398   0.229   2.152   3.691
  796SOL     OW 2399   1.466   3.279   2.815
  796SOL    HW1 2400   1.407   3.285   2.895
  796SOL    HW2 2401   1.451   3.191   2.769
  797SOL     OW 2402   1.667   3.576   2.434
  797SOL    HW1 2403   1.626   3.553   2.346
  797SOL    HW2 2404   1.649   3.502   2.499
  798SOL     OW 2405   0.598   2.591   2.132
  798SOL    HW1 2406   0.622   2.660   2.064
  798SOL    HW2 2407   0.520   2.624   2.186
  799SOL     OW 2408   1.281   2.207   2.806
  799SOL    HW1 2409   1.195   2.157   2.793
  799SOL    HW2 2410   1.343   2.153   2.862
  800SOL     OW 2411   1.576   3.524   2.169
  800SOL    HW1 2412   1.665   3.570   2.172
  800SOL    HW2 2413   1.555   3.500   2.074
  801SOL     OW 2414   0.807   2.467   3.327
  801SOL    HW1 2415   0.760   2.464   3.416
  801SOL    HW2 2416   0.756   2.412   3.261
  802SOL     OW 2417   1.394   2.331   3.536
  802SOL    HW1 2418   1.374   2.374   3.624
  802SOL    HW2 2419   1.472   2.269   3.545
  803SOL     OW 2420   0.973   2.752   3.434
  803SOL    HW1 2421   1.019   2.668   3.405
  803SOL    HW2 2422   0.917   2.786   3.359
  804SOL     OW 2423   0.991   2.272   3.104
  804SOL    HW1 2424   0.914   2.306   3.158
  804SOL    HW2 2425   0.957   2.221   3.025
  805SOL     OW 2426   1.041   2.563   2.291
  805SOL    HW1 2427   1.067   2.559   2.387
  805SOL    HW2 2428   0.956   2.512   2.277
  806SOL     OW 2429   0.076   2.673   2.651
  806SOL    HW1 2430   0.175   2.661   2.660
  806SOL    HW2 2431   0.052   2.768   2.672
  807SOL     OW 2432   0.130   3.683   3.433
  807SOL    HW1 2433   0.120   3.668   3.532
  807SOL    HW2 2434   0.044   3.719   3.397
  808SOL     OW 2435   0.865   2.210   2.057
  808SOL    HW1 2436   0.924   2.273   2.008
  808SOL    HW2 2437   0.884   2.116   2.028
  809SOL     OW 2438   1.719   2.447   3.693
  809SOL    HW1 2439   1.693   2.536   3.657
  809SOL    HW2 2440   1.717   2.379   3.620
  810SOL     OW 2441   1.362   3.006   2.407
  810SOL    HW1 2442   1.445   2.977   2.359
  810SOL    HW2 2443   1.313   3.073   2.351
  811SOL     OW 2444   0.550   2.058   2.747
  811SOL    HW1 2445   0.545   2.053   2.847
  811SOL    HW2 2446   0.552   2.154   2.718
  812SOL     OW 2447   1.008   3.318   2.339
  812SOL    HW1 2448   0.962   3.390   2.287
  812SOL    HW2 2449   1.004   3.338   2.437
  813SOL     OW 2450   0.351   3.663   2.715
  813SOL    HW1 2451   0.401   3.577   2.721
  813SOL    HW2 2452   0.416   3.740   2.712
  814SOL     OW 2453   1.795   2.928   2.735
  814SOL    HW1 2454   1.733   2.913   2.659
  814SOL    HW2 2455   1.743   2.939   2.820
  815SOL     OW 2456   1.227   3.412   3.368
  815SOL    HW1 2457   1.233   3.335   3.432
  815SOL    HW2 2458   1.175   3.386   3.288
  816SOL     OW 2459   0.321   2.805   2.104
  816SOL    HW1 2460   0.403   2.844   2.062
  816SOL    HW2 2461   0.294   2.723   2.055
  817SOL     OW 2462   1.458   2.597   2.590
  817SOL    HW1 2463   1.453   2.532   2.665
  817SOL    HW2 2464   1.538   2.656   2.603
  818SOL     OW 2465   0.461   3.128   3.589
  818SOL    HW1 2466   0.411   3.129   3.503
  818SOL    HW2 2467   0.398   3.110   3.665
  819SOL     OW 2468   1.111   3.638   2.099
  819SOL    HW1 2469   1.051   3.576   2.149
  819SOL    HW2 2470   1.142   3.594   2.014
  820SOL     OW 2471   0.202   2.147   3.360
  820SOL    HW1 2472   0.122   2.207   3.347
  820SOL    HW2 2473   0.192   2.098   3.446
  821SOL     OW 2474   1.632   3.239   1.943
  821SOL    HW1 2475   1.600   3.333   1.933
  821SOL    HW2 2476   1.556   3.176   1.931
  822SOL     OW 2477   0.464   3.605   2.185
  822SOL    HW1 2478   0.497   3.644   2.271
  822SOL    HW2 2479   0.540   3.598   2.120
  823SOL     OW 2480   1.400   1.969   2.288
  823SOL    HW1 2481   1.376   1.932   2.198
  823SOL    HW2 2482   1.499   1.985   2.292
  824SOL     OW 2483   0.249   3.647   3.103
  824SOL    HW1 2484   0.306   3.582   3.153
  824SOL    HW2 2485   0.233   3.614   3.010
  825SOL     OW 2486   0.940   3.560   2.766
  825SOL    HW1 2487   1.020   3.503   2.787
  825SOL    HW2 2488   0.891   3.520   2.689
  826SOL     OW 2489   0.382   2.562   2.342
  826SOL    HW1 2490   0.427   2.472   2.339
  826SOL    HW2 2491   0.288   2.551   2.375
  827SOL     OW 2492   1.547   2.084   3.591
  827SOL    HW1 2493   1.542   2.121   3.683
  827SOL    HW2 2494   1.475   2.015   3.579
  828SOL     OW 2495   0.614   1.984   1.979
  828SOL    HW1 2496   0.712   1.962   1.986
  828SOL    HW2 2497   0.583   1.967   1.886
  829SOL     OW 2498   0.781   2.126   3.611
  829SOL    HW1 2499   0.848   2.065   3.654
  829SOL    HW2 2500   0.708   2.145   3.676
  830SOL     OW 2501   0.888   3.376   3.057
  830SOL    HW1 2502   0.865   3.351   2.963
  830SOL    HW2 2503   0.949   3.307   3.096
  831SOL     OW 2504   1.351   2.452   3.295
  831SOL    HW1 2505   1.379   2.409   3.380
  831SOL    HW2 2506   1.376   2.548   3.296
  832SOL     OW 2507   0.803   3.264   2.786
  832SOL    HW1 2508   0.893   3.278   2.744
  832SOL    HW2 2509   0.732   3.266   2.715
  833SOL     OW 2510   0.922   2.365   2.761
  833SOL    HW1 2511   0.897   2.356   2.665
  833SOL    HW2 2512   0.970   2.283   2.792
  834SOL     OW 2513   0.539   1.926   2.374
  834SOL    HW1 2514   0.458   1.927   2.432
  834SOL    HW2 2515   0.542   2.009   2.319
  835SOL     OW 2516   1.434   3.050   1.903
  835SOL    HW1 2517   1.466   2.974   1.960
  835SOL    HW2 2518   1.342   3.077   1.933
  836SOL     OW 2519   0.297   1.897   2.033
  836SOL    HW1 2520   0.346   1.981   2.012
  836SOL    HW2 2521   0.359   1.832   2.078
  837SOL     OW 2522   0.935   2.098   2.342
  837SOL    HW1 2523   0.887   2.139   2.264
  837SOL    HW2 2524   1.034   2.096   2.323
  838SOL     OW 2525   1.076   2.545   3.326
  838SOL    HW1 2526   0.996   2.484   3.329
  838SOL    HW2 2527   1.157   2.492   3.302
  839SOL     OW 2528   1.227   3.432   2.655
  839SOL    HW1 2529   1.248   3.506   2.590
  839SOL    HW2 2530   1.295   3.432   2.728
  840SOL     OW 2531   0.459   3.014   2.603
  840SOL    HW1 2532   0.388   2.987   2.668
  840SOL    HW2 2533   0.433   2.986   2.510
  841SOL     OW 2534   1.271   3.659   2.453
  841SOL    HW1 2535   1.315   3.723   2.389
  841SOL    HW2 2536   1.221   3.711   2.523
  842SOL     OW 2537   1.032   2.411   1.878
  842SOL    HW1 2538   0.991   2.493   1.839
  842SOL    HW2 2539   1.096   2.437   1.951
  843SOL     OW 2540   0.078   2.418   3.248
  843SOL    HW1 2541   0.170   2.417   3.207
  843SOL    HW2 2542   0.072   2.492   3.315
  844SOL     OW 2543   0.561   2.084   3.009
  844SOL    HW1 2544   0.599   2.000   3.046
  844SOL    HW2 2545   0.473   2.103   3.053
  845SOL     OW 2546   0.866   2.316   2.504
  845SOL    HW1 2547   0.834   2.388   2.442
  845SOL    HW2 2548   0.890   2.235   2.451
  846SOL     OW 2549   1.017   1.901   2.615
  846SOL    HW1 2550   0.945   1.906   2.546
  846SOL    HW2 2551   0.993   1.832   2.684
  847SOL     OW 2552   1.429   3.035   2.729
  847SOL    HW1 2553   1.374   2.951   2.722
  847SOL    HW2 2554   1.455   3.064   2.637
  848SOL     OW 2555   1.466   2.452   2.854
  848SOL    HW1 2556   1.436   2.357   2.861
  848SOL    HW2 2557   1.539   2.468   2.920
  849SOL     OW 2558   1.857   2.695   2.239
  849SOL    HW1 2559   1.899   2.631   2.303
  849SOL    HW2 2560   1.819   2.644   2.161
  850SOL     OW 2561   0.488   3.247   2.036
  850SOL    HW1 2562   0.401   3.232   2.083
  850SOL    HW2 2563   0.471   3.273   1.941
  851SOL     OW 2564   1.664   3.142   2.519
  851SOL    HW1 2565   1.763   3.150   2.533
  851SOL    HW2 2566   1.619   3.226   2.550
  852SOL     OW 2567   1.390   2.437   1.940
  852SOL    HW1 2568   1.336   2.416   2.021
  852SOL    HW2 2569   1.481   2.396   1.949
  853SOL     OW 2570   0.527   2.118   2.190
  853SOL    HW1 2571   0.554   2.059   2.115
  853SOL    HW2 2572   0.527   2.213   2.159
  854SOL     OW 2573   1.754   3.085   3.450
  854SOL    HW1 2574   1.845   3.046   3.437
  854SOL    HW2 2575   1.762   3.181   3.474
  855SOL     OW 2576   1.064   3.209   3.202
  855SOL    HW1 2577   0.984   3.186   3.257
  855SOL    HW2 2578   1.147   3.183   3.251
  856SOL     OW 2579   1.592   3.491   3.487
  856SOL    HW1 2580   1.619   3.525   3.397
  856SOL    HW2 2581   1.671   3.453   3.533
  857SOL     OW 2582   1.111   3.057   2.962
  857SOL    HW1 2583   1.071   3.101   3.043
  857SOL    HW2 2584   1.070   3.094   2.879
  858SOL     OW 2585   1.638   2.961   2.941
  858SOL    HW1 2586   1.643   3.042   3.000
  858SOL    HW2 2587   1.552   2.963   2.890
  859SOL     OW 2588   0.915   1.951   3.264
  859SOL    HW1 2589   0.940   1.931   3.169
  859SOL    HW2 2590   0.987   2.007   3.306
  860SOL     OW 2591   0.980   2.978   3.581
  860SOL    HW1 2592   0.881   2.984   3.591
  860SOL    HW2 2593   1.003   2.898   3.525
  861SOL     OW 2594   0.705   2.912   2.230
  861SOL    HW1 2595   0.691   2.919   2.329
  861SOL    HW2 2596   0.789   2.861   2.212
  862SOL     OW 2597   0.410   2.675   3.113
  862SOL    HW1 2598   0.496   2.687   3.163
  862SOL    HW2 2599   0.368   2.588   3.140
  863SOL     OW 2600   1.274   2.248   3.124
  863SOL    HW1 2601   1.295   2.322   3.188
  863SOL    HW2 2602   1.185   2.265   3.081
  864SOL     OW 2603   0.064   3.426   3.193
  864SOL    HW1 2604   0.018   3.508   3.159
  864SOL    HW2 2605   0.162   3.445   3.202
  865SOL     OW 2606   0.367   2.962   2.363
  865SOL    HW1 2607   0.360   3.045   2.307
  865SOL    HW2 2608   0.371   2.882   2.303
  866SOL     OW 2609   0.566   2.399   2.727
  866SOL    HW1 2610   0.578   2.465   2.653
  866SOL    HW2 2611   0.612   2.433   2.810
  867SOL     OW 2612   1.252   3.210   2.250
  867SOL    HW1 2613   1.302   3.287   2.290
  867SOL    HW2 2614   1.157   3.212   2.282
  868SOL     OW 2615   1.272   3.307   3.004
  868SOL    HW1 2616   1.319   3.320   3.091
  868SOL    HW2 2617   1.206   3.233   3.013
  869SOL     OW 2618   1.582   2.501   2.334
  869SOL    HW1 2619   1.551   2.562   2.407
  869SOL    HW2 2620   1.632   2.553   2.265
  870SOL     OW 2621   0.354   3.372   3.191
  870SOL    HW1 2622   0.333   3.328   3.104
  870SOL    HW2 2623   0.451   3.398   3.194
  871SOL     OW 2624   0.402   2.613   3.460
  871SOL    HW1 2625   0.470   2.668   3.413
  871SOL    HW2 2626   0.442   2.525   3.487
  872SOL     OW 2627   1.587   2.641   3.532
  872SOL    HW1 2628   1.495   2.679   3.527
  872SOL    HW2 2629   1.647   2.688   3.467
  873SOL     OW 2630   1.013   1.967   3.632
  873SOL    HW1 2631   1.019   2.052   3.580
  873SOL    HW2 2632   1.045   1.891   3.575
  874SOL     OW 2633   0.504   1.912   3.602
  874SOL    HW1 2634   0.462   1.855   3.532
  874SOL    HW2 2635   0.438   1.981   3.634
  875SOL     OW 2636   0.573   2.732   2.891
  875SOL    HW1 2637   0.617   2.821   2.882
  875SOL    HW2 2638   0.510   2.732   2.968
  876SOL     OW 2639   1.360   2.724   2.907
  876SOL    HW1 2640   1.285   2.724   2.841
  876SOL    HW2 2641   1.397   2.632   2.916
  877SOL     OW 2642   1.209   2.387   2.137
  877SOL    HW1 2643   1.222   2.303   2.191
  877SOL    HW2 2644   1.180   2.461   2.197
  878SOL     OW 2645   0.307   2.075   3.093
  878SOL    HW1 2646   0.284   2.112   3.183
  878SOL    HW2 2647   0.277   1.980   3.087
  879SOL     OW 2648   0.037   3.172   3.144
  879SOL    HW1 2649   0.090   3.123   3.212
  879SOL    HW2 2650   0.059   3.270   3.149
  880SOL     OW 2651   0.732   2.496   2.926
  880SOL    HW1 2652   0.791   2.470   2.850
  880SOL    HW2 2653   0.704   2.592   2.915
  881SOL     OW 2654   1.728   2.797   3.716
  881SOL    HW1 2655   1.682   2.790   3.627
  881SOL    HW2 2656   1.666   2.841   3.782
  882SOL     OW 2657   0.307   1.925   2.480
  882SOL    HW1 2658   0.296   2.019   2.513
  882SOL    HW2 2659   0.302   1.862   2.557
  883SOL     OW 2660   1.622   2.229   2.236
  883SOL    HW1 2661   1.624   2.153   2.300
  883SOL    HW2 2662   1.574   2.306   2.276
  884SOL     OW 2663   1.023   2.628   2.828
  884SOL    HW1 2664   1.038   2.649   2.924
  884SOL    HW2 2665   0.993   2.533   2.819
  885SOL     OW 2666   0.980   3.435   3.562
  885SOL    HW1 2667   0.960   3.479   3.474
  885SOL    HW2 2668   1.019   3.344   3.546
  886SOL     OW 2669   1.859   3.380   3.467
  886SOL    HW1 2670   1.873   3.407   3.372
  886SOL    HW2 2671   1.942   3.402   3.520
  887SOL     OW 2672   0.350   2.760   3.666
  887SOL    HW1 2673   0.426   2.804   3.714
  887SOL    HW2 2674   0.385   2.713   3.584
  888SOL     OW 2675   1.540   2.136   1.987
  888SOL    HW1 2676   1.479   2.061   2.010
  888SOL    HW2 2677   1.562   2.188   2.070
  889SOL     OW 2678   1.303   2.700   1.904
  889SOL    HW1 2679   1.337   2.607   1.919
  889SOL    HW2 2680   1.321   2.727   1.809
  890SOL     OW 2681   1.068   3.195   2.711
  890SOL    HW1 2682   1.075   3.111   2.656
  890SOL    HW2 2683   1.130   3.264   2.675
  891SOL     OW 2684   0.319   2.672   2.811
  891SOL    HW1 2685   0.412   2.708   2.816
  891SOL    HW2 2686   0.313   2.587   2.863
  892SOL     OW 2687   0.339   2.371   2.868
  892SOL    HW1 2688   0.287   2.288   2.851
  892SOL    HW2 2689   0.416   2.376   2.804
  893SOL     OW 2690   1.138   2.242   3.540
  893SOL    HW1 2691   1.093   2.305   3.604
  893SOL    HW2 2692   1.231   2.273   3.523
  894SOL     OW 2693   1.160   2.069   3.339
  894SOL    HW1 2694   1.160   2.133   3.416
  894SOL    HW2 2695   1.188   2.117   3.256
  895SOL     OW 2696   0.008   3.188   2.062
  895SOL    HW1 2697  -0.085   3.209   2.031
  895SOL    HW2 2698   0.018   3.089   2.075
  896SOL     OW 2699   0.088   3.663   2.789
  896SOL    HW1 2700   0.046   3.577   2.762
  896SOL    HW2 2701   0.182   3.666   2.755
  897SOL     OW 2702   0.504   3.430   2.772
  897SOL    HW1 2703   0.570   3.504   2.781
  897SOL    HW2 2704   0.548   3.351   2.730
  898SOL     OW 2705   1.002   2.658   3.100
  898SOL    HW1 2706   1.043   2.626   3.186
  898SOL    HW2 2707   0.906   2.631   3.097
  899SOL     OW 2708   0.040   2.406   2.976
  899SOL    HW1 2709   0.125   2.373   2.935
  899SOL    HW2 2710   0.053   2.421   3.074
  900SOL     OW 2711   0.189   2.382   3.584
  900SOL    HW1 2712   0.248   2.342   3.514
  900SOL    HW2 2713   0.131   2.453   3.543
  901SOL     OW 2714   1.369   2.812   3.522
  901SOL    HW1 2715   1.408   2.901   3.542
  901SOL    HW2 2716   1.379   2.792   3.425
  902SOL     OW 2717   0.815   2.434   2.187
  902SOL    HW1 2718   0.822   2.345   2.141
  902SOL    HW2 2719   0.721   2.468   2.179
  903SOL     OW 2720   1.657   2.466   3.068
  903SOL    HW1 2721   1.619   2.397   3.130
  903SOL    HW2 2722   1.739   2.430   3.024
  904SOL     OW 2723   0.252   3.426   3.606
  904SOL    HW1 2724   0.222   3.483   3.682
  904SOL    HW2 2725   0.245   3.329   3.632
  905SOL     OW 2726   0.671   2.326   3.131
  905SOL    HW1 2727   0.637   2.237   3.101
  905SOL    HW2 2728   0.697   2.380   3.051
  906SOL     OW 2729   0.930   3.540   3.327
  906SOL    HW1 2730   0.906   3.522   3.232
  906SOL    HW2 2731   0.960   3.634   3.337
  907SOL     OW 2732   0.473   2.362   2.053
  907SOL    HW1 2733   0.534   2.442   2.057
  907SOL    HW2 2734   0.378   2.393   2.060
  908SOL     OW 2735   0.159   2.999   3.328
  908SOL    HW1 2736   0.181   2.938   3.404
  908SOL    HW2 2737   0.169   2.950   3.242
  909SOL     OW 2738   1.347   2.921   3.096
  909SOL    HW1 2739   1.371   2.858   3.022
  909SOL    HW2 2740   1.257   2.961   3.078
  910SOL     OW 2741   1.302   2.717   2.171
  910SOL    HW1 2742   1.216   2.686   2.213
  910SOL    HW2 2743   1.298   2.703   2.072
  911SOL     OW 2744   1.759   3.609   3.016
  911SOL    HW1 2745   1.820   3.639   2.943
  911SOL    HW2 2746   1.721   3.520   2.994
  912SOL     OW 2747   1.252   3.593   2.990
  912SOL    HW1 2748   1.336   3.598   2.936
  912SOL    HW2 2749   1.229   3.497   3.008
  913SOL     OW 2750   0.083   3.120   2.884
  913SOL    HW1 2751   0.078   3.119   2.984
  913SOL    HW2 2752   0.000   3.079   2.846
  914SOL     OW 2753   0.688   3.524   3.578
  914SOL    HW1 2754   0.632   3.605   3.587
  914SOL    HW2 2755   0.740   3.528   3.492
  915SOL     OW 2756   1.726   1.997   2.385
  915SOL    HW1 2757   1.799   1.980   2.318
  915SOL    HW2 2758   1.695   1.910   2.423
  916SOL     OW 2759   1.388   3.435   2.339
  916SOL    HW1 2760   1.455   3.447   2.265
  916SOL    HW2 2761   1.348   3.524   2.362
  917SOL     OW 2762   0.130   3.656   3.713
  917SOL    HW1 2763   0.089   3.582   3.766
  917SOL    HW2 2764   0.194   3.707   3.771
  918SOL     OW 2765   1.280   2.789   2.534
  918SOL    HW1 2766   1.340   2.708   2.536
  918SOL    HW2 2767   1.320   2.858   2.474
  919SOL     OW 2768   0.830   3.135   3.284
  919SOL    HW1 2769   0.825   3.168   3.379
  919SOL    HW2 2770   0.744   3.154   3.238
  920SOL     OW 2771   0.672   3.478   2.016
  920SOL    HW1 2772   0.681   3.488   1.917
  920SOL    HW2 2773   0.632   3.389   2.037
  921SOL     OW 2774   1.650   3.582   3.256
  921SOL    HW1 2775   1.703   3.592   3.172
  921SOL    HW2 2776   1.623   3.672   3.290
  922SOL     OW 2777   1.841   2.037   2.825
  922SOL    HW1 2778   1.880   1.952   2.789
  922SOL    HW2 2779   1.743   2.039   2.806
  923SOL     OW 2780   0.263   2.188   2.582
  923SOL    HW1 2781   0.184   2.239   2.548
  923SOL    HW2 2782   0.254   2.173   2.680
  924SOL     OW 2783   1.194   3.474   1.893
  924SOL    HW1 2784   1.200   3.381   1.930
  924SOL    HW2 2785   1.135   3.474   1.813
  925SOL     OW 2786   0.822   2.864   3.234
  925SOL    HW1 2787   0.862   2.863   3.142
  925SOL    HW2 2788   0.832   2.956   3.274
  926SOL     OW 2789   0.916   2.772   2.153
  926SOL    HW1 2790   0.979   2.810   2.085
  926SOL    HW2 2791   0.956   2.689   2.192
  927SOL     OW 2792   1.504   3.469   1.906
  927SOL    HW1 2793   1.412   3.506   1.913
  927SOL    HW2 2794   1.542   3.489   1.816
  928SOL     OW 2795   0.372   3.150   3.352
  928SOL    HW1 2796   0.359   3.243   3.318
  928SOL    HW2 2797   0.288   3.098   3.339
  929SOL     OW 2798   1.614   3.154   3.151
  929SOL    HW1 2799   1.674   3.157   3.231
  929SOL    HW2 2800   1.539   3.218   3.164
  930SOL     OW 2801   1.039   2.960   2.558
  930SOL    HW1 2802   0.969   2.913   2.612
  930SOL    HW2 2803   1.098   2.892   2.515
  931SOL     OW 2804   1.014   2.098   2.833
  931SOL    HW1 2805   1.006   2.062   2.740
  931SOL    HW2 2806   1.012   2.022   2.898
  932SOL     OW 2807   0.590   3.349   2.353
  932SOL    HW1 2808   0.632   3.291   2.283
  932SOL    HW2 2809   0.546   3.428   2.309
  933SOL     OW 2810   1.709   2.247   3.243
  933SOL    HW1 2811   1.782   2.316   3.247
  933SOL    HW2 2812   1.737   2.172   3.184
  934SOL     OW 2813   0.255   3.210   2.152
  934SOL    HW1 2814   0.159   3.211   2.125
  934SOL    HW2 2815   0.267   3.263   2.236
  935SOL     OW 2816   0.105   2.875   3.588
  935SOL    HW1 2817   0.028   2.842   3.642
  935SOL    HW2 2818   0.190   2.845   3.630
  936SOL     OW 2819   0.672   2.065   3.351
  936SOL    HW1 2820   0.762   2.049   3.311
  936SOL    HW2 2821   0.680   2.070   3.450
  937SOL     OW 2822   0.075   2.207   1.895
  937SOL    HW1 2823  -0.017   2.179   1.866
  937SOL    HW2 2824   0.106   2.284   1.839
  938SOL     OW 2825   1.440   2.718   3.260
  938SOL    HW1 2826   1.383   2.770   3.197
  938SOL    HW2 2827   1.536   2.730   3.236
  939SOL     OW 2828   0.072   2.028   2.180
  939SOL    HW1 2829   0.055   2.111   2.126
  939SOL    HW2 2830   0.162   1.991   2.158
  940SOL     OW 2831   1.183   3.197   1.981
  940SOL    HW1 2832   1.084   3.186   1.983
  940SOL    HW2 2833   1.217   3.212   2.074
  941SOL     OW 2834   0.613   2.704   3.293
  941SOL    HW1 2835   0.669   2.785   3.276
  941SOL    HW2 2836   0.672   2.624   3.296
  942SOL     OW 2837   1.493   3.629   2.821
  942SOL    HW1 2838   1.526   3.693   2.752
  942SOL    HW2 2839   1.559   3.623   2.896
  943SOL     OW 2840   0.716   2.427   3.570
  943SOL    HW1 2841   0.735   2.492   3.644
  943SOL    HW2 2842   0.776   2.347   3.579
  944SOL     OW 2843   1.450   3.082   3.495
  944SOL    HW1 2844   1.441   3.072   3.594
  944SOL    HW2 2845   1.546   3.075   3.469
  945SOL     OW 2846   0.390   3.603   3.422
  945SOL    HW1 2847   0.299   3.644   3.420
  945SOL    HW2 2848   0.383   3.509   3.454
  946SOL     OW 2849   1.674   2.745   3.116
  946SOL    HW1 2850   1.647   2.656   3.079
  946SOL    HW2 2851   1.675   2.813   3.043
  947SOL     OW 2852   1.225   2.187   2.311
  947SOL    HW1 2853   1.290   2.113   2.300
  947SOL    HW2 2854   1.245   2.237   2.395
  948SOL     OW 2855   0.594   2.607   2.514
  948SOL    HW1 2856   0.644   2.692   2.495
  948SOL    HW2 2857   0.506   2.609   2.466
  949SOL     OW 2858   1.777   2.204   3.504
  949SOL    HW1 2859   1.760   2.235   3.410
  949SOL    HW2 2860   1.693   2.167   3.542
  950SOL     OW 2861   1.730   2.796   3.379
  950SOL    HW1 2862   1.768   2.887   3.394
  950SOL    HW2 2863   1.722   2.779   3.280
  951SOL     OW 2864   0.859   3.236   1.878
  951SOL    HW1 2865   0.813   3.251   1.966
  951SOL    HW2 2866   0.903   3.321   1.848
  952SOL     OW 2867   0.661   3.652   2.815
  952SOL    HW1 2868   0.615   3.740   2.802
  952SOL    HW2 2869   0.760   3.664   2.808
  953SOL     OW 2870   0.859   2.818   2.723
  953SOL    HW1 2871   0.913   2.749   2.771
  953SOL    HW2 2872   0.827   2.887   2.789
  954SOL     OW 2873   1.083   2.846   1.949
  954SOL    HW1 2874   1.060   2.899   1.867
  954SOL    HW2 2875   1.164   2.790   1.930
  955SOL     OW 2876   1.861   3.431   2.713
  955SOL    HW1 2877   1.790   3.419   2.643
  955SOL    HW2 2878   1.862   3.352   2.773
  956SOL     OW 2879   0.221   3.176   3.706
  956SOL    HW1 2880   0.156   3.103   3.685
  956SOL    HW2 2881   0.225   3.190   3.804
  957SOL     OW 2882   0.079   3.102   2.515
  957SOL    HW1 2883   0.078   3.055   2.603
  957SOL    HW2 2884   0.161   3.074   2.464
  958SOL     OW 2885   0.672   3.253   3.486
  958SOL    HW1 2886   0.594   3.203   3.524
  958SOL    HW2 2887   0.669   3.348   3.517
  959SOL     OW 2888   1.824   2.054   3.089
  959SOL    HW1 2889   1.820   1.964   3.133
  959SOL    HW2 2890   1.827   2.043   2.990
  960SOL     OW 2891   0.428   2.286   2.382
  960SOL    HW1 2892   0.458   2.214   2.320
  960SOL    HW2 2893   0.389   2.246   2.465
  961SOL     OW 2894   1.705   3.349   2.966
  961SOL    HW1 2895   1.612   3.324   2.939
  961SOL    HW2 2896   1.731   3.299   3.048
  962SOL     OW 2897   0.317   2.409   3.142
  962SOL    HW1 2898   0.355   2.350   3.214
  962SOL    HW2 2899   0.357   2.383   3.054
  963SOL     OW 2900   0.812   3.448   2.549
  963SOL    HW1 2901   0.844   3.458   2.455
  963SOL    HW2 2902   0.733   3.386   2.551
  964SOL     OW 2903   1.424   2.076   2.974
  964SOL    HW1 2904   1.476   2.011   3.029
  964SOL    HW2 2905   1.375   2.139   3.035
  965SOL     OW 2906   1.001   1.896   3.016
  965SOL    HW1 2907   0.938   1.824   2.985
  965SOL    HW2 2908   1.094   1.860   3.016
  966SOL     OW 2909   0.770   3.192   2.163
  966SOL    HW1 2910   0.724   3.105   2.180
  966SOL    HW2 2911   0.861   3.189   2.204
  967SOL     OW 2912   0.618   3.429   3.146
  967SOL    HW1 2913   0.613   3.511   3.203
  967SOL    HW2 2914   0.707   3.426   3.101
  968SOL     OW 2915   1.352   1.914   2.030
  968SOL    HW1 2916   1.387   1.873   1.946
  968SOL    HW2 2917   1.262   1.876   2.050
  969SOL     OW 2918   1.300   2.315   2.553
  969SOL    HW1 2919   1.241   2.395   2.557
  969SOL    HW2 2920   1.315   2.280   2.646
  970SOL     OW 2921   1.593   2.083   2.744
  970SOL    HW1 2922   1.509   2.082   2.798
  970SOL    HW2 2923   1.595   2.166   2.688
  971SOL     OW 2924   0.039   2.939   2.162
  971SOL    HW1 2925   0.138   2.928   2.153
  971SOL    HW2 2926  -0.001   2.853   2.194
  972SOL     OW 2927   0.875   3.508   2.199
  972SOL    HW1 2928   0.798   3.473   2.145
  972SOL    HW2 2929   0.843   3.579   2.261
  973SOL     OW 2930   0.230   2.490   3.837
  973SOL    HW1 2931   0.137   2.488   3.874
  973SOL    HW2 2932   0.231   2.451   3.745
  974SOL     OW 2933   0.225   2.137   4.720
  974SOL    HW1 2934   0.260   2.120   4.812
  974SOL    HW2 2935   0.137   2.092   4.708
  975SOL     OW 2936   0.019   2.230   4.371
  975SOL    HW1 2937  -0.063   2.273   4.410
  975SOL    HW2 2938  -0.009   2.157   4.308
  976SOL     OW 2939   1.555   3.373   4.427
  976SOL    HW1 2940   1.498   3.357   4.508
  976SOL    HW2 2941   1.496   3.383   4.347
  977SOL     OW 2942   1.135   2.565   4.441
  977SOL    HW1 2943   1.192   2.643   4.416
  977SOL    HW2 2944   1.075   2.591   4.517
  978SOL     OW 2945   1.755   2.469   3.955
  978SOL    HW1 2946   1.743   2.456   3.856
  978SOL    HW2 2947   1.725   2.388   4.004
  979SOL     OW 2948   0.768   3.006   4.747
  979SOL    HW1 2949   0.690   3.023   4.807
  979SOL    HW2 2950   0.802   3.093   4.711
  980SOL     OW 2951   0.685   2.874   4.389
  980SOL    HW1 2952   0.754   2.858   4.459
  980SOL    HW2 2953   0.612   2.931   4.427
  981SOL     OW 2954   0.335   3.297   4.785
  981SOL    HW1 2955   0.257   3.266   4.732
  981SOL    HW2 2956   0.393   3.355   4.728
  982SOL     OW 2957   1.603   2.309   4.461
  982SOL    HW1 2958   1.529   2.355   4.411
  982SOL    HW2 2959   1.654   2.377   4.514
  983SOL     OW 2960   0.231   3.575   4.207
  983SOL    HW1 2961   0.265   3.652   4.261
  983SOL    HW2 2962   0.275   3.575   4.117
  984SOL     OW 2963   0.230   3.296   4.262
  984SOL    HW1 2964   0.204   3.392   4.262
  984SOL    HW2 2965   0.159   3.242   4.307
  985SOL     OW 2966   0.240   2.953   4.610
  985SOL    HW1 2967   0.254   2.869   4.662
  985SOL    HW2 2968   0.185   3.017   4.665
  986SOL     OW 2969   0.606   2.826   3.847
  986SOL    HW1 2970   0.613   2.910   3.793
  986SOL    HW2 2971   0.652   2.839   3.935
  987SOL     OW 2972   0.122   2.505   4.287
  987SOL    HW1 2973   0.077   2.417   4.304
  987SOL    HW2 2974   0.121   2.559   4.371
  988SOL     OW 2975   1.842   3.629   4.083
  988SOL    HW1 2976   1.896   3.600   4.163
  988SOL    HW2 2977   1.872   3.719   4.054
  989SOL     OW 2978   0.027   3.458   3.841
  989SOL    HW1 2979   0.008   3.362   3.862
  989SOL    HW2 2980  -0.006   3.516   3.916
  990SOL     OW 2981   1.689   2.784   4.336
  990SOL    HW1 2982   1.784   2.755   4.344
  990SOL    HW2 2983   1.681   2.849   4.261
  991SOL     OW 2984   1.641   2.970   4.156
  991SOL    HW1 2985   1.727   2.972   4.104
  991SOL    HW2 2986   1.655   3.017   4.244
  992SOL     OW 2987   0.613   3.227   4.450
  992SOL    HW1 2988   0.564   3.140   4.459
  992SOL    HW2 2989   0.590   3.270   4.363
  993SOL     OW 2990   0.809   1.866   4.226
  993SOL    HW1 2991   0.849   1.957   4.217
  993SOL    HW2 2992   0.709   1.874   4.232
  994SOL     OW 2993   1.525   2.861   3.914
  994SOL    HW1 2994   1.462   2.785   3.927
  994SOL    HW2 2995   1.573   2.879   4.000
  995SOL     OW 2996   1.466   3.279   4.677
  995SOL    HW1 2997   1.407   3.285   4.757
  995SOL    HW2 2998   1.451   3.191   4.631
  996SOL     OW 2999   1.667   3.576   4.296
  996SOL    HW1 3000   1.626   3.553   4.208
  996SOL    HW2 3001   1.649   3.502   4.361
  997SOL     OW 3002   0.598   2.591   3.994
  997SOL    HW1 3003   0.622   2.660   3.926
  997SOL    HW2 3004   0.520   2.624   4.048
  998SOL     OW 3005   1.281   2.207   4.668
  998SOL    HW1 3006   1.195   2.157   4.655
  998SOL    HW2 3007   1.343   2.153   4.724
  999SOL     OW 3008   1.576   3.524   4.031
  999SOL    HW1 3009   1.665   3.570   4.034
  999SOL    HW2 3010   1.555   3.500   3.936
 1000SOL     OW 3011   1.041   2.563   4.153
 1000SOL    HW1 3012   1.067   2.559   4.249
 1000SOL    HW2 3013   0.956   2.512   4.139
 1001SOL     OW 3014   0.076   2.673   4.513
 1001SOL    HW1 3015   0.175   2.661   4.522
 1001SOL    HW2 3016   0.052   2.768   4.534
 1002SOL     OW 3017   0.865   2.210   3.919
 1002SOL    HW1 3018   0.924   2.273   3.870
 1002SOL    HW2 3019   0.884   2.116   3.890
 1003SOL     OW 3020   1.362   3.006   4.269
 1003SOL    HW1 3021   1.445   2.977   4.221
 1003SOL    HW2 3022   1.313   3.073   4.213
 1004SOL     OW 3023   0.550   2.058   4.609
 1004SOL    HW1 3024   0.545   2.053   4.709
 1004SOL    HW2 3025   0.552   2.154   4.580
 1005SOL     OW 3026   1.008   3.318   4.201
 1005SOL    HW1 3027   0.962   3.390   4.149
 1005SOL    HW2 3028   1.004   3.338   4.299
 1006SOL     OW 3029   0.351   3.663   4.577
 1006SOL    HW1 3030   0.401   3.577   4.583
 1006SOL    HW2 3031   0.416   3.740   4.574
 1007SOL     OW 3032   1.795   2.928   4.597
 1007SOL    HW1 3033   1.733   2.913   4.521
 1007SOL    HW2 3034   1.743   2.939   4.682
 1008SOL     OW 3035   0.321   2.805   3.966
 1008SOL    HW1 3036   0.403   2.844   3.924
 1008SOL    HW2 3037   0.294   2.723   3.917
 1009SOL     OW 3038   1.458   2.597   4.452
 1009SOL    HW1 3039   1.453   2.532   4.527
 1009SOL    HW2 3040   1.538   2.656   4.465
 1010SOL     OW 3041   1.111   3.638   3.961
 1010SOL    HW1 3042   1.051   3.576   4.011
 1010SOL    HW2 3043   1.142   3.594   3.876
 1011SOL     OW 3044   1.632   3.239   3.805
 1011SOL    HW1 3045   1.600   3.333   3.795
 1011SOL    HW2 3046   1.556   3.176   3.793
 1012SOL     OW 3047   0.464   3.605   4.047
 1012SOL    HW1 3048   0.497   3.644   4.133
 1012SOL    HW2 3049   0.540   3.598   3.982
 1013SOL     OW 3050   1.400   1.969   4.150
 1013SOL    HW1 3051   1.376   1.932   4.060
 1013SOL    HW2 3052   1.499   1.985   4.154
 1014SOL     OW 3053   0.249   3.647   4.965
 1014SOL    HW1 3054   0.306   3.582   5.015
 1014SOL    HW2 3055   0.233   3.614   4.872
 1015SOL     OW 3056   0.940   3.560   4.628
 1015SOL    HW1 3057   1.020   3.503   4.649
 1015SOL    HW2 3058   0.891   3.520   4.551
 1016SOL     OW 3059   0.382   2.562   4.204
 1016SOL    HW1 3060   0.427   2.472   4.201
 1016SOL    HW2 3061   0.288   2.551   4.237
 1017SOL     OW 3062   0.614   1.984   3.841
 1017SOL    HW1 3063   0.712   1.962   3.848
 1017SOL    HW2 3064   0.583   1.967   3.748
 1018SOL     OW 3065   0.803   3.264   4.648
 1018SOL    HW1 3066   0.893   3.278   4.606
 1018SOL    HW2 3067   0.732   3.266   4.577
 1019SOL     OW 3068   0.922   2.365   4.623
 1019SOL    HW1 3069   0.897   2.356   4.527
 1019SOL    HW2 3070   0.970   2.283   4.654
 1020SOL     OW 3071   0.539   1.926   4.236
 1020SOL    HW1 3072   0.458   1.927   4.294
 1020SOL    HW2 3073   0.542   2.009   4.181
 1021SOL     OW 3074   1.434   3.050   3.765
 1021SOL    HW1 3075   1.466   2.974   3.822
 1021SOL    HW2 3076   1.342   3.077   3.795
 1022SOL     OW 3077   0.297   1.897   3.895
 1022SOL    HW1 3078   0.346   1.981   3.874
 1022SOL    HW2 3079   0.359   1.832   3.940
 1023SOL     OW 3080   0.935   2.098   4.204
 1023SOL    HW1 3081   0.887   2.139   4.126
 1023SOL    HW2 3082   1.034   2.096   4.185
 1024SOL     OW 3083   1.227   3.432   4.517
 1024SOL    HW1 3084   1.248   3.506   4.452
 1024SOL    HW2 3085   1.295   3.432   4.590
 1025SOL     OW 3086   0.459   3.014   4.465
 1025SOL    HW1 3087   0.388   2.987   4.530
 1025SOL    HW2 3088   0.433   2.986   4.372
 1026SOL     OW 3089   1.271   3.659   4.315
 1026SOL    HW1 3090   1.315   3.723   4.251
 1026SOL    HW2 3091   1.221   3.711   4.385
 1027SOL     OW 3092   1.032   2.411   3.740
 1027SOL    HW1 3093   0.991   2.493   3.701
 1027SOL    HW2 3094   1.096   2.437   3.813
 1028SOL     OW 3095   0.866   2.316   4.366
 1028SOL    HW1 3096   0.834   2.388   4.304
 1028SOL    HW2 3097   0.890   2.235   4.313
 1029SOL     OW 3098   1.017   1.901   4.477
 1029SOL    HW1 3099   0.945   1.906   4.408
 1029SOL    HW2 3100   0.993   1.832   4.546
 1030SOL     OW 3101   1.429   3.035   4.591
 1030SOL    HW1 3102   1.374   2.951   4.584
 1030SOL    HW2 3103   1.455   3.064   4.499
 1031SOL     OW 3104   1.466   2.452   4.716
 1031SOL    HW1 3105   1.436   2.357   4.723
 1031SOL    HW2 3106   1.539   2.468   4.782
 1032SOL     OW 3107   1.857   2.695   4.101
 1032SOL    HW1 3108   1.899   2.631   4.165
 1032SOL    HW2 3109   1.819   2.644   4.023
 1033SOL     OW 3110   0.488   3.247   3.898
 1033SOL    HW1 3111   0.401   3.232   3.945
 1033SOL    HW2 3112   0.471   3.273   3.803
 1034SOL     OW 3113   1.664   3.142   4.381
 1034SOL    HW1 3114   1.763   3.150   4.395
 1034SOL    HW2 3115   1.619   3.226   4.412
 1035SOL     OW 3116   1.390   2.437   3.802
 1035SOL    HW1 3117   1.336   2.416   3.883
 1035SOL    HW2 3118   1.481   2.396   3.811
 1036SOL     OW 3119   0.527   2.118   4.052
 1036SOL    HW1 3120   0.554   2.059   3.977
 1036SOL    HW2 3121   0.527   2.213   4.021
 1037SOL     OW 3122   1.638   2.961   4.803
 1037SOL    HW1 3123   1.643   3.042   4.862
 1037SOL    HW2 3124   1.552   2.963   4.752
 1038SOL     OW 3125   0.705   2.912   4.092
 1038SOL    HW1 3126   0.691   2.919   4.191
 1038SOL    HW2 3127   0.789   2.861   4.074
 1039SOL     OW 3128   0.367   2.962   4.225
 1039SOL    HW1 3129   0.360   3.045   4.169
 1039SOL    HW2 3130   0.371   2.882   4.165
 1040SOL     OW 3131   0.566   2.399   4.589
 1040SOL    HW1 3132   0.578   2.465   4.515
 1040SOL    HW2 3133   0.612   2.433   4.672
 1041SOL     OW 3134   1.252   3.210   4.112
 1041SOL    HW1 3135   1.302   3.287   4.152
 1041SOL    HW2 3136   1.157   3.212   4.144
 1042SOL     OW 3137   1.582   2.501   4.196
 1042SOL    HW1 3138   1.551   2.562   4.269
 1042SOL    HW2 3139   1.632   2.553   4.127
 1043SOL     OW 3140   0.573   2.732   4.753
 1043SOL    HW1 3141   0.617   2.821   4.744
 1043SOL    HW2 3142   0.510   2.732   4.830
 1044SOL     OW 3143   1.209   2.387   3.999
 1044SOL    HW1 3144   1.222   2.303   4.053
 1044SOL    HW2 3145   1.180   2.461   4.059
 1045SOL     OW 3146   0.307   2.075   4.955
 1045SOL    HW1 3147   0.284   2.112   5.045
 1045SOL    HW2 3148   0.277   1.980   4.949
 1046SOL     OW 3149   0.732   2.496   4.788
 1046SOL    HW1 3150   0.791   2.470   4.712
 1046SOL    HW2 3151   0.704   2.592   4.777
 1047SOL     OW 3152   0.307   1.925   4.342
 1047SOL    HW1 3153   0.296   2.019   4.375
 1047SOL    HW2 3154   0.302   1.862   4.419
 1048SOL     OW 3155   1.622   2.229   4.098
 1048SOL    HW1 3156   1.624   2.153   4.162
 1048SOL    HW2 3157   1.574   2.306   4.138
 1049SOL     OW 3158   1.540   2.136   3.849
 1049SOL    HW1 3159   1.479   2.061   3.872
 1049SOL    HW2 3160   1.562   2.188   3.932
 1050SOL     OW 3161   1.303   2.700   3.766
 1050SOL    HW1 3162   1.337   2.607   3.781
 1050SOL    HW2 3163   1.321   2.727   3.671
 1051SOL     OW 3164   1.068   3.195   4.573
 1051SOL    HW1 3165   1.075   3.111   4.518
 1051SOL    HW2 3166   1.130   3.264   4.537
 1052SOL     OW 3167   0.319   2.672   4.673
 1052SOL    HW1 3168   0.412   2.708   4.678
 1052SOL    HW2 3169   0.313   2.587   4.725
 1053SOL     OW 3170   0.339   2.371   4.730
 1053SOL    HW1 3171   0.287   2.288   4.713
 1053SOL    HW2 3172   0.416   2.376   4.666
 1054SOL     OW 3173   0.008   3.188   3.924
 1054SOL    HW1 3174  -0.085   3.209   3.893
 1054SOL    HW2 3175   0.018   3.089   3.937
 1055SOL     OW 3176   0.088   3.663   4.651
 1055SOL    HW1 3177   0.046   3.577   4.624
 1055SOL    HW2 3178   0.182   3.666   4.617
 1056SOL     OW 3179   0.504   3.430   4.634
 1056SOL    HW1 3180   0.570   3.504   4.643
 1056SOL    HW2 3181   0.548   3.351   4.592
 1057SOL     OW 3182   0.815   2.434   4.049
 1057SOL    HW1 3183   0.822   2.345   4.003
 1057SOL    HW2 3184   0.721   2.468   4.041
 1058SOL     OW 3185   0.671   2.326   4.993
 1058SOL    HW1 3186   0.637   2.237   4.963
 1058SOL    HW2 3187   0.697   2.380   4.913
 1059SOL     OW 3188   0.473   2.362   3.915
 1059SOL    HW1 3189   0.534   2.442   3.919
 1059SOL    HW2 3190   0.378   2.393   3.922
 1060SOL     OW 3191   1.302   2.717   4.033
 1060SOL    HW1 3192   1.216   2.686   4.075
 1060SOL    HW2 3193   1.298   2.703   3.934
 1061SOL     OW 3194   1.759   3.609   4.878
 1061SOL    HW1 3195   1.820   3.639   4.805
 1061SOL    HW2 3196   1.721   3.520   4.856
 1062SOL     OW 3197   0.083   3.120   4.746
 1062SOL    HW1 3198   0.078   3.119   4.846
 1062SOL    HW2 3199   0.000   3.079   4.708
 1063SOL     OW 3200   1.726   1.997   4.247
 1063SOL    HW1 3201   1.799   1.980   4.180
 1063SOL    HW2 3202   1.695   1.910   4.285
 1064SOL     OW 3203   1.388   3.435   4.201
 1064SOL    HW1 3204   1.455   3.447   4.127
 1064SOL    HW2 3205   1.348   3.524   4.224
 1065SOL     OW 3206   1.280   2.789   4.396
 1065SOL    HW1 3207   1.340   2.708   4.398
 1065SOL    HW2 3208   1.320   2.858   4.336
 1066SOL     OW 3209   0.672   3.478   3.878
 1066SOL    HW1 3210   0.681   3.488   3.779
 1066SOL    HW2 3211   0.632   3.389   3.899
 1067SOL     OW 3212   1.841   2.037   4.687
 1067SOL    HW1 3213   1.880   1.952   4.651
 1067SOL    HW2 3214   1.743   2.039   4.668
 1068SOL     OW 3215   0.263   2.188   4.444
 1068SOL    HW1 3216   0.184   2.239   4.410
 1068SOL    HW2 3217   0.254   2.173   4.542
 1069SOL     OW 3218   1.194   3.474   3.755
 1069SOL    HW1 3219   1.200   3.381   3.792
 1069SOL    HW2 3220   1.135   3.474   3.675
 1070SOL     OW 3221   0.916   2.772   4.015
 1070SOL    HW1 3222   0.979   2.810   3.947
 1070SOL    HW2 3223   0.956   2.689   4.054
 1071SOL     OW 3224   1.504   3.469   3.768
 1071SOL    HW1 3225   1.412   3.506   3.775
 1071SOL    HW2 3226   1.542   3.489   3.678
 1072SOL     OW 3227   1.039   2.960   4.420
 1072SOL    HW1 3228   0.969   2.913   4.474
 1072SOL    HW2 3229   1.098   2.892   4.377
 1073SOL     OW 3230   0.590   3.349   4.215
 1073SOL    HW1 3231   0.632   3.291   4.145
 1073SOL    HW2 3232   0.546   3.428   4.171
 1074SOL     OW 3233   0.255   3.210   4.014
 1074SOL    HW1 3234   0.159   3.211   3.987
 1074SOL    HW2 3235   0.267   3.263   4.098
 1075SOL     OW 3236   0.075   2.207   3.757
 1075SOL    HW1 3237  -0.017   2.179   3.728
 1075SOL    HW2 3238   0.106   2.284   3.701
 1076SOL     OW 3239   0.072   2.028   4.042
 1076SOL    HW1 3240   0.055   2.111   3.988
 1076SOL    HW2 3241   0.162   1.991   4.020
 1077SOL     OW 3242   1.183   3.197   3.843
 1077SOL    HW1 3243   1.084   3.186   3.845
 1077SOL    HW2 3244   1.217   3.212   3.936
 1078SOL     OW 3245   1.674   2.745   4.978
 1078SOL    HW1 3246   1.647   2.656   4.941
 1078SOL    HW2 3247   1.675   2.813   4.905
 1079SOL     OW 3248   1.225   2.187   4.173
 1079SOL    HW1 3249   1.290   2.113   4.162
 1079SOL    HW2 3250   1.245   2.237   4.257
 1080SOL     OW 3251   0.594   2.607   4.376
 1080SOL    HW1 3252   0.644   2.692   4.357
 1080SOL    HW2 3253   0.506   2.609   4.328
 1081SOL     OW 3254   0.859   3.236   3.740
 1081SOL    HW1 3255   0.813   3.251   3.828
 1081SOL    HW2 3256   0.903   3.321   3.710
 1082SOL     OW 3257   0.661   3.652   4.677
 1082SOL    HW1 3258   0.615   3.740   4.664
 1082SOL    HW2 3259   0.760   3.664   4.670
 1083SOL     OW 3260   0.859   2.818   4.585
 1083SOL    HW1 3261   0.913   2.749   4.633
 1083SOL    HW2 3262   0.827   2.887   4.651
 1084SOL     OW 3263   1.083   2.846   3.811
 1084SOL    HW1 3264   1.060   2.899   3.729
 1084SOL    HW2 3265   1.164   2.790   3.792
 1085SOL     OW 3266   1.861   3.431   4.575
 1085SOL    HW1 3267   1.790   3.419   4.505
 1085SOL    HW2 3268   1.862   3.352   4.635
 1086SOL     OW 3269   0.079   3.102   4.377
 1086SOL    HW1 3270   0.078   3.055   4.465
 1086SOL    HW2 3271   0.161   3.074   4.326
 1087SOL     OW 3272   1.824   2.054   4.951
 1087SOL    HW1 3273   1.820   1.964   4.995
 1087SOL    HW2 3274   1.827   2.043   4.852
 1088SOL     OW 3275   0.428   2.286   4.244
 1088SOL    HW1 3276   0.458   2.214   4.182
 1088SOL    HW2 3277   0.389   2.246   4.327
 1089SOL     OW 3278   0.812   3.448   4.411
 1089SOL    HW1 3279   0.844   3.458   4.317
 1089SOL    HW2 3280   0.733   3.386   4.413
 1090SOL     OW 3281   0.770   3.192   4.025
 1090SOL    HW1 3282   0.724   3.105   4.042
 1090SOL    HW2 3283   0.861   3.189   4.066
 1091SOL     OW 3284   1.352   1.914   3.892
 1091SOL    HW1 3285   1.387   1.873   3.808
 1091SOL    HW2 3286   1.262   1.876   3.912
 1092SOL     OW 3287   1.300   2.315   4.415
 1092SOL    HW1 3288   1.241   2.395   4.419
 1092SOL    HW2 3289   1.315   2.280   4.508
 1093SOL     OW 3290   1.593   2.083   4.606
 1093SOL    HW1 3291   1.509   2.082   4.660
 1093SOL    HW2 3292   1.595   2.166   4.550
 1094SOL     OW 3293   0.039   2.939   4.024
 1094SOL    HW1 3294   0.138   2.928   4.015
 1094SOL    HW2 3295  -0.001   2.853   4.056
 1095SOL     OW 3296   0.875   3.508   4.061
 1095SOL    HW1 3297   0.798   3.473   4.007
 1095SOL    HW2 3298   0.843   3.579   4.123
 1096SOL     OW 3299   0.230   4.352   0.113
 1096SOL    HW1 3300   0.137   4.350   0.150
 1096SOL    HW2 3301   0.231   4.313   0.021
 1097SOL     OW 3302   0.225   3.999   0.996
 1097SOL    HW1 3303   0.260   3.982   1.088
 1097SOL    HW2 3304   0.137   3.954   0.984
 1098SOL     OW 3305   0.019   4.092   0.647
 1098SOL    HW1 3306  -0.063   4.135   0.686
 1098SOL    HW2 3307  -0.009   4.019   0.584
 1099SOL     OW 3308   1.135   4.427   0.717
 1099SOL    HW1 3309   1.192   4.505   0.692
 1099SOL    HW2 3310   1.075   4.453   0.793
 1100SOL     OW 3311   1.755   4.331   0.231
 1100SOL    HW1 3312   1.743   4.318   0.132
 1100SOL    HW2 3313   1.725   4.250   0.280
 1101SOL     OW 3314   0.768   4.868   1.023
 1101SOL    HW1 3315   0.690   4.885   1.083
 1101SOL    HW2 3316   0.802   4.955   0.987
 1102SOL     OW 3317   0.850   4.522   1.823
 1102SOL    HW1 3318   0.846   4.598   1.888
 1102SOL    HW2 3319   0.872   4.558   1.732
 1103SOL     OW 3320   0.685   4.736   0.665
 1103SOL    HW1 3321   0.754   4.720   0.735
 1103SOL    HW2 3322   0.612   4.793   0.703
 1104SOL     OW 3323   0.438   4.116   1.499
 1104SOL    HW1 3324   0.520   4.060   1.508
 1104SOL    HW2 3325   0.357   4.058   1.503
 1105SOL     OW 3326   1.603   4.171   0.737
 1105SOL    HW1 3327   1.529   4.217   0.687
 1105SOL    HW2 3328   1.654   4.239   0.790
 1106SOL     OW 3329   0.240   4.815   0.886
 1106SOL    HW1 3330   0.254   4.731   0.938
 1106SOL    HW2 3331   0.185   4.879   0.941
 1107SOL     OW 3332   0.606   4.688   0.123
 1107SOL    HW1 3333   0.613   4.772   0.069
 1107SOL    HW2 3334   0.652   4.701   0.211
 1108SOL     OW 3335   1.594   3.838   1.480
 1108SOL    HW1 3336   1.576   3.905   1.408
 1108SOL    HW2 3337   1.591   3.884   1.569
 1109SOL     OW 3338   0.122   4.367   0.563
 1109SOL    HW1 3339   0.077   4.279   0.580
 1109SOL    HW2 3340   0.121   4.421   0.647
 1110SOL     OW 3341   1.689   4.646   0.612
 1110SOL    HW1 3342   1.784   4.617   0.620
 1110SOL    HW2 3343   1.681   4.711   0.537
 1111SOL     OW 3344   0.113   4.461   1.597
 1111SOL    HW1 3345   0.201   4.448   1.642
 1111SOL    HW2 3346   0.100   4.558   1.575
 1112SOL     OW 3347   0.809   3.728   0.502
 1112SOL    HW1 3348   0.849   3.819   0.493
 1112SOL    HW2 3349   0.709   3.736   0.508
 1113SOL     OW 3350   0.197   4.700   1.264
 1113SOL    HW1 3351   0.286   4.655   1.250
 1113SOL    HW2 3352   0.124   4.635   1.245
 1114SOL     OW 3353   1.525   4.723   0.190
 1114SOL    HW1 3354   1.462   4.647   0.203
 1114SOL    HW2 3355   1.573   4.741   0.276
 1115SOL     OW 3356   0.317   3.975   1.801
 1115SOL    HW1 3357   0.388   4.046   1.807
 1115SOL    HW2 3358   0.229   4.014   1.829
 1116SOL     OW 3359   0.598   4.453   0.270
 1116SOL    HW1 3360   0.622   4.522   0.202
 1116SOL    HW2 3361   0.520   4.486   0.324
 1117SOL     OW 3362   1.281   4.069   0.944
 1117SOL    HW1 3363   1.195   4.019   0.931
 1117SOL    HW2 3364   1.343   4.015   1.000
 1118SOL     OW 3365   0.807   4.329   1.465
 1118SOL    HW1 3366   0.760   4.326   1.554
 1118SOL    HW2 3367   0.756   4.274   1.399
 1119SOL     OW 3368   1.394   4.193   1.674
 1119SOL    HW1 3369   1.374   4.236   1.762
 1119SOL    HW2 3370   1.472   4.131   1.683
 1120SOL     OW 3371   0.973   4.614   1.572
 1120SOL    HW1 3372   1.019   4.530   1.543
 1120SOL    HW2 3373   0.917   4.648   1.497
 1121SOL     OW 3374   0.991   4.134   1.242
 1121SOL    HW1 3375   0.914   4.168   1.296
 1121SOL    HW2 3376   0.957   4.083   1.163
 1122SOL     OW 3377   1.041   4.425   0.429
 1122SOL    HW1 3378   1.067   4.421   0.525
 1122SOL    HW2 3379   0.956   4.374   0.415
 1123SOL     OW 3380   0.076   4.535   0.789
 1123SOL    HW1 3381   0.175   4.523   0.798
 1123SOL    HW2 3382   0.052   4.630   0.810
 1124SOL     OW 3383   0.865   4.072   0.195
 1124SOL    HW1 3384   0.924   4.135   0.146
 1124SOL    HW2 3385   0.884   3.978   0.166
 1125SOL     OW 3386   1.719   4.309   1.831
 1125SOL    HW1 3387   1.693   4.398   1.795
 1125SOL    HW2 3388   1.717   4.241   1.758
 1126SOL     OW 3389   0.550   3.920   0.885
 1126SOL    HW1 3390   0.545   3.915   0.985
 1126SOL    HW2 3391   0.552   4.016   0.856
 1127SOL     OW 3392   1.458   4.459   0.728
 1127SOL    HW1 3393   1.453   4.394   0.803
 1127SOL    HW2 3394   1.538   4.518   0.741
 1128SOL     OW 3395   0.202   4.009   1.498
 1128SOL    HW1 3396   0.122   4.069   1.485
 1128SOL    HW2 3397   0.192   3.960   1.584
 1129SOL     OW 3398   1.400   3.831   0.426
 1129SOL    HW1 3399   1.376   3.794   0.336
 1129SOL    HW2 3400   1.499   3.847   0.430
 1130SOL     OW 3401   0.382   4.424   0.480
 1130SOL    HW1 3402   0.427   4.334   0.477
 1130SOL    HW2 3403   0.288   4.413   0.513
 1131SOL     OW 3404   1.547   3.946   1.729
 1131SOL    HW1 3405   1.542   3.983   1.821
 1131SOL    HW2 3406   1.475   3.877   1.717
 1132SOL     OW 3407   0.614   3.846   0.117
 1132SOL    HW1 3408   0.712   3.824   0.124
 1132SOL    HW2 3409   0.583   3.829   0.024
 1133SOL     OW 3410   0.781   3.988   1.749
 1133SOL    HW1 3411   0.848   3.927   1.792
 1133SOL    HW2 3412   0.708   4.007   1.814
 1134SOL     OW 3413   1.351   4.314   1.433
 1134SOL    HW1 3414   1.379   4.271   1.518
 1134SOL    HW2 3415   1.376   4.410   1.434
 1135SOL     OW 3416   0.922   4.227   0.899
 1135SOL    HW1 3417   0.897   4.218   0.803
 1135SOL    HW2 3418   0.970   4.145   0.930
 1136SOL     OW 3419   0.539   3.788   0.512
 1136SOL    HW1 3420   0.458   3.789   0.570
 1136SOL    HW2 3421   0.542   3.871   0.457
 1137SOL     OW 3422   0.935   3.960   0.480
 1137SOL    HW1 3423   0.887   4.001   0.402
 1137SOL    HW2 3424   1.034   3.958   0.461
 1138SOL     OW 3425   1.076   4.407   1.464
 1138SOL    HW1 3426   0.996   4.346   1.467
 1138SOL    HW2 3427   1.157   4.354   1.440
 1139SOL     OW 3428   1.032   4.273   0.016
 1139SOL    HW1 3429   0.991   4.355  -0.023
 1139SOL    HW2 3430   1.096   4.299   0.089
 1140SOL     OW 3431   0.078   4.280   1.386
 1140SOL    HW1 3432   0.170   4.279   1.345
 1140SOL    HW2 3433   0.072   4.354   1.453
 1141SOL     OW 3434   0.561   3.946   1.147
 1141SOL    HW1 3435   0.599   3.862   1.184
 1141SOL    HW2 3436   0.473   3.965   1.191
 1142SOL     OW 3437   0.866   4.178   0.642
 1142SOL    HW1 3438   0.834   4.250   0.580
 1142SOL    HW2 3439   0.890   4.097   0.589
 1143SOL     OW 3440   1.017   3.763   0.753
 1143SOL    HW1 3441   0.945   3.768   0.684
 1143SOL    HW2 3442   0.993   3.694   0.822
 1144SOL     OW 3443   1.429   4.897   0.867
 1144SOL    HW1 3444   1.374   4.813   0.860
 1144SOL    HW2 3445   1.455   4.926   0.775
 1145SOL     OW 3446   1.466   4.314   0.992
 1145SOL    HW1 3447   1.436   4.219   0.999
 1145SOL    HW2 3448   1.539   4.330   1.058
 1146SOL     OW 3449   1.857   4.557   0.377
 1146SOL    HW1 3450   1.899   4.493   0.441
 1146SOL    HW2 3451   1.819   4.506   0.299
 1147SOL     OW 3452   1.390   4.299   0.078
 1147SOL    HW1 3453   1.336   4.278   0.159
 1147SOL    HW2 3454   1.481   4.258   0.087
 1148SOL     OW 3455   0.527   3.980   0.328
 1148SOL    HW1 3456   0.554   3.921   0.253
 1148SOL    HW2 3457   0.527   4.075   0.297
 1149SOL     OW 3458   1.638   4.823   1.079
 1149SOL    HW1 3459   1.643   4.904   1.138
 1149SOL    HW2 3460   1.552   4.825   1.028
 1150SOL     OW 3461   0.915   3.813   1.402
 1150SOL    HW1 3462   0.940   3.793   1.307
 1150SOL    HW2 3463   0.987   3.869   1.444
 1151SOL     OW 3464   0.410   4.537   1.251
 1151SOL    HW1 3465   0.496   4.549   1.301
 1151SOL    HW2 3466   0.368   4.450   1.278
 1152SOL     OW 3467   1.274   4.110   1.262
 1152SOL    HW1 3468   1.295   4.184   1.326
 1152SOL    HW2 3469   1.185   4.127   1.219
 1153SOL     OW 3470   0.566   4.261   0.865
 1153SOL    HW1 3471   0.578   4.327   0.791
 1153SOL    HW2 3472   0.612   4.295   0.948
 1154SOL     OW 3473   1.582   4.363   0.472
 1154SOL    HW1 3474   1.551   4.424   0.545
 1154SOL    HW2 3475   1.632   4.415   0.403
 1155SOL     OW 3476   0.402   4.475   1.598
 1155SOL    HW1 3477   0.470   4.530   1.551
 1155SOL    HW2 3478   0.442   4.387   1.625
 1156SOL     OW 3479   1.587   4.503   1.670
 1156SOL    HW1 3480   1.495   4.541   1.665
 1156SOL    HW2 3481   1.647   4.550   1.605
 1157SOL     OW 3482   1.013   3.829   1.770
 1157SOL    HW1 3483   1.019   3.914   1.718
 1157SOL    HW2 3484   1.045   3.753   1.713
 1158SOL     OW 3485   0.504   3.774   1.740
 1158SOL    HW1 3486   0.462   3.717   1.670
 1158SOL    HW2 3487   0.438   3.843   1.772
 1159SOL     OW 3488   0.573   4.594   1.029
 1159SOL    HW1 3489   0.617   4.683   1.020
 1159SOL    HW2 3490   0.510   4.594   1.106
 1160SOL     OW 3491   1.360   4.586   1.045
 1160SOL    HW1 3492   1.285   4.586   0.979
 1160SOL    HW2 3493   1.397   4.494   1.054
 1161SOL     OW 3494   1.209   4.249   0.275
 1161SOL    HW1 3495   1.222   4.165   0.329
 1161SOL    HW2 3496   1.180   4.323   0.335
 1162SOL     OW 3497   0.307   3.937   1.231
 1162SOL    HW1 3498   0.284   3.974   1.321
 1162SOL    HW2 3499   0.277   3.842   1.225
 1163SOL     OW 3500   0.037   5.034   1.282
 1163SOL    HW1 3501   0.090   4.985   1.350
 1163SOL    HW2 3502   0.059   5.132   1.287
 1164SOL     OW 3503   0.732   4.358   1.064
 1164SOL    HW1 3504   0.791   4.332   0.988
 1164SOL    HW2 3505   0.704   4.454   1.053
 1165SOL     OW 3506   1.728   4.659   1.854
 1165SOL    HW1 3507   1.682   4.652   1.765
 1165SOL    HW2 3508   1.666   4.703   1.920
 1166SOL     OW 3509   0.307   3.787   0.618
 1166SOL    HW1 3510   0.296   3.881   0.651
 1166SOL    HW2 3511   0.302   3.724   0.695
 1167SOL     OW 3512   1.622   4.091   0.374
 1167SOL    HW1 3513   1.624   4.015   0.438
 1167SOL    HW2 3514   1.574   4.168   0.414
 1168SOL     OW 3515   1.023   4.490   0.966
 1168SOL    HW1 3516   1.038   4.511   1.062
 1168SOL    HW2 3517   0.993   4.395   0.957
 1169SOL     OW 3518   0.350   4.622   1.804
 1169SOL    HW1 3519   0.426   4.666   1.852
 1169SOL    HW2 3520   0.385   4.575   1.722
 1170SOL     OW 3521   1.540   3.998   0.125
 1170SOL    HW1 3522   1.479   3.923   0.148
 1170SOL    HW2 3523   1.562   4.050   0.208
 1171SOL     OW 3524   1.303   4.562   0.042
 1171SOL    HW1 3525   1.337   4.469   0.057
 1171SOL    HW2 3526   1.321   4.589  -0.053
 1172SOL     OW 3527   0.319   4.534   0.949
 1172SOL    HW1 3528   0.412   4.570   0.954
 1172SOL    HW2 3529   0.313   4.449   1.001
 1173SOL     OW 3530   0.339   4.233   1.006
 1173SOL    HW1 3531   0.287   4.150   0.989
 1173SOL    HW2 3532   0.416   4.238   0.942
 1174SOL     OW 3533   1.138   4.104   1.678
 1174SOL    HW1 3534   1.093   4.167   1.742
 1174SOL    HW2 3535   1.231   4.135   1.661
 1175SOL     OW 3536   1.160   3.931   1.477
 1175SOL    HW1 3537   1.160   3.995   1.554
 1175SOL    HW2 3538   1.188   3.979   1.394
 1176SOL     OW 3539   1.002   4.520   1.238
 1176SOL    HW1 3540   1.043   4.488   1.324
 1176SOL    HW2 3541   0.906   4.493   1.235
 1177SOL     OW 3542   0.040   4.268   1.114
 1177SOL    HW1 3543   0.125   4.235   1.073
 1177SOL    HW2 3544   0.053   4.283   1.212
 1178SOL     OW 3545   0.189   4.244   1.722
 1178SOL    HW1 3546   0.248   4.204   1.652
 1178SOL    HW2 3547   0.131   4.315   1.681
 1179SOL     OW 3548   1.369   4.674   1.660
 1179SOL    HW1 3549   1.408   4.763   1.680
 1179SOL    HW2 3550   1.379   4.654   1.563
 1180SOL     OW 3551   0.815   4.296   0.325
 1180SOL    HW1 3552   0.822   4.207   0.279
 1180SOL    HW2 3553   0.721   4.330   0.317
 1181SOL     OW 3554   1.657   4.328   1.206
 1181SOL    HW1 3555   1.619   4.259   1.268
 1181SOL    HW2 3556   1.739   4.292   1.162
 1182SOL     OW 3557   0.671   4.188   1.269
 1182SOL    HW1 3558   0.637   4.099   1.239
 1182SOL    HW2 3559   0.697   4.242   1.189
 1183SOL     OW 3560   0.473   4.224   0.191
 1183SOL    HW1 3561   0.534   4.304   0.195
 1183SOL    HW2 3562   0.378   4.255   0.198
 1184SOL     OW 3563   0.159   4.861   1.466
 1184SOL    HW1 3564   0.181   4.800   1.542
 1184SOL    HW2 3565   0.169   4.812   1.380
 1185SOL     OW 3566   1.347   4.783   1.234
 1185SOL    HW1 3567   1.371   4.720   1.160
 1185SOL    HW2 3568   1.257   4.823   1.216
 1186SOL     OW 3569   1.302   4.579   0.309
 1186SOL    HW1 3570   1.216   4.548   0.351
 1186SOL    HW2 3571   1.298   4.565   0.210
 1187SOL     OW 3572   0.903   3.810   0.133
 1187SOL    HW1 3573   0.954   3.811   0.047
 1187SOL    HW2 3574   0.959   3.768   0.204
 1188SOL     OW 3575   1.726   3.859   0.523
 1188SOL    HW1 3576   1.799   3.842   0.456
 1188SOL    HW2 3577   1.695   3.772   0.561
 1189SOL     OW 3578   1.280   4.651   0.672
 1189SOL    HW1 3579   1.340   4.570   0.674
 1189SOL    HW2 3580   1.320   4.720   0.612
 1190SOL     OW 3581   1.841   3.899   0.963
 1190SOL    HW1 3582   1.880   3.814   0.927
 1190SOL    HW2 3583   1.743   3.901   0.944
 1191SOL     OW 3584   0.263   4.050   0.720
 1191SOL    HW1 3585   0.184   4.101   0.686
 1191SOL    HW2 3586   0.254   4.035   0.818
 1192SOL     OW 3587   0.916   4.634   0.291
 1192SOL    HW1 3588   0.979   4.672   0.223
 1192SOL    HW2 3589   0.956   4.551   0.330
 1193SOL     OW 3590   1.014   3.960   0.971
 1193SOL    HW1 3591   1.006   3.924   0.878
 1193SOL    HW2 3592   1.012   3.884   1.036
 1194SOL     OW 3593   1.709   4.109   1.381
 1194SOL    HW1 3594   1.782   4.178   1.385
 1194SOL    HW2 3595   1.737   4.034   1.322
 1195SOL     OW 3596   0.105   4.737   1.726
 1195SOL    HW1 3597   0.028   4.704   1.780
 1195SOL    HW2 3598   0.190   4.707   1.768
 1196SOL     OW 3599   0.672   3.927   1.489
 1196SOL    HW1 3600   0.762   3.911   1.449
 1196SOL    HW2 3601   0.680   3.932   1.588
 1197SOL     OW 3602   0.075   4.069   0.033
 1197SOL    HW1 3603  -0.017   4.041   0.004
 1197SOL    HW2 3604   0.106   4.146  -0.023
 1198SOL     OW 3605   1.440   4.580   1.398
 1198SOL    HW1 3606   1.383   4.632   1.335
 1198SOL    HW2 3607   1.536   4.592   1.374
 1199SOL     OW 3608   0.072   3.890   0.318
 1199SOL    HW1 3609   0.055   3.973   0.264
 1199SOL    HW2 3610   0.162   3.853   0.296
 1200SOL     OW 3611   1.183   5.059   0.119
 1200SOL    HW1 3612   1.084   5.048   0.121
 1200SOL    HW2 3613   1.217   5.074   0.212
 1201SOL     OW 3614   0.613   4.566   1.431
 1201SOL    HW1 3615   0.669   4.647   1.414
 1201SOL    HW2 3616   0.672   4.486   1.434
 1202SOL     OW 3617   0.716   4.289   1.708
 1202SOL    HW1 3618   0.735   4.354   1.782
 1202SOL    HW2 3619   0.776   4.209   1.717
 1203SOL     OW 3620   1.674   4.607   1.254
 1203SOL    HW1 3621   1.647   4.518   1.217
 1203SOL    HW2 3622   1.675   4.675   1.181
 1204SOL     OW 3623   1.225   4.049   0.449
 1204SOL    HW1 3624   1.290   3.975   0.438
 1204SOL    HW2 3625   1.245   4.099   0.533
 1205SOL     OW 3626   0.594   4.469   0.652
 1205SOL    HW1 3627   0.644   4.554   0.633
 1205SOL    HW2 3628   0.506   4.471   0.604
 1206SOL     OW 3629   1.777   4.066   1.642
 1206SOL    HW1 3630   1.760   4.097   1.548
 1206SOL    HW2 3631   1.693   4.029   1.680
 1207SOL     OW 3632   1.730   4.658   1.517
 1207SOL    HW1 3633   1.768   4.749   1.532
 1207SOL    HW2 3634   1.722   4.641   1.418
 1208SOL     OW 3635   0.859   4.680   0.861
 1208SOL    HW1 3636   0.913   4.611   0.909
 1208SOL    HW2 3637   0.827   4.749   0.927
 1209SOL     OW 3638   1.083   4.708   0.087
 1209SOL    HW1 3639   1.060   4.761   0.005
 1209SOL    HW2 3640   1.164   4.652   0.068
 1210SOL     OW 3641   0.079   4.964   0.653
 1210SOL    HW1 3642   0.078   4.917   0.741
 1210SOL    HW2 3643   0.161   4.936   0.602
 1211SOL     OW 3644   1.824   3.916   1.227
 1211SOL    HW1 3645   1.820   3.826   1.271
 1211SOL    HW2 3646   1.827   3.905   1.128
 1212SOL     OW 3647   0.428   4.148   0.520
 1212SOL    HW1 3648   0.458   4.076   0.458
 1212SOL    HW2 3649   0.389   4.108   0.603
 1213SOL     OW 3650   0.317   4.271   1.280
 1213SOL    HW1 3651   0.355   4.212   1.352
 1213SOL    HW2 3652   0.357   4.245   1.192
 1214SOL     OW 3653   1.424   3.938   1.112
 1214SOL    HW1 3654   1.476   3.873   1.167
 1214SOL    HW2 3655   1.375   4.001   1.173
 1215SOL     OW 3656   1.001   3.758   1.154
 1215SOL    HW1 3657   0.938   3.686   1.123
 1215SOL    HW2 3658   1.094   3.722   1.154
 1216SOL     OW 3659   1.352   3.776   0.168
 1216SOL    HW1 3660   1.387   3.735   0.084
 1216SOL    HW2 3661   1.262   3.738   0.188
 1217SOL     OW 3662   1.300   4.177   0.691
 1217SOL    HW1 3663   1.241   4.257   0.695
 1217SOL    HW2 3664   1.315   4.142   0.784
 1218SOL     OW 3665   1.593   3.945   0.882
 1218SOL    HW1 3666   1.509   3.944   0.936
 1218SOL    HW2 3667   1.595   4.028   0.826
 1219SOL     OW 3668   0.230   4.352   1.975
 1219SOL    HW1 3669   0.137   4.350   2.012
 1219SOL    HW2 3670   0.231   4.313   1.883
 1220SOL     OW 3671   0.225   3.999   2.858
 1220SOL    HW1 3672   0.260   3.982   2.950
 1220SOL    HW2 3673   0.137   3.954   2.846
 1221SOL     OW 3674   0.019   4.092   2.509
 1221SOL    HW1 3675  -0.063   4.135   2.548
 1221SOL    HW2 3676  -0.009   4.019   2.446
 1222SOL     OW 3677   1.135   4.427   2.579
 1222SOL    HW1 3678   1.192   4.505   2.554
 1222SOL    HW2 3679   1.075   4.453   2.655
 1223SOL     OW 3680   1.755   4.331   2.093
 1223SOL    HW1 3681   1.743   4.318   1.994
 1223SOL    HW2 3682   1.725   4.250   2.142
 1224SOL     OW 3683   0.768   4.868   2.885
 1224SOL    HW1 3684   0.690   4.885   2.945
 1224SOL    HW2 3685   0.802   4.955   2.849
 1225SOL     OW 3686   0.850   4.522   3.685
 1225SOL    HW1 3687   0.846   4.598   3.750
 1225SOL    HW2 3688   0.872   4.558   3.594
 1226SOL     OW 3689   0.685   4.736   2.527
 1226SOL    HW1 3690   0.754   4.720   2.597
 1226SOL    HW2 3691   0.612   4.793   2.565
 1227SOL     OW 3692   0.438   4.116   3.361
 1227SOL    HW1 3693   0.520   4.060   3.370
 1227SOL    HW2 3694   0.357   4.058   3.365
 1228SOL     OW 3695   1.603   4.171   2.599
 1228SOL    HW1 3696   1.529   4.217   2.549
 1228SOL    HW2 3697   1.654   4.239   2.652
 1229SOL     OW 3698   0.240   4.815   2.748
 1229SOL    HW1 3699   0.254   4.731   2.800
 1229SOL    HW2 3700   0.185   4.879   2.803
 1230SOL     OW 3701   0.606   4.688   1.985
 1230SOL    HW1 3702   0.613   4.772   1.931
 1230SOL    HW2 3703   0.652   4.701   2.073
 1231SOL     OW 3704   1.594   3.838   3.342
 1231SOL    HW1 3705   1.576   3.905   3.270
 1231SOL    HW2 3706   1.591   3.884   3.431
 1232SOL     OW 3707   0.122   4.367   2.425
 1232SOL    HW1 3708   0.077   4.279   2.442
 1232SOL    HW2 3709   0.121   4.421   2.509
 1233SOL     OW 3710   1.689   4.646   2.474
 1233SOL    HW1 3711   1.784   4.617   2.482
 1233SOL    HW2 3712   1.681   4.711   2.399
 1234SOL     OW 3713   0.113   4.461   3.459
 1234SOL    HW1 3714   0.201   4.448   3.504
 1234SOL    HW2 3715   0.100   4.558   3.437
 1235SOL     OW 3716   0.809   3.728   2.364
 1235SOL    HW1 3717   0.849   3.819   2.355
 1235SOL    HW2 3718   0.709   3.736   2.370
 1236SOL     OW 3719   0.197   4.700   3.126
 1236SOL    HW1 3720   0.286   4.655   3.112
 1236SOL    HW2 3721   0.124   4.635   3.107
 1237SOL     OW 3722   1.525   4.723   2.052
 1237SOL    HW1 3723   1.462   4.647   2.065
 1237SOL    HW2 3724   1.573   4.741   2.138
 1238SOL     OW 3725   0.317   3.975   3.663
 1238SOL    HW1 3726   0.388   4.046   3.669
 1238SOL    HW2 3727   0.229   4.014   3.691
 1239SOL     OW 3728   0.598   4.453   2.132
 1239SOL    HW1 3729   0.622   4.522   2.064
 1239SOL    HW2 3730   0.520   4.486   2.186
 1240SOL     OW 3731   1.281   4.069   2.806
 1240SOL    HW1 3732   1.195   4.019   2.793
 1240SOL    HW2 3733   1.343   4.015   2.862
 1241SOL     OW 3734   0.807   4.329   3.327
 1241SOL    HW1 3735   0.760   4.326   3.416
 1241SOL    HW2 3736   0.756   4.274   3.261
 1242SOL     OW 3737   1.394   4.193   3.536
 1242SOL    HW1 3738   1.374   4.236   3.624
 1242SOL    HW2 3739   1.472   4.131   3.545
 1243SOL     OW 3740   0.973   4.614   3.434
 1243SOL    HW1 3741   1.019   4.530   3.405
 1243SOL    HW2 3742   0.917   4.648   3.359
 1244SOL     OW 3743   0.991   4.134   3.104
 1244SOL    HW1 3744   0.914   4.168   3.158
 1244SOL    HW2 3745   0.957   4.083   3.025
 1245SOL     OW 3746   1.041   4.425   2.291
 1245SOL    HW1 3747   1.067   4.421   2.387
 1245SOL    HW2 3748   0.956   4.374   2.277
 1246SOL     OW 3749   0.076   4.535   2.651
 1246SOL    HW1 3750   0.175   4.523   2.660
 1246SOL    HW2 3751   0.052   4.630   2.672
 1247SOL     OW 3752   0.865   4.072   2.057
 1247SOL    HW1 3753   0.924   4.135   2.008
 1247SOL    HW2 3754   0.884   3.978   2.028
 1248SOL     OW 3755   1.719   4.309   3.693
 1248SOL    HW1 3756   1.693   4.398   3.657
 1248SOL    HW2 3757   1.717   4.241   3.620
 1249SOL     OW 3758   0.550   3.920   2.747
 1249SOL    HW1 3759   0.545   3.915   2.847
 1249SOL    HW2 3760   0.552   4.016   2.718
 1250SOL     OW 3761   1.458   4.459   2.590
 1250SOL    HW1 3762   1.453   4.394   2.665
 1250SOL    HW2 3763   1.538   4.518   2.603
 1251SOL     OW 3764   0.202   4.009   3.360
 1251SOL    HW1 3765   0.122   4.069   3.347
 1251SOL    HW2 3766   0.192   3.960   3.446
 1252SOL     OW 3767   1.400   3.831   2.288
 1252SOL    HW1 3768   1.376   3.794   2.198
 1252SOL    HW2 3769   1.499   3.847   2.292
 1253SOL     OW 3770   0.382   4.424   2.342
 1253SOL    HW1 3771   0.427   4.334   2.339
 1253SOL    HW2 3772   0.288   4.413   2.375
 1254SOL     OW 3773   1.547   3.946   3.591
 1254SOL    HW1 3774   1.542   3.983   3.683
 1254SOL    HW2 3775   1.475   3.877   3.579
 1255SOL     OW 3776   0.614   3.846   1.979
 1255SOL    HW1 3777   0.712   3.824   1.986
 1255SOL    HW2 3778   0.583   3.829   1.886
 1256SOL     OW 3779   0.781   3.988   3.611
 1256SOL    HW1 3780   0.848   3.927   3.654
 1256SOL    HW2 3781   0.708   4.007   3.676
 1257SOL     OW 3782   1.351   4.314   3.295
 1257SOL    HW1 3783   1.379   4.271   3.380
 1257SOL    HW2 3784   1.376   4.410   3.296
 1258SOL     OW 3785   0.922   4.227   2.761
 1258SOL    HW1 3786   0.897   4.218   2.665
 1258SOL    HW2 3787   0.970   4.145   2.792
 1259SOL     OW 3788   0.539   3.788   2.374
 1259SOL    HW1 3789   0.458   3.789   2.432
 1259SOL    HW2 3790   0.542   3.871   2.319
 1260SOL     OW 3791   0.297   3.759   2.033
 1260SOL    HW1 3792   0.346   3.843   2.012
 1260SOL    HW2 3793   0.359   3.694   2.078
 1261SOL     OW 3794   0.935   3.960   2.342
 1261SOL    HW1 3795   0.887   4.001   2.264
 1261SOL    HW2 3796   1.034   3.958   2.323
 1262SOL     OW 3797   1.076   4.407   3.326
 1262SOL    HW1 3798   0.996   4.346   3.329
 1262SOL    HW2 3799   1.157   4.354   3.302
 1263SOL     OW 3800   1.032   4.273   1.878
 1263SOL    HW1 3801   0.991   4.355   1.839
 1263SOL    HW2 3802   1.096   4.299   1.951
 1264SOL     OW 3803   0.078   4.280   3.248
 1264SOL    HW1 3804   0.170   4.279   3.207
 1264SOL    HW2 3805   0.072   4.354   3.315
 1265SOL     OW 3806   0.561   3.946   3.009
 1265SOL    HW1 3807   0.599   3.862   3.046
 1265SOL    HW2 3808   0.473   3.965   3.053
 1266SOL     OW 3809   0.866   4.178   2.504
 1266SOL    HW1 3810   0.834   4.250   2.442
 1266SOL    HW2 3811   0.890   4.097   2.451
 1267SOL     OW 3812   1.017   3.763   2.615
 1267SOL    HW1 3813   0.945   3.768   2.546
 1267SOL    HW2 3814   0.993   3.694   2.684
 1268SOL     OW 3815   1.429   4.897   2.729
 1268SOL    HW1 3816   1.374   4.813   2.722
 1268SOL    HW2 3817   1.455   4.926   2.637
 1269SOL     OW 3818   1.466   4.314   2.854
 1269SOL    HW1 3819   1.436   4.219   2.861
 1269SOL    HW2 3820   1.539   4.330   2.920
 1270SOL     OW 3821   1.857   4.557   2.239
 1270SOL    HW1 3822   1.899   4.493   2.303
 1270SOL    HW2 3823   1.819   4.506   2.161
 1271SOL     OW 3824   1.390   4.299   1.940
 1271SOL    HW1 3825   1.336   4.278   2.021
 1271SOL    HW2 3826   1.481   4.258   1.949
 1272SOL     OW 3827   0.527   3.980   2.190
 1272SOL    HW1 3828   0.554   3.921   2.115
 1272SOL    HW2 3829   0.527   4.075   2.159
 1273SOL     OW 3830   1.638   4.823   2.941
 1273SOL    HW1 3831   1.643   4.904   3.000
 1273SOL    HW2 3832   1.552   4.825   2.890
 1274SOL     OW 3833   0.915   3.813   3.264
 1274SOL    HW1 3834   0.940   3.793   3.169
 1274SOL    HW2 3835   0.987   3.869   3.306
 1275SOL     OW 3836   0.410   4.537   3.113
 1275SOL    HW1 3837   0.496   4.549   3.163
 1275SOL    HW2 3838   0.368   4.450   3.140
 1276SOL     OW 3839   1.274   4.110   3.124
 1276SOL    HW1 3840   1.295   4.184   3.188
 1276SOL    HW2 3841   1.185   4.127   3.081
 1277SOL     OW 3842   0.566   4.261   2.727
 1277SOL    HW1 3843   0.578   4.327   2.653
 1277SOL    HW2 3844   0.612   4.295   2.810
 1278SOL     OW 3845   1.582   4.363   2.334
 1278SOL    HW1 3846   1.551   4.424   2.407
 1278SOL    HW2 3847   1.632   4.415   2.265
 1279SOL     OW 3848   0.402   4.475   3.460
 1279SOL    HW1 3849   0.470   4.530   3.413
 1279SOL    HW2 3850   0.442   4.387   3.487
 1280SOL     OW 3851   1.587   4.503   3.532
 1280SOL    HW1 3852   1.495   4.541   3.527
 1280SOL    HW2 3853   1.647   4.550   3.467
 1281SOL     OW 3854   1.013   3.829   3.632
 1281SOL    HW1 3855   1.019   3.914   3.580
 1281SOL    HW2 3856   1.045   3.753   3.575
 1282SOL     OW 3857   0.504   3.774   3.602
 1282SOL    HW1 3858   0.462   3.717   3.532
 1282SOL    HW2 3859   0.438   3.843   3.634
 1283SOL     OW 3860   0.573   4.594   2.891
 1283SOL    HW1 3861   0.617   4.683   2.882
 1283SOL    HW2 3862   0.510   4.594   2.968
 1284SOL     OW 3863   1.360   4.586   2.907
 1284SOL    HW1 3864   1.285   4.586   2.841
 1284SOL    HW2 3865   1.397   4.494   2.916
 1285SOL     OW 3866   1.209   4.249   2.137
 1285SOL    HW1 3867   1.222   4.165   2.191
 1285SOL    HW2 3868   1.180   4.323   2.197
 1286SOL     OW 3869   0.307   3.937   3.093
 1286SOL    HW1 3870   0.284   3.974   3.183
 1286SOL    HW2 3871   0.277   3.842   3.087
 1287SOL     OW 3872   0.037   5.034   3.144
 1287SOL    HW1 3873   0.090   4.985   3.212
 1287SOL    HW2 3874   0.059   5.132   3.149
 1288SOL     OW 3875   0.732   4.358   2.926
 1288SOL    HW1 3876   0.791   4.332   2.850
 1288SOL    HW2 3877   0.704   4.454   2.915
 1289SOL     OW 3878   1.728   4.659   3.716
 1289SOL    HW1 3879   1.682   4.652   3.627
 1289SOL    HW2 3880   1.666   4.703   3.782
 1290SOL     OW 3881   0.307   3.787   2.480
 1290SOL    HW1 3882   0.296   3.881   2.513
 1290SOL    HW2 3883   0.302   3.724   2.557
 1291SOL     OW 3884   1.622   4.091   2.236
 1291SOL    HW1 3885   1.624   4.015   2.300
 1291SOL    HW2 3886   1.574   4.168   2.276
 1292SOL     OW 3887   1.023   4.490   2.828
 1292SOL    HW1 3888   1.038   4.511   2.924
 1292SOL    HW2 3889   0.993   4.395   2.819
 1293SOL     OW 3890   0.350   4.622   3.666
 1293SOL    HW1 3891   0.426   4.666   3.714
 1293SOL    HW2 3892   0.385   4.575   3.584
 1294SOL     OW 3893   1.540   3.998   1.987
 1294SOL    HW1 3894   1.479   3.923   2.010
 1294SOL    HW2 3895   1.562   4.050   2.070
 1295SOL     OW 3896   1.303   4.562   1.904
 1295SOL    HW1 3897   1.337   4.469   1.919
 1295SOL    HW2 3898   1.321   4.589   1.809
 1296SOL     OW 3899   0.319   4.534   2.811
 1296SOL    HW1 3900   0.412   4.570   2.816
 1296SOL    HW2 3901   0.313   4.449   2.863
 1297SOL     OW 3902   0.339   4.233   2.868
 1297SOL    HW1 3903   0.287   4.150   2.851
 1297SOL    HW2 3904   0.416   4.238   2.804
 1298SOL     OW 3905   1.138   4.104   3.540
 1298SOL    HW1 3906   1.093   4.167   3.604
 1298SOL    HW2 3907   1.231   4.135   3.523
 1299SOL     OW 3908   1.160   3.931   3.339
 1299SOL    HW1 3909   1.160   3.995   3.416
 1299SOL    HW2 3910   1.188   3.979   3.256
 1300SOL     OW 3911   1.002   4.520   3.100
 1300SOL    HW1 3912   1.043   4.488   3.186
 1300SOL    HW2 3913   0.906   4.493   3.097
 1301SOL     OW 3914   0.040   4.268   2.976
 1301SOL    HW1 3915   0.125   4.235   2.935
 1301SOL    HW2 3916   0.053   4.283   3.074
 1302SOL     OW 3917   0.189   4.244   3.584
 1302SOL    HW1 3918   0.248   4.204   3.514
 1302SOL    HW2 3919   0.131   4.315   3.543
 1303SOL     OW 3920   1.369   4.674   3.522
 1303SOL    HW1 3921   1.408   4.763   3.542
 1303SOL    HW2 3922   1.379   4.654   3.425
 1304SOL     OW 3923   0.815   4.296   2.187
 1304SOL    HW1 3924   0.822   4.207   2.141
 1304SOL    HW2 3925   0.721   4.330   2.179
 1305SOL     OW 3926   1.657   4.328   3.068
 1305SOL    HW1 3927   1.619   4.259   3.130
 1305SOL    HW2 3928   1.739   4.292   3.024
 1306SOL     OW 3929   0.671   4.188   3.131
 1306SOL    HW1 3930   0.637   4.099   3.101
 1306SOL    HW2 3931   0.697   4.242   3.051
 1307SOL     OW 3932   0.473   4.224   2.053
 1307SOL    HW1 3933   0.534   4.304   2.057
 1307SOL    HW2 3934   0.378   4.255   2.060
 1308SOL     OW 3935   0.159   4.861   3.328
 1308SOL    HW1 3936   0.181   4.800   3.404
 1308SOL    HW2 3937   0.169   4.812   3.242
 1309SOL     OW 3938   1.347   4.783   3.096
 1309SOL    HW1 3939   1.371   4.720   3.022
 1309SOL    HW2 3940   1.257   4.823   3.078
 1310SOL     OW 3941   1.302   4.579   2.171
 1310SOL    HW1 3942   1.216   4.548   2.213
 1310SOL    HW2 3943   1.298   4.565   2.072
 1311SOL     OW 3944   1.726   3.859   2.385
 1311SOL    HW1 3945   1.799   3.842   2.318
 1311SOL    HW2 3946   1.695   3.772   2.423
 1312SOL     OW 3947   1.280   4.651   2.534
 1312SOL    HW1 3948   1.340   4.570   2.536
 1312SOL    HW2 3949   1.320   4.720   2.474
 1313SOL     OW 3950   1.841   3.899   2.825
 1313SOL    HW1 3951   1.880   3.814   2.789
 1313SOL    HW2 3952   1.743   3.901   2.806
 1314SOL     OW 3953   0.263   4.050   2.582
 1314SOL    HW1 3954   0.184   4.101   2.548
 1314SOL    HW2 3955   0.254   4.035   2.680
 1315SOL     OW 3956   0.916   4.634   2.153
 1315SOL    HW1 3957   0.979   4.672   2.085
 1315SOL    HW2 3958   0.956   4.551   2.192
 1316SOL     OW 3959   1.014   3.960   2.833
 1316SOL    HW1 3960   1.006   3.924   2.740
 1316SOL    HW2 3961   1.012   3.884   2.898
 1317SOL     OW 3962   1.709   4.109   3.243
 1317SOL    HW1 3963   1.782   4.178   3.247
 1317SOL    HW2 3964   1.737   4.034   3.184
 1318SOL     OW 3965   0.105   4.737   3.588
 1318SOL    HW1 3966   0.028   4.704   3.642
 1318SOL    HW2 3967   0.190   4.707   3.630
 1319SOL     OW 3968   0.672   3.927   3.351
 1319SOL    HW1 3969   0.762   3.911   3.311
 1319SOL    HW2 3970   0.680   3.932   3.450
 1320SOL     OW 3971   0.075   4.069   1.895
 1320SOL    HW1 3972  -0.017   4.041   1.866
 1320SOL    HW2 3973   0.106   4.146   1.839
 1321SOL     OW 3974   1.440   4.580   3.260
 1321SOL    HW1 3975   1.383   4.632   3.197
 1321SOL    HW2 3976   1.536   4.592   3.236
 1322SOL     OW 3977   0.072   3.890   2.180
 1322SOL    HW1 3978   0.055   3.973   2.126
 1322SOL    HW2 3979   0.162   3.853   2.158
 1323SOL     OW 3980   1.183   5.059   1.981
 1323SOL    HW1 3981   1.084   5.048   1.983
 1323SOL    HW2 3982   1.217   5.074   2.074
 1324SOL     OW 3983   0.613   4.566   3.293
 1324SOL    HW1 3984   0.669   4.647   3.276
 1324SOL    HW2 3985   0.672   4.486   3.296
 1325SOL     OW 3986   0.716   4.289   3.570
 1325SOL    HW1 3987   0.735   4.354   3.644
 1325SOL    HW2 3988   0.776   4.209   3.579
 1326SOL     OW 3989   1.674   4.607   3.116
 1326SOL    HW1 3990   1.647   4.518   3.079
 1326SOL    HW2 3991   1.675   4.675   3.043
 1327SOL     OW 3992   1.225   4.049   2.311
 1327SOL    HW1 3993   1.290   3.975   2.300
 1327SOL    HW2 3994   1.245   4.099   2.395
 1328SOL     OW 3995   0.594   4.469   2.514
 1328SOL    HW1 3996   0.644   4.554   2.495
 1328SOL    HW2 3997   0.506   4.471   2.466
 1329SOL     OW 3998   1.777   4.066   3.504
 1329SOL    HW1 3999   1.760   4.097   3.410
 1329SOL    HW2 4000   1.693   4.029   3.542
 1330SOL     OW 4001   1.730   4.658   3.379
 1330SOL    HW1 4002   1.768   4.749   3.394
 1330SOL    HW2 4003   1.722   4.641   3.280
 1331SOL     OW 4004   0.859   4.680   2.723
 1331SOL    HW1 4005   0.913   4.611   2.771
 1331SOL    HW2 4006   0.827   4.749   2.789
 1332SOL     OW 4007   1.083   4.708   1.949
 1332SOL    HW1 4008   1.060   4.761   1.867
 1332SOL    HW2 4009   1.164   4.652   1.930
 1333SOL     OW 4010   0.079   4.964   2.515
 1333SOL    HW1 4011   0.078   4.917   2.603
 1333SOL    HW2 4012   0.161   4.936   2.464
 1334SOL     OW 4013   1.824   3.916   3.089
 1334SOL    HW1 4014   1.820   3.826   3.133
 1334SOL    HW2 4015   1.827   3.905   2.990
 1335SOL     OW 4016   0.428   4.148   2.382
 1335SOL    HW1 4017   0.458   4.076   2.320
 1335SOL    HW2 4018   0.389   4.108   2.465
 1336SOL     OW 4019   0.317   4.271   3.142
 1336SOL    HW1 4020   0.355   4.212   3.214
 1336SOL    HW2 4021   0.357   4.245   3.054
 1337SOL     OW 4022   1.424   3.938   2.974
 1337SOL    HW1 4023   1.476   3.873   3.029
 1337SOL    HW2 4024   1.375   4.001   3.035
 1338SOL     OW 4025   1.001   3.758   3.016
 1338SOL    HW1 4026   0.938   3.686   2.985
 1338SOL    HW2 4027   1.094   3.722   3.016
 1339SOL     OW 4028   1.352   3.776   2.030
 1339SOL    HW1 4029   1.387   3.735   1.946
 1339SOL    HW2 4030   1.262   3.738   2.050
 1340SOL     OW 4031   1.300   4.177   2.553
 1340SOL    HW1 4032   1.241   4.257   2.557
 1340SOL    HW2 4033   1.315   4.142   2.646
 1341SOL     OW 4034   1.593   3.945   2.744
 1341SOL    HW1 4035   1.509   3.944   2.798
 1341SOL    HW2 4036   1.595   4.028   2.688
 1342SOL     OW 4037   0.230   4.352   3.837
 1342SOL    HW1 4038   0.137   4.350   3.874
 1342SOL    HW2 4039   0.231   4.313   3.745
 1343SOL     OW 4040   0.225   3.999   4.720
 1343SOL    HW1 4041   0.260   3.982   4.812
 1343SOL    HW2 4042   0.137   3.954   4.708
 1344SOL     OW 4043   0.019   4.092   4.371
 1344SOL    HW1 4044  -0.063   4.135   4.410
 1344SOL    HW2 4045  -0.009   4.019   4.308
 1345SOL     OW 4046   1.135   4.427   4.441
 1345SOL    HW1 4047   1.192   4.505   4.416
 1345SOL    HW2 4048   1.075   4.453   4.517
 1346SOL     OW 4049   1.755   4.331   3.955
 1346SOL    HW1 4050   1.743   4.318   3.856
 1346SOL    HW2 4051   1.725   4.250   4.004
 1347SOL     OW 4052   0.685   4.736   4.389
 1347SOL    HW1 4053   0.754   4.720   4.459
 1347SOL    HW2 4054   0.612   4.793   4.427
 1348SOL     OW 4055   1.603   4.171   4.461
 1348SOL    HW1 4056   1.529   4.217   4.411
 1348SOL    HW2 4057   1.654   4.239   4.514
 1349SOL     OW 4058   0.240   4.815   4.610
 1349SOL    HW1 4059   0.254   4.731   4.662
 1349SOL    HW2 4060   0.185   4.879   4.665
 1350SOL     OW 4061   0.606   4.688   3.847
 1350SOL    HW1 4062   0.613   4.772   3.793
 1350SOL    HW2 4063   0.652   4.701   3.935
 1351SOL     OW 4064   0.122   4.367   4.287
 1351SOL    HW1 4065   0.077   4.279   4.304
 1351SOL    HW2 4066   0.121   4.421   4.371
 1352SOL     OW 4067   1.689   4.646   4.336
 1352SOL    HW1 4068   1.784   4.617   4.344
 1352SOL    HW2 4069   1.681   4.711   4.261
 1353SOL     OW 4070   0.809   3.728   4.226
 1353SOL    HW1 4071   0.849   3.819   4.217
 1353SOL    HW2 4072   0.709   3.736   4.232
 1354SOL     OW 4073   1.525   4.723   3.914
 1354SOL    HW1 4074   1.462   4.647   3.927
 1354SOL    HW2 4075   1.573   4.741   4.000
 1355SOL     OW 4076   0.598   4.453   3.994
 1355SOL    HW1 4077   0.622   4.522   3.926
 1355SOL    HW2 4078   0.520   4.486   4.048
 1356SOL     OW 4079   1.281   4.069   4.668
 1356SOL    HW1 4080   1.195   4.019   4.655
 1356SOL    HW2 4081   1.343   4.015   4.724
 1357SOL     OW 4082   1.041   4.425   4.153
 1357SOL    HW1 4083   1.067   4.421   4.249
 1357SOL    HW2 4084   0.956   4.374   4.139
 1358SOL     OW 4085   0.076   4.535   4.513
 1358SOL    HW1 4086   0.175   4.523   4.522
 1358SOL    HW2 4087   0.052   4.630   4.534
 1359SOL     OW 4088   0.865   4.072   3.919
 1359SOL    HW1 4089   0.924   4.135   3.870
 1359SOL    HW2 4090   0.884   3.978   3.890
 1360SOL     OW 4091   0.550   3.920   4.609
 1360SOL    HW1 4092   0.545   3.915   4.709
 1360SOL    HW2 4093   0.552   4.016   4.580
 1361SOL     OW 4094   1.458   4.459   4.452
 1361SOL    HW1 4095   1.453   4.394   4.527
 1361SOL    HW2 4096   1.538   4.518   4.465
 1362SOL     OW 4097   1.400   3.831   4.150
 1362SOL    HW1 4098   1.376   3.794   4.060
 1362SOL    HW2 4099   1.499   3.847   4.154
 1363SOL     OW 4100   0.382   4.424   4.204
 1363SOL    HW1 4101   0.427   4.334   4.201
 1363SOL    HW2 4102   0.288   4.413   4.237
 1364SOL     OW 4103   0.614   3.846   3.841
 1364SOL    HW1 4104   0.712   3.824   3.848
 1364SOL    HW2 4105   0.583   3.829   3.748
 1365SOL     OW 4106   0.922   4.227   4.623
 1365SOL    HW1 4107   0.897   4.218   4.527
 1365SOL    HW2 4108   0.970   4.145   4.654
 1366SOL     OW 4109   0.539   3.788   4.236
 1366SOL    HW1 4110   0.458   3.789   4.294
 1366SOL    HW2 4111   0.542   3.871   4.181
 1367SOL     OW 4112   0.297   3.759   3.895
 1367SOL    HW1 4113   0.346   3.843   3.874
 1367SOL    HW2 4114   0.359   3.694   3.940
 1368SOL     OW 4115   0.935   3.960   4.204
 1368SOL    HW1 4116   0.887   4.001   4.126
 1368SOL    HW2 4117   1.034   3.958   4.185
 1369SOL     OW 4118   1.032   4.273   3.740
 1369SOL    HW1 4119   0.991   4.355   3.701
 1369SOL    HW2 4120   1.096   4.299   3.813
 1370SOL     OW 4121   0.866   4.178   4.366
 1370SOL    HW1 4122   0.834   4.250   4.304
 1370SOL    HW2 4123   0.890   4.097   4.313
 1371SOL     OW 4124   1.017   3.763   4.477
 1371SOL    HW1 4125   0.945   3.768   4.408
 1371SOL    HW2 4126   0.993   3.694   4.546
 1372SOL     OW 4127   1.429   4.897   4.591
 1372SOL    HW1 4128   1.374   4.813   4.584
 1372SOL    HW2 4129   1.455   4.926   4.499
 1373SOL     OW 4130   1.466   4.314   4.716
 1373SOL    HW1 4131   1.436   4.219   4.723
 1373SOL    HW2 4132   1.539   4.330   4.782
 1374SOL     OW 4133   1.857   4.557   4.101
 1374SOL    HW1 4134   1.899   4.493   4.165
 1374SOL    HW2 4135   1.819   4.506   4.023
 1375SOL     OW 4136   1.390   4.299   3.802
 1375SOL    HW1 4137   1.336   4.278   3.883
 1375SOL    HW2 4138   1.481   4.258   3.811
 1376SOL     OW 4139   0.527   3.980   4.052
 1376SOL    HW1 4140   0.554   3.921   3.977
 1376SOL    HW2 4141   0.527   4.075   4.021
 1377SOL     OW 4142   1.638   4.823   4.803
 1377SOL    HW1 4143   1.643   4.904   4.862
 1377SOL    HW2 4144   1.552   4.825   4.752
 1378SOL     OW 4145   0.566   4.261   4.589
 1378SOL    HW1 4146   0.578   4.327   4.515
 1378SOL    HW2 4147   0.612   4.295   4.672
 1379SOL     OW 4148   1.582   4.363   4.196
 1379SOL    HW1 4149   1.551   4.424   4.269
 1379SOL    HW2 4150   1.632   4.415   4.127
 1380SOL     OW 4151   0.573   4.594   4.753
 1380SOL    HW1 4152   0.617   4.683   4.744
 1380SOL    HW2 4153   0.510   4.594   4.830
 1381SOL     OW 4154   1.209   4.249   3.999
 1381SOL    HW1 4155   1.222   4.165   4.053
 1381SOL    HW2 4156   1.180   4.323   4.059
 1382SOL     OW 4157   0.307   3.937   4.955
 1382SOL    HW1 4158   0.284   3.974   5.045
 1382SOL    HW2 4159   0.277   3.842   4.949
 1383SOL     OW 4160   0.732   4.358   4.788
 1383SOL    HW1 4161   0.791   4.332   4.712
 1383SOL    HW2 4162   0.704   4.454   4.777
 1384SOL     OW 4163   0.307   3.787   4.342
 1384SOL    HW1 4164   0.296   3.881   4.375
 1384SOL    HW2 4165   0.302   3.724   4.419
 1385SOL     OW 4166   1.622   4.091   4.098
 1385SOL    HW1 4167   1.624   4.015   4.162
 1385SOL    HW2 4168   1.574   4.168   4.138
 1386SOL     OW 4169   1.540   3.998   3.849
 1386SOL    HW1 4170   1.479   3.923   3.872
 1386SOL    HW2 4171   1.562   4.050   3.932
 1387SOL     OW 4172   1.303   4.562   3.766
 1387SOL    HW1 4173   1.337   4.469   3.781
 1387SOL    HW2 4174   1.321   4.589   3.671
 1388SOL     OW 4175   0.319   4.534   4.673
 1388SOL    HW1 4176   0.412   4.570   4.678
 1388SOL    HW2 4177   0.313   4.449   4.725
 1389SOL     OW 4178   0.339   4.233   4.730
 1389SOL    HW1 4179   0.287   4.150   4.713
 1389SOL    HW2 4180   0.416   4.238   4.666
 1390SOL     OW 4181   0.815   4.296   4.049
 1390SOL    HW1 4182   0.822   4.207   4.003
 1390SOL    HW2 4183   0.721   4.330   4.041
 1391SOL     OW 4184   0.671   4.188   4.993
 1391SOL    HW1 4185   0.637   4.099   4.963
 1391SOL    HW2 4186   0.697   4.242   4.913
 1392SOL     OW 4187   0.473   4.224   3.915
 1392SOL    HW1 4188   0.534   4.304   3.919
 1392SOL    HW2 4189   0.378   4.255   3.922
 1393SOL     OW 4190   1.302   4.579   4.033
 1393SOL    HW1 4191   1.216   4.548   4.075
 1393SOL    HW2 4192   1.298   4.565   3.934
 1394SOL     OW 4193   1.726   3.859   4.247
 1394SOL    HW1 4194   1.799   3.842   4.180
 1394SOL    HW2 4195   1.695   3.772   4.285
 1395SOL     OW 4196   1.280   4.651   4.396
 1395SOL    HW1 4197   1.340   4.570   4.398
 1395SOL    HW2 4198   1.320   4.720   4.336
 1396SOL     OW 4199   1.841   3.899   4.687
 1396SOL    HW1 4200   1.880   3.814   4.651
 1396SOL    HW2 4201   1.743   3.901   4.668
 1397SOL     OW 4202   0.263   4.050   4.444
 1397SOL    HW1 4203   0.184   4.101   4.410
 1397SOL    HW2 4204   0.254   4.035   4.542
 1398SOL     OW 4205   0.916   4.634   4.015
 1398SOL    HW1 4206   0.979   4.672   3.947
 1398SOL    HW2 4207   0.956   4.551   4.054
 1399SOL     OW 4208   0.075   4.069   3.757
 1399SOL    HW1 4209  -0.017   4.041   3.728
 1399SOL    HW2 4210   0.106   4.146   3.701
 1400SOL     OW 4211   0.072   3.890   4.042
 1400SOL    HW1 4212   0.055   3.973   3.988
 1400SOL    HW2 4213   0.162   3.853   4.020
 1401SOL     OW 4214   1.183   5.059   3.843
 1401SOL    HW1 4215   1.084   5.048   3.845
 1401SOL    HW2 4216   1.217   5.074   3.936
 1402SOL     OW 4217   1.674   4.607   4.978
 1402SOL    HW1 4218   1.647   4.518   4.941
 1402SOL    HW2 4219   1.675   4.675   4.905
 1403SOL     OW 4220   1.225   4.049   4.173
 1403SOL    HW1 4221   1.290   3.975   4.162
 1403SOL    HW2 4222   1.245   4.099   4.257
 1404SOL     OW 4223   0.594   4.469   4.376
 1404SOL    HW1 4224   0.644   4.554   4.357
 1404SOL    HW2 4225   0.506   4.471   4.328
 1405SOL     OW 4226   0.859   4.680   4.585
 1405SOL    HW1 4227   0.913   4.611   4.633
 1405SOL    HW2 4228   0.827   4.749   4.651
 1406SOL     OW 4229   1.083   4.708   3.811
 1406SOL    HW1 4230   1.060   4.761   3.729
 1406SOL    HW2 4231   1.164   4.652   3.792
 1407SOL     OW 4232   0.079   4.964   4.377
 1407SOL    HW1 4233   0.078   4.917   4.465
 1407SOL    HW2 4234   0.161   4.936   4.326
 1408SOL     OW 4235   1.824   3.916   4.951
 1408SOL    HW1 4236   1.820   3.826   4.995
 1408SOL    HW2 4237   1.827   3.905   4.852
 1409SOL     OW 4238   0.428   4.148   4.244
 1409SOL    HW1 4239   0.458   4.076   4.182
 1409SOL    HW2 4240   0.389   4.108   4.327
 1410SOL     OW 4241   1.352   3.776   3.892
 1410SOL    HW1 4242   1.387   3.735   3.808
 1410SOL    HW2 4243   1.262   3.738   3.912
 1411SOL     OW 4244   1.300   4.177   4.415
 1411SOL    HW1 4245   1.241   4.257   4.419
 1411SOL    HW2 4246   1.315   4.142   4.508
 1412SOL     OW 4247   1.593   3.945   4.606
 1412SOL    HW1 4248   1.509   3.944   4.660
 1412SOL    HW2 4249   1.595   4.028   4.550
 1413SOL     OW 4250   2.092   0.628   0.113
 1413SOL    HW1 4251   1.999   0.626   0.150
 1413SOL    HW2 4252   2.093   0.589   0.021
 1414SOL     OW 4253   2.087   0.275   0.996
 1414SOL    HW1 4254   2.122   0.258   1.088
 1414SOL    HW2 4255   1.999   0.230   0.984
 1415SOL     OW 4256   1.881   0.368   0.647
 1415SOL    HW1 4257   1.799   0.411   0.686
 1415SOL    HW2 4258   1.853   0.295   0.584
 1416SOL     OW 4259   2.431   1.275   1.165
 1416SOL    HW1 4260   2.338   1.268   1.128
 1416SOL    HW2 4261   2.442   1.364   1.209
 1417SOL     OW 4262   3.417   1.511   0.703
 1417SOL    HW1 4263   3.360   1.495   0.784
 1417SOL    HW2 4264   3.358   1.521   0.623
 1418SOL     OW 4265   2.997   0.703   0.717
 1418SOL    HW1 4266   3.054   0.781   0.692
 1418SOL    HW2 4267   2.937   0.729   0.793
 1419SOL     OW 4268   3.617   0.607   0.231
 1419SOL    HW1 4269   3.605   0.594   0.132
 1419SOL    HW2 4270   3.587   0.526   0.280
 1420SOL     OW 4271   2.630   1.144   1.023
 1420SOL    HW1 4272   2.552   1.161   1.083
 1420SOL    HW2 4273   2.664   1.231   0.987
 1421SOL     OW 4274   2.712   0.798   1.823
 1421SOL    HW1 4275   2.708   0.874   1.888
 1421SOL    HW2 4276   2.734   0.834   1.732
 1422SOL     OW 4277   2.547   1.012   0.665
 1422SOL    HW1 4278   2.616   0.996   0.735
 1422SOL    HW2 4279   2.474   1.069   0.703
 1423SOL     OW 4280   2.548   1.161   1.803
 1423SOL    HW1 4281   2.608   1.240   1.817
 1423SOL    HW2 4282   2.462   1.192   1.762
 1424SOL     OW 4283   2.197   1.435   1.061
 1424SOL    HW1 4284   2.119   1.404   1.008
 1424SOL    HW2 4285   2.255   1.493   1.004
 1425SOL     OW 4286   3.322   1.505   1.339
 1425SOL    HW1 4287   3.346   1.599   1.365
 1425SOL    HW2 4288   3.306   1.451   1.421
 1426SOL     OW 4289   2.300   0.392   1.499
 1426SOL    HW1 4290   2.382   0.336   1.508
 1426SOL    HW2 4291   2.219   0.334   1.503
 1427SOL     OW 4292   3.465   0.447   0.737
 1427SOL    HW1 4293   3.391   0.493   0.687
 1427SOL    HW2 4294   3.516   0.515   0.790
 1428SOL     OW 4295   2.093   1.713   0.483
 1428SOL    HW1 4296   2.127   1.790   0.537
 1428SOL    HW2 4297   2.137   1.713   0.393
 1429SOL     OW 4298   2.989   1.341   1.690
 1429SOL    HW1 4299   3.036   1.341   1.778
 1429SOL    HW2 4300   2.941   1.254   1.679
 1430SOL     OW 4301   2.092   1.434   0.538
 1430SOL    HW1 4302   2.066   1.530   0.538
 1430SOL    HW2 4303   2.021   1.380   0.583
 1431SOL     OW 4304   2.102   1.091   0.886
 1431SOL    HW1 4305   2.116   1.007   0.938
 1431SOL    HW2 4306   2.047   1.155   0.941
 1432SOL     OW 4307   2.482   1.786   1.439
 1432SOL    HW1 4308   2.390   1.769   1.474
 1432SOL    HW2 4309   2.510   1.878   1.465
 1433SOL     OW 4310   2.468   0.964   0.123
 1433SOL    HW1 4311   2.475   1.048   0.069
 1433SOL    HW2 4312   2.514   0.977   0.211
 1434SOL     OW 4313   3.456   0.114   1.480
 1434SOL    HW1 4314   3.438   0.181   1.408
 1434SOL    HW2 4315   3.453   0.160   1.569
 1435SOL     OW 4316   1.984   0.643   0.563
 1435SOL    HW1 4317   1.939   0.555   0.580
 1435SOL    HW2 4318   1.983   0.697   0.647
 1436SOL     OW 4319   3.704   1.767   0.359
 1436SOL    HW1 4320   3.758   1.738   0.439
 1436SOL    HW2 4321   3.734   1.857   0.330
 1437SOL     OW 4322   1.889   1.596   0.117
 1437SOL    HW1 4323   1.870   1.500   0.138
 1437SOL    HW2 4324   1.856   1.654   0.192
 1438SOL     OW 4325   3.551   0.922   0.612
 1438SOL    HW1 4326   3.646   0.893   0.620
 1438SOL    HW2 4327   3.543   0.987   0.537
 1439SOL     OW 4328   3.503   1.108   0.432
 1439SOL    HW1 4329   3.589   1.110   0.380
 1439SOL    HW2 4330   3.517   1.155   0.520
 1440SOL     OW 4331   1.975   0.737   1.597
 1440SOL    HW1 4332   2.063   0.724   1.642
 1440SOL    HW2 4333   1.962   0.834   1.575
 1441SOL     OW 4334   2.475   1.365   0.726
 1441SOL    HW1 4335   2.426   1.278   0.735
 1441SOL    HW2 4336   2.452   1.408   0.639
 1442SOL     OW 4337   3.155   1.228   1.423
 1442SOL    HW1 4338   3.192   1.155   1.365
 1442SOL    HW2 4339   3.207   1.233   1.508
 1443SOL     OW 4340   2.671   0.004   0.502
 1443SOL    HW1 4341   2.711   0.095   0.493
 1443SOL    HW2 4342   2.571   0.012   0.508
 1444SOL     OW 4343   2.059   0.976   1.264
 1444SOL    HW1 4344   2.148   0.931   1.250
 1444SOL    HW2 4345   1.986   0.911   1.245
 1445SOL     OW 4346   3.387   0.999   0.190
 1445SOL    HW1 4347   3.324   0.923   0.203
 1445SOL    HW2 4348   3.435   1.017   0.276
 1446SOL     OW 4349   3.049   1.792   1.616
 1446SOL    HW1 4350   3.073   1.852   1.540
 1446SOL    HW2 4351   3.056   1.697   1.586
 1447SOL     OW 4352   2.179   0.251   1.801
 1447SOL    HW1 4353   2.250   0.322   1.807
 1447SOL    HW2 4354   2.091   0.290   1.829
 1448SOL     OW 4355   3.328   1.417   0.953
 1448SOL    HW1 4356   3.269   1.423   1.033
 1448SOL    HW2 4357   3.313   1.329   0.907
 1449SOL     OW 4358   3.529   1.714   0.572
 1449SOL    HW1 4359   3.488   1.691   0.484
 1449SOL    HW2 4360   3.511   1.640   0.637
 1450SOL     OW 4361   2.460   0.729   0.270
 1450SOL    HW1 4362   2.484   0.798   0.202
 1450SOL    HW2 4363   2.382   0.762   0.324
 1451SOL     OW 4364   3.143   0.345   0.944
 1451SOL    HW1 4365   3.057   0.295   0.931
 1451SOL    HW2 4366   3.205   0.291   1.000
 1452SOL     OW 4367   3.438   1.662   0.307
 1452SOL    HW1 4368   3.527   1.708   0.310
 1452SOL    HW2 4369   3.417   1.638   0.212
 1453SOL     OW 4370   2.669   0.605   1.465
 1453SOL    HW1 4371   2.622   0.602   1.554
 1453SOL    HW2 4372   2.618   0.550   1.399
 1454SOL     OW 4373   3.256   0.469   1.674
 1454SOL    HW1 4374   3.236   0.512   1.762
 1454SOL    HW2 4375   3.334   0.407   1.683
 1455SOL     OW 4376   2.835   0.890   1.572
 1455SOL    HW1 4377   2.881   0.806   1.543
 1455SOL    HW2 4378   2.779   0.924   1.497
 1456SOL     OW 4379   2.853   0.410   1.242
 1456SOL    HW1 4380   2.776   0.444   1.296
 1456SOL    HW2 4381   2.819   0.359   1.163
 1457SOL     OW 4382   2.903   0.701   0.429
 1457SOL    HW1 4383   2.929   0.697   0.525
 1457SOL    HW2 4384   2.818   0.650   0.415
 1458SOL     OW 4385   1.938   0.811   0.789
 1458SOL    HW1 4386   2.037   0.799   0.798
 1458SOL    HW2 4387   1.914   0.906   0.810
 1459SOL     OW 4388   1.992   1.821   1.571
 1459SOL    HW1 4389   1.982   1.806   1.670
 1459SOL    HW2 4390   1.906   1.857   1.535
 1460SOL     OW 4391   2.727   0.348   0.195
 1460SOL    HW1 4392   2.786   0.411   0.146
 1460SOL    HW2 4393   2.746   0.254   0.166
 1461SOL     OW 4394   3.581   0.585   1.831
 1461SOL    HW1 4395   3.555   0.674   1.795
 1461SOL    HW2 4396   3.579   0.517   1.758
 1462SOL     OW 4397   3.224   1.144   0.545
 1462SOL    HW1 4398   3.307   1.115   0.497
 1462SOL    HW2 4399   3.175   1.211   0.489
 1463SOL     OW 4400   2.412   0.196   0.885
 1463SOL    HW1 4401   2.407   0.191   0.985
 1463SOL    HW2 4402   2.414   0.292   0.856
 1464SOL     OW 4403   2.870   1.456   0.477
 1464SOL    HW1 4404   2.824   1.528   0.425
 1464SOL    HW2 4405   2.866   1.476   0.575
 1465SOL     OW 4406   2.213   1.801   0.853
 1465SOL    HW1 4407   2.263   1.715   0.859
 1465SOL    HW2 4408   2.278   1.878   0.850
 1466SOL     OW 4409   3.657   1.066   0.873
 1466SOL    HW1 4410   3.595   1.051   0.797
 1466SOL    HW2 4411   3.605   1.077   0.958
 1467SOL     OW 4412   3.089   1.550   1.506
 1467SOL    HW1 4413   3.095   1.473   1.570
 1467SOL    HW2 4414   3.037   1.524   1.426
 1468SOL     OW 4415   2.183   0.943   0.242
 1468SOL    HW1 4416   2.265   0.982   0.200
 1468SOL    HW2 4417   2.156   0.861   0.193
 1469SOL     OW 4418   3.320   0.735   0.728
 1469SOL    HW1 4419   3.315   0.670   0.803
 1469SOL    HW2 4420   3.400   0.794   0.741
 1470SOL     OW 4421   2.323   1.266   1.727
 1470SOL    HW1 4422   2.273   1.267   1.641
 1470SOL    HW2 4423   2.260   1.248   1.803
 1471SOL     OW 4424   2.973   1.776   0.237
 1471SOL    HW1 4425   2.913   1.714   0.287
 1471SOL    HW2 4426   3.004   1.732   0.152
 1472SOL     OW 4427   2.064   0.285   1.498
 1472SOL    HW1 4428   1.984   0.345   1.485
 1472SOL    HW2 4429   2.054   0.236   1.584
 1473SOL     OW 4430   3.494   1.377   0.081
 1473SOL    HW1 4431   3.462   1.471   0.071
 1473SOL    HW2 4432   3.418   1.314   0.069
 1474SOL     OW 4433   2.326   1.743   0.323
 1474SOL    HW1 4434   2.359   1.782   0.409
 1474SOL    HW2 4435   2.402   1.736   0.258
 1475SOL     OW 4436   3.262   0.107   0.426
 1475SOL    HW1 4437   3.238   0.070   0.336
 1475SOL    HW2 4438   3.361   0.123   0.430
 1476SOL     OW 4439   2.111   1.785   1.241
 1476SOL    HW1 4440   2.168   1.720   1.291
 1476SOL    HW2 4441   2.095   1.752   1.148
 1477SOL     OW 4442   2.802   1.698   0.904
 1477SOL    HW1 4443   2.882   1.641   0.925
 1477SOL    HW2 4444   2.753   1.658   0.827
 1478SOL     OW 4445   2.244   0.700   0.480
 1478SOL    HW1 4446   2.289   0.610   0.477
 1478SOL    HW2 4447   2.150   0.689   0.513
 1479SOL     OW 4448   3.409   0.222   1.729
 1479SOL    HW1 4449   3.404   0.259   1.821
 1479SOL    HW2 4450   3.337   0.153   1.717
 1480SOL     OW 4451   2.476   0.122   0.117
 1480SOL    HW1 4452   2.574   0.100   0.124
 1480SOL    HW2 4453   2.445   0.105   0.024
 1481SOL     OW 4454   2.643   0.264   1.749
 1481SOL    HW1 4455   2.710   0.203   1.792
 1481SOL    HW2 4456   2.570   0.283   1.814
 1482SOL     OW 4457   2.750   1.514   1.195
 1482SOL    HW1 4458   2.727   1.489   1.101
 1482SOL    HW2 4459   2.811   1.445   1.234
 1483SOL     OW 4460   3.213   0.590   1.433
 1483SOL    HW1 4461   3.241   0.547   1.518
 1483SOL    HW2 4462   3.238   0.686   1.434
 1484SOL     OW 4463   2.665   1.402   0.924
 1484SOL    HW1 4464   2.755   1.416   0.882
 1484SOL    HW2 4465   2.594   1.404   0.853
 1485SOL     OW 4466   2.784   0.503   0.899
 1485SOL    HW1 4467   2.759   0.494   0.803
 1485SOL    HW2 4468   2.832   0.421   0.930
 1486SOL     OW 4469   2.401   0.064   0.512
 1486SOL    HW1 4470   2.320   0.065   0.570
 1486SOL    HW2 4471   2.404   0.147   0.457
 1487SOL     OW 4472   3.296   1.188   0.041
 1487SOL    HW1 4473   3.328   1.112   0.098
 1487SOL    HW2 4474   3.204   1.215   0.071
 1488SOL     OW 4475   2.159   0.035   0.171
 1488SOL    HW1 4476   2.208   0.119   0.150
 1488SOL    HW2 4477   2.221  -0.030   0.216
 1489SOL     OW 4478   2.797   0.236   0.480
 1489SOL    HW1 4479   2.749   0.277   0.402
 1489SOL    HW2 4480   2.896   0.234   0.461
 1490SOL     OW 4481   2.938   0.683   1.464
 1490SOL    HW1 4482   2.858   0.622   1.467
 1490SOL    HW2 4483   3.019   0.630   1.440
 1491SOL     OW 4484   3.089   1.570   0.793
 1491SOL    HW1 4485   3.110   1.644   0.728
 1491SOL    HW2 4486   3.157   1.570   0.866
 1492SOL     OW 4487   2.321   1.152   0.741
 1492SOL    HW1 4488   2.250   1.125   0.806
 1492SOL    HW2 4489   2.295   1.124   0.648
 1493SOL     OW 4490   3.133   1.797   0.591
 1493SOL    HW1 4491   3.177   1.861   0.527
 1493SOL    HW2 4492   3.083   1.849   0.661
 1494SOL     OW 4493   2.894   0.549   0.016
 1494SOL    HW1 4494   2.853   0.631  -0.023
 1494SOL    HW2 4495   2.958   0.575   0.089
 1495SOL     OW 4496   1.940   0.556   1.386
 1495SOL    HW1 4497   2.032   0.555   1.345
 1495SOL    HW2 4498   1.934   0.630   1.453
 1496SOL     OW 4499   2.423   0.222   1.147
 1496SOL    HW1 4500   2.461   0.138   1.184
 1496SOL    HW2 4501   2.335   0.241   1.191
 1497SOL     OW 4502   2.728   0.454   0.642
 1497SOL    HW1 4503   2.696   0.526   0.580
 1497SOL    HW2 4504   2.752   0.373   0.589
 1498SOL     OW 4505   2.879   0.039   0.753
 1498SOL    HW1 4506   2.807   0.044   0.684
 1498SOL    HW2 4507   2.855  -0.030   0.822
 1499SOL     OW 4508   3.291   1.173   0.867
 1499SOL    HW1 4509   3.236   1.089   0.860
 1499SOL    HW2 4510   3.317   1.202   0.775
 1500SOL     OW 4511   3.328   0.590   0.992
 1500SOL    HW1 4512   3.298   0.495   0.999
 1500SOL    HW2 4513   3.401   0.606   1.058
 1501SOL     OW 4514   3.719   0.833   0.377
 1501SOL    HW1 4515   3.761   0.769   0.441
 1501SOL    HW2 4516   3.681   0.782   0.299
 1502SOL     OW 4517   2.350   1.385   0.174
 1502SOL    HW1 4518   2.263   1.370   0.221
 1502SOL    HW2 4519   2.333   1.411   0.079
 1503SOL     OW 4520   3.526   1.280   0.657
 1503SOL    HW1 4521   3.625   1.288   0.671
 1503SOL    HW2 4522   3.481   1.364   0.688
 1504SOL     OW 4523   3.252   0.575   0.078
 1504SOL    HW1 4524   3.198   0.554   0.159
 1504SOL    HW2 4525   3.343   0.534   0.087
 1505SOL     OW 4526   2.389   0.256   0.328
 1505SOL    HW1 4527   2.416   0.197   0.253
 1505SOL    HW2 4528   2.389   0.351   0.297
 1506SOL     OW 4529   3.616   1.223   1.588
 1506SOL    HW1 4530   3.707   1.184   1.575
 1506SOL    HW2 4531   3.624   1.319   1.612
 1507SOL     OW 4532   2.926   1.347   1.340
 1507SOL    HW1 4533   2.846   1.324   1.395
 1507SOL    HW2 4534   3.009   1.321   1.389
 1508SOL     OW 4535   3.454   1.629   1.625
 1508SOL    HW1 4536   3.481   1.663   1.535
 1508SOL    HW2 4537   3.533   1.591   1.671
 1509SOL     OW 4538   2.973   1.195   1.100
 1509SOL    HW1 4539   2.933   1.239   1.181
 1509SOL    HW2 4540   2.932   1.232   1.017
 1510SOL     OW 4541   3.500   1.099   1.079
 1510SOL    HW1 4542   3.505   1.180   1.138
 1510SOL    HW2 4543   3.414   1.101   1.028
 1511SOL     OW 4544   2.777   0.089   1.402
 1511SOL    HW1 4545   2.802   0.069   1.307
 1511SOL    HW2 4546   2.849   0.145   1.444
 1512SOL     OW 4547   2.842   1.116   1.719
 1512SOL    HW1 4548   2.743   1.122   1.729
 1512SOL    HW2 4549   2.865   1.036   1.663
 1513SOL     OW 4550   2.567   1.050   0.368
 1513SOL    HW1 4551   2.553   1.057   0.467
 1513SOL    HW2 4552   2.651   0.999   0.350
 1514SOL     OW 4553   2.272   0.813   1.251
 1514SOL    HW1 4554   2.358   0.825   1.301
 1514SOL    HW2 4555   2.230   0.726   1.278
 1515SOL     OW 4556   3.136   0.386   1.262
 1515SOL    HW1 4557   3.157   0.460   1.326
 1515SOL    HW2 4558   3.047   0.403   1.219
 1516SOL     OW 4559   1.926   1.564   1.331
 1516SOL    HW1 4560   1.880   1.646   1.297
 1516SOL    HW2 4561   2.024   1.583   1.340
 1517SOL     OW 4562   2.229   1.100   0.501
 1517SOL    HW1 4563   2.222   1.183   0.445
 1517SOL    HW2 4564   2.233   1.020   0.441
 1518SOL     OW 4565   2.428   0.537   0.865
 1518SOL    HW1 4566   2.440   0.603   0.791
 1518SOL    HW2 4567   2.474   0.571   0.948
 1519SOL     OW 4568   3.114   1.348   0.388
 1519SOL    HW1 4569   3.164   1.425   0.428
 1519SOL    HW2 4570   3.019   1.350   0.420
 1520SOL     OW 4571   3.134   1.445   1.142
 1520SOL    HW1 4572   3.181   1.458   1.229
 1520SOL    HW2 4573   3.068   1.371   1.151
 1521SOL     OW 4574   3.444   0.639   0.472
 1521SOL    HW1 4575   3.413   0.700   0.545
 1521SOL    HW2 4576   3.494   0.691   0.403
 1522SOL     OW 4577   2.216   1.510   1.329
 1522SOL    HW1 4578   2.195   1.466   1.242
 1522SOL    HW2 4579   2.313   1.536   1.332
 1523SOL     OW 4580   2.264   0.751   1.598
 1523SOL    HW1 4581   2.332   0.806   1.551
 1523SOL    HW2 4582   2.304   0.663   1.625
 1524SOL     OW 4583   3.449   0.779   1.670
 1524SOL    HW1 4584   3.357   0.817   1.665
 1524SOL    HW2 4585   3.509   0.826   1.605
 1525SOL     OW 4586   2.875   0.105   1.770
 1525SOL    HW1 4587   2.881   0.190   1.718
 1525SOL    HW2 4588   2.907   0.029   1.713
 1526SOL     OW 4589   2.366   0.050   1.740
 1526SOL    HW1 4590   2.324  -0.007   1.670
 1526SOL    HW2 4591   2.300   0.119   1.772
 1527SOL     OW 4592   2.435   0.870   1.029
 1527SOL    HW1 4593   2.479   0.959   1.020
 1527SOL    HW2 4594   2.372   0.870   1.106
 1528SOL     OW 4595   3.222   0.862   1.045
 1528SOL    HW1 4596   3.147   0.862   0.979
 1528SOL    HW2 4597   3.259   0.770   1.054
 1529SOL     OW 4598   3.071   0.525   0.275
 1529SOL    HW1 4599   3.084   0.441   0.329
 1529SOL    HW2 4600   3.042   0.599   0.335
 1530SOL     OW 4601   2.169   0.213   1.231
 1530SOL    HW1 4602   2.146   0.250   1.321
 1530SOL    HW2 4603   2.139   0.118   1.225
 1531SOL     OW 4604   1.899   1.310   1.282
 1531SOL    HW1 4605   1.952   1.261   1.350
 1531SOL    HW2 4606   1.921   1.408   1.287
 1532SOL     OW 4607   2.594   0.634   1.064
 1532SOL    HW1 4608   2.653   0.608   0.988
 1532SOL    HW2 4609   2.566   0.730   1.053
 1533SOL     OW 4610   3.590   0.935   1.854
 1533SOL    HW1 4611   3.544   0.928   1.765
 1533SOL    HW2 4612   3.528   0.979   1.920
 1534SOL     OW 4613   2.169   0.063   0.618
 1534SOL    HW1 4614   2.158   0.157   0.651
 1534SOL    HW2 4615   2.164   0.000   0.695
 1535SOL     OW 4616   3.484   0.367   0.374
 1535SOL    HW1 4617   3.486   0.291   0.438
 1535SOL    HW2 4618   3.436   0.444   0.414
 1536SOL     OW 4619   2.885   0.766   0.966
 1536SOL    HW1 4620   2.900   0.787   1.062
 1536SOL    HW2 4621   2.855   0.671   0.957
 1537SOL     OW 4622   2.842   1.573   1.700
 1537SOL    HW1 4623   2.822   1.617   1.612
 1537SOL    HW2 4624   2.881   1.482   1.684
 1538SOL     OW 4625   3.721   1.518   1.605
 1538SOL    HW1 4626   3.735   1.545   1.510
 1538SOL    HW2 4627   3.804   1.540   1.658
 1539SOL     OW 4628   2.212   0.898   1.804
 1539SOL    HW1 4629   2.288   0.942   1.852
 1539SOL    HW2 4630   2.247   0.851   1.722
 1540SOL     OW 4631   3.402   0.274   0.125
 1540SOL    HW1 4632   3.341   0.199   0.148
 1540SOL    HW2 4633   3.424   0.326   0.208
 1541SOL     OW 4634   3.165   0.838   0.042
 1541SOL    HW1 4635   3.199   0.745   0.057
 1541SOL    HW2 4636   3.183   0.865  -0.053
 1542SOL     OW 4637   2.930   1.333   0.849
 1542SOL    HW1 4638   2.937   1.249   0.794
 1542SOL    HW2 4639   2.992   1.402   0.813
 1543SOL     OW 4640   2.181   0.810   0.949
 1543SOL    HW1 4641   2.274   0.846   0.954
 1543SOL    HW2 4642   2.175   0.725   1.001
 1544SOL     OW 4643   2.201   0.509   1.006
 1544SOL    HW1 4644   2.149   0.426   0.989
 1544SOL    HW2 4645   2.278   0.514   0.942
 1545SOL     OW 4646   3.000   0.380   1.678
 1545SOL    HW1 4647   2.955   0.443   1.742
 1545SOL    HW2 4648   3.093   0.411   1.661
 1546SOL     OW 4649   3.022   0.207   1.477
 1546SOL    HW1 4650   3.022   0.271   1.554
 1546SOL    HW2 4651   3.050   0.255   1.394
 1547SOL     OW 4652   1.870   1.326   0.200
 1547SOL    HW1 4653   1.777   1.347   0.169
 1547SOL    HW2 4654   1.880   1.227   0.213
 1548SOL     OW 4655   1.950   1.801   0.927
 1548SOL    HW1 4656   1.908   1.715   0.900
 1548SOL    HW2 4657   2.044   1.804   0.893
 1549SOL     OW 4658   2.366   1.568   0.910
 1549SOL    HW1 4659   2.432   1.642   0.919
 1549SOL    HW2 4660   2.410   1.489   0.868
 1550SOL     OW 4661   2.864   0.796   1.238
 1550SOL    HW1 4662   2.905   0.764   1.324
 1550SOL    HW2 4663   2.768   0.769   1.235
 1551SOL     OW 4664   1.902   0.544   1.114
 1551SOL    HW1 4665   1.987   0.511   1.073
 1551SOL    HW2 4666   1.915   0.559   1.212
 1552SOL     OW 4667   2.051   0.520   1.722
 1552SOL    HW1 4668   2.110   0.480   1.652
 1552SOL    HW2 4669   1.993   0.591   1.681
 1553SOL     OW 4670   3.231   0.950   1.660
 1553SOL    HW1 4671   3.270   1.039   1.680
 1553SOL    HW2 4672   3.241   0.930   1.563
 1554SOL     OW 4673   2.677   0.572   0.325
 1554SOL    HW1 4674   2.684   0.483   0.279
 1554SOL    HW2 4675   2.583   0.606   0.317
 1555SOL     OW 4676   3.519   0.604   1.206
 1555SOL    HW1 4677   3.481   0.535   1.268
 1555SOL    HW2 4678   3.601   0.568   1.162
 1556SOL     OW 4679   2.114   1.564   1.744
 1556SOL    HW1 4680   2.084   1.621   1.820
 1556SOL    HW2 4681   2.107   1.467   1.770
 1557SOL     OW 4682   2.533   0.464   1.269
 1557SOL    HW1 4683   2.499   0.375   1.239
 1557SOL    HW2 4684   2.559   0.518   1.189
 1558SOL     OW 4685   2.792   1.678   1.465
 1558SOL    HW1 4686   2.768   1.660   1.370
 1558SOL    HW2 4687   2.822   1.772   1.475
 1559SOL     OW 4688   2.335   0.500   0.191
 1559SOL    HW1 4689   2.396   0.580   0.195
 1559SOL    HW2 4690   2.240   0.531   0.198
 1560SOL     OW 4691   2.021   1.137   1.466
 1560SOL    HW1 4692   2.043   1.076   1.542
 1560SOL    HW2 4693   2.031   1.088   1.380
 1561SOL     OW 4694   3.209   1.059   1.234
 1561SOL    HW1 4695   3.233   0.996   1.160
 1561SOL    HW2 4696   3.119   1.099   1.216
 1562SOL     OW 4697   3.164   0.855   0.309
 1562SOL    HW1 4698   3.078   0.824   0.351
 1562SOL    HW2 4699   3.160   0.841   0.210
 1563SOL     OW 4700   3.621   1.747   1.154
 1563SOL    HW1 4701   3.682   1.777   1.081
 1563SOL    HW2 4702   3.583   1.658   1.132
 1564SOL     OW 4703   3.114   1.731   1.128
 1564SOL    HW1 4704   3.198   1.736   1.074
 1564SOL    HW2 4705   3.091   1.635   1.146
 1565SOL     OW 4706   1.945   1.258   1.022
 1565SOL    HW1 4707   1.940   1.257   1.122
 1565SOL    HW2 4708   1.862   1.217   0.984
 1566SOL     OW 4709   2.550   1.662   1.716
 1566SOL    HW1 4710   2.494   1.743   1.725
 1566SOL    HW2 4711   2.602   1.666   1.630
 1567SOL     OW 4712   2.765   0.086   0.133
 1567SOL    HW1 4713   2.816   0.087   0.047
 1567SOL    HW2 4714   2.821   0.044   0.204
 1568SOL     OW 4715   3.588   0.135   0.523
 1568SOL    HW1 4716   3.661   0.118   0.456
 1568SOL    HW2 4717   3.557   0.048   0.561
 1569SOL     OW 4718   3.250   1.573   0.477
 1569SOL    HW1 4719   3.317   1.585   0.403
 1569SOL    HW2 4720   3.210   1.662   0.500
 1570SOL     OW 4721   1.992   1.794   1.851
 1570SOL    HW1 4722   1.951   1.720   1.904
 1570SOL    HW2 4723   2.056   1.845   1.909
 1571SOL     OW 4724   3.142   0.927   0.672
 1571SOL    HW1 4725   3.202   0.846   0.674
 1571SOL    HW2 4726   3.182   0.996   0.612
 1572SOL     OW 4727   2.692   1.273   1.422
 1572SOL    HW1 4728   2.687   1.306   1.517
 1572SOL    HW2 4729   2.606   1.292   1.376
 1573SOL     OW 4730   2.534   1.616   0.154
 1573SOL    HW1 4731   2.543   1.626   0.055
 1573SOL    HW2 4732   2.494   1.527   0.175
 1574SOL     OW 4733   3.512   1.720   1.394
 1574SOL    HW1 4734   3.565   1.730   1.310
 1574SOL    HW2 4735   3.485   1.810   1.428
 1575SOL     OW 4736   3.703   0.175   0.963
 1575SOL    HW1 4737   3.742   0.090   0.927
 1575SOL    HW2 4738   3.605   0.177   0.944
 1576SOL     OW 4739   2.125   0.326   0.720
 1576SOL    HW1 4740   2.046   0.377   0.686
 1576SOL    HW2 4741   2.116   0.311   0.818
 1577SOL     OW 4742   3.056   1.612   0.031
 1577SOL    HW1 4743   3.062   1.519   0.068
 1577SOL    HW2 4744   2.997   1.612  -0.049
 1578SOL     OW 4745   2.684   1.002   1.372
 1578SOL    HW1 4746   2.724   1.001   1.280
 1578SOL    HW2 4747   2.694   1.094   1.412
 1579SOL     OW 4748   2.778   0.910   0.291
 1579SOL    HW1 4749   2.841   0.948   0.223
 1579SOL    HW2 4750   2.818   0.827   0.330
 1580SOL     OW 4751   3.366   1.607   0.044
 1580SOL    HW1 4752   3.274   1.644   0.051
 1580SOL    HW2 4753   3.404   1.627  -0.046
 1581SOL     OW 4754   2.234   1.288   1.490
 1581SOL    HW1 4755   2.221   1.381   1.456
 1581SOL    HW2 4756   2.150   1.236   1.477
 1582SOL     OW 4757   3.476   1.292   1.289
 1582SOL    HW1 4758   3.536   1.295   1.369
 1582SOL    HW2 4759   3.401   1.356   1.302
 1583SOL     OW 4760   2.901   1.098   0.696
 1583SOL    HW1 4761   2.831   1.051   0.750
 1583SOL    HW2 4762   2.960   1.030   0.653
 1584SOL     OW 4763   2.876   0.236   0.971
 1584SOL    HW1 4764   2.868   0.200   0.878
 1584SOL    HW2 4765   2.874   0.160   1.036
 1585SOL     OW 4766   2.452   1.487   0.491
 1585SOL    HW1 4767   2.494   1.429   0.421
 1585SOL    HW2 4768   2.408   1.566   0.447
 1586SOL     OW 4769   3.571   0.385   1.381
 1586SOL    HW1 4770   3.644   0.454   1.385
 1586SOL    HW2 4771   3.599   0.310   1.322
 1587SOL     OW 4772   2.117   1.348   0.290
 1587SOL    HW1 4773   2.021   1.349   0.263
 1587SOL    HW2 4774   2.129   1.401   0.374
 1588SOL     OW 4775   1.967   1.013   1.726
 1588SOL    HW1 4776   1.890   0.980   1.780
 1588SOL    HW2 4777   2.052   0.983   1.768
 1589SOL     OW 4778   2.534   0.203   1.489
 1589SOL    HW1 4779   2.624   0.187   1.449
 1589SOL    HW2 4780   2.542   0.208   1.588
 1590SOL     OW 4781   1.937   0.345   0.033
 1590SOL    HW1 4782   1.845   0.317   0.004
 1590SOL    HW2 4783   1.968   0.422  -0.023
 1591SOL     OW 4784   3.302   0.856   1.398
 1591SOL    HW1 4785   3.245   0.908   1.335
 1591SOL    HW2 4786   3.398   0.868   1.374
 1592SOL     OW 4787   1.934   0.166   0.318
 1592SOL    HW1 4788   1.917   0.249   0.264
 1592SOL    HW2 4789   2.024   0.129   0.296
 1593SOL     OW 4790   3.045   1.335   0.119
 1593SOL    HW1 4791   2.946   1.324   0.121
 1593SOL    HW2 4792   3.079   1.350   0.212
 1594SOL     OW 4793   2.475   0.842   1.431
 1594SOL    HW1 4794   2.531   0.923   1.414
 1594SOL    HW2 4795   2.534   0.762   1.434
 1595SOL     OW 4796   3.355   1.767   0.959
 1595SOL    HW1 4797   3.388   1.831   0.890
 1595SOL    HW2 4798   3.421   1.761   1.034
 1596SOL     OW 4799   2.578   0.565   1.708
 1596SOL    HW1 4800   2.597   0.630   1.782
 1596SOL    HW2 4801   2.638   0.485   1.717
 1597SOL     OW 4802   3.312   1.220   1.633
 1597SOL    HW1 4803   3.303   1.210   1.732
 1597SOL    HW2 4804   3.408   1.213   1.607
 1598SOL     OW 4805   2.252   1.741   1.560
 1598SOL    HW1 4806   2.161   1.782   1.558
 1598SOL    HW2 4807   2.245   1.647   1.592
 1599SOL     OW 4808   3.536   0.883   1.254
 1599SOL    HW1 4809   3.509   0.794   1.217
 1599SOL    HW2 4810   3.537   0.951   1.181
 1600SOL     OW 4811   3.087   0.325   0.449
 1600SOL    HW1 4812   3.152   0.251   0.438
 1600SOL    HW2 4813   3.107   0.375   0.533
 1601SOL     OW 4814   2.456   0.745   0.652
 1601SOL    HW1 4815   2.506   0.830   0.633
 1601SOL    HW2 4816   2.368   0.747   0.604
 1602SOL     OW 4817   3.639   0.342   1.642
 1602SOL    HW1 4818   3.622   0.373   1.548
 1602SOL    HW2 4819   3.555   0.305   1.680
 1603SOL     OW 4820   3.592   0.934   1.517
 1603SOL    HW1 4821   3.630   1.025   1.532
 1603SOL    HW2 4822   3.584   0.917   1.418
 1604SOL     OW 4823   2.721   1.374   0.016
 1604SOL    HW1 4824   2.675   1.389   0.104
 1604SOL    HW2 4825   2.765   1.459  -0.014
 1605SOL     OW 4826   2.523   1.790   0.953
 1605SOL    HW1 4827   2.477   1.878   0.940
 1605SOL    HW2 4828   2.622   1.802   0.946
 1606SOL     OW 4829   2.721   0.956   0.861
 1606SOL    HW1 4830   2.775   0.887   0.909
 1606SOL    HW2 4831   2.689   1.025   0.927
 1607SOL     OW 4832   2.945   0.984   0.087
 1607SOL    HW1 4833   2.922   1.037   0.005
 1607SOL    HW2 4834   3.026   0.928   0.068
 1608SOL     OW 4835   3.723   1.569   0.851
 1608SOL    HW1 4836   3.652   1.557   0.781
 1608SOL    HW2 4837   3.724   1.490   0.911
 1609SOL     OW 4838   2.083   1.314   1.844
 1609SOL    HW1 4839   2.018   1.241   1.823
 1609SOL    HW2 4840   2.087   1.328   1.942
 1610SOL     OW 4841   1.941   1.240   0.653
 1610SOL    HW1 4842   1.940   1.193   0.741
 1610SOL    HW2 4843   2.023   1.212   0.602
 1611SOL     OW 4844   2.534   1.391   1.624
 1611SOL    HW1 4845   2.456   1.341   1.662
 1611SOL    HW2 4846   2.531   1.486   1.655
 1612SOL     OW 4847   3.686   0.192   1.227
 1612SOL    HW1 4848   3.682   0.102   1.271
 1612SOL    HW2 4849   3.689   0.181   1.128
 1613SOL     OW 4850   2.290   0.424   0.520
 1613SOL    HW1 4851   2.320   0.352   0.458
 1613SOL    HW2 4852   2.251   0.384   0.603
 1614SOL     OW 4853   3.567   1.487   1.104
 1614SOL    HW1 4854   3.474   1.462   1.077
 1614SOL    HW2 4855   3.593   1.437   1.186
 1615SOL     OW 4856   2.179   0.547   1.280
 1615SOL    HW1 4857   2.217   0.488   1.352
 1615SOL    HW2 4858   2.219   0.521   1.192
 1616SOL     OW 4859   2.674   1.586   0.687
 1616SOL    HW1 4860   2.706   1.596   0.593
 1616SOL    HW2 4861   2.595   1.524   0.689
 1617SOL     OW 4862   3.286   0.214   1.112
 1617SOL    HW1 4863   3.338   0.149   1.167
 1617SOL    HW2 4864   3.237   0.277   1.173
 1618SOL     OW 4865   2.863   0.034   1.154
 1618SOL    HW1 4866   2.800  -0.038   1.123
 1618SOL    HW2 4867   2.956  -0.002   1.154
 1619SOL     OW 4868   2.632   1.330   0.301
 1619SOL    HW1 4869   2.586   1.243   0.318
 1619SOL    HW2 4870   2.723   1.327   0.342
 1620SOL     OW 4871   2.480   1.567   1.284
 1620SOL    HW1 4872   2.475   1.649   1.341
 1620SOL    HW2 4873   2.569   1.564   1.239
 1621SOL     OW 4874   3.214   0.052   0.168
 1621SOL    HW1 4875   3.249   0.011   0.084
 1621SOL    HW2 4876   3.124   0.014   0.188
 1622SOL     OW 4877   3.162   0.453   0.691
 1622SOL    HW1 4878   3.103   0.533   0.695
 1622SOL    HW2 4879   3.177   0.418   0.784
 1623SOL     OW 4880   3.455   0.221   0.882
 1623SOL    HW1 4881   3.371   0.220   0.936
 1623SOL    HW2 4882   3.457   0.304   0.826
 1624SOL     OW 4883   1.901   1.077   0.300
 1624SOL    HW1 4884   2.000   1.066   0.291
 1624SOL    HW2 4885   1.861   0.991   0.332
 1625SOL     OW 4886   2.737   1.646   0.337
 1625SOL    HW1 4887   2.660   1.611   0.283
 1625SOL    HW2 4888   2.705   1.717   0.399
 1626SOL     OW 4889   2.092   0.628   1.975
 1626SOL    HW1 4890   1.999   0.626   2.012
 1626SOL    HW2 4891   2.093   0.589   1.883
 1627SOL     OW 4892   2.087   0.275   2.858
 1627SOL    HW1 4893   2.122   0.258   2.950
 1627SOL    HW2 4894   1.999   0.230   2.846
 1628SOL     OW 4895   1.881   0.368   2.509
 1628SOL    HW1 4896   1.799   0.411   2.548
 1628SOL    HW2 4897   1.853   0.295   2.446
 1629SOL     OW 4898   2.431   1.275   3.027
 1629SOL    HW1 4899   2.338   1.268   2.990
 1629SOL    HW2 4900   2.442   1.364   3.071
 1630SOL     OW 4901   3.417   1.511   2.565
 1630SOL    HW1 4902   3.360   1.495   2.646
 1630SOL    HW2 4903   3.358   1.521   2.485
 1631SOL     OW 4904   2.997   0.703   2.579
 1631SOL    HW1 4905   3.054   0.781   2.554
 1631SOL    HW2 4906   2.937   0.729   2.655
 1632SOL     OW 4907   3.617   0.607   2.093
 1632SOL    HW1 4908   3.605   0.594   1.994
 1632SOL    HW2 4909   3.587   0.526   2.142
 1633SOL     OW 4910   2.630   1.144   2.885
 1633SOL    HW1 4911   2.552   1.161   2.945
 1633SOL    HW2 4912   2.664   1.231   2.849
 1634SOL     OW 4913   2.712   0.798   3.685
 1634SOL    HW1 4914   2.708   0.874   3.750
 1634SOL    HW2 4915   2.734   0.834   3.594
 1635SOL     OW 4916   2.547   1.012   2.527
 1635SOL    HW1 4917   2.616   0.996   2.597
 1635SOL    HW2 4918   2.474   1.069   2.565
 1636SOL     OW 4919   2.548   1.161   3.665
 1636SOL    HW1 4920   2.608   1.240   3.679
 1636SOL    HW2 4921   2.462   1.192   3.624
 1637SOL     OW 4922   2.197   1.435   2.923
 1637SOL    HW1 4923   2.119   1.404   2.870
 1637SOL    HW2 4924   2.255   1.493   2.866
 1638SOL     OW 4925   3.322   1.505   3.201
 1638SOL    HW1 4926   3.346   1.599   3.227
 1638SOL    HW2 4927   3.306   1.451   3.283
 1639SOL     OW 4928   2.300   0.392   3.361
 1639SOL    HW1 4929   2.382   0.336   3.370
 1639SOL    HW2 4930   2.219   0.334   3.365
 1640SOL     OW 4931   3.465   0.447   2.599
 1640SOL    HW1 4932   3.391   0.493   2.549
 1640SOL    HW2 4933   3.516   0.515   2.652
 1641SOL     OW 4934   2.093   1.713   2.345
 1641SOL    HW1 4935   2.127   1.790   2.399
 1641SOL    HW2 4936   2.137   1.713   2.255
 1642SOL     OW 4937   2.989   1.341   3.552
 1642SOL    HW1 4938   3.036   1.341   3.640
 1642SOL    HW2 4939   2.941   1.254   3.541
 1643SOL     OW 4940   2.092   1.434   2.400
 1643SOL    HW1 4941   2.066   1.530   2.400
 1643SOL    HW2 4942   2.021   1.380   2.445
 1644SOL     OW 4943   2.102   1.091   2.748
 1644SOL    HW1 4944   2.116   1.007   2.800
 1644SOL    HW2 4945   2.047   1.155   2.803
 1645SOL     OW 4946   2.482   1.786   3.301
 1645SOL    HW1 4947   2.390   1.769   3.336
 1645SOL    HW2 4948   2.510   1.878   3.327
 1646SOL     OW 4949   2.468   0.964   1.985
 1646SOL    HW1 4950   2.475   1.048   1.931
 1646SOL    HW2 4951   2.514   0.977   2.073
 1647SOL     OW 4952   3.456   0.114   3.342
 1647SOL    HW1 4953   3.438   0.181   3.270
 1647SOL    HW2 4954   3.453   0.160   3.431
 1648SOL     OW 4955   1.984   0.643   2.425
 1648SOL    HW1 4956   1.939   0.555   2.442
 1648SOL    HW2 4957   1.983   0.697   2.509
 1649SOL     OW 4958   3.704   1.767   2.221
 1649SOL    HW1 4959   3.758   1.738   2.301
 1649SOL    HW2 4960   3.734   1.857   2.192
 1650SOL     OW 4961   1.889   1.596   1.979
 1650SOL    HW1 4962   1.870   1.500   2.000
 1650SOL    HW2 4963   1.856   1.654   2.054
 1651SOL     OW 4964   3.551   0.922   2.474
 1651SOL    HW1 4965   3.646   0.893   2.482
 1651SOL    HW2 4966   3.543   0.987   2.399
 1652SOL     OW 4967   3.503   1.108   2.294
 1652SOL    HW1 4968   3.589   1.110   2.242
 1652SOL    HW2 4969   3.517   1.155   2.382
 1653SOL     OW 4970   1.975   0.737   3.459
 1653SOL    HW1 4971   2.063   0.724   3.504
 1653SOL    HW2 4972   1.962   0.834   3.437
 1654SOL     OW 4973   2.475   1.365   2.588
 1654SOL    HW1 4974   2.426   1.278   2.597
 1654SOL    HW2 4975   2.452   1.408   2.501
 1655SOL     OW 4976   3.155   1.228   3.285
 1655SOL    HW1 4977   3.192   1.155   3.227
 1655SOL    HW2 4978   3.207   1.233   3.370
 1656SOL     OW 4979   2.671   0.004   2.364
 1656SOL    HW1 4980   2.711   0.095   2.355
 1656SOL    HW2 4981   2.571   0.012   2.370
 1657SOL     OW 4982   2.059   0.976   3.126
 1657SOL    HW1 4983   2.148   0.931   3.112
 1657SOL    HW2 4984   1.986   0.911   3.107
 1658SOL     OW 4985   3.387   0.999   2.052
 1658SOL    HW1 4986   3.324   0.923   2.065
 1658SOL    HW2 4987   3.435   1.017   2.138
 1659SOL     OW 4988   3.049   1.792   3.478
 1659SOL    HW1 4989   3.073   1.852   3.402
 1659SOL    HW2 4990   3.056   1.697   3.448
 1660SOL     OW 4991   2.179   0.251   3.663
 1660SOL    HW1 4992   2.250   0.322   3.669
 1660SOL    HW2 4993   2.091   0.290   3.691
 1661SOL     OW 4994   3.328   1.417   2.815
 1661SOL    HW1 4995   3.269   1.423   2.895
 1661SOL    HW2 4996   3.313   1.329   2.769
 1662SOL     OW 4997   3.529   1.714   2.434
 1662SOL    HW1 4998   3.488   1.691   2.346
 1662SOL    HW2 4999   3.511   1.640   2.499
 1663SOL     OW 5000   2.460   0.729   2.132
 1663SOL    HW1 5001   2.484   0.798   2.064
 1663SOL    HW2 5002   2.382   0.762   2.186
 1664SOL     OW 5003   3.143   0.345   2.806
 1664SOL    HW1 5004   3.057   0.295   2.793
 1664SOL    HW2 5005   3.205   0.291   2.862
 1665SOL     OW 5006   3.438   1.662   2.169
 1665SOL    HW1 5007   3.527   1.708   2.172
 1665SOL    HW2 5008   3.417   1.638   2.074
 1666SOL     OW 5009   2.669   0.605   3.327
 1666SOL    HW1 5010   2.622   0.602   3.416
 1666SOL    HW2 5011   2.618   0.550   3.261
 1667SOL     OW 5012   3.256   0.469   3.536
 1667SOL    HW1 5013   3.236   0.512   3.624
 1667SOL    HW2 5014   3.334   0.407   3.545
 1668SOL     OW 5015   2.835   0.890   3.434
 1668SOL    HW1 5016   2.881   0.806   3.405
 1668SOL    HW2 5017   2.779   0.924   3.359
 1669SOL     OW 5018   2.853   0.410   3.104
 1669SOL    HW1 5019   2.776   0.444   3.158
 1669SOL    HW2 5020   2.819   0.359   3.025
 1670SOL     OW 5021   2.903   0.701   2.291
 1670SOL    HW1 5022   2.929   0.697   2.387
 1670SOL    HW2 5023   2.818   0.650   2.277
 1671SOL     OW 5024   1.938   0.811   2.651
 1671SOL    HW1 5025   2.037   0.799   2.660
 1671SOL    HW2 5026   1.914   0.906   2.672
 1672SOL     OW 5027   1.992   1.821   3.433
 1672SOL    HW1 5028   1.982   1.806   3.532
 1672SOL    HW2 5029   1.906   1.857   3.397
 1673SOL     OW 5030   2.727   0.348   2.057
 1673SOL    HW1 5031   2.786   0.411   2.008
 1673SOL    HW2 5032   2.746   0.254   2.028
 1674SOL     OW 5033   3.581   0.585   3.693
 1674SOL    HW1 5034   3.555   0.674   3.657
 1674SOL    HW2 5035   3.579   0.517   3.620
 1675SOL     OW 5036   3.224   1.144   2.407
 1675SOL    HW1 5037   3.307   1.115   2.359
 1675SOL    HW2 5038   3.175   1.211   2.351
 1676SOL     OW 5039   2.412   0.196   2.747
 1676SOL    HW1 5040   2.407   0.191   2.847
 1676SOL    HW2 5041   2.414   0.292   2.718
 1677SOL     OW 5042   2.870   1.456   2.339
 1677SOL    HW1 5043   2.824   1.528   2.287
 1677SOL    HW2 5044   2.866   1.476   2.437
 1678SOL     OW 5045   2.213   1.801   2.715
 1678SOL    HW1 5046   2.263   1.715   2.721
 1678SOL    HW2 5047   2.278   1.878   2.712
 1679SOL     OW 5048   3.657   1.066   2.735
 1679SOL    HW1 5049   3.595   1.051   2.659
 1679SOL    HW2 5050   3.605   1.077   2.820
 1680SOL     OW 5051   3.089   1.550   3.368
 1680SOL    HW1 5052   3.095   1.473   3.432
 1680SOL    HW2 5053   3.037   1.524   3.288
 1681SOL     OW 5054   2.183   0.943   2.104
 1681SOL    HW1 5055   2.265   0.982   2.062
 1681SOL    HW2 5056   2.156   0.861   2.055
 1682SOL     OW 5057   3.320   0.735   2.590
 1682SOL    HW1 5058   3.315   0.670   2.665
 1682SOL    HW2 5059   3.400   0.794   2.603
 1683SOL     OW 5060   2.323   1.266   3.589
 1683SOL    HW1 5061   2.273   1.267   3.503
 1683SOL    HW2 5062   2.260   1.248   3.665
 1684SOL     OW 5063   2.973   1.776   2.099
 1684SOL    HW1 5064   2.913   1.714   2.149
 1684SOL    HW2 5065   3.004   1.732   2.014
 1685SOL     OW 5066   2.064   0.285   3.360
 1685SOL    HW1 5067   1.984   0.345   3.347
 1685SOL    HW2 5068   2.054   0.236   3.446
 1686SOL     OW 5069   3.494   1.377   1.943
 1686SOL    HW1 5070   3.462   1.471   1.933
 1686SOL    HW2 5071   3.418   1.314   1.931
 1687SOL     OW 5072   2.326   1.743   2.185
 1687SOL    HW1 5073   2.359   1.782   2.271
 1687SOL    HW2 5074   2.402   1.736   2.120
 1688SOL     OW 5075   3.262   0.107   2.288
 1688SOL    HW1 5076   3.238   0.070   2.198
 1688SOL    HW2 5077   3.361   0.123   2.292
 1689SOL     OW 5078   2.111   1.785   3.103
 1689SOL    HW1 5079   2.168   1.720   3.153
 1689SOL    HW2 5080   2.095   1.752   3.010
 1690SOL     OW 5081   2.802   1.698   2.766
 1690SOL    HW1 5082   2.882   1.641   2.787
 1690SOL    HW2 5083   2.753   1.658   2.689
 1691SOL     OW 5084   2.244   0.700   2.342
 1691SOL    HW1 5085   2.289   0.610   2.339
 1691SOL    HW2 5086   2.150   0.689   2.375
 1692SOL     OW 5087   3.409   0.222   3.591
 1692SOL    HW1 5088   3.404   0.259   3.683
 1692SOL    HW2 5089   3.337   0.153   3.579
 1693SOL     OW 5090   2.476   0.122   1.979
 1693SOL    HW1 5091   2.574   0.100   1.986
 1693SOL    HW2 5092   2.445   0.105   1.886
 1694SOL     OW 5093   2.643   0.264   3.611
 1694SOL    HW1 5094   2.710   0.203   3.654
 1694SOL    HW2 5095   2.570   0.283   3.676
 1695SOL     OW 5096   2.750   1.514   3.057
 1695SOL    HW1 5097   2.727   1.489   2.963
 1695SOL    HW2 5098   2.811   1.445   3.096
 1696SOL     OW 5099   3.213   0.590   3.295
 1696SOL    HW1 5100   3.241   0.547   3.380
 1696SOL    HW2 5101   3.238   0.686   3.296
 1697SOL     OW 5102   2.665   1.402   2.786
 1697SOL    HW1 5103   2.755   1.416   2.744
 1697SOL    HW2 5104   2.594   1.404   2.715
 1698SOL     OW 5105   2.784   0.503   2.761
 1698SOL    HW1 5106   2.759   0.494   2.665
 1698SOL    HW2 5107   2.832   0.421   2.792
 1699SOL     OW 5108   2.401   0.064   2.374
 1699SOL    HW1 5109   2.320   0.065   2.432
 1699SOL    HW2 5110   2.404   0.147   2.319
 1700SOL     OW 5111   3.296   1.188   1.903
 1700SOL    HW1 5112   3.328   1.112   1.960
 1700SOL    HW2 5113   3.204   1.215   1.933
 1701SOL     OW 5114   2.159   0.035   2.033
 1701SOL    HW1 5115   2.208   0.119   2.012
 1701SOL    HW2 5116   2.221  -0.030   2.078
 1702SOL     OW 5117   2.797   0.236   2.342
 1702SOL    HW1 5118   2.749   0.277   2.264
 1702SOL    HW2 5119   2.896   0.234   2.323
 1703SOL     OW 5120   2.938   0.683   3.326
 1703SOL    HW1 5121   2.858   0.622   3.329
 1703SOL    HW2 5122   3.019   0.630   3.302
 1704SOL     OW 5123   3.089   1.570   2.655
 1704SOL    HW1 5124   3.110   1.644   2.590
 1704SOL    HW2 5125   3.157   1.570   2.728
 1705SOL     OW 5126   2.321   1.152   2.603
 1705SOL    HW1 5127   2.250   1.125   2.668
 1705SOL    HW2 5128   2.295   1.124   2.510
 1706SOL     OW 5129   3.133   1.797   2.453
 1706SOL    HW1 5130   3.177   1.861   2.389
 1706SOL    HW2 5131   3.083   1.849   2.523
 1707SOL     OW 5132   2.894   0.549   1.878
 1707SOL    HW1 5133   2.853   0.631   1.839
 1707SOL    HW2 5134   2.958   0.575   1.951
 1708SOL     OW 5135   1.940   0.556   3.248
 1708SOL    HW1 5136   2.032   0.555   3.207
 1708SOL    HW2 5137   1.934   0.630   3.315
 1709SOL     OW 5138   2.423   0.222   3.009
 1709SOL    HW1 5139   2.461   0.138   3.046
 1709SOL    HW2 5140   2.335   0.241   3.053
 1710SOL     OW 5141   2.728   0.454   2.504
 1710SOL    HW1 5142   2.696   0.526   2.442
 1710SOL    HW2 5143   2.752   0.373   2.451
 1711SOL     OW 5144   2.879   0.039   2.615
 1711SOL    HW1 5145   2.807   0.044   2.546
 1711SOL    HW2 5146   2.855  -0.030   2.684
 1712SOL     OW 5147   3.291   1.173   2.729
 1712SOL    HW1 5148   3.236   1.089   2.722
 1712SOL    HW2 5149   3.317   1.202   2.637
 1713SOL     OW 5150   3.328   0.590   2.854
 1713SOL    HW1 5151   3.298   0.495   2.861
 1713SOL    HW2 5152   3.401   0.606   2.920
 1714SOL     OW 5153   3.719   0.833   2.239
 1714SOL    HW1 5154   3.761   0.769   2.303
 1714SOL    HW2 5155   3.681   0.782   2.161
 1715SOL     OW 5156   2.350   1.385   2.036
 1715SOL    HW1 5157   2.263   1.370   2.083
 1715SOL    HW2 5158   2.333   1.411   1.941
 1716SOL     OW 5159   3.526   1.280   2.519
 1716SOL    HW1 5160   3.625   1.288   2.533
 1716SOL    HW2 5161   3.481   1.364   2.550
 1717SOL     OW 5162   3.252   0.575   1.940
 1717SOL    HW1 5163   3.198   0.554   2.021
 1717SOL    HW2 5164   3.343   0.534   1.949
 1718SOL     OW 5165   2.389   0.256   2.190
 1718SOL    HW1 5166   2.416   0.197   2.115
 1718SOL    HW2 5167   2.389   0.351   2.159
 1719SOL     OW 5168   3.616   1.223   3.450
 1719SOL    HW1 5169   3.707   1.184   3.437
 1719SOL    HW2 5170   3.624   1.319   3.474
 1720SOL     OW 5171   2.926   1.347   3.202
 1720SOL    HW1 5172   2.846   1.324   3.257
 1720SOL    HW2 5173   3.009   1.321   3.251
 1721SOL     OW 5174   3.454   1.629   3.487
 1721SOL    HW1 5175   3.481   1.663   3.397
 1721SOL    HW2 5176   3.533   1.591   3.533
 1722SOL     OW 5177   2.973   1.195   2.962
 1722SOL    HW1 5178   2.933   1.239   3.043
 1722SOL    HW2 5179   2.932   1.232   2.879
 1723SOL     OW 5180   3.500   1.099   2.941
 1723SOL    HW1 5181   3.505   1.180   3.000
 1723SOL    HW2 5182   3.414   1.101   2.890
 1724SOL     OW 5183   2.777   0.089   3.264
 1724SOL    HW1 5184   2.802   0.069   3.169
 1724SOL    HW2 5185   2.849   0.145   3.306
 1725SOL     OW 5186   2.842   1.116   3.581
 1725SOL    HW1 5187   2.743   1.122   3.591
 1725SOL    HW2 5188   2.865   1.036   3.525
 1726SOL     OW 5189   2.567   1.050   2.230
 1726SOL    HW1 5190   2.553   1.057   2.329
 1726SOL    HW2 5191   2.651   0.999   2.212
 1727SOL     OW 5192   2.272   0.813   3.113
 1727SOL    HW1 5193   2.358   0.825   3.163
 1727SOL    HW2 5194   2.230   0.726   3.140
 1728SOL     OW 5195   3.136   0.386   3.124
 1728SOL    HW1 5196   3.157   0.460   3.188
 1728SOL    HW2 5197   3.047   0.403   3.081
 1729SOL     OW 5198   1.926   1.564   3.193
 1729SOL    HW1 5199   1.880   1.646   3.159
 1729SOL    HW2 5200   2.024   1.583   3.202
 1730SOL     OW 5201   2.229   1.100   2.363
 1730SOL    HW1 5202   2.222   1.183   2.307
 1730SOL    HW2 5203   2.233   1.020   2.303
 1731SOL     OW 5204   2.428   0.537   2.727
 1731SOL    HW1 5205   2.440   0.603   2.653
 1731SOL    HW2 5206   2.474   0.571   2.810
 1732SOL     OW 5207   3.114   1.348   2.250
 1732SOL    HW1 5208   3.164   1.425   2.290
 1732SOL    HW2 5209   3.019   1.350   2.282
 1733SOL     OW 5210   3.134   1.445   3.004
 1733SOL    HW1 5211   3.181   1.458   3.091
 1733SOL    HW2 5212   3.068   1.371   3.013
 1734SOL     OW 5213   3.444   0.639   2.334
 1734SOL    HW1 5214   3.413   0.700   2.407
 1734SOL    HW2 5215   3.494   0.691   2.265
 1735SOL     OW 5216   2.216   1.510   3.191
 1735SOL    HW1 5217   2.195   1.466   3.104
 1735SOL    HW2 5218   2.313   1.536   3.194
 1736SOL     OW 5219   2.264   0.751   3.460
 1736SOL    HW1 5220   2.332   0.806   3.413
 1736SOL    HW2 5221   2.304   0.663   3.487
 1737SOL     OW 5222   3.449   0.779   3.532
 1737SOL    HW1 5223   3.357   0.817   3.527
 1737SOL    HW2 5224   3.509   0.826   3.467
 1738SOL     OW 5225   2.875   0.105   3.632
 1738SOL    HW1 5226   2.881   0.190   3.580
 1738SOL    HW2 5227   2.907   0.029   3.575
 1739SOL     OW 5228   2.366   0.050   3.602
 1739SOL    HW1 5229   2.324  -0.007   3.532
 1739SOL    HW2 5230   2.300   0.119   3.634
 1740SOL     OW 5231   2.435   0.870   2.891
 1740SOL    HW1 5232   2.479   0.959   2.882
 1740SOL    HW2 5233   2.372   0.870   2.968
 1741SOL     OW 5234   3.222   0.862   2.907
 1741SOL    HW1 5235   3.147   0.862   2.841
 1741SOL    HW2 5236   3.259   0.770   2.916
 1742SOL     OW 5237   3.071   0.525   2.137
 1742SOL    HW1 5238   3.084   0.441   2.191
 1742SOL    HW2 5239   3.042   0.599   2.197
 1743SOL     OW 5240   2.169   0.213   3.093
 1743SOL    HW1 5241   2.146   0.250   3.183
 1743SOL    HW2 5242   2.139   0.118   3.087
 1744SOL     OW 5243   1.899   1.310   3.144
 1744SOL    HW1 5244   1.952   1.261   3.212
 1744SOL    HW2 5245   1.921   1.408   3.149
 1745SOL     OW 5246   2.594   0.634   2.926
 1745SOL    HW1 5247   2.653   0.608   2.850
 1745SOL    HW2 5248   2.566   0.730   2.915
 1746SOL     OW 5249   3.590   0.935   3.716
 1746SOL    HW1 5250   3.544   0.928   3.627
 1746SOL    HW2 5251   3.528   0.979   3.782
 1747SOL     OW 5252   2.169   0.063   2.480
 1747SOL    HW1 5253   2.158   0.157   2.513
 1747SOL    HW2 5254   2.164   0.000   2.557
 1748SOL     OW 5255   3.484   0.367   2.236
 1748SOL    HW1 5256   3.486   0.291   2.300
 1748SOL    HW2 5257   3.436   0.444   2.276
 1749SOL     OW 5258   2.885   0.766   2.828
 1749SOL    HW1 5259   2.900   0.787   2.924
 1749SOL    HW2 5260   2.855   0.671   2.819
 1750SOL     OW 5261   2.842   1.573   3.562
 1750SOL    HW1 5262   2.822   1.617   3.474
 1750SOL    HW2 5263   2.881   1.482   3.546
 1751SOL     OW 5264   3.721   1.518   3.467
 1751SOL    HW1 5265   3.735   1.545   3.372
 1751SOL    HW2 5266   3.804   1.540   3.520
 1752SOL     OW 5267   2.212   0.898   3.666
 1752SOL    HW1 5268   2.288   0.942   3.714
 1752SOL    HW2 5269   2.247   0.851   3.584
 1753SOL     OW 5270   3.402   0.274   1.987
 1753SOL    HW1 5271   3.341   0.199   2.010
 1753SOL    HW2 5272   3.424   0.326   2.070
 1754SOL     OW 5273   3.165   0.838   1.904
 1754SOL    HW1 5274   3.199   0.745   1.919
 1754SOL    HW2 5275   3.183   0.865   1.809
 1755SOL     OW 5276   2.930   1.333   2.711
 1755SOL    HW1 5277   2.937   1.249   2.656
 1755SOL    HW2 5278   2.992   1.402   2.675
 1756SOL     OW 5279   2.181   0.810   2.811
 1756SOL    HW1 5280   2.274   0.846   2.816
 1756SOL    HW2 5281   2.175   0.725   2.863
 1757SOL     OW 5282   2.201   0.509   2.868
 1757SOL    HW1 5283   2.149   0.426   2.851
 1757SOL    HW2 5284   2.278   0.514   2.804
 1758SOL     OW 5285   3.000   0.380   3.540
 1758SOL    HW1 5286   2.955   0.443   3.604
 1758SOL    HW2 5287   3.093   0.411   3.523
 1759SOL     OW 5288   3.022   0.207   3.339
 1759SOL    HW1 5289   3.022   0.271   3.416
 1759SOL    HW2 5290   3.050   0.255   3.256
 1760SOL     OW 5291   1.870   1.326   2.062
 1760SOL    HW1 5292   1.777   1.347   2.031
 1760SOL    HW2 5293   1.880   1.227   2.075
 1761SOL     OW 5294   1.950   1.801   2.789
 1761SOL    HW1 5295   1.908   1.715   2.762
 1761SOL    HW2 5296   2.044   1.804   2.755
 1762SOL     OW 5297   2.366   1.568   2.772
 1762SOL    HW1 5298   2.432   1.642   2.781
 1762SOL    HW2 5299   2.410   1.489   2.730
 1763SOL     OW 5300   2.864   0.796   3.100
 1763SOL    HW1 5301   2.905   0.764   3.186
 1763SOL    HW2 5302   2.768   0.769   3.097
 1764SOL     OW 5303   1.902   0.544   2.976
 1764SOL    HW1 5304   1.987   0.511   2.935
 1764SOL    HW2 5305   1.915   0.559   3.074
 1765SOL     OW 5306   2.051   0.520   3.584
 1765SOL    HW1 5307   2.110   0.480   3.514
 1765SOL    HW2 5308   1.993   0.591   3.543
 1766SOL     OW 5309   3.231   0.950   3.522
 1766SOL    HW1 5310   3.270   1.039   3.542
 1766SOL    HW2 5311   3.241   0.930   3.425
 1767SOL     OW 5312   2.677   0.572   2.187
 1767SOL    HW1 5313   2.684   0.483   2.141
 1767SOL    HW2 5314   2.583   0.606   2.179
 1768SOL     OW 5315   3.519   0.604   3.068
 1768SOL    HW1 5316   3.481   0.535   3.130
 1768SOL    HW2 5317   3.601   0.568   3.024
 1769SOL     OW 5318   2.114   1.564   3.606
 1769SOL    HW1 5319   2.084   1.621   3.682
 1769SOL    HW2 5320   2.107   1.467   3.632
 1770SOL     OW 5321   2.533   0.464   3.131
 1770SOL    HW1 5322   2.499   0.375   3.101
 1770SOL    HW2 5323   2.559   0.518   3.051
 1771SOL     OW 5324   2.792   1.678   3.327
 1771SOL    HW1 5325   2.768   1.660   3.232
 1771SOL    HW2 5326   2.822   1.772   3.337
 1772SOL     OW 5327   2.335   0.500   2.053
 1772SOL    HW1 5328   2.396   0.580   2.057
 1772SOL    HW2 5329   2.240   0.531   2.060
 1773SOL     OW 5330   2.021   1.137   3.328
 1773SOL    HW1 5331   2.043   1.076   3.404
 1773SOL    HW2 5332   2.031   1.088   3.242
 1774SOL     OW 5333   3.209   1.059   3.096
 1774SOL    HW1 5334   3.233   0.996   3.022
 1774SOL    HW2 5335   3.119   1.099   3.078
 1775SOL     OW 5336   3.164   0.855   2.171
 1775SOL    HW1 5337   3.078   0.824   2.213
 1775SOL    HW2 5338   3.160   0.841   2.072
 1776SOL     OW 5339   3.621   1.747   3.016
 1776SOL    HW1 5340   3.682   1.777   2.943
 1776SOL    HW2 5341   3.583   1.658   2.994
 1777SOL     OW 5342   3.114   1.731   2.990
 1777SOL    HW1 5343   3.198   1.736   2.936
 1777SOL    HW2 5344   3.091   1.635   3.008
 1778SOL     OW 5345   1.945   1.258   2.884
 1778SOL    HW1 5346   1.940   1.257   2.984
 1778SOL    HW2 5347   1.862   1.217   2.846
 1779SOL     OW 5348   2.550   1.662   3.578
 1779SOL    HW1 5349   2.494   1.743   3.587
 1779SOL    HW2 5350   2.602   1.666   3.492
 1780SOL     OW 5351   3.588   0.135   2.385
 1780SOL    HW1 5352   3.661   0.118   2.318
 1780SOL    HW2 5353   3.557   0.048   2.423
 1781SOL     OW 5354   3.250   1.573   2.339
 1781SOL    HW1 5355   3.317   1.585   2.265
 1781SOL    HW2 5356   3.210   1.662   2.362
 1782SOL     OW 5357   1.992   1.794   3.713
 1782SOL    HW1 5358   1.951   1.720   3.766
 1782SOL    HW2 5359   2.056   1.845   3.771
 1783SOL     OW 5360   3.142   0.927   2.534
 1783SOL    HW1 5361   3.202   0.846   2.536
 1783SOL    HW2 5362   3.182   0.996   2.474
 1784SOL     OW 5363   2.692   1.273   3.284
 1784SOL    HW1 5364   2.687   1.306   3.379
 1784SOL    HW2 5365   2.606   1.292   3.238
 1785SOL     OW 5366   2.534   1.616   2.016
 1785SOL    HW1 5367   2.543   1.626   1.917
 1785SOL    HW2 5368   2.494   1.527   2.037
 1786SOL     OW 5369   3.512   1.720   3.256
 1786SOL    HW1 5370   3.565   1.730   3.172
 1786SOL    HW2 5371   3.485   1.810   3.290
 1787SOL     OW 5372   3.703   0.175   2.825
 1787SOL    HW1 5373   3.742   0.090   2.789
 1787SOL    HW2 5374   3.605   0.177   2.806
 1788SOL     OW 5375   2.125   0.326   2.582
 1788SOL    HW1 5376   2.046   0.377   2.548
 1788SOL    HW2 5377   2.116   0.311   2.680
 1789SOL     OW 5378   3.056   1.612   1.893
 1789SOL    HW1 5379   3.062   1.519   1.930
 1789SOL    HW2 5380   2.997   1.612   1.813
 1790SOL     OW 5381   2.684   1.002   3.234
 1790SOL    HW1 5382   2.724   1.001   3.142
 1790SOL    HW2 5383   2.694   1.094   3.274
 1791SOL     OW 5384   2.778   0.910   2.153
 1791SOL    HW1 5385   2.841   0.948   2.085
 1791SOL    HW2 5386   2.818   0.827   2.192
 1792SOL     OW 5387   3.366   1.607   1.906
 1792SOL    HW1 5388   3.274   1.644   1.913
 1792SOL    HW2 5389   3.404   1.627   1.816
 1793SOL     OW 5390   2.234   1.288   3.352
 1793SOL    HW1 5391   2.221   1.381   3.318
 1793SOL    HW2 5392   2.150   1.236   3.339
 1794SOL     OW 5393   3.476   1.292   3.151
 1794SOL    HW1 5394   3.536   1.295   3.231
 1794SOL    HW2 5395   3.401   1.356   3.164
 1795SOL     OW 5396   2.901   1.098   2.558
 1795SOL    HW1 5397   2.831   1.051   2.612
 1795SOL    HW2 5398   2.960   1.030   2.515
 1796SOL     OW 5399   2.876   0.236   2.833
 1796SOL    HW1 5400   2.868   0.200   2.740
 1796SOL    HW2 5401   2.874   0.160   2.898
 1797SOL     OW 5402   2.452   1.487   2.353
 1797SOL    HW1 5403   2.494   1.429   2.283
 1797SOL    HW2 5404   2.408   1.566   2.309
 1798SOL     OW 5405   3.571   0.385   3.243
 1798SOL    HW1 5406   3.644   0.454   3.247
 1798SOL    HW2 5407   3.599   0.310   3.184
 1799SOL     OW 5408   2.117   1.348   2.152
 1799SOL    HW1 5409   2.021   1.349   2.125
 1799SOL    HW2 5410   2.129   1.401   2.236
 1800SOL     OW 5411   1.967   1.013   3.588
 1800SOL    HW1 5412   1.890   0.980   3.642
 1800SOL    HW2 5413   2.052   0.983   3.630
 1801SOL     OW 5414   2.534   0.203   3.351
 1801SOL    HW1 5415   2.624   0.187   3.311
 1801SOL    HW2 5416   2.542   0.208   3.450
 1802SOL     OW 5417   1.937   0.345   1.895
 1802SOL    HW1 5418   1.845   0.317   1.866
 1802SOL    HW2 5419   1.968   0.422   1.839
 1803SOL     OW 5420   3.302   0.856   3.260
 1803SOL    HW1 5421   3.245   0.908   3.197
 1803SOL    HW2 5422   3.398   0.868   3.236
 1804SOL     OW 5423   1.934   0.166   2.180
 1804SOL    HW1 5424   1.917   0.249   2.126
 1804SOL    HW2 5425   2.024   0.129   2.158
 1805SOL     OW 5426   3.045   1.335   1.981
 1805SOL    HW1 5427   2.946   1.324   1.983
 1805SOL    HW2 5428   3.079   1.350   2.074
 1806SOL     OW 5429   2.475   0.842   3.293
 1806SOL    HW1 5430   2.531   0.923   3.276
 1806SOL    HW2 5431   2.534   0.762   3.296
 1807SOL     OW 5432   3.355   1.767   2.821
 1807SOL    HW1 5433   3.388   1.831   2.752
 1807SOL    HW2 5434   3.421   1.761   2.896
 1808SOL     OW 5435   2.578   0.565   3.570
 1808SOL    HW1 5436   2.597   0.630   3.644
 1808SOL    HW2 5437   2.638   0.485   3.579
 1809SOL     OW 5438   3.312   1.220   3.495
 1809SOL    HW1 5439   3.303   1.210   3.594
 1809SOL    HW2 5440   3.408   1.213   3.469
 1810SOL     OW 5441   2.252   1.741   3.422
 1810SOL    HW1 5442   2.161   1.782   3.420
 1810SOL    HW2 5443   2.245   1.647   3.454
 1811SOL     OW 5444   3.536   0.883   3.116
 1811SOL    HW1 5445   3.509   0.794   3.079
 1811SOL    HW2 5446   3.537   0.951   3.043
 1812SOL     OW 5447   3.087   0.325   2.311
 1812SOL    HW1 5448   3.152   0.251   2.300
 1812SOL    HW2 5449   3.107   0.375   2.395
 1813SOL     OW 5450   2.456   0.745   2.514
 1813SOL    HW1 5451   2.506   0.830   2.495
 1813SOL    HW2 5452   2.368   0.747   2.466
 1814SOL     OW 5453   3.639   0.342   3.504
 1814SOL    HW1 5454   3.622   0.373   3.410
 1814SOL    HW2 5455   3.555   0.305   3.542
 1815SOL     OW 5456   3.592   0.934   3.379
 1815SOL    HW1 5457   3.630   1.025   3.394
 1815SOL    HW2 5458   3.584   0.917   3.280
 1816SOL     OW 5459   2.721   1.374   1.878
 1816SOL    HW1 5460   2.675   1.389   1.966
 1816SOL    HW2 5461   2.765   1.459   1.848
 1817SOL     OW 5462   2.523   1.790   2.815
 1817SOL    HW1 5463   2.477   1.878   2.802
 1817SOL    HW2 5464   2.622   1.802   2.808
 1818SOL     OW 5465   2.721   0.956   2.723
 1818SOL    HW1 5466   2.775   0.887   2.771
 1818SOL    HW2 5467   2.689   1.025   2.789
 1819SOL     OW 5468   2.945   0.984   1.949
 1819SOL    HW1 5469   2.922   1.037   1.867
 1819SOL    HW2 5470   3.026   0.928   1.930
 1820SOL     OW 5471   3.723   1.569   2.713
 1820SOL    HW1 5472   3.652   1.557   2.643
 1820SOL    HW2 5473   3.724   1.490   2.773
 1821SOL     OW 5474   2.083   1.314   3.706
 1821SOL    HW1 5475   2.018   1.241   3.685
 1821SOL    HW2 5476   2.087   1.328   3.804
 1822SOL     OW 5477   1.941   1.240   2.515
 1822SOL    HW1 5478   1.940   1.193   2.603
 1822SOL    HW2 5479   2.023   1.212   2.464
 1823SOL     OW 5480   2.534   1.391   3.486
 1823SOL    HW1 5481   2.456   1.341   3.524
 1823SOL    HW2 5482   2.531   1.486   3.517
 1824SOL     OW 5483   3.686   0.192   3.089
 1824SOL    HW1 5484   3.682   0.102   3.133
 1824SOL    HW2 5485   3.689   0.181   2.990
 1825SOL     OW 5486   2.290   0.424   2.382
 1825SOL    HW1 5487   2.320   0.352   2.320
 1825SOL    HW2 5488   2.251   0.384   2.465
 1826SOL     OW 5489   3.567   1.487   2.966
 1826SOL    HW1 5490   3.474   1.462   2.939
 1826SOL    HW2 5491   3.593   1.437   3.048
 1827SOL     OW 5492   2.179   0.547   3.142
 1827SOL    HW1 5493   2.217   0.488   3.214
 1827SOL    HW2 5494   2.219   0.521   3.054
 1828SOL     OW 5495   2.674   1.586   2.549
 1828SOL    HW1 5496   2.706   1.596   2.455
 1828SOL    HW2 5497   2.595   1.524   2.551
 1829SOL     OW 5498   3.286   0.214   2.974
 1829SOL    HW1 5499   3.338   0.149   3.029
 1829SOL    HW2 5500   3.237   0.277   3.035
 1830SOL     OW 5501   2.863   0.034   3.016
 1830SOL    HW1 5502   2.800  -0.038   2.985
 1830SOL    HW2 5503   2.956  -0.002   3.016
 1831SOL     OW 5504   2.632   1.330   2.163
 1831SOL    HW1 5505   2.586   1.243   2.180
 1831SOL    HW2 5506   2.723   1.327   2.204
 1832SOL     OW 5507   2.480   1.567   3.146
 1832SOL    HW1 5508   2.475   1.649   3.203
 1832SOL    HW2 5509   2.569   1.564   3.101
 1833SOL     OW 5510   3.214   0.052   2.030
 1833SOL    HW1 5511   3.249   0.011   1.946
 1833SOL    HW2 5512   3.124   0.014   2.050
 1834SOL     OW 5513   3.162   0.453   2.553
 1834SOL    HW1 5514   3.103   0.533   2.557
 1834SOL    HW2 5515   3.177   0.418   2.646
 1835SOL     OW 5516   3.455   0.221   2.744
 1835SOL    HW1 5517   3.371   0.220   2.798
 1835SOL    HW2 5518   3.457   0.304   2.688
 1836SOL     OW 5519   1.901   1.077   2.162
 1836SOL    HW1 5520   2.000   1.066   2.153
 1836SOL    HW2 5521   1.861   0.991   2.194
 1837SOL     OW 5522   2.737   1.646   2.199
 1837SOL    HW1 5523   2.660   1.611   2.145
 1837SOL    HW2 5524   2.705   1.717   2.261
 1838SOL     OW 5525   2.092   0.628   3.837
 1838SOL    HW1 5526   1.999   0.626   3.874
 1838SOL    HW2 5527   2.093   0.589   3.745
 1839SOL     OW 5528   2.087   0.275   4.720
 1839SOL    HW1 5529   2.122   0.258   4.812
 1839SOL    HW2 5530   1.999   0.230   4.708
 1840SOL     OW 5531   1.881   0.368   4.371
 1840SOL    HW1 5532   1.799   0.411   4.410
 1840SOL    HW2 5533   1.853   0.295   4.308
 1841SOL     OW 5534   3.417   1.511   4.427
 1841SOL    HW1 5535   3.360   1.495   4.508
 1841SOL    HW2 5536   3.358   1.521   4.347
 1842SOL     OW 5537   2.997   0.703   4.441
 1842SOL    HW1 5538   3.054   0.781   4.416
 1842SOL    HW2 5539   2.937   0.729   4.517
 1843SOL     OW 5540   3.617   0.607   3.955
 1843SOL    HW1 5541   3.605   0.594   3.856
 1843SOL    HW2 5542   3.587   0.526   4.004
 1844SOL     OW 5543   2.630   1.144   4.747
 1844SOL    HW1 5544   2.552   1.161   4.807
 1844SOL    HW2 5545   2.664   1.231   4.711
 1845SOL     OW 5546   2.547   1.012   4.389
 1845SOL    HW1 5547   2.616   0.996   4.459
 1845SOL    HW2 5548   2.474   1.069   4.427
 1846SOL     OW 5549   2.197   1.435   4.785
 1846SOL    HW1 5550   2.119   1.404   4.732
 1846SOL    HW2 5551   2.255   1.493   4.728
 1847SOL     OW 5552   3.465   0.447   4.461
 1847SOL    HW1 5553   3.391   0.493   4.411
 1847SOL    HW2 5554   3.516   0.515   4.514
 1848SOL     OW 5555   2.093   1.713   4.207
 1848SOL    HW1 5556   2.127   1.790   4.261
 1848SOL    HW2 5557   2.137   1.713   4.117
 1849SOL     OW 5558   2.092   1.434   4.262
 1849SOL    HW1 5559   2.066   1.530   4.262
 1849SOL    HW2 5560   2.021   1.380   4.307
 1850SOL     OW 5561   2.102   1.091   4.610
 1850SOL    HW1 5562   2.116   1.007   4.662
 1850SOL    HW2 5563   2.047   1.155   4.665
 1851SOL     OW 5564   2.468   0.964   3.847
 1851SOL    HW1 5565   2.475   1.048   3.793
 1851SOL    HW2 5566   2.514   0.977   3.935
 1852SOL     OW 5567   1.984   0.643   4.287
 1852SOL    HW1 5568   1.939   0.555   4.304
 1852SOL    HW2 5569   1.983   0.697   4.371
 1853SOL     OW 5570   3.704   1.767   4.083
 1853SOL    HW1 5571   3.758   1.738   4.163
 1853SOL    HW2 5572   3.734   1.857   4.054
 1854SOL     OW 5573   1.889   1.596   3.841
 1854SOL    HW1 5574   1.870   1.500   3.862
 1854SOL    HW2 5575   1.856   1.654   3.916
 1855SOL     OW 5576   3.551   0.922   4.336
 1855SOL    HW1 5577   3.646   0.893   4.344
 1855SOL    HW2 5578   3.543   0.987   4.261
 1856SOL     OW 5579   3.503   1.108   4.156
 1856SOL    HW1 5580   3.589   1.110   4.104
 1856SOL    HW2 5581   3.517   1.155   4.244
 1857SOL     OW 5582   2.475   1.365   4.450
 1857SOL    HW1 5583   2.426   1.278   4.459
 1857SOL    HW2 5584   2.452   1.408   4.363
 1858SOL     OW 5585   2.671   0.004   4.226
 1858SOL    HW1 5586   2.711   0.095   4.217
 1858SOL    HW2 5587   2.571   0.012   4.232
 1859SOL     OW 5588   3.387   0.999   3.914
 1859SOL    HW1 5589   3.324   0.923   3.927
 1859SOL    HW2 5590   3.435   1.017   4.000
 1860SOL     OW 5591   3.328   1.417   4.677
 1860SOL    HW1 5592   3.269   1.423   4.757
 1860SOL    HW2 5593   3.313   1.329   4.631
 1861SOL     OW 5594   3.529   1.714   4.296
 1861SOL    HW1 5595   3.488   1.691   4.208
 1861SOL    HW2 5596   3.511   1.640   4.361
 1862SOL     OW 5597   2.460   0.729   3.994
 1862SOL    HW1 5598   2.484   0.798   3.926
 1862SOL    HW2 5599   2.382   0.762   4.048
 1863SOL     OW 5600   3.143   0.345   4.668
 1863SOL    HW1 5601   3.057   0.295   4.655
 1863SOL    HW2 5602   3.205   0.291   4.724
 1864SOL     OW 5603   3.438   1.662   4.031
 1864SOL    HW1 5604   3.527   1.708   4.034
 1864SOL    HW2 5605   3.417   1.638   3.936
 1865SOL     OW 5606   2.903   0.701   4.153
 1865SOL    HW1 5607   2.929   0.697   4.249
 1865SOL    HW2 5608   2.818   0.650   4.139
 1866SOL     OW 5609   1.938   0.811   4.513
 1866SOL    HW1 5610   2.037   0.799   4.522
 1866SOL    HW2 5611   1.914   0.906   4.534
 1867SOL     OW 5612   2.727   0.348   3.919
 1867SOL    HW1 5613   2.786   0.411   3.870
 1867SOL    HW2 5614   2.746   0.254   3.890
 1868SOL     OW 5615   3.224   1.144   4.269
 1868SOL    HW1 5616   3.307   1.115   4.221
 1868SOL    HW2 5617   3.175   1.211   4.213
 1869SOL     OW 5618   2.412   0.196   4.609
 1869SOL    HW1 5619   2.407   0.191   4.709
 1869SOL    HW2 5620   2.414   0.292   4.580
 1870SOL     OW 5621   2.870   1.456   4.201
 1870SOL    HW1 5622   2.824   1.528   4.149
 1870SOL    HW2 5623   2.866   1.476   4.299
 1871SOL     OW 5624   2.213   1.801   4.577
 1871SOL    HW1 5625   2.263   1.715   4.583
 1871SOL    HW2 5626   2.278   1.878   4.574
 1872SOL     OW 5627   3.657   1.066   4.597
 1872SOL    HW1 5628   3.595   1.051   4.521
 1872SOL    HW2 5629   3.605   1.077   4.682
 1873SOL     OW 5630   2.183   0.943   3.966
 1873SOL    HW1 5631   2.265   0.982   3.924
 1873SOL    HW2 5632   2.156   0.861   3.917
 1874SOL     OW 5633   3.320   0.735   4.452
 1874SOL    HW1 5634   3.315   0.670   4.527
 1874SOL    HW2 5635   3.400   0.794   4.465
 1875SOL     OW 5636   2.973   1.776   3.961
 1875SOL    HW1 5637   2.913   1.714   4.011
 1875SOL    HW2 5638   3.004   1.732   3.876
 1876SOL     OW 5639   3.494   1.377   3.805
 1876SOL    HW1 5640   3.462   1.471   3.795
 1876SOL    HW2 5641   3.418   1.314   3.793
 1877SOL     OW 5642   2.326   1.743   4.047
 1877SOL    HW1 5643   2.359   1.782   4.133
 1877SOL    HW2 5644   2.402   1.736   3.982
 1878SOL     OW 5645   3.262   0.107   4.150
 1878SOL    HW1 5646   3.238   0.070   4.060
 1878SOL    HW2 5647   3.361   0.123   4.154
 1879SOL     OW 5648   2.111   1.785   4.965
 1879SOL    HW1 5649   2.168   1.720   5.015
 1879SOL    HW2 5650   2.095   1.752   4.872
 1880SOL     OW 5651   2.802   1.698   4.628
 1880SOL    HW1 5652   2.882   1.641   4.649
 1880SOL    HW2 5653   2.753   1.658   4.551
 1881SOL     OW 5654   2.244   0.700   4.204
 1881SOL    HW1 5655   2.289   0.610   4.201
 1881SOL    HW2 5656   2.150   0.689   4.237
 1882SOL     OW 5657   2.476   0.122   3.841
 1882SOL    HW1 5658   2.574   0.100   3.848
 1882SOL    HW2 5659   2.445   0.105   3.748
 1883SOL     OW 5660   2.665   1.402   4.648
 1883SOL    HW1 5661   2.755   1.416   4.606
 1883SOL    HW2 5662   2.594   1.404   4.577
 1884SOL     OW 5663   2.784   0.503   4.623
 1884SOL    HW1 5664   2.759   0.494   4.527
 1884SOL    HW2 5665   2.832   0.421   4.654
 1885SOL     OW 5666   2.401   0.064   4.236
 1885SOL    HW1 5667   2.320   0.065   4.294
 1885SOL    HW2 5668   2.404   0.147   4.181
 1886SOL     OW 5669   3.296   1.188   3.765
 1886SOL    HW1 5670   3.328   1.112   3.822
 1886SOL    HW2 5671   3.204   1.215   3.795
 1887SOL     OW 5672   2.159   0.035   3.895
 1887SOL    HW1 5673   2.208   0.119   3.874
 1887SOL    HW2 5674   2.221  -0.030   3.940
 1888SOL     OW 5675   2.797   0.236   4.204
 1888SOL    HW1 5676   2.749   0.277   4.126
 1888SOL    HW2 5677   2.896   0.234   4.185
 1889SOL     OW 5678   3.089   1.570   4.517
 1889SOL    HW1 5679   3.110   1.644   4.452
 1889SOL    HW2 5680   3.157   1.570   4.590
 1890SOL     OW 5681   2.321   1.152   4.465
 1890SOL    HW1 5682   2.250   1.125   4.530
 1890SOL    HW2 5683   2.295   1.124   4.372
 1891SOL     OW 5684   3.133   1.797   4.315
 1891SOL    HW1 5685   3.177   1.861   4.251
 1891SOL    HW2 5686   3.083   1.849   4.385
 1892SOL     OW 5687   2.894   0.549   3.740
 1892SOL    HW1 5688   2.853   0.631   3.701
 1892SOL    HW2 5689   2.958   0.575   3.813
 1893SOL     OW 5690   2.728   0.454   4.366
 1893SOL    HW1 5691   2.696   0.526   4.304
 1893SOL    HW2 5692   2.752   0.373   4.313
 1894SOL     OW 5693   2.879   0.039   4.477
 1894SOL    HW1 5694   2.807   0.044   4.408
 1894SOL    HW2 5695   2.855  -0.030   4.546
 1895SOL     OW 5696   3.291   1.173   4.591
 1895SOL    HW1 5697   3.236   1.089   4.584
 1895SOL    HW2 5698   3.317   1.202   4.499
 1896SOL     OW 5699   3.328   0.590   4.716
 1896SOL    HW1 5700   3.298   0.495   4.723
 1896SOL    HW2 5701   3.401   0.606   4.782
 1897SOL     OW 5702   3.719   0.833   4.101
 1897SOL    HW1 5703   3.761   0.769   4.165
 1897SOL    HW2 5704   3.681   0.782   4.023
 1898SOL     OW 5705   2.350   1.385   3.898
 1898SOL    HW1 5706   2.263   1.370   3.945
 1898SOL    HW2 5707   2.333   1.411   3.803
 1899SOL     OW 5708   3.526   1.280   4.381
 1899SOL    HW1 5709   3.625   1.288   4.395
 1899SOL    HW2 5710   3.481   1.364   4.412
 1900SOL     OW 5711   3.252   0.575   3.802
 1900SOL    HW1 5712   3.198   0.554   3.883
 1900SOL    HW2 5713   3.343   0.534   3.811
 1901SOL     OW 5714   2.389   0.256   4.052
 1901SOL    HW1 5715   2.416   0.197   3.977
 1901SOL    HW2 5716   2.389   0.351   4.021
 1902SOL     OW 5717   3.500   1.099   4.803
 1902SOL    HW1 5718   3.505   1.180   4.862
 1902SOL    HW2 5719   3.414   1.101   4.752
 1903SOL     OW 5720   2.567   1.050   4.092
 1903SOL    HW1 5721   2.553   1.057   4.191
 1903SOL    HW2 5722   2.651   0.999   4.074
 1904SOL     OW 5723   2.229   1.100   4.225
 1904SOL    HW1 5724   2.222   1.183   4.169
 1904SOL    HW2 5725   2.233   1.020   4.165
 1905SOL     OW 5726   2.428   0.537   4.589
 1905SOL    HW1 5727   2.440   0.603   4.515
 1905SOL    HW2 5728   2.474   0.571   4.672
 1906SOL     OW 5729   3.114   1.348   4.112
 1906SOL    HW1 5730   3.164   1.425   4.152
 1906SOL    HW2 5731   3.019   1.350   4.144
 1907SOL     OW 5732   3.444   0.639   4.196
 1907SOL    HW1 5733   3.413   0.700   4.269
 1907SOL    HW2 5734   3.494   0.691   4.127
 1908SOL     OW 5735   2.435   0.870   4.753
 1908SOL    HW1 5736   2.479   0.959   4.744
 1908SOL    HW2 5737   2.372   0.870   4.830
 1909SOL     OW 5738   3.071   0.525   3.999
 1909SOL    HW1 5739   3.084   0.441   4.053
 1909SOL    HW2 5740   3.042   0.599   4.059
 1910SOL     OW 5741   2.594   0.634   4.788
 1910SOL    HW1 5742   2.653   0.608   4.712
 1910SOL    HW2 5743   2.566   0.730   4.777
 1911SOL     OW 5744   2.169   0.063   4.342
 1911SOL    HW1 5745   2.158   0.157   4.375
 1911SOL    HW2 5746   2.164   0.000   4.419
 1912SOL     OW 5747   3.484   0.367   4.098
 1912SOL    HW1 5748   3.486   0.291   4.162
 1912SOL    HW2 5749   3.436   0.444   4.138
 1913SOL     OW 5750   3.402   0.274   3.849
 1913SOL    HW1 5751   3.341   0.199   3.872
 1913SOL    HW2 5752   3.424   0.326   3.932
 1914SOL     OW 5753   3.165   0.838   3.766
 1914SOL    HW1 5754   3.199   0.745   3.781
 1914SOL    HW2 5755   3.183   0.865   3.671
 1915SOL     OW 5756   2.930   1.333   4.573
 1915SOL    HW1 5757   2.937   1.249   4.518
 1915SOL    HW2 5758   2.992   1.402   4.537
 1916SOL     OW 5759   2.181   0.810   4.673
 1916SOL    HW1 5760   2.274   0.846   4.678
 1916SOL    HW2 5761   2.175   0.725   4.725
 1917SOL     OW 5762   2.201   0.509   4.730
 1917SOL    HW1 5763   2.149   0.426   4.713
 1917SOL    HW2 5764   2.278   0.514   4.666
 1918SOL     OW 5765   1.870   1.326   3.924
 1918SOL    HW1 5766   1.777   1.347   3.893
 1918SOL    HW2 5767   1.880   1.227   3.937
 1919SOL     OW 5768   1.950   1.801   4.651
 1919SOL    HW1 5769   1.908   1.715   4.624
 1919SOL    HW2 5770   2.044   1.804   4.617
 1920SOL     OW 5771   2.366   1.568   4.634
 1920SOL    HW1 5772   2.432   1.642   4.643
 1920SOL    HW2 5773   2.410   1.489   4.592
 1921SOL     OW 5774   2.677   0.572   4.049
 1921SOL    HW1 5775   2.684   0.483   4.003
 1921SOL    HW2 5776   2.583   0.606   4.041
 1922SOL     OW 5777   2.533   0.464   4.993
 1922SOL    HW1 5778   2.499   0.375   4.963
 1922SOL    HW2 5779   2.559   0.518   4.913
 1923SOL     OW 5780   2.335   0.500   3.915
 1923SOL    HW1 5781   2.396   0.580   3.919
 1923SOL    HW2 5782   2.240   0.531   3.922
 1924SOL     OW 5783   3.164   0.855   4.033
 1924SOL    HW1 5784   3.078   0.824   4.075
 1924SOL    HW2 5785   3.160   0.841   3.934
 1925SOL     OW 5786   3.621   1.747   4.878
 1925SOL    HW1 5787   3.682   1.777   4.805
 1925SOL    HW2 5788   3.583   1.658   4.856
 1926SOL     OW 5789   1.945   1.258   4.746
 1926SOL    HW1 5790   1.940   1.257   4.846
 1926SOL    HW2 5791   1.862   1.217   4.708
 1927SOL     OW 5792   3.588   0.135   4.247
 1927SOL    HW1 5793   3.661   0.118   4.180
 1927SOL    HW2 5794   3.557   0.048   4.285
 1928SOL     OW 5795   3.250   1.573   4.201
 1928SOL    HW1 5796   3.317   1.585   4.127
 1928SOL    HW2 5797   3.210   1.662   4.224
 1929SOL     OW 5798   3.142   0.927   4.396
 1929SOL    HW1 5799   3.202   0.846   4.398
 1929SOL    HW2 5800   3.182   0.996   4.336
 1930SOL     OW 5801   2.534   1.616   3.878
 1930SOL    HW1 5802   2.543   1.626   3.779
 1930SOL    HW2 5803   2.494   1.527   3.899
 1931SOL     OW 5804   3.703   0.175   4.687
 1931SOL    HW1 5805   3.742   0.090   4.651
 1931SOL    HW2 5806   3.605   0.177   4.668
 1932SOL     OW 5807   2.125   0.326   4.444
 1932SOL    HW1 5808   2.046   0.377   4.410
 1932SOL    HW2 5809   2.116   0.311   4.542
 1933SOL     OW 5810   3.056   1.612   3.755
 1933SOL    HW1 5811   3.062   1.519   3.792
 1933SOL    HW2 5812   2.997   1.612   3.675
 1934SOL     OW 5813   2.778   0.910   4.015
 1934SOL    HW1 5814   2.841   0.948   3.947
 1934SOL    HW2 5815   2.818   0.827   4.054
 1935SOL     OW 5816   3.366   1.607   3.768
 1935SOL    HW1 5817   3.274   1.644   3.775
 1935SOL    HW2 5818   3.404   1.627   3.678
 1936SOL     OW 5819   2.901   1.098   4.420
 1936SOL    HW1 5820   2.831   1.051   4.474
 1936SOL    HW2 5821   2.960   1.030   4.377
 1937SOL     OW 5822   2.452   1.487   4.215
 1937SOL    HW1 5823   2.494   1.429   4.145
 1937SOL    HW2 5824   2.408   1.566   4.171
 1938SOL     OW 5825   2.117   1.348   4.014
 1938SOL    HW1 5826   2.021   1.349   3.987
 1938SOL    HW2 5827   2.129   1.401   4.098
 1939SOL     OW 5828   1.937   0.345   3.757
 1939SOL    HW1 5829   1.845   0.317   3.728
 1939SOL    HW2 5830   1.968   0.422   3.701
 1940SOL     OW 5831   1.934   0.166   4.042
 1940SOL    HW1 5832   1.917   0.249   3.988
 1940SOL    HW2 5833   2.024   0.129   4.020
 1941SOL     OW 5834   3.045   1.335   3.843
 1941SOL    HW1 5835   2.946   1.324   3.845
 1941SOL    HW2 5836   3.079   1.350   3.936
 1942SOL     OW 5837   3.536   0.883   4.978
 1942SOL    HW1 5838   3.509   0.794   4.941
 1942SOL    HW2 5839   3.537   0.951   4.905
 1943SOL     OW 5840   3.087   0.325   4.173
 1943SOL    HW1 5841   3.152   0.251   4.162
 1943SOL    HW2 5842   3.107   0.375   4.257
 1944SOL     OW 5843   2.456   0.745   4.376
 1944SOL    HW1 5844   2.506   0.830   4.357
 1944SOL    HW2 5845   2.368   0.747   4.328
 1945SOL     OW 5846   2.721   1.374   3.740
 1945SOL    HW1 5847   2.675   1.389   3.828
 1945SOL    HW2 5848   2.765   1.459   3.710
 1946SOL     OW 5849   2.523   1.790   4.677
 1946SOL    HW1 5850   2.477   1.878   4.664
 1946SOL    HW2 5851   2.622   1.802   4.670
 1947SOL     OW 5852   2.721   0.956   4.585
 1947SOL    HW1 5853   2.775   0.887   4.633
 1947SOL    HW2 5854   2.689   1.025   4.651
 1948SOL     OW 5855   2.945   0.984   3.811
 1948SOL    HW1 5856   2.922   1.037   3.729
 1948SOL    HW2 5857   3.026   0.928   3.792
 1949SOL     OW 5858   3.723   1.569   4.575
 1949SOL    HW1 5859   3.652   1.557   4.505
 1949SOL    HW2 5860   3.724   1.490   4.635
 1950SOL     OW 5861   1.941   1.240   4.377
 1950SOL    HW1 5862   1.940   1.193   4.465
 1950SOL    HW2 5863   2.023   1.212   4.326
 1951SOL     OW 5864   3.686   0.192   4.951
 1951SOL    HW1 5865   3.682   0.102   4.995
 1951SOL    HW2 5866   3.689   0.181   4.852
 1952SOL     OW 5867   2.290   0.424   4.244
 1952SOL    HW1 5868   2.320   0.352   4.182
 1952SOL    HW2 5869   2.251   0.384   4.327
 1953SOL     OW 5870   2.674   1.586   4.411
 1953SOL    HW1 5871   2.706   1.596   4.317
 1953SOL    HW2 5872   2.595   1.524   4.413
 1954SOL     OW 5873   2.632   1.330   4.025
 1954SOL    HW1 5874   2.586   1.243   4.042
 1954SOL    HW2 5875   2.723   1.327   4.066
 1955SOL     OW 5876   3.214   0.052   3.892
 1955SOL    HW1 5877   3.249   0.011   3.808
 1955SOL    HW2 5878   3.124   0.014   3.912
 1956SOL     OW 5879   3.162   0.453   4.415
 1956SOL    HW1 5880   3.103   0.533   4.419
 1956SOL    HW2 5881   3.177   0.418   4.508
 1957SOL     OW 5882   3.455   0.221   4.606
 1957SOL    HW1 5883   3.371   0.220   4.660
 1957SOL    HW2 5884   3.457   0.304   4.550
 1958SOL     OW 5885   1.901   1.077   4.024
 1958SOL    HW1 5886   2.000   1.066   4.015
 1958SOL    HW2 5887   1.861   0.991   4.056
 1959SOL     OW 5888   2.737   1.646   4.061
 1959SOL    HW1 5889   2.660   1.611   4.007
 1959SOL    HW2 5890   2.705   1.717   4.123
 1960SOL     OW 5891   2.092   2.490   0.113
 1960SOL    HW1 5892   1.999   2.488   0.150
 1960SOL    HW2 5893   2.093   2.451   0.021
 1961SOL     OW 5894   2.087   2.137   0.996
 1961SOL    HW1 5895   2.122   2.120   1.088
 1961SOL    HW2 5896   1.999   2.092   0.984
 1962SOL     OW 5897   1.881   2.230   0.647
 1962SOL    HW1 5898   1.799   2.273   0.686
 1962SOL    HW2 5899   1.853   2.157   0.584
 1963SOL     OW 5900   2.431   3.137   1.165
 1963SOL    HW1 5901   2.338   3.130   1.128
 1963SOL    HW2 5902   2.442   3.226   1.209
 1964SOL     OW 5903   3.417   3.373   0.703
 1964SOL    HW1 5904   3.360   3.357   0.784
 1964SOL    HW2 5905   3.358   3.383   0.623
 1965SOL     OW 5906   2.997   2.565   0.717
 1965SOL    HW1 5907   3.054   2.643   0.692
 1965SOL    HW2 5908   2.937   2.591   0.793
 1966SOL     OW 5909   3.617   2.469   0.231
 1966SOL    HW1 5910   3.605   2.456   0.132
 1966SOL    HW2 5911   3.587   2.388   0.280
 1967SOL     OW 5912   2.630   3.006   1.023
 1967SOL    HW1 5913   2.552   3.023   1.083
 1967SOL    HW2 5914   2.664   3.093   0.987
 1968SOL     OW 5915   2.712   2.660   1.823
 1968SOL    HW1 5916   2.708   2.736   1.888
 1968SOL    HW2 5917   2.734   2.696   1.732
 1969SOL     OW 5918   2.547   2.874   0.665
 1969SOL    HW1 5919   2.616   2.858   0.735
 1969SOL    HW2 5920   2.474   2.931   0.703
 1970SOL     OW 5921   2.548   3.023   1.803
 1970SOL    HW1 5922   2.608   3.102   1.817
 1970SOL    HW2 5923   2.462   3.054   1.762
 1971SOL     OW 5924   2.197   3.297   1.061
 1971SOL    HW1 5925   2.119   3.266   1.008
 1971SOL    HW2 5926   2.255   3.355   1.004
 1972SOL     OW 5927   3.322   3.367   1.339
 1972SOL    HW1 5928   3.346   3.461   1.365
 1972SOL    HW2 5929   3.306   3.313   1.421
 1973SOL     OW 5930   2.300   2.254   1.499
 1973SOL    HW1 5931   2.382   2.198   1.508
 1973SOL    HW2 5932   2.219   2.196   1.503
 1974SOL     OW 5933   3.465   2.309   0.737
 1974SOL    HW1 5934   3.391   2.355   0.687
 1974SOL    HW2 5935   3.516   2.377   0.790
 1975SOL     OW 5936   2.093   3.575   0.483
 1975SOL    HW1 5937   2.127   3.652   0.537
 1975SOL    HW2 5938   2.137   3.575   0.393
 1976SOL     OW 5939   2.989   3.203   1.690
 1976SOL    HW1 5940   3.036   3.203   1.778
 1976SOL    HW2 5941   2.941   3.116   1.679
 1977SOL     OW 5942   2.092   3.296   0.538
 1977SOL    HW1 5943   2.066   3.392   0.538
 1977SOL    HW2 5944   2.021   3.242   0.583
 1978SOL     OW 5945   2.102   2.953   0.886
 1978SOL    HW1 5946   2.116   2.869   0.938
 1978SOL    HW2 5947   2.047   3.017   0.941
 1979SOL     OW 5948   2.482   3.648   1.439
 1979SOL    HW1 5949   2.390   3.631   1.474
 1979SOL    HW2 5950   2.510   3.740   1.465
 1980SOL     OW 5951   2.468   2.826   0.123
 1980SOL    HW1 5952   2.475   2.910   0.069
 1980SOL    HW2 5953   2.514   2.839   0.211
 1981SOL     OW 5954   3.456   1.976   1.480
 1981SOL    HW1 5955   3.438   2.043   1.408
 1981SOL    HW2 5956   3.453   2.022   1.569
 1982SOL     OW 5957   1.984   2.505   0.563
 1982SOL    HW1 5958   1.939   2.417   0.580
 1982SOL    HW2 5959   1.983   2.559   0.647
 1983SOL     OW 5960   3.704   3.629   0.359
 1983SOL    HW1 5961   3.758   3.600   0.439
 1983SOL    HW2 5962   3.734   3.719   0.330
 1984SOL     OW 5963   1.889   3.458   0.117
 1984SOL    HW1 5964   1.870   3.362   0.138
 1984SOL    HW2 5965   1.856   3.516   0.192
 1985SOL     OW 5966   3.551   2.784   0.612
 1985SOL    HW1 5967   3.646   2.755   0.620
 1985SOL    HW2 5968   3.543   2.849   0.537
 1986SOL     OW 5969   3.503   2.970   0.432
 1986SOL    HW1 5970   3.589   2.972   0.380
 1986SOL    HW2 5971   3.517   3.017   0.520
 1987SOL     OW 5972   1.975   2.599   1.597
 1987SOL    HW1 5973   2.063   2.586   1.642
 1987SOL    HW2 5974   1.962   2.696   1.575
 1988SOL     OW 5975   2.475   3.227   0.726
 1988SOL    HW1 5976   2.426   3.140   0.735
 1988SOL    HW2 5977   2.452   3.270   0.639
 1989SOL     OW 5978   3.155   3.090   1.423
 1989SOL    HW1 5979   3.192   3.017   1.365
 1989SOL    HW2 5980   3.207   3.095   1.508
 1990SOL     OW 5981   2.671   1.866   0.502
 1990SOL    HW1 5982   2.711   1.957   0.493
 1990SOL    HW2 5983   2.571   1.874   0.508
 1991SOL     OW 5984   2.059   2.838   1.264
 1991SOL    HW1 5985   2.148   2.793   1.250
 1991SOL    HW2 5986   1.986   2.773   1.245
 1992SOL     OW 5987   3.387   2.861   0.190
 1992SOL    HW1 5988   3.324   2.785   0.203
 1992SOL    HW2 5989   3.435   2.879   0.276
 1993SOL     OW 5990   3.049   3.654   1.616
 1993SOL    HW1 5991   3.073   3.714   1.540
 1993SOL    HW2 5992   3.056   3.559   1.586
 1994SOL     OW 5993   2.179   2.113   1.801
 1994SOL    HW1 5994   2.250   2.184   1.807
 1994SOL    HW2 5995   2.091   2.152   1.829
 1995SOL     OW 5996   3.328   3.279   0.953
 1995SOL    HW1 5997   3.269   3.285   1.033
 1995SOL    HW2 5998   3.313   3.191   0.907
 1996SOL     OW 5999   3.529   3.576   0.572
 1996SOL    HW1 6000   3.488   3.553   0.484
 1996SOL    HW2 6001   3.511   3.502   0.637
 1997SOL     OW 6002   2.460   2.591   0.270
 1997SOL    HW1 6003   2.484   2.660   0.202
 1997SOL    HW2 6004   2.382   2.624   0.324
 1998SOL     OW 6005   3.143   2.207   0.944
 1998SOL    HW1 6006   3.057   2.157   0.931
 1998SOL    HW2 6007   3.205   2.153   1.000
 1999SOL     OW 6008   3.438   3.524   0.307
 1999SOL    HW1 6009   3.527   3.570   0.310
 1999SOL    HW2 6010   3.417   3.500   0.212
 2000SOL     OW 6011   2.669   2.467   1.465
 2000SOL    HW1 6012   2.622   2.464   1.554
 2000SOL    HW2 6013   2.618   2.412   1.399
 2001SOL     OW 6014   3.256   2.331   1.674
 2001SOL    HW1 6015   3.236   2.374   1.762
 2001SOL    HW2 6016   3.334   2.269   1.683
 2002SOL     OW 6017   2.835   2.752   1.572
 2002SOL    HW1 6018   2.881   2.668   1.543
 2002SOL    HW2 6019   2.779   2.786   1.497
 2003SOL     OW 6020   2.853   2.272   1.242
 2003SOL    HW1 6021   2.776   2.306   1.296
 2003SOL    HW2 6022   2.819   2.221   1.163
 2004SOL     OW 6023   2.903   2.563   0.429
 2004SOL    HW1 6024   2.929   2.559   0.525
 2004SOL    HW2 6025   2.818   2.512   0.415
 2005SOL     OW 6026   1.938   2.673   0.789
 2005SOL    HW1 6027   2.037   2.661   0.798
 2005SOL    HW2 6028   1.914   2.768   0.810
 2006SOL     OW 6029   1.992   3.683   1.571
 2006SOL    HW1 6030   1.982   3.668   1.670
 2006SOL    HW2 6031   1.906   3.719   1.535
 2007SOL     OW 6032   2.727   2.210   0.195
 2007SOL    HW1 6033   2.786   2.273   0.146
 2007SOL    HW2 6034   2.746   2.116   0.166
 2008SOL     OW 6035   3.581   2.447   1.831
 2008SOL    HW1 6036   3.555   2.536   1.795
 2008SOL    HW2 6037   3.579   2.379   1.758
 2009SOL     OW 6038   3.224   3.006   0.545
 2009SOL    HW1 6039   3.307   2.977   0.497
 2009SOL    HW2 6040   3.175   3.073   0.489
 2010SOL     OW 6041   2.412   2.058   0.885
 2010SOL    HW1 6042   2.407   2.053   0.985
 2010SOL    HW2 6043   2.414   2.154   0.856
 2011SOL     OW 6044   2.870   3.318   0.477
 2011SOL    HW1 6045   2.824   3.390   0.425
 2011SOL    HW2 6046   2.866   3.338   0.575
 2012SOL     OW 6047   2.213   3.663   0.853
 2012SOL    HW1 6048   2.263   3.577   0.859
 2012SOL    HW2 6049   2.278   3.740   0.850
 2013SOL     OW 6050   3.657   2.928   0.873
 2013SOL    HW1 6051   3.595   2.913   0.797
 2013SOL    HW2 6052   3.605   2.939   0.958
 2014SOL     OW 6053   3.089   3.412   1.506
 2014SOL    HW1 6054   3.095   3.335   1.570
 2014SOL    HW2 6055   3.037   3.386   1.426
 2015SOL     OW 6056   2.183   2.805   0.242
 2015SOL    HW1 6057   2.265   2.844   0.200
 2015SOL    HW2 6058   2.156   2.723   0.193
 2016SOL     OW 6059   3.320   2.597   0.728
 2016SOL    HW1 6060   3.315   2.532   0.803
 2016SOL    HW2 6061   3.400   2.656   0.741
 2017SOL     OW 6062   2.323   3.128   1.727
 2017SOL    HW1 6063   2.273   3.129   1.641
 2017SOL    HW2 6064   2.260   3.110   1.803
 2018SOL     OW 6065   2.973   3.638   0.237
 2018SOL    HW1 6066   2.913   3.576   0.287
 2018SOL    HW2 6067   3.004   3.594   0.152
 2019SOL     OW 6068   2.064   2.147   1.498
 2019SOL    HW1 6069   1.984   2.207   1.485
 2019SOL    HW2 6070   2.054   2.098   1.584
 2020SOL     OW 6071   3.494   3.239   0.081
 2020SOL    HW1 6072   3.462   3.333   0.071
 2020SOL    HW2 6073   3.418   3.176   0.069
 2021SOL     OW 6074   2.326   3.605   0.323
 2021SOL    HW1 6075   2.359   3.644   0.409
 2021SOL    HW2 6076   2.402   3.598   0.258
 2022SOL     OW 6077   3.262   1.969   0.426
 2022SOL    HW1 6078   3.238   1.932   0.336
 2022SOL    HW2 6079   3.361   1.985   0.430
 2023SOL     OW 6080   2.111   3.647   1.241
 2023SOL    HW1 6081   2.168   3.582   1.291
 2023SOL    HW2 6082   2.095   3.614   1.148
 2024SOL     OW 6083   2.802   3.560   0.904
 2024SOL    HW1 6084   2.882   3.503   0.925
 2024SOL    HW2 6085   2.753   3.520   0.827
 2025SOL     OW 6086   2.244   2.562   0.480
 2025SOL    HW1 6087   2.289   2.472   0.477
 2025SOL    HW2 6088   2.150   2.551   0.513
 2026SOL     OW 6089   3.409   2.084   1.729
 2026SOL    HW1 6090   3.404   2.121   1.821
 2026SOL    HW2 6091   3.337   2.015   1.717
 2027SOL     OW 6092   2.476   1.984   0.117
 2027SOL    HW1 6093   2.574   1.962   0.124
 2027SOL    HW2 6094   2.445   1.967   0.024
 2028SOL     OW 6095   2.643   2.126   1.749
 2028SOL    HW1 6096   2.710   2.065   1.792
 2028SOL    HW2 6097   2.570   2.145   1.814
 2029SOL     OW 6098   2.750   3.376   1.195
 2029SOL    HW1 6099   2.727   3.351   1.101
 2029SOL    HW2 6100   2.811   3.307   1.234
 2030SOL     OW 6101   3.213   2.452   1.433
 2030SOL    HW1 6102   3.241   2.409   1.518
 2030SOL    HW2 6103   3.238   2.548   1.434
 2031SOL     OW 6104   2.665   3.264   0.924
 2031SOL    HW1 6105   2.755   3.278   0.882
 2031SOL    HW2 6106   2.594   3.266   0.853
 2032SOL     OW 6107   2.784   2.365   0.899
 2032SOL    HW1 6108   2.759   2.356   0.803
 2032SOL    HW2 6109   2.832   2.283   0.930
 2033SOL     OW 6110   2.401   1.926   0.512
 2033SOL    HW1 6111   2.320   1.927   0.570
 2033SOL    HW2 6112   2.404   2.009   0.457
 2034SOL     OW 6113   3.296   3.050   0.041
 2034SOL    HW1 6114   3.328   2.974   0.098
 2034SOL    HW2 6115   3.204   3.077   0.071
 2035SOL     OW 6116   2.797   2.098   0.480
 2035SOL    HW1 6117   2.749   2.139   0.402
 2035SOL    HW2 6118   2.896   2.096   0.461
 2036SOL     OW 6119   2.938   2.545   1.464
 2036SOL    HW1 6120   2.858   2.484   1.467
 2036SOL    HW2 6121   3.019   2.492   1.440
 2037SOL     OW 6122   3.089   3.432   0.793
 2037SOL    HW1 6123   3.110   3.506   0.728
 2037SOL    HW2 6124   3.157   3.432   0.866
 2038SOL     OW 6125   2.321   3.014   0.741
 2038SOL    HW1 6126   2.250   2.987   0.806
 2038SOL    HW2 6127   2.295   2.986   0.648
 2039SOL     OW 6128   3.133   3.659   0.591
 2039SOL    HW1 6129   3.177   3.723   0.527
 2039SOL    HW2 6130   3.083   3.711   0.661
 2040SOL     OW 6131   2.894   2.411   0.016
 2040SOL    HW1 6132   2.853   2.493  -0.023
 2040SOL    HW2 6133   2.958   2.437   0.089
 2041SOL     OW 6134   1.940   2.418   1.386
 2041SOL    HW1 6135   2.032   2.417   1.345
 2041SOL    HW2 6136   1.934   2.492   1.453
 2042SOL     OW 6137   2.423   2.084   1.147
 2042SOL    HW1 6138   2.461   2.000   1.184
 2042SOL    HW2 6139   2.335   2.103   1.191
 2043SOL     OW 6140   2.728   2.316   0.642
 2043SOL    HW1 6141   2.696   2.388   0.580
 2043SOL    HW2 6142   2.752   2.235   0.589
 2044SOL     OW 6143   2.879   1.901   0.753
 2044SOL    HW1 6144   2.807   1.906   0.684
 2044SOL    HW2 6145   2.855   1.832   0.822
 2045SOL     OW 6146   3.291   3.035   0.867
 2045SOL    HW1 6147   3.236   2.951   0.860
 2045SOL    HW2 6148   3.317   3.064   0.775
 2046SOL     OW 6149   3.328   2.452   0.992
 2046SOL    HW1 6150   3.298   2.357   0.999
 2046SOL    HW2 6151   3.401   2.468   1.058
 2047SOL     OW 6152   3.719   2.695   0.377
 2047SOL    HW1 6153   3.761   2.631   0.441
 2047SOL    HW2 6154   3.681   2.644   0.299
 2048SOL     OW 6155   2.350   3.247   0.174
 2048SOL    HW1 6156   2.263   3.232   0.221
 2048SOL    HW2 6157   2.333   3.273   0.079
 2049SOL     OW 6158   3.526   3.142   0.657
 2049SOL    HW1 6159   3.625   3.150   0.671
 2049SOL    HW2 6160   3.481   3.226   0.688
 2050SOL     OW 6161   3.252   2.437   0.078
 2050SOL    HW1 6162   3.198   2.416   0.159
 2050SOL    HW2 6163   3.343   2.396   0.087
 2051SOL     OW 6164   2.389   2.118   0.328
 2051SOL    HW1 6165   2.416   2.059   0.253
 2051SOL    HW2 6166   2.389   2.213   0.297
 2052SOL     OW 6167   3.616   3.085   1.588
 2052SOL    HW1 6168   3.707   3.046   1.575
 2052SOL    HW2 6169   3.624   3.181   1.612
 2053SOL     OW 6170   2.926   3.209   1.340
 2053SOL    HW1 6171   2.846   3.186   1.395
 2053SOL    HW2 6172   3.009   3.183   1.389
 2054SOL     OW 6173   3.454   3.491   1.625
 2054SOL    HW1 6174   3.481   3.525   1.535
 2054SOL    HW2 6175   3.533   3.453   1.671
 2055SOL     OW 6176   2.973   3.057   1.100
 2055SOL    HW1 6177   2.933   3.101   1.181
 2055SOL    HW2 6178   2.932   3.094   1.017
 2056SOL     OW 6179   3.500   2.961   1.079
 2056SOL    HW1 6180   3.505   3.042   1.138
 2056SOL    HW2 6181   3.414   2.963   1.028
 2057SOL     OW 6182   2.777   1.951   1.402
 2057SOL    HW1 6183   2.802   1.931   1.307
 2057SOL    HW2 6184   2.849   2.007   1.444
 2058SOL     OW 6185   2.842   2.978   1.719
 2058SOL    HW1 6186   2.743   2.984   1.729
 2058SOL    HW2 6187   2.865   2.898   1.663
 2059SOL     OW 6188   2.567   2.912   0.368
 2059SOL    HW1 6189   2.553   2.919   0.467
 2059SOL    HW2 6190   2.651   2.861   0.350
 2060SOL     OW 6191   2.272   2.675   1.251
 2060SOL    HW1 6192   2.358   2.687   1.301
 2060SOL    HW2 6193   2.230   2.588   1.278
 2061SOL     OW 6194   3.136   2.248   1.262
 2061SOL    HW1 6195   3.157   2.322   1.326
 2061SOL    HW2 6196   3.047   2.265   1.219
 2062SOL     OW 6197   1.926   3.426   1.331
 2062SOL    HW1 6198   1.880   3.508   1.297
 2062SOL    HW2 6199   2.024   3.445   1.340
 2063SOL     OW 6200   2.229   2.962   0.501
 2063SOL    HW1 6201   2.222   3.045   0.445
 2063SOL    HW2 6202   2.233   2.882   0.441
 2064SOL     OW 6203   2.428   2.399   0.865
 2064SOL    HW1 6204   2.440   2.465   0.791
 2064SOL    HW2 6205   2.474   2.433   0.948
 2065SOL     OW 6206   3.114   3.210   0.388
 2065SOL    HW1 6207   3.164   3.287   0.428
 2065SOL    HW2 6208   3.019   3.212   0.420
 2066SOL     OW 6209   3.134   3.307   1.142
 2066SOL    HW1 6210   3.181   3.320   1.229
 2066SOL    HW2 6211   3.068   3.233   1.151
 2067SOL     OW 6212   3.444   2.501   0.472
 2067SOL    HW1 6213   3.413   2.562   0.545
 2067SOL    HW2 6214   3.494   2.553   0.403
 2068SOL     OW 6215   2.216   3.372   1.329
 2068SOL    HW1 6216   2.195   3.328   1.242
 2068SOL    HW2 6217   2.313   3.398   1.332
 2069SOL     OW 6218   2.264   2.613   1.598
 2069SOL    HW1 6219   2.332   2.668   1.551
 2069SOL    HW2 6220   2.304   2.525   1.625
 2070SOL     OW 6221   3.449   2.641   1.670
 2070SOL    HW1 6222   3.357   2.679   1.665
 2070SOL    HW2 6223   3.509   2.688   1.605
 2071SOL     OW 6224   2.875   1.967   1.770
 2071SOL    HW1 6225   2.881   2.052   1.718
 2071SOL    HW2 6226   2.907   1.891   1.713
 2072SOL     OW 6227   2.366   1.912   1.740
 2072SOL    HW1 6228   2.324   1.855   1.670
 2072SOL    HW2 6229   2.300   1.981   1.772
 2073SOL     OW 6230   2.435   2.732   1.029
 2073SOL    HW1 6231   2.479   2.821   1.020
 2073SOL    HW2 6232   2.372   2.732   1.106
 2074SOL     OW 6233   3.222   2.724   1.045
 2074SOL    HW1 6234   3.147   2.724   0.979
 2074SOL    HW2 6235   3.259   2.632   1.054
 2075SOL     OW 6236   3.071   2.387   0.275
 2075SOL    HW1 6237   3.084   2.303   0.329
 2075SOL    HW2 6238   3.042   2.461   0.335
 2076SOL     OW 6239   2.169   2.075   1.231
 2076SOL    HW1 6240   2.146   2.112   1.321
 2076SOL    HW2 6241   2.139   1.980   1.225
 2077SOL     OW 6242   1.899   3.172   1.282
 2077SOL    HW1 6243   1.952   3.123   1.350
 2077SOL    HW2 6244   1.921   3.270   1.287
 2078SOL     OW 6245   2.594   2.496   1.064
 2078SOL    HW1 6246   2.653   2.470   0.988
 2078SOL    HW2 6247   2.566   2.592   1.053
 2079SOL     OW 6248   3.590   2.797   1.854
 2079SOL    HW1 6249   3.544   2.790   1.765
 2079SOL    HW2 6250   3.528   2.841   1.920
 2080SOL     OW 6251   2.169   1.925   0.618
 2080SOL    HW1 6252   2.158   2.019   0.651
 2080SOL    HW2 6253   2.164   1.862   0.695
 2081SOL     OW 6254   3.484   2.229   0.374
 2081SOL    HW1 6255   3.486   2.153   0.438
 2081SOL    HW2 6256   3.436   2.306   0.414
 2082SOL     OW 6257   2.885   2.628   0.966
 2082SOL    HW1 6258   2.900   2.649   1.062
 2082SOL    HW2 6259   2.855   2.533   0.957
 2083SOL     OW 6260   2.842   3.435   1.700
 2083SOL    HW1 6261   2.822   3.479   1.612
 2083SOL    HW2 6262   2.881   3.344   1.684
 2084SOL     OW 6263   3.721   3.380   1.605
 2084SOL    HW1 6264   3.735   3.407   1.510
 2084SOL    HW2 6265   3.804   3.402   1.658
 2085SOL     OW 6266   2.212   2.760   1.804
 2085SOL    HW1 6267   2.288   2.804   1.852
 2085SOL    HW2 6268   2.247   2.713   1.722
 2086SOL     OW 6269   3.402   2.136   0.125
 2086SOL    HW1 6270   3.341   2.061   0.148
 2086SOL    HW2 6271   3.424   2.188   0.208
 2087SOL     OW 6272   3.165   2.700   0.042
 2087SOL    HW1 6273   3.199   2.607   0.057
 2087SOL    HW2 6274   3.183   2.727  -0.053
 2088SOL     OW 6275   2.930   3.195   0.849
 2088SOL    HW1 6276   2.937   3.111   0.794
 2088SOL    HW2 6277   2.992   3.264   0.813
 2089SOL     OW 6278   2.181   2.672   0.949
 2089SOL    HW1 6279   2.274   2.708   0.954
 2089SOL    HW2 6280   2.175   2.587   1.001
 2090SOL     OW 6281   2.201   2.371   1.006
 2090SOL    HW1 6282   2.149   2.288   0.989
 2090SOL    HW2 6283   2.278   2.376   0.942
 2091SOL     OW 6284   3.000   2.242   1.678
 2091SOL    HW1 6285   2.955   2.305   1.742
 2091SOL    HW2 6286   3.093   2.273   1.661
 2092SOL     OW 6287   3.022   2.069   1.477
 2092SOL    HW1 6288   3.022   2.133   1.554
 2092SOL    HW2 6289   3.050   2.117   1.394
 2093SOL     OW 6290   1.870   3.188   0.200
 2093SOL    HW1 6291   1.777   3.209   0.169
 2093SOL    HW2 6292   1.880   3.089   0.213
 2094SOL     OW 6293   1.950   3.663   0.927
 2094SOL    HW1 6294   1.908   3.577   0.900
 2094SOL    HW2 6295   2.044   3.666   0.893
 2095SOL     OW 6296   2.366   3.430   0.910
 2095SOL    HW1 6297   2.432   3.504   0.919
 2095SOL    HW2 6298   2.410   3.351   0.868
 2096SOL     OW 6299   2.864   2.658   1.238
 2096SOL    HW1 6300   2.905   2.626   1.324
 2096SOL    HW2 6301   2.768   2.631   1.235
 2097SOL     OW 6302   1.902   2.406   1.114
 2097SOL    HW1 6303   1.987   2.373   1.073
 2097SOL    HW2 6304   1.915   2.421   1.212
 2098SOL     OW 6305   2.051   2.382   1.722
 2098SOL    HW1 6306   2.110   2.342   1.652
 2098SOL    HW2 6307   1.993   2.453   1.681
 2099SOL     OW 6308   3.231   2.812   1.660
 2099SOL    HW1 6309   3.270   2.901   1.680
 2099SOL    HW2 6310   3.241   2.792   1.563
 2100SOL     OW 6311   2.677   2.434   0.325
 2100SOL    HW1 6312   2.684   2.345   0.279
 2100SOL    HW2 6313   2.583   2.468   0.317
 2101SOL     OW 6314   3.519   2.466   1.206
 2101SOL    HW1 6315   3.481   2.397   1.268
 2101SOL    HW2 6316   3.601   2.430   1.162
 2102SOL     OW 6317   2.114   3.426   1.744
 2102SOL    HW1 6318   2.084   3.483   1.820
 2102SOL    HW2 6319   2.107   3.329   1.770
 2103SOL     OW 6320   2.533   2.326   1.269
 2103SOL    HW1 6321   2.499   2.237   1.239
 2103SOL    HW2 6322   2.559   2.380   1.189
 2104SOL     OW 6323   2.792   3.540   1.465
 2104SOL    HW1 6324   2.768   3.522   1.370
 2104SOL    HW2 6325   2.822   3.634   1.475
 2105SOL     OW 6326   2.335   2.362   0.191
 2105SOL    HW1 6327   2.396   2.442   0.195
 2105SOL    HW2 6328   2.240   2.393   0.198
 2106SOL     OW 6329   2.021   2.999   1.466
 2106SOL    HW1 6330   2.043   2.938   1.542
 2106SOL    HW2 6331   2.031   2.950   1.380
 2107SOL     OW 6332   3.209   2.921   1.234
 2107SOL    HW1 6333   3.233   2.858   1.160
 2107SOL    HW2 6334   3.119   2.961   1.216
 2108SOL     OW 6335   3.164   2.717   0.309
 2108SOL    HW1 6336   3.078   2.686   0.351
 2108SOL    HW2 6337   3.160   2.703   0.210
 2109SOL     OW 6338   3.621   3.609   1.154
 2109SOL    HW1 6339   3.682   3.639   1.081
 2109SOL    HW2 6340   3.583   3.520   1.132
 2110SOL     OW 6341   3.114   3.593   1.128
 2110SOL    HW1 6342   3.198   3.598   1.074
 2110SOL    HW2 6343   3.091   3.497   1.146
 2111SOL     OW 6344   1.945   3.120   1.022
 2111SOL    HW1 6345   1.940   3.119   1.122
 2111SOL    HW2 6346   1.862   3.079   0.984
 2112SOL     OW 6347   2.550   3.524   1.716
 2112SOL    HW1 6348   2.494   3.605   1.725
 2112SOL    HW2 6349   2.602   3.528   1.630
 2113SOL     OW 6350   2.765   1.948   0.133
 2113SOL    HW1 6351   2.816   1.949   0.047
 2113SOL    HW2 6352   2.821   1.906   0.204
 2114SOL     OW 6353   3.588   1.997   0.523
 2114SOL    HW1 6354   3.661   1.980   0.456
 2114SOL    HW2 6355   3.557   1.910   0.561
 2115SOL     OW 6356   3.250   3.435   0.477
 2115SOL    HW1 6357   3.317   3.447   0.403
 2115SOL    HW2 6358   3.210   3.524   0.500
 2116SOL     OW 6359   1.992   3.656   1.851
 2116SOL    HW1 6360   1.951   3.582   1.904
 2116SOL    HW2 6361   2.056   3.707   1.909
 2117SOL     OW 6362   3.142   2.789   0.672
 2117SOL    HW1 6363   3.202   2.708   0.674
 2117SOL    HW2 6364   3.182   2.858   0.612
 2118SOL     OW 6365   2.692   3.135   1.422
 2118SOL    HW1 6366   2.687   3.168   1.517
 2118SOL    HW2 6367   2.606   3.154   1.376
 2119SOL     OW 6368   2.534   3.478   0.154
 2119SOL    HW1 6369   2.543   3.488   0.055
 2119SOL    HW2 6370   2.494   3.389   0.175
 2120SOL     OW 6371   3.512   3.582   1.394
 2120SOL    HW1 6372   3.565   3.592   1.310
 2120SOL    HW2 6373   3.485   3.672   1.428
 2121SOL     OW 6374   3.703   2.037   0.963
 2121SOL    HW1 6375   3.742   1.952   0.927
 2121SOL    HW2 6376   3.605   2.039   0.944
 2122SOL     OW 6377   2.125   2.188   0.720
 2122SOL    HW1 6378   2.046   2.239   0.686
 2122SOL    HW2 6379   2.116   2.173   0.818
 2123SOL     OW 6380   3.056   3.474   0.031
 2123SOL    HW1 6381   3.062   3.381   0.068
 2123SOL    HW2 6382   2.997   3.474  -0.049
 2124SOL     OW 6383   2.684   2.864   1.372
 2124SOL    HW1 6384   2.724   2.863   1.280
 2124SOL    HW2 6385   2.694   2.956   1.412
 2125SOL     OW 6386   2.778   2.772   0.291
 2125SOL    HW1 6387   2.841   2.810   0.223
 2125SOL    HW2 6388   2.818   2.689   0.330
 2126SOL     OW 6389   3.366   3.469   0.044
 2126SOL    HW1 6390   3.274   3.506   0.051
 2126SOL    HW2 6391   3.404   3.489  -0.046
 2127SOL     OW 6392   2.234   3.150   1.490
 2127SOL    HW1 6393   2.221   3.243   1.456
 2127SOL    HW2 6394   2.150   3.098   1.477
 2128SOL     OW 6395   3.476   3.154   1.289
 2128SOL    HW1 6396   3.536   3.157   1.369
 2128SOL    HW2 6397   3.401   3.218   1.302
 2129SOL     OW 6398   2.901   2.960   0.696
 2129SOL    HW1 6399   2.831   2.913   0.750
 2129SOL    HW2 6400   2.960   2.892   0.653
 2130SOL     OW 6401   2.876   2.098   0.971
 2130SOL    HW1 6402   2.868   2.062   0.878
 2130SOL    HW2 6403   2.874   2.022   1.036
 2131SOL     OW 6404   2.452   3.349   0.491
 2131SOL    HW1 6405   2.494   3.291   0.421
 2131SOL    HW2 6406   2.408   3.428   0.447
 2132SOL     OW 6407   3.571   2.247   1.381
 2132SOL    HW1 6408   3.644   2.316   1.385
 2132SOL    HW2 6409   3.599   2.172   1.322
 2133SOL     OW 6410   2.117   3.210   0.290
 2133SOL    HW1 6411   2.021   3.211   0.263
 2133SOL    HW2 6412   2.129   3.263   0.374
 2134SOL     OW 6413   1.967   2.875   1.726
 2134SOL    HW1 6414   1.890   2.842   1.780
 2134SOL    HW2 6415   2.052   2.845   1.768
 2135SOL     OW 6416   2.534   2.065   1.489
 2135SOL    HW1 6417   2.624   2.049   1.449
 2135SOL    HW2 6418   2.542   2.070   1.588
 2136SOL     OW 6419   1.937   2.207   0.033
 2136SOL    HW1 6420   1.845   2.179   0.004
 2136SOL    HW2 6421   1.968   2.284  -0.023
 2137SOL     OW 6422   3.302   2.718   1.398
 2137SOL    HW1 6423   3.245   2.770   1.335
 2137SOL    HW2 6424   3.398   2.730   1.374
 2138SOL     OW 6425   1.934   2.028   0.318
 2138SOL    HW1 6426   1.917   2.111   0.264
 2138SOL    HW2 6427   2.024   1.991   0.296
 2139SOL     OW 6428   3.045   3.197   0.119
 2139SOL    HW1 6429   2.946   3.186   0.121
 2139SOL    HW2 6430   3.079   3.212   0.212
 2140SOL     OW 6431   2.475   2.704   1.431
 2140SOL    HW1 6432   2.531   2.785   1.414
 2140SOL    HW2 6433   2.534   2.624   1.434
 2141SOL     OW 6434   3.355   3.629   0.959
 2141SOL    HW1 6435   3.388   3.693   0.890
 2141SOL    HW2 6436   3.421   3.623   1.034
 2142SOL     OW 6437   2.578   2.427   1.708
 2142SOL    HW1 6438   2.597   2.492   1.782
 2142SOL    HW2 6439   2.638   2.347   1.717
 2143SOL     OW 6440   3.312   3.082   1.633
 2143SOL    HW1 6441   3.303   3.072   1.732
 2143SOL    HW2 6442   3.408   3.075   1.607
 2144SOL     OW 6443   2.252   3.603   1.560
 2144SOL    HW1 6444   2.161   3.644   1.558
 2144SOL    HW2 6445   2.245   3.509   1.592
 2145SOL     OW 6446   3.536   2.745   1.254
 2145SOL    HW1 6447   3.509   2.656   1.217
 2145SOL    HW2 6448   3.537   2.813   1.181
 2146SOL     OW 6449   3.087   2.187   0.449
 2146SOL    HW1 6450   3.152   2.113   0.438
 2146SOL    HW2 6451   3.107   2.237   0.533
 2147SOL     OW 6452   2.456   2.607   0.652
 2147SOL    HW1 6453   2.506   2.692   0.633
 2147SOL    HW2 6454   2.368   2.609   0.604
 2148SOL     OW 6455   3.639   2.204   1.642
 2148SOL    HW1 6456   3.622   2.235   1.548
 2148SOL    HW2 6457   3.555   2.167   1.680
 2149SOL     OW 6458   3.592   2.796   1.517
 2149SOL    HW1 6459   3.630   2.887   1.532
 2149SOL    HW2 6460   3.584   2.779   1.418
 2150SOL     OW 6461   2.721   3.236   0.016
 2150SOL    HW1 6462   2.675   3.251   0.104
 2150SOL    HW2 6463   2.765   3.321  -0.014
 2151SOL     OW 6464   2.523   3.652   0.953
 2151SOL    HW1 6465   2.477   3.740   0.940
 2151SOL    HW2 6466   2.622   3.664   0.946
 2152SOL     OW 6467   2.721   2.818   0.861
 2152SOL    HW1 6468   2.775   2.749   0.909
 2152SOL    HW2 6469   2.689   2.887   0.927
 2153SOL     OW 6470   2.945   2.846   0.087
 2153SOL    HW1 6471   2.922   2.899   0.005
 2153SOL    HW2 6472   3.026   2.790   0.068
 2154SOL     OW 6473   3.723   3.431   0.851
 2154SOL    HW1 6474   3.652   3.419   0.781
 2154SOL    HW2 6475   3.724   3.352   0.911
 2155SOL     OW 6476   2.083   3.176   1.844
 2155SOL    HW1 6477   2.018   3.103   1.823
 2155SOL    HW2 6478   2.087   3.190   1.942
 2156SOL     OW 6479   1.941   3.102   0.653
 2156SOL    HW1 6480   1.940   3.055   0.741
 2156SOL    HW2 6481   2.023   3.074   0.602
 2157SOL     OW 6482   2.534   3.253   1.624
 2157SOL    HW1 6483   2.456   3.203   1.662
 2157SOL    HW2 6484   2.531   3.348   1.655
 2158SOL     OW 6485   3.686   2.054   1.227
 2158SOL    HW1 6486   3.682   1.964   1.271
 2158SOL    HW2 6487   3.689   2.043   1.128
 2159SOL     OW 6488   2.290   2.286   0.520
 2159SOL    HW1 6489   2.320   2.214   0.458
 2159SOL    HW2 6490   2.251   2.246   0.603
 2160SOL     OW 6491   3.567   3.349   1.104
 2160SOL    HW1 6492   3.474   3.324   1.077
 2160SOL    HW2 6493   3.593   3.299   1.186
 2161SOL     OW 6494   2.179   2.409   1.280
 2161SOL    HW1 6495   2.217   2.350   1.352
 2161SOL    HW2 6496   2.219   2.383   1.192
 2162SOL     OW 6497   2.674   3.448   0.687
 2162SOL    HW1 6498   2.706   3.458   0.593
 2162SOL    HW2 6499   2.595   3.386   0.689
 2163SOL     OW 6500   3.286   2.076   1.112
 2163SOL    HW1 6501   3.338   2.011   1.167
 2163SOL    HW2 6502   3.237   2.139   1.173
 2164SOL     OW 6503   2.863   1.896   1.154
 2164SOL    HW1 6504   2.800   1.824   1.123
 2164SOL    HW2 6505   2.956   1.860   1.154
 2165SOL     OW 6506   2.632   3.192   0.301
 2165SOL    HW1 6507   2.586   3.105   0.318
 2165SOL    HW2 6508   2.723   3.189   0.342
 2166SOL     OW 6509   2.480   3.429   1.284
 2166SOL    HW1 6510   2.475   3.511   1.341
 2166SOL    HW2 6511   2.569   3.426   1.239
 2167SOL     OW 6512   3.214   1.914   0.168
 2167SOL    HW1 6513   3.249   1.873   0.084
 2167SOL    HW2 6514   3.124   1.876   0.188
 2168SOL     OW 6515   3.162   2.315   0.691
 2168SOL    HW1 6516   3.103   2.395   0.695
 2168SOL    HW2 6517   3.177   2.280   0.784
 2169SOL     OW 6518   3.455   2.083   0.882
 2169SOL    HW1 6519   3.371   2.082   0.936
 2169SOL    HW2 6520   3.457   2.166   0.826
 2170SOL     OW 6521   1.901   2.939   0.300
 2170SOL    HW1 6522   2.000   2.928   0.291
 2170SOL    HW2 6523   1.861   2.853   0.332
 2171SOL     OW 6524   2.737   3.508   0.337
 2171SOL    HW1 6525   2.660   3.473   0.283
 2171SOL    HW2 6526   2.705   3.579   0.399
 2172SOL     OW 6527   2.092   2.490   1.975
 2172SOL    HW1 6528   1.999   2.488   2.012
 2172SOL    HW2 6529   2.093   2.451   1.883
 2173SOL     OW 6530   2.087   2.137   2.858
 2173SOL    HW1 6531   2.122   2.120   2.950
 2173SOL    HW2 6532   1.999   2.092   2.846
 2174SOL     OW 6533   1.881   2.230   2.509
 2174SOL    HW1 6534   1.799   2.273   2.548
 2174SOL    HW2 6535   1.853   2.157   2.446
 2175SOL     OW 6536   2.431   3.137   3.027
 2175SOL    HW1 6537   2.338   3.130   2.990
 2175SOL    HW2 6538   2.442   3.226   3.071
 2176SOL     OW 6539   3.417   3.373   2.565
 2176SOL    HW1 6540   3.360   3.357   2.646
 2176SOL    HW2 6541   3.358   3.383   2.485
 2177SOL     OW 6542   2.997   2.565   2.579
 2177SOL    HW1 6543   3.054   2.643   2.554
 2177SOL    HW2 6544   2.937   2.591   2.655
 2178SOL     OW 6545   3.617   2.469   2.093
 2178SOL    HW1 6546   3.605   2.456   1.994
 2178SOL    HW2 6547   3.587   2.388   2.142
 2179SOL     OW 6548   2.630   3.006   2.885
 2179SOL    HW1 6549   2.552   3.023   2.945
 2179SOL    HW2 6550   2.664   3.093   2.849
 2180SOL     OW 6551   2.712   2.660   3.685
 2180SOL    HW1 6552   2.708   2.736   3.750
 2180SOL    HW2 6553   2.734   2.696   3.594
 2181SOL     OW 6554   2.547   2.874   2.527
 2181SOL    HW1 6555   2.616   2.858   2.597
 2181SOL    HW2 6556   2.474   2.931   2.565
 2182SOL     OW 6557   2.548   3.023   3.665
 2182SOL    HW1 6558   2.608   3.102   3.679
 2182SOL    HW2 6559   2.462   3.054   3.624
 2183SOL     OW 6560   2.197   3.297   2.923
 2183SOL    HW1 6561   2.119   3.266   2.870
 2183SOL    HW2 6562   2.255   3.355   2.866
 2184SOL     OW 6563   3.322   3.367   3.201
 2184SOL    HW1 6564   3.346   3.461   3.227
 2184SOL    HW2 6565   3.306   3.313   3.283
 2185SOL     OW 6566   2.300   2.254   3.361
 2185SOL    HW1 6567   2.382   2.198   3.370
 2185SOL    HW2 6568   2.219   2.196   3.365
 2186SOL     OW 6569   3.465   2.309   2.599
 2186SOL    HW1 6570   3.391   2.355   2.549
 2186SOL    HW2 6571   3.516   2.377   2.652
 2187SOL     OW 6572   2.093   3.575   2.345
 2187SOL    HW1 6573   2.127   3.652   2.399
 2187SOL    HW2 6574   2.137   3.575   2.255
 2188SOL     OW 6575   2.989   3.203   3.552
 2188SOL    HW1 6576   3.036   3.203   3.640
 2188SOL    HW2 6577   2.941   3.116   3.541
 2189SOL     OW 6578   2.092   3.296   2.400
 2189SOL    HW1 6579   2.066   3.392   2.400
 2189SOL    HW2 6580   2.021   3.242   2.445
 2190SOL     OW 6581   2.102   2.953   2.748
 2190SOL    HW1 6582   2.116   2.869   2.800
 2190SOL    HW2 6583   2.047   3.017   2.803
 2191SOL     OW 6584   2.482   3.648   3.301
 2191SOL    HW1 6585   2.390   3.631   3.336
 2191SOL    HW2 6586   2.510   3.740   3.327
 2192SOL     OW 6587   2.468   2.826   1.985
 2192SOL    HW1 6588   2.475   2.910   1.931
 2192SOL    HW2 6589   2.514   2.839   2.073
 2193SOL     OW 6590   3.456   1.976   3.342
 2193SOL    HW1 6591   3.438   2.043   3.270
 2193SOL    HW2 6592   3.453   2.022   3.431
 2194SOL     OW 6593   1.984   2.505   2.425
 2194SOL    HW1 6594   1.939   2.417   2.442
 2194SOL    HW2 6595   1.983   2.559   2.509
 2195SOL     OW 6596   3.704   3.629   2.221
 2195SOL    HW1 6597   3.758   3.600   2.301
 2195SOL    HW2 6598   3.734   3.719   2.192
 2196SOL     OW 6599   1.889   3.458   1.979
 2196SOL    HW1 6600   1.870   3.362   2.000
 2196SOL    HW2 6601   1.856   3.516   2.054
 2197SOL     OW 6602   3.551   2.784   2.474
 2197SOL    HW1 6603   3.646   2.755   2.482
 2197SOL    HW2 6604   3.543   2.849   2.399
 2198SOL     OW 6605   3.503   2.970   2.294
 2198SOL    HW1 6606   3.589   2.972   2.242
 2198SOL    HW2 6607   3.517   3.017   2.382
 2199SOL     OW 6608   1.975   2.599   3.459
 2199SOL    HW1 6609   2.063   2.586   3.504
 2199SOL    HW2 6610   1.962   2.696   3.437
 2200SOL     OW 6611   2.475   3.227   2.588
 2200SOL    HW1 6612   2.426   3.140   2.597
 2200SOL    HW2 6613   2.452   3.270   2.501
 2201SOL     OW 6614   3.155   3.090   3.285
 2201SOL    HW1 6615   3.192   3.017   3.227
 2201SOL    HW2 6616   3.207   3.095   3.370
 2202SOL     OW 6617   2.671   1.866   2.364
 2202SOL    HW1 6618   2.711   1.957   2.355
 2202SOL    HW2 6619   2.571   1.874   2.370
 2203SOL     OW 6620   2.059   2.838   3.126
 2203SOL    HW1 6621   2.148   2.793   3.112
 2203SOL    HW2 6622   1.986   2.773   3.107
 2204SOL     OW 6623   3.387   2.861   2.052
 2204SOL    HW1 6624   3.324   2.785   2.065
 2204SOL    HW2 6625   3.435   2.879   2.138
 2205SOL     OW 6626   3.049   3.654   3.478
 2205SOL    HW1 6627   3.073   3.714   3.402
 2205SOL    HW2 6628   3.056   3.559   3.448
 2206SOL     OW 6629   2.179   2.113   3.663
 2206SOL    HW1 6630   2.250   2.184   3.669
 2206SOL    HW2 6631   2.091   2.152   3.691
 2207SOL     OW 6632   3.328   3.279   2.815
 2207SOL    HW1 6633   3.269   3.285   2.895
 2207SOL    HW2 6634   3.313   3.191   2.769
 2208SOL     OW 6635   3.529   3.576   2.434
 2208SOL    HW1 6636   3.488   3.553   2.346
 2208SOL    HW2 6637   3.511   3.502   2.499
 2209SOL     OW 6638   3.143   2.207   2.806
 2209SOL    HW1 6639   3.057   2.157   2.793
 2209SOL    HW2 6640   3.205   2.153   2.862
 2210SOL     OW 6641   3.438   3.524   2.169
 2210SOL    HW1 6642   3.527   3.570   2.172
 2210SOL    HW2 6643   3.417   3.500   2.074
 2211SOL     OW 6644   2.669   2.467   3.327
 2211SOL    HW1 6645   2.622   2.464   3.416
 2211SOL    HW2 6646   2.618   2.412   3.261
 2212SOL     OW 6647   3.256   2.331   3.536
 2212SOL    HW1 6648   3.236   2.374   3.624
 2212SOL    HW2 6649   3.334   2.269   3.545
 2213SOL     OW 6650   2.835   2.752   3.434
 2213SOL    HW1 6651   2.881   2.668   3.405
 2213SOL    HW2 6652   2.779   2.786   3.359
 2214SOL     OW 6653   2.853   2.272   3.104
 2214SOL    HW1 6654   2.776   2.306   3.158
 2214SOL    HW2 6655   2.819   2.221   3.025
 2215SOL     OW 6656   2.903   2.563   2.291
 2215SOL    HW1 6657   2.929   2.559   2.387
 2215SOL    HW2 6658   2.818   2.512   2.277
 2216SOL     OW 6659   1.938   2.673   2.651
 2216SOL    HW1 6660   2.037   2.661   2.660
 2216SOL    HW2 6661   1.914   2.768   2.672
 2217SOL     OW 6662   1.992   3.683   3.433
 2217SOL    HW1 6663   1.982   3.668   3.532
 2217SOL    HW2 6664   1.906   3.719   3.397
 2218SOL     OW 6665   2.727   2.210   2.057
 2218SOL    HW1 6666   2.786   2.273   2.008
 2218SOL    HW2 6667   2.746   2.116   2.028
 2219SOL     OW 6668   3.581   2.447   3.693
 2219SOL    HW1 6669   3.555   2.536   3.657
 2219SOL    HW2 6670   3.579   2.379   3.620
 2220SOL     OW 6671   3.224   3.006   2.407
 2220SOL    HW1 6672   3.307   2.977   2.359
 2220SOL    HW2 6673   3.175   3.073   2.351
 2221SOL     OW 6674   2.412   2.058   2.747
 2221SOL    HW1 6675   2.407   2.053   2.847
 2221SOL    HW2 6676   2.414   2.154   2.718
 2222SOL     OW 6677   2.870   3.318   2.339
 2222SOL    HW1 6678   2.824   3.390   2.287
 2222SOL    HW2 6679   2.866   3.338   2.437
 2223SOL     OW 6680   2.213   3.663   2.715
 2223SOL    HW1 6681   2.263   3.577   2.721
 2223SOL    HW2 6682   2.278   3.740   2.712
 2224SOL     OW 6683   3.657   2.928   2.735
 2224SOL    HW1 6684   3.595   2.913   2.659
 2224SOL    HW2 6685   3.605   2.939   2.820
 2225SOL     OW 6686   3.089   3.412   3.368
 2225SOL    HW1 6687   3.095   3.335   3.432
 2225SOL    HW2 6688   3.037   3.386   3.288
 2226SOL     OW 6689   2.183   2.805   2.104
 2226SOL    HW1 6690   2.265   2.844   2.062
 2226SOL    HW2 6691   2.156   2.723   2.055
 2227SOL     OW 6692   3.320   2.597   2.590
 2227SOL    HW1 6693   3.315   2.532   2.665
 2227SOL    HW2 6694   3.400   2.656   2.603
 2228SOL     OW 6695   2.323   3.128   3.589
 2228SOL    HW1 6696   2.273   3.129   3.503
 2228SOL    HW2 6697   2.260   3.110   3.665
 2229SOL     OW 6698   2.973   3.638   2.099
 2229SOL    HW1 6699   2.913   3.576   2.149
 2229SOL    HW2 6700   3.004   3.594   2.014
 2230SOL     OW 6701   2.064   2.147   3.360
 2230SOL    HW1 6702   1.984   2.207   3.347
 2230SOL    HW2 6703   2.054   2.098   3.446
 2231SOL     OW 6704   3.494   3.239   1.943
 2231SOL    HW1 6705   3.462   3.333   1.933
 2231SOL    HW2 6706   3.418   3.176   1.931
 2232SOL     OW 6707   2.326   3.605   2.185
 2232SOL    HW1 6708   2.359   3.644   2.271
 2232SOL    HW2 6709   2.402   3.598   2.120
 2233SOL     OW 6710   3.262   1.969   2.288
 2233SOL    HW1 6711   3.238   1.932   2.198
 2233SOL    HW2 6712   3.361   1.985   2.292
 2234SOL     OW 6713   2.111   3.647   3.103
 2234SOL    HW1 6714   2.168   3.582   3.153
 2234SOL    HW2 6715   2.095   3.614   3.010
 2235SOL     OW 6716   2.802   3.560   2.766
 2235SOL    HW1 6717   2.882   3.503   2.787
 2235SOL    HW2 6718   2.753   3.520   2.689
 2236SOL     OW 6719   3.409   2.084   3.591
 2236SOL    HW1 6720   3.404   2.121   3.683
 2236SOL    HW2 6721   3.337   2.015   3.579
 2237SOL     OW 6722   2.476   1.984   1.979
 2237SOL    HW1 6723   2.574   1.962   1.986
 2237SOL    HW2 6724   2.445   1.967   1.886
 2238SOL     OW 6725   2.643   2.126   3.611
 2238SOL    HW1 6726   2.710   2.065   3.654
 2238SOL    HW2 6727   2.570   2.145   3.676
 2239SOL     OW 6728   2.750   3.376   3.057
 2239SOL    HW1 6729   2.727   3.351   2.963
 2239SOL    HW2 6730   2.811   3.307   3.096
 2240SOL     OW 6731   3.213   2.452   3.295
 2240SOL    HW1 6732   3.241   2.409   3.380
 2240SOL    HW2 6733   3.238   2.548   3.296
 2241SOL     OW 6734   2.665   3.264   2.786
 2241SOL    HW1 6735   2.755   3.278   2.744
 2241SOL    HW2 6736   2.594   3.266   2.715
 2242SOL     OW 6737   2.784   2.365   2.761
 2242SOL    HW1 6738   2.759   2.356   2.665
 2242SOL    HW2 6739   2.832   2.283   2.792
 2243SOL     OW 6740   2.401   1.926   2.374
 2243SOL    HW1 6741   2.320   1.927   2.432
 2243SOL    HW2 6742   2.404   2.009   2.319
 2244SOL     OW 6743   3.296   3.050   1.903
 2244SOL    HW1 6744   3.328   2.974   1.960
 2244SOL    HW2 6745   3.204   3.077   1.933
 2245SOL     OW 6746   2.159   1.897   2.033
 2245SOL    HW1 6747   2.208   1.981   2.012
 2245SOL    HW2 6748   2.221   1.832   2.078
 2246SOL     OW 6749   2.797   2.098   2.342
 2246SOL    HW1 6750   2.749   2.139   2.264
 2246SOL    HW2 6751   2.896   2.096   2.323
 2247SOL     OW 6752   2.938   2.545   3.326
 2247SOL    HW1 6753   2.858   2.484   3.329
 2247SOL    HW2 6754   3.019   2.492   3.302
 2248SOL     OW 6755   3.089   3.432   2.655
 2248SOL    HW1 6756   3.110   3.506   2.590
 2248SOL    HW2 6757   3.157   3.432   2.728
 2249SOL     OW 6758   2.321   3.014   2.603
 2249SOL    HW1 6759   2.250   2.987   2.668
 2249SOL    HW2 6760   2.295   2.986   2.510
 2250SOL     OW 6761   3.133   3.659   2.453
 2250SOL    HW1 6762   3.177   3.723   2.389
 2250SOL    HW2 6763   3.083   3.711   2.523
 2251SOL     OW 6764   2.894   2.411   1.878
 2251SOL    HW1 6765   2.853   2.493   1.839
 2251SOL    HW2 6766   2.958   2.437   1.951
 2252SOL     OW 6767   1.940   2.418   3.248
 2252SOL    HW1 6768   2.032   2.417   3.207
 2252SOL    HW2 6769   1.934   2.492   3.315
 2253SOL     OW 6770   2.423   2.084   3.009
 2253SOL    HW1 6771   2.461   2.000   3.046
 2253SOL    HW2 6772   2.335   2.103   3.053
 2254SOL     OW 6773   2.728   2.316   2.504
 2254SOL    HW1 6774   2.696   2.388   2.442
 2254SOL    HW2 6775   2.752   2.235   2.451
 2255SOL     OW 6776   2.879   1.901   2.615
 2255SOL    HW1 6777   2.807   1.906   2.546
 2255SOL    HW2 6778   2.855   1.832   2.684
 2256SOL     OW 6779   3.291   3.035   2.729
 2256SOL    HW1 6780   3.236   2.951   2.722
 2256SOL    HW2 6781   3.317   3.064   2.637
 2257SOL     OW 6782   3.328   2.452   2.854
 2257SOL    HW1 6783   3.298   2.357   2.861
 2257SOL    HW2 6784   3.401   2.468   2.920
 2258SOL     OW 6785   3.719   2.695   2.239
 2258SOL    HW1 6786   3.761   2.631   2.303
 2258SOL    HW2 6787   3.681   2.644   2.161
 2259SOL     OW 6788   2.350   3.247   2.036
 2259SOL    HW1 6789   2.263   3.232   2.083
 2259SOL    HW2 6790   2.333   3.273   1.941
 2260SOL     OW 6791   3.526   3.142   2.519
 2260SOL    HW1 6792   3.625   3.150   2.533
 2260SOL    HW2 6793   3.481   3.226   2.550
 2261SOL     OW 6794   3.252   2.437   1.940
 2261SOL    HW1 6795   3.198   2.416   2.021
 2261SOL    HW2 6796   3.343   2.396   1.949
 2262SOL     OW 6797   2.389   2.118   2.190
 2262SOL    HW1 6798   2.416   2.059   2.115
 2262SOL    HW2 6799   2.389   2.213   2.159
 2263SOL     OW 6800   3.616   3.085   3.450
 2263SOL    HW1 6801   3.707   3.046   3.437
 2263SOL    HW2 6802   3.624   3.181   3.474
 2264SOL     OW 6803   2.926   3.209   3.202
 2264SOL    HW1 6804   2.846   3.186   3.257
 2264SOL    HW2 6805   3.009   3.183   3.251
 2265SOL     OW 6806   3.454   3.491   3.487
 2265SOL    HW1 6807   3.481   3.525   3.397
 2265SOL    HW2 6808   3.533   3.453   3.533
 2266SOL     OW 6809   2.973   3.057   2.962
 2266SOL    HW1 6810   2.933   3.101   3.043
 2266SOL    HW2 6811   2.932   3.094   2.879
 2267SOL     OW 6812   3.500   2.961   2.941
 2267SOL    HW1 6813   3.505   3.042   3.000
 2267SOL    HW2 6814   3.414   2.963   2.890
 2268SOL     OW 6815   2.777   1.951   3.264
 2268SOL    HW1 6816   2.802   1.931   3.169
 2268SOL    HW2 6817   2.849   2.007   3.306
 2269SOL     OW 6818   2.842   2.978   3.581
 2269SOL    HW1 6819   2.743   2.984   3.591
 2269SOL    HW2 6820   2.865   2.898   3.525
 2270SOL     OW 6821   2.567   2.912   2.230
 2270SOL    HW1 6822   2.553   2.919   2.329
 2270SOL    HW2 6823   2.651   2.861   2.212
 2271SOL     OW 6824   2.272   2.675   3.113
 2271SOL    HW1 6825   2.358   2.687   3.163
 2271SOL    HW2 6826   2.230   2.588   3.140
 2272SOL     OW 6827   3.136   2.248   3.124
 2272SOL    HW1 6828   3.157   2.322   3.188
 2272SOL    HW2 6829   3.047   2.265   3.081
 2273SOL     OW 6830   1.926   3.426   3.193
 2273SOL    HW1 6831   1.880   3.508   3.159
 2273SOL    HW2 6832   2.024   3.445   3.202
 2274SOL     OW 6833   2.229   2.962   2.363
 2274SOL    HW1 6834   2.222   3.045   2.307
 2274SOL    HW2 6835   2.233   2.882   2.303
 2275SOL     OW 6836   2.428   2.399   2.727
 2275SOL    HW1 6837   2.440   2.465   2.653
 2275SOL    HW2 6838   2.474   2.433   2.810
 2276SOL     OW 6839   3.114   3.210   2.250
 2276SOL    HW1 6840   3.164   3.287   2.290
 2276SOL    HW2 6841   3.019   3.212   2.282
 2277SOL     OW 6842   3.134   3.307   3.004
 2277SOL    HW1 6843   3.181   3.320   3.091
 2277SOL    HW2 6844   3.068   3.233   3.013
 2278SOL     OW 6845   3.444   2.501   2.334
 2278SOL    HW1 6846   3.413   2.562   2.407
 2278SOL    HW2 6847   3.494   2.553   2.265
 2279SOL     OW 6848   2.216   3.372   3.191
 2279SOL    HW1 6849   2.195   3.328   3.104
 2279SOL    HW2 6850   2.313   3.398   3.194
 2280SOL     OW 6851   2.264   2.613   3.460
 2280SOL    HW1 6852   2.332   2.668   3.413
 2280SOL    HW2 6853   2.304   2.525   3.487
 2281SOL     OW 6854   3.449   2.641   3.532
 2281SOL    HW1 6855   3.357   2.679   3.527
 2281SOL    HW2 6856   3.509   2.688   3.467
 2282SOL     OW 6857   2.875   1.967   3.632
 2282SOL    HW1 6858   2.881   2.052   3.580
 2282SOL    HW2 6859   2.907   1.891   3.575
 2283SOL     OW 6860   2.366   1.912   3.602
 2283SOL    HW1 6861   2.324   1.855   3.532
 2283SOL    HW2 6862   2.300   1.981   3.634
 2284SOL     OW 6863   2.435   2.732   2.891
 2284SOL    HW1 6864   2.479   2.821   2.882
 2284SOL    HW2 6865   2.372   2.732   2.968
 2285SOL     OW 6866   3.222   2.724   2.907
 2285SOL    HW1 6867   3.147   2.724   2.841
 2285SOL    HW2 6868   3.259   2.632   2.916
 2286SOL     OW 6869   3.071   2.387   2.137
 2286SOL    HW1 6870   3.084   2.303   2.191
 2286SOL    HW2 6871   3.042   2.461   2.197
 2287SOL     OW 6872   2.169   2.075   3.093
 2287SOL    HW1 6873   2.146   2.112   3.183
 2287SOL    HW2 6874   2.139   1.980   3.087
 2288SOL     OW 6875   1.899   3.172   3.144
 2288SOL    HW1 6876   1.952   3.123   3.212
 2288SOL    HW2 6877   1.921   3.270   3.149
 2289SOL     OW 6878   2.594   2.496   2.926
 2289SOL    HW1 6879   2.653   2.470   2.850
 2289SOL    HW2 6880   2.566   2.592   2.915
 2290SOL     OW 6881   3.590   2.797   3.716
 2290SOL    HW1 6882   3.544   2.790   3.627
 2290SOL    HW2 6883   3.528   2.841   3.782
 2291SOL     OW 6884   2.169   1.925   2.480
 2291SOL    HW1 6885   2.158   2.019   2.513
 2291SOL    HW2 6886   2.164   1.862   2.557
 2292SOL     OW 6887   3.484   2.229   2.236
 2292SOL    HW1 6888   3.486   2.153   2.300
 2292SOL    HW2 6889   3.436   2.306   2.276
 2293SOL     OW 6890   2.885   2.628   2.828
 2293SOL    HW1 6891   2.900   2.649   2.924
 2293SOL    HW2 6892   2.855   2.533   2.819
 2294SOL     OW 6893   2.842   3.435   3.562
 2294SOL    HW1 6894   2.822   3.479   3.474
 2294SOL    HW2 6895   2.881   3.344   3.546
 2295SOL     OW 6896   3.721   3.380   3.467
 2295SOL    HW1 6897   3.735   3.407   3.372
 2295SOL    HW2 6898   3.804   3.402   3.520
 2296SOL     OW 6899   2.212   2.760   3.666
 2296SOL    HW1 6900   2.288   2.804   3.714
 2296SOL    HW2 6901   2.247   2.713   3.584
 2297SOL     OW 6902   3.402   2.136   1.987
 2297SOL    HW1 6903   3.341   2.061   2.010
 2297SOL    HW2 6904   3.424   2.188   2.070
 2298SOL     OW 6905   3.165   2.700   1.904
 2298SOL    HW1 6906   3.199   2.607   1.919
 2298SOL    HW2 6907   3.183   2.727   1.809
 2299SOL     OW 6908   2.930   3.195   2.711
 2299SOL    HW1 6909   2.937   3.111   2.656
 2299SOL    HW2 6910   2.992   3.264   2.675
 2300SOL     OW 6911   2.181   2.672   2.811
 2300SOL    HW1 6912   2.274   2.708   2.816
 2300SOL    HW2 6913   2.175   2.587   2.863
 2301SOL     OW 6914   2.201   2.371   2.868
 2301SOL    HW1 6915   2.149   2.288   2.851
 2301SOL    HW2 6916   2.278   2.376   2.804
 2302SOL     OW 6917   3.000   2.242   3.540
 2302SOL    HW1 6918   2.955   2.305   3.604
 2302SOL    HW2 6919   3.093   2.273   3.523
 2303SOL     OW 6920   3.022   2.069   3.339
 2303SOL    HW1 6921   3.022   2.133   3.416
 2303SOL    HW2 6922   3.050   2.117   3.256
 2304SOL     OW 6923   1.870   3.188   2.062
 2304SOL    HW1 6924   1.777   3.209   2.031
 2304SOL    HW2 6925   1.880   3.089   2.075
 2305SOL     OW 6926   1.950   3.663   2.789
 2305SOL    HW1 6927   1.908   3.577   2.762
 2305SOL    HW2 6928   2.044   3.666   2.755
 2306SOL     OW 6929   2.366   3.430   2.772
 2306SOL    HW1 6930   2.432   3.504   2.781
 2306SOL    HW2 6931   2.410   3.351   2.730
 2307SOL     OW 6932   2.864   2.658   3.100
 2307SOL    HW1 6933   2.905   2.626   3.186
 2307SOL    HW2 6934   2.768   2.631   3.097
 2308SOL     OW 6935   1.902   2.406   2.976
 2308SOL    HW1 6936   1.987   2.373   2.935
 2308SOL    HW2 6937   1.915   2.421   3.074
 2309SOL     OW 6938   2.051   2.382   3.584
 2309SOL    HW1 6939   2.110   2.342   3.514
 2309SOL    HW2 6940   1.993   2.453   3.543
 2310SOL     OW 6941   3.231   2.812   3.522
 2310SOL    HW1 6942   3.270   2.901   3.542
 2310SOL    HW2 6943   3.241   2.792   3.425
 2311SOL     OW 6944   2.677   2.434   2.187
 2311SOL    HW1 6945   2.684   2.345   2.141
 2311SOL    HW2 6946   2.583   2.468   2.179
 2312SOL     OW 6947   3.519   2.466   3.068
 2312SOL    HW1 6948   3.481   2.397   3.130
 2312SOL    HW2 6949   3.601   2.430   3.024
 2313SOL     OW 6950   2.114   3.426   3.606
 2313SOL    HW1 6951   2.084   3.483   3.682
 2313SOL    HW2 6952   2.107   3.329   3.632
 2314SOL     OW 6953   2.533   2.326   3.131
 2314SOL    HW1 6954   2.499   2.237   3.101
 2314SOL    HW2 6955   2.559   2.380   3.051
 2315SOL     OW 6956   2.792   3.540   3.327
 2315SOL    HW1 6957   2.768   3.522   3.232
 2315SOL    HW2 6958   2.822   3.634   3.337
 2316SOL     OW 6959   2.335   2.362   2.053
 2316SOL    HW1 6960   2.396   2.442   2.057
 2316SOL    HW2 6961   2.240   2.393   2.060
 2317SOL     OW 6962   2.021   2.999   3.328
 2317SOL    HW1 6963   2.043   2.938   3.404
 2317SOL    HW2 6964   2.031   2.950   3.242
 2318SOL     OW 6965   3.209   2.921   3.096
 2318SOL    HW1 6966   3.233   2.858   3.022
 2318SOL    HW2 6967   3.119   2.961   3.078
 2319SOL     OW 6968   3.164   2.717   2.171
 2319SOL    HW1 6969   3.078   2.686   2.213
 2319SOL    HW2 6970   3.160   2.703   2.072
 2320SOL     OW 6971   3.621   3.609   3.016
 2320SOL    HW1 6972   3.682   3.639   2.943
 2320SOL    HW2 6973   3.583   3.520   2.994
 2321SOL     OW 6974   3.114   3.593   2.990
 2321SOL    HW1 6975   3.198   3.598   2.936
 2321SOL    HW2 6976   3.091   3.497   3.008
 2322SOL     OW 6977   1.945   3.120   2.884
 2322SOL    HW1 6978   1.940   3.119   2.984
 2322SOL    HW2 6979   1.862   3.079   2.846
 2323SOL     OW 6980   2.550   3.524   3.578
 2323SOL    HW1 6981   2.494   3.605   3.587
 2323SOL    HW2 6982   2.602   3.528   3.492
 2324SOL     OW 6983   3.588   1.997   2.385
 2324SOL    HW1 6984   3.661   1.980   2.318
 2324SOL    HW2 6985   3.557   1.910   2.423
 2325SOL     OW 6986   3.250   3.435   2.339
 2325SOL    HW1 6987   3.317   3.447   2.265
 2325SOL    HW2 6988   3.210   3.524   2.362
 2326SOL     OW 6989   1.992   3.656   3.713
 2326SOL    HW1 6990   1.951   3.582   3.766
 2326SOL    HW2 6991   2.056   3.707   3.771
 2327SOL     OW 6992   3.142   2.789   2.534
 2327SOL    HW1 6993   3.202   2.708   2.536
 2327SOL    HW2 6994   3.182   2.858   2.474
 2328SOL     OW 6995   2.692   3.135   3.284
 2328SOL    HW1 6996   2.687   3.168   3.379
 2328SOL    HW2 6997   2.606   3.154   3.238
 2329SOL     OW 6998   2.534   3.478   2.016
 2329SOL    HW1 6999   2.543   3.488   1.917
 2329SOL    HW2 7000   2.494   3.389   2.037
 2330SOL     OW 7001   3.512   3.582   3.256
 2330SOL    HW1 7002   3.565   3.592   3.172
 2330SOL    HW2 7003   3.485   3.672   3.290
 2331SOL     OW 7004   3.703   2.037   2.825
 2331SOL    HW1 7005   3.742   1.952   2.789
 2331SOL    HW2 7006   3.605   2.039   2.806
 2332SOL     OW 7007   3.056   3.474   1.893
 2332SOL    HW1 7008   3.062   3.381   1.930
 2332SOL    HW2 7009   2.997   3.474   1.813
 2333SOL     OW 7010   2.684   2.864   3.234
 2333SOL    HW1 7011   2.724   2.863   3.142
 2333SOL    HW2 7012   2.694   2.956   3.274
 2334SOL     OW 7013   3.366   3.469   1.906
 2334SOL    HW1 7014   3.274   3.506   1.913
 2334SOL    HW2 7015   3.404   3.489   1.816
 2335SOL     OW 7016   2.234   3.150   3.352
 2335SOL    HW1 7017   2.221   3.243   3.318
 2335SOL    HW2 7018   2.150   3.098   3.339
 2336SOL     OW 7019   3.476   3.154   3.151
 2336SOL    HW1 7020   3.536   3.157   3.231
 2336SOL    HW2 7021   3.401   3.218   3.164
 2337SOL     OW 7022   2.901   2.960   2.558
 2337SOL    HW1 7023   2.831   2.913   2.612
 2337SOL    HW2 7024   2.960   2.892   2.515
 2338SOL     OW 7025   2.876   2.098   2.833
 2338SOL    HW1 7026   2.868   2.062   2.740
 2338SOL    HW2 7027   2.874   2.022   2.898
 2339SOL     OW 7028   2.452   3.349   2.353
 2339SOL    HW1 7029   2.494   3.291   2.283
 2339SOL    HW2 7030   2.408   3.428   2.309
 2340SOL     OW 7031   3.571   2.247   3.243
 2340SOL    HW1 7032   3.644   2.316   3.247
 2340SOL    HW2 7033   3.599   2.172   3.184
 2341SOL     OW 7034   2.117   3.210   2.152
 2341SOL    HW1 7035   2.021   3.211   2.125
 2341SOL    HW2 7036   2.129   3.263   2.236
 2342SOL     OW 7037   1.967   2.875   3.588
 2342SOL    HW1 7038   1.890   2.842   3.642
 2342SOL    HW2 7039   2.052   2.845   3.630
 2343SOL     OW 7040   2.534   2.065   3.351
 2343SOL    HW1 7041   2.624   2.049   3.311
 2343SOL    HW2 7042   2.542   2.070   3.450
 2344SOL     OW 7043   1.937   2.207   1.895
 2344SOL    HW1 7044   1.845   2.179   1.866
 2344SOL    HW2 7045   1.968   2.284   1.839
 2345SOL     OW 7046   3.302   2.718   3.260
 2345SOL    HW1 7047   3.245   2.770   3.197
 2345SOL    HW2 7048   3.398   2.730   3.236
 2346SOL     OW 7049   1.934   2.028   2.180
 2346SOL    HW1 7050   1.917   2.111   2.126
 2346SOL    HW2 7051   2.024   1.991   2.158
 2347SOL     OW 7052   3.045   3.197   1.981
 2347SOL    HW1 7053   2.946   3.186   1.983
 2347SOL    HW2 7054   3.079   3.212   2.074
 2348SOL     OW 7055   2.475   2.704   3.293
 2348SOL    HW1 7056   2.531   2.785   3.276
 2348SOL    HW2 7057   2.534   2.624   3.296
 2349SOL     OW 7058   3.355   3.629   2.821
 2349SOL    HW1 7059   3.388   3.693   2.752
 2349SOL    HW2 7060   3.421   3.623   2.896
 2350SOL     OW 7061   2.578   2.427   3.570
 2350SOL    HW1 7062   2.597   2.492   3.644
 2350SOL    HW2 7063   2.638   2.347   3.579
 2351SOL     OW 7064   3.312   3.082   3.495
 2351SOL    HW1 7065   3.303   3.072   3.594
 2351SOL    HW2 7066   3.408   3.075   3.469
 2352SOL     OW 7067   2.252   3.603   3.422
 2352SOL    HW1 7068   2.161   3.644   3.420
 2352SOL    HW2 7069   2.245   3.509   3.454
 2353SOL     OW 7070   3.536   2.745   3.116
 2353SOL    HW1 7071   3.509   2.656   3.079
 2353SOL    HW2 7072   3.537   2.813   3.043
 2354SOL     OW 7073   3.087   2.187   2.311
 2354SOL    HW1 7074   3.152   2.113   2.300
 2354SOL    HW2 7075   3.107   2.237   2.395
 2355SOL     OW 7076   3.639   2.204   3.504
 2355SOL    HW1 7077   3.622   2.235   3.410
 2355SOL    HW2 7078   3.555   2.167   3.542
 2356SOL     OW 7079   3.592   2.796   3.379
 2356SOL    HW1 7080   3.630   2.887   3.394
 2356SOL    HW2 7081   3.584   2.779   3.280
 2357SOL     OW 7082   2.721   3.236   1.878
 2357SOL    HW1 7083   2.675   3.251   1.966
 2357SOL    HW2 7084   2.765   3.321   1.848
 2358SOL     OW 7085   2.523   3.652   2.815
 2358SOL    HW1 7086   2.477   3.740   2.802
 2358SOL    HW2 7087   2.622   3.664   2.808
 2359SOL     OW 7088   2.721   2.818   2.723
 2359SOL    HW1 7089   2.775   2.749   2.771
 2359SOL    HW2 7090   2.689   2.887   2.789
 2360SOL     OW 7091   2.945   2.846   1.949
 2360SOL    HW1 7092   2.922   2.899   1.867
 2360SOL    HW2 7093   3.026   2.790   1.930
 2361SOL     OW 7094   3.723   3.431   2.713
 2361SOL    HW1 7095   3.652   3.419   2.643
 2361SOL    HW2 7096   3.724   3.352   2.773
 2362SOL     OW 7097   2.083   3.176   3.706
 2362SOL    HW1 7098   2.018   3.103   3.685
 2362SOL    HW2 7099   2.087   3.190   3.804
 2363SOL     OW 7100   1.941   3.102   2.515
 2363SOL    HW1 7101   1.940   3.055   2.603
 2363SOL    HW2 7102   2.023   3.074   2.464
 2364SOL     OW 7103   2.534   3.253   3.486
 2364SOL    HW1 7104   2.456   3.203   3.524
 2364SOL    HW2 7105   2.531   3.348   3.517
 2365SOL     OW 7106   3.686   2.054   3.089
 2365SOL    HW1 7107   3.682   1.964   3.133
 2365SOL    HW2 7108   3.689   2.043   2.990
 2366SOL     OW 7109   3.567   3.349   2.966
 2366SOL    HW1 7110   3.474   3.324   2.939
 2366SOL    HW2 7111   3.593   3.299   3.048
 2367SOL     OW 7112   2.179   2.409   3.142
 2367SOL    HW1 7113   2.217   2.350   3.214
 2367SOL    HW2 7114   2.219   2.383   3.054
 2368SOL     OW 7115   2.674   3.448   2.549
 2368SOL    HW1 7116   2.706   3.458   2.455
 2368SOL    HW2 7117   2.595   3.386   2.551
 2369SOL     OW 7118   3.286   2.076   2.974
 2369SOL    HW1 7119   3.338   2.011   3.029
 2369SOL    HW2 7120   3.237   2.139   3.035
 2370SOL     OW 7121   2.863   1.896   3.016
 2370SOL    HW1 7122   2.800   1.824   2.985
 2370SOL    HW2 7123   2.956   1.860   3.016
 2371SOL     OW 7124   2.632   3.192   2.163
 2371SOL    HW1 7125   2.586   3.105   2.180
 2371SOL    HW2 7126   2.723   3.189   2.204
 2372SOL     OW 7127   2.480   3.429   3.146
 2372SOL    HW1 7128   2.475   3.511   3.203
 2372SOL    HW2 7129   2.569   3.426   3.101
 2373SOL     OW 7130   3.214   1.914   2.030
 2373SOL    HW1 7131   3.249   1.873   1.946
 2373SOL    HW2 7132   3.124   1.876   2.050
 2374SOL     OW 7133   3.162   2.315   2.553
 2374SOL    HW1 7134   3.103   2.395   2.557
 2374SOL    HW2 7135   3.177   2.280   2.646
 2375SOL     OW 7136   3.455   2.083   2.744
 2375SOL    HW1 7137   3.371   2.082   2.798
 2375SOL    HW2 7138   3.457   2.166   2.688
 2376SOL     OW 7139   1.901   2.939   2.162
 2376SOL    HW1 7140   2.000   2.928   2.153
 2376SOL    HW2 7141   1.861   2.853   2.194
 2377SOL     OW 7142   2.737   3.508   2.199
 2377SOL    HW1 7143   2.660   3.473   2.145
 2377SOL    HW2 7144   2.705   3.579   2.261
 2378SOL     OW 7145   2.092   2.490   3.837
 2378SOL    HW1 7146   1.999   2.488   3.874
 2378SOL    HW2 7147   2.093   2.451   3.745
 2379SOL     OW 7148   2.087   2.137   4.720
 2379SOL    HW1 7149   2.122   2.120   4.812
 2379SOL    HW2 7150   1.999   2.092   4.708
 2380SOL     OW 7151   1.881   2.230   4.371
 2380SOL    HW1 7152   1.799   2.273   4.410
 2380SOL    HW2 7153   1.853   2.157   4.308
 2381SOL     OW 7154   3.417   3.373   4.427
 2381SOL    HW1 7155   3.360   3.357   4.508
 2381SOL    HW2 7156   3.358   3.383   4.347
 2382SOL     OW 7157   2.997   2.565   4.441
 2382SOL    HW1 7158   3.054   2.643   4.416
 2382SOL    HW2 7159   2.937   2.591   4.517
 2383SOL     OW 7160   3.617   2.469   3.955
 2383SOL    HW1 7161   3.605   2.456   3.856
 2383SOL    HW2 7162   3.587   2.388   4.004
 2384SOL     OW 7163   2.630   3.006   4.747
 2384SOL    HW1 7164   2.552   3.023   4.807
 2384SOL    HW2 7165   2.664   3.093   4.711
 2385SOL     OW 7166   2.547   2.874   4.389
 2385SOL    HW1 7167   2.616   2.858   4.459
 2385SOL    HW2 7168   2.474   2.931   4.427
 2386SOL     OW 7169   2.197   3.297   4.785
 2386SOL    HW1 7170   2.119   3.266   4.732
 2386SOL    HW2 7171   2.255   3.355   4.728
 2387SOL     OW 7172   3.465   2.309   4.461
 2387SOL    HW1 7173   3.391   2.355   4.411
 2387SOL    HW2 7174   3.516   2.377   4.514
 2388SOL     OW 7175   2.093   3.575   4.207
 2388SOL    HW1 7176   2.127   3.652   4.261
 2388SOL    HW2 7177   2.137   3.575   4.117
 2389SOL     OW 7178   2.092   3.296   4.262
 2389SOL    HW1 7179   2.066   3.392   4.262
 2389SOL    HW2 7180   2.021   3.242   4.307
 2390SOL     OW 7181   2.102   2.953   4.610
 2390SOL    HW1 7182   2.116   2.869   4.662
 2390SOL    HW2 7183   2.047   3.017   4.665
 2391SOL     OW 7184   2.468   2.826   3.847
 2391SOL    HW1 7185   2.475   2.910   3.793
 2391SOL    HW2 7186   2.514   2.839   3.935
 2392SOL     OW 7187   1.984   2.505   4.287
 2392SOL    HW1 7188   1.939   2.417   4.304
 2392SOL    HW2 7189   1.983   2.559   4.371
 2393SOL     OW 7190   3.704   3.629   4.083
 2393SOL    HW1 7191   3.758   3.600   4.163
 2393SOL    HW2 7192   3.734   3.719   4.054
 2394SOL     OW 7193   1.889   3.458   3.841
 2394SOL    HW1 7194   1.870   3.362   3.862
 2394SOL    HW2 7195   1.856   3.516   3.916
 2395SOL     OW 7196   3.551   2.784   4.336
 2395SOL    HW1 7197   3.646   2.755   4.344
 2395SOL    HW2 7198   3.543   2.849   4.261
 2396SOL     OW 7199   3.503   2.970   4.156
 2396SOL    HW1 7200   3.589   2.972   4.104
 2396SOL    HW2 7201   3.517   3.017   4.244
 2397SOL     OW 7202   2.475   3.227   4.450
 2397SOL    HW1 7203   2.426   3.140   4.459
 2397SOL    HW2 7204   2.452   3.270   4.363
 2398SOL     OW 7205   2.671   1.866   4.226
 2398SOL    HW1 7206   2.711   1.957   4.217
 2398SOL    HW2 7207   2.571   1.874   4.232
 2399SOL     OW 7208   3.387   2.861   3.914
 2399SOL    HW1 7209   3.324   2.785   3.927
 2399SOL    HW2 7210   3.435   2.879   4.000
 2400SOL     OW 7211   3.328   3.279   4.677
 2400SOL    HW1 7212   3.269   3.285   4.757
 2400SOL    HW2 7213   3.313   3.191   4.631
 2401SOL     OW 7214   3.529   3.576   4.296
 2401SOL    HW1 7215   3.488   3.553   4.208
 2401SOL    HW2 7216   3.511   3.502   4.361
 2402SOL     OW 7217   2.460   2.591   3.994
 2402SOL    HW1 7218   2.484   2.660   3.926
 2402SOL    HW2 7219   2.382   2.624   4.048
 2403SOL     OW 7220   3.143   2.207   4.668
 2403SOL    HW1 7221   3.057   2.157   4.655
 2403SOL    HW2 7222   3.205   2.153   4.724
 2404SOL     OW 7223   3.438   3.524   4.031
 2404SOL    HW1 7224   3.527   3.570   4.034
 2404SOL    HW2 7225   3.417   3.500   3.936
 2405SOL     OW 7226   2.903   2.563   4.153
 2405SOL    HW1 7227   2.929   2.559   4.249
 2405SOL    HW2 7228   2.818   2.512   4.139
 2406SOL     OW 7229   1.938   2.673   4.513
 2406SOL    HW1 7230   2.037   2.661   4.522
 2406SOL    HW2 7231   1.914   2.768   4.534
 2407SOL     OW 7232   2.727   2.210   3.919
 2407SOL    HW1 7233   2.786   2.273   3.870
 2407SOL    HW2 7234   2.746   2.116   3.890
 2408SOL     OW 7235   3.224   3.006   4.269
 2408SOL    HW1 7236   3.307   2.977   4.221
 2408SOL    HW2 7237   3.175   3.073   4.213
 2409SOL     OW 7238   2.412   2.058   4.609
 2409SOL    HW1 7239   2.407   2.053   4.709
 2409SOL    HW2 7240   2.414   2.154   4.580
 2410SOL     OW 7241   2.870   3.318   4.201
 2410SOL    HW1 7242   2.824   3.390   4.149
 2410SOL    HW2 7243   2.866   3.338   4.299
 2411SOL     OW 7244   2.213   3.663   4.577
 2411SOL    HW1 7245   2.263   3.577   4.583
 2411SOL    HW2 7246   2.278   3.740   4.574
 2412SOL     OW 7247   3.657   2.928   4.597
 2412SOL    HW1 7248   3.595   2.913   4.521
 2412SOL    HW2 7249   3.605   2.939   4.682
 2413SOL     OW 7250   2.183   2.805   3.966
 2413SOL    HW1 7251   2.265   2.844   3.924
 2413SOL    HW2 7252   2.156   2.723   3.917
 2414SOL     OW 7253   3.320   2.597   4.452
 2414SOL    HW1 7254   3.315   2.532   4.527
 2414SOL    HW2 7255   3.400   2.656   4.465
 2415SOL     OW 7256   2.973   3.638   3.961
 2415SOL    HW1 7257   2.913   3.576   4.011
 2415SOL    HW2 7258   3.004   3.594   3.876
 2416SOL     OW 7259   3.494   3.239   3.805
 2416SOL    HW1 7260   3.462   3.333   3.795
 2416SOL    HW2 7261   3.418   3.176   3.793
 2417SOL     OW 7262   2.326   3.605   4.047
 2417SOL    HW1 7263   2.359   3.644   4.133
 2417SOL    HW2 7264   2.402   3.598   3.982
 2418SOL     OW 7265   3.262   1.969   4.150
 2418SOL    HW1 7266   3.238   1.932   4.060
 2418SOL    HW2 7267   3.361   1.985   4.154
 2419SOL     OW 7268   2.111   3.647   4.965
 2419SOL    HW1 7269   2.168   3.582   5.015
 2419SOL    HW2 7270   2.095   3.614   4.872
 2420SOL     OW 7271   2.802   3.560   4.628
 2420SOL    HW1 7272   2.882   3.503   4.649
 2420SOL    HW2 7273   2.753   3.520   4.551
 2421SOL     OW 7274   2.244   2.562   4.204
 2421SOL    HW1 7275   2.289   2.472   4.201
 2421SOL    HW2 7276   2.150   2.551   4.237
 2422SOL     OW 7277   2.476   1.984   3.841
 2422SOL    HW1 7278   2.574   1.962   3.848
 2422SOL    HW2 7279   2.445   1.967   3.748
 2423SOL     OW 7280   2.665   3.264   4.648
 2423SOL    HW1 7281   2.755   3.278   4.606
 2423SOL    HW2 7282   2.594   3.266   4.577
 2424SOL     OW 7283   2.784   2.365   4.623
 2424SOL    HW1 7284   2.759   2.356   4.527
 2424SOL    HW2 7285   2.832   2.283   4.654
 2425SOL     OW 7286   2.401   1.926   4.236
 2425SOL    HW1 7287   2.320   1.927   4.294
 2425SOL    HW2 7288   2.404   2.009   4.181
 2426SOL     OW 7289   3.296   3.050   3.765
 2426SOL    HW1 7290   3.328   2.974   3.822
 2426SOL    HW2 7291   3.204   3.077   3.795
 2427SOL     OW 7292   2.159   1.897   3.895
 2427SOL    HW1 7293   2.208   1.981   3.874
 2427SOL    HW2 7294   2.221   1.832   3.940
 2428SOL     OW 7295   2.797   2.098   4.204
 2428SOL    HW1 7296   2.749   2.139   4.126
 2428SOL    HW2 7297   2.896   2.096   4.185
 2429SOL     OW 7298   3.089   3.432   4.517
 2429SOL    HW1 7299   3.110   3.506   4.452
 2429SOL    HW2 7300   3.157   3.432   4.590
 2430SOL     OW 7301   2.321   3.014   4.465
 2430SOL    HW1 7302   2.250   2.987   4.530
 2430SOL    HW2 7303   2.295   2.986   4.372
 2431SOL     OW 7304   3.133   3.659   4.315
 2431SOL    HW1 7305   3.177   3.723   4.251
 2431SOL    HW2 7306   3.083   3.711   4.385
 2432SOL     OW 7307   2.894   2.411   3.740
 2432SOL    HW1 7308   2.853   2.493   3.701
 2432SOL    HW2 7309   2.958   2.437   3.813
 2433SOL     OW 7310   2.728   2.316   4.366
 2433SOL    HW1 7311   2.696   2.388   4.304
 2433SOL    HW2 7312   2.752   2.235   4.313
 2434SOL     OW 7313   2.879   1.901   4.477
 2434SOL    HW1 7314   2.807   1.906   4.408
 2434SOL    HW2 7315   2.855   1.832   4.546
 2435SOL     OW 7316   3.291   3.035   4.591
 2435SOL    HW1 7317   3.236   2.951   4.584
 2435SOL    HW2 7318   3.317   3.064   4.499
 2436SOL     OW 7319   3.328   2.452   4.716
 2436SOL    HW1 7320   3.298   2.357   4.723
 2436SOL    HW2 7321   3.401   2.468   4.782
 2437SOL     OW 7322   3.719   2.695   4.101
 2437SOL    HW1 7323   3.761   2.631   4.165
 2437SOL    HW2 7324   3.681   2.644   4.023
 2438SOL     OW 7325   2.350   3.247   3.898
 2438SOL    HW1 7326   2.263   3.232   3.945
 2438SOL    HW2 7327   2.333   3.273   3.803
 2439SOL     OW 7328   3.526   3.142   4.381
 2439SOL    HW1 7329   3.625   3.150   4.395
 2439SOL    HW2 7330   3.481   3.226   4.412
 2440SOL     OW 7331   3.252   2.437   3.802
 2440SOL    HW1 7332   3.198   2.416   3.883
 2440SOL    HW2 7333   3.343   2.396   3.811
 2441SOL     OW 7334   2.389   2.118   4.052
 2441SOL    HW1 7335   2.416   2.059   3.977
 2441SOL    HW2 7336   2.389   2.213   4.021
 2442SOL     OW 7337   3.500   2.961   4.803
 2442SOL    HW1 7338   3.505   3.042   4.862
 2442SOL    HW2 7339   3.414   2.963   4.752
 2443SOL     OW 7340   2.567   2.912   4.092
 2443SOL    HW1 7341   2.553   2.919   4.191
 2443SOL    HW2 7342   2.651   2.861   4.074
 2444SOL     OW 7343   2.229   2.962   4.225
 2444SOL    HW1 7344   2.222   3.045   4.169
 2444SOL    HW2 7345   2.233   2.882   4.165
 2445SOL     OW 7346   2.428   2.399   4.589
 2445SOL    HW1 7347   2.440   2.465   4.515
 2445SOL    HW2 7348   2.474   2.433   4.672
 2446SOL     OW 7349   3.114   3.210   4.112
 2446SOL    HW1 7350   3.164   3.287   4.152
 2446SOL    HW2 7351   3.019   3.212   4.144
 2447SOL     OW 7352   3.444   2.501   4.196
 2447SOL    HW1 7353   3.413   2.562   4.269
 2447SOL    HW2 7354   3.494   2.553   4.127
 2448SOL     OW 7355   2.435   2.732   4.753
 2448SOL    HW1 7356   2.479   2.821   4.744
 2448SOL    HW2 7357   2.372   2.732   4.830
 2449SOL     OW 7358   3.071   2.387   3.999
 2449SOL    HW1 7359   3.084   2.303   4.053
 2449SOL    HW2 7360   3.042   2.461   4.059
 2450SOL     OW 7361   2.169   2.075   4.955
 2450SOL    HW1 7362   2.146   2.112   5.045
 2450SOL    HW2 7363   2.139   1.980   4.949
 2451SOL     OW 7364   2.594   2.496   4.788
 2451SOL    HW1 7365   2.653   2.470   4.712
 2451SOL    HW2 7366   2.566   2.592   4.777
 2452SOL     OW 7367   2.169   1.925   4.342
 2452SOL    HW1 7368   2.158   2.019   4.375
 2452SOL    HW2 7369   2.164   1.862   4.419
 2453SOL     OW 7370   3.484   2.229   4.098
 2453SOL    HW1 7371   3.486   2.153   4.162
 2453SOL    HW2 7372   3.436   2.306   4.138
 2454SOL     OW 7373   3.402   2.136   3.849
 2454SOL    HW1 7374   3.341   2.061   3.872
 2454SOL    HW2 7375   3.424   2.188   3.932
 2455SOL     OW 7376   3.165   2.700   3.766
 2455SOL    HW1 7377   3.199   2.607   3.781
 2455SOL    HW2 7378   3.183   2.727   3.671
 2456SOL     OW 7379   2.930   3.195   4.573
 2456SOL    HW1 7380   2.937   3.111   4.518
 2456SOL    HW2 7381   2.992   3.264   4.537
 2457SOL     OW 7382   2.181   2.672   4.673
 2457SOL    HW1 7383   2.274   2.708   4.678
 2457SOL    HW2 7384   2.175   2.587   4.725
 2458SOL     OW 7385   2.201   2.371   4.730
 2458SOL    HW1 7386   2.149   2.288   4.713
 2458SOL    HW2 7387   2.278   2.376   4.666
 2459SOL     OW 7388   1.870   3.188   3.924
 2459SOL    HW1 7389   1.777   3.209   3.893
 2459SOL    HW2 7390   1.880   3.089   3.937
 2460SOL     OW 7391   1.950   3.663   4.651
 2460SOL    HW1 7392   1.908   3.577   4.624
 2460SOL    HW2 7393   2.044   3.666   4.617
 2461SOL     OW 7394   2.366   3.430   4.634
 2461SOL    HW1 7395   2.432   3.504   4.643
 2461SOL    HW2 7396   2.410   3.351   4.592
 2462SOL     OW 7397   2.677   2.434   4.049
 2462SOL    HW1 7398   2.684   2.345   4.003
 2462SOL    HW2 7399   2.583   2.468   4.041
 2463SOL     OW 7400   2.533   2.326   4.993
 2463SOL    HW1 7401   2.499   2.237   4.963
 2463SOL    HW2 7402   2.559   2.380   4.913
 2464SOL     OW 7403   2.335   2.362   3.915
 2464SOL    HW1 7404   2.396   2.442   3.919
 2464SOL    HW2 7405   2.240   2.393   3.922
 2465SOL     OW 7406   3.164   2.717   4.033
 2465SOL    HW1 7407   3.078   2.686   4.075
 2465SOL    HW2 7408   3.160   2.703   3.934
 2466SOL     OW 7409   3.621   3.609   4.878
 2466SOL    HW1 7410   3.682   3.639   4.805
 2466SOL    HW2 7411   3.583   3.520   4.856
 2467SOL     OW 7412   1.945   3.120   4.746
 2467SOL    HW1 7413   1.940   3.119   4.846
 2467SOL    HW2 7414   1.862   3.079   4.708
 2468SOL     OW 7415   3.588   1.997   4.247
 2468SOL    HW1 7416   3.661   1.980   4.180
 2468SOL    HW2 7417   3.557   1.910   4.285
 2469SOL     OW 7418   3.250   3.435   4.201
 2469SOL    HW1 7419   3.317   3.447   4.127
 2469SOL    HW2 7420   3.210   3.524   4.224
 2470SOL     OW 7421   3.142   2.789   4.396
 2470SOL    HW1 7422   3.202   2.708   4.398
 2470SOL    HW2 7423   3.182   2.858   4.336
 2471SOL     OW 7424   2.534   3.478   3.878
 2471SOL    HW1 7425   2.543   3.488   3.779
 2471SOL    HW2 7426   2.494   3.389   3.899
 2472SOL     OW 7427   3.703   2.037   4.687
 2472SOL    HW1 7428   3.742   1.952   4.651
 2472SOL    HW2 7429   3.605   2.039   4.668
 2473SOL     OW 7430   2.125   2.188   4.444
 2473SOL    HW1 7431   2.046   2.239   4.410
 2473SOL    HW2 7432   2.116   2.173   4.542
 2474SOL     OW 7433   3.056   3.474   3.755
 2474SOL    HW1 7434   3.062   3.381   3.792
 2474SOL    HW2 7435   2.997   3.474   3.675
 2475SOL     OW 7436   2.778   2.772   4.015
 2475SOL    HW1 7437   2.841   2.810   3.947
 2475SOL    HW2 7438   2.818   2.689   4.054
 2476SOL     OW 7439   3.366   3.469   3.768
 2476SOL    HW1 7440   3.274   3.506   3.775
 2476SOL    HW2 7441   3.404   3.489   3.678
 2477SOL     OW 7442   2.901   2.960   4.420
 2477SOL    HW1 7443   2.831   2.913   4.474
 2477SOL    HW2 7444   2.960   2.892   4.377
 2478SOL     OW 7445   2.452   3.349   4.215
 2478SOL    HW1 7446   2.494   3.291   4.145
 2478SOL    HW2 7447   2.408   3.428   4.171
 2479SOL     OW 7448   2.117   3.210   4.014
 2479SOL    HW1 7449   2.021   3.211   3.987
 2479SOL    HW2 7450   2.129   3.263   4.098
 2480SOL     OW 7451   1.937   2.207   3.757
 2480SOL    HW1 7452   1.845   2.179   3.728
 2480SOL    HW2 7453   1.968   2.284   3.701
 2481SOL     OW 7454   1.934   2.028   4.042
 2481SOL    HW1 7455   1.917   2.111   3.988
 2481SOL    HW2 7456   2.024   1.991   4.020
 2482SOL     OW 7457   3.045   3.197   3.843
 2482SOL    HW1 7458   2.946   3.186   3.845
 2482SOL    HW2 7459   3.079   3.212   3.936
 2483SOL     OW 7460   3.536   2.745   4.978
 2483SOL    HW1 7461   3.509   2.656   4.941
 2483SOL    HW2 7462   3.537   2.813   4.905
 2484SOL     OW 7463   3.087   2.187   4.173
 2484SOL    HW1 7464   3.152   2.113   4.162
 2484SOL    HW2 7465   3.107   2.237   4.257
 2485SOL     OW 7466   2.456   2.607   4.376
 2485SOL    HW1 7467   2.506   2.692   4.357
 2485SOL    HW2 7468   2.368   2.609   4.328
 2486SOL     OW 7469   2.721   3.236   3.740
 2486SOL    HW1 7470   2.675   3.251   3.828
 2486SOL    HW2 7471   2.765   3.321   3.710
 2487SOL     OW 7472   2.523   3.652   4.677
 2487SOL    HW1 7473   2.477   3.740   4.664
 2487SOL    HW2 7474   2.622   3.664   4.670
 2488SOL     OW 7475   2.721   2.818   4.585
 2488SOL    HW1 7476   2.775   2.749   4.633
 2488SOL    HW2 7477   2.689   2.887   4.651
 2489SOL     OW 7478   2.945   2.846   3.811
 2489SOL    HW1 7479   2.922   2.899   3.729
 2489SOL    HW2 7480   3.026   2.790   3.792
 2490SOL     OW 7481   3.723   3.431   4.575
 2490SOL    HW1 7482   3.652   3.419   4.505
 2490SOL    HW2 7483   3.724   3.352   4.635
 2491SOL     OW 7484   1.941   3.102   4.377
 2491SOL    HW1 7485   1.940   3.055   4.465
 2491SOL    HW2 7486   2.023   3.074   4.326
 2492SOL     OW 7487   3.686   2.054   4.951
 2492SOL    HW1 7488   3.682   1.964   4.995
 2492SOL    HW2 7489   3.689   2.043   4.852
 2493SOL     OW 7490   2.290   2.286   4.244
 2493SOL    HW1 7491   2.320   2.214   4.182
 2493SOL    HW2 7492   2.251   2.246   4.327
 2494SOL     OW 7493   2.674   3.448   4.411
 2494SOL    HW1 7494   2.706   3.458   4.317
 2494SOL    HW2 7495   2.595   3.386   4.413
 2495SOL     OW 7496   2.632   3.192   4.025
 2495SOL    HW1 7497   2.586   3.105   4.042
 2495SOL    HW2 7498   2.723   3.189   4.066
 2496SOL     OW 7499   3.214   1.914   3.892
 2496SOL    HW1 7500   3.249   1.873   3.808
 2496SOL    HW2 7501   3.124   1.876   3.912
 2497SOL     OW 7502   3.162   2.315   4.415
 2497SOL    HW1 7503   3.103   2.395   4.419
 2497SOL    HW2 7504   3.177   2.280   4.508
 2498SOL     OW 7505   3.455   2.083   4.606
 2498SOL    HW1 7506   3.371   2.082   4.660
 2498SOL    HW2 7507   3.457   2.166   4.550
 2499SOL     OW 7508   1.901   2.939   4.024
 2499SOL    HW1 7509   2.000   2.928   4.015
 2499SOL    HW2 7510   1.861   2.853   4.056
 2500SOL     OW 7511   2.737   3.508   4.061
 2500SOL    HW1 7512   2.660   3.473   4.007
 2500SOL    HW2 7513   2.705   3.579   4.123
 2501SOL     OW 7514   2.092   4.352   0.113
 2501SOL    HW1 7515   1.999   4.350   0.150
 2501SOL    HW2 7516   2.093   4.313   0.021
 2502SOL     OW 7517   2.087   3.999   0.996
 2502SOL    HW1 7518   2.122   3.982   1.088
 2502SOL    HW2 7519   1.999   3.954   0.984
 2503SOL     OW 7520   1.881   4.092   0.647
 2503SOL    HW1 7521   1.799   4.135   0.686
 2503SOL    HW2 7522   1.853   4.019   0.584
 2504SOL     OW 7523   2.997   4.427   0.717
 2504SOL    HW1 7524   3.054   4.505   0.692
 2504SOL    HW2 7525   2.937   4.453   0.793
 2505SOL     OW 7526   3.617   4.331   0.231
 2505SOL    HW1 7527   3.605   4.318   0.132
 2505SOL    HW2 7528   3.587   4.250   0.280
 2506SOL     OW 7529   2.630   4.868   1.023
 2506SOL    HW1 7530   2.552   4.885   1.083
 2506SOL    HW2 7531   2.664   4.955   0.987
 2507SOL     OW 7532   2.712   4.522   1.823
 2507SOL    HW1 7533   2.708   4.598   1.888
 2507SOL    HW2 7534   2.734   4.558   1.732
 2508SOL     OW 7535   2.547   4.736   0.665
 2508SOL    HW1 7536   2.616   4.720   0.735
 2508SOL    HW2 7537   2.474   4.793   0.703
 2509SOL     OW 7538   2.300   4.116   1.499
 2509SOL    HW1 7539   2.382   4.060   1.508
 2509SOL    HW2 7540   2.219   4.058   1.503
 2510SOL     OW 7541   3.465   4.171   0.737
 2510SOL    HW1 7542   3.391   4.217   0.687
 2510SOL    HW2 7543   3.516   4.239   0.790
 2511SOL     OW 7544   2.102   4.815   0.886
 2511SOL    HW1 7545   2.116   4.731   0.938
 2511SOL    HW2 7546   2.047   4.879   0.941
 2512SOL     OW 7547   2.468   4.688   0.123
 2512SOL    HW1 7548   2.475   4.772   0.069
 2512SOL    HW2 7549   2.514   4.701   0.211
 2513SOL     OW 7550   3.456   3.838   1.480
 2513SOL    HW1 7551   3.438   3.905   1.408
 2513SOL    HW2 7552   3.453   3.884   1.569
 2514SOL     OW 7553   1.984   4.367   0.563
 2514SOL    HW1 7554   1.939   4.279   0.580
 2514SOL    HW2 7555   1.983   4.421   0.647
 2515SOL     OW 7556   3.551   4.646   0.612
 2515SOL    HW1 7557   3.646   4.617   0.620
 2515SOL    HW2 7558   3.543   4.711   0.537
 2516SOL     OW 7559   1.975   4.461   1.597
 2516SOL    HW1 7560   2.063   4.448   1.642
 2516SOL    HW2 7561   1.962   4.558   1.575
 2517SOL     OW 7562   2.671   3.728   0.502
 2517SOL    HW1 7563   2.711   3.819   0.493
 2517SOL    HW2 7564   2.571   3.736   0.508
 2518SOL     OW 7565   2.059   4.700   1.264
 2518SOL    HW1 7566   2.148   4.655   1.250
 2518SOL    HW2 7567   1.986   4.635   1.245
 2519SOL     OW 7568   3.387   4.723   0.190
 2519SOL    HW1 7569   3.324   4.647   0.203
 2519SOL    HW2 7570   3.435   4.741   0.276
 2520SOL     OW 7571   2.179   3.975   1.801
 2520SOL    HW1 7572   2.250   4.046   1.807
 2520SOL    HW2 7573   2.091   4.014   1.829
 2521SOL     OW 7574   2.460   4.453   0.270
 2521SOL    HW1 7575   2.484   4.522   0.202
 2521SOL    HW2 7576   2.382   4.486   0.324
 2522SOL     OW 7577   3.143   4.069   0.944
 2522SOL    HW1 7578   3.057   4.019   0.931
 2522SOL    HW2 7579   3.205   4.015   1.000
 2523SOL     OW 7580   2.669   4.329   1.465
 2523SOL    HW1 7581   2.622   4.326   1.554
 2523SOL    HW2 7582   2.618   4.274   1.399
 2524SOL     OW 7583   3.256   4.193   1.674
 2524SOL    HW1 7584   3.236   4.236   1.762
 2524SOL    HW2 7585   3.334   4.131   1.683
 2525SOL     OW 7586   2.835   4.614   1.572
 2525SOL    HW1 7587   2.881   4.530   1.543
 2525SOL    HW2 7588   2.779   4.648   1.497
 2526SOL     OW 7589   2.853   4.134   1.242
 2526SOL    HW1 7590   2.776   4.168   1.296
 2526SOL    HW2 7591   2.819   4.083   1.163
 2527SOL     OW 7592   2.903   4.425   0.429
 2527SOL    HW1 7593   2.929   4.421   0.525
 2527SOL    HW2 7594   2.818   4.374   0.415
 2528SOL     OW 7595   1.938   4.535   0.789
 2528SOL    HW1 7596   2.037   4.523   0.798
 2528SOL    HW2 7597   1.914   4.630   0.810
 2529SOL     OW 7598   2.727   4.072   0.195
 2529SOL    HW1 7599   2.786   4.135   0.146
 2529SOL    HW2 7600   2.746   3.978   0.166
 2530SOL     OW 7601   3.581   4.309   1.831
 2530SOL    HW1 7602   3.555   4.398   1.795
 2530SOL    HW2 7603   3.579   4.241   1.758
 2531SOL     OW 7604   2.412   3.920   0.885
 2531SOL    HW1 7605   2.407   3.915   0.985
 2531SOL    HW2 7606   2.414   4.016   0.856
 2532SOL     OW 7607   3.320   4.459   0.728
 2532SOL    HW1 7608   3.315   4.394   0.803
 2532SOL    HW2 7609   3.400   4.518   0.741
 2533SOL     OW 7610   2.064   4.009   1.498
 2533SOL    HW1 7611   1.984   4.069   1.485
 2533SOL    HW2 7612   2.054   3.960   1.584
 2534SOL     OW 7613   3.262   3.831   0.426
 2534SOL    HW1 7614   3.238   3.794   0.336
 2534SOL    HW2 7615   3.361   3.847   0.430
 2535SOL     OW 7616   2.244   4.424   0.480
 2535SOL    HW1 7617   2.289   4.334   0.477
 2535SOL    HW2 7618   2.150   4.413   0.513
 2536SOL     OW 7619   3.409   3.946   1.729
 2536SOL    HW1 7620   3.404   3.983   1.821
 2536SOL    HW2 7621   3.337   3.877   1.717
 2537SOL     OW 7622   2.476   3.846   0.117
 2537SOL    HW1 7623   2.574   3.824   0.124
 2537SOL    HW2 7624   2.445   3.829   0.024
 2538SOL     OW 7625   2.643   3.988   1.749
 2538SOL    HW1 7626   2.710   3.927   1.792
 2538SOL    HW2 7627   2.570   4.007   1.814
 2539SOL     OW 7628   3.213   4.314   1.433
 2539SOL    HW1 7629   3.241   4.271   1.518
 2539SOL    HW2 7630   3.238   4.410   1.434
 2540SOL     OW 7631   2.784   4.227   0.899
 2540SOL    HW1 7632   2.759   4.218   0.803
 2540SOL    HW2 7633   2.832   4.145   0.930
 2541SOL     OW 7634   2.401   3.788   0.512
 2541SOL    HW1 7635   2.320   3.789   0.570
 2541SOL    HW2 7636   2.404   3.871   0.457
 2542SOL     OW 7637   2.797   3.960   0.480
 2542SOL    HW1 7638   2.749   4.001   0.402
 2542SOL    HW2 7639   2.896   3.958   0.461
 2543SOL     OW 7640   2.938   4.407   1.464
 2543SOL    HW1 7641   2.858   4.346   1.467
 2543SOL    HW2 7642   3.019   4.354   1.440
 2544SOL     OW 7643   2.894   4.273   0.016
 2544SOL    HW1 7644   2.853   4.355  -0.023
 2544SOL    HW2 7645   2.958   4.299   0.089
 2545SOL     OW 7646   1.940   4.280   1.386
 2545SOL    HW1 7647   2.032   4.279   1.345
 2545SOL    HW2 7648   1.934   4.354   1.453
 2546SOL     OW 7649   2.423   3.946   1.147
 2546SOL    HW1 7650   2.461   3.862   1.184
 2546SOL    HW2 7651   2.335   3.965   1.191
 2547SOL     OW 7652   2.728   4.178   0.642
 2547SOL    HW1 7653   2.696   4.250   0.580
 2547SOL    HW2 7654   2.752   4.097   0.589
 2548SOL     OW 7655   2.879   3.763   0.753
 2548SOL    HW1 7656   2.807   3.768   0.684
 2548SOL    HW2 7657   2.855   3.694   0.822
 2549SOL     OW 7658   3.291   4.897   0.867
 2549SOL    HW1 7659   3.236   4.813   0.860
 2549SOL    HW2 7660   3.317   4.926   0.775
 2550SOL     OW 7661   3.328   4.314   0.992
 2550SOL    HW1 7662   3.298   4.219   0.999
 2550SOL    HW2 7663   3.401   4.330   1.058
 2551SOL     OW 7664   3.719   4.557   0.377
 2551SOL    HW1 7665   3.761   4.493   0.441
 2551SOL    HW2 7666   3.681   4.506   0.299
 2552SOL     OW 7667   3.252   4.299   0.078
 2552SOL    HW1 7668   3.198   4.278   0.159
 2552SOL    HW2 7669   3.343   4.258   0.087
 2553SOL     OW 7670   2.389   3.980   0.328
 2553SOL    HW1 7671   2.416   3.921   0.253
 2553SOL    HW2 7672   2.389   4.075   0.297
 2554SOL     OW 7673   3.500   4.823   1.079
 2554SOL    HW1 7674   3.505   4.904   1.138
 2554SOL    HW2 7675   3.414   4.825   1.028
 2555SOL     OW 7676   2.777   3.813   1.402
 2555SOL    HW1 7677   2.802   3.793   1.307
 2555SOL    HW2 7678   2.849   3.869   1.444
 2556SOL     OW 7679   2.272   4.537   1.251
 2556SOL    HW1 7680   2.358   4.549   1.301
 2556SOL    HW2 7681   2.230   4.450   1.278
 2557SOL     OW 7682   3.136   4.110   1.262
 2557SOL    HW1 7683   3.157   4.184   1.326
 2557SOL    HW2 7684   3.047   4.127   1.219
 2558SOL     OW 7685   2.428   4.261   0.865
 2558SOL    HW1 7686   2.440   4.327   0.791
 2558SOL    HW2 7687   2.474   4.295   0.948
 2559SOL     OW 7688   3.444   4.363   0.472
 2559SOL    HW1 7689   3.413   4.424   0.545
 2559SOL    HW2 7690   3.494   4.415   0.403
 2560SOL     OW 7691   2.264   4.475   1.598
 2560SOL    HW1 7692   2.332   4.530   1.551
 2560SOL    HW2 7693   2.304   4.387   1.625
 2561SOL     OW 7694   3.449   4.503   1.670
 2561SOL    HW1 7695   3.357   4.541   1.665
 2561SOL    HW2 7696   3.509   4.550   1.605
 2562SOL     OW 7697   2.875   3.829   1.770
 2562SOL    HW1 7698   2.881   3.914   1.718
 2562SOL    HW2 7699   2.907   3.753   1.713
 2563SOL     OW 7700   2.366   3.774   1.740
 2563SOL    HW1 7701   2.324   3.717   1.670
 2563SOL    HW2 7702   2.300   3.843   1.772
 2564SOL     OW 7703   2.435   4.594   1.029
 2564SOL    HW1 7704   2.479   4.683   1.020
 2564SOL    HW2 7705   2.372   4.594   1.106
 2565SOL     OW 7706   3.222   4.586   1.045
 2565SOL    HW1 7707   3.147   4.586   0.979
 2565SOL    HW2 7708   3.259   4.494   1.054
 2566SOL     OW 7709   3.071   4.249   0.275
 2566SOL    HW1 7710   3.084   4.165   0.329
 2566SOL    HW2 7711   3.042   4.323   0.335
 2567SOL     OW 7712   2.169   3.937   1.231
 2567SOL    HW1 7713   2.146   3.974   1.321
 2567SOL    HW2 7714   2.139   3.842   1.225
 2568SOL     OW 7715   2.594   4.358   1.064
 2568SOL    HW1 7716   2.653   4.332   0.988
 2568SOL    HW2 7717   2.566   4.454   1.053
 2569SOL     OW 7718   3.590   4.659   1.854
 2569SOL    HW1 7719   3.544   4.652   1.765
 2569SOL    HW2 7720   3.528   4.703   1.920
 2570SOL     OW 7721   2.169   3.787   0.618
 2570SOL    HW1 7722   2.158   3.881   0.651
 2570SOL    HW2 7723   2.164   3.724   0.695
 2571SOL     OW 7724   3.484   4.091   0.374
 2571SOL    HW1 7725   3.486   4.015   0.438
 2571SOL    HW2 7726   3.436   4.168   0.414
 2572SOL     OW 7727   2.885   4.490   0.966
 2572SOL    HW1 7728   2.900   4.511   1.062
 2572SOL    HW2 7729   2.855   4.395   0.957
 2573SOL     OW 7730   2.212   4.622   1.804
 2573SOL    HW1 7731   2.288   4.666   1.852
 2573SOL    HW2 7732   2.247   4.575   1.722
 2574SOL     OW 7733   3.402   3.998   0.125
 2574SOL    HW1 7734   3.341   3.923   0.148
 2574SOL    HW2 7735   3.424   4.050   0.208
 2575SOL     OW 7736   3.165   4.562   0.042
 2575SOL    HW1 7737   3.199   4.469   0.057
 2575SOL    HW2 7738   3.183   4.589  -0.053
 2576SOL     OW 7739   2.181   4.534   0.949
 2576SOL    HW1 7740   2.274   4.570   0.954
 2576SOL    HW2 7741   2.175   4.449   1.001
 2577SOL     OW 7742   2.201   4.233   1.006
 2577SOL    HW1 7743   2.149   4.150   0.989
 2577SOL    HW2 7744   2.278   4.238   0.942
 2578SOL     OW 7745   3.000   4.104   1.678
 2578SOL    HW1 7746   2.955   4.167   1.742
 2578SOL    HW2 7747   3.093   4.135   1.661
 2579SOL     OW 7748   3.022   3.931   1.477
 2579SOL    HW1 7749   3.022   3.995   1.554
 2579SOL    HW2 7750   3.050   3.979   1.394
 2580SOL     OW 7751   2.864   4.520   1.238
 2580SOL    HW1 7752   2.905   4.488   1.324
 2580SOL    HW2 7753   2.768   4.493   1.235
 2581SOL     OW 7754   1.902   4.268   1.114
 2581SOL    HW1 7755   1.987   4.235   1.073
 2581SOL    HW2 7756   1.915   4.283   1.212
 2582SOL     OW 7757   2.051   4.244   1.722
 2582SOL    HW1 7758   2.110   4.204   1.652
 2582SOL    HW2 7759   1.993   4.315   1.681
 2583SOL     OW 7760   3.231   4.674   1.660
 2583SOL    HW1 7761   3.270   4.763   1.680
 2583SOL    HW2 7762   3.241   4.654   1.563
 2584SOL     OW 7763   2.677   4.296   0.325
 2584SOL    HW1 7764   2.684   4.207   0.279
 2584SOL    HW2 7765   2.583   4.330   0.317
 2585SOL     OW 7766   3.519   4.328   1.206
 2585SOL    HW1 7767   3.481   4.259   1.268
 2585SOL    HW2 7768   3.601   4.292   1.162
 2586SOL     OW 7769   2.533   4.188   1.269
 2586SOL    HW1 7770   2.499   4.099   1.239
 2586SOL    HW2 7771   2.559   4.242   1.189
 2587SOL     OW 7772   2.335   4.224   0.191
 2587SOL    HW1 7773   2.396   4.304   0.195
 2587SOL    HW2 7774   2.240   4.255   0.198
 2588SOL     OW 7775   2.021   4.861   1.466
 2588SOL    HW1 7776   2.043   4.800   1.542
 2588SOL    HW2 7777   2.031   4.812   1.380
 2589SOL     OW 7778   3.209   4.783   1.234
 2589SOL    HW1 7779   3.233   4.720   1.160
 2589SOL    HW2 7780   3.119   4.823   1.216
 2590SOL     OW 7781   3.164   4.579   0.309
 2590SOL    HW1 7782   3.078   4.548   0.351
 2590SOL    HW2 7783   3.160   4.565   0.210
 2591SOL     OW 7784   2.765   3.810   0.133
 2591SOL    HW1 7785   2.816   3.811   0.047
 2591SOL    HW2 7786   2.821   3.768   0.204
 2592SOL     OW 7787   3.588   3.859   0.523
 2592SOL    HW1 7788   3.661   3.842   0.456
 2592SOL    HW2 7789   3.557   3.772   0.561
 2593SOL     OW 7790   3.142   4.651   0.672
 2593SOL    HW1 7791   3.202   4.570   0.674
 2593SOL    HW2 7792   3.182   4.720   0.612
 2594SOL     OW 7793   3.703   3.899   0.963
 2594SOL    HW1 7794   3.742   3.814   0.927
 2594SOL    HW2 7795   3.605   3.901   0.944
 2595SOL     OW 7796   2.125   4.050   0.720
 2595SOL    HW1 7797   2.046   4.101   0.686
 2595SOL    HW2 7798   2.116   4.035   0.818
 2596SOL     OW 7799   2.778   4.634   0.291
 2596SOL    HW1 7800   2.841   4.672   0.223
 2596SOL    HW2 7801   2.818   4.551   0.330
 2597SOL     OW 7802   2.876   3.960   0.971
 2597SOL    HW1 7803   2.868   3.924   0.878
 2597SOL    HW2 7804   2.874   3.884   1.036
 2598SOL     OW 7805   3.571   4.109   1.381
 2598SOL    HW1 7806   3.644   4.178   1.385
 2598SOL    HW2 7807   3.599   4.034   1.322
 2599SOL     OW 7808   1.967   4.737   1.726
 2599SOL    HW1 7809   1.890   4.704   1.780
 2599SOL    HW2 7810   2.052   4.707   1.768
 2600SOL     OW 7811   2.534   3.927   1.489
 2600SOL    HW1 7812   2.624   3.911   1.449
 2600SOL    HW2 7813   2.542   3.932   1.588
 2601SOL     OW 7814   1.937   4.069   0.033
 2601SOL    HW1 7815   1.845   4.041   0.004
 2601SOL    HW2 7816   1.968   4.146  -0.023
 2602SOL     OW 7817   3.302   4.580   1.398
 2602SOL    HW1 7818   3.245   4.632   1.335
 2602SOL    HW2 7819   3.398   4.592   1.374
 2603SOL     OW 7820   1.934   3.890   0.318
 2603SOL    HW1 7821   1.917   3.973   0.264
 2603SOL    HW2 7822   2.024   3.853   0.296
 2604SOL     OW 7823   3.045   5.059   0.119
 2604SOL    HW1 7824   2.946   5.048   0.121
 2604SOL    HW2 7825   3.079   5.074   0.212
 2605SOL     OW 7826   2.475   4.566   1.431
 2605SOL    HW1 7827   2.531   4.647   1.414
 2605SOL    HW2 7828   2.534   4.486   1.434
 2606SOL     OW 7829   2.578   4.289   1.708
 2606SOL    HW1 7830   2.597   4.354   1.782
 2606SOL    HW2 7831   2.638   4.209   1.717
 2607SOL     OW 7832   3.536   4.607   1.254
 2607SOL    HW1 7833   3.509   4.518   1.217
 2607SOL    HW2 7834   3.537   4.675   1.181
 2608SOL     OW 7835   3.087   4.049   0.449
 2608SOL    HW1 7836   3.152   3.975   0.438
 2608SOL    HW2 7837   3.107   4.099   0.533
 2609SOL     OW 7838   2.456   4.469   0.652
 2609SOL    HW1 7839   2.506   4.554   0.633
 2609SOL    HW2 7840   2.368   4.471   0.604
 2610SOL     OW 7841   3.639   4.066   1.642
 2610SOL    HW1 7842   3.622   4.097   1.548
 2610SOL    HW2 7843   3.555   4.029   1.680
 2611SOL     OW 7844   3.592   4.658   1.517
 2611SOL    HW1 7845   3.630   4.749   1.532
 2611SOL    HW2 7846   3.584   4.641   1.418
 2612SOL     OW 7847   2.721   4.680   0.861
 2612SOL    HW1 7848   2.775   4.611   0.909
 2612SOL    HW2 7849   2.689   4.749   0.927
 2613SOL     OW 7850   2.945   4.708   0.087
 2613SOL    HW1 7851   2.922   4.761   0.005
 2613SOL    HW2 7852   3.026   4.652   0.068
 2614SOL     OW 7853   1.941   4.964   0.653
 2614SOL    HW1 7854   1.940   4.917   0.741
 2614SOL    HW2 7855   2.023   4.936   0.602
 2615SOL     OW 7856   3.686   3.916   1.227
 2615SOL    HW1 7857   3.682   3.826   1.271
 2615SOL    HW2 7858   3.689   3.905   1.128
 2616SOL     OW 7859   2.290   4.148   0.520
 2616SOL    HW1 7860   2.320   4.076   0.458
 2616SOL    HW2 7861   2.251   4.108   0.603
 2617SOL     OW 7862   2.179   4.271   1.280
 2617SOL    HW1 7863   2.217   4.212   1.352
 2617SOL    HW2 7864   2.219   4.245   1.192
 2618SOL     OW 7865   3.286   3.938   1.112
 2618SOL    HW1 7866   3.338   3.873   1.167
 2618SOL    HW2 7867   3.237   4.001   1.173
 2619SOL     OW 7868   2.863   3.758   1.154
 2619SOL    HW1 7869   2.800   3.686   1.123
 2619SOL    HW2 7870   2.956   3.722   1.154
 2620SOL     OW 7871   3.214   3.776   0.168
 2620SOL    HW1 7872   3.249   3.735   0.084
 2620SOL    HW2 7873   3.124   3.738   0.188
 2621SOL     OW 7874   3.162   4.177   0.691
 2621SOL    HW1 7875   3.103   4.257   0.695
 2621SOL    HW2 7876   3.177   4.142   0.784
 2622SOL     OW 7877   3.455   3.945   0.882
 2622SOL    HW1 7878   3.371   3.944   0.936
 2622SOL    HW2 7879   3.457   4.028   0.826
 2623SOL     OW 7880   2.092   4.352   1.975
 2623SOL    HW1 7881   1.999   4.350   2.012
 2623SOL    HW2 7882   2.093   4.313   1.883
 2624SOL     OW 7883   2.087   3.999   2.858
 2624SOL    HW1 7884   2.122   3.982   2.950
 2624SOL    HW2 7885   1.999   3.954   2.846
 2625SOL     OW 7886   1.881   4.092   2.509
 2625SOL    HW1 7887   1.799   4.135   2.548
 2625SOL    HW2 7888   1.853   4.019   2.446
 2626SOL     OW 7889   2.997   4.427   2.579
 2626SOL    HW1 7890   3.054   4.505   2.554
 2626SOL    HW2 7891   2.937   4.453   2.655
 2627SOL     OW 7892   3.617   4.331   2.093
 2627SOL    HW1 7893   3.605   4.318   1.994
 2627SOL    HW2 7894   3.587   4.250   2.142
 2628SOL     OW 7895   2.630   4.868   2.885
 2628SOL    HW1 7896   2.552   4.885   2.945
 2628SOL    HW2 7897   2.664   4.955   2.849
 2629SOL     OW 7898   2.712   4.522   3.685
 2629SOL    HW1 7899   2.708   4.598   3.750
 2629SOL    HW2 7900   2.734   4.558   3.594
 2630SOL     OW 7901   2.547   4.736   2.527
 2630SOL    HW1 7902   2.616   4.720   2.597
 2630SOL    HW2 7903   2.474   4.793   2.565
 2631SOL     OW 7904   2.300   4.116   3.361
 2631SOL    HW1 7905   2.382   4.060   3.370
 2631SOL    HW2 7906   2.219   4.058   3.365
 2632SOL     OW 7907   3.465   4.171   2.599
 2632SOL    HW1 7908   3.391   4.217   2.549
 2632SOL    HW2 7909   3.516   4.239   2.652
 2633SOL     OW 7910   2.102   4.815   2.748
 2633SOL    HW1 7911   2.116   4.731   2.800
 2633SOL    HW2 7912   2.047   4.879   2.803
 2634SOL     OW 7913   2.468   4.688   1.985
 2634SOL    HW1 7914   2.475   4.772   1.931
 2634SOL    HW2 7915   2.514   4.701   2.073
 2635SOL     OW 7916   3.456   3.838   3.342
 2635SOL    HW1 7917   3.438   3.905   3.270
 2635SOL    HW2 7918   3.453   3.884   3.431
 2636SOL     OW 7919   1.984   4.367   2.425
 2636SOL    HW1 7920   1.939   4.279   2.442
 2636SOL    HW2 7921   1.983   4.421   2.509
 2637SOL     OW 7922   3.551   4.646   2.474
 2637SOL    HW1 7923   3.646   4.617   2.482
 2637SOL    HW2 7924   3.543   4.711   2.399
 2638SOL     OW 7925   1.975   4.461   3.459
 2638SOL    HW1 7926   2.063   4.448   3.504
 2638SOL    HW2 7927   1.962   4.558   3.437
 2639SOL     OW 7928   2.671   3.728   2.364
 2639SOL    HW1 7929   2.711   3.819   2.355
 2639SOL    HW2 7930   2.571   3.736   2.370
 2640SOL     OW 7931   2.059   4.700   3.126
 2640SOL    HW1 7932   2.148   4.655   3.112
 2640SOL    HW2 7933   1.986   4.635   3.107
 2641SOL     OW 7934   3.387   4.723   2.052
 2641SOL    HW1 7935   3.324   4.647   2.065
 2641SOL    HW2 7936   3.435   4.741   2.138
 2642SOL     OW 7937   2.179   3.975   3.663
 2642SOL    HW1 7938   2.250   4.046   3.669
 2642SOL    HW2 7939   2.091   4.014   3.691
 2643SOL     OW 7940   2.460   4.453   2.132
 2643SOL    HW1 7941   2.484   4.522   2.064
 2643SOL    HW2 7942   2.382   4.486   2.186
 2644SOL     OW 7943   3.143   4.069   2.806
 2644SOL    HW1 7944   3.057   4.019   2.793
 2644SOL    HW2 7945   3.205   4.015   2.862
 2645SOL     OW 7946   2.669   4.329   3.327
 2645SOL    HW1 7947   2.622   4.326   3.416
 2645SOL    HW2 7948   2.618   4.274   3.261
 2646SOL     OW 7949   3.256   4.193   3.536
 2646SOL    HW1 7950   3.236   4.236   3.624
 2646SOL    HW2 7951   3.334   4.131   3.545
 2647SOL     OW 7952   2.835   4.614   3.434
 2647SOL    HW1 7953   2.881   4.530   3.405
 2647SOL    HW2 7954   2.779   4.648   3.359
 2648SOL     OW 7955   2.853   4.134   3.104
 2648SOL    HW1 7956   2.776   4.168   3.158
 2648SOL    HW2 7957   2.819   4.083   3.025
 2649SOL     OW 7958   2.903   4.425   2.291
 2649SOL    HW1 7959   2.929   4.421   2.387
 2649SOL    HW2 7960   2.818   4.374   2.277
 2650SOL     OW 7961   1.938   4.535   2.651
 2650SOL    HW1 7962   2.037   4.523   2.660
 2650SOL    HW2 7963   1.914   4.630   2.672
 2651SOL     OW 7964   2.727   4.072   2.057
 2651SOL    HW1 7965   2.786   4.135   2.008
 2651SOL    HW2 7966   2.746   3.978   2.028
 2652SOL     OW 7967   3.581   4.309   3.693
 2652SOL    HW1 7968   3.555   4.398   3.657
 2652SOL    HW2 7969   3.579   4.241   3.620
 2653SOL     OW 7970   2.412   3.920   2.747
 2653SOL    HW1 7971   2.407   3.915   2.847
 2653SOL    HW2 7972   2.414   4.016   2.718
 2654SOL     OW 7973   3.320   4.459   2.590
 2654SOL    HW1 7974   3.315   4.394   2.665
 2654SOL    HW2 7975   3.400   4.518   2.603
 2655SOL     OW 7976   2.064   4.009   3.360
 2655SOL    HW1 7977   1.984   4.069   3.347
 2655SOL    HW2 7978   2.054   3.960   3.446
 2656SOL     OW 7979   3.262   3.831   2.288
 2656SOL    HW1 7980   3.238   3.794   2.198
 2656SOL    HW2 7981   3.361   3.847   2.292
 2657SOL     OW 7982   2.244   4.424   2.342
 2657SOL    HW1 7983   2.289   4.334   2.339
 2657SOL    HW2 7984   2.150   4.413   2.375
 2658SOL     OW 7985   3.409   3.946   3.591
 2658SOL    HW1 7986   3.404   3.983   3.683
 2658SOL    HW2 7987   3.337   3.877   3.579
 2659SOL     OW 7988   2.476   3.846   1.979
 2659SOL    HW1 7989   2.574   3.824   1.986
 2659SOL    HW2 7990   2.445   3.829   1.886
 2660SOL     OW 7991   2.643   3.988   3.611
 2660SOL    HW1 7992   2.710   3.927   3.654
 2660SOL    HW2 7993   2.570   4.007   3.676
 2661SOL     OW 7994   3.213   4.314   3.295
 2661SOL    HW1 7995   3.241   4.271   3.380
 2661SOL    HW2 7996   3.238   4.410   3.296
 2662SOL     OW 7997   2.784   4.227   2.761
 2662SOL    HW1 7998   2.759   4.218   2.665
 2662SOL    HW2 7999   2.832   4.145   2.792
 2663SOL     OW 8000   2.401   3.788   2.374
 2663SOL    HW1 8001   2.320   3.789   2.432
 2663SOL    HW2 8002   2.404   3.871   2.319
 2664SOL     OW 8003   2.159   3.759   2.033
 2664SOL    HW1 8004   2.208   3.843   2.012
 2664SOL    HW2 8005   2.221   3.694   2.078
 2665SOL     OW 8006   2.797   3.960   2.342
 2665SOL    HW1 8007   2.749   4.001   2.264
 2665SOL    HW2 8008   2.896   3.958   2.323
 2666SOL     OW 8009   2.938   4.407   3.326
 2666SOL    HW1 8010   2.858   4.346   3.329
 2666SOL    HW2 8011   3.019   4.354   3.302
 2667SOL     OW 8012   2.894   4.273   1.878
 2667SOL    HW1 8013   2.853   4.355   1.839
 2667SOL    HW2 8014   2.958   4.299   1.951
 2668SOL     OW 8015   1.940   4.280   3.248
 2668SOL    HW1 8016   2.032   4.279   3.207
 2668SOL    HW2 8017   1.934   4.354   3.315
 2669SOL     OW 8018   2.423   3.946   3.009
 2669SOL    HW1 8019   2.461   3.862   3.046
 2669SOL    HW2 8020   2.335   3.965   3.053
 2670SOL     OW 8021   2.728   4.178   2.504
 2670SOL    HW1 8022   2.696   4.250   2.442
 2670SOL    HW2 8023   2.752   4.097   2.451
 2671SOL     OW 8024   2.879   3.763   2.615
 2671SOL    HW1 8025   2.807   3.768   2.546
 2671SOL    HW2 8026   2.855   3.694   2.684
 2672SOL     OW 8027   3.291   4.897   2.729
 2672SOL    HW1 8028   3.236   4.813   2.722
 2672SOL    HW2 8029   3.317   4.926   2.637
 2673SOL     OW 8030   3.328   4.314   2.854
 2673SOL    HW1 8031   3.298   4.219   2.861
 2673SOL    HW2 8032   3.401   4.330   2.920
 2674SOL     OW 8033   3.719   4.557   2.239
 2674SOL    HW1 8034   3.761   4.493   2.303
 2674SOL    HW2 8035   3.681   4.506   2.161
 2675SOL     OW 8036   3.252   4.299   1.940
 2675SOL    HW1 8037   3.198   4.278   2.021
 2675SOL    HW2 8038   3.343   4.258   1.949
 2676SOL     OW 8039   2.389   3.980   2.190
 2676SOL    HW1 8040   2.416   3.921   2.115
 2676SOL    HW2 8041   2.389   4.075   2.159
 2677SOL     OW 8042   3.500   4.823   2.941
 2677SOL    HW1 8043   3.505   4.904   3.000
 2677SOL    HW2 8044   3.414   4.825   2.890
 2678SOL     OW 8045   2.777   3.813   3.264
 2678SOL    HW1 8046   2.802   3.793   3.169
 2678SOL    HW2 8047   2.849   3.869   3.306
 2679SOL     OW 8048   2.272   4.537   3.113
 2679SOL    HW1 8049   2.358   4.549   3.163
 2679SOL    HW2 8050   2.230   4.450   3.140
 2680SOL     OW 8051   3.136   4.110   3.124
 2680SOL    HW1 8052   3.157   4.184   3.188
 2680SOL    HW2 8053   3.047   4.127   3.081
 2681SOL     OW 8054   2.428   4.261   2.727
 2681SOL    HW1 8055   2.440   4.327   2.653
 2681SOL    HW2 8056   2.474   4.295   2.810
 2682SOL     OW 8057   3.444   4.363   2.334
 2682SOL    HW1 8058   3.413   4.424   2.407
 2682SOL    HW2 8059   3.494   4.415   2.265
 2683SOL     OW 8060   2.264   4.475   3.460
 2683SOL    HW1 8061   2.332   4.530   3.413
 2683SOL    HW2 8062   2.304   4.387   3.487
 2684SOL     OW 8063   3.449   4.503   3.532
 2684SOL    HW1 8064   3.357   4.541   3.527
 2684SOL    HW2 8065   3.509   4.550   3.467
 2685SOL     OW 8066   2.875   3.829   3.632
 2685SOL    HW1 8067   2.881   3.914   3.580
 2685SOL    HW2 8068   2.907   3.753   3.575
 2686SOL     OW 8069   2.366   3.774   3.602
 2686SOL    HW1 8070   2.324   3.717   3.532
 2686SOL    HW2 8071   2.300   3.843   3.634
 2687SOL     OW 8072   2.435   4.594   2.891
 2687SOL    HW1 8073   2.479   4.683   2.882
 2687SOL    HW2 8074   2.372   4.594   2.968
 2688SOL     OW 8075   3.222   4.586   2.907
 2688SOL    HW1 8076   3.147   4.586   2.841
 2688SOL    HW2 8077   3.259   4.494   2.916
 2689SOL     OW 8078   3.071   4.249   2.137
 2689SOL    HW1 8079   3.084   4.165   2.191
 2689SOL    HW2 8080   3.042   4.323   2.197
 2690SOL     OW 8081   2.169   3.937   3.093
 2690SOL    HW1 8082   2.146   3.974   3.183
 2690SOL    HW2 8083   2.139   3.842   3.087
 2691SOL     OW 8084   2.594   4.358   2.926
 2691SOL    HW1 8085   2.653   4.332   2.850
 2691SOL    HW2 8086   2.566   4.454   2.915
 2692SOL     OW 8087   3.590   4.659   3.716
 2692SOL    HW1 8088   3.544   4.652   3.627
 2692SOL    HW2 8089   3.528   4.703   3.782
 2693SOL     OW 8090   2.169   3.787   2.480
 2693SOL    HW1 8091   2.158   3.881   2.513
 2693SOL    HW2 8092   2.164   3.724   2.557
 2694SOL     OW 8093   3.484   4.091   2.236
 2694SOL    HW1 8094   3.486   4.015   2.300
 2694SOL    HW2 8095   3.436   4.168   2.276
 2695SOL     OW 8096   2.885   4.490   2.828
 2695SOL    HW1 8097   2.900   4.511   2.924
 2695SOL    HW2 8098   2.855   4.395   2.819
 2696SOL     OW 8099   2.212   4.622   3.666
 2696SOL    HW1 8100   2.288   4.666   3.714
 2696SOL    HW2 8101   2.247   4.575   3.584
 2697SOL     OW 8102   3.402   3.998   1.987
 2697SOL    HW1 8103   3.341   3.923   2.010
 2697SOL    HW2 8104   3.424   4.050   2.070
 2698SOL     OW 8105   3.165   4.562   1.904
 2698SOL    HW1 8106   3.199   4.469   1.919
 2698SOL    HW2 8107   3.183   4.589   1.809
 2699SOL     OW 8108   2.181   4.534   2.811
 2699SOL    HW1 8109   2.274   4.570   2.816
 2699SOL    HW2 8110   2.175   4.449   2.863
 2700SOL     OW 8111   2.201   4.233   2.868
 2700SOL    HW1 8112   2.149   4.150   2.851
 2700SOL    HW2 8113   2.278   4.238   2.804
 2701SOL     OW 8114   3.000   4.104   3.540
 2701SOL    HW1 8115   2.955   4.167   3.604
 2701SOL    HW2 8116   3.093   4.135   3.523
 2702SOL     OW 8117   3.022   3.931   3.339
 2702SOL    HW1 8118   3.022   3.995   3.416
 2702SOL    HW2 8119   3.050   3.979   3.256
 2703SOL     OW 8120   2.864   4.520   3.100
 2703SOL    HW1 8121   2.905   4.488   3.186
 2703SOL    HW2 8122   2.768   4.493   3.097
 2704SOL     OW 8123   1.902   4.268   2.976
 2704SOL    HW1 8124   1.987   4.235   2.935
 2704SOL    HW2 8125   1.915   4.283   3.074
 2705SOL     OW 8126   2.051   4.244   3.584
 2705SOL    HW1 8127   2.110   4.204   3.514
 2705SOL    HW2 8128   1.993   4.315   3.543
 2706SOL     OW 8129   3.231   4.674   3.522
 2706SOL    HW1 8130   3.270   4.763   3.542
 2706SOL    HW2 8131   3.241   4.654   3.425
 2707SOL     OW 8132   2.677   4.296   2.187
 2707SOL    HW1 8133   2.684   4.207   2.141
 2707SOL    HW2 8134   2.583   4.330   2.179
 2708SOL     OW 8135   3.519   4.328   3.068
 2708SOL    HW1 8136   3.481   4.259   3.130
 2708SOL    HW2 8137   3.601   4.292   3.024
 2709SOL     OW 8138   2.533   4.188   3.131
 2709SOL    HW1 8139   2.499   4.099   3.101
 2709SOL    HW2 8140   2.559   4.242   3.051
 2710SOL     OW 8141   2.335   4.224   2.053
 2710SOL    HW1 8142   2.396   4.304   2.057
 2710SOL    HW2 8143   2.240   4.255   2.060
 2711SOL     OW 8144   2.021   4.861   3.328
 2711SOL    HW1 8145   2.043   4.800   3.404
 2711SOL    HW2 8146   2.031   4.812   3.242
 2712SOL     OW 8147   3.209   4.783   3.096
 2712SOL    HW1 8148   3.233   4.720   3.022
 2712SOL    HW2 8149   3.119   4.823   3.078
 2713SOL     OW 8150   3.164   4.579   2.171
 2713SOL    HW1 8151   3.078   4.548   2.213
 2713SOL    HW2 8152   3.160   4.565   2.072
 2714SOL     OW 8153   3.588   3.859   2.385
 2714SOL    HW1 8154   3.661   3.842   2.318
 2714SOL    HW2 8155   3.557   3.772   2.423
 2715SOL     OW 8156   3.142   4.651   2.534
 2715SOL    HW1 8157   3.202   4.570   2.536
 2715SOL    HW2 8158   3.182   4.720   2.474
 2716SOL     OW 8159   3.703   3.899   2.825
 2716SOL    HW1 8160   3.742   3.814   2.789
 2716SOL    HW2 8161   3.605   3.901   2.806
 2717SOL     OW 8162   2.125   4.050   2.582
 2717SOL    HW1 8163   2.046   4.101   2.548
 2717SOL    HW2 8164   2.116   4.035   2.680
 2718SOL     OW 8165   2.778   4.634   2.153
 2718SOL    HW1 8166   2.841   4.672   2.085
 2718SOL    HW2 8167   2.818   4.551   2.192
 2719SOL     OW 8168   2.876   3.960   2.833
 2719SOL    HW1 8169   2.868   3.924   2.740
 2719SOL    HW2 8170   2.874   3.884   2.898
 2720SOL     OW 8171   3.571   4.109   3.243
 2720SOL    HW1 8172   3.644   4.178   3.247
 2720SOL    HW2 8173   3.599   4.034   3.184
 2721SOL     OW 8174   1.967   4.737   3.588
 2721SOL    HW1 8175   1.890   4.704   3.642
 2721SOL    HW2 8176   2.052   4.707   3.630
 2722SOL     OW 8177   2.534   3.927   3.351
 2722SOL    HW1 8178   2.624   3.911   3.311
 2722SOL    HW2 8179   2.542   3.932   3.450
 2723SOL     OW 8180   1.937   4.069   1.895
 2723SOL    HW1 8181   1.845   4.041   1.866
 2723SOL    HW2 8182   1.968   4.146   1.839
 2724SOL     OW 8183   3.302   4.580   3.260
 2724SOL    HW1 8184   3.245   4.632   3.197
 2724SOL    HW2 8185   3.398   4.592   3.236
 2725SOL     OW 8186   1.934   3.890   2.180
 2725SOL    HW1 8187   1.917   3.973   2.126
 2725SOL    HW2 8188   2.024   3.853   2.158
 2726SOL     OW 8189   3.045   5.059   1.981
 2726SOL    HW1 8190   2.946   5.048   1.983
 2726SOL    HW2 8191   3.079   5.074   2.074
 2727SOL     OW 8192   2.475   4.566   3.293
 2727SOL    HW1 8193   2.531   4.647   3.276
 2727SOL    HW2 8194   2.534   4.486   3.296
 2728SOL     OW 8195   2.578   4.289   3.570
 2728SOL    HW1 8196   2.597   4.354   3.644
 2728SOL    HW2 8197   2.638   4.209   3.579
 2729SOL     OW 8198   3.536   4.607   3.116
 2729SOL    HW1 8199   3.509   4.518   3.079
 2729SOL    HW2 8200   3.537   4.675   3.043
 2730SOL     OW 8201   3.087   4.049   2.311
 2730SOL    HW1 8202   3.152   3.975   2.300
 2730SOL    HW2 8203   3.107   4.099   2.395
 2731SOL     OW 8204   2.456   4.469   2.514
 2731SOL    HW1 8205   2.506   4.554   2.495
 2731SOL    HW2 8206   2.368   4.471   2.466
 2732SOL     OW 8207   3.639   4.066   3.504
 2732SOL    HW1 8208   3.622   4.097   3.410
 2732SOL    HW2 8209   3.555   4.029   3.542
 2733SOL     OW 8210   3.592   4.658   3.379
 2733SOL    HW1 8211   3.630   4.749   3.394
 2733SOL    HW2 8212   3.584   4.641   3.280
 2734SOL     OW 8213   2.721   4.680   2.723
 2734SOL    HW1 8214   2.775   4.611   2.771
 2734SOL    HW2 8215   2.689   4.749   2.789
 2735SOL     OW 8216   2.945   4.708   1.949
 2735SOL    HW1 8217   2.922   4.761   1.867
 2735SOL    HW2 8218   3.026   4.652   1.930
 2736SOL     OW 8219   1.941   4.964   2.515
 2736SOL    HW1 8220   1.940   4.917   2.603
 2736SOL    HW2 8221   2.023   4.936   2.464
 2737SOL     OW 8222   3.686   3.916   3.089
 2737SOL    HW1 8223   3.682   3.826   3.133
 2737SOL    HW2 8224   3.689   3.905   2.990
 2738SOL     OW 8225   2.290   4.148   2.382
 2738SOL    HW1 8226   2.320   4.076   2.320
 2738SOL    HW2 8227   2.251   4.108   2.465
 2739SOL     OW 8228   2.179   4.271   3.142
 2739SOL    HW1 8229   2.217   4.212   3.214
 2739SOL    HW2 8230   2.219   4.245   3.054
 2740SOL     OW 8231   3.286   3.938   2.974
 2740SOL    HW1 8232   3.338   3.873   3.029
 2740SOL    HW2 8233   3.237   4.001   3.035
 2741SOL     OW 8234   2.863   3.758   3.016
 2741SOL    HW1 8235   2.800   3.686   2.985
 2741SOL    HW2 8236   2.956   3.722   3.016
 2742SOL     OW 8237   3.214   3.776   2.030
 2742SOL    HW1 8238   3.249   3.735   1.946
 2742SOL    HW2 8239   3.124   3.738   2.050
 2743SOL     OW 8240   3.162   4.177   2.553
 2743SOL    HW1 8241   3.103   4.257   2.557
 2743SOL    HW2 8242   3.177   4.142   2.646
 2744SOL     OW 8243   3.455   3.945   2.744
 2744SOL    HW1 8244   3.371   3.944   2.798
 2744SOL    HW2 8245   3.457   4.028   2.688
 2745SOL     OW 8246   2.092   4.352   3.837
 2745SOL    HW1 8247   1.999   4.350   3.874
 2745SOL    HW2 8248   2.093   4.313   3.745
 2746SOL     OW 8249   2.087   3.999   4.720
 2746SOL    HW1 8250   2.122   3.982   4.812
 2746SOL    HW2 8251   1.999   3.954   4.708
 2747SOL     OW 8252   1.881   4.092   4.371
 2747SOL    HW1 8253   1.799   4.135   4.410
 2747SOL    HW2 8254   1.853   4.019   4.308
 2748SOL     OW 8255   2.997   4.427   4.441
 2748SOL    HW1 8256   3.054   4.505   4.416
 2748SOL    HW2 8257   2.937   4.453   4.517
 2749SOL     OW 8258   3.617   4.331   3.955
 2749SOL    HW1 8259   3.605   4.318   3.856
 2749SOL    HW2 8260   3.587   4.250   4.004
 2750SOL     OW 8261   2.547   4.736   4.389
 2750SOL    HW1 8262   2.616   4.720   4.459
 2750SOL    HW2 8263   2.474   4.793   4.427
 2751SOL     OW 8264   3.465   4.171   4.461
 2751SOL    HW1 8265   3.391   4.217   4.411
 2751SOL    HW2 8266   3.516   4.239   4.514
 2752SOL     OW 8267   2.102   4.815   4.610
 2752SOL    HW1 8268   2.116   4.731   4.662
 2752SOL    HW2 8269   2.047   4.879   4.665
 2753SOL     OW 8270   2.468   4.688   3.847
 2753SOL    HW1 8271   2.475   4.772   3.793
 2753SOL    HW2 8272   2.514   4.701   3.935
 2754SOL     OW 8273   1.984   4.367   4.287
 2754SOL    HW1 8274   1.939   4.279   4.304
 2754SOL    HW2 8275   1.983   4.421   4.371
 2755SOL     OW 8276   3.551   4.646   4.336
 2755SOL    HW1 8277   3.646   4.617   4.344
 2755SOL    HW2 8278   3.543   4.711   4.261
 2756SOL     OW 8279   2.671   3.728   4.226
 2756SOL    HW1 8280   2.711   3.819   4.217
 2756SOL    HW2 8281   2.571   3.736   4.232
 2757SOL     OW 8282   3.387   4.723   3.914
 2757SOL    HW1 8283   3.324   4.647   3.927
 2757SOL    HW2 8284   3.435   4.741   4.000
 2758SOL     OW 8285   2.460   4.453   3.994
 2758SOL    HW1 8286   2.484   4.522   3.926
 2758SOL    HW2 8287   2.382   4.486   4.048
 2759SOL     OW 8288   3.143   4.069   4.668
 2759SOL    HW1 8289   3.057   4.019   4.655
 2759SOL    HW2 8290   3.205   4.015   4.724
 2760SOL     OW 8291   2.903   4.425   4.153
 2760SOL    HW1 8292   2.929   4.421   4.249
 2760SOL    HW2 8293   2.818   4.374   4.139
 2761SOL     OW 8294   1.938   4.535   4.513
 2761SOL    HW1 8295   2.037   4.523   4.522
 2761SOL    HW2 8296   1.914   4.630   4.534
 2762SOL     OW 8297   2.727   4.072   3.919
 2762SOL    HW1 8298   2.786   4.135   3.870
 2762SOL    HW2 8299   2.746   3.978   3.890
 2763SOL     OW 8300   2.412   3.920   4.609
 2763SOL    HW1 8301   2.407   3.915   4.709
 2763SOL    HW2 8302   2.414   4.016   4.580
 2764SOL     OW 8303   3.320   4.459   4.452
 2764SOL    HW1 8304   3.315   4.394   4.527
 2764SOL    HW2 8305   3.400   4.518   4.465
 2765SOL     OW 8306   3.262   3.831   4.150
 2765SOL    HW1 8307   3.238   3.794   4.060
 2765SOL    HW2 8308   3.361   3.847   4.154
 2766SOL     OW 8309   2.244   4.424   4.204
 2766SOL    HW1 8310   2.289   4.334   4.201
 2766SOL    HW2 8311   2.150   4.413   4.237
 2767SOL     OW 8312   2.476   3.846   3.841
 2767SOL    HW1 8313   2.574   3.824   3.848
 2767SOL    HW2 8314   2.445   3.829   3.748
 2768SOL     OW 8315   2.784   4.227   4.623
 2768SOL    HW1 8316   2.759   4.218   4.527
 2768SOL    HW2 8317   2.832   4.145   4.654
 2769SOL     OW 8318   2.401   3.788   4.236
 2769SOL    HW1 8319   2.320   3.789   4.294
 2769SOL    HW2 8320   2.404   3.871   4.181
 2770SOL     OW 8321   2.159   3.759   3.895
 2770SOL    HW1 8322   2.208   3.843   3.874
 2770SOL    HW2 8323   2.221   3.694   3.940
 2771SOL     OW 8324   2.797   3.960   4.204
 2771SOL    HW1 8325   2.749   4.001   4.126
 2771SOL    HW2 8326   2.896   3.958   4.185
 2772SOL     OW 8327   2.894   4.273   3.740
 2772SOL    HW1 8328   2.853   4.355   3.701
 2772SOL    HW2 8329   2.958   4.299   3.813
 2773SOL     OW 8330   2.728   4.178   4.366
 2773SOL    HW1 8331   2.696   4.250   4.304
 2773SOL    HW2 8332   2.752   4.097   4.313
 2774SOL     OW 8333   2.879   3.763   4.477
 2774SOL    HW1 8334   2.807   3.768   4.408
 2774SOL    HW2 8335   2.855   3.694   4.546
 2775SOL     OW 8336   3.291   4.897   4.591
 2775SOL    HW1 8337   3.236   4.813   4.584
 2775SOL    HW2 8338   3.317   4.926   4.499
 2776SOL     OW 8339   3.328   4.314   4.716
 2776SOL    HW1 8340   3.298   4.219   4.723
 2776SOL    HW2 8341   3.401   4.330   4.782
 2777SOL     OW 8342   3.719   4.557   4.101
 2777SOL    HW1 8343   3.761   4.493   4.165
 2777SOL    HW2 8344   3.681   4.506   4.023
 2778SOL     OW 8345   3.252   4.299   3.802
 2778SOL    HW1 8346   3.198   4.278   3.883
 2778SOL    HW2 8347   3.343   4.258   3.811
 2779SOL     OW 8348   2.389   3.980   4.052
 2779SOL    HW1 8349   2.416   3.921   3.977
 2779SOL    HW2 8350   2.389   4.075   4.021
 2780SOL     OW 8351   3.500   4.823   4.803
 2780SOL    HW1 8352   3.505   4.904   4.862
 2780SOL    HW2 8353   3.414   4.825   4.752
 2781SOL     OW 8354   2.428   4.261   4.589
 2781SOL    HW1 8355   2.440   4.327   4.515
 2781SOL    HW2 8356   2.474   4.295   4.672
 2782SOL     OW 8357   3.444   4.363   4.196
 2782SOL    HW1 8358   3.413   4.424   4.269
 2782SOL    HW2 8359   3.494   4.415   4.127
 2783SOL     OW 8360   2.435   4.594   4.753
 2783SOL    HW1 8361   2.479   4.683   4.744
 2783SOL    HW2 8362   2.372   4.594   4.830
 2784SOL     OW 8363   3.071   4.249   3.999
 2784SOL    HW1 8364   3.084   4.165   4.053
 2784SOL    HW2 8365   3.042   4.323   4.059
 2785SOL     OW 8366   2.169   3.937   4.955
 2785SOL    HW1 8367   2.146   3.974   5.045
 2785SOL    HW2 8368   2.139   3.842   4.949
 2786SOL     OW 8369   2.594   4.358   4.788
 2786SOL    HW1 8370   2.653   4.332   4.712
 2786SOL    HW2 8371   2.566   4.454   4.777
 2787SOL     OW 8372   2.169   3.787   4.342
 2787SOL    HW1 8373   2.158   3.881   4.375
 2787SOL    HW2 8374   2.164   3.724   4.419
 2788SOL     OW 8375   3.484   4.091   4.098
 2788SOL    HW1 8376   3.486   4.015   4.162
 2788SOL    HW2 8377   3.436   4.168   4.138
 2789SOL     OW 8378   3.402   3.998   3.849
 2789SOL    HW1 8379   3.341   3.923   3.872
 2789SOL    HW2 8380   3.424   4.050   3.932
 2790SOL     OW 8381   3.165   4.562   3.766
 2790SOL    HW1 8382   3.199   4.469   3.781
 2790SOL    HW2 8383   3.183   4.589   3.671
 2791SOL     OW 8384   2.181   4.534   4.673
 2791SOL    HW1 8385   2.274   4.570   4.678
 2791SOL    HW2 8386   2.175   4.449   4.725
 2792SOL     OW 8387   2.201   4.233   4.730
 2792SOL    HW1 8388   2.149   4.150   4.713
 2792SOL    HW2 8389   2.278   4.238   4.666
 2793SOL     OW 8390   2.677   4.296   4.049
 2793SOL    HW1 8391   2.684   4.207   4.003
 2793SOL    HW2 8392   2.583   4.330   4.041
 2794SOL     OW 8393   2.533   4.188   4.993
 2794SOL    HW1 8394   2.499   4.099   4.963
 2794SOL    HW2 8395   2.559   4.242   4.913
 2795SOL     OW 8396   2.335   4.224   3.915
 2795SOL    HW1 8397   2.396   4.304   3.919
 2795SOL    HW2 8398   2.240   4.255   3.922
 2796SOL     OW 8399   3.164   4.579   4.033
 2796SOL    HW1 8400   3.078   4.548   4.075
 2796SOL    HW2 8401   3.160   4.565   3.934
 2797SOL     OW 8402   3.588   3.859   4.247
 2797SOL    HW1 8403   3.661   3.842   4.180
 2797SOL    HW2 8404   3.557   3.772   4.285
 2798SOL     OW 8405   3.142   4.651   4.396
 2798SOL    HW1 8406   3.202   4.570   4.398
 2798SOL    HW2 8407   3.182   4.720   4.336
 2799SOL     OW 8408   3.703   3.899   4.687
 2799SOL    HW1 8409   3.742   3.814   4.651
 2799SOL    HW2 8410   3.605   3.901   4.668
 2800SOL     OW 8411   2.125   4.050   4.444
 2800SOL    HW1 8412   2.046   4.101   4.410
 2800SOL    HW2 8413   2.116   4.035   4.542
 2801SOL     OW 8414   2.778   4.634   4.015
 2801SOL    HW1 8415   2.841   4.672   3.947
 2801SOL    HW2 8416   2.818   4.551   4.054
 2802SOL     OW 8417   1.937   4.069   3.757
 2802SOL    HW1 8418   1.845   4.041   3.728
 2802SOL    HW2 8419   1.968   4.146   3.701
 2803SOL     OW 8420   1.934   3.890   4.042
 2803SOL    HW1 8421   1.917   3.973   3.988
 2803SOL    HW2 8422   2.024   3.853   4.020
 2804SOL     OW 8423   3.045   5.059   3.843
 2804SOL    HW1 8424   2.946   5.048   3.845
 2804SOL    HW2 8425   3.079   5.074   3.936
 2805SOL     OW 8426   3.536   4.607   4.978
 2805SOL    HW1 8427   3.509   4.518   4.941
 2805SOL    HW2 8428   3.537   4.675   4.905
 2806SOL     OW 8429   3.087   4.049   4.173
 2806SOL    HW1 8430   3.152   3.975   4.162
 2806SOL    HW2 8431   3.107   4.099   4.257
 2807SOL     OW 8432   2.456   4.469   4.376
 2807SOL    HW1 8433   2.506   4.554   4.357
 2807SOL    HW2 8434   2.368   4.471   4.328
 2808SOL     OW 8435   2.721   4.680   4.585
 2808SOL    HW1 8436   2.775   4.611   4.633
 2808SOL    HW2 8437   2.689   4.749   4.651
 2809SOL     OW 8438   2.945   4.708   3.811
 2809SOL    HW1 8439   2.922   4.761   3.729
 2809SOL    HW2 8440   3.026   4.652   3.792
 2810SOL     OW 8441   1.941   4.964   4.377
 2810SOL    HW1 8442   1.940   4.917   4.465
 2810SOL    HW2 8443   2.023   4.936   4.326
 2811SOL     OW 8444   3.686   3.916   4.951
 2811SOL    HW1 8445   3.682   3.826   4.995
 2811SOL    HW2 8446   3.689   3.905   4.852
 2812SOL     OW 8447   2.290   4.148   4.244
 2812SOL    HW1 8448   2.320   4.076   4.182
 2812SOL    HW2 8449   2.251   4.108   4.327
 2813SOL     OW 8450   3.214   3.776   3.892
 2813SOL    HW1 8451   3.249   3.735   3.808
 2813SOL    HW2 8452   3.124   3.738   3.912
 2814SOL     OW 8453   3.162   4.177   4.415
 2814SOL    HW1 8454   3.103   4.257   4.419
 2814SOL    HW2 8455   3.177   4.142   4.508
 2815SOL     OW 8456   3.455   3.945   4.606
 2815SOL    HW1 8457   3.371   3.944   4.660
 2815SOL    HW2 8458   3.457   4.028   4.550
 2816SOL     OW 8459   3.954   0.628   0.113
 2816SOL    HW1 8460   3.861   0.626   0.150
 2816SOL    HW2 8461   3.955   0.589   0.021
 2817SOL     OW 8462   3.949   0.275   0.996
 2817SOL    HW1 8463   3.984   0.258   1.088
 2817SOL    HW2 8464   3.861   0.230   0.984
 2818SOL     OW 8465   3.743   0.368   0.647
 2818SOL    HW1 8466   3.661   0.411   0.686
 2818SOL    HW2 8467   3.715   0.295   0.584
 2819SOL     OW 8468   4.293   1.275   1.165
 2819SOL    HW1 8469   4.200   1.268   1.128
 2819SOL    HW2 8470   4.304   1.364   1.209
 2820SOL     OW 8471   4.492   1.144   1.023
 2820SOL    HW1 8472   4.414   1.161   1.083
 2820SOL    HW2 8473   4.526   1.231   0.987
 2821SOL     OW 8474   4.574   0.798   1.823
 2821SOL    HW1 8475   4.570   0.874   1.888
 2821SOL    HW2 8476   4.596   0.834   1.732
 2822SOL     OW 8477   4.409   1.012   0.665
 2822SOL    HW1 8478   4.478   0.996   0.735
 2822SOL    HW2 8479   4.336   1.069   0.703
 2823SOL     OW 8480   4.410   1.161   1.803
 2823SOL    HW1 8481   4.470   1.240   1.817
 2823SOL    HW2 8482   4.324   1.192   1.762
 2824SOL     OW 8483   4.059   1.435   1.061
 2824SOL    HW1 8484   3.981   1.404   1.008
 2824SOL    HW2 8485   4.117   1.493   1.004
 2825SOL     OW 8486   4.162   0.392   1.499
 2825SOL    HW1 8487   4.244   0.336   1.508
 2825SOL    HW2 8488   4.081   0.334   1.503
 2826SOL     OW 8489   3.955   1.713   0.483
 2826SOL    HW1 8490   3.989   1.790   0.537
 2826SOL    HW2 8491   3.999   1.713   0.393
 2827SOL     OW 8492   3.954   1.434   0.538
 2827SOL    HW1 8493   3.928   1.530   0.538
 2827SOL    HW2 8494   3.883   1.380   0.583
 2828SOL     OW 8495   3.964   1.091   0.886
 2828SOL    HW1 8496   3.978   1.007   0.938
 2828SOL    HW2 8497   3.909   1.155   0.941
 2829SOL     OW 8498   4.344   1.786   1.439
 2829SOL    HW1 8499   4.252   1.769   1.474
 2829SOL    HW2 8500   4.372   1.878   1.465
 2830SOL     OW 8501   4.330   0.964   0.123
 2830SOL    HW1 8502   4.337   1.048   0.069
 2830SOL    HW2 8503   4.376   0.977   0.211
 2831SOL     OW 8504   3.846   0.643   0.563
 2831SOL    HW1 8505   3.801   0.555   0.580
 2831SOL    HW2 8506   3.845   0.697   0.647
 2832SOL     OW 8507   3.751   1.596   0.117
 2832SOL    HW1 8508   3.732   1.500   0.138
 2832SOL    HW2 8509   3.718   1.654   0.192
 2833SOL     OW 8510   3.837   0.737   1.597
 2833SOL    HW1 8511   3.925   0.724   1.642
 2833SOL    HW2 8512   3.824   0.834   1.575
 2834SOL     OW 8513   4.337   1.365   0.726
 2834SOL    HW1 8514   4.288   1.278   0.735
 2834SOL    HW2 8515   4.314   1.408   0.639
 2835SOL     OW 8516   4.533   0.004   0.502
 2835SOL    HW1 8517   4.573   0.095   0.493
 2835SOL    HW2 8518   4.433   0.012   0.508
 2836SOL     OW 8519   3.921   0.976   1.264
 2836SOL    HW1 8520   4.010   0.931   1.250
 2836SOL    HW2 8521   3.848   0.911   1.245
 2837SOL     OW 8522   4.041   0.251   1.801
 2837SOL    HW1 8523   4.112   0.322   1.807
 2837SOL    HW2 8524   3.953   0.290   1.829
 2838SOL     OW 8525   4.322   0.729   0.270
 2838SOL    HW1 8526   4.346   0.798   0.202
 2838SOL    HW2 8527   4.244   0.762   0.324
 2839SOL     OW 8528   4.531   0.605   1.465
 2839SOL    HW1 8529   4.484   0.602   1.554
 2839SOL    HW2 8530   4.480   0.550   1.399
 2840SOL     OW 8531   4.697   0.890   1.572
 2840SOL    HW1 8532   4.743   0.806   1.543
 2840SOL    HW2 8533   4.641   0.924   1.497
 2841SOL     OW 8534   4.715   0.410   1.242
 2841SOL    HW1 8535   4.638   0.444   1.296
 2841SOL    HW2 8536   4.681   0.359   1.163
 2842SOL     OW 8537   3.800   0.811   0.789
 2842SOL    HW1 8538   3.899   0.799   0.798
 2842SOL    HW2 8539   3.776   0.906   0.810
 2843SOL     OW 8540   3.854   1.821   1.571
 2843SOL    HW1 8541   3.844   1.806   1.670
 2843SOL    HW2 8542   3.768   1.857   1.535
 2844SOL     OW 8543   4.589   0.348   0.195
 2844SOL    HW1 8544   4.648   0.411   0.146
 2844SOL    HW2 8545   4.608   0.254   0.166
 2845SOL     OW 8546   4.274   0.196   0.885
 2845SOL    HW1 8547   4.269   0.191   0.985
 2845SOL    HW2 8548   4.276   0.292   0.856
 2846SOL     OW 8549   4.732   1.456   0.477
 2846SOL    HW1 8550   4.686   1.528   0.425
 2846SOL    HW2 8551   4.728   1.476   0.575
 2847SOL     OW 8552   4.075   1.801   0.853
 2847SOL    HW1 8553   4.125   1.715   0.859
 2847SOL    HW2 8554   4.140   1.878   0.850
 2848SOL     OW 8555   4.045   0.943   0.242
 2848SOL    HW1 8556   4.127   0.982   0.200
 2848SOL    HW2 8557   4.018   0.861   0.193
 2849SOL     OW 8558   4.185   1.266   1.727
 2849SOL    HW1 8559   4.135   1.267   1.641
 2849SOL    HW2 8560   4.122   1.248   1.803
 2850SOL     OW 8561   3.926   0.285   1.498
 2850SOL    HW1 8562   3.846   0.345   1.485
 2850SOL    HW2 8563   3.916   0.236   1.584
 2851SOL     OW 8564   4.188   1.743   0.323
 2851SOL    HW1 8565   4.221   1.782   0.409
 2851SOL    HW2 8566   4.264   1.736   0.258
 2852SOL     OW 8567   3.973   1.785   1.241
 2852SOL    HW1 8568   4.030   1.720   1.291
 2852SOL    HW2 8569   3.957   1.752   1.148
 2853SOL     OW 8570   4.106   0.700   0.480
 2853SOL    HW1 8571   4.151   0.610   0.477
 2853SOL    HW2 8572   4.012   0.689   0.513
 2854SOL     OW 8573   4.338   0.122   0.117
 2854SOL    HW1 8574   4.436   0.100   0.124
 2854SOL    HW2 8575   4.307   0.105   0.024
 2855SOL     OW 8576   4.505   0.264   1.749
 2855SOL    HW1 8577   4.572   0.203   1.792
 2855SOL    HW2 8578   4.432   0.283   1.814
 2856SOL     OW 8579   4.612   1.514   1.195
 2856SOL    HW1 8580   4.589   1.489   1.101
 2856SOL    HW2 8581   4.673   1.445   1.234
 2857SOL     OW 8582   4.527   1.402   0.924
 2857SOL    HW1 8583   4.617   1.416   0.882
 2857SOL    HW2 8584   4.456   1.404   0.853
 2858SOL     OW 8585   4.646   0.503   0.899
 2858SOL    HW1 8586   4.621   0.494   0.803
 2858SOL    HW2 8587   4.694   0.421   0.930
 2859SOL     OW 8588   4.263   0.064   0.512
 2859SOL    HW1 8589   4.182   0.065   0.570
 2859SOL    HW2 8590   4.266   0.147   0.457
 2860SOL     OW 8591   4.021   0.035   0.171
 2860SOL    HW1 8592   4.070   0.119   0.150
 2860SOL    HW2 8593   4.083  -0.030   0.216
 2861SOL     OW 8594   4.659   0.236   0.480
 2861SOL    HW1 8595   4.611   0.277   0.402
 2861SOL    HW2 8596   4.758   0.234   0.461
 2862SOL     OW 8597   4.951   1.570   0.793
 2862SOL    HW1 8598   4.972   1.644   0.728
 2862SOL    HW2 8599   5.019   1.570   0.866
 2863SOL     OW 8600   4.183   1.152   0.741
 2863SOL    HW1 8601   4.112   1.125   0.806
 2863SOL    HW2 8602   4.157   1.124   0.648
 2864SOL     OW 8603   4.756   0.549   0.016
 2864SOL    HW1 8604   4.715   0.631  -0.023
 2864SOL    HW2 8605   4.820   0.575   0.089
 2865SOL     OW 8606   3.802   0.556   1.386
 2865SOL    HW1 8607   3.894   0.555   1.345
 2865SOL    HW2 8608   3.796   0.630   1.453
 2866SOL     OW 8609   4.285   0.222   1.147
 2866SOL    HW1 8610   4.323   0.138   1.184
 2866SOL    HW2 8611   4.197   0.241   1.191
 2867SOL     OW 8612   4.590   0.454   0.642
 2867SOL    HW1 8613   4.558   0.526   0.580
 2867SOL    HW2 8614   4.614   0.373   0.589
 2868SOL     OW 8615   4.741   0.039   0.753
 2868SOL    HW1 8616   4.669   0.044   0.684
 2868SOL    HW2 8617   4.717  -0.030   0.822
 2869SOL     OW 8618   4.212   1.385   0.174
 2869SOL    HW1 8619   4.125   1.370   0.221
 2869SOL    HW2 8620   4.195   1.411   0.079
 2870SOL     OW 8621   4.251   0.256   0.328
 2870SOL    HW1 8622   4.278   0.197   0.253
 2870SOL    HW2 8623   4.251   0.351   0.297
 2871SOL     OW 8624   4.639   0.089   1.402
 2871SOL    HW1 8625   4.664   0.069   1.307
 2871SOL    HW2 8626   4.711   0.145   1.444
 2872SOL     OW 8627   4.704   1.116   1.719
 2872SOL    HW1 8628   4.605   1.122   1.729
 2872SOL    HW2 8629   4.727   1.036   1.663
 2873SOL     OW 8630   4.429   1.050   0.368
 2873SOL    HW1 8631   4.415   1.057   0.467
 2873SOL    HW2 8632   4.513   0.999   0.350
 2874SOL     OW 8633   4.134   0.813   1.251
 2874SOL    HW1 8634   4.220   0.825   1.301
 2874SOL    HW2 8635   4.092   0.726   1.278
 2875SOL     OW 8636   3.788   1.564   1.331
 2875SOL    HW1 8637   3.742   1.646   1.297
 2875SOL    HW2 8638   3.886   1.583   1.340
 2876SOL     OW 8639   4.091   1.100   0.501
 2876SOL    HW1 8640   4.084   1.183   0.445
 2876SOL    HW2 8641   4.095   1.020   0.441
 2877SOL     OW 8642   4.290   0.537   0.865
 2877SOL    HW1 8643   4.302   0.603   0.791
 2877SOL    HW2 8644   4.336   0.571   0.948
 2878SOL     OW 8645   4.078   1.510   1.329
 2878SOL    HW1 8646   4.057   1.466   1.242
 2878SOL    HW2 8647   4.175   1.536   1.332
 2879SOL     OW 8648   4.126   0.751   1.598
 2879SOL    HW1 8649   4.194   0.806   1.551
 2879SOL    HW2 8650   4.166   0.663   1.625
 2880SOL     OW 8651   4.737   0.105   1.770
 2880SOL    HW1 8652   4.743   0.190   1.718
 2880SOL    HW2 8653   4.769   0.029   1.713
 2881SOL     OW 8654   4.228   0.050   1.740
 2881SOL    HW1 8655   4.186  -0.007   1.670
 2881SOL    HW2 8656   4.162   0.119   1.772
 2882SOL     OW 8657   4.297   0.870   1.029
 2882SOL    HW1 8658   4.341   0.959   1.020
 2882SOL    HW2 8659   4.234   0.870   1.106
 2883SOL     OW 8660   4.933   0.525   0.275
 2883SOL    HW1 8661   4.946   0.441   0.329
 2883SOL    HW2 8662   4.904   0.599   0.335
 2884SOL     OW 8663   4.031   0.213   1.231
 2884SOL    HW1 8664   4.008   0.250   1.321
 2884SOL    HW2 8665   4.001   0.118   1.225
 2885SOL     OW 8666   3.761   1.310   1.282
 2885SOL    HW1 8667   3.814   1.261   1.350
 2885SOL    HW2 8668   3.783   1.408   1.287
 2886SOL     OW 8669   4.456   0.634   1.064
 2886SOL    HW1 8670   4.515   0.608   0.988
 2886SOL    HW2 8671   4.428   0.730   1.053
 2887SOL     OW 8672   4.031   0.063   0.618
 2887SOL    HW1 8673   4.020   0.157   0.651
 2887SOL    HW2 8674   4.026   0.000   0.695
 2888SOL     OW 8675   4.747   0.766   0.966
 2888SOL    HW1 8676   4.762   0.787   1.062
 2888SOL    HW2 8677   4.717   0.671   0.957
 2889SOL     OW 8678   4.704   1.573   1.700
 2889SOL    HW1 8679   4.684   1.617   1.612
 2889SOL    HW2 8680   4.743   1.482   1.684
 2890SOL     OW 8681   4.074   0.898   1.804
 2890SOL    HW1 8682   4.150   0.942   1.852
 2890SOL    HW2 8683   4.109   0.851   1.722
 2891SOL     OW 8684   4.043   0.810   0.949
 2891SOL    HW1 8685   4.136   0.846   0.954
 2891SOL    HW2 8686   4.037   0.725   1.001
 2892SOL     OW 8687   4.063   0.509   1.006
 2892SOL    HW1 8688   4.011   0.426   0.989
 2892SOL    HW2 8689   4.140   0.514   0.942
 2893SOL     OW 8690   3.732   1.326   0.200
 2893SOL    HW1 8691   3.639   1.347   0.169
 2893SOL    HW2 8692   3.742   1.227   0.213
 2894SOL     OW 8693   3.812   1.801   0.927
 2894SOL    HW1 8694   3.770   1.715   0.900
 2894SOL    HW2 8695   3.906   1.804   0.893
 2895SOL     OW 8696   4.228   1.568   0.910
 2895SOL    HW1 8697   4.294   1.642   0.919
 2895SOL    HW2 8698   4.272   1.489   0.868
 2896SOL     OW 8699   4.726   0.796   1.238
 2896SOL    HW1 8700   4.767   0.764   1.324
 2896SOL    HW2 8701   4.630   0.769   1.235
 2897SOL     OW 8702   3.764   0.544   1.114
 2897SOL    HW1 8703   3.849   0.511   1.073
 2897SOL    HW2 8704   3.777   0.559   1.212
 2898SOL     OW 8705   3.913   0.520   1.722
 2898SOL    HW1 8706   3.972   0.480   1.652
 2898SOL    HW2 8707   3.855   0.591   1.681
 2899SOL     OW 8708   4.539   0.572   0.325
 2899SOL    HW1 8709   4.546   0.483   0.279
 2899SOL    HW2 8710   4.445   0.606   0.317
 2900SOL     OW 8711   3.976   1.564   1.744
 2900SOL    HW1 8712   3.946   1.621   1.820
 2900SOL    HW2 8713   3.969   1.467   1.770
 2901SOL     OW 8714   4.395   0.464   1.269
 2901SOL    HW1 8715   4.361   0.375   1.239
 2901SOL    HW2 8716   4.421   0.518   1.189
 2902SOL     OW 8717   4.654   1.678   1.465
 2902SOL    HW1 8718   4.630   1.660   1.370
 2902SOL    HW2 8719   4.684   1.772   1.475
 2903SOL     OW 8720   4.197   0.500   0.191
 2903SOL    HW1 8721   4.258   0.580   0.195
 2903SOL    HW2 8722   4.102   0.531   0.198
 2904SOL     OW 8723   3.883   1.137   1.466
 2904SOL    HW1 8724   3.905   1.076   1.542
 2904SOL    HW2 8725   3.893   1.088   1.380
 2905SOL     OW 8726   3.807   1.258   1.022
 2905SOL    HW1 8727   3.802   1.257   1.122
 2905SOL    HW2 8728   3.724   1.217   0.984
 2906SOL     OW 8729   4.412   1.662   1.716
 2906SOL    HW1 8730   4.356   1.743   1.725
 2906SOL    HW2 8731   4.464   1.666   1.630
 2907SOL     OW 8732   4.627   0.086   0.133
 2907SOL    HW1 8733   4.678   0.087   0.047
 2907SOL    HW2 8734   4.683   0.044   0.204
 2908SOL     OW 8735   3.854   1.794   1.851
 2908SOL    HW1 8736   3.813   1.720   1.904
 2908SOL    HW2 8737   3.918   1.845   1.909
 2909SOL     OW 8738   5.004   0.927   0.672
 2909SOL    HW1 8739   5.064   0.846   0.674
 2909SOL    HW2 8740   5.044   0.996   0.612
 2910SOL     OW 8741   4.554   1.273   1.422
 2910SOL    HW1 8742   4.549   1.306   1.517
 2910SOL    HW2 8743   4.468   1.292   1.376
 2911SOL     OW 8744   4.396   1.616   0.154
 2911SOL    HW1 8745   4.405   1.626   0.055
 2911SOL    HW2 8746   4.356   1.527   0.175
 2912SOL     OW 8747   3.987   0.326   0.720
 2912SOL    HW1 8748   3.908   0.377   0.686
 2912SOL    HW2 8749   3.978   0.311   0.818
 2913SOL     OW 8750   4.546   1.002   1.372
 2913SOL    HW1 8751   4.586   1.001   1.280
 2913SOL    HW2 8752   4.556   1.094   1.412
 2914SOL     OW 8753   4.640   0.910   0.291
 2914SOL    HW1 8754   4.703   0.948   0.223
 2914SOL    HW2 8755   4.680   0.827   0.330
 2915SOL     OW 8756   4.096   1.288   1.490
 2915SOL    HW1 8757   4.083   1.381   1.456
 2915SOL    HW2 8758   4.012   1.236   1.477
 2916SOL     OW 8759   4.738   0.236   0.971
 2916SOL    HW1 8760   4.730   0.200   0.878
 2916SOL    HW2 8761   4.736   0.160   1.036
 2917SOL     OW 8762   4.314   1.487   0.491
 2917SOL    HW1 8763   4.356   1.429   0.421
 2917SOL    HW2 8764   4.270   1.566   0.447
 2918SOL     OW 8765   3.979   1.348   0.290
 2918SOL    HW1 8766   3.883   1.349   0.263
 2918SOL    HW2 8767   3.991   1.401   0.374
 2919SOL     OW 8768   3.829   1.013   1.726
 2919SOL    HW1 8769   3.752   0.980   1.780
 2919SOL    HW2 8770   3.914   0.983   1.768
 2920SOL     OW 8771   4.396   0.203   1.489
 2920SOL    HW1 8772   4.486   0.187   1.449
 2920SOL    HW2 8773   4.404   0.208   1.588
 2921SOL     OW 8774   3.799   0.345   0.033
 2921SOL    HW1 8775   3.707   0.317   0.004
 2921SOL    HW2 8776   3.830   0.422  -0.023
 2922SOL     OW 8777   3.796   0.166   0.318
 2922SOL    HW1 8778   3.779   0.249   0.264
 2922SOL    HW2 8779   3.886   0.129   0.296
 2923SOL     OW 8780   4.337   0.842   1.431
 2923SOL    HW1 8781   4.393   0.923   1.414
 2923SOL    HW2 8782   4.396   0.762   1.434
 2924SOL     OW 8783   4.440   0.565   1.708
 2924SOL    HW1 8784   4.459   0.630   1.782
 2924SOL    HW2 8785   4.500   0.485   1.717
 2925SOL     OW 8786   4.114   1.741   1.560
 2925SOL    HW1 8787   4.023   1.782   1.558
 2925SOL    HW2 8788   4.107   1.647   1.592
 2926SOL     OW 8789   4.949   0.325   0.449
 2926SOL    HW1 8790   5.014   0.251   0.438
 2926SOL    HW2 8791   4.969   0.375   0.533
 2927SOL     OW 8792   4.318   0.745   0.652
 2927SOL    HW1 8793   4.368   0.830   0.633
 2927SOL    HW2 8794   4.230   0.747   0.604
 2928SOL     OW 8795   4.583   1.374   0.016
 2928SOL    HW1 8796   4.537   1.389   0.104
 2928SOL    HW2 8797   4.627   1.459  -0.014
 2929SOL     OW 8798   4.385   1.790   0.953
 2929SOL    HW1 8799   4.339   1.878   0.940
 2929SOL    HW2 8800   4.484   1.802   0.946
 2930SOL     OW 8801   4.583   0.956   0.861
 2930SOL    HW1 8802   4.637   0.887   0.909
 2930SOL    HW2 8803   4.551   1.025   0.927
 2931SOL     OW 8804   4.807   0.984   0.087
 2931SOL    HW1 8805   4.784   1.037   0.005
 2931SOL    HW2 8806   4.888   0.928   0.068
 2932SOL     OW 8807   3.945   1.314   1.844
 2932SOL    HW1 8808   3.880   1.241   1.823
 2932SOL    HW2 8809   3.949   1.328   1.942
 2933SOL     OW 8810   3.803   1.240   0.653
 2933SOL    HW1 8811   3.802   1.193   0.741
 2933SOL    HW2 8812   3.885   1.212   0.602
 2934SOL     OW 8813   4.396   1.391   1.624
 2934SOL    HW1 8814   4.318   1.341   1.662
 2934SOL    HW2 8815   4.393   1.486   1.655
 2935SOL     OW 8816   4.152   0.424   0.520
 2935SOL    HW1 8817   4.182   0.352   0.458
 2935SOL    HW2 8818   4.113   0.384   0.603
 2936SOL     OW 8819   4.041   0.547   1.280
 2936SOL    HW1 8820   4.079   0.488   1.352
 2936SOL    HW2 8821   4.081   0.521   1.192
 2937SOL     OW 8822   4.536   1.586   0.687
 2937SOL    HW1 8823   4.568   1.596   0.593
 2937SOL    HW2 8824   4.457   1.524   0.689
 2938SOL     OW 8825   4.725   0.034   1.154
 2938SOL    HW1 8826   4.662  -0.038   1.123
 2938SOL    HW2 8827   4.818  -0.002   1.154
 2939SOL     OW 8828   4.494   1.330   0.301
 2939SOL    HW1 8829   4.448   1.243   0.318
 2939SOL    HW2 8830   4.585   1.327   0.342
 2940SOL     OW 8831   4.342   1.567   1.284
 2940SOL    HW1 8832   4.337   1.649   1.341
 2940SOL    HW2 8833   4.431   1.564   1.239
 2941SOL     OW 8834   3.763   1.077   0.300
 2941SOL    HW1 8835   3.862   1.066   0.291
 2941SOL    HW2 8836   3.723   0.991   0.332
 2942SOL     OW 8837   4.599   1.646   0.337
 2942SOL    HW1 8838   4.522   1.611   0.283
 2942SOL    HW2 8839   4.567   1.717   0.399
 2943SOL     OW 8840   3.954   0.628   1.975
 2943SOL    HW1 8841   3.861   0.626   2.012
 2943SOL    HW2 8842   3.955   0.589   1.883
 2944SOL     OW 8843   3.949   0.275   2.858
 2944SOL    HW1 8844   3.984   0.258   2.950
 2944SOL    HW2 8845   3.861   0.230   2.846
 2945SOL     OW 8846   3.743   0.368   2.509
 2945SOL    HW1 8847   3.661   0.411   2.548
 2945SOL    HW2 8848   3.715   0.295   2.446
 2946SOL     OW 8849   4.293   1.275   3.027
 2946SOL    HW1 8850   4.200   1.268   2.990
 2946SOL    HW2 8851   4.304   1.364   3.071
 2947SOL     OW 8852   4.492   1.144   2.885
 2947SOL    HW1 8853   4.414   1.161   2.945
 2947SOL    HW2 8854   4.526   1.231   2.849
 2948SOL     OW 8855   4.574   0.798   3.685
 2948SOL    HW1 8856   4.570   0.874   3.750
 2948SOL    HW2 8857   4.596   0.834   3.594
 2949SOL     OW 8858   4.409   1.012   2.527
 2949SOL    HW1 8859   4.478   0.996   2.597
 2949SOL    HW2 8860   4.336   1.069   2.565
 2950SOL     OW 8861   4.410   1.161   3.665
 2950SOL    HW1 8862   4.470   1.240   3.679
 2950SOL    HW2 8863   4.324   1.192   3.624
 2951SOL     OW 8864   4.059   1.435   2.923
 2951SOL    HW1 8865   3.981   1.404   2.870
 2951SOL    HW2 8866   4.117   1.493   2.866
 2952SOL     OW 8867   4.162   0.392   3.361
 2952SOL    HW1 8868   4.244   0.336   3.370
 2952SOL    HW2 8869   4.081   0.334   3.365
 2953SOL     OW 8870   3.955   1.713   2.345
 2953SOL    HW1 8871   3.989   1.790   2.399
 2953SOL    HW2 8872   3.999   1.713   2.255
 2954SOL     OW 8873   3.954   1.434   2.400
 2954SOL    HW1 8874   3.928   1.530   2.400
 2954SOL    HW2 8875   3.883   1.380   2.445
 2955SOL     OW 8876   3.964   1.091   2.748
 2955SOL    HW1 8877   3.978   1.007   2.800
 2955SOL    HW2 8878   3.909   1.155   2.803
 2956SOL     OW 8879   4.344   1.786   3.301
 2956SOL    HW1 8880   4.252   1.769   3.336
 2956SOL    HW2 8881   4.372   1.878   3.327
 2957SOL     OW 8882   4.330   0.964   1.985
 2957SOL    HW1 8883   4.337   1.048   1.931
 2957SOL    HW2 8884   4.376   0.977   2.073
 2958SOL     OW 8885   3.846   0.643   2.425
 2958SOL    HW1 8886   3.801   0.555   2.442
 2958SOL    HW2 8887   3.845   0.697   2.509
 2959SOL     OW 8888   3.751   1.596   1.979
 2959SOL    HW1 8889   3.732   1.500   2.000
 2959SOL    HW2 8890   3.718   1.654   2.054
 2960SOL     OW 8891   3.837   0.737   3.459
 2960SOL    HW1 8892   3.925   0.724   3.504
 2960SOL    HW2 8893   3.824   0.834   3.437
 2961SOL     OW 8894   4.337   1.365   2.588
 2961SOL    HW1 8895   4.288   1.278   2.597
 2961SOL    HW2 8896   4.314   1.408   2.501
 2962SOL     OW 8897   4.533   0.004   2.364
 2962SOL    HW1 8898   4.573   0.095   2.355
 2962SOL    HW2 8899   4.433   0.012   2.370
 2963SOL     OW 8900   3.921   0.976   3.126
 2963SOL    HW1 8901   4.010   0.931   3.112
 2963SOL    HW2 8902   3.848   0.911   3.107
 2964SOL     OW 8903   4.041   0.251   3.663
 2964SOL    HW1 8904   4.112   0.322   3.669
 2964SOL    HW2 8905   3.953   0.290   3.691
 2965SOL     OW 8906   4.322   0.729   2.132
 2965SOL    HW1 8907   4.346   0.798   2.064
 2965SOL    HW2 8908   4.244   0.762   2.186
 2966SOL     OW 8909   4.531   0.605   3.327
 2966SOL    HW1 8910   4.484   0.602   3.416
 2966SOL    HW2 8911   4.480   0.550   3.261
 2967SOL     OW 8912   4.697   0.890   3.434
 2967SOL    HW1 8913   4.743   0.806   3.405
 2967SOL    HW2 8914   4.641   0.924   3.359
 2968SOL     OW 8915   4.715   0.410   3.104
 2968SOL    HW1 8916   4.638   0.444   3.158
 2968SOL    HW2 8917   4.681   0.359   3.025
 2969SOL     OW 8918   3.800   0.811   2.651
 2969SOL    HW1 8919   3.899   0.799   2.660
 2969SOL    HW2 8920   3.776   0.906   2.672
 2970SOL     OW 8921   3.854   1.821   3.433
 2970SOL    HW1 8922   3.844   1.806   3.532
 2970SOL    HW2 8923   3.768   1.857   3.397
 2971SOL     OW 8924   4.589   0.348   2.057
 2971SOL    HW1 8925   4.648   0.411   2.008
 2971SOL    HW2 8926   4.608   0.254   2.028
 2972SOL     OW 8927   4.274   0.196   2.747
 2972SOL    HW1 8928   4.269   0.191   2.847
 2972SOL    HW2 8929   4.276   0.292   2.718
 2973SOL     OW 8930   4.732   1.456   2.339
 2973SOL    HW1 8931   4.686   1.528   2.287
 2973SOL    HW2 8932   4.728   1.476   2.437
 2974SOL     OW 8933   4.075   1.801   2.715
 2974SOL    HW1 8934   4.125   1.715   2.721
 2974SOL    HW2 8935   4.140   1.878   2.712
 2975SOL     OW 8936   4.045   0.943   2.104
 2975SOL    HW1 8937   4.127   0.982   2.062
 2975SOL    HW2 8938   4.018   0.861   2.055
 2976SOL     OW 8939   4.185   1.266   3.589
 2976SOL    HW1 8940   4.135   1.267   3.503
 2976SOL    HW2 8941   4.122   1.248   3.665
 2977SOL     OW 8942   3.926   0.285   3.360
 2977SOL    HW1 8943   3.846   0.345   3.347
 2977SOL    HW2 8944   3.916   0.236   3.446
 2978SOL     OW 8945   4.188   1.743   2.185
 2978SOL    HW1 8946   4.221   1.782   2.271
 2978SOL    HW2 8947   4.264   1.736   2.120
 2979SOL     OW 8948   3.973   1.785   3.103
 2979SOL    HW1 8949   4.030   1.720   3.153
 2979SOL    HW2 8950   3.957   1.752   3.010
 2980SOL     OW 8951   4.106   0.700   2.342
 2980SOL    HW1 8952   4.151   0.610   2.339
 2980SOL    HW2 8953   4.012   0.689   2.375
 2981SOL     OW 8954   4.338   0.122   1.979
 2981SOL    HW1 8955   4.436   0.100   1.986
 2981SOL    HW2 8956   4.307   0.105   1.886
 2982SOL     OW 8957   4.505   0.264   3.611
 2982SOL    HW1 8958   4.572   0.203   3.654
 2982SOL    HW2 8959   4.432   0.283   3.676
 2983SOL     OW 8960   4.612   1.514   3.057
 2983SOL    HW1 8961   4.589   1.489   2.963
 2983SOL    HW2 8962   4.673   1.445   3.096
 2984SOL     OW 8963   4.527   1.402   2.786
 2984SOL    HW1 8964   4.617   1.416   2.744
 2984SOL    HW2 8965   4.456   1.404   2.715
 2985SOL     OW 8966   4.646   0.503   2.761
 2985SOL    HW1 8967   4.621   0.494   2.665
 2985SOL    HW2 8968   4.694   0.421   2.792
 2986SOL     OW 8969   4.263   0.064   2.374
 2986SOL    HW1 8970   4.182   0.065   2.432
 2986SOL    HW2 8971   4.266   0.147   2.319
 2987SOL     OW 8972   4.021   0.035   2.033
 2987SOL    HW1 8973   4.070   0.119   2.012
 2987SOL    HW2 8974   4.083  -0.030   2.078
 2988SOL     OW 8975   4.659   0.236   2.342
 2988SOL    HW1 8976   4.611   0.277   2.264
 2988SOL    HW2 8977   4.758   0.234   2.323
 2989SOL     OW 8978   4.951   1.570   2.655
 2989SOL    HW1 8979   4.972   1.644   2.590
 2989SOL    HW2 8980   5.019   1.570   2.728
 2990SOL     OW 8981   4.183   1.152   2.603
 2990SOL    HW1 8982   4.112   1.125   2.668
 2990SOL    HW2 8983   4.157   1.124   2.510
 2991SOL     OW 8984   4.756   0.549   1.878
 2991SOL    HW1 8985   4.715   0.631   1.839
 2991SOL    HW2 8986   4.820   0.575   1.951
 2992SOL     OW 8987   3.802   0.556   3.248
 2992SOL    HW1 8988   3.894   0.555   3.207
 2992SOL    HW2 8989   3.796   0.630   3.315
 2993SOL     OW 8990   4.285   0.222   3.009
 2993SOL    HW1 8991   4.323   0.138   3.046
 2993SOL    HW2 8992   4.197   0.241   3.053
 2994SOL     OW 8993   4.590   0.454   2.504
 2994SOL    HW1 8994   4.558   0.526   2.442
 2994SOL    HW2 8995   4.614   0.373   2.451
 2995SOL     OW 8996   4.741   0.039   2.615
 2995SOL    HW1 8997   4.669   0.044   2.546
 2995SOL    HW2 8998   4.717  -0.030   2.684
 2996SOL     OW 8999   4.212   1.385   2.036
 2996SOL    HW1 9000   4.125   1.370   2.083
 2996SOL    HW2 9001   4.195   1.411   1.941
 2997SOL     OW 9002   4.251   0.256   2.190
 2997SOL    HW1 9003   4.278   0.197   2.115
 2997SOL    HW2 9004   4.251   0.351   2.159
 2998SOL     OW 9005   4.639   0.089   3.264
 2998SOL    HW1 9006   4.664   0.069   3.169
 2998SOL    HW2 9007   4.711   0.145   3.306
 2999SOL     OW 9008   4.704   1.116   3.581
 2999SOL    HW1 9009   4.605   1.122   3.591
 2999SOL    HW2 9010   4.727   1.036   3.525
 3000SOL     OW 9011   4.429   1.050   2.230
 3000SOL    HW1 9012   4.415   1.057   2.329
 3000SOL    HW2 9013   4.513   0.999   2.212
 3001SOL     OW 9014   4.134   0.813   3.113
 3001SOL    HW1 9015   4.220   0.825   3.163
 3001SOL    HW2 9016   4.092   0.726   3.140
 3002SOL     OW 9017   3.788   1.564   3.193
 3002SOL    HW1 9018   3.742   1.646   3.159
 3002SOL    HW2 9019   3.886   1.583   3.202
 3003SOL     OW 9020   4.091   1.100   2.363
 3003SOL    HW1 9021   4.084   1.183   2.307
 3003SOL    HW2 9022   4.095   1.020   2.303
 3004SOL     OW 9023   4.290   0.537   2.727
 3004SOL    HW1 9024   4.302   0.603   2.653
 3004SOL    HW2 9025   4.336   0.571   2.810
 3005SOL     OW 9026   4.078   1.510   3.191
 3005SOL    HW1 9027   4.057   1.466   3.104
 3005SOL    HW2 9028   4.175   1.536   3.194
 3006SOL     OW 9029   4.126   0.751   3.460
 3006SOL    HW1 9030   4.194   0.806   3.413
 3006SOL    HW2 9031   4.166   0.663   3.487
 3007SOL     OW 9032   4.737   0.105   3.632
 3007SOL    HW1 9033   4.743   0.190   3.580
 3007SOL    HW2 9034   4.769   0.029   3.575
 3008SOL     OW 9035   4.228   0.050   3.602
 3008SOL    HW1 9036   4.186  -0.007   3.532
 3008SOL    HW2 9037   4.162   0.119   3.634
 3009SOL     OW 9038   4.297   0.870   2.891
 3009SOL    HW1 9039   4.341   0.959   2.882
 3009SOL    HW2 9040   4.234   0.870   2.968
 3010SOL     OW 9041   4.933   0.525   2.137
 3010SOL    HW1 9042   4.946   0.441   2.191
 3010SOL    HW2 9043   4.904   0.599   2.197
 3011SOL     OW 9044   4.031   0.213   3.093
 3011SOL    HW1 9045   4.008   0.250   3.183
 3011SOL    HW2 9046   4.001   0.118   3.087
 3012SOL     OW 9047   3.761   1.310   3.144
 3012SOL    HW1 9048   3.814   1.261   3.212
 3012SOL    HW2 9049   3.783   1.408   3.149
 3013SOL     OW 9050   4.456   0.634   2.926
 3013SOL    HW1 9051   4.515   0.608   2.850
 3013SOL    HW2 9052   4.428   0.730   2.915
 3014SOL     OW 9053   4.031   0.063   2.480
 3014SOL    HW1 9054   4.020   0.157   2.513
 3014SOL    HW2 9055   4.026   0.000   2.557
 3015SOL     OW 9056   4.747   0.766   2.828
 3015SOL    HW1 9057   4.762   0.787   2.924
 3015SOL    HW2 9058   4.717   0.671   2.819
 3016SOL     OW 9059   4.704   1.573   3.562
 3016SOL    HW1 9060   4.684   1.617   3.474
 3016SOL    HW2 9061   4.743   1.482   3.546
 3017SOL     OW 9062   4.074   0.898   3.666
 3017SOL    HW1 9063   4.150   0.942   3.714
 3017SOL    HW2 9064   4.109   0.851   3.584
 3018SOL     OW 9065   4.043   0.810   2.811
 3018SOL    HW1 9066   4.136   0.846   2.816
 3018SOL    HW2 9067   4.037   0.725   2.863
 3019SOL     OW 9068   4.063   0.509   2.868
 3019SOL    HW1 9069   4.011   0.426   2.851
 3019SOL    HW2 9070   4.140   0.514   2.804
 3020SOL     OW 9071   3.732   1.326   2.062
 3020SOL    HW1 9072   3.639   1.347   2.031
 3020SOL    HW2 9073   3.742   1.227   2.075
 3021SOL     OW 9074   3.812   1.801   2.789
 3021SOL    HW1 9075   3.770   1.715   2.762
 3021SOL    HW2 9076   3.906   1.804   2.755
 3022SOL     OW 9077   4.228   1.568   2.772
 3022SOL    HW1 9078   4.294   1.642   2.781
 3022SOL    HW2 9079   4.272   1.489   2.730
 3023SOL     OW 9080   4.726   0.796   3.100
 3023SOL    HW1 9081   4.767   0.764   3.186
 3023SOL    HW2 9082   4.630   0.769   3.097
 3024SOL     OW 9083   3.764   0.544   2.976
 3024SOL    HW1 9084   3.849   0.511   2.935
 3024SOL    HW2 9085   3.777   0.559   3.074
 3025SOL     OW 9086   3.913   0.520   3.584
 3025SOL    HW1 9087   3.972   0.480   3.514
 3025SOL    HW2 9088   3.855   0.591   3.543
 3026SOL     OW 9089   4.539   0.572   2.187
 3026SOL    HW1 9090   4.546   0.483   2.141
 3026SOL    HW2 9091   4.445   0.606   2.179
 3027SOL     OW 9092   3.976   1.564   3.606
 3027SOL    HW1 9093   3.946   1.621   3.682
 3027SOL    HW2 9094   3.969   1.467   3.632
 3028SOL     OW 9095   4.395   0.464   3.131
 3028SOL    HW1 9096   4.361   0.375   3.101
 3028SOL    HW2 9097   4.421   0.518   3.051
 3029SOL     OW 9098   4.654   1.678   3.327
 3029SOL    HW1 9099   4.630   1.660   3.232
 3029SOL    HW2 9100   4.684   1.772   3.337
 3030SOL     OW 9101   4.197   0.500   2.053
 3030SOL    HW1 9102   4.258   0.580   2.057
 3030SOL    HW2 9103   4.102   0.531   2.060
 3031SOL     OW 9104   3.883   1.137   3.328
 3031SOL    HW1 9105   3.905   1.076   3.404
 3031SOL    HW2 9106   3.893   1.088   3.242
 3032SOL     OW 9107   3.807   1.258   2.884
 3032SOL    HW1 9108   3.802   1.257   2.984
 3032SOL    HW2 9109   3.724   1.217   2.846
 3033SOL     OW 9110   4.412   1.662   3.578
 3033SOL    HW1 9111   4.356   1.743   3.587
 3033SOL    HW2 9112   4.464   1.666   3.492
 3034SOL     OW 9113   3.854   1.794   3.713
 3034SOL    HW1 9114   3.813   1.720   3.766
 3034SOL    HW2 9115   3.918   1.845   3.771
 3035SOL     OW 9116   5.004   0.927   2.534
 3035SOL    HW1 9117   5.064   0.846   2.536
 3035SOL    HW2 9118   5.044   0.996   2.474
 3036SOL     OW 9119   4.554   1.273   3.284
 3036SOL    HW1 9120   4.549   1.306   3.379
 3036SOL    HW2 9121   4.468   1.292   3.238
 3037SOL     OW 9122   4.396   1.616   2.016
 3037SOL    HW1 9123   4.405   1.626   1.917
 3037SOL    HW2 9124   4.356   1.527   2.037
 3038SOL     OW 9125   3.987   0.326   2.582
 3038SOL    HW1 9126   3.908   0.377   2.548
 3038SOL    HW2 9127   3.978   0.311   2.680
 3039SOL     OW 9128   4.546   1.002   3.234
 3039SOL    HW1 9129   4.586   1.001   3.142
 3039SOL    HW2 9130   4.556   1.094   3.274
 3040SOL     OW 9131   4.640   0.910   2.153
 3040SOL    HW1 9132   4.703   0.948   2.085
 3040SOL    HW2 9133   4.680   0.827   2.192
 3041SOL     OW 9134   4.096   1.288   3.352
 3041SOL    HW1 9135   4.083   1.381   3.318
 3041SOL    HW2 9136   4.012   1.236   3.339
 3042SOL     OW 9137   4.738   0.236   2.833
 3042SOL    HW1 9138   4.730   0.200   2.740
 3042SOL    HW2 9139   4.736   0.160   2.898
 3043SOL     OW 9140   4.314   1.487   2.353
 3043SOL    HW1 9141   4.356   1.429   2.283
 3043SOL    HW2 9142   4.270   1.566   2.309
 3044SOL     OW 9143   3.979   1.348   2.152
 3044SOL    HW1 9144   3.883   1.349   2.125
 3044SOL    HW2 9145   3.991   1.401   2.236
 3045SOL     OW 9146   3.829   1.013   3.588
 3045SOL    HW1 9147   3.752   0.980   3.642
 3045SOL    HW2 9148   3.914   0.983   3.630
 3046SOL     OW 9149   4.396   0.203   3.351
 3046SOL    HW1 9150   4.486   0.187   3.311
 3046SOL    HW2 9151   4.404   0.208   3.450
 3047SOL     OW 9152   3.799   0.345   1.895
 3047SOL    HW1 9153   3.707   0.317   1.866
 3047SOL    HW2 9154   3.830   0.422   1.839
 3048SOL     OW 9155   3.796   0.166   2.180
 3048SOL    HW1 9156   3.779   0.249   2.126
 3048SOL    HW2 9157   3.886   0.129   2.158
 3049SOL     OW 9158   4.337   0.842   3.293
 3049SOL    HW1 9159   4.393   0.923   3.276
 3049SOL    HW2 9160   4.396   0.762   3.296
 3050SOL     OW 9161   4.440   0.565   3.570
 3050SOL    HW1 9162   4.459   0.630   3.644
 3050SOL    HW2 9163   4.500   0.485   3.579
 3051SOL     OW 9164   4.114   1.741   3.422
 3051SOL    HW1 9165   4.023   1.782   3.420
 3051SOL    HW2 9166   4.107   1.647   3.454
 3052SOL     OW 9167   4.949   0.325   2.311
 3052SOL    HW1 9168   5.014   0.251   2.300
 3052SOL    HW2 9169   4.969   0.375   2.395
 3053SOL     OW 9170   4.318   0.745   2.514
 3053SOL    HW1 9171   4.368   0.830   2.495
 3053SOL    HW2 9172   4.230   0.747   2.466
 3054SOL     OW 9173   4.583   1.374   1.878
 3054SOL    HW1 9174   4.537   1.389   1.966
 3054SOL    HW2 9175   4.627   1.459   1.848
 3055SOL     OW 9176   4.385   1.790   2.815
 3055SOL    HW1 9177   4.339   1.878   2.802
 3055SOL    HW2 9178   4.484   1.802   2.808
 3056SOL     OW 9179   4.583   0.956   2.723
 3056SOL    HW1 9180   4.637   0.887   2.771
 3056SOL    HW2 9181   4.551   1.025   2.789
 3057SOL     OW 9182   3.945   1.314   3.706
 3057SOL    HW1 9183   3.880   1.241   3.685
 3057SOL    HW2 9184   3.949   1.328   3.804
 3058SOL     OW 9185   3.803   1.240   2.515
 3058SOL    HW1 9186   3.802   1.193   2.603
 3058SOL    HW2 9187   3.885   1.212   2.464
 3059SOL     OW 9188   4.396   1.391   3.486
 3059SOL    HW1 9189   4.318   1.341   3.524
 3059SOL    HW2 9190   4.393   1.486   3.517
 3060SOL     OW 9191   4.152   0.424   2.382
 3060SOL    HW1 9192   4.182   0.352   2.320
 3060SOL    HW2 9193   4.113   0.384   2.465
 3061SOL     OW 9194   4.041   0.547   3.142
 3061SOL    HW1 9195   4.079   0.488   3.214
 3061SOL    HW2 9196   4.081   0.521   3.054
 3062SOL     OW 9197   4.536   1.586   2.549
 3062SOL    HW1 9198   4.568   1.596   2.455
 3062SOL    HW2 9199   4.457   1.524   2.551
 3063SOL     OW 9200   4.725   0.034   3.016
 3063SOL    HW1 9201   4.662  -0.038   2.985
 3063SOL    HW2 9202   4.818  -0.002   3.016
 3064SOL     OW 9203   4.494   1.330   2.163
 3064SOL    HW1 9204   4.448   1.243   2.180
 3064SOL    HW2 9205   4.585   1.327   2.204
 3065SOL     OW 9206   4.342   1.567   3.146
 3065SOL    HW1 9207   4.337   1.649   3.203
 3065SOL    HW2 9208   4.431   1.564   3.101
 3066SOL     OW 9209   3.763   1.077   2.162
 3066SOL    HW1 9210   3.862   1.066   2.153
 3066SOL    HW2 9211   3.723   0.991   2.194
 3067SOL     OW 9212   4.599   1.646   2.199
 3067SOL    HW1 9213   4.522   1.611   2.145
 3067SOL    HW2 9214   4.567   1.717   2.261
 3068SOL     OW 9215   3.954   0.628   3.837
 3068SOL    HW1 9216   3.861   0.626   3.874
 3068SOL    HW2 9217   3.955   0.589   3.745
 3069SOL     OW 9218   3.949   0.275   4.720
 3069SOL    HW1 9219   3.984   0.258   4.812
 3069SOL    HW2 9220   3.861   0.230   4.708
 3070SOL     OW 9221   3.743   0.368   4.371
 3070SOL    HW1 9222   3.661   0.411   4.410
 3070SOL    HW2 9223   3.715   0.295   4.308
 3071SOL     OW 9224   4.492   1.144   4.747
 3071SOL    HW1 9225   4.414   1.161   4.807
 3071SOL    HW2 9226   4.526   1.231   4.711
 3072SOL     OW 9227   4.409   1.012   4.389
 3072SOL    HW1 9228   4.478   0.996   4.459
 3072SOL    HW2 9229   4.336   1.069   4.427
 3073SOL     OW 9230   4.059   1.435   4.785
 3073SOL    HW1 9231   3.981   1.404   4.732
 3073SOL    HW2 9232   4.117   1.493   4.728
 3074SOL     OW 9233   3.955   1.713   4.207
 3074SOL    HW1 9234   3.989   1.790   4.261
 3074SOL    HW2 9235   3.999   1.713   4.117
 3075SOL     OW 9236   3.954   1.434   4.262
 3075SOL    HW1 9237   3.928   1.530   4.262
 3075SOL    HW2 9238   3.883   1.380   4.307
 3076SOL     OW 9239   3.964   1.091   4.610
 3076SOL    HW1 9240   3.978   1.007   4.662
 3076SOL    HW2 9241   3.909   1.155   4.665
 3077SOL     OW 9242   4.330   0.964   3.847
 3077SOL    HW1 9243   4.337   1.048   3.793
 3077SOL    HW2 9244   4.376   0.977   3.935
 3078SOL     OW 9245   3.846   0.643   4.287
 3078SOL    HW1 9246   3.801   0.555   4.304
 3078SOL    HW2 9247   3.845   0.697   4.371
 3079SOL     OW 9248   3.751   1.596   3.841
 3079SOL    HW1 9249   3.732   1.500   3.862
 3079SOL    HW2 9250   3.718   1.654   3.916
 3080SOL     OW 9251   4.337   1.365   4.450
 3080SOL    HW1 9252   4.288   1.278   4.459
 3080SOL    HW2 9253   4.314   1.408   4.363
 3081SOL     OW 9254   4.533   0.004   4.226
 3081SOL    HW1 9255   4.573   0.095   4.217
 3081SOL    HW2 9256   4.433   0.012   4.232
 3082SOL     OW 9257   4.322   0.729   3.994
 3082SOL    HW1 9258   4.346   0.798   3.926
 3082SOL    HW2 9259   4.244   0.762   4.048
 3083SOL     OW 9260   3.800   0.811   4.513
 3083SOL    HW1 9261   3.899   0.799   4.522
 3083SOL    HW2 9262   3.776   0.906   4.534
 3084SOL     OW 9263   4.589   0.348   3.919
 3084SOL    HW1 9264   4.648   0.411   3.870
 3084SOL    HW2 9265   4.608   0.254   3.890
 3085SOL     OW 9266   4.274   0.196   4.609
 3085SOL    HW1 9267   4.269   0.191   4.709
 3085SOL    HW2 9268   4.276   0.292   4.580
 3086SOL     OW 9269   4.732   1.456   4.201
 3086SOL    HW1 9270   4.686   1.528   4.149
 3086SOL    HW2 9271   4.728   1.476   4.299
 3087SOL     OW 9272   4.075   1.801   4.577
 3087SOL    HW1 9273   4.125   1.715   4.583
 3087SOL    HW2 9274   4.140   1.878   4.574
 3088SOL     OW 9275   4.045   0.943   3.966
 3088SOL    HW1 9276   4.127   0.982   3.924
 3088SOL    HW2 9277   4.018   0.861   3.917
 3089SOL     OW 9278   4.188   1.743   4.047
 3089SOL    HW1 9279   4.221   1.782   4.133
 3089SOL    HW2 9280   4.264   1.736   3.982
 3090SOL     OW 9281   3.973   1.785   4.965
 3090SOL    HW1 9282   4.030   1.720   5.015
 3090SOL    HW2 9283   3.957   1.752   4.872
 3091SOL     OW 9284   4.106   0.700   4.204
 3091SOL    HW1 9285   4.151   0.610   4.201
 3091SOL    HW2 9286   4.012   0.689   4.237
 3092SOL     OW 9287   4.338   0.122   3.841
 3092SOL    HW1 9288   4.436   0.100   3.848
 3092SOL    HW2 9289   4.307   0.105   3.748
 3093SOL     OW 9290   4.527   1.402   4.648
 3093SOL    HW1 9291   4.617   1.416   4.606
 3093SOL    HW2 9292   4.456   1.404   4.577
 3094SOL     OW 9293   4.646   0.503   4.623
 3094SOL    HW1 9294   4.621   0.494   4.527
 3094SOL    HW2 9295   4.694   0.421   4.654
 3095SOL     OW 9296   4.263   0.064   4.236
 3095SOL    HW1 9297   4.182   0.065   4.294
 3095SOL    HW2 9298   4.266   0.147   4.181
 3096SOL     OW 9299   4.021   0.035   3.895
 3096SOL    HW1 9300   4.070   0.119   3.874
 3096SOL    HW2 9301   4.083  -0.030   3.940
 3097SOL     OW 9302   4.659   0.236   4.204
 3097SOL    HW1 9303   4.611   0.277   4.126
 3097SOL    HW2 9304   4.758   0.234   4.185
 3098SOL     OW 9305   4.951   1.570   4.517
 3098SOL    HW1 9306   4.972   1.644   4.452
 3098SOL    HW2 9307   5.019   1.570   4.590
 3099SOL     OW 9308   4.183   1.152   4.465
 3099SOL    HW1 9309   4.112   1.125   4.530
 3099SOL    HW2 9310   4.157   1.124   4.372
 3100SOL     OW 9311   4.756   0.549   3.740
 3100SOL    HW1 9312   4.715   0.631   3.701
 3100SOL    HW2 9313   4.820   0.575   3.813
 3101SOL     OW 9314   4.590   0.454   4.366
 3101SOL    HW1 9315   4.558   0.526   4.304
 3101SOL    HW2 9316   4.614   0.373   4.313
 3102SOL     OW 9317   4.741   0.039   4.477
 3102SOL    HW1 9318   4.669   0.044   4.408
 3102SOL    HW2 9319   4.717  -0.030   4.546
 3103SOL     OW 9320   4.212   1.385   3.898
 3103SOL    HW1 9321   4.125   1.370   3.945
 3103SOL    HW2 9322   4.195   1.411   3.803
 3104SOL     OW 9323   4.251   0.256   4.052
 3104SOL    HW1 9324   4.278   0.197   3.977
 3104SOL    HW2 9325   4.251   0.351   4.021
 3105SOL     OW 9326   4.429   1.050   4.092
 3105SOL    HW1 9327   4.415   1.057   4.191
 3105SOL    HW2 9328   4.513   0.999   4.074
 3106SOL     OW 9329   4.091   1.100   4.225
 3106SOL    HW1 9330   4.084   1.183   4.169
 3106SOL    HW2 9331   4.095   1.020   4.165
 3107SOL     OW 9332   4.290   0.537   4.589
 3107SOL    HW1 9333   4.302   0.603   4.515
 3107SOL    HW2 9334   4.336   0.571   4.672
 3108SOL     OW 9335   4.297   0.870   4.753
 3108SOL    HW1 9336   4.341   0.959   4.744
 3108SOL    HW2 9337   4.234   0.870   4.830
 3109SOL     OW 9338   4.933   0.525   3.999
 3109SOL    HW1 9339   4.946   0.441   4.053
 3109SOL    HW2 9340   4.904   0.599   4.059
 3110SOL     OW 9341   4.456   0.634   4.788
 3110SOL    HW1 9342   4.515   0.608   4.712
 3110SOL    HW2 9343   4.428   0.730   4.777
 3111SOL     OW 9344   4.031   0.063   4.342
 3111SOL    HW1 9345   4.020   0.157   4.375
 3111SOL    HW2 9346   4.026   0.000   4.419
 3112SOL     OW 9347   4.043   0.810   4.673
 3112SOL    HW1 9348   4.136   0.846   4.678
 3112SOL    HW2 9349   4.037   0.725   4.725
 3113SOL     OW 9350   4.063   0.509   4.730
 3113SOL    HW1 9351   4.011   0.426   4.713
 3113SOL    HW2 9352   4.140   0.514   4.666
 3114SOL     OW 9353   3.732   1.326   3.924
 3114SOL    HW1 9354   3.639   1.347   3.893
 3114SOL    HW2 9355   3.742   1.227   3.937
 3115SOL     OW 9356   3.812   1.801   4.651
 3115SOL    HW1 9357   3.770   1.715   4.624
 3115SOL    HW2 9358   3.906   1.804   4.617
 3116SOL     OW 9359   4.228   1.568   4.634
 3116SOL    HW1 9360   4.294   1.642   4.643
 3116SOL    HW2 9361   4.272   1.489   4.592
 3117SOL     OW 9362   4.539   0.572   4.049
 3117SOL    HW1 9363   4.546   0.483   4.003
 3117SOL    HW2 9364   4.445   0.606   4.041
 3118SOL     OW 9365   4.395   0.464   4.993
 3118SOL    HW1 9366   4.361   0.375   4.963
 3118SOL    HW2 9367   4.421   0.518   4.913
 3119SOL     OW 9368   4.197   0.500   3.915
 3119SOL    HW1 9369   4.258   0.580   3.919
 3119SOL    HW2 9370   4.102   0.531   3.922
 3120SOL     OW 9371   3.807   1.258   4.746
 3120SOL    HW1 9372   3.802   1.257   4.846
 3120SOL    HW2 9373   3.724   1.217   4.708
 3121SOL     OW 9374   5.004   0.927   4.396
 3121SOL    HW1 9375   5.064   0.846   4.398
 3121SOL    HW2 9376   5.044   0.996   4.336
 3122SOL     OW 9377   4.396   1.616   3.878
 3122SOL    HW1 9378   4.405   1.626   3.779
 3122SOL    HW2 9379   4.356   1.527   3.899
 3123SOL     OW 9380   3.987   0.326   4.444
 3123SOL    HW1 9381   3.908   0.377   4.410
 3123SOL    HW2 9382   3.978   0.311   4.542
 3124SOL     OW 9383   4.640   0.910   4.015
 3124SOL    HW1 9384   4.703   0.948   3.947
 3124SOL    HW2 9385   4.680   0.827   4.054
 3125SOL     OW 9386   4.314   1.487   4.215
 3125SOL    HW1 9387   4.356   1.429   4.145
 3125SOL    HW2 9388   4.270   1.566   4.171
 3126SOL     OW 9389   3.979   1.348   4.014
 3126SOL    HW1 9390   3.883   1.349   3.987
 3126SOL    HW2 9391   3.991   1.401   4.098
 3127SOL     OW 9392   3.799   0.345   3.757
 3127SOL    HW1 9393   3.707   0.317   3.728
 3127SOL    HW2 9394   3.830   0.422   3.701
 3128SOL     OW 9395   3.796   0.166   4.042
 3128SOL    HW1 9396   3.779   0.249   3.988
 3128SOL    HW2 9397   3.886   0.129   4.020
 3129SOL     OW 9398   4.949   0.325   4.173
 3129SOL    HW1 9399   5.014   0.251   4.162
 3129SOL    HW2 9400   4.969   0.375   4.257
 3130SOL     OW 9401   4.318   0.745   4.376
 3130SOL    HW1 9402   4.368   0.830   4.357
 3130SOL    HW2 9403   4.230   0.747   4.328
 3131SOL     OW 9404   4.583   1.374   3.740
 3131SOL    HW1 9405   4.537   1.389   3.828
 3131SOL    HW2 9406   4.627   1.459   3.710
 3132SOL     OW 9407   4.385   1.790   4.677
 3132SOL    HW1 9408   4.339   1.878   4.664
 3132SOL    HW2 9409   4.484   1.802   4.670
 3133SOL     OW 9410   4.583   0.956   4.585
 3133SOL    HW1 9411   4.637   0.887   4.633
 3133SOL    HW2 9412   4.551   1.025   4.651
 3134SOL     OW 9413   3.803   1.240   4.377
 3134SOL    HW1 9414   3.802   1.193   4.465
 3134SOL    HW2 9415   3.885   1.212   4.326
 3135SOL     OW 9416   4.152   0.424   4.244
 3135SOL    HW1 9417   4.182   0.352   4.182
 3135SOL    HW2 9418   4.113   0.384   4.327
 3136SOL     OW 9419   4.536   1.586   4.411
 3136SOL    HW1 9420   4.568   1.596   4.317
 3136SOL    HW2 9421   4.457   1.524   4.413
 3137SOL     OW 9422   4.494   1.330   4.025
 3137SOL    HW1 9423   4.448   1.243   4.042
 3137SOL    HW2 9424   4.585   1.327   4.066
 3138SOL     OW 9425   3.763   1.077   4.024
 3138SOL    HW1 9426   3.862   1.066   4.015
 3138SOL    HW2 9427   3.723   0.991   4.056
 3139SOL     OW 9428   4.599   1.646   4.061
 3139SOL    HW1 9429   4.522   1.611   4.007
 3139SOL    HW2 9430   4.567   1.717   4.123
 3140SOL     OW 9431   3.954   2.490   0.113
 3140SOL    HW1 9432   3.861   2.488   0.150
 3140SOL    HW2 9433   3.955   2.451   0.021
 3141SOL     OW 9434   3.949   2.137   0.996
 3141SOL    HW1 9435   3.984   2.120   1.088
 3141SOL    HW2 9436   3.861   2.092   0.984
 3142SOL     OW 9437   3.743   2.230   0.647
 3142SOL    HW1 9438   3.661   2.273   0.686
 3142SOL    HW2 9439   3.715   2.157   0.584
 3143SOL     OW 9440   4.293   3.137   1.165
 3143SOL    HW1 9441   4.200   3.130   1.128
 3143SOL    HW2 9442   4.304   3.226   1.209
 3144SOL     OW 9443   4.492   3.006   1.023
 3144SOL    HW1 9444   4.414   3.023   1.083
 3144SOL    HW2 9445   4.526   3.093   0.987
 3145SOL     OW 9446   4.574   2.660   1.823
 3145SOL    HW1 9447   4.570   2.736   1.888
 3145SOL    HW2 9448   4.596   2.696   1.732
 3146SOL     OW 9449   4.409   2.874   0.665
 3146SOL    HW1 9450   4.478   2.858   0.735
 3146SOL    HW2 9451   4.336   2.931   0.703
 3147SOL     OW 9452   4.410   3.023   1.803
 3147SOL    HW1 9453   4.470   3.102   1.817
 3147SOL    HW2 9454   4.324   3.054   1.762
 3148SOL     OW 9455   4.059   3.297   1.061
 3148SOL    HW1 9456   3.981   3.266   1.008
 3148SOL    HW2 9457   4.117   3.355   1.004
 3149SOL     OW 9458   4.162   2.254   1.499
 3149SOL    HW1 9459   4.244   2.198   1.508
 3149SOL    HW2 9460   4.081   2.196   1.503
 3150SOL     OW 9461   3.955   3.575   0.483
 3150SOL    HW1 9462   3.989   3.652   0.537
 3150SOL    HW2 9463   3.999   3.575   0.393
 3151SOL     OW 9464   3.954   3.296   0.538
 3151SOL    HW1 9465   3.928   3.392   0.538
 3151SOL    HW2 9466   3.883   3.242   0.583
 3152SOL     OW 9467   3.964   2.953   0.886
 3152SOL    HW1 9468   3.978   2.869   0.938
 3152SOL    HW2 9469   3.909   3.017   0.941
 3153SOL     OW 9470   4.344   3.648   1.439
 3153SOL    HW1 9471   4.252   3.631   1.474
 3153SOL    HW2 9472   4.372   3.740   1.465
 3154SOL     OW 9473   4.330   2.826   0.123
 3154SOL    HW1 9474   4.337   2.910   0.069
 3154SOL    HW2 9475   4.376   2.839   0.211
 3155SOL     OW 9476   3.846   2.505   0.563
 3155SOL    HW1 9477   3.801   2.417   0.580
 3155SOL    HW2 9478   3.845   2.559   0.647
 3156SOL     OW 9479   3.751   3.458   0.117
 3156SOL    HW1 9480   3.732   3.362   0.138
 3156SOL    HW2 9481   3.718   3.516   0.192
 3157SOL     OW 9482   3.837   2.599   1.597
 3157SOL    HW1 9483   3.925   2.586   1.642
 3157SOL    HW2 9484   3.824   2.696   1.575
 3158SOL     OW 9485   4.337   3.227   0.726
 3158SOL    HW1 9486   4.288   3.140   0.735
 3158SOL    HW2 9487   4.314   3.270   0.639
 3159SOL     OW 9488   4.533   1.866   0.502
 3159SOL    HW1 9489   4.573   1.957   0.493
 3159SOL    HW2 9490   4.433   1.874   0.508
 3160SOL     OW 9491   3.921   2.838   1.264
 3160SOL    HW1 9492   4.010   2.793   1.250
 3160SOL    HW2 9493   3.848   2.773   1.245
 3161SOL     OW 9494   4.041   2.113   1.801
 3161SOL    HW1 9495   4.112   2.184   1.807
 3161SOL    HW2 9496   3.953   2.152   1.829
 3162SOL     OW 9497   4.322   2.591   0.270
 3162SOL    HW1 9498   4.346   2.660   0.202
 3162SOL    HW2 9499   4.244   2.624   0.324
 3163SOL     OW 9500   4.531   2.467   1.465
 3163SOL    HW1 9501   4.484   2.464   1.554
 3163SOL    HW2 9502   4.480   2.412   1.399
 3164SOL     OW 9503   4.697   2.752   1.572
 3164SOL    HW1 9504   4.743   2.668   1.543
 3164SOL    HW2 9505   4.641   2.786   1.497
 3165SOL     OW 9506   4.715   2.272   1.242
 3165SOL    HW1 9507   4.638   2.306   1.296
 3165SOL    HW2 9508   4.681   2.221   1.163
 3166SOL     OW 9509   3.800   2.673   0.789
 3166SOL    HW1 9510   3.899   2.661   0.798
 3166SOL    HW2 9511   3.776   2.768   0.810
 3167SOL     OW 9512   3.854   3.683   1.571
 3167SOL    HW1 9513   3.844   3.668   1.670
 3167SOL    HW2 9514   3.768   3.719   1.535
 3168SOL     OW 9515   4.589   2.210   0.195
 3168SOL    HW1 9516   4.648   2.273   0.146
 3168SOL    HW2 9517   4.608   2.116   0.166
 3169SOL     OW 9518   4.274   2.058   0.885
 3169SOL    HW1 9519   4.269   2.053   0.985
 3169SOL    HW2 9520   4.276   2.154   0.856
 3170SOL     OW 9521   4.732   3.318   0.477
 3170SOL    HW1 9522   4.686   3.390   0.425
 3170SOL    HW2 9523   4.728   3.338   0.575
 3171SOL     OW 9524   4.075   3.663   0.853
 3171SOL    HW1 9525   4.125   3.577   0.859
 3171SOL    HW2 9526   4.140   3.740   0.850
 3172SOL     OW 9527   4.045   2.805   0.242
 3172SOL    HW1 9528   4.127   2.844   0.200
 3172SOL    HW2 9529   4.018   2.723   0.193
 3173SOL     OW 9530   4.185   3.128   1.727
 3173SOL    HW1 9531   4.135   3.129   1.641
 3173SOL    HW2 9532   4.122   3.110   1.803
 3174SOL     OW 9533   3.926   2.147   1.498
 3174SOL    HW1 9534   3.846   2.207   1.485
 3174SOL    HW2 9535   3.916   2.098   1.584
 3175SOL     OW 9536   4.188   3.605   0.323
 3175SOL    HW1 9537   4.221   3.644   0.409
 3175SOL    HW2 9538   4.264   3.598   0.258
 3176SOL     OW 9539   3.973   3.647   1.241
 3176SOL    HW1 9540   4.030   3.582   1.291
 3176SOL    HW2 9541   3.957   3.614   1.148
 3177SOL     OW 9542   4.106   2.562   0.480
 3177SOL    HW1 9543   4.151   2.472   0.477
 3177SOL    HW2 9544   4.012   2.551   0.513
 3178SOL     OW 9545   4.338   1.984   0.117
 3178SOL    HW1 9546   4.436   1.962   0.124
 3178SOL    HW2 9547   4.307   1.967   0.024
 3179SOL     OW 9548   4.505   2.126   1.749
 3179SOL    HW1 9549   4.572   2.065   1.792
 3179SOL    HW2 9550   4.432   2.145   1.814
 3180SOL     OW 9551   4.612   3.376   1.195
 3180SOL    HW1 9552   4.589   3.351   1.101
 3180SOL    HW2 9553   4.673   3.307   1.234
 3181SOL     OW 9554   4.527   3.264   0.924
 3181SOL    HW1 9555   4.617   3.278   0.882
 3181SOL    HW2 9556   4.456   3.266   0.853
 3182SOL     OW 9557   4.646   2.365   0.899
 3182SOL    HW1 9558   4.621   2.356   0.803
 3182SOL    HW2 9559   4.694   2.283   0.930
 3183SOL     OW 9560   4.263   1.926   0.512
 3183SOL    HW1 9561   4.182   1.927   0.570
 3183SOL    HW2 9562   4.266   2.009   0.457
 3184SOL     OW 9563   4.659   2.098   0.480
 3184SOL    HW1 9564   4.611   2.139   0.402
 3184SOL    HW2 9565   4.758   2.096   0.461
 3185SOL     OW 9566   4.951   3.432   0.793
 3185SOL    HW1 9567   4.972   3.506   0.728
 3185SOL    HW2 9568   5.019   3.432   0.866
 3186SOL     OW 9569   4.183   3.014   0.741
 3186SOL    HW1 9570   4.112   2.987   0.806
 3186SOL    HW2 9571   4.157   2.986   0.648
 3187SOL     OW 9572   4.756   2.411   0.016
 3187SOL    HW1 9573   4.715   2.493  -0.023
 3187SOL    HW2 9574   4.820   2.437   0.089
 3188SOL     OW 9575   3.802   2.418   1.386
 3188SOL    HW1 9576   3.894   2.417   1.345
 3188SOL    HW2 9577   3.796   2.492   1.453
 3189SOL     OW 9578   4.285   2.084   1.147
 3189SOL    HW1 9579   4.323   2.000   1.184
 3189SOL    HW2 9580   4.197   2.103   1.191
 3190SOL     OW 9581   4.590   2.316   0.642
 3190SOL    HW1 9582   4.558   2.388   0.580
 3190SOL    HW2 9583   4.614   2.235   0.589
 3191SOL     OW 9584   4.741   1.901   0.753
 3191SOL    HW1 9585   4.669   1.906   0.684
 3191SOL    HW2 9586   4.717   1.832   0.822
 3192SOL     OW 9587   4.212   3.247   0.174
 3192SOL    HW1 9588   4.125   3.232   0.221
 3192SOL    HW2 9589   4.195   3.273   0.079
 3193SOL     OW 9590   4.251   2.118   0.328
 3193SOL    HW1 9591   4.278   2.059   0.253
 3193SOL    HW2 9592   4.251   2.213   0.297
 3194SOL     OW 9593   4.639   1.951   1.402
 3194SOL    HW1 9594   4.664   1.931   1.307
 3194SOL    HW2 9595   4.711   2.007   1.444
 3195SOL     OW 9596   4.704   2.978   1.719
 3195SOL    HW1 9597   4.605   2.984   1.729
 3195SOL    HW2 9598   4.727   2.898   1.663
 3196SOL     OW 9599   4.429   2.912   0.368
 3196SOL    HW1 9600   4.415   2.919   0.467
 3196SOL    HW2 9601   4.513   2.861   0.350
 3197SOL     OW 9602   4.134   2.675   1.251
 3197SOL    HW1 9603   4.220   2.687   1.301
 3197SOL    HW2 9604   4.092   2.588   1.278
 3198SOL     OW 9605   3.788   3.426   1.331
 3198SOL    HW1 9606   3.742   3.508   1.297
 3198SOL    HW2 9607   3.886   3.445   1.340
 3199SOL     OW 9608   4.091   2.962   0.501
 3199SOL    HW1 9609   4.084   3.045   0.445
 3199SOL    HW2 9610   4.095   2.882   0.441
 3200SOL     OW 9611   4.290   2.399   0.865
 3200SOL    HW1 9612   4.302   2.465   0.791
 3200SOL    HW2 9613   4.336   2.433   0.948
 3201SOL     OW 9614   4.078   3.372   1.329
 3201SOL    HW1 9615   4.057   3.328   1.242
 3201SOL    HW2 9616   4.175   3.398   1.332
 3202SOL     OW 9617   4.126   2.613   1.598
 3202SOL    HW1 9618   4.194   2.668   1.551
 3202SOL    HW2 9619   4.166   2.525   1.625
 3203SOL     OW 9620   4.737   1.967   1.770
 3203SOL    HW1 9621   4.743   2.052   1.718
 3203SOL    HW2 9622   4.769   1.891   1.713
 3204SOL     OW 9623   4.228   1.912   1.740
 3204SOL    HW1 9624   4.186   1.855   1.670
 3204SOL    HW2 9625   4.162   1.981   1.772
 3205SOL     OW 9626   4.297   2.732   1.029
 3205SOL    HW1 9627   4.341   2.821   1.020
 3205SOL    HW2 9628   4.234   2.732   1.106
 3206SOL     OW 9629   4.933   2.387   0.275
 3206SOL    HW1 9630   4.946   2.303   0.329
 3206SOL    HW2 9631   4.904   2.461   0.335
 3207SOL     OW 9632   4.031   2.075   1.231
 3207SOL    HW1 9633   4.008   2.112   1.321
 3207SOL    HW2 9634   4.001   1.980   1.225
 3208SOL     OW 9635   3.761   3.172   1.282
 3208SOL    HW1 9636   3.814   3.123   1.350
 3208SOL    HW2 9637   3.783   3.270   1.287
 3209SOL     OW 9638   4.456   2.496   1.064
 3209SOL    HW1 9639   4.515   2.470   0.988
 3209SOL    HW2 9640   4.428   2.592   1.053
 3210SOL     OW 9641   4.031   1.925   0.618
 3210SOL    HW1 9642   4.020   2.019   0.651
 3210SOL    HW2 9643   4.026   1.862   0.695
 3211SOL     OW 9644   4.747   2.628   0.966
 3211SOL    HW1 9645   4.762   2.649   1.062
 3211SOL    HW2 9646   4.717   2.533   0.957
 3212SOL     OW 9647   4.704   3.435   1.700
 3212SOL    HW1 9648   4.684   3.479   1.612
 3212SOL    HW2 9649   4.743   3.344   1.684
 3213SOL     OW 9650   4.074   2.760   1.804
 3213SOL    HW1 9651   4.150   2.804   1.852
 3213SOL    HW2 9652   4.109   2.713   1.722
 3214SOL     OW 9653   4.043   2.672   0.949
 3214SOL    HW1 9654   4.136   2.708   0.954
 3214SOL    HW2 9655   4.037   2.587   1.001
 3215SOL     OW 9656   4.063   2.371   1.006
 3215SOL    HW1 9657   4.011   2.288   0.989
 3215SOL    HW2 9658   4.140   2.376   0.942
 3216SOL     OW 9659   3.732   3.188   0.200
 3216SOL    HW1 9660   3.639   3.209   0.169
 3216SOL    HW2 9661   3.742   3.089   0.213
 3217SOL     OW 9662   3.812   3.663   0.927
 3217SOL    HW1 9663   3.770   3.577   0.900
 3217SOL    HW2 9664   3.906   3.666   0.893
 3218SOL     OW 9665   4.228   3.430   0.910
 3218SOL    HW1 9666   4.294   3.504   0.919
 3218SOL    HW2 9667   4.272   3.351   0.868
 3219SOL     OW 9668   4.726   2.658   1.238
 3219SOL    HW1 9669   4.767   2.626   1.324
 3219SOL    HW2 9670   4.630   2.631   1.235
 3220SOL     OW 9671   3.764   2.406   1.114
 3220SOL    HW1 9672   3.849   2.373   1.073
 3220SOL    HW2 9673   3.777   2.421   1.212
 3221SOL     OW 9674   3.913   2.382   1.722
 3221SOL    HW1 9675   3.972   2.342   1.652
 3221SOL    HW2 9676   3.855   2.453   1.681
 3222SOL     OW 9677   4.539   2.434   0.325
 3222SOL    HW1 9678   4.546   2.345   0.279
 3222SOL    HW2 9679   4.445   2.468   0.317
 3223SOL     OW 9680   3.976   3.426   1.744
 3223SOL    HW1 9681   3.946   3.483   1.820
 3223SOL    HW2 9682   3.969   3.329   1.770
 3224SOL     OW 9683   4.395   2.326   1.269
 3224SOL    HW1 9684   4.361   2.237   1.239
 3224SOL    HW2 9685   4.421   2.380   1.189
 3225SOL     OW 9686   4.654   3.540   1.465
 3225SOL    HW1 9687   4.630   3.522   1.370
 3225SOL    HW2 9688   4.684   3.634   1.475
 3226SOL     OW 9689   4.197   2.362   0.191
 3226SOL    HW1 9690   4.258   2.442   0.195
 3226SOL    HW2 9691   4.102   2.393   0.198
 3227SOL     OW 9692   3.883   2.999   1.466
 3227SOL    HW1 9693   3.905   2.938   1.542
 3227SOL    HW2 9694   3.893   2.950   1.380
 3228SOL     OW 9695   3.807   3.120   1.022
 3228SOL    HW1 9696   3.802   3.119   1.122
 3228SOL    HW2 9697   3.724   3.079   0.984
 3229SOL     OW 9698   4.412   3.524   1.716
 3229SOL    HW1 9699   4.356   3.605   1.725
 3229SOL    HW2 9700   4.464   3.528   1.630
 3230SOL     OW 9701   4.627   1.948   0.133
 3230SOL    HW1 9702   4.678   1.949   0.047
 3230SOL    HW2 9703   4.683   1.906   0.204
 3231SOL     OW 9704   3.854   3.656   1.851
 3231SOL    HW1 9705   3.813   3.582   1.904
 3231SOL    HW2 9706   3.918   3.707   1.909
 3232SOL     OW 9707   5.004   2.789   0.672
 3232SOL    HW1 9708   5.064   2.708   0.674
 3232SOL    HW2 9709   5.044   2.858   0.612
 3233SOL     OW 9710   4.554   3.135   1.422
 3233SOL    HW1 9711   4.549   3.168   1.517
 3233SOL    HW2 9712   4.468   3.154   1.376
 3234SOL     OW 9713   4.396   3.478   0.154
 3234SOL    HW1 9714   4.405   3.488   0.055
 3234SOL    HW2 9715   4.356   3.389   0.175
 3235SOL     OW 9716   3.987   2.188   0.720
 3235SOL    HW1 9717   3.908   2.239   0.686
 3235SOL    HW2 9718   3.978   2.173   0.818
 3236SOL     OW 9719   4.546   2.864   1.372
 3236SOL    HW1 9720   4.586   2.863   1.280
 3236SOL    HW2 9721   4.556   2.956   1.412
 3237SOL     OW 9722   4.640   2.772   0.291
 3237SOL    HW1 9723   4.703   2.810   0.223
 3237SOL    HW2 9724   4.680   2.689   0.330
 3238SOL     OW 9725   4.096   3.150   1.490
 3238SOL    HW1 9726   4.083   3.243   1.456
 3238SOL    HW2 9727   4.012   3.098   1.477
 3239SOL     OW 9728   4.738   2.098   0.971
 3239SOL    HW1 9729   4.730   2.062   0.878
 3239SOL    HW2 9730   4.736   2.022   1.036
 3240SOL     OW 9731   4.314   3.349   0.491
 3240SOL    HW1 9732   4.356   3.291   0.421
 3240SOL    HW2 9733   4.270   3.428   0.447
 3241SOL     OW 9734   3.979   3.210   0.290
 3241SOL    HW1 9735   3.883   3.211   0.263
 3241SOL    HW2 9736   3.991   3.263   0.374
 3242SOL     OW 9737   3.829   2.875   1.726
 3242SOL    HW1 9738   3.752   2.842   1.780
 3242SOL    HW2 9739   3.914   2.845   1.768
 3243SOL     OW 9740   4.396   2.065   1.489
 3243SOL    HW1 9741   4.486   2.049   1.449
 3243SOL    HW2 9742   4.404   2.070   1.588
 3244SOL     OW 9743   3.799   2.207   0.033
 3244SOL    HW1 9744   3.707   2.179   0.004
 3244SOL    HW2 9745   3.830   2.284  -0.023
 3245SOL     OW 9746   3.796   2.028   0.318
 3245SOL    HW1 9747   3.779   2.111   0.264
 3245SOL    HW2 9748   3.886   1.991   0.296
 3246SOL     OW 9749   4.337   2.704   1.431
 3246SOL    HW1 9750   4.393   2.785   1.414
 3246SOL    HW2 9751   4.396   2.624   1.434
 3247SOL     OW 9752   4.440   2.427   1.708
 3247SOL    HW1 9753   4.459   2.492   1.782
 3247SOL    HW2 9754   4.500   2.347   1.717
 3248SOL     OW 9755   4.114   3.603   1.560
 3248SOL    HW1 9756   4.023   3.644   1.558
 3248SOL    HW2 9757   4.107   3.509   1.592
 3249SOL     OW 9758   4.949   2.187   0.449
 3249SOL    HW1 9759   5.014   2.113   0.438
 3249SOL    HW2 9760   4.969   2.237   0.533
 3250SOL     OW 9761   4.318   2.607   0.652
 3250SOL    HW1 9762   4.368   2.692   0.633
 3250SOL    HW2 9763   4.230   2.609   0.604
 3251SOL     OW 9764   4.583   3.236   0.016
 3251SOL    HW1 9765   4.537   3.251   0.104
 3251SOL    HW2 9766   4.627   3.321  -0.014
 3252SOL     OW 9767   4.385   3.652   0.953
 3252SOL    HW1 9768   4.339   3.740   0.940
 3252SOL    HW2 9769   4.484   3.664   0.946
 3253SOL     OW 9770   4.583   2.818   0.861
 3253SOL    HW1 9771   4.637   2.749   0.909
 3253SOL    HW2 9772   4.551   2.887   0.927
 3254SOL     OW 9773   4.807   2.846   0.087
 3254SOL    HW1 9774   4.784   2.899   0.005
 3254SOL    HW2 9775   4.888   2.790   0.068
 3255SOL     OW 9776   3.945   3.176   1.844
 3255SOL    HW1 9777   3.880   3.103   1.823
 3255SOL    HW2 9778   3.949   3.190   1.942
 3256SOL     OW 9779   3.803   3.102   0.653
 3256SOL    HW1 9780   3.802   3.055   0.741
 3256SOL    HW2 9781   3.885   3.074   0.602
 3257SOL     OW 9782   4.396   3.253   1.624
 3257SOL    HW1 9783   4.318   3.203   1.662
 3257SOL    HW2 9784   4.393   3.348   1.655
 3258SOL     OW 9785   4.152   2.286   0.520
 3258SOL    HW1 9786   4.182   2.214   0.458
 3258SOL    HW2 9787   4.113   2.246   0.603
 3259SOL     OW 9788   4.041   2.409   1.280
 3259SOL    HW1 9789   4.079   2.350   1.352
 3259SOL    HW2 9790   4.081   2.383   1.192
 3260SOL     OW 9791   4.536   3.448   0.687
 3260SOL    HW1 9792   4.568   3.458   0.593
 3260SOL    HW2 9793   4.457   3.386   0.689
 3261SOL     OW 9794   4.725   1.896   1.154
 3261SOL    HW1 9795   4.662   1.824   1.123
 3261SOL    HW2 9796   4.818   1.860   1.154
 3262SOL     OW 9797   4.494   3.192   0.301
 3262SOL    HW1 9798   4.448   3.105   0.318
 3262SOL    HW2 9799   4.585   3.189   0.342
 3263SOL     OW 9800   4.342   3.429   1.284
 3263SOL    HW1 9801   4.337   3.511   1.341
 3263SOL    HW2 9802   4.431   3.426   1.239
 3264SOL     OW 9803   3.763   2.939   0.300
 3264SOL    HW1 9804   3.862   2.928   0.291
 3264SOL    HW2 9805   3.723   2.853   0.332
 3265SOL     OW 9806   4.599   3.508   0.337
 3265SOL    HW1 9807   4.522   3.473   0.283
 3265SOL    HW2 9808   4.567   3.579   0.399
 3266SOL     OW 9809   3.954   2.490   1.975
 3266SOL    HW1 9810   3.861   2.488   2.012
 3266SOL    HW2 9811   3.955   2.451   1.883
 3267SOL     OW 9812   3.949   2.137   2.858
 3267SOL    HW1 9813   3.984   2.120   2.950
 3267SOL    HW2 9814   3.861   2.092   2.846
 3268SOL     OW 9815   3.743   2.230   2.509
 3268SOL    HW1 9816   3.661   2.273   2.548
 3268SOL    HW2 9817   3.715   2.157   2.446
 3269SOL     OW 9818   4.293   3.137   3.027
 3269SOL    HW1 9819   4.200   3.130   2.990
 3269SOL    HW2 9820   4.304   3.226   3.071
 3270SOL     OW 9821   4.492   3.006   2.885
 3270SOL    HW1 9822   4.414   3.023   2.945
 3270SOL    HW2 9823   4.526   3.093   2.849
 3271SOL     OW 9824   4.574   2.660   3.685
 3271SOL    HW1 9825   4.570   2.736   3.750
 3271SOL    HW2 9826   4.596   2.696   3.594
 3272SOL     OW 9827   4.409   2.874   2.527
 3272SOL    HW1 9828   4.478   2.858   2.597
 3272SOL    HW2 9829   4.336   2.931   2.565
 3273SOL     OW 9830   4.410   3.023   3.665
 3273SOL    HW1 9831   4.470   3.102   3.679
 3273SOL    HW2 9832   4.324   3.054   3.624
 3274SOL     OW 9833   4.059   3.297   2.923
 3274SOL    HW1 9834   3.981   3.266   2.870
 3274SOL    HW2 9835   4.117   3.355   2.866
 3275SOL     OW 9836   4.162   2.254   3.361
 3275SOL    HW1 9837   4.244   2.198   3.370
 3275SOL    HW2 9838   4.081   2.196   3.365
 3276SOL     OW 9839   3.955   3.575   2.345
 3276SOL    HW1 9840   3.989   3.652   2.399
 3276SOL    HW2 9841   3.999   3.575   2.255
 3277SOL     OW 9842   3.954   3.296   2.400
 3277SOL    HW1 9843   3.928   3.392   2.400
 3277SOL    HW2 9844   3.883   3.242   2.445
 3278SOL     OW 9845   3.964   2.953   2.748
 3278SOL    HW1 9846   3.978   2.869   2.800
 3278SOL    HW2 9847   3.909   3.017   2.803
 3279SOL     OW 9848   4.344   3.648   3.301
 3279SOL    HW1 9849   4.252   3.631   3.336
 3279SOL    HW2 9850   4.372   3.740   3.327
 3280SOL     OW 9851   4.330   2.826   1.985
 3280SOL    HW1 9852   4.337   2.910   1.931
 3280SOL    HW2 9853   4.376   2.839   2.073
 3281SOL     OW 9854   3.846   2.505   2.425
 3281SOL    HW1 9855   3.801   2.417   2.442
 3281SOL    HW2 9856   3.845   2.559   2.509
 3282SOL     OW 9857   3.751   3.458   1.979
 3282SOL    HW1 9858   3.732   3.362   2.000
 3282SOL    HW2 9859   3.718   3.516   2.054
 3283SOL     OW 9860   3.837   2.599   3.459
 3283SOL    HW1 9861   3.925   2.586   3.504
 3283SOL    HW2 9862   3.824   2.696   3.437
 3284SOL     OW 9863   4.337   3.227   2.588
 3284SOL    HW1 9864   4.288   3.140   2.597
 3284SOL    HW2 9865   4.314   3.270   2.501
 3285SOL     OW 9866   4.533   1.866   2.364
 3285SOL    HW1 9867   4.573   1.957   2.355
 3285SOL    HW2 9868   4.433   1.874   2.370
 3286SOL     OW 9869   3.921   2.838   3.126
 3286SOL    HW1 9870   4.010   2.793   3.112
 3286SOL    HW2 9871   3.848   2.773   3.107
 3287SOL     OW 9872   4.041   2.113   3.663
 3287SOL    HW1 9873   4.112   2.184   3.669
 3287SOL    HW2 9874   3.953   2.152   3.691
 3288SOL     OW 9875   4.322   2.591   2.132
 3288SOL    HW1 9876   4.346   2.660   2.064
 3288SOL    HW2 9877   4.244   2.624   2.186
 3289SOL     OW 9878   4.531   2.467   3.327
 3289SOL    HW1 9879   4.484   2.464   3.416
 3289SOL    HW2 9880   4.480   2.412   3.261
 3290SOL     OW 9881   4.697   2.752   3.434
 3290SOL    HW1 9882   4.743   2.668   3.405
 3290SOL    HW2 9883   4.641   2.786   3.359
 3291SOL     OW 9884   4.715   2.272   3.104
 3291SOL    HW1 9885   4.638   2.306   3.158
 3291SOL    HW2 9886   4.681   2.221   3.025
 3292SOL     OW 9887   3.800   2.673   2.651
 3292SOL    HW1 9888   3.899   2.661   2.660
 3292SOL    HW2 9889   3.776   2.768   2.672
 3293SOL     OW 9890   3.854   3.683   3.433
 3293SOL    HW1 9891   3.844   3.668   3.532
 3293SOL    HW2 9892   3.768   3.719   3.397
 3294SOL     OW 9893   4.589   2.210   2.057
 3294SOL    HW1 9894   4.648   2.273   2.008
 3294SOL    HW2 9895   4.608   2.116   2.028
 3295SOL     OW 9896   4.274   2.058   2.747
 3295SOL    HW1 9897   4.269   2.053   2.847
 3295SOL    HW2 9898   4.276   2.154   2.718
 3296SOL     OW 9899   4.732   3.318   2.339
 3296SOL    HW1 9900   4.686   3.390   2.287
 3296SOL    HW2 9901   4.728   3.338   2.437
 3297SOL     OW 9902   4.075   3.663   2.715
 3297SOL    HW1 9903   4.125   3.577   2.721
 3297SOL    HW2 9904   4.140   3.740   2.712
 3298SOL     OW 9905   4.045   2.805   2.104
 3298SOL    HW1 9906   4.127   2.844   2.062
 3298SOL    HW2 9907   4.018   2.723   2.055
 3299SOL     OW 9908   4.185   3.128   3.589
 3299SOL    HW1 9909   4.135   3.129   3.503
 3299SOL    HW2 9910   4.122   3.110   3.665
 3300SOL     OW 9911   3.926   2.147   3.360
 3300SOL    HW1 9912   3.846   2.207   3.347
 3300SOL    HW2 9913   3.916   2.098   3.446
 3301SOL     OW 9914   4.188   3.605   2.185
 3301SOL    HW1 9915   4.221   3.644   2.271
 3301SOL    HW2 9916   4.264   3.598   2.120
 3302SOL     OW 9917   3.973   3.647   3.103
 3302SOL    HW1 9918   4.030   3.582   3.153
 3302SOL    HW2 9919   3.957   3.614   3.010
 3303SOL     OW 9920   4.106   2.562   2.342
 3303SOL    HW1 9921   4.151   2.472   2.339
 3303SOL    HW2 9922   4.012   2.551   2.375
 3304SOL     OW 9923   4.338   1.984   1.979
 3304SOL    HW1 9924   4.436   1.962   1.986
 3304SOL    HW2 9925   4.307   1.967   1.886
 3305SOL     OW 9926   4.505   2.126   3.611
 3305SOL    HW1 9927   4.572   2.065   3.654
 3305SOL    HW2 9928   4.432   2.145   3.676
 3306SOL     OW 9929   4.612   3.376   3.057
 3306SOL    HW1 9930   4.589   3.351   2.963
 3306SOL    HW2 9931   4.673   3.307   3.096
 3307SOL     OW 9932   4.527   3.264   2.786
 3307SOL    HW1 9933   4.617   3.278   2.744
 3307SOL    HW2 9934   4.456   3.266   2.715
 3308SOL     OW 9935   4.646   2.365   2.761
 3308SOL    HW1 9936   4.621   2.356   2.665
 3308SOL    HW2 9937   4.694   2.283   2.792
 3309SOL     OW 9938   4.263   1.926   2.374
 3309SOL    HW1 9939   4.182   1.927   2.432
 3309SOL    HW2 9940   4.266   2.009   2.319
 3310SOL     OW 9941   4.021   1.897   2.033
 3310SOL    HW1 9942   4.070   1.981   2.012
 3310SOL    HW2 9943   4.083   1.832   2.078
 3311SOL     OW 9944   4.659   2.098   2.342
 3311SOL    HW1 9945   4.611   2.139   2.264
 3311SOL    HW2 9946   4.758   2.096   2.323
 3312SOL     OW 9947   4.951   3.432   2.655
 3312SOL    HW1 9948   4.972   3.506   2.590
 3312SOL    HW2 9949   5.019   3.432   2.728
 3313SOL     OW 9950   4.183   3.014   2.603
 3313SOL    HW1 9951   4.112   2.987   2.668
 3313SOL    HW2 9952   4.157   2.986   2.510
 3314SOL     OW 9953   4.756   2.411   1.878
 3314SOL    HW1 9954   4.715   2.493   1.839
 3314SOL    HW2 9955   4.820   2.437   1.951
 3315SOL     OW 9956   3.802   2.418   3.248
 3315SOL    HW1 9957   3.894   2.417   3.207
 3315SOL    HW2 9958   3.796   2.492   3.315
 3316SOL     OW 9959   4.285   2.084   3.009
 3316SOL    HW1 9960   4.323   2.000   3.046
 3316SOL    HW2 9961   4.197   2.103   3.053
 3317SOL     OW 9962   4.590   2.316   2.504
 3317SOL    HW1 9963   4.558   2.388   2.442
 3317SOL    HW2 9964   4.614   2.235   2.451
 3318SOL     OW 9965   4.741   1.901   2.615
 3318SOL    HW1 9966   4.669   1.906   2.546
 3318SOL    HW2 9967   4.717   1.832   2.684
 3319SOL     OW 9968   4.212   3.247   2.036
 3319SOL    HW1 9969   4.125   3.232   2.083
 3319SOL    HW2 9970   4.195   3.273   1.941
 3320SOL     OW 9971   4.251   2.118   2.190
 3320SOL    HW1 9972   4.278   2.059   2.115
 3320SOL    HW2 9973   4.251   2.213   2.159
 3321SOL     OW 9974   4.639   1.951   3.264
 3321SOL    HW1 9975   4.664   1.931   3.169
 3321SOL    HW2 9976   4.711   2.007   3.306
 3322SOL     OW 9977   4.704   2.978   3.581
 3322SOL    HW1 9978   4.605   2.984   3.591
 3322SOL    HW2 9979   4.727   2.898   3.525
 3323SOL     OW 9980   4.429   2.912   2.230
 3323SOL    HW1 9981   4.415   2.919   2.329
 3323SOL    HW2 9982   4.513   2.861   2.212
 3324SOL     OW 9983   4.134   2.675   3.113
 3324SOL    HW1 9984   4.220   2.687   3.163
 3324SOL    HW2 9985   4.092   2.588   3.140
 3325SOL     OW 9986   3.788   3.426   3.193
 3325SOL    HW1 9987   3.742   3.508   3.159
 3325SOL    HW2 9988   3.886   3.445   3.202
 3326SOL     OW 9989   4.091   2.962   2.363
 3326SOL    HW1 9990   4.084   3.045   2.307
 3326SOL    HW2 9991   4.095   2.882   2.303
 3327SOL     OW 9992   4.290   2.399   2.727
 3327SOL    HW1 9993   4.302   2.465   2.653
 3327SOL    HW2 9994   4.336   2.433   2.810
 3328SOL     OW 9995   4.078   3.372   3.191
 3328SOL    HW1 9996   4.057   3.328   3.104
 3328SOL    HW2 9997   4.175   3.398   3.194
 3329SOL     OW 9998   4.126   2.613   3.460
 3329SOL    HW1 9999   4.194   2.668   3.413
 3329SOL    HW210000   4.166   2.525   3.487
 3330SOL     OW10001   4.737   1.967   3.632
 3330SOL    HW110002   4.743   2.052   3.580
 3330SOL    HW210003   4.769   1.891   3.575
 3331SOL     OW10004   4.228   1.912   3.602
 3331SOL    HW110005   4.186   1.855   3.532
 3331SOL    HW210006   4.162   1.981   3.634
 3332SOL     OW10007   4.297   2.732   2.891
 3332SOL    HW110008   4.341   2.821   2.882
 3332SOL    HW210009   4.234   2.732   2.968
 3333SOL     OW10010   4.933   2.387   2.137
 3333SOL    HW110011   4.946   2.303   2.191
 3333SOL    HW210012   4.904   2.461   2.197
 3334SOL     OW10013   4.031   2.075   3.093
 3334SOL    HW110014   4.008   2.112   3.183
 3334SOL    HW210015   4.001   1.980   3.087
 3335SOL     OW10016   3.761   3.172   3.144
 3335SOL    HW110017   3.814   3.123   3.212
 3335SOL    HW210018   3.783   3.270   3.149
 3336SOL     OW10019   4.456   2.496   2.926
 3336SOL    HW110020   4.515   2.470   2.850
 3336SOL    HW210021   4.428   2.592   2.915
 3337SOL     OW10022   4.031   1.925   2.480
 3337SOL    HW110023   4.020   2.019   2.513
 3337SOL    HW210024   4.026   1.862   2.557
 3338SOL     OW10025   4.747   2.628   2.828
 3338SOL    HW110026   4.762   2.649   2.924
 3338SOL    HW210027   4.717   2.533   2.819
 3339SOL     OW10028   4.704   3.435   3.562
 3339SOL    HW110029   4.684   3.479   3.474
 3339SOL    HW210030   4.743   3.344   3.546
 3340SOL     OW10031   4.074   2.760   3.666
 3340SOL    HW110032   4.150   2.804   3.714
 3340SOL    HW210033   4.109   2.713   3.584
 3341SOL     OW10034   4.043   2.672   2.811
 3341SOL    HW110035   4.136   2.708   2.816
 3341SOL    HW210036   4.037   2.587   2.863
 3342SOL     OW10037   4.063   2.371   2.868
 3342SOL    HW110038   4.011   2.288   2.851
 3342SOL    HW210039   4.140   2.376   2.804
 3343SOL     OW10040   3.732   3.188   2.062
 3343SOL    HW110041   3.639   3.209   2.031
 3343SOL    HW210042   3.742   3.089   2.075
 3344SOL     OW10043   3.812   3.663   2.789
 3344SOL    HW110044   3.770   3.577   2.762
 3344SOL    HW210045   3.906   3.666   2.755
 3345SOL     OW10046   4.228   3.430   2.772
 3345SOL    HW110047   4.294   3.504   2.781
 3345SOL    HW210048   4.272   3.351   2.730
 3346SOL     OW10049   4.726   2.658   3.100
 3346SOL    HW110050   4.767   2.626   3.186
 3346SOL    HW210051   4.630   2.631   3.097
 3347SOL     OW10052   3.764   2.406   2.976
 3347SOL    HW110053   3.849   2.373   2.935
 3347SOL    HW210054   3.777   2.421   3.074
 3348SOL     OW10055   3.913   2.382   3.584
 3348SOL    HW110056   3.972   2.342   3.514
 3348SOL    HW210057   3.855   2.453   3.543
 3349SOL     OW10058   4.539   2.434   2.187
 3349SOL    HW110059   4.546   2.345   2.141
 3349SOL    HW210060   4.445   2.468   2.179
 3350SOL     OW10061   3.976   3.426   3.606
 3350SOL    HW110062   3.946   3.483   3.682
 3350SOL    HW210063   3.969   3.329   3.632
 3351SOL     OW10064   4.395   2.326   3.131
 3351SOL    HW110065   4.361   2.237   3.101
 3351SOL    HW210066   4.421   2.380   3.051
 3352SOL     OW10067   4.654   3.540   3.327
 3352SOL    HW110068   4.630   3.522   3.232
 3352SOL    HW210069   4.684   3.634   3.337
 3353SOL     OW10070   4.197   2.362   2.053
 3353SOL    HW110071   4.258   2.442   2.057
 3353SOL    HW210072   4.102   2.393   2.060
 3354SOL     OW10073   3.883   2.999   3.328
 3354SOL    HW110074   3.905   2.938   3.404
 3354SOL    HW210075   3.893   2.950   3.242
 3355SOL     OW10076   3.807   3.120   2.884
 3355SOL    HW110077   3.802   3.119   2.984
 3355SOL    HW210078   3.724   3.079   2.846
 3356SOL     OW10079   4.412   3.524   3.578
 3356SOL    HW110080   4.356   3.605   3.587
 3356SOL    HW210081   4.464   3.528   3.492
 3357SOL     OW10082   3.854   3.656   3.713
 3357SOL    HW110083   3.813   3.582   3.766
 3357SOL    HW210084   3.918   3.707   3.771
 3358SOL     OW10085   5.004   2.789   2.534
 3358SOL    HW110086   5.064   2.708   2.536
 3358SOL    HW210087   5.044   2.858   2.474
 3359SOL     OW10088   4.554   3.135   3.284
 3359SOL    HW110089   4.549   3.168   3.379
 3359SOL    HW210090   4.468   3.154   3.238
 3360SOL     OW10091   4.396   3.478   2.016
 3360SOL    HW110092   4.405   3.488   1.917
 3360SOL    HW210093   4.356   3.389   2.037
 3361SOL     OW10094   3.987   2.188   2.582
 3361SOL    HW110095   3.908   2.239   2.548
 3361SOL    HW210096   3.978   2.173   2.680
 3362SOL     OW10097   4.546   2.864   3.234
 3362SOL    HW110098   4.586   2.863   3.142
 3362SOL    HW210099   4.556   2.956   3.274
 3363SOL     OW10100   4.640   2.772   2.153
 3363SOL    HW110101   4.703   2.810   2.085
 3363SOL    HW210102   4.680   2.689   2.192
 3364SOL     OW10103   4.096   3.150   3.352
 3364SOL    HW110104   4.083   3.243   3.318
 3364SOL    HW210105   4.012   3.098   3.339
 3365SOL     OW10106   4.738   2.098   2.833
 3365SOL    HW110107   4.730   2.062   2.740
 3365SOL    HW210108   4.736   2.022   2.898
 3366SOL     OW10109   4.314   3.349   2.353
 3366SOL    HW110110   4.356   3.291   2.283
 3366SOL    HW210111   4.270   3.428   2.309
 3367SOL     OW10112   3.979   3.210   2.152
 3367SOL    HW110113   3.883   3.211   2.125
 3367SOL    HW210114   3.991   3.263   2.236
 3368SOL     OW10115   3.829   2.875   3.588
 3368SOL    HW110116   3.752   2.842   3.642
 3368SOL    HW210117   3.914   2.845   3.630
 3369SOL     OW10118   4.396   2.065   3.351
 3369SOL    HW110119   4.486   2.049   3.311
 3369SOL    HW210120   4.404   2.070   3.450
 3370SOL     OW10121   3.799   2.207   1.895
 3370SOL    HW110122   3.707   2.179   1.866
 3370SOL    HW210123   3.830   2.284   1.839
 3371SOL     OW10124   3.796   2.028   2.180
 3371SOL    HW110125   3.779   2.111   2.126
 3371SOL    HW210126   3.886   1.991   2.158
 3372SOL     OW10127   4.337   2.704   3.293
 3372SOL    HW110128   4.393   2.785   3.276
 3372SOL    HW210129   4.396   2.624   3.296
 3373SOL     OW10130   4.440   2.427   3.570
 3373SOL    HW110131   4.459   2.492   3.644
 3373SOL    HW210132   4.500   2.347   3.579
 3374SOL     OW10133   4.114   3.603   3.422
 3374SOL    HW110134   4.023   3.644   3.420
 3374SOL    HW210135   4.107   3.509   3.454
 3375SOL     OW10136   4.949   2.187   2.311
 3375SOL    HW110137   5.014   2.113   2.300
 3375SOL    HW210138   4.969   2.237   2.395
 3376SOL     OW10139   4.318   2.607   2.514
 3376SOL    HW110140   4.368   2.692   2.495
 3376SOL    HW210141   4.230   2.609   2.466
 3377SOL     OW10142   4.583   3.236   1.878
 3377SOL    HW110143   4.537   3.251   1.966
 3377SOL    HW210144   4.627   3.321   1.848
 3378SOL     OW10145   4.385   3.652   2.815
 3378SOL    HW110146   4.339   3.740   2.802
 3378SOL    HW210147   4.484   3.664   2.808
 3379SOL     OW10148   4.583   2.818   2.723
 3379SOL    HW110149   4.637   2.749   2.771
 3379SOL    HW210150   4.551   2.887   2.789
 3380SOL     OW10151   3.945   3.176   3.706
 3380SOL    HW110152   3.880   3.103   3.685
 3380SOL    HW210153   3.949   3.190   3.804
 3381SOL     OW10154   3.803   3.102   2.515
 3381SOL    HW110155   3.802   3.055   2.603
 3381SOL    HW210156   3.885   3.074   2.464
 3382SOL     OW10157   4.396   3.253   3.486
 3382SOL    HW110158   4.318   3.203   3.524
 3382SOL    HW210159   4.393   3.348   3.517
 3383SOL     OW10160   4.152   2.286   2.382
 3383SOL    HW110161   4.182   2.214   2.320
 3383SOL    HW210162   4.113   2.246   2.465
 3384SOL     OW10163   4.041   2.409   3.142
 3384SOL    HW110164   4.079   2.350   3.214
 3384SOL    HW210165   4.081   2.383   3.054
 3385SOL     OW10166   4.536   3.448   2.549
 3385SOL    HW110167   4.568   3.458   2.455
 3385SOL    HW210168   4.457   3.386   2.551
 3386SOL     OW10169   4.725   1.896   3.016
 3386SOL    HW110170   4.662   1.824   2.985
 3386SOL    HW210171   4.818   1.860   3.016
 3387SOL     OW10172   4.494   3.192   2.163
 3387SOL    HW110173   4.448   3.105   2.180
 3387SOL    HW210174   4.585   3.189   2.204
 3388SOL     OW10175   4.342   3.429   3.146
 3388SOL    HW110176   4.337   3.511   3.203
 3388SOL    HW210177   4.431   3.426   3.101
 3389SOL     OW10178   3.763   2.939   2.162
 3389SOL    HW110179   3.862   2.928   2.153
 3389SOL    HW210180   3.723   2.853   2.194
 3390SOL     OW10181   4.599   3.508   2.199
 3390SOL    HW110182   4.522   3.473   2.145
 3390SOL    HW210183   4.567   3.579   2.261
 3391SOL     OW10184   3.954   2.490   3.837
 3391SOL    HW110185   3.861   2.488   3.874
 3391SOL    HW210186   3.955   2.451   3.745
 3392SOL     OW10187   3.949   2.137   4.720
 3392SOL    HW110188   3.984   2.120   4.812
 3392SOL    HW210189   3.861   2.092   4.708
 3393SOL     OW10190   3.743   2.230   4.371
 3393SOL    HW110191   3.661   2.273   4.410
 3393SOL    HW210192   3.715   2.157   4.308
 3394SOL     OW10193   4.492   3.006   4.747
 3394SOL    HW110194   4.414   3.023   4.807
 3394SOL    HW210195   4.526   3.093   4.711
 3395SOL     OW10196   4.409   2.874   4.389
 3395SOL    HW110197   4.478   2.858   4.459
 3395SOL    HW210198   4.336   2.931   4.427
 3396SOL     OW10199   4.059   3.297   4.785
 3396SOL    HW110200   3.981   3.266   4.732
 3396SOL    HW210201   4.117   3.355   4.728
 3397SOL     OW10202   3.955   3.575   4.207
 3397SOL    HW110203   3.989   3.652   4.261
 3397SOL    HW210204   3.999   3.575   4.117
 3398SOL     OW10205   3.954   3.296   4.262
 3398SOL    HW110206   3.928   3.392   4.262
 3398SOL    HW210207   3.883   3.242   4.307
 3399SOL     OW10208   3.964   2.953   4.610
 3399SOL    HW110209   3.978   2.869   4.662
 3399SOL    HW210210   3.909   3.017   4.665
 3400SOL     OW10211   4.330   2.826   3.847
 3400SOL    HW110212   4.337   2.910   3.793
 3400SOL    HW210213   4.376   2.839   3.935
 3401SOL     OW10214   3.846   2.505   4.287
 3401SOL    HW110215   3.801   2.417   4.304
 3401SOL    HW210216   3.845   2.559   4.371
 3402SOL     OW10217   3.751   3.458   3.841
 3402SOL    HW110218   3.732   3.362   3.862
 3402SOL    HW210219   3.718   3.516   3.916
 3403SOL     OW10220   4.337   3.227   4.450
 3403SOL    HW110221   4.288   3.140   4.459
 3403SOL    HW210222   4.314   3.270   4.363
 3404SOL     OW10223   4.533   1.866   4.226
 3404SOL    HW110224   4.573   1.957   4.217
 3404SOL    HW210225   4.433   1.874   4.232
 3405SOL     OW10226   4.322   2.591   3.994
 3405SOL    HW110227   4.346   2.660   3.926
 3405SOL    HW210228   4.244   2.624   4.048
 3406SOL     OW10229   3.800   2.673   4.513
 3406SOL    HW110230   3.899   2.661   4.522
 3406SOL    HW210231   3.776   2.768   4.534
 3407SOL     OW10232   4.589   2.210   3.919
 3407SOL    HW110233   4.648   2.273   3.870
 3407SOL    HW210234   4.608   2.116   3.890
 3408SOL     OW10235   4.274   2.058   4.609
 3408SOL    HW110236   4.269   2.053   4.709
 3408SOL    HW210237   4.276   2.154   4.580
 3409SOL     OW10238   4.732   3.318   4.201
 3409SOL    HW110239   4.686   3.390   4.149
 3409SOL    HW210240   4.728   3.338   4.299
 3410SOL     OW10241   4.075   3.663   4.577
 3410SOL    HW110242   4.125   3.577   4.583
 3410SOL    HW210243   4.140   3.740   4.574
 3411SOL     OW10244   4.045   2.805   3.966
 3411SOL    HW110245   4.127   2.844   3.924
 3411SOL    HW210246   4.018   2.723   3.917
 3412SOL     OW10247   4.188   3.605   4.047
 3412SOL    HW110248   4.221   3.644   4.133
 3412SOL    HW210249   4.264   3.598   3.982
 3413SOL     OW10250   3.973   3.647   4.965
 3413SOL    HW110251   4.030   3.582   5.015
 3413SOL    HW210252   3.957   3.614   4.872
 3414SOL     OW10253   4.106   2.562   4.204
 3414SOL    HW110254   4.151   2.472   4.201
 3414SOL    HW210255   4.012   2.551   4.237
 3415SOL     OW10256   4.338   1.984   3.841
 3415SOL    HW110257   4.436   1.962   3.848
 3415SOL    HW210258   4.307   1.967   3.748
 3416SOL     OW10259   4.527   3.264   4.648
 3416SOL    HW110260   4.617   3.278   4.606
 3416SOL    HW210261   4.456   3.266   4.577
 3417SOL     OW10262   4.646   2.365   4.623
 3417SOL    HW110263   4.621   2.356   4.527
 3417SOL    HW210264   4.694   2.283   4.654
 3418SOL     OW10265   4.263   1.926   4.236
 3418SOL    HW110266   4.182   1.927   4.294
 3418SOL    HW210267   4.266   2.009   4.181
 3419SOL     OW10268   4.021   1.897   3.895
 3419SOL    HW110269   4.070   1.981   3.874
 3419SOL    HW210270   4.083   1.832   3.940
 3420SOL     OW10271   4.659   2.098   4.204
 3420SOL    HW110272   4.611   2.139   4.126
 3420SOL    HW210273   4.758   2.096   4.185
 3421SOL     OW10274   4.951   3.432   4.517
 3421SOL    HW110275   4.972   3.506   4.452
 3421SOL    HW210276   5.019   3.432   4.590
 3422SOL     OW10277   4.183   3.014   4.465
 3422SOL    HW110278   4.112   2.987   4.530
 3422SOL    HW210279   4.157   2.986   4.372
 3423SOL     OW10280   4.756   2.411   3.740
 3423SOL    HW110281   4.715   2.493   3.701
 3423SOL    HW210282   4.820   2.437   3.813
 3424SOL     OW10283   4.590   2.316   4.366
 3424SOL    HW110284   4.558   2.388   4.304
 3424SOL    HW210285   4.614   2.235   4.313
 3425SOL     OW10286   4.741   1.901   4.477
 3425SOL    HW110287   4.669   1.906   4.408
 3425SOL    HW210288   4.717   1.832   4.546
 3426SOL     OW10289   4.212   3.247   3.898
 3426SOL    HW110290   4.125   3.232   3.945
 3426SOL    HW210291   4.195   3.273   3.803
 3427SOL     OW10292   4.251   2.118   4.052
 3427SOL    HW110293   4.278   2.059   3.977
 3427SOL    HW210294   4.251   2.213   4.021
 3428SOL     OW10295   4.429   2.912   4.092
 3428SOL    HW110296   4.415   2.919   4.191
 3428SOL    HW210297   4.513   2.861   4.074
 3429SOL     OW10298   4.091   2.962   4.225
 3429SOL    HW110299   4.084   3.045   4.169
 3429SOL    HW210300   4.095   2.882   4.165
 3430SOL     OW10301   4.290   2.399   4.589
 3430SOL    HW110302   4.302   2.465   4.515
 3430SOL    HW210303   4.336   2.433   4.672
 3431SOL     OW10304   4.297   2.732   4.753
 3431SOL    HW110305   4.341   2.821   4.744
 3431SOL    HW210306   4.234   2.732   4.830
 3432SOL     OW10307   4.933   2.387   3.999
 3432SOL    HW110308   4.946   2.303   4.053
 3432SOL    HW210309   4.904   2.461   4.059
 3433SOL     OW10310   4.031   2.075   4.955
 3433SOL    HW110311   4.008   2.112   5.045
 3433SOL    HW210312   4.001   1.980   4.949
 3434SOL     OW10313   4.456   2.496   4.788
 3434SOL    HW110314   4.515   2.470   4.712
 3434SOL    HW210315   4.428   2.592   4.777
 3435SOL     OW10316   4.031   1.925   4.342
 3435SOL    HW110317   4.020   2.019   4.375
 3435SOL    HW210318   4.026   1.862   4.419
 3436SOL     OW10319   4.043   2.672   4.673
 3436SOL    HW110320   4.136   2.708   4.678
 3436SOL    HW210321   4.037   2.587   4.725
 3437SOL     OW10322   4.063   2.371   4.730
 3437SOL    HW110323   4.011   2.288   4.713
 3437SOL    HW210324   4.140   2.376   4.666
 3438SOL     OW10325   3.732   3.188   3.924
 3438SOL    HW110326   3.639   3.209   3.893
 3438SOL    HW210327   3.742   3.089   3.937
 3439SOL     OW10328   3.812   3.663   4.651
 3439SOL    HW110329   3.770   3.577   4.624
 3439SOL    HW210330   3.906   3.666   4.617
 3440SOL     OW10331   4.228   3.430   4.634
 3440SOL    HW110332   4.294   3.504   4.643
 3440SOL    HW210333   4.272   3.351   4.592
 3441SOL     OW10334   4.539   2.434   4.049
 3441SOL    HW110335   4.546   2.345   4.003
 3441SOL    HW210336   4.445   2.468   4.041
 3442SOL     OW10337   4.395   2.326   4.993
 3442SOL    HW110338   4.361   2.237   4.963
 3442SOL    HW210339   4.421   2.380   4.913
 3443SOL     OW10340   4.197   2.362   3.915
 3443SOL    HW110341   4.258   2.442   3.919
 3443SOL    HW210342   4.102   2.393   3.922
 3444SOL     OW10343   3.807   3.120   4.746
 3444SOL    HW110344   3.802   3.119   4.846
 3444SOL    HW210345   3.724   3.079   4.708
 3445SOL     OW10346   5.004   2.789   4.396
 3445SOL    HW110347   5.064   2.708   4.398
 3445SOL    HW210348   5.044   2.858   4.336
 3446SOL     OW10349   4.396   3.478   3.878
 3446SOL    HW110350   4.405   3.488   3.779
 3446SOL    HW210351   4.356   3.389   3.899
 3447SOL     OW10352   3.987   2.188   4.444
 3447SOL    HW110353   3.908   2.239   4.410
 3447SOL    HW210354   3.978   2.173   4.542
 3448SOL     OW10355   4.640   2.772   4.015
 3448SOL    HW110356   4.703   2.810   3.947
 3448SOL    HW210357   4.680   2.689   4.054
 3449SOL     OW10358   4.314   3.349   4.215
 3449SOL    HW110359   4.356   3.291   4.145
 3449SOL    HW210360   4.270   3.428   4.171
 3450SOL     OW10361   3.979   3.210   4.014
 3450SOL    HW110362   3.883   3.211   3.987
 3450SOL    HW210363   3.991   3.263   4.098
 3451SOL     OW10364   3.799   2.207   3.757
 3451SOL    HW110365   3.707   2.179   3.728
 3451SOL    HW210366   3.830   2.284   3.701
 3452SOL     OW10367   3.796   2.028   4.042
 3452SOL    HW110368   3.779   2.111   3.988
 3452SOL    HW210369   3.886   1.991   4.020
 3453SOL     OW10370   4.949   2.187   4.173
 3453SOL    HW110371   5.014   2.113   4.162
 3453SOL    HW210372   4.969   2.237   4.257
 3454SOL     OW10373   4.318   2.607   4.376
 3454SOL    HW110374   4.368   2.692   4.357
 3454SOL    HW210375   4.230   2.609   4.328
 3455SOL     OW10376   4.583   3.236   3.740
 3455SOL    HW110377   4.537   3.251   3.828
 3455SOL    HW210378   4.627   3.321   3.710
 3456SOL     OW10379   4.385   3.652   4.677
 3456SOL    HW110380   4.339   3.740   4.664
 3456SOL    HW210381   4.484   3.664   4.670
 3457SOL     OW10382   4.583   2.818   4.585
 3457SOL    HW110383   4.637   2.749   4.633
 3457SOL    HW210384   4.551   2.887   4.651
 3458SOL     OW10385   3.803   3.102   4.377
 3458SOL    HW110386   3.802   3.055   4.465
 3458SOL    HW210387   3.885   3.074   4.326
 3459SOL     OW10388   4.152   2.286   4.244
 3459SOL    HW110389   4.182   2.214   4.182
 3459SOL    HW210390   4.113   2.246   4.327
 3460SOL     OW10391   4.536   3.448   4.411
 3460SOL    HW110392   4.568   3.458   4.317
 3460SOL    HW210393   4.457   3.386   4.413
 3461SOL     OW10394   4.494   3.192   4.025
 3461SOL    HW110395   4.448   3.105   4.042
 3461SOL    HW210396   4.585   3.189   4.066
 3462SOL     OW10397   3.763   2.939   4.024
 3462SOL    HW110398   3.862   2.928   4.015
 3462SOL    HW210399   3.723   2.853   4.056
 3463SOL     OW10400   4.599   3.508   4.061
 3463SOL    HW110401   4.522   3.473   4.007
 3463SOL    HW210402   4.567   3.579   4.123
 3464SOL     OW10403   3.954   4.352   0.113
 3464SOL    HW110404   3.861   4.350   0.150
 3464SOL    HW210405   3.955   4.313   0.021
 3465SOL     OW10406   3.949   3.999   0.996
 3465SOL    HW110407   3.984   3.982   1.088
 3465SOL    HW210408   3.861   3.954   0.984
 3466SOL     OW10409   3.743   4.092   0.647
 3466SOL    HW110410   3.661   4.135   0.686
 3466SOL    HW210411   3.715   4.019   0.584
 3467SOL     OW10412   4.492   4.868   1.023
 3467SOL    HW110413   4.414   4.885   1.083
 3467SOL    HW210414   4.526   4.955   0.987
 3468SOL     OW10415   4.574   4.522   1.823
 3468SOL    HW110416   4.570   4.598   1.888
 3468SOL    HW210417   4.596   4.558   1.732
 3469SOL     OW10418   4.409   4.736   0.665
 3469SOL    HW110419   4.478   4.720   0.735
 3469SOL    HW210420   4.336   4.793   0.703
 3470SOL     OW10421   4.162   4.116   1.499
 3470SOL    HW110422   4.244   4.060   1.508
 3470SOL    HW210423   4.081   4.058   1.503
 3471SOL     OW10424   3.964   4.815   0.886
 3471SOL    HW110425   3.978   4.731   0.938
 3471SOL    HW210426   3.909   4.879   0.941
 3472SOL     OW10427   4.330   4.688   0.123
 3472SOL    HW110428   4.337   4.772   0.069
 3472SOL    HW210429   4.376   4.701   0.211
 3473SOL     OW10430   3.846   4.367   0.563
 3473SOL    HW110431   3.801   4.279   0.580
 3473SOL    HW210432   3.845   4.421   0.647
 3474SOL     OW10433   3.837   4.461   1.597
 3474SOL    HW110434   3.925   4.448   1.642
 3474SOL    HW210435   3.824   4.558   1.575
 3475SOL     OW10436   4.533   3.728   0.502
 3475SOL    HW110437   4.573   3.819   0.493
 3475SOL    HW210438   4.433   3.736   0.508
 3476SOL     OW10439   3.921   4.700   1.264
 3476SOL    HW110440   4.010   4.655   1.250
 3476SOL    HW210441   3.848   4.635   1.245
 3477SOL     OW10442   4.041   3.975   1.801
 3477SOL    HW110443   4.112   4.046   1.807
 3477SOL    HW210444   3.953   4.014   1.829
 3478SOL     OW10445   4.322   4.453   0.270
 3478SOL    HW110446   4.346   4.522   0.202
 3478SOL    HW210447   4.244   4.486   0.324
 3479SOL     OW10448   4.531   4.329   1.465
 3479SOL    HW110449   4.484   4.326   1.554
 3479SOL    HW210450   4.480   4.274   1.399
 3480SOL     OW10451   4.697   4.614   1.572
 3480SOL    HW110452   4.743   4.530   1.543
 3480SOL    HW210453   4.641   4.648   1.497
 3481SOL     OW10454   4.715   4.134   1.242
 3481SOL    HW110455   4.638   4.168   1.296
 3481SOL    HW210456   4.681   4.083   1.163
 3482SOL     OW10457   3.800   4.535   0.789
 3482SOL    HW110458   3.899   4.523   0.798
 3482SOL    HW210459   3.776   4.630   0.810
 3483SOL     OW10460   4.589   4.072   0.195
 3483SOL    HW110461   4.648   4.135   0.146
 3483SOL    HW210462   4.608   3.978   0.166
 3484SOL     OW10463   4.274   3.920   0.885
 3484SOL    HW110464   4.269   3.915   0.985
 3484SOL    HW210465   4.276   4.016   0.856
 3485SOL     OW10466   3.926   4.009   1.498
 3485SOL    HW110467   3.846   4.069   1.485
 3485SOL    HW210468   3.916   3.960   1.584
 3486SOL     OW10469   4.106   4.424   0.480
 3486SOL    HW110470   4.151   4.334   0.477
 3486SOL    HW210471   4.012   4.413   0.513
 3487SOL     OW10472   4.338   3.846   0.117
 3487SOL    HW110473   4.436   3.824   0.124
 3487SOL    HW210474   4.307   3.829   0.024
 3488SOL     OW10475   4.505   3.988   1.749
 3488SOL    HW110476   4.572   3.927   1.792
 3488SOL    HW210477   4.432   4.007   1.814
 3489SOL     OW10478   4.646   4.227   0.899
 3489SOL    HW110479   4.621   4.218   0.803
 3489SOL    HW210480   4.694   4.145   0.930
 3490SOL     OW10481   4.263   3.788   0.512
 3490SOL    HW110482   4.182   3.789   0.570
 3490SOL    HW210483   4.266   3.871   0.457
 3491SOL     OW10484   4.659   3.960   0.480
 3491SOL    HW110485   4.611   4.001   0.402
 3491SOL    HW210486   4.758   3.958   0.461
 3492SOL     OW10487   4.756   4.273   0.016
 3492SOL    HW110488   4.715   4.355  -0.023
 3492SOL    HW210489   4.820   4.299   0.089
 3493SOL     OW10490   3.802   4.280   1.386
 3493SOL    HW110491   3.894   4.279   1.345
 3493SOL    HW210492   3.796   4.354   1.453
 3494SOL     OW10493   4.285   3.946   1.147
 3494SOL    HW110494   4.323   3.862   1.184
 3494SOL    HW210495   4.197   3.965   1.191
 3495SOL     OW10496   4.590   4.178   0.642
 3495SOL    HW110497   4.558   4.250   0.580
 3495SOL    HW210498   4.614   4.097   0.589
 3496SOL     OW10499   4.741   3.763   0.753
 3496SOL    HW110500   4.669   3.768   0.684
 3496SOL    HW210501   4.717   3.694   0.822
 3497SOL     OW10502   4.251   3.980   0.328
 3497SOL    HW110503   4.278   3.921   0.253
 3497SOL    HW210504   4.251   4.075   0.297
 3498SOL     OW10505   4.639   3.813   1.402
 3498SOL    HW110506   4.664   3.793   1.307
 3498SOL    HW210507   4.711   3.869   1.444
 3499SOL     OW10508   4.134   4.537   1.251
 3499SOL    HW110509   4.220   4.549   1.301
 3499SOL    HW210510   4.092   4.450   1.278
 3500SOL     OW10511   4.290   4.261   0.865
 3500SOL    HW110512   4.302   4.327   0.791
 3500SOL    HW210513   4.336   4.295   0.948
 3501SOL     OW10514   4.126   4.475   1.598
 3501SOL    HW110515   4.194   4.530   1.551
 3501SOL    HW210516   4.166   4.387   1.625
 3502SOL     OW10517   4.737   3.829   1.770
 3502SOL    HW110518   4.743   3.914   1.718
 3502SOL    HW210519   4.769   3.753   1.713
 3503SOL     OW10520   4.228   3.774   1.740
 3503SOL    HW110521   4.186   3.717   1.670
 3503SOL    HW210522   4.162   3.843   1.772
 3504SOL     OW10523   4.297   4.594   1.029
 3504SOL    HW110524   4.341   4.683   1.020
 3504SOL    HW210525   4.234   4.594   1.106
 3505SOL     OW10526   4.933   4.249   0.275
 3505SOL    HW110527   4.946   4.165   0.329
 3505SOL    HW210528   4.904   4.323   0.335
 3506SOL     OW10529   4.031   3.937   1.231
 3506SOL    HW110530   4.008   3.974   1.321
 3506SOL    HW210531   4.001   3.842   1.225
 3507SOL     OW10532   4.456   4.358   1.064
 3507SOL    HW110533   4.515   4.332   0.988
 3507SOL    HW210534   4.428   4.454   1.053
 3508SOL     OW10535   4.031   3.787   0.618
 3508SOL    HW110536   4.020   3.881   0.651
 3508SOL    HW210537   4.026   3.724   0.695
 3509SOL     OW10538   4.747   4.490   0.966
 3509SOL    HW110539   4.762   4.511   1.062
 3509SOL    HW210540   4.717   4.395   0.957
 3510SOL     OW10541   4.074   4.622   1.804
 3510SOL    HW110542   4.150   4.666   1.852
 3510SOL    HW210543   4.109   4.575   1.722
 3511SOL     OW10544   4.043   4.534   0.949
 3511SOL    HW110545   4.136   4.570   0.954
 3511SOL    HW210546   4.037   4.449   1.001
 3512SOL     OW10547   4.063   4.233   1.006
 3512SOL    HW110548   4.011   4.150   0.989
 3512SOL    HW210549   4.140   4.238   0.942
 3513SOL     OW10550   4.726   4.520   1.238
 3513SOL    HW110551   4.767   4.488   1.324
 3513SOL    HW210552   4.630   4.493   1.235
 3514SOL     OW10553   3.764   4.268   1.114
 3514SOL    HW110554   3.849   4.235   1.073
 3514SOL    HW210555   3.777   4.283   1.212
 3515SOL     OW10556   3.913   4.244   1.722
 3515SOL    HW110557   3.972   4.204   1.652
 3515SOL    HW210558   3.855   4.315   1.681
 3516SOL     OW10559   4.539   4.296   0.325
 3516SOL    HW110560   4.546   4.207   0.279
 3516SOL    HW210561   4.445   4.330   0.317
 3517SOL     OW10562   4.395   4.188   1.269
 3517SOL    HW110563   4.361   4.099   1.239
 3517SOL    HW210564   4.421   4.242   1.189
 3518SOL     OW10565   4.197   4.224   0.191
 3518SOL    HW110566   4.258   4.304   0.195
 3518SOL    HW210567   4.102   4.255   0.198
 3519SOL     OW10568   3.883   4.861   1.466
 3519SOL    HW110569   3.905   4.800   1.542
 3519SOL    HW210570   3.893   4.812   1.380
 3520SOL     OW10571   5.026   4.579   0.309
 3520SOL    HW110572   4.940   4.548   0.351
 3520SOL    HW210573   5.022   4.565   0.210
 3521SOL     OW10574   4.627   3.810   0.133
 3521SOL    HW110575   4.678   3.811   0.047
 3521SOL    HW210576   4.683   3.768   0.204
 3522SOL     OW10577   3.987   4.050   0.720
 3522SOL    HW110578   3.908   4.101   0.686
 3522SOL    HW210579   3.978   4.035   0.818
 3523SOL     OW10580   4.640   4.634   0.291
 3523SOL    HW110581   4.703   4.672   0.223
 3523SOL    HW210582   4.680   4.551   0.330
 3524SOL     OW10583   4.738   3.960   0.971
 3524SOL    HW110584   4.730   3.924   0.878
 3524SOL    HW210585   4.736   3.884   1.036
 3525SOL     OW10586   3.829   4.737   1.726
 3525SOL    HW110587   3.752   4.704   1.780
 3525SOL    HW210588   3.914   4.707   1.768
 3526SOL     OW10589   4.396   3.927   1.489
 3526SOL    HW110590   4.486   3.911   1.449
 3526SOL    HW210591   4.404   3.932   1.588
 3527SOL     OW10592   3.799   4.069   0.033
 3527SOL    HW110593   3.707   4.041   0.004
 3527SOL    HW210594   3.830   4.146  -0.023
 3528SOL     OW10595   3.796   3.890   0.318
 3528SOL    HW110596   3.779   3.973   0.264
 3528SOL    HW210597   3.886   3.853   0.296
 3529SOL     OW10598   4.337   4.566   1.431
 3529SOL    HW110599   4.393   4.647   1.414
 3529SOL    HW210600   4.396   4.486   1.434
 3530SOL     OW10601   4.440   4.289   1.708
 3530SOL    HW110602   4.459   4.354   1.782
 3530SOL    HW210603   4.500   4.209   1.717
 3531SOL     OW10604   4.949   4.049   0.449
 3531SOL    HW110605   5.014   3.975   0.438
 3531SOL    HW210606   4.969   4.099   0.533
 3532SOL     OW10607   4.318   4.469   0.652
 3532SOL    HW110608   4.368   4.554   0.633
 3532SOL    HW210609   4.230   4.471   0.604
 3533SOL     OW10610   4.583   4.680   0.861
 3533SOL    HW110611   4.637   4.611   0.909
 3533SOL    HW210612   4.551   4.749   0.927
 3534SOL     OW10613   4.807   4.708   0.087
 3534SOL    HW110614   4.784   4.761   0.005
 3534SOL    HW210615   4.888   4.652   0.068
 3535SOL     OW10616   3.803   4.964   0.653
 3535SOL    HW110617   3.802   4.917   0.741
 3535SOL    HW210618   3.885   4.936   0.602
 3536SOL     OW10619   4.152   4.148   0.520
 3536SOL    HW110620   4.182   4.076   0.458
 3536SOL    HW210621   4.113   4.108   0.603
 3537SOL     OW10622   4.041   4.271   1.280
 3537SOL    HW110623   4.079   4.212   1.352
 3537SOL    HW210624   4.081   4.245   1.192
 3538SOL     OW10625   4.725   3.758   1.154
 3538SOL    HW110626   4.662   3.686   1.123
 3538SOL    HW210627   4.818   3.722   1.154
 3539SOL     OW10628   3.954   4.352   1.975
 3539SOL    HW110629   3.861   4.350   2.012
 3539SOL    HW210630   3.955   4.313   1.883
 3540SOL     OW10631   3.949   3.999   2.858
 3540SOL    HW110632   3.984   3.982   2.950
 3540SOL    HW210633   3.861   3.954   2.846
 3541SOL     OW10634   3.743   4.092   2.509
 3541SOL    HW110635   3.661   4.135   2.548
 3541SOL    HW210636   3.715   4.019   2.446
 3542SOL     OW10637   4.492   4.868   2.885
 3542SOL    HW110638   4.414   4.885   2.945
 3542SOL    HW210639   4.526   4.955   2.849
 3543SOL     OW10640   4.574   4.522   3.685
 3543SOL    HW110641   4.570   4.598   3.750
 3543SOL    HW210642   4.596   4.558   3.594
 3544SOL     OW10643   4.409   4.736   2.527
 3544SOL    HW110644   4.478   4.720   2.597
 3544SOL    HW210645   4.336   4.793   2.565
 3545SOL     OW10646   4.162   4.116   3.361
 3545SOL    HW110647   4.244   4.060   3.370
 3545SOL    HW210648   4.081   4.058   3.365
 3546SOL     OW10649   3.964   4.815   2.748
 3546SOL    HW110650   3.978   4.731   2.800
 3546SOL    HW210651   3.909   4.879   2.803
 3547SOL     OW10652   4.330   4.688   1.985
 3547SOL    HW110653   4.337   4.772   1.931
 3547SOL    HW210654   4.376   4.701   2.073
 3548SOL     OW10655   3.846   4.367   2.425
 3548SOL    HW110656   3.801   4.279   2.442
 3548SOL    HW210657   3.845   4.421   2.509
 3549SOL     OW10658   3.837   4.461   3.459
 3549SOL    HW110659   3.925   4.448   3.504
 3549SOL    HW210660   3.824   4.558   3.437
 3550SOL     OW10661   4.533   3.728   2.364
 3550SOL    HW110662   4.573   3.819   2.355
 3550SOL    HW210663   4.433   3.736   2.370
 3551SOL     OW10664   3.921   4.700   3.126
 3551SOL    HW110665   4.010   4.655   3.112
 3551SOL    HW210666   3.848   4.635   3.107
 3552SOL     OW10667   4.041   3.975   3.663
 3552SOL    HW110668   4.112   4.046   3.669
 3552SOL    HW210669   3.953   4.014   3.691
 3553SOL     OW10670   4.322   4.453   2.132
 3553SOL    HW110671   4.346   4.522   2.064
 3553SOL    HW210672   4.244   4.486   2.186
 3554SOL     OW10673   4.531   4.329   3.327
 3554SOL    HW110674   4.484   4.326   3.416
 3554SOL    HW210675   4.480   4.274   3.261
 3555SOL     OW10676   4.697   4.614   3.434
 3555SOL    HW110677   4.743   4.530   3.405
 3555SOL    HW210678   4.641   4.648   3.359
 3556SOL     OW10679   4.715   4.134   3.104
 3556SOL    HW110680   4.638   4.168   3.158
 3556SOL    HW210681   4.681   4.083   3.025
 3557SOL     OW10682   3.800   4.535   2.651
 3557SOL    HW110683   3.899   4.523   2.660
 3557SOL    HW210684   3.776   4.630   2.672
 3558SOL     OW10685   4.589   4.072   2.057
 3558SOL    HW110686   4.648   4.135   2.008
 3558SOL    HW210687   4.608   3.978   2.028
 3559SOL     OW10688   4.274   3.920   2.747
 3559SOL    HW110689   4.269   3.915   2.847
 3559SOL    HW210690   4.276   4.016   2.718
 3560SOL     OW10691   3.926   4.009   3.360
 3560SOL    HW110692   3.846   4.069   3.347
 3560SOL    HW210693   3.916   3.960   3.446
 3561SOL     OW10694   4.106   4.424   2.342
 3561SOL    HW110695   4.151   4.334   2.339
 3561SOL    HW210696   4.012   4.413   2.375
 3562SOL     OW10697   4.338   3.846   1.979
 3562SOL    HW110698   4.436   3.824   1.986
 3562SOL    HW210699   4.307   3.829   1.886
 3563SOL     OW10700   4.505   3.988   3.611
 3563SOL    HW110701   4.572   3.927   3.654
 3563SOL    HW210702   4.432   4.007   3.676
 3564SOL     OW10703   4.646   4.227   2.761
 3564SOL    HW110704   4.621   4.218   2.665
 3564SOL    HW210705   4.694   4.145   2.792
 3565SOL     OW10706   4.263   3.788   2.374
 3565SOL    HW110707   4.182   3.789   2.432
 3565SOL    HW210708   4.266   3.871   2.319
 3566SOL     OW10709   4.021   3.759   2.033
 3566SOL    HW110710   4.070   3.843   2.012
 3566SOL    HW210711   4.083   3.694   2.078
 3567SOL     OW10712   4.659   3.960   2.342
 3567SOL    HW110713   4.611   4.001   2.264
 3567SOL    HW210714   4.758   3.958   2.323
 3568SOL     OW10715   4.756   4.273   1.878
 3568SOL    HW110716   4.715   4.355   1.839
 3568SOL    HW210717   4.820   4.299   1.951
 3569SOL     OW10718   3.802   4.280   3.248
 3569SOL    HW110719   3.894   4.279   3.207
 3569SOL    HW210720   3.796   4.354   3.315
 3570SOL     OW10721   4.285   3.946   3.009
 3570SOL    HW110722   4.323   3.862   3.046
 3570SOL    HW210723   4.197   3.965   3.053
 3571SOL     OW10724   4.590   4.178   2.504
 3571SOL    HW110725   4.558   4.250   2.442
 3571SOL    HW210726   4.614   4.097   2.451
 3572SOL     OW10727   4.741   3.763   2.615
 3572SOL    HW110728   4.669   3.768   2.546
 3572SOL    HW210729   4.717   3.694   2.684
 3573SOL     OW10730   4.251   3.980   2.190
 3573SOL    HW110731   4.278   3.921   2.115
 3573SOL    HW210732   4.251   4.075   2.159
 3574SOL     OW10733   4.639   3.813   3.264
 3574SOL    HW110734   4.664   3.793   3.169
 3574SOL    HW210735   4.711   3.869   3.306
 3575SOL     OW10736   4.134   4.537   3.113
 3575SOL    HW110737   4.220   4.549   3.163
 3575SOL    HW210738   4.092   4.450   3.140
 3576SOL     OW10739   4.290   4.261   2.727
 3576SOL    HW110740   4.302   4.327   2.653
 3576SOL    HW210741   4.336   4.295   2.810
 3577SOL     OW10742   4.126   4.475   3.460
 3577SOL    HW110743   4.194   4.530   3.413
 3577SOL    HW210744   4.166   4.387   3.487
 3578SOL     OW10745   4.737   3.829   3.632
 3578SOL    HW110746   4.743   3.914   3.580
 3578SOL    HW210747   4.769   3.753   3.575
 3579SOL     OW10748   4.228   3.774   3.602
 3579SOL    HW110749   4.186   3.717   3.532
 3579SOL    HW210750   4.162   3.843   3.634
 3580SOL     OW10751   4.297   4.594   2.891
 3580SOL    HW110752   4.341   4.683   2.882
 3580SOL    HW210753   4.234   4.594   2.968
 3581SOL     OW10754   4.933   4.249   2.137
 3581SOL    HW110755   4.946   4.165   2.191
 3581SOL    HW210756   4.904   4.323   2.197
 3582SOL     OW10757   4.031   3.937   3.093
 3582SOL    HW110758   4.008   3.974   3.183
 3582SOL    HW210759   4.001   3.842   3.087
 3583SOL     OW10760   4.456   4.358   2.926
 3583SOL    HW110761   4.515   4.332   2.850
 3583SOL    HW210762   4.428   4.454   2.915
 3584SOL     OW10763   4.031   3.787   2.480
 3584SOL    HW110764   4.020   3.881   2.513
 3584SOL    HW210765   4.026   3.724   2.557
 3585SOL     OW10766   4.747   4.490   2.828
 3585SOL    HW110767   4.762   4.511   2.924
 3585SOL    HW210768   4.717   4.395   2.819
 3586SOL     OW10769   4.074   4.622   3.666
 3586SOL    HW110770   4.150   4.666   3.714
 3586SOL    HW210771   4.109   4.575   3.584
 3587SOL     OW10772   4.043   4.534   2.811
 3587SOL    HW110773   4.136   4.570   2.816
 3587SOL    HW210774   4.037   4.449   2.863
 3588SOL     OW10775   4.063   4.233   2.868
 3588SOL    HW110776   4.011   4.150   2.851
 3588SOL    HW210777   4.140   4.238   2.804
 3589SOL     OW10778   4.726   4.520   3.100
 3589SOL    HW110779   4.767   4.488   3.186
 3589SOL    HW210780   4.630   4.493   3.097
 3590SOL     OW10781   3.764   4.268   2.976
 3590SOL    HW110782   3.849   4.235   2.935
 3590SOL    HW210783   3.777   4.283   3.074
 3591SOL     OW10784   3.913   4.244   3.584
 3591SOL    HW110785   3.972   4.204   3.514
 3591SOL    HW210786   3.855   4.315   3.543
 3592SOL     OW10787   4.539   4.296   2.187
 3592SOL    HW110788   4.546   4.207   2.141
 3592SOL    HW210789   4.445   4.330   2.179
 3593SOL     OW10790   4.395   4.188   3.131
 3593SOL    HW110791   4.361   4.099   3.101
 3593SOL    HW210792   4.421   4.242   3.051
 3594SOL     OW10793   4.197   4.224   2.053
 3594SOL    HW110794   4.258   4.304   2.057
 3594SOL    HW210795   4.102   4.255   2.060
 3595SOL     OW10796   3.883   4.861   3.328
 3595SOL    HW110797   3.905   4.800   3.404
 3595SOL    HW210798   3.893   4.812   3.242
 3596SOL     OW10799   5.026   4.579   2.171
 3596SOL    HW110800   4.940   4.548   2.213
 3596SOL    HW210801   5.022   4.565   2.072
 3597SOL     OW10802   3.987   4.050   2.582
 3597SOL    HW110803   3.908   4.101   2.548
 3597SOL    HW210804   3.978   4.035   2.680
 3598SOL     OW10805   4.640   4.634   2.153
 3598SOL    HW110806   4.703   4.672   2.085
 3598SOL    HW210807   4.680   4.551   2.192
 3599SOL     OW10808   4.738   3.960   2.833
 3599SOL    HW110809   4.730   3.924   2.740
 3599SOL    HW210810   4.736   3.884   2.898
 3600SOL     OW10811   3.829   4.737   3.588
 3600SOL    HW110812   3.752   4.704   3.642
 3600SOL    HW210813   3.914   4.707   3.630
 3601SOL     OW10814   4.396   3.927   3.351
 3601SOL    HW110815   4.486   3.911   3.311
 3601SOL    HW210816   4.404   3.932   3.450
 3602SOL     OW10817   3.799   4.069   1.895
 3602SOL    HW110818   3.707   4.041   1.866
 3602SOL    HW210819   3.830   4.146   1.839
 3603SOL     OW10820   3.796   3.890   2.180
 3603SOL    HW110821   3.779   3.973   2.126
 3603SOL    HW210822   3.886   3.853   2.158
 3604SOL     OW10823   4.337   4.566   3.293
 3604SOL    HW110824   4.393   4.647   3.276
 3604SOL    HW210825   4.396   4.486   3.296
 3605SOL     OW10826   4.440   4.289   3.570
 3605SOL    HW110827   4.459   4.354   3.644
 3605SOL    HW210828   4.500   4.209   3.579
 3606SOL     OW10829   4.949   4.049   2.311
 3606SOL    HW110830   5.014   3.975   2.300
 3606SOL    HW210831   4.969   4.099   2.395
 3607SOL     OW10832   4.318   4.469   2.514
 3607SOL    HW110833   4.368   4.554   2.495
 3607SOL    HW210834   4.230   4.471   2.466
 3608SOL     OW10835   4.583   4.680   2.723
 3608SOL    HW110836   4.637   4.611   2.771
 3608SOL    HW210837   4.551   4.749   2.789
 3609SOL     OW10838   3.803   4.964   2.515
 3609SOL    HW110839   3.802   4.917   2.603
 3609SOL    HW210840   3.885   4.936   2.464
 3610SOL     OW10841   4.152   4.148   2.382
 3610SOL    HW110842   4.182   4.076   2.320
 3610SOL    HW210843   4.113   4.108   2.465
 3611SOL     OW10844   4.041   4.271   3.142
 3611SOL    HW110845   4.079   4.212   3.214
 3611SOL    HW210846   4.081   4.245   3.054
 3612SOL     OW10847   4.725   3.758   3.016
 3612SOL    HW110848   4.662   3.686   2.985
 3612SOL    HW210849   4.818   3.722   3.016
 3613SOL     OW10850   3.954   4.352   3.837
 3613SOL    HW110851   3.861   4.350   3.874
 3613SOL    HW210852   3.955   4.313   3.745
 3614SOL     OW10853   3.949   3.999   4.720
 3614SOL    HW110854   3.984   3.982   4.812
 3614SOL    HW210855   3.861   3.954   4.708
 3615SOL     OW10856   3.743   4.092   4.371
 3615SOL    HW110857   3.661   4.135   4.410
 3615SOL    HW210858   3.715   4.019   4.308
 3616SOL     OW10859   4.409   4.736   4.389
 3616SOL    HW110860   4.478   4.720   4.459
 3616SOL    HW210861   4.336   4.793   4.427
 3617SOL     OW10862   3.964   4.815   4.610
 3617SOL    HW110863   3.978   4.731   4.662
 3617SOL    HW210864   3.909   4.879   4.665
 3618SOL     OW10865   4.330   4.688   3.847
 3618SOL    HW110866   4.337   4.772   3.793
 3618SOL    HW210867   4.376   4.701   3.935
 3619SOL     OW10868   3.846   4.367   4.287
 3619SOL    HW110869   3.801   4.279   4.304
 3619SOL    HW210870   3.845   4.421   4.371
 3620SOL     OW10871   4.533   3.728   4.226
 3620SOL    HW110872   4.573   3.819   4.217
 3620SOL    HW210873   4.433   3.736   4.232
 3621SOL     OW10874   4.322   4.453   3.994
 3621SOL    HW110875   4.346   4.522   3.926
 3621SOL    HW210876   4.244   4.486   4.048
 3622SOL     OW10877   3.800   4.535   4.513
 3622SOL    HW110878   3.899   4.523   4.522
 3622SOL    HW210879   3.776   4.630   4.534
 3623SOL     OW10880   4.589   4.072   3.919
 3623SOL    HW110881   4.648   4.135   3.870
 3623SOL    HW210882   4.608   3.978   3.890
 3624SOL     OW10883   4.274   3.920   4.609
 3624SOL    HW110884   4.269   3.915   4.709
 3624SOL    HW210885   4.276   4.016   4.580
 3625SOL     OW10886   4.106   4.424   4.204
 3625SOL    HW110887   4.151   4.334   4.201
 3625SOL    HW210888   4.012   4.413   4.237
 3626SOL     OW10889   4.338   3.846   3.841
 3626SOL    HW110890   4.436   3.824   3.848
 3626SOL    HW210891   4.307   3.829   3.748
 3627SOL     OW10892   4.646   4.227   4.623
 3627SOL    HW110893   4.621   4.218   4.527
 3627SOL    HW210894   4.694   4.145   4.654
 3628SOL     OW10895   4.263   3.788   4.236
 3628SOL    HW110896   4.182   3.789   4.294
 3628SOL    HW210897   4.266   3.871   4.181
 3629SOL     OW10898   4.021   3.759   3.895
 3629SOL    HW110899   4.070   3.843   3.874
 3629SOL    HW210900   4.083   3.694   3.940
 3630SOL     OW10901   4.659   3.960   4.204
 3630SOL    HW110902   4.611   4.001   4.126
 3630SOL    HW210903   4.758   3.958   4.185
 3631SOL     OW10904   4.756   4.273   3.740
 3631SOL    HW110905   4.715   4.355   3.701
 3631SOL    HW210906   4.820   4.299   3.813
 3632SOL     OW10907   4.590   4.178   4.366
 3632SOL    HW110908   4.558   4.250   4.304
 3632SOL    HW210909   4.614   4.097   4.313
 3633SOL     OW10910   4.741   3.763   4.477
 3633SOL    HW110911   4.669   3.768   4.408
 3633SOL    HW210912   4.717   3.694   4.546
 3634SOL     OW10913   4.251   3.980   4.052
 3634SOL    HW110914   4.278   3.921   3.977
 3634SOL    HW210915   4.251   4.075   4.021
 3635SOL     OW10916   4.835   4.919   4.824
 3635SOL    HW110917   4.795   4.963   4.905
 3635SOL    HW210918   4.794   4.956   4.741
 3636SOL     OW10919   4.290   4.261   4.589
 3636SOL    HW110920   4.302   4.327   4.515
 3636SOL    HW210921   4.336   4.295   4.672
 3637SOL     OW10922   4.297   4.594   4.753
 3637SOL    HW110923   4.341   4.683   4.744
 3637SOL    HW210924   4.234   4.594   4.830
 3638SOL     OW10925   4.933   4.249   3.999
 3638SOL    HW110926   4.946   4.165   4.053
 3638SOL    HW210927   4.904   4.323   4.059
 3639SOL     OW10928   4.031   3.937   4.955
 3639SOL    HW110929   4.008   3.974   5.045
 3639SOL    HW210930   4.001   3.842   4.949
 3640SOL     OW10931   4.456   4.358   4.788
 3640SOL    HW110932   4.515   4.332   4.712
 3640SOL    HW210933   4.428   4.454   4.777
 3641SOL     OW10934   4.031   3.787   4.342
 3641SOL    HW110935   4.020   3.881   4.375
 3641SOL    HW210936   4.026   3.724   4.419
 3642SOL     OW10937   4.043   4.534   4.673
 3642SOL    HW110938   4.136   4.570   4.678
 3642SOL    HW210939   4.037   4.449   4.725
 3643SOL     OW10940   4.063   4.233   4.730
 3643SOL    HW110941   4.011   4.150   4.713
 3643SOL    HW210942   4.140   4.238   4.666
 3644SOL     OW10943   4.539   4.296   4.049
 3644SOL    HW110944   4.546   4.207   4.003
 3644SOL    HW210945   4.445   4.330   4.041
 3645SOL     OW10946   4.395   4.188   4.993
 3645SOL    HW110947   4.361   4.099   4.963
 3645SOL    HW210948   4.421   4.242   4.913
 3646SOL     OW10949   4.197   4.224   3.915
 3646SOL    HW110950   4.258   4.304   3.919
 3646SOL    HW210951   4.102   4.255   3.922
 3647SOL     OW10952   5.026   4.579   4.033
 3647SOL    HW110953   4.940   4.548   4.075
 3647SOL    HW210954   5.022   4.565   3.934
 3648SOL     OW10955   3.987   4.050   4.444
 3648SOL    HW110956   3.908   4.101   4.410
 3648SOL    HW210957   3.978   4.035   4.542
 3649SOL     OW10958   4.640   4.634   4.015
 3649SOL    HW110959   4.703   4.672   3.947
 3649SOL    HW210960   4.680   4.551   4.054
 3650SOL     OW10961   3.799   4.069   3.757
 3650SOL    HW110962   3.707   4.041   3.728
 3650SOL    HW210963   3.830   4.146   3.701
 3651SOL     OW10964   3.796   3.890   4.042
 3651SOL    HW110965   3.779   3.973   3.988
 3651SOL    HW210966   3.886   3.853   4.020
 3652SOL     OW10967   4.949   4.049   4.173
 3652SOL    HW110968   5.014   3.975   4.162
 3652SOL    HW210969   4.969   4.099   4.257
 3653SOL     OW10970   4.318   4.469   4.376
 3653SOL    HW110971   4.368   4.554   4.357
 3653SOL    HW210972   4.230   4.471   4.328
 3654SOL     OW10973   4.583   4.680   4.585
 3654SOL    HW110974   4.637   4.611   4.633
 3654SOL    HW210975   4.551   4.749   4.651
 3655SOL     OW10976   3.803   4.964   4.377
 3655SOL    HW110977   3.802   4.917   4.465
 3655SOL    HW210978   3.885   4.936   4.326
 3656SOL     OW10979   4.152   4.148   4.244
 3656SOL    HW110980   4.182   4.076   4.182
 3656SOL    HW210981   4.113   4.108   4.327
   4.79904   4.79904   4.79904
