mobley_2005792_GMX.gro created by acpype (v: 2023.10.27) on Wed May 20 23:57:53 2026
11803
    1MOL     C1    1   2.173   2.266   2.416
    1MOL     C2    2   2.230   2.334   2.309
    1MOL     C3    3   2.345   2.412   2.328
    1MOL     C4    4   2.404   2.424   2.454
    1MOL     C5    5   2.345   2.354   2.561
    1MOL     C6    6   2.231   2.276   2.542
    1MOL     C7    7   2.525   2.506   2.475
    1MOL     C8    8   2.636   2.495   2.388
    1MOL     C9    9   2.750   2.573   2.408
    1MOL    C10   10   2.756   2.663   2.513
    1MOL    C11   11   2.648   2.676   2.600
    1MOL    C12   12   2.534   2.598   2.581
    1MOL     H1   13   2.084   2.205   2.401
    1MOL     H2   14   2.185   2.327   2.210
    1MOL     H3   15   2.386   2.465   2.242
    1MOL     H4   16   2.389   2.359   2.661
    1MOL     H5   17   2.187   2.223   2.626
    1MOL     H6   18   2.635   2.424   2.306
    1MOL     H7   19   2.835   2.562   2.340
    1MOL     H8   20   2.845   2.724   2.528
    1MOL     H9   21   2.652   2.747   2.682
    1MOL    H10   22   2.450   2.611   2.649
    2SOL     OW   23   0.230   0.628   0.113
    2SOL    HW1   24   0.137   0.626   0.150
    2SOL    HW2   25   0.231   0.589   0.021
    3SOL     OW   26   0.225   0.275   0.996
    3SOL    HW1   27   0.260   0.258   1.088
    3SOL    HW2   28   0.137   0.230   0.984
    4SOL     OW   29   0.019   0.368   0.647
    4SOL    HW1   30  -0.063   0.411   0.686
    4SOL    HW2   31  -0.009   0.295   0.584
    5SOL     OW   32   0.569   1.275   1.165
    5SOL    HW1   33   0.476   1.268   1.128
    5SOL    HW2   34   0.580   1.364   1.209
    6SOL     OW   35   1.555   1.511   0.703
    6SOL    HW1   36   1.498   1.495   0.784
    6SOL    HW2   37   1.496   1.521   0.623
    7SOL     OW   38   1.135   0.703   0.717
    7SOL    HW1   39   1.192   0.781   0.692
    7SOL    HW2   40   1.075   0.729   0.793
    8SOL     OW   41   1.755   0.607   0.231
    8SOL    HW1   42   1.743   0.594   0.132
    8SOL    HW2   43   1.725   0.526   0.280
    9SOL     OW   44   0.768   1.144   1.023
    9SOL    HW1   45   0.690   1.161   1.083
    9SOL    HW2   46   0.802   1.231   0.987
   10SOL     OW   47   0.850   0.798   1.823
   10SOL    HW1   48   0.846   0.874   1.888
   10SOL    HW2   49   0.872   0.834   1.732
   11SOL     OW   50   0.685   1.012   0.665
   11SOL    HW1   51   0.754   0.996   0.735
   11SOL    HW2   52   0.612   1.069   0.703
   12SOL     OW   53   0.686   1.161   1.803
   12SOL    HW1   54   0.746   1.240   1.817
   12SOL    HW2   55   0.600   1.192   1.762
   13SOL     OW   56   0.335   1.435   1.061
   13SOL    HW1   57   0.257   1.404   1.008
   13SOL    HW2   58   0.393   1.493   1.004
   14SOL     OW   59   1.460   1.505   1.339
   14SOL    HW1   60   1.484   1.599   1.365
   14SOL    HW2   61   1.444   1.451   1.421
   15SOL     OW   62   0.438   0.392   1.499
   15SOL    HW1   63   0.520   0.336   1.508
   15SOL    HW2   64   0.357   0.334   1.503
   16SOL     OW   65   1.603   0.447   0.737
   16SOL    HW1   66   1.529   0.493   0.687
   16SOL    HW2   67   1.654   0.515   0.790
   17SOL     OW   68   0.231   1.713   0.483
   17SOL    HW1   69   0.265   1.790   0.537
   17SOL    HW2   70   0.275   1.713   0.393
   18SOL     OW   71   1.127   1.341   1.690
   18SOL    HW1   72   1.174   1.341   1.778
   18SOL    HW2   73   1.079   1.254   1.679
   19SOL     OW   74   0.230   1.434   0.538
   19SOL    HW1   75   0.204   1.530   0.538
   19SOL    HW2   76   0.159   1.380   0.583
   20SOL     OW   77   0.240   1.091   0.886
   20SOL    HW1   78   0.254   1.007   0.938
   20SOL    HW2   79   0.185   1.155   0.941
   21SOL     OW   80   0.620   1.786   1.439
   21SOL    HW1   81   0.528   1.769   1.474
   21SOL    HW2   82   0.648   1.878   1.465
   22SOL     OW   83   0.606   0.964   0.123
   22SOL    HW1   84   0.613   1.048   0.069
   22SOL    HW2   85   0.652   0.977   0.211
   23SOL     OW   86   1.594   0.114   1.480
   23SOL    HW1   87   1.576   0.181   1.408
   23SOL    HW2   88   1.591   0.160   1.569
   24SOL     OW   89   0.122   0.643   0.563
   24SOL    HW1   90   0.077   0.555   0.580
   24SOL    HW2   91   0.121   0.697   0.647
   25SOL     OW   92   1.842   1.767   0.359
   25SOL    HW1   93   1.896   1.738   0.439
   25SOL    HW2   94   1.872   1.857   0.330
   26SOL     OW   95   0.027   1.596   0.117
   26SOL    HW1   96   0.008   1.500   0.138
   26SOL    HW2   97  -0.006   1.654   0.192
   27SOL     OW   98   1.689   0.922   0.612
   27SOL    HW1   99   1.784   0.893   0.620
   27SOL    HW2  100   1.681   0.987   0.537
   28SOL     OW  101   1.641   1.108   0.432
   28SOL    HW1  102   1.727   1.110   0.380
   28SOL    HW2  103   1.655   1.155   0.520
   29SOL     OW  104   0.113   0.737   1.597
   29SOL    HW1  105   0.201   0.724   1.642
   29SOL    HW2  106   0.100   0.834   1.575
   30SOL     OW  107   0.613   1.365   0.726
   30SOL    HW1  108   0.564   1.278   0.735
   30SOL    HW2  109   0.590   1.408   0.639
   31SOL     OW  110   1.293   1.228   1.423
   31SOL    HW1  111   1.330   1.155   1.365
   31SOL    HW2  112   1.345   1.233   1.508
   32SOL     OW  113   0.809   0.004   0.502
   32SOL    HW1  114   0.849   0.095   0.493
   32SOL    HW2  115   0.709   0.012   0.508
   33SOL     OW  116   0.197   0.976   1.264
   33SOL    HW1  117   0.286   0.931   1.250
   33SOL    HW2  118   0.124   0.911   1.245
   34SOL     OW  119   1.525   0.999   0.190
   34SOL    HW1  120   1.462   0.923   0.203
   34SOL    HW2  121   1.573   1.017   0.276
   35SOL     OW  122   1.187   1.792   1.616
   35SOL    HW1  123   1.211   1.852   1.540
   35SOL    HW2  124   1.194   1.697   1.586
   36SOL     OW  125   0.317   0.251   1.801
   36SOL    HW1  126   0.388   0.322   1.807
   36SOL    HW2  127   0.229   0.290   1.829
   37SOL     OW  128   1.466   1.417   0.953
   37SOL    HW1  129   1.407   1.423   1.033
   37SOL    HW2  130   1.451   1.329   0.907
   38SOL     OW  131   1.667   1.714   0.572
   38SOL    HW1  132   1.626   1.691   0.484
   38SOL    HW2  133   1.649   1.640   0.637
   39SOL     OW  134   0.598   0.729   0.270
   39SOL    HW1  135   0.622   0.798   0.202
   39SOL    HW2  136   0.520   0.762   0.324
   40SOL     OW  137   1.281   0.345   0.944
   40SOL    HW1  138   1.195   0.295   0.931
   40SOL    HW2  139   1.343   0.291   1.000
   41SOL     OW  140   1.576   1.662   0.307
   41SOL    HW1  141   1.665   1.708   0.310
   41SOL    HW2  142   1.555   1.638   0.212
   42SOL     OW  143   0.807   0.605   1.465
   42SOL    HW1  144   0.760   0.602   1.554
   42SOL    HW2  145   0.756   0.550   1.399
   43SOL     OW  146   1.394   0.469   1.674
   43SOL    HW1  147   1.374   0.512   1.762
   43SOL    HW2  148   1.472   0.407   1.683
   44SOL     OW  149   0.973   0.890   1.572
   44SOL    HW1  150   1.019   0.806   1.543
   44SOL    HW2  151   0.917   0.924   1.497
   45SOL     OW  152   0.991   0.410   1.242
   45SOL    HW1  153   0.914   0.444   1.296
   45SOL    HW2  154   0.957   0.359   1.163
   46SOL     OW  155   1.041   0.701   0.429
   46SOL    HW1  156   1.067   0.697   0.525
   46SOL    HW2  157   0.956   0.650   0.415
   47SOL     OW  158   0.076   0.811   0.789
   47SOL    HW1  159   0.175   0.799   0.798
   47SOL    HW2  160   0.052   0.906   0.810
   48SOL     OW  161   0.130   1.821   1.571
   48SOL    HW1  162   0.120   1.806   1.670
   48SOL    HW2  163   0.044   1.857   1.535
   49SOL     OW  164   0.865   0.348   0.195
   49SOL    HW1  165   0.924   0.411   0.146
   49SOL    HW2  166   0.884   0.254   0.166
   50SOL     OW  167   1.719   0.585   1.831
   50SOL    HW1  168   1.693   0.674   1.795
   50SOL    HW2  169   1.717   0.517   1.758
   51SOL     OW  170   1.362   1.144   0.545
   51SOL    HW1  171   1.445   1.115   0.497
   51SOL    HW2  172   1.313   1.211   0.489
   52SOL     OW  173   0.550   0.196   0.885
   52SOL    HW1  174   0.545   0.191   0.985
   52SOL    HW2  175   0.552   0.292   0.856
   53SOL     OW  176   1.008   1.456   0.477
   53SOL    HW1  177   0.962   1.528   0.425
   53SOL    HW2  178   1.004   1.476   0.575
   54SOL     OW  179   0.351   1.801   0.853
   54SOL    HW1  180   0.401   1.715   0.859
   54SOL    HW2  181   0.416   1.878   0.850
   55SOL     OW  182   1.795   1.066   0.873
   55SOL    HW1  183   1.733   1.051   0.797
   55SOL    HW2  184   1.743   1.077   0.958
   56SOL     OW  185   1.227   1.550   1.506
   56SOL    HW1  186   1.233   1.473   1.570
   56SOL    HW2  187   1.175   1.524   1.426
   57SOL     OW  188   0.321   0.943   0.242
   57SOL    HW1  189   0.403   0.982   0.200
   57SOL    HW2  190   0.294   0.861   0.193
   58SOL     OW  191   1.458   0.735   0.728
   58SOL    HW1  192   1.453   0.670   0.803
   58SOL    HW2  193   1.538   0.794   0.741
   59SOL     OW  194   0.461   1.266   1.727
   59SOL    HW1  195   0.411   1.267   1.641
   59SOL    HW2  196   0.398   1.248   1.803
   60SOL     OW  197   1.111   1.776   0.237
   60SOL    HW1  198   1.051   1.714   0.287
   60SOL    HW2  199   1.142   1.732   0.152
   61SOL     OW  200   0.202   0.285   1.498
   61SOL    HW1  201   0.122   0.345   1.485
   61SOL    HW2  202   0.192   0.236   1.584
   62SOL     OW  203   1.632   1.377   0.081
   62SOL    HW1  204   1.600   1.471   0.071
   62SOL    HW2  205   1.556   1.314   0.069
   63SOL     OW  206   0.464   1.743   0.323
   63SOL    HW1  207   0.497   1.782   0.409
   63SOL    HW2  208   0.540   1.736   0.258
   64SOL     OW  209   1.400   0.107   0.426
   64SOL    HW1  210   1.376   0.070   0.336
   64SOL    HW2  211   1.499   0.123   0.430
   65SOL     OW  212   0.249   1.785   1.241
   65SOL    HW1  213   0.306   1.720   1.291
   65SOL    HW2  214   0.233   1.752   1.148
   66SOL     OW  215   0.940   1.698   0.904
   66SOL    HW1  216   1.020   1.641   0.925
   66SOL    HW2  217   0.891   1.658   0.827
   67SOL     OW  218   0.382   0.700   0.480
   67SOL    HW1  219   0.427   0.610   0.477
   67SOL    HW2  220   0.288   0.689   0.513
   68SOL     OW  221   1.547   0.222   1.729
   68SOL    HW1  222   1.542   0.259   1.821
   68SOL    HW2  223   1.475   0.153   1.717
   69SOL     OW  224   0.614   0.122   0.117
   69SOL    HW1  225   0.712   0.100   0.124
   69SOL    HW2  226   0.583   0.105   0.024
   70SOL     OW  227   0.781   0.264   1.749
   70SOL    HW1  228   0.848   0.203   1.792
   70SOL    HW2  229   0.708   0.283   1.814
   71SOL     OW  230   0.888   1.514   1.195
   71SOL    HW1  231   0.865   1.489   1.101
   71SOL    HW2  232   0.949   1.445   1.234
   72SOL     OW  233   1.351   0.590   1.433
   72SOL    HW1  234   1.379   0.547   1.518
   72SOL    HW2  235   1.376   0.686   1.434
   73SOL     OW  236   0.803   1.402   0.924
   73SOL    HW1  237   0.893   1.416   0.882
   73SOL    HW2  238   0.732   1.404   0.853
   74SOL     OW  239   0.922   0.503   0.899
   74SOL    HW1  240   0.897   0.494   0.803
   74SOL    HW2  241   0.970   0.421   0.930
   75SOL     OW  242   0.539   0.064   0.512
   75SOL    HW1  243   0.458   0.065   0.570
   75SOL    HW2  244   0.542   0.147   0.457
   76SOL     OW  245   1.434   1.188   0.041
   76SOL    HW1  246   1.466   1.112   0.098
   76SOL    HW2  247   1.342   1.215   0.071
   77SOL     OW  248   0.297   0.035   0.171
   77SOL    HW1  249   0.346   0.119   0.150
   77SOL    HW2  250   0.359  -0.030   0.216
   78SOL     OW  251   0.935   0.236   0.480
   78SOL    HW1  252   0.887   0.277   0.402
   78SOL    HW2  253   1.034   0.234   0.461
   79SOL     OW  254   1.076   0.683   1.464
   79SOL    HW1  255   0.996   0.622   1.467
   79SOL    HW2  256   1.157   0.630   1.440
   80SOL     OW  257   1.227   1.570   0.793
   80SOL    HW1  258   1.248   1.644   0.728
   80SOL    HW2  259   1.295   1.570   0.866
   81SOL     OW  260   0.459   1.152   0.741
   81SOL    HW1  261   0.388   1.125   0.806
   81SOL    HW2  262   0.433   1.124   0.648
   82SOL     OW  263   1.271   1.797   0.591
   82SOL    HW1  264   1.315   1.861   0.527
   82SOL    HW2  265   1.221   1.849   0.661
   83SOL     OW  266   1.032   0.549   0.016
   83SOL    HW1  267   0.991   0.631  -0.023
   83SOL    HW2  268   1.096   0.575   0.089
   84SOL     OW  269   0.078   0.556   1.386
   84SOL    HW1  270   0.170   0.555   1.345
   84SOL    HW2  271   0.072   0.630   1.453
   85SOL     OW  272   0.561   0.222   1.147
   85SOL    HW1  273   0.599   0.138   1.184
   85SOL    HW2  274   0.473   0.241   1.191
   86SOL     OW  275   0.866   0.454   0.642
   86SOL    HW1  276   0.834   0.526   0.580
   86SOL    HW2  277   0.890   0.373   0.589
   87SOL     OW  278   1.017   0.039   0.753
   87SOL    HW1  279   0.945   0.044   0.684
   87SOL    HW2  280   0.993  -0.030   0.822
   88SOL     OW  281   1.429   1.173   0.867
   88SOL    HW1  282   1.374   1.089   0.860
   88SOL    HW2  283   1.455   1.202   0.775
   89SOL     OW  284   1.466   0.590   0.992
   89SOL    HW1  285   1.436   0.495   0.999
   89SOL    HW2  286   1.539   0.606   1.058
   90SOL     OW  287   1.857   0.833   0.377
   90SOL    HW1  288   1.899   0.769   0.441
   90SOL    HW2  289   1.819   0.782   0.299
   91SOL     OW  290   0.488   1.385   0.174
   91SOL    HW1  291   0.401   1.370   0.221
   91SOL    HW2  292   0.471   1.411   0.079
   92SOL     OW  293   1.664   1.280   0.657
   92SOL    HW1  294   1.763   1.288   0.671
   92SOL    HW2  295   1.619   1.364   0.688
   93SOL     OW  296   1.390   0.575   0.078
   93SOL    HW1  297   1.336   0.554   0.159
   93SOL    HW2  298   1.481   0.534   0.087
   94SOL     OW  299   0.527   0.256   0.328
   94SOL    HW1  300   0.554   0.197   0.253
   94SOL    HW2  301   0.527   0.351   0.297
   95SOL     OW  302   1.754   1.223   1.588
   95SOL    HW1  303   1.845   1.184   1.575
   95SOL    HW2  304   1.762   1.319   1.612
   96SOL     OW  305   1.064   1.347   1.340
   96SOL    HW1  306   0.984   1.324   1.395
   96SOL    HW2  307   1.147   1.321   1.389
   97SOL     OW  308   1.592   1.629   1.625
   97SOL    HW1  309   1.619   1.663   1.535
   97SOL    HW2  310   1.671   1.591   1.671
   98SOL     OW  311   1.111   1.195   1.100
   98SOL    HW1  312   1.071   1.239   1.181
   98SOL    HW2  313   1.070   1.232   1.017
   99SOL     OW  314   1.638   1.099   1.079
   99SOL    HW1  315   1.643   1.180   1.138
   99SOL    HW2  316   1.552   1.101   1.028
  100SOL     OW  317   0.915   0.089   1.402
  100SOL    HW1  318   0.940   0.069   1.307
  100SOL    HW2  319   0.987   0.145   1.444
  101SOL     OW  320   0.980   1.116   1.719
  101SOL    HW1  321   0.881   1.122   1.729
  101SOL    HW2  322   1.003   1.036   1.663
  102SOL     OW  323   0.705   1.050   0.368
  102SOL    HW1  324   0.691   1.057   0.467
  102SOL    HW2  325   0.789   0.999   0.350
  103SOL     OW  326   0.410   0.813   1.251
  103SOL    HW1  327   0.496   0.825   1.301
  103SOL    HW2  328   0.368   0.726   1.278
  104SOL     OW  329   1.274   0.386   1.262
  104SOL    HW1  330   1.295   0.460   1.326
  104SOL    HW2  331   1.185   0.403   1.219
  105SOL     OW  332   0.064   1.564   1.331
  105SOL    HW1  333   0.018   1.646   1.297
  105SOL    HW2  334   0.162   1.583   1.340
  106SOL     OW  335   0.367   1.100   0.501
  106SOL    HW1  336   0.360   1.183   0.445
  106SOL    HW2  337   0.371   1.020   0.441
  107SOL     OW  338   0.566   0.537   0.865
  107SOL    HW1  339   0.578   0.603   0.791
  107SOL    HW2  340   0.612   0.571   0.948
  108SOL     OW  341   1.252   1.348   0.388
  108SOL    HW1  342   1.302   1.425   0.428
  108SOL    HW2  343   1.157   1.350   0.420
  109SOL     OW  344   1.272   1.445   1.142
  109SOL    HW1  345   1.319   1.458   1.229
  109SOL    HW2  346   1.206   1.371   1.151
  110SOL     OW  347   1.582   0.639   0.472
  110SOL    HW1  348   1.551   0.700   0.545
  110SOL    HW2  349   1.632   0.691   0.403
  111SOL     OW  350   0.354   1.510   1.329
  111SOL    HW1  351   0.333   1.466   1.242
  111SOL    HW2  352   0.451   1.536   1.332
  112SOL     OW  353   0.402   0.751   1.598
  112SOL    HW1  354   0.470   0.806   1.551
  112SOL    HW2  355   0.442   0.663   1.625
  113SOL     OW  356   1.587   0.779   1.670
  113SOL    HW1  357   1.495   0.817   1.665
  113SOL    HW2  358   1.647   0.826   1.605
  114SOL     OW  359   1.013   0.105   1.770
  114SOL    HW1  360   1.019   0.190   1.718
  114SOL    HW2  361   1.045   0.029   1.713
  115SOL     OW  362   0.504   0.050   1.740
  115SOL    HW1  363   0.462  -0.007   1.670
  115SOL    HW2  364   0.438   0.119   1.772
  116SOL     OW  365   0.573   0.870   1.029
  116SOL    HW1  366   0.617   0.959   1.020
  116SOL    HW2  367   0.510   0.870   1.106
  117SOL     OW  368   1.360   0.862   1.045
  117SOL    HW1  369   1.285   0.862   0.979
  117SOL    HW2  370   1.397   0.770   1.054
  118SOL     OW  371   1.209   0.525   0.275
  118SOL    HW1  372   1.222   0.441   0.329
  118SOL    HW2  373   1.180   0.599   0.335
  119SOL     OW  374   0.307   0.213   1.231
  119SOL    HW1  375   0.284   0.250   1.321
  119SOL    HW2  376   0.277   0.118   1.225
  120SOL     OW  377   0.037   1.310   1.282
  120SOL    HW1  378   0.090   1.261   1.350
  120SOL    HW2  379   0.059   1.408   1.287
  121SOL     OW  380   0.732   0.634   1.064
  121SOL    HW1  381   0.791   0.608   0.988
  121SOL    HW2  382   0.704   0.730   1.053
  122SOL     OW  383   1.728   0.935   1.854
  122SOL    HW1  384   1.682   0.928   1.765
  122SOL    HW2  385   1.666   0.979   1.920
  123SOL     OW  386   0.307   0.063   0.618
  123SOL    HW1  387   0.296   0.157   0.651
  123SOL    HW2  388   0.302   0.000   0.695
  124SOL     OW  389   1.622   0.367   0.374
  124SOL    HW1  390   1.624   0.291   0.438
  124SOL    HW2  391   1.574   0.444   0.414
  125SOL     OW  392   1.023   0.766   0.966
  125SOL    HW1  393   1.038   0.787   1.062
  125SOL    HW2  394   0.993   0.671   0.957
  126SOL     OW  395   0.980   1.573   1.700
  126SOL    HW1  396   0.960   1.617   1.612
  126SOL    HW2  397   1.019   1.482   1.684
  127SOL     OW  398   1.859   1.518   1.605
  127SOL    HW1  399   1.873   1.545   1.510
  127SOL    HW2  400   1.942   1.540   1.658
  128SOL     OW  401   0.350   0.898   1.804
  128SOL    HW1  402   0.426   0.942   1.852
  128SOL    HW2  403   0.385   0.851   1.722
  129SOL     OW  404   1.540   0.274   0.125
  129SOL    HW1  405   1.479   0.199   0.148
  129SOL    HW2  406   1.562   0.326   0.208
  130SOL     OW  407   1.303   0.838   0.042
  130SOL    HW1  408   1.337   0.745   0.057
  130SOL    HW2  409   1.321   0.865  -0.053
  131SOL     OW  410   1.068   1.333   0.849
  131SOL    HW1  411   1.075   1.249   0.794
  131SOL    HW2  412   1.130   1.402   0.813
  132SOL     OW  413   0.319   0.810   0.949
  132SOL    HW1  414   0.412   0.846   0.954
  132SOL    HW2  415   0.313   0.725   1.001
  133SOL     OW  416   0.339   0.509   1.006
  133SOL    HW1  417   0.287   0.426   0.989
  133SOL    HW2  418   0.416   0.514   0.942
  134SOL     OW  419   1.138   0.380   1.678
  134SOL    HW1  420   1.093   0.443   1.742
  134SOL    HW2  421   1.231   0.411   1.661
  135SOL     OW  422   1.160   0.207   1.477
  135SOL    HW1  423   1.160   0.271   1.554
  135SOL    HW2  424   1.188   0.255   1.394
  136SOL     OW  425   0.008   1.326   0.200
  136SOL    HW1  426  -0.085   1.347   0.169
  136SOL    HW2  427   0.018   1.227   0.213
  137SOL     OW  428   0.088   1.801   0.927
  137SOL    HW1  429   0.046   1.715   0.900
  137SOL    HW2  430   0.182   1.804   0.893
  138SOL     OW  431   0.504   1.568   0.910
  138SOL    HW1  432   0.570   1.642   0.919
  138SOL    HW2  433   0.548   1.489   0.868
  139SOL     OW  434   1.002   0.796   1.238
  139SOL    HW1  435   1.043   0.764   1.324
  139SOL    HW2  436   0.906   0.769   1.235
  140SOL     OW  437   0.040   0.544   1.114
  140SOL    HW1  438   0.125   0.511   1.073
  140SOL    HW2  439   0.053   0.559   1.212
  141SOL     OW  440   0.189   0.520   1.722
  141SOL    HW1  441   0.248   0.480   1.652
  141SOL    HW2  442   0.131   0.591   1.681
  142SOL     OW  443   1.369   0.950   1.660
  142SOL    HW1  444   1.408   1.039   1.680
  142SOL    HW2  445   1.379   0.930   1.563
  143SOL     OW  446   0.815   0.572   0.325
  143SOL    HW1  447   0.822   0.483   0.279
  143SOL    HW2  448   0.721   0.606   0.317
  144SOL     OW  449   1.657   0.604   1.206
  144SOL    HW1  450   1.619   0.535   1.268
  144SOL    HW2  451   1.739   0.568   1.162
  145SOL     OW  452   0.252   1.564   1.744
  145SOL    HW1  453   0.222   1.621   1.820
  145SOL    HW2  454   0.245   1.467   1.770
  146SOL     OW  455   0.671   0.464   1.269
  146SOL    HW1  456   0.637   0.375   1.239
  146SOL    HW2  457   0.697   0.518   1.189
  147SOL     OW  458   0.930   1.678   1.465
  147SOL    HW1  459   0.906   1.660   1.370
  147SOL    HW2  460   0.960   1.772   1.475
  148SOL     OW  461   0.473   0.500   0.191
  148SOL    HW1  462   0.534   0.580   0.195
  148SOL    HW2  463   0.378   0.531   0.198
  149SOL     OW  464   0.159   1.137   1.466
  149SOL    HW1  465   0.181   1.076   1.542
  149SOL    HW2  466   0.169   1.088   1.380
  150SOL     OW  467   1.347   1.059   1.234
  150SOL    HW1  468   1.371   0.996   1.160
  150SOL    HW2  469   1.257   1.099   1.216
  151SOL     OW  470   1.302   0.855   0.309
  151SOL    HW1  471   1.216   0.824   0.351
  151SOL    HW2  472   1.298   0.841   0.210
  152SOL     OW  473   1.759   1.747   1.154
  152SOL    HW1  474   1.820   1.777   1.081
  152SOL    HW2  475   1.721   1.658   1.132
  153SOL     OW  476   1.252   1.731   1.128
  153SOL    HW1  477   1.336   1.736   1.074
  153SOL    HW2  478   1.229   1.635   1.146
  154SOL     OW  479   0.083   1.258   1.022
  154SOL    HW1  480   0.078   1.257   1.122
  154SOL    HW2  481   0.000   1.217   0.984
  155SOL     OW  482   0.688   1.662   1.716
  155SOL    HW1  483   0.632   1.743   1.725
  155SOL    HW2  484   0.740   1.666   1.630
  156SOL     OW  485   0.903   0.086   0.133
  156SOL    HW1  486   0.954   0.087   0.047
  156SOL    HW2  487   0.959   0.044   0.204
  157SOL     OW  488   1.726   0.135   0.523
  157SOL    HW1  489   1.799   0.118   0.456
  157SOL    HW2  490   1.695   0.048   0.561
  158SOL     OW  491   1.388   1.573   0.477
  158SOL    HW1  492   1.455   1.585   0.403
  158SOL    HW2  493   1.348   1.662   0.500
  159SOL     OW  494   0.130   1.794   1.851
  159SOL    HW1  495   0.089   1.720   1.904
  159SOL    HW2  496   0.194   1.845   1.909
  160SOL     OW  497   1.280   0.927   0.672
  160SOL    HW1  498   1.340   0.846   0.674
  160SOL    HW2  499   1.320   0.996   0.612
  161SOL     OW  500   0.830   1.273   1.422
  161SOL    HW1  501   0.825   1.306   1.517
  161SOL    HW2  502   0.744   1.292   1.376
  162SOL     OW  503   0.672   1.616   0.154
  162SOL    HW1  504   0.681   1.626   0.055
  162SOL    HW2  505   0.632   1.527   0.175
  163SOL     OW  506   1.650   1.720   1.394
  163SOL    HW1  507   1.703   1.730   1.310
  163SOL    HW2  508   1.623   1.810   1.428
  164SOL     OW  509   1.841   0.175   0.963
  164SOL    HW1  510   1.880   0.090   0.927
  164SOL    HW2  511   1.743   0.177   0.944
  165SOL     OW  512   0.263   0.326   0.720
  165SOL    HW1  513   0.184   0.377   0.686
  165SOL    HW2  514   0.254   0.311   0.818
  166SOL     OW  515   1.194   1.612   0.031
  166SOL    HW1  516   1.200   1.519   0.068
  166SOL    HW2  517   1.135   1.612  -0.049
  167SOL     OW  518   0.822   1.002   1.372
  167SOL    HW1  519   0.862   1.001   1.280
  167SOL    HW2  520   0.832   1.094   1.412
  168SOL     OW  521   0.916   0.910   0.291
  168SOL    HW1  522   0.979   0.948   0.223
  168SOL    HW2  523   0.956   0.827   0.330
  169SOL     OW  524   1.504   1.607   0.044
  169SOL    HW1  525   1.412   1.644   0.051
  169SOL    HW2  526   1.542   1.627  -0.046
  170SOL     OW  527   0.372   1.288   1.490
  170SOL    HW1  528   0.359   1.381   1.456
  170SOL    HW2  529   0.288   1.236   1.477
  171SOL     OW  530   1.614   1.292   1.289
  171SOL    HW1  531   1.674   1.295   1.369
  171SOL    HW2  532   1.539   1.356   1.302
  172SOL     OW  533   1.039   1.098   0.696
  172SOL    HW1  534   0.969   1.051   0.750
  172SOL    HW2  535   1.098   1.030   0.653
  173SOL     OW  536   1.014   0.236   0.971
  173SOL    HW1  537   1.006   0.200   0.878
  173SOL    HW2  538   1.012   0.160   1.036
  174SOL     OW  539   0.590   1.487   0.491
  174SOL    HW1  540   0.632   1.429   0.421
  174SOL    HW2  541   0.546   1.566   0.447
  175SOL     OW  542   1.709   0.385   1.381
  175SOL    HW1  543   1.782   0.454   1.385
  175SOL    HW2  544   1.737   0.310   1.322
  176SOL     OW  545   0.255   1.348   0.290
  176SOL    HW1  546   0.159   1.349   0.263
  176SOL    HW2  547   0.267   1.401   0.374
  177SOL     OW  548   0.105   1.013   1.726
  177SOL    HW1  549   0.028   0.980   1.780
  177SOL    HW2  550   0.190   0.983   1.768
  178SOL     OW  551   0.672   0.203   1.489
  178SOL    HW1  552   0.762   0.187   1.449
  178SOL    HW2  553   0.680   0.208   1.588
  179SOL     OW  554   0.075   0.345   0.033
  179SOL    HW1  555  -0.017   0.317   0.004
  179SOL    HW2  556   0.106   0.422  -0.023
  180SOL     OW  557   1.440   0.856   1.398
  180SOL    HW1  558   1.383   0.908   1.335
  180SOL    HW2  559   1.536   0.868   1.374
  181SOL     OW  560   0.072   0.166   0.318
  181SOL    HW1  561   0.055   0.249   0.264
  181SOL    HW2  562   0.162   0.129   0.296
  182SOL     OW  563   1.183   1.335   0.119
  182SOL    HW1  564   1.084   1.324   0.121
  182SOL    HW2  565   1.217   1.350   0.212
  183SOL     OW  566   0.613   0.842   1.431
  183SOL    HW1  567   0.669   0.923   1.414
  183SOL    HW2  568   0.672   0.762   1.434
  184SOL     OW  569   1.493   1.767   0.959
  184SOL    HW1  570   1.526   1.831   0.890
  184SOL    HW2  571   1.559   1.761   1.034
  185SOL     OW  572   0.716   0.565   1.708
  185SOL    HW1  573   0.735   0.630   1.782
  185SOL    HW2  574   0.776   0.485   1.717
  186SOL     OW  575   1.450   1.220   1.633
  186SOL    HW1  576   1.441   1.210   1.732
  186SOL    HW2  577   1.546   1.213   1.607
  187SOL     OW  578   0.390   1.741   1.560
  187SOL    HW1  579   0.299   1.782   1.558
  187SOL    HW2  580   0.383   1.647   1.592
  188SOL     OW  581   1.674   0.883   1.254
  188SOL    HW1  582   1.647   0.794   1.217
  188SOL    HW2  583   1.675   0.951   1.181
  189SOL     OW  584   1.225   0.325   0.449
  189SOL    HW1  585   1.290   0.251   0.438
  189SOL    HW2  586   1.245   0.375   0.533
  190SOL     OW  587   0.594   0.745   0.652
  190SOL    HW1  588   0.644   0.830   0.633
  190SOL    HW2  589   0.506   0.747   0.604
  191SOL     OW  590   1.777   0.342   1.642
  191SOL    HW1  591   1.760   0.373   1.548
  191SOL    HW2  592   1.693   0.305   1.680
  192SOL     OW  593   1.730   0.934   1.517
  192SOL    HW1  594   1.768   1.025   1.532
  192SOL    HW2  595   1.722   0.917   1.418
  193SOL     OW  596   0.859   1.374   0.016
  193SOL    HW1  597   0.813   1.389   0.104
  193SOL    HW2  598   0.903   1.459  -0.014
  194SOL     OW  599   0.661   1.790   0.953
  194SOL    HW1  600   0.615   1.878   0.940
  194SOL    HW2  601   0.760   1.802   0.946
  195SOL     OW  602   0.859   0.956   0.861
  195SOL    HW1  603   0.913   0.887   0.909
  195SOL    HW2  604   0.827   1.025   0.927
  196SOL     OW  605   1.083   0.984   0.087
  196SOL    HW1  606   1.060   1.037   0.005
  196SOL    HW2  607   1.164   0.928   0.068
  197SOL     OW  608   1.861   1.569   0.851
  197SOL    HW1  609   1.790   1.557   0.781
  197SOL    HW2  610   1.862   1.490   0.911
  198SOL     OW  611   0.221   1.314   1.844
  198SOL    HW1  612   0.156   1.241   1.823
  198SOL    HW2  613   0.225   1.328   1.942
  199SOL     OW  614   0.079   1.240   0.653
  199SOL    HW1  615   0.078   1.193   0.741
  199SOL    HW2  616   0.161   1.212   0.602
  200SOL     OW  617   0.672   1.391   1.624
  200SOL    HW1  618   0.594   1.341   1.662
  200SOL    HW2  619   0.669   1.486   1.655
  201SOL     OW  620   1.824   0.192   1.227
  201SOL    HW1  621   1.820   0.102   1.271
  201SOL    HW2  622   1.827   0.181   1.128
  202SOL     OW  623   0.428   0.424   0.520
  202SOL    HW1  624   0.458   0.352   0.458
  202SOL    HW2  625   0.389   0.384   0.603
  203SOL     OW  626   1.705   1.487   1.104
  203SOL    HW1  627   1.612   1.462   1.077
  203SOL    HW2  628   1.731   1.437   1.186
  204SOL     OW  629   0.317   0.547   1.280
  204SOL    HW1  630   0.355   0.488   1.352
  204SOL    HW2  631   0.357   0.521   1.192
  205SOL     OW  632   0.812   1.586   0.687
  205SOL    HW1  633   0.844   1.596   0.593
  205SOL    HW2  634   0.733   1.524   0.689
  206SOL     OW  635   1.424   0.214   1.112
  206SOL    HW1  636   1.476   0.149   1.167
  206SOL    HW2  637   1.375   0.277   1.173
  207SOL     OW  638   1.001   0.034   1.154
  207SOL    HW1  639   0.938  -0.038   1.123
  207SOL    HW2  640   1.094  -0.002   1.154
  208SOL     OW  641   0.770   1.330   0.301
  208SOL    HW1  642   0.724   1.243   0.318
  208SOL    HW2  643   0.861   1.327   0.342
  209SOL     OW  644   0.618   1.567   1.284
  209SOL    HW1  645   0.613   1.649   1.341
  209SOL    HW2  646   0.707   1.564   1.239
  210SOL     OW  647   1.352   0.052   0.168
  210SOL    HW1  648   1.387   0.011   0.084
  210SOL    HW2  649   1.262   0.014   0.188
  211SOL     OW  650   1.300   0.453   0.691
  211SOL    HW1  651   1.241   0.533   0.695
  211SOL    HW2  652   1.315   0.418   0.784
  212SOL     OW  653   1.593   0.221   0.882
  212SOL    HW1  654   1.509   0.220   0.936
  212SOL    HW2  655   1.595   0.304   0.826
  213SOL     OW  656   0.039   1.077   0.300
  213SOL    HW1  657   0.138   1.066   0.291
  213SOL    HW2  658  -0.001   0.991   0.332
  214SOL     OW  659   0.875   1.646   0.337
  214SOL    HW1  660   0.798   1.611   0.283
  214SOL    HW2  661   0.843   1.717   0.399
  215SOL     OW  662   0.230   0.628   1.975
  215SOL    HW1  663   0.137   0.626   2.012
  215SOL    HW2  664   0.231   0.589   1.883
  216SOL     OW  665   0.225   0.275   2.858
  216SOL    HW1  666   0.260   0.258   2.950
  216SOL    HW2  667   0.137   0.230   2.846
  217SOL     OW  668   0.019   0.368   2.509
  217SOL    HW1  669  -0.063   0.411   2.548
  217SOL    HW2  670  -0.009   0.295   2.446
  218SOL     OW  671   0.569   1.275   3.027
  218SOL    HW1  672   0.476   1.268   2.990
  218SOL    HW2  673   0.580   1.364   3.071
  219SOL     OW  674   1.555   1.511   2.565
  219SOL    HW1  675   1.498   1.495   2.646
  219SOL    HW2  676   1.496   1.521   2.485
  220SOL     OW  677   1.135   0.703   2.579
  220SOL    HW1  678   1.192   0.781   2.554
  220SOL    HW2  679   1.075   0.729   2.655
  221SOL     OW  680   1.755   0.607   2.093
  221SOL    HW1  681   1.743   0.594   1.994
  221SOL    HW2  682   1.725   0.526   2.142
  222SOL     OW  683   0.768   1.144   2.885
  222SOL    HW1  684   0.690   1.161   2.945
  222SOL    HW2  685   0.802   1.231   2.849
  223SOL     OW  686   0.850   0.798   3.685
  223SOL    HW1  687   0.846   0.874   3.750
  223SOL    HW2  688   0.872   0.834   3.594
  224SOL     OW  689   0.685   1.012   2.527
  224SOL    HW1  690   0.754   0.996   2.597
  224SOL    HW2  691   0.612   1.069   2.565
  225SOL     OW  692   0.686   1.161   3.665
  225SOL    HW1  693   0.746   1.240   3.679
  225SOL    HW2  694   0.600   1.192   3.624
  226SOL     OW  695   0.335   1.435   2.923
  226SOL    HW1  696   0.257   1.404   2.870
  226SOL    HW2  697   0.393   1.493   2.866
  227SOL     OW  698   1.460   1.505   3.201
  227SOL    HW1  699   1.484   1.599   3.227
  227SOL    HW2  700   1.444   1.451   3.283
  228SOL     OW  701   0.438   0.392   3.361
  228SOL    HW1  702   0.520   0.336   3.370
  228SOL    HW2  703   0.357   0.334   3.365
  229SOL     OW  704   1.603   0.447   2.599
  229SOL    HW1  705   1.529   0.493   2.549
  229SOL    HW2  706   1.654   0.515   2.652
  230SOL     OW  707   0.231   1.713   2.345
  230SOL    HW1  708   0.265   1.790   2.399
  230SOL    HW2  709   0.275   1.713   2.255
  231SOL     OW  710   1.127   1.341   3.552
  231SOL    HW1  711   1.174   1.341   3.640
  231SOL    HW2  712   1.079   1.254   3.541
  232SOL     OW  713   0.230   1.434   2.400
  232SOL    HW1  714   0.204   1.530   2.400
  232SOL    HW2  715   0.159   1.380   2.445
  233SOL     OW  716   0.240   1.091   2.748
  233SOL    HW1  717   0.254   1.007   2.800
  233SOL    HW2  718   0.185   1.155   2.803
  234SOL     OW  719   0.620   1.786   3.301
  234SOL    HW1  720   0.528   1.769   3.336
  234SOL    HW2  721   0.648   1.878   3.327
  235SOL     OW  722   0.606   0.964   1.985
  235SOL    HW1  723   0.613   1.048   1.931
  235SOL    HW2  724   0.652   0.977   2.073
  236SOL     OW  725   1.594   0.114   3.342
  236SOL    HW1  726   1.576   0.181   3.270
  236SOL    HW2  727   1.591   0.160   3.431
  237SOL     OW  728   0.122   0.643   2.425
  237SOL    HW1  729   0.077   0.555   2.442
  237SOL    HW2  730   0.121   0.697   2.509
  238SOL     OW  731   1.842   1.767   2.221
  238SOL    HW1  732   1.896   1.738   2.301
  238SOL    HW2  733   1.872   1.857   2.192
  239SOL     OW  734   0.027   1.596   1.979
  239SOL    HW1  735   0.008   1.500   2.000
  239SOL    HW2  736  -0.006   1.654   2.054
  240SOL     OW  737   1.689   0.922   2.474
  240SOL    HW1  738   1.784   0.893   2.482
  240SOL    HW2  739   1.681   0.987   2.399
  241SOL     OW  740   1.641   1.108   2.294
  241SOL    HW1  741   1.727   1.110   2.242
  241SOL    HW2  742   1.655   1.155   2.382
  242SOL     OW  743   0.113   0.737   3.459
  242SOL    HW1  744   0.201   0.724   3.504
  242SOL    HW2  745   0.100   0.834   3.437
  243SOL     OW  746   0.613   1.365   2.588
  243SOL    HW1  747   0.564   1.278   2.597
  243SOL    HW2  748   0.590   1.408   2.501
  244SOL     OW  749   1.293   1.228   3.285
  244SOL    HW1  750   1.330   1.155   3.227
  244SOL    HW2  751   1.345   1.233   3.370
  245SOL     OW  752   0.809   0.004   2.364
  245SOL    HW1  753   0.849   0.095   2.355
  245SOL    HW2  754   0.709   0.012   2.370
  246SOL     OW  755   0.197   0.976   3.126
  246SOL    HW1  756   0.286   0.931   3.112
  246SOL    HW2  757   0.124   0.911   3.107
  247SOL     OW  758   1.525   0.999   2.052
  247SOL    HW1  759   1.462   0.923   2.065
  247SOL    HW2  760   1.573   1.017   2.138
  248SOL     OW  761   1.187   1.792   3.478
  248SOL    HW1  762   1.211   1.852   3.402
  248SOL    HW2  763   1.194   1.697   3.448
  249SOL     OW  764   0.317   0.251   3.663
  249SOL    HW1  765   0.388   0.322   3.669
  249SOL    HW2  766   0.229   0.290   3.691
  250SOL     OW  767   1.466   1.417   2.815
  250SOL    HW1  768   1.407   1.423   2.895
  250SOL    HW2  769   1.451   1.329   2.769
  251SOL     OW  770   1.667   1.714   2.434
  251SOL    HW1  771   1.626   1.691   2.346
  251SOL    HW2  772   1.649   1.640   2.499
  252SOL     OW  773   0.598   0.729   2.132
  252SOL    HW1  774   0.622   0.798   2.064
  252SOL    HW2  775   0.520   0.762   2.186
  253SOL     OW  776   1.281   0.345   2.806
  253SOL    HW1  777   1.195   0.295   2.793
  253SOL    HW2  778   1.343   0.291   2.862
  254SOL     OW  779   1.576   1.662   2.169
  254SOL    HW1  780   1.665   1.708   2.172
  254SOL    HW2  781   1.555   1.638   2.074
  255SOL     OW  782   0.807   0.605   3.327
  255SOL    HW1  783   0.760   0.602   3.416
  255SOL    HW2  784   0.756   0.550   3.261
  256SOL     OW  785   1.394   0.469   3.536
  256SOL    HW1  786   1.374   0.512   3.624
  256SOL    HW2  787   1.472   0.407   3.545
  257SOL     OW  788   0.973   0.890   3.434
  257SOL    HW1  789   1.019   0.806   3.405
  257SOL    HW2  790   0.917   0.924   3.359
  258SOL     OW  791   0.991   0.410   3.104
  258SOL    HW1  792   0.914   0.444   3.158
  258SOL    HW2  793   0.957   0.359   3.025
  259SOL     OW  794   1.041   0.701   2.291
  259SOL    HW1  795   1.067   0.697   2.387
  259SOL    HW2  796   0.956   0.650   2.277
  260SOL     OW  797   0.076   0.811   2.651
  260SOL    HW1  798   0.175   0.799   2.660
  260SOL    HW2  799   0.052   0.906   2.672
  261SOL     OW  800   0.130   1.821   3.433
  261SOL    HW1  801   0.120   1.806   3.532
  261SOL    HW2  802   0.044   1.857   3.397
  262SOL     OW  803   0.865   0.348   2.057
  262SOL    HW1  804   0.924   0.411   2.008
  262SOL    HW2  805   0.884   0.254   2.028
  263SOL     OW  806   1.719   0.585   3.693
  263SOL    HW1  807   1.693   0.674   3.657
  263SOL    HW2  808   1.717   0.517   3.620
  264SOL     OW  809   1.362   1.144   2.407
  264SOL    HW1  810   1.445   1.115   2.359
  264SOL    HW2  811   1.313   1.211   2.351
  265SOL     OW  812   0.550   0.196   2.747
  265SOL    HW1  813   0.545   0.191   2.847
  265SOL    HW2  814   0.552   0.292   2.718
  266SOL     OW  815   1.008   1.456   2.339
  266SOL    HW1  816   0.962   1.528   2.287
  266SOL    HW2  817   1.004   1.476   2.437
  267SOL     OW  818   0.351   1.801   2.715
  267SOL    HW1  819   0.401   1.715   2.721
  267SOL    HW2  820   0.416   1.878   2.712
  268SOL     OW  821   1.795   1.066   2.735
  268SOL    HW1  822   1.733   1.051   2.659
  268SOL    HW2  823   1.743   1.077   2.820
  269SOL     OW  824   1.227   1.550   3.368
  269SOL    HW1  825   1.233   1.473   3.432
  269SOL    HW2  826   1.175   1.524   3.288
  270SOL     OW  827   0.321   0.943   2.104
  270SOL    HW1  828   0.403   0.982   2.062
  270SOL    HW2  829   0.294   0.861   2.055
  271SOL     OW  830   1.458   0.735   2.590
  271SOL    HW1  831   1.453   0.670   2.665
  271SOL    HW2  832   1.538   0.794   2.603
  272SOL     OW  833   0.461   1.266   3.589
  272SOL    HW1  834   0.411   1.267   3.503
  272SOL    HW2  835   0.398   1.248   3.665
  273SOL     OW  836   1.111   1.776   2.099
  273SOL    HW1  837   1.051   1.714   2.149
  273SOL    HW2  838   1.142   1.732   2.014
  274SOL     OW  839   0.202   0.285   3.360
  274SOL    HW1  840   0.122   0.345   3.347
  274SOL    HW2  841   0.192   0.236   3.446
  275SOL     OW  842   1.632   1.377   1.943
  275SOL    HW1  843   1.600   1.471   1.933
  275SOL    HW2  844   1.556   1.314   1.931
  276SOL     OW  845   0.464   1.743   2.185
  276SOL    HW1  846   0.497   1.782   2.271
  276SOL    HW2  847   0.540   1.736   2.120
  277SOL     OW  848   1.400   0.107   2.288
  277SOL    HW1  849   1.376   0.070   2.198
  277SOL    HW2  850   1.499   0.123   2.292
  278SOL     OW  851   0.249   1.785   3.103
  278SOL    HW1  852   0.306   1.720   3.153
  278SOL    HW2  853   0.233   1.752   3.010
  279SOL     OW  854   0.940   1.698   2.766
  279SOL    HW1  855   1.020   1.641   2.787
  279SOL    HW2  856   0.891   1.658   2.689
  280SOL     OW  857   0.382   0.700   2.342
  280SOL    HW1  858   0.427   0.610   2.339
  280SOL    HW2  859   0.288   0.689   2.375
  281SOL     OW  860   1.547   0.222   3.591
  281SOL    HW1  861   1.542   0.259   3.683
  281SOL    HW2  862   1.475   0.153   3.579
  282SOL     OW  863   0.614   0.122   1.979
  282SOL    HW1  864   0.712   0.100   1.986
  282SOL    HW2  865   0.583   0.105   1.886
  283SOL     OW  866   0.781   0.264   3.611
  283SOL    HW1  867   0.848   0.203   3.654
  283SOL    HW2  868   0.708   0.283   3.676
  284SOL     OW  869   0.888   1.514   3.057
  284SOL    HW1  870   0.865   1.489   2.963
  284SOL    HW2  871   0.949   1.445   3.096
  285SOL     OW  872   1.351   0.590   3.295
  285SOL    HW1  873   1.379   0.547   3.380
  285SOL    HW2  874   1.376   0.686   3.296
  286SOL     OW  875   0.803   1.402   2.786
  286SOL    HW1  876   0.893   1.416   2.744
  286SOL    HW2  877   0.732   1.404   2.715
  287SOL     OW  878   0.922   0.503   2.761
  287SOL    HW1  879   0.897   0.494   2.665
  287SOL    HW2  880   0.970   0.421   2.792
  288SOL     OW  881   0.539   0.064   2.374
  288SOL    HW1  882   0.458   0.065   2.432
  288SOL    HW2  883   0.542   0.147   2.319
  289SOL     OW  884   1.434   1.188   1.903
  289SOL    HW1  885   1.466   1.112   1.960
  289SOL    HW2  886   1.342   1.215   1.933
  290SOL     OW  887   0.297   0.035   2.033
  290SOL    HW1  888   0.346   0.119   2.012
  290SOL    HW2  889   0.359  -0.030   2.078
  291SOL     OW  890   0.935   0.236   2.342
  291SOL    HW1  891   0.887   0.277   2.264
  291SOL    HW2  892   1.034   0.234   2.323
  292SOL     OW  893   1.076   0.683   3.326
  292SOL    HW1  894   0.996   0.622   3.329
  292SOL    HW2  895   1.157   0.630   3.302
  293SOL     OW  896   1.227   1.570   2.655
  293SOL    HW1  897   1.248   1.644   2.590
  293SOL    HW2  898   1.295   1.570   2.728
  294SOL     OW  899   0.459   1.152   2.603
  294SOL    HW1  900   0.388   1.125   2.668
  294SOL    HW2  901   0.433   1.124   2.510
  295SOL     OW  902   1.271   1.797   2.453
  295SOL    HW1  903   1.315   1.861   2.389
  295SOL    HW2  904   1.221   1.849   2.523
  296SOL     OW  905   1.032   0.549   1.878
  296SOL    HW1  906   0.991   0.631   1.839
  296SOL    HW2  907   1.096   0.575   1.951
  297SOL     OW  908   0.078   0.556   3.248
  297SOL    HW1  909   0.170   0.555   3.207
  297SOL    HW2  910   0.072   0.630   3.315
  298SOL     OW  911   0.561   0.222   3.009
  298SOL    HW1  912   0.599   0.138   3.046
  298SOL    HW2  913   0.473   0.241   3.053
  299SOL     OW  914   0.866   0.454   2.504
  299SOL    HW1  915   0.834   0.526   2.442
  299SOL    HW2  916   0.890   0.373   2.451
  300SOL     OW  917   1.017   0.039   2.615
  300SOL    HW1  918   0.945   0.044   2.546
  300SOL    HW2  919   0.993  -0.030   2.684
  301SOL     OW  920   1.429   1.173   2.729
  301SOL    HW1  921   1.374   1.089   2.722
  301SOL    HW2  922   1.455   1.202   2.637
  302SOL     OW  923   1.466   0.590   2.854
  302SOL    HW1  924   1.436   0.495   2.861
  302SOL    HW2  925   1.539   0.606   2.920
  303SOL     OW  926   1.857   0.833   2.239
  303SOL    HW1  927   1.899   0.769   2.303
  303SOL    HW2  928   1.819   0.782   2.161
  304SOL     OW  929   0.488   1.385   2.036
  304SOL    HW1  930   0.401   1.370   2.083
  304SOL    HW2  931   0.471   1.411   1.941
  305SOL     OW  932   1.664   1.280   2.519
  305SOL    HW1  933   1.763   1.288   2.533
  305SOL    HW2  934   1.619   1.364   2.550
  306SOL     OW  935   1.390   0.575   1.940
  306SOL    HW1  936   1.336   0.554   2.021
  306SOL    HW2  937   1.481   0.534   1.949
  307SOL     OW  938   0.527   0.256   2.190
  307SOL    HW1  939   0.554   0.197   2.115
  307SOL    HW2  940   0.527   0.351   2.159
  308SOL     OW  941   1.754   1.223   3.450
  308SOL    HW1  942   1.845   1.184   3.437
  308SOL    HW2  943   1.762   1.319   3.474
  309SOL     OW  944   1.064   1.347   3.202
  309SOL    HW1  945   0.984   1.324   3.257
  309SOL    HW2  946   1.147   1.321   3.251
  310SOL     OW  947   1.592   1.629   3.487
  310SOL    HW1  948   1.619   1.663   3.397
  310SOL    HW2  949   1.671   1.591   3.533
  311SOL     OW  950   1.111   1.195   2.962
  311SOL    HW1  951   1.071   1.239   3.043
  311SOL    HW2  952   1.070   1.232   2.879
  312SOL     OW  953   1.638   1.099   2.941
  312SOL    HW1  954   1.643   1.180   3.000
  312SOL    HW2  955   1.552   1.101   2.890
  313SOL     OW  956   0.915   0.089   3.264
  313SOL    HW1  957   0.940   0.069   3.169
  313SOL    HW2  958   0.987   0.145   3.306
  314SOL     OW  959   0.980   1.116   3.581
  314SOL    HW1  960   0.881   1.122   3.591
  314SOL    HW2  961   1.003   1.036   3.525
  315SOL     OW  962   0.705   1.050   2.230
  315SOL    HW1  963   0.691   1.057   2.329
  315SOL    HW2  964   0.789   0.999   2.212
  316SOL     OW  965   0.410   0.813   3.113
  316SOL    HW1  966   0.496   0.825   3.163
  316SOL    HW2  967   0.368   0.726   3.140
  317SOL     OW  968   1.274   0.386   3.124
  317SOL    HW1  969   1.295   0.460   3.188
  317SOL    HW2  970   1.185   0.403   3.081
  318SOL     OW  971   0.064   1.564   3.193
  318SOL    HW1  972   0.018   1.646   3.159
  318SOL    HW2  973   0.162   1.583   3.202
  319SOL     OW  974   0.367   1.100   2.363
  319SOL    HW1  975   0.360   1.183   2.307
  319SOL    HW2  976   0.371   1.020   2.303
  320SOL     OW  977   0.566   0.537   2.727
  320SOL    HW1  978   0.578   0.603   2.653
  320SOL    HW2  979   0.612   0.571   2.810
  321SOL     OW  980   1.252   1.348   2.250
  321SOL    HW1  981   1.302   1.425   2.290
  321SOL    HW2  982   1.157   1.350   2.282
  322SOL     OW  983   1.272   1.445   3.004
  322SOL    HW1  984   1.319   1.458   3.091
  322SOL    HW2  985   1.206   1.371   3.013
  323SOL     OW  986   1.582   0.639   2.334
  323SOL    HW1  987   1.551   0.700   2.407
  323SOL    HW2  988   1.632   0.691   2.265
  324SOL     OW  989   0.354   1.510   3.191
  324SOL    HW1  990   0.333   1.466   3.104
  324SOL    HW2  991   0.451   1.536   3.194
  325SOL     OW  992   0.402   0.751   3.460
  325SOL    HW1  993   0.470   0.806   3.413
  325SOL    HW2  994   0.442   0.663   3.487
  326SOL     OW  995   1.587   0.779   3.532
  326SOL    HW1  996   1.495   0.817   3.527
  326SOL    HW2  997   1.647   0.826   3.467
  327SOL     OW  998   1.013   0.105   3.632
  327SOL    HW1  999   1.019   0.190   3.580
  327SOL    HW2 1000   1.045   0.029   3.575
  328SOL     OW 1001   0.504   0.050   3.602
  328SOL    HW1 1002   0.462  -0.007   3.532
  328SOL    HW2 1003   0.438   0.119   3.634
  329SOL     OW 1004   0.573   0.870   2.891
  329SOL    HW1 1005   0.617   0.959   2.882
  329SOL    HW2 1006   0.510   0.870   2.968
  330SOL     OW 1007   1.360   0.862   2.907
  330SOL    HW1 1008   1.285   0.862   2.841
  330SOL    HW2 1009   1.397   0.770   2.916
  331SOL     OW 1010   1.209   0.525   2.137
  331SOL    HW1 1011   1.222   0.441   2.191
  331SOL    HW2 1012   1.180   0.599   2.197
  332SOL     OW 1013   0.307   0.213   3.093
  332SOL    HW1 1014   0.284   0.250   3.183
  332SOL    HW2 1015   0.277   0.118   3.087
  333SOL     OW 1016   0.037   1.310   3.144
  333SOL    HW1 1017   0.090   1.261   3.212
  333SOL    HW2 1018   0.059   1.408   3.149
  334SOL     OW 1019   0.732   0.634   2.926
  334SOL    HW1 1020   0.791   0.608   2.850
  334SOL    HW2 1021   0.704   0.730   2.915
  335SOL     OW 1022   1.728   0.935   3.716
  335SOL    HW1 1023   1.682   0.928   3.627
  335SOL    HW2 1024   1.666   0.979   3.782
  336SOL     OW 1025   0.307   0.063   2.480
  336SOL    HW1 1026   0.296   0.157   2.513
  336SOL    HW2 1027   0.302   0.000   2.557
  337SOL     OW 1028   1.622   0.367   2.236
  337SOL    HW1 1029   1.624   0.291   2.300
  337SOL    HW2 1030   1.574   0.444   2.276
  338SOL     OW 1031   1.023   0.766   2.828
  338SOL    HW1 1032   1.038   0.787   2.924
  338SOL    HW2 1033   0.993   0.671   2.819
  339SOL     OW 1034   0.980   1.573   3.562
  339SOL    HW1 1035   0.960   1.617   3.474
  339SOL    HW2 1036   1.019   1.482   3.546
  340SOL     OW 1037   1.859   1.518   3.467
  340SOL    HW1 1038   1.873   1.545   3.372
  340SOL    HW2 1039   1.942   1.540   3.520
  341SOL     OW 1040   0.350   0.898   3.666
  341SOL    HW1 1041   0.426   0.942   3.714
  341SOL    HW2 1042   0.385   0.851   3.584
  342SOL     OW 1043   1.540   0.274   1.987
  342SOL    HW1 1044   1.479   0.199   2.010
  342SOL    HW2 1045   1.562   0.326   2.070
  343SOL     OW 1046   1.303   0.838   1.904
  343SOL    HW1 1047   1.337   0.745   1.919
  343SOL    HW2 1048   1.321   0.865   1.809
  344SOL     OW 1049   1.068   1.333   2.711
  344SOL    HW1 1050   1.075   1.249   2.656
  344SOL    HW2 1051   1.130   1.402   2.675
  345SOL     OW 1052   0.319   0.810   2.811
  345SOL    HW1 1053   0.412   0.846   2.816
  345SOL    HW2 1054   0.313   0.725   2.863
  346SOL     OW 1055   0.339   0.509   2.868
  346SOL    HW1 1056   0.287   0.426   2.851
  346SOL    HW2 1057   0.416   0.514   2.804
  347SOL     OW 1058   1.138   0.380   3.540
  347SOL    HW1 1059   1.093   0.443   3.604
  347SOL    HW2 1060   1.231   0.411   3.523
  348SOL     OW 1061   1.160   0.207   3.339
  348SOL    HW1 1062   1.160   0.271   3.416
  348SOL    HW2 1063   1.188   0.255   3.256
  349SOL     OW 1064   0.008   1.326   2.062
  349SOL    HW1 1065  -0.085   1.347   2.031
  349SOL    HW2 1066   0.018   1.227   2.075
  350SOL     OW 1067   0.088   1.801   2.789
  350SOL    HW1 1068   0.046   1.715   2.762
  350SOL    HW2 1069   0.182   1.804   2.755
  351SOL     OW 1070   0.504   1.568   2.772
  351SOL    HW1 1071   0.570   1.642   2.781
  351SOL    HW2 1072   0.548   1.489   2.730
  352SOL     OW 1073   1.002   0.796   3.100
  352SOL    HW1 1074   1.043   0.764   3.186
  352SOL    HW2 1075   0.906   0.769   3.097
  353SOL     OW 1076   0.040   0.544   2.976
  353SOL    HW1 1077   0.125   0.511   2.935
  353SOL    HW2 1078   0.053   0.559   3.074
  354SOL     OW 1079   0.189   0.520   3.584
  354SOL    HW1 1080   0.248   0.480   3.514
  354SOL    HW2 1081   0.131   0.591   3.543
  355SOL     OW 1082   1.369   0.950   3.522
  355SOL    HW1 1083   1.408   1.039   3.542
  355SOL    HW2 1084   1.379   0.930   3.425
  356SOL     OW 1085   0.815   0.572   2.187
  356SOL    HW1 1086   0.822   0.483   2.141
  356SOL    HW2 1087   0.721   0.606   2.179
  357SOL     OW 1088   1.657   0.604   3.068
  357SOL    HW1 1089   1.619   0.535   3.130
  357SOL    HW2 1090   1.739   0.568   3.024
  358SOL     OW 1091   0.252   1.564   3.606
  358SOL    HW1 1092   0.222   1.621   3.682
  358SOL    HW2 1093   0.245   1.467   3.632
  359SOL     OW 1094   0.671   0.464   3.131
  359SOL    HW1 1095   0.637   0.375   3.101
  359SOL    HW2 1096   0.697   0.518   3.051
  360SOL     OW 1097   0.930   1.678   3.327
  360SOL    HW1 1098   0.906   1.660   3.232
  360SOL    HW2 1099   0.960   1.772   3.337
  361SOL     OW 1100   0.473   0.500   2.053
  361SOL    HW1 1101   0.534   0.580   2.057
  361SOL    HW2 1102   0.378   0.531   2.060
  362SOL     OW 1103   0.159   1.137   3.328
  362SOL    HW1 1104   0.181   1.076   3.404
  362SOL    HW2 1105   0.169   1.088   3.242
  363SOL     OW 1106   1.347   1.059   3.096
  363SOL    HW1 1107   1.371   0.996   3.022
  363SOL    HW2 1108   1.257   1.099   3.078
  364SOL     OW 1109   1.302   0.855   2.171
  364SOL    HW1 1110   1.216   0.824   2.213
  364SOL    HW2 1111   1.298   0.841   2.072
  365SOL     OW 1112   1.759   1.747   3.016
  365SOL    HW1 1113   1.820   1.777   2.943
  365SOL    HW2 1114   1.721   1.658   2.994
  366SOL     OW 1115   1.252   1.731   2.990
  366SOL    HW1 1116   1.336   1.736   2.936
  366SOL    HW2 1117   1.229   1.635   3.008
  367SOL     OW 1118   0.083   1.258   2.884
  367SOL    HW1 1119   0.078   1.257   2.984
  367SOL    HW2 1120   0.000   1.217   2.846
  368SOL     OW 1121   0.688   1.662   3.578
  368SOL    HW1 1122   0.632   1.743   3.587
  368SOL    HW2 1123   0.740   1.666   3.492
  369SOL     OW 1124   1.726   0.135   2.385
  369SOL    HW1 1125   1.799   0.118   2.318
  369SOL    HW2 1126   1.695   0.048   2.423
  370SOL     OW 1127   1.388   1.573   2.339
  370SOL    HW1 1128   1.455   1.585   2.265
  370SOL    HW2 1129   1.348   1.662   2.362
  371SOL     OW 1130   0.130   1.794   3.713
  371SOL    HW1 1131   0.089   1.720   3.766
  371SOL    HW2 1132   0.194   1.845   3.771
  372SOL     OW 1133   1.280   0.927   2.534
  372SOL    HW1 1134   1.340   0.846   2.536
  372SOL    HW2 1135   1.320   0.996   2.474
  373SOL     OW 1136   0.830   1.273   3.284
  373SOL    HW1 1137   0.825   1.306   3.379
  373SOL    HW2 1138   0.744   1.292   3.238
  374SOL     OW 1139   0.672   1.616   2.016
  374SOL    HW1 1140   0.681   1.626   1.917
  374SOL    HW2 1141   0.632   1.527   2.037
  375SOL     OW 1142   1.650   1.720   3.256
  375SOL    HW1 1143   1.703   1.730   3.172
  375SOL    HW2 1144   1.623   1.810   3.290
  376SOL     OW 1145   1.841   0.175   2.825
  376SOL    HW1 1146   1.880   0.090   2.789
  376SOL    HW2 1147   1.743   0.177   2.806
  377SOL     OW 1148   0.263   0.326   2.582
  377SOL    HW1 1149   0.184   0.377   2.548
  377SOL    HW2 1150   0.254   0.311   2.680
  378SOL     OW 1151   1.194   1.612   1.893
  378SOL    HW1 1152   1.200   1.519   1.930
  378SOL    HW2 1153   1.135   1.612   1.813
  379SOL     OW 1154   0.822   1.002   3.234
  379SOL    HW1 1155   0.862   1.001   3.142
  379SOL    HW2 1156   0.832   1.094   3.274
  380SOL     OW 1157   0.916   0.910   2.153
  380SOL    HW1 1158   0.979   0.948   2.085
  380SOL    HW2 1159   0.956   0.827   2.192
  381SOL     OW 1160   1.504   1.607   1.906
  381SOL    HW1 1161   1.412   1.644   1.913
  381SOL    HW2 1162   1.542   1.627   1.816
  382SOL     OW 1163   0.372   1.288   3.352
  382SOL    HW1 1164   0.359   1.381   3.318
  382SOL    HW2 1165   0.288   1.236   3.339
  383SOL     OW 1166   1.614   1.292   3.151
  383SOL    HW1 1167   1.674   1.295   3.231
  383SOL    HW2 1168   1.539   1.356   3.164
  384SOL     OW 1169   1.039   1.098   2.558
  384SOL    HW1 1170   0.969   1.051   2.612
  384SOL    HW2 1171   1.098   1.030   2.515
  385SOL     OW 1172   1.014   0.236   2.833
  385SOL    HW1 1173   1.006   0.200   2.740
  385SOL    HW2 1174   1.012   0.160   2.898
  386SOL     OW 1175   0.590   1.487   2.353
  386SOL    HW1 1176   0.632   1.429   2.283
  386SOL    HW2 1177   0.546   1.566   2.309
  387SOL     OW 1178   1.709   0.385   3.243
  387SOL    HW1 1179   1.782   0.454   3.247
  387SOL    HW2 1180   1.737   0.310   3.184
  388SOL     OW 1181   0.255   1.348   2.152
  388SOL    HW1 1182   0.159   1.349   2.125
  388SOL    HW2 1183   0.267   1.401   2.236
  389SOL     OW 1184   0.105   1.013   3.588
  389SOL    HW1 1185   0.028   0.980   3.642
  389SOL    HW2 1186   0.190   0.983   3.630
  390SOL     OW 1187   0.672   0.203   3.351
  390SOL    HW1 1188   0.762   0.187   3.311
  390SOL    HW2 1189   0.680   0.208   3.450
  391SOL     OW 1190   0.075   0.345   1.895
  391SOL    HW1 1191  -0.017   0.317   1.866
  391SOL    HW2 1192   0.106   0.422   1.839
  392SOL     OW 1193   1.440   0.856   3.260
  392SOL    HW1 1194   1.383   0.908   3.197
  392SOL    HW2 1195   1.536   0.868   3.236
  393SOL     OW 1196   0.072   0.166   2.180
  393SOL    HW1 1197   0.055   0.249   2.126
  393SOL    HW2 1198   0.162   0.129   2.158
  394SOL     OW 1199   1.183   1.335   1.981
  394SOL    HW1 1200   1.084   1.324   1.983
  394SOL    HW2 1201   1.217   1.350   2.074
  395SOL     OW 1202   0.613   0.842   3.293
  395SOL    HW1 1203   0.669   0.923   3.276
  395SOL    HW2 1204   0.672   0.762   3.296
  396SOL     OW 1205   1.493   1.767   2.821
  396SOL    HW1 1206   1.526   1.831   2.752
  396SOL    HW2 1207   1.559   1.761   2.896
  397SOL     OW 1208   0.716   0.565   3.570
  397SOL    HW1 1209   0.735   0.630   3.644
  397SOL    HW2 1210   0.776   0.485   3.579
  398SOL     OW 1211   1.450   1.220   3.495
  398SOL    HW1 1212   1.441   1.210   3.594
  398SOL    HW2 1213   1.546   1.213   3.469
  399SOL     OW 1214   0.390   1.741   3.422
  399SOL    HW1 1215   0.299   1.782   3.420
  399SOL    HW2 1216   0.383   1.647   3.454
  400SOL     OW 1217   1.674   0.883   3.116
  400SOL    HW1 1218   1.647   0.794   3.079
  400SOL    HW2 1219   1.675   0.951   3.043
  401SOL     OW 1220   1.225   0.325   2.311
  401SOL    HW1 1221   1.290   0.251   2.300
  401SOL    HW2 1222   1.245   0.375   2.395
  402SOL     OW 1223   0.594   0.745   2.514
  402SOL    HW1 1224   0.644   0.830   2.495
  402SOL    HW2 1225   0.506   0.747   2.466
  403SOL     OW 1226   1.777   0.342   3.504
  403SOL    HW1 1227   1.760   0.373   3.410
  403SOL    HW2 1228   1.693   0.305   3.542
  404SOL     OW 1229   1.730   0.934   3.379
  404SOL    HW1 1230   1.768   1.025   3.394
  404SOL    HW2 1231   1.722   0.917   3.280
  405SOL     OW 1232   0.859   1.374   1.878
  405SOL    HW1 1233   0.813   1.389   1.966
  405SOL    HW2 1234   0.903   1.459   1.848
  406SOL     OW 1235   0.661   1.790   2.815
  406SOL    HW1 1236   0.615   1.878   2.802
  406SOL    HW2 1237   0.760   1.802   2.808
  407SOL     OW 1238   0.859   0.956   2.723
  407SOL    HW1 1239   0.913   0.887   2.771
  407SOL    HW2 1240   0.827   1.025   2.789
  408SOL     OW 1241   1.083   0.984   1.949
  408SOL    HW1 1242   1.060   1.037   1.867
  408SOL    HW2 1243   1.164   0.928   1.930
  409SOL     OW 1244   1.861   1.569   2.713
  409SOL    HW1 1245   1.790   1.557   2.643
  409SOL    HW2 1246   1.862   1.490   2.773
  410SOL     OW 1247   0.221   1.314   3.706
  410SOL    HW1 1248   0.156   1.241   3.685
  410SOL    HW2 1249   0.225   1.328   3.804
  411SOL     OW 1250   0.079   1.240   2.515
  411SOL    HW1 1251   0.078   1.193   2.603
  411SOL    HW2 1252   0.161   1.212   2.464
  412SOL     OW 1253   0.672   1.391   3.486
  412SOL    HW1 1254   0.594   1.341   3.524
  412SOL    HW2 1255   0.669   1.486   3.517
  413SOL     OW 1256   1.824   0.192   3.089
  413SOL    HW1 1257   1.820   0.102   3.133
  413SOL    HW2 1258   1.827   0.181   2.990
  414SOL     OW 1259   0.428   0.424   2.382
  414SOL    HW1 1260   0.458   0.352   2.320
  414SOL    HW2 1261   0.389   0.384   2.465
  415SOL     OW 1262   1.705   1.487   2.966
  415SOL    HW1 1263   1.612   1.462   2.939
  415SOL    HW2 1264   1.731   1.437   3.048
  416SOL     OW 1265   0.317   0.547   3.142
  416SOL    HW1 1266   0.355   0.488   3.214
  416SOL    HW2 1267   0.357   0.521   3.054
  417SOL     OW 1268   0.812   1.586   2.549
  417SOL    HW1 1269   0.844   1.596   2.455
  417SOL    HW2 1270   0.733   1.524   2.551
  418SOL     OW 1271   1.424   0.214   2.974
  418SOL    HW1 1272   1.476   0.149   3.029
  418SOL    HW2 1273   1.375   0.277   3.035
  419SOL     OW 1274   1.001   0.034   3.016
  419SOL    HW1 1275   0.938  -0.038   2.985
  419SOL    HW2 1276   1.094  -0.002   3.016
  420SOL     OW 1277   0.770   1.330   2.163
  420SOL    HW1 1278   0.724   1.243   2.180
  420SOL    HW2 1279   0.861   1.327   2.204
  421SOL     OW 1280   0.618   1.567   3.146
  421SOL    HW1 1281   0.613   1.649   3.203
  421SOL    HW2 1282   0.707   1.564   3.101
  422SOL     OW 1283   1.352   0.052   2.030
  422SOL    HW1 1284   1.387   0.011   1.946
  422SOL    HW2 1285   1.262   0.014   2.050
  423SOL     OW 1286   1.300   0.453   2.553
  423SOL    HW1 1287   1.241   0.533   2.557
  423SOL    HW2 1288   1.315   0.418   2.646
  424SOL     OW 1289   1.593   0.221   2.744
  424SOL    HW1 1290   1.509   0.220   2.798
  424SOL    HW2 1291   1.595   0.304   2.688
  425SOL     OW 1292   0.039   1.077   2.162
  425SOL    HW1 1293   0.138   1.066   2.153
  425SOL    HW2 1294  -0.001   0.991   2.194
  426SOL     OW 1295   0.875   1.646   2.199
  426SOL    HW1 1296   0.798   1.611   2.145
  426SOL    HW2 1297   0.843   1.717   2.261
  427SOL     OW 1298   0.230   0.628   3.837
  427SOL    HW1 1299   0.137   0.626   3.874
  427SOL    HW2 1300   0.231   0.589   3.745
  428SOL     OW 1301   0.225   0.275   4.720
  428SOL    HW1 1302   0.260   0.258   4.812
  428SOL    HW2 1303   0.137   0.230   4.708
  429SOL     OW 1304   0.019   0.368   4.371
  429SOL    HW1 1305  -0.063   0.411   4.410
  429SOL    HW2 1306  -0.009   0.295   4.308
  430SOL     OW 1307   0.569   1.275   4.889
  430SOL    HW1 1308   0.476   1.268   4.852
  430SOL    HW2 1309   0.580   1.364   4.933
  431SOL     OW 1310   1.555   1.511   4.427
  431SOL    HW1 1311   1.498   1.495   4.508
  431SOL    HW2 1312   1.496   1.521   4.347
  432SOL     OW 1313   1.135   0.703   4.441
  432SOL    HW1 1314   1.192   0.781   4.416
  432SOL    HW2 1315   1.075   0.729   4.517
  433SOL     OW 1316   1.755   0.607   3.955
  433SOL    HW1 1317   1.743   0.594   3.856
  433SOL    HW2 1318   1.725   0.526   4.004
  434SOL     OW 1319   0.768   1.144   4.747
  434SOL    HW1 1320   0.690   1.161   4.807
  434SOL    HW2 1321   0.802   1.231   4.711
  435SOL     OW 1322   0.685   1.012   4.389
  435SOL    HW1 1323   0.754   0.996   4.459
  435SOL    HW2 1324   0.612   1.069   4.427
  436SOL     OW 1325   0.335   1.435   4.785
  436SOL    HW1 1326   0.257   1.404   4.732
  436SOL    HW2 1327   0.393   1.493   4.728
  437SOL     OW 1328   1.603   0.447   4.461
  437SOL    HW1 1329   1.529   0.493   4.411
  437SOL    HW2 1330   1.654   0.515   4.514
  438SOL     OW 1331   0.231   1.713   4.207
  438SOL    HW1 1332   0.265   1.790   4.261
  438SOL    HW2 1333   0.275   1.713   4.117
  439SOL     OW 1334   0.230   1.434   4.262
  439SOL    HW1 1335   0.204   1.530   4.262
  439SOL    HW2 1336   0.159   1.380   4.307
  440SOL     OW 1337   0.240   1.091   4.610
  440SOL    HW1 1338   0.254   1.007   4.662
  440SOL    HW2 1339   0.185   1.155   4.665
  441SOL     OW 1340   0.606   0.964   3.847
  441SOL    HW1 1341   0.613   1.048   3.793
  441SOL    HW2 1342   0.652   0.977   3.935
  442SOL     OW 1343   0.122   0.643   4.287
  442SOL    HW1 1344   0.077   0.555   4.304
  442SOL    HW2 1345   0.121   0.697   4.371
  443SOL     OW 1346   1.842   1.767   4.083
  443SOL    HW1 1347   1.896   1.738   4.163
  443SOL    HW2 1348   1.872   1.857   4.054
  444SOL     OW 1349   0.027   1.596   3.841
  444SOL    HW1 1350   0.008   1.500   3.862
  444SOL    HW2 1351  -0.006   1.654   3.916
  445SOL     OW 1352   1.689   0.922   4.336
  445SOL    HW1 1353   1.784   0.893   4.344
  445SOL    HW2 1354   1.681   0.987   4.261
  446SOL     OW 1355   1.641   1.108   4.156
  446SOL    HW1 1356   1.727   1.110   4.104
  446SOL    HW2 1357   1.655   1.155   4.244
  447SOL     OW 1358   0.613   1.365   4.450
  447SOL    HW1 1359   0.564   1.278   4.459
  447SOL    HW2 1360   0.590   1.408   4.363
  448SOL     OW 1361   0.809   0.004   4.226
  448SOL    HW1 1362   0.849   0.095   4.217
  448SOL    HW2 1363   0.709   0.012   4.232
  449SOL     OW 1364   0.197   0.976   4.988
  449SOL    HW1 1365   0.286   0.931   4.974
  449SOL    HW2 1366   0.124   0.911   4.969
  450SOL     OW 1367   1.525   0.999   3.914
  450SOL    HW1 1368   1.462   0.923   3.927
  450SOL    HW2 1369   1.573   1.017   4.000
  451SOL     OW 1370   1.466   1.417   4.677
  451SOL    HW1 1371   1.407   1.423   4.757
  451SOL    HW2 1372   1.451   1.329   4.631
  452SOL     OW 1373   1.667   1.714   4.296
  452SOL    HW1 1374   1.626   1.691   4.208
  452SOL    HW2 1375   1.649   1.640   4.361
  453SOL     OW 1376   0.598   0.729   3.994
  453SOL    HW1 1377   0.622   0.798   3.926
  453SOL    HW2 1378   0.520   0.762   4.048
  454SOL     OW 1379   1.281   0.345   4.668
  454SOL    HW1 1380   1.195   0.295   4.655
  454SOL    HW2 1381   1.343   0.291   4.724
  455SOL     OW 1382   1.576   1.662   4.031
  455SOL    HW1 1383   1.665   1.708   4.034
  455SOL    HW2 1384   1.555   1.638   3.936
  456SOL     OW 1385   1.041   0.701   4.153
  456SOL    HW1 1386   1.067   0.697   4.249
  456SOL    HW2 1387   0.956   0.650   4.139
  457SOL     OW 1388   0.076   0.811   4.513
  457SOL    HW1 1389   0.175   0.799   4.522
  457SOL    HW2 1390   0.052   0.906   4.534
  458SOL     OW 1391   0.865   0.348   3.919
  458SOL    HW1 1392   0.924   0.411   3.870
  458SOL    HW2 1393   0.884   0.254   3.890
  459SOL     OW 1394   1.362   1.144   4.269
  459SOL    HW1 1395   1.445   1.115   4.221
  459SOL    HW2 1396   1.313   1.211   4.213
  460SOL     OW 1397   0.550   0.196   4.609
  460SOL    HW1 1398   0.545   0.191   4.709
  460SOL    HW2 1399   0.552   0.292   4.580
  461SOL     OW 1400   1.008   1.456   4.201
  461SOL    HW1 1401   0.962   1.528   4.149
  461SOL    HW2 1402   1.004   1.476   4.299
  462SOL     OW 1403   0.351   1.801   4.577
  462SOL    HW1 1404   0.401   1.715   4.583
  462SOL    HW2 1405   0.416   1.878   4.574
  463SOL     OW 1406   1.795   1.066   4.597
  463SOL    HW1 1407   1.733   1.051   4.521
  463SOL    HW2 1408   1.743   1.077   4.682
  464SOL     OW 1409   0.321   0.943   3.966
  464SOL    HW1 1410   0.403   0.982   3.924
  464SOL    HW2 1411   0.294   0.861   3.917
  465SOL     OW 1412   1.458   0.735   4.452
  465SOL    HW1 1413   1.453   0.670   4.527
  465SOL    HW2 1414   1.538   0.794   4.465
  466SOL     OW 1415   1.111   1.776   3.961
  466SOL    HW1 1416   1.051   1.714   4.011
  466SOL    HW2 1417   1.142   1.732   3.876
  467SOL     OW 1418   1.632   1.377   3.805
  467SOL    HW1 1419   1.600   1.471   3.795
  467SOL    HW2 1420   1.556   1.314   3.793
  468SOL     OW 1421   0.464   1.743   4.047
  468SOL    HW1 1422   0.497   1.782   4.133
  468SOL    HW2 1423   0.540   1.736   3.982
  469SOL     OW 1424   1.400   0.107   4.150
  469SOL    HW1 1425   1.376   0.070   4.060
  469SOL    HW2 1426   1.499   0.123   4.154
  470SOL     OW 1427   0.249   1.785   4.965
  470SOL    HW1 1428   0.306   1.720   5.015
  470SOL    HW2 1429   0.233   1.752   4.872
  471SOL     OW 1430   0.940   1.698   4.628
  471SOL    HW1 1431   1.020   1.641   4.649
  471SOL    HW2 1432   0.891   1.658   4.551
  472SOL     OW 1433   0.382   0.700   4.204
  472SOL    HW1 1434   0.427   0.610   4.201
  472SOL    HW2 1435   0.288   0.689   4.237
  473SOL     OW 1436   0.614   0.122   3.841
  473SOL    HW1 1437   0.712   0.100   3.848
  473SOL    HW2 1438   0.583   0.105   3.748
  474SOL     OW 1439   0.803   1.402   4.648
  474SOL    HW1 1440   0.893   1.416   4.606
  474SOL    HW2 1441   0.732   1.404   4.577
  475SOL     OW 1442   0.922   0.503   4.623
  475SOL    HW1 1443   0.897   0.494   4.527
  475SOL    HW2 1444   0.970   0.421   4.654
  476SOL     OW 1445   0.539   0.064   4.236
  476SOL    HW1 1446   0.458   0.065   4.294
  476SOL    HW2 1447   0.542   0.147   4.181
  477SOL     OW 1448   1.434   1.188   3.765
  477SOL    HW1 1449   1.466   1.112   3.822
  477SOL    HW2 1450   1.342   1.215   3.795
  478SOL     OW 1451   0.297   0.035   3.895
  478SOL    HW1 1452   0.346   0.119   3.874
  478SOL    HW2 1453   0.359  -0.030   3.940
  479SOL     OW 1454   0.935   0.236   4.204
  479SOL    HW1 1455   0.887   0.277   4.126
  479SOL    HW2 1456   1.034   0.234   4.185
  480SOL     OW 1457   1.227   1.570   4.517
  480SOL    HW1 1458   1.248   1.644   4.452
  480SOL    HW2 1459   1.295   1.570   4.590
  481SOL     OW 1460   0.459   1.152   4.465
  481SOL    HW1 1461   0.388   1.125   4.530
  481SOL    HW2 1462   0.433   1.124   4.372
  482SOL     OW 1463   1.271   1.797   4.315
  482SOL    HW1 1464   1.315   1.861   4.251
  482SOL    HW2 1465   1.221   1.849   4.385
  483SOL     OW 1466   1.032   0.549   3.740
  483SOL    HW1 1467   0.991   0.631   3.701
  483SOL    HW2 1468   1.096   0.575   3.813
  484SOL     OW 1469   0.866   0.454   4.366
  484SOL    HW1 1470   0.834   0.526   4.304
  484SOL    HW2 1471   0.890   0.373   4.313
  485SOL     OW 1472   1.017   0.039   4.477
  485SOL    HW1 1473   0.945   0.044   4.408
  485SOL    HW2 1474   0.993  -0.030   4.546
  486SOL     OW 1475   1.429   1.173   4.591
  486SOL    HW1 1476   1.374   1.089   4.584
  486SOL    HW2 1477   1.455   1.202   4.499
  487SOL     OW 1478   1.466   0.590   4.716
  487SOL    HW1 1479   1.436   0.495   4.723
  487SOL    HW2 1480   1.539   0.606   4.782
  488SOL     OW 1481   1.857   0.833   4.101
  488SOL    HW1 1482   1.899   0.769   4.165
  488SOL    HW2 1483   1.819   0.782   4.023
  489SOL     OW 1484   0.488   1.385   3.898
  489SOL    HW1 1485   0.401   1.370   3.945
  489SOL    HW2 1486   0.471   1.411   3.803
  490SOL     OW 1487   1.664   1.280   4.381
  490SOL    HW1 1488   1.763   1.288   4.395
  490SOL    HW2 1489   1.619   1.364   4.412
  491SOL     OW 1490   1.390   0.575   3.802
  491SOL    HW1 1491   1.336   0.554   3.883
  491SOL    HW2 1492   1.481   0.534   3.811
  492SOL     OW 1493   0.527   0.256   4.052
  492SOL    HW1 1494   0.554   0.197   3.977
  492SOL    HW2 1495   0.527   0.351   4.021
  493SOL     OW 1496   1.111   1.195   4.824
  493SOL    HW1 1497   1.071   1.239   4.905
  493SOL    HW2 1498   1.070   1.232   4.741
  494SOL     OW 1499   1.638   1.099   4.803
  494SOL    HW1 1500   1.643   1.180   4.862
  494SOL    HW2 1501   1.552   1.101   4.752
  495SOL     OW 1502   0.705   1.050   4.092
  495SOL    HW1 1503   0.691   1.057   4.191
  495SOL    HW2 1504   0.789   0.999   4.074
  496SOL     OW 1505   0.410   0.813   4.975
  496SOL    HW1 1506   0.496   0.825   5.025
  496SOL    HW2 1507   0.368   0.726   5.002
  497SOL     OW 1508   0.367   1.100   4.225
  497SOL    HW1 1509   0.360   1.183   4.169
  497SOL    HW2 1510   0.371   1.020   4.165
  498SOL     OW 1511   0.566   0.537   4.589
  498SOL    HW1 1512   0.578   0.603   4.515
  498SOL    HW2 1513   0.612   0.571   4.672
  499SOL     OW 1514   1.252   1.348   4.112
  499SOL    HW1 1515   1.302   1.425   4.152
  499SOL    HW2 1516   1.157   1.350   4.144
  500SOL     OW 1517   1.272   1.445   4.866
  500SOL    HW1 1518   1.319   1.458   4.953
  500SOL    HW2 1519   1.206   1.371   4.875
  501SOL     OW 1520   1.582   0.639   4.196
  501SOL    HW1 1521   1.551   0.700   4.269
  501SOL    HW2 1522   1.632   0.691   4.127
  502SOL     OW 1523   0.573   0.870   4.753
  502SOL    HW1 1524   0.617   0.959   4.744
  502SOL    HW2 1525   0.510   0.870   4.830
  503SOL     OW 1526   1.209   0.525   3.999
  503SOL    HW1 1527   1.222   0.441   4.053
  503SOL    HW2 1528   1.180   0.599   4.059
  504SOL     OW 1529   0.307   0.213   4.955
  504SOL    HW1 1530   0.284   0.250   5.045
  504SOL    HW2 1531   0.277   0.118   4.949
  505SOL     OW 1532   0.732   0.634   4.788
  505SOL    HW1 1533   0.791   0.608   4.712
  505SOL    HW2 1534   0.704   0.730   4.777
  506SOL     OW 1535   0.307   0.063   4.342
  506SOL    HW1 1536   0.296   0.157   4.375
  506SOL    HW2 1537   0.302   0.000   4.419
  507SOL     OW 1538   1.622   0.367   4.098
  507SOL    HW1 1539   1.624   0.291   4.162
  507SOL    HW2 1540   1.574   0.444   4.138
  508SOL     OW 1541   1.023   0.766   4.690
  508SOL    HW1 1542   1.038   0.787   4.786
  508SOL    HW2 1543   0.993   0.671   4.681
  509SOL     OW 1544   1.540   0.274   3.849
  509SOL    HW1 1545   1.479   0.199   3.872
  509SOL    HW2 1546   1.562   0.326   3.932
  510SOL     OW 1547   1.303   0.838   3.766
  510SOL    HW1 1548   1.337   0.745   3.781
  510SOL    HW2 1549   1.321   0.865   3.671
  511SOL     OW 1550   1.068   1.333   4.573
  511SOL    HW1 1551   1.075   1.249   4.518
  511SOL    HW2 1552   1.130   1.402   4.537
  512SOL     OW 1553   0.319   0.810   4.673
  512SOL    HW1 1554   0.412   0.846   4.678
  512SOL    HW2 1555   0.313   0.725   4.725
  513SOL     OW 1556   0.339   0.509   4.730
  513SOL    HW1 1557   0.287   0.426   4.713
  513SOL    HW2 1558   0.416   0.514   4.666
  514SOL     OW 1559   0.008   1.326   3.924
  514SOL    HW1 1560  -0.085   1.347   3.893
  514SOL    HW2 1561   0.018   1.227   3.937
  515SOL     OW 1562   0.088   1.801   4.651
  515SOL    HW1 1563   0.046   1.715   4.624
  515SOL    HW2 1564   0.182   1.804   4.617
  516SOL     OW 1565   0.504   1.568   4.634
  516SOL    HW1 1566   0.570   1.642   4.643
  516SOL    HW2 1567   0.548   1.489   4.592
  517SOL     OW 1568   1.002   0.796   4.962
  517SOL    HW1 1569   1.043   0.764   5.048
  517SOL    HW2 1570   0.906   0.769   4.959
  518SOL     OW 1571   0.815   0.572   4.049
  518SOL    HW1 1572   0.822   0.483   4.003
  518SOL    HW2 1573   0.721   0.606   4.041
  519SOL     OW 1574   1.657   0.604   4.930
  519SOL    HW1 1575   1.619   0.535   4.992
  519SOL    HW2 1576   1.739   0.568   4.886
  520SOL     OW 1577   0.671   0.464   4.993
  520SOL    HW1 1578   0.637   0.375   4.963
  520SOL    HW2 1579   0.697   0.518   4.913
  521SOL     OW 1580   0.473   0.500   3.915
  521SOL    HW1 1581   0.534   0.580   3.919
  521SOL    HW2 1582   0.378   0.531   3.922
  522SOL     OW 1583   1.302   0.855   4.033
  522SOL    HW1 1584   1.216   0.824   4.075
  522SOL    HW2 1585   1.298   0.841   3.934
  523SOL     OW 1586   1.759   1.747   4.878
  523SOL    HW1 1587   1.820   1.777   4.805
  523SOL    HW2 1588   1.721   1.658   4.856
  524SOL     OW 1589   0.083   1.258   4.746
  524SOL    HW1 1590   0.078   1.257   4.846
  524SOL    HW2 1591   0.000   1.217   4.708
  525SOL     OW 1592   1.726   0.135   4.247
  525SOL    HW1 1593   1.799   0.118   4.180
  525SOL    HW2 1594   1.695   0.048   4.285
  526SOL     OW 1595   1.388   1.573   4.201
  526SOL    HW1 1596   1.455   1.585   4.127
  526SOL    HW2 1597   1.348   1.662   4.224
  527SOL     OW 1598   1.280   0.927   4.396
  527SOL    HW1 1599   1.340   0.846   4.398
  527SOL    HW2 1600   1.320   0.996   4.336
  528SOL     OW 1601   0.672   1.616   3.878
  528SOL    HW1 1602   0.681   1.626   3.779
  528SOL    HW2 1603   0.632   1.527   3.899
  529SOL     OW 1604   1.841   0.175   4.687
  529SOL    HW1 1605   1.880   0.090   4.651
  529SOL    HW2 1606   1.743   0.177   4.668
  530SOL     OW 1607   0.263   0.326   4.444
  530SOL    HW1 1608   0.184   0.377   4.410
  530SOL    HW2 1609   0.254   0.311   4.542
  531SOL     OW 1610   1.194   1.612   3.755
  531SOL    HW1 1611   1.200   1.519   3.792
  531SOL    HW2 1612   1.135   1.612   3.675
  532SOL     OW 1613   0.822   1.002   5.096
  532SOL    HW1 1614   0.862   1.001   5.004
  532SOL    HW2 1615   0.832   1.094   5.136
  533SOL     OW 1616   0.916   0.910   4.015
  533SOL    HW1 1617   0.979   0.948   3.947
  533SOL    HW2 1618   0.956   0.827   4.054
  534SOL     OW 1619   1.504   1.607   3.768
  534SOL    HW1 1620   1.412   1.644   3.775
  534SOL    HW2 1621   1.542   1.627   3.678
  535SOL     OW 1622   1.039   1.098   4.420
  535SOL    HW1 1623   0.969   1.051   4.474
  535SOL    HW2 1624   1.098   1.030   4.377
  536SOL     OW 1625   1.014   0.236   4.695
  536SOL    HW1 1626   1.006   0.200   4.602
  536SOL    HW2 1627   1.012   0.160   4.760
  537SOL     OW 1628   0.590   1.487   4.215
  537SOL    HW1 1629   0.632   1.429   4.145
  537SOL    HW2 1630   0.546   1.566   4.171
  538SOL     OW 1631   0.255   1.348   4.014
  538SOL    HW1 1632   0.159   1.349   3.987
  538SOL    HW2 1633   0.267   1.401   4.098
  539SOL     OW 1634   0.075   0.345   3.757
  539SOL    HW1 1635  -0.017   0.317   3.728
  539SOL    HW2 1636   0.106   0.422   3.701
  540SOL     OW 1637   0.072   0.166   4.042
  540SOL    HW1 1638   0.055   0.249   3.988
  540SOL    HW2 1639   0.162   0.129   4.020
  541SOL     OW 1640   1.183   1.335   3.843
  541SOL    HW1 1641   1.084   1.324   3.845
  541SOL    HW2 1642   1.217   1.350   3.936
  542SOL     OW 1643   1.493   1.767   4.683
  542SOL    HW1 1644   1.526   1.831   4.614
  542SOL    HW2 1645   1.559   1.761   4.758
  543SOL     OW 1646   1.674   0.883   4.978
  543SOL    HW1 1647   1.647   0.794   4.941
  543SOL    HW2 1648   1.675   0.951   4.905
  544SOL     OW 1649   1.225   0.325   4.173
  544SOL    HW1 1650   1.290   0.251   4.162
  544SOL    HW2 1651   1.245   0.375   4.257
  545SOL     OW 1652   0.594   0.745   4.376
  545SOL    HW1 1653   0.644   0.830   4.357
  545SOL    HW2 1654   0.506   0.747   4.328
  546SOL     OW 1655   0.859   1.374   3.740
  546SOL    HW1 1656   0.813   1.389   3.828
  546SOL    HW2 1657   0.903   1.459   3.710
  547SOL     OW 1658   0.661   1.790   4.677
  547SOL    HW1 1659   0.615   1.878   4.664
  547SOL    HW2 1660   0.760   1.802   4.670
  548SOL     OW 1661   0.859   0.956   4.585
  548SOL    HW1 1662   0.913   0.887   4.633
  548SOL    HW2 1663   0.827   1.025   4.651
  549SOL     OW 1664   1.083   0.984   3.811
  549SOL    HW1 1665   1.060   1.037   3.729
  549SOL    HW2 1666   1.164   0.928   3.792
  550SOL     OW 1667   1.861   1.569   4.575
  550SOL    HW1 1668   1.790   1.557   4.505
  550SOL    HW2 1669   1.862   1.490   4.635
  551SOL     OW 1670   0.079   1.240   4.377
  551SOL    HW1 1671   0.078   1.193   4.465
  551SOL    HW2 1672   0.161   1.212   4.326
  552SOL     OW 1673   1.824   0.192   4.951
  552SOL    HW1 1674   1.820   0.102   4.995
  552SOL    HW2 1675   1.827   0.181   4.852
  553SOL     OW 1676   0.428   0.424   4.244
  553SOL    HW1 1677   0.458   0.352   4.182
  553SOL    HW2 1678   0.389   0.384   4.327
  554SOL     OW 1679   0.812   1.586   4.411
  554SOL    HW1 1680   0.844   1.596   4.317
  554SOL    HW2 1681   0.733   1.524   4.413
  555SOL     OW 1682   1.424   0.214   4.836
  555SOL    HW1 1683   1.476   0.149   4.891
  555SOL    HW2 1684   1.375   0.277   4.897
  556SOL     OW 1685   0.770   1.330   4.025
  556SOL    HW1 1686   0.724   1.243   4.042
  556SOL    HW2 1687   0.861   1.327   4.066
  557SOL     OW 1688   1.352   0.052   3.892
  557SOL    HW1 1689   1.387   0.011   3.808
  557SOL    HW2 1690   1.262   0.014   3.912
  558SOL     OW 1691   1.300   0.453   4.415
  558SOL    HW1 1692   1.241   0.533   4.419
  558SOL    HW2 1693   1.315   0.418   4.508
  559SOL     OW 1694   1.593   0.221   4.606
  559SOL    HW1 1695   1.509   0.220   4.660
  559SOL    HW2 1696   1.595   0.304   4.550
  560SOL     OW 1697   0.039   1.077   4.024
  560SOL    HW1 1698   0.138   1.066   4.015
  560SOL    HW2 1699  -0.001   0.991   4.056
  561SOL     OW 1700   0.875   1.646   4.061
  561SOL    HW1 1701   0.798   1.611   4.007
  561SOL    HW2 1702   0.843   1.717   4.123
  562SOL     OW 1703   0.230   2.490   0.113
  562SOL    HW1 1704   0.137   2.488   0.150
  562SOL    HW2 1705   0.231   2.451   0.021
  563SOL     OW 1706   0.225   2.137   0.996
  563SOL    HW1 1707   0.260   2.120   1.088
  563SOL    HW2 1708   0.137   2.092   0.984
  564SOL     OW 1709   0.019   2.230   0.647
  564SOL    HW1 1710  -0.063   2.273   0.686
  564SOL    HW2 1711  -0.009   2.157   0.584
  565SOL     OW 1712   0.569   3.137   1.165
  565SOL    HW1 1713   0.476   3.130   1.128
  565SOL    HW2 1714   0.580   3.226   1.209
  566SOL     OW 1715   1.555   3.373   0.703
  566SOL    HW1 1716   1.498   3.357   0.784
  566SOL    HW2 1717   1.496   3.383   0.623
  567SOL     OW 1718   1.135   2.565   0.717
  567SOL    HW1 1719   1.192   2.643   0.692
  567SOL    HW2 1720   1.075   2.591   0.793
  568SOL     OW 1721   1.755   2.469   0.231
  568SOL    HW1 1722   1.743   2.456   0.132
  568SOL    HW2 1723   1.725   2.388   0.280
  569SOL     OW 1724   0.768   3.006   1.023
  569SOL    HW1 1725   0.690   3.023   1.083
  569SOL    HW2 1726   0.802   3.093   0.987
  570SOL     OW 1727   0.850   2.660   1.823
  570SOL    HW1 1728   0.846   2.736   1.888
  570SOL    HW2 1729   0.872   2.696   1.732
  571SOL     OW 1730   0.685   2.874   0.665
  571SOL    HW1 1731   0.754   2.858   0.735
  571SOL    HW2 1732   0.612   2.931   0.703
  572SOL     OW 1733   0.686   3.023   1.803
  572SOL    HW1 1734   0.746   3.102   1.817
  572SOL    HW2 1735   0.600   3.054   1.762
  573SOL     OW 1736   0.335   3.297   1.061
  573SOL    HW1 1737   0.257   3.266   1.008
  573SOL    HW2 1738   0.393   3.355   1.004
  574SOL     OW 1739   1.460   3.367   1.339
  574SOL    HW1 1740   1.484   3.461   1.365
  574SOL    HW2 1741   1.444   3.313   1.421
  575SOL     OW 1742   0.438   2.254   1.499
  575SOL    HW1 1743   0.520   2.198   1.508
  575SOL    HW2 1744   0.357   2.196   1.503
  576SOL     OW 1745   1.603   2.309   0.737
  576SOL    HW1 1746   1.529   2.355   0.687
  576SOL    HW2 1747   1.654   2.377   0.790
  577SOL     OW 1748   0.231   3.575   0.483
  577SOL    HW1 1749   0.265   3.652   0.537
  577SOL    HW2 1750   0.275   3.575   0.393
  578SOL     OW 1751   1.127   3.203   1.690
  578SOL    HW1 1752   1.174   3.203   1.778
  578SOL    HW2 1753   1.079   3.116   1.679
  579SOL     OW 1754   0.230   3.296   0.538
  579SOL    HW1 1755   0.204   3.392   0.538
  579SOL    HW2 1756   0.159   3.242   0.583
  580SOL     OW 1757   0.240   2.953   0.886
  580SOL    HW1 1758   0.254   2.869   0.938
  580SOL    HW2 1759   0.185   3.017   0.941
  581SOL     OW 1760   0.620   3.648   1.439
  581SOL    HW1 1761   0.528   3.631   1.474
  581SOL    HW2 1762   0.648   3.740   1.465
  582SOL     OW 1763   0.606   2.826   0.123
  582SOL    HW1 1764   0.613   2.910   0.069
  582SOL    HW2 1765   0.652   2.839   0.211
  583SOL     OW 1766   1.594   1.976   1.480
  583SOL    HW1 1767   1.576   2.043   1.408
  583SOL    HW2 1768   1.591   2.022   1.569
  584SOL     OW 1769   0.122   2.505   0.563
  584SOL    HW1 1770   0.077   2.417   0.580
  584SOL    HW2 1771   0.121   2.559   0.647
  585SOL     OW 1772   1.842   3.629   0.359
  585SOL    HW1 1773   1.896   3.600   0.439
  585SOL    HW2 1774   1.872   3.719   0.330
  586SOL     OW 1775   0.027   3.458   0.117
  586SOL    HW1 1776   0.008   3.362   0.138
  586SOL    HW2 1777  -0.006   3.516   0.192
  587SOL     OW 1778   1.689   2.784   0.612
  587SOL    HW1 1779   1.784   2.755   0.620
  587SOL    HW2 1780   1.681   2.849   0.537
  588SOL     OW 1781   1.641   2.970   0.432
  588SOL    HW1 1782   1.727   2.972   0.380
  588SOL    HW2 1783   1.655   3.017   0.520
  589SOL     OW 1784   0.113   2.599   1.597
  589SOL    HW1 1785   0.201   2.586   1.642
  589SOL    HW2 1786   0.100   2.696   1.575
  590SOL     OW 1787   0.613   3.227   0.726
  590SOL    HW1 1788   0.564   3.140   0.735
  590SOL    HW2 1789   0.590   3.270   0.639
  591SOL     OW 1790   1.293   3.090   1.423
  591SOL    HW1 1791   1.330   3.017   1.365
  591SOL    HW2 1792   1.345   3.095   1.508
  592SOL     OW 1793   0.809   1.866   0.502
  592SOL    HW1 1794   0.849   1.957   0.493
  592SOL    HW2 1795   0.709   1.874   0.508
  593SOL     OW 1796   0.197   2.838   1.264
  593SOL    HW1 1797   0.286   2.793   1.250
  593SOL    HW2 1798   0.124   2.773   1.245
  594SOL     OW 1799   1.525   2.861   0.190
  594SOL    HW1 1800   1.462   2.785   0.203
  594SOL    HW2 1801   1.573   2.879   0.276
  595SOL     OW 1802   1.187   3.654   1.616
  595SOL    HW1 1803   1.211   3.714   1.540
  595SOL    HW2 1804   1.194   3.559   1.586
  596SOL     OW 1805   0.317   2.113   1.801
  596SOL    HW1 1806   0.388   2.184   1.807
  596SOL    HW2 1807   0.229   2.152   1.829
  597SOL     OW 1808   1.466   3.279   0.953
  597SOL    HW1 1809   1.407   3.285   1.033
  597SOL    HW2 1810   1.451   3.191   0.907
  598SOL     OW 1811   1.667   3.576   0.572
  598SOL    HW1 1812   1.626   3.553   0.484
  598SOL    HW2 1813   1.649   3.502   0.637
  599SOL     OW 1814   0.598   2.591   0.270
  599SOL    HW1 1815   0.622   2.660   0.202
  599SOL    HW2 1816   0.520   2.624   0.324
  600SOL     OW 1817   1.281   2.207   0.944
  600SOL    HW1 1818   1.195   2.157   0.931
  600SOL    HW2 1819   1.343   2.153   1.000
  601SOL     OW 1820   1.576   3.524   0.307
  601SOL    HW1 1821   1.665   3.570   0.310
  601SOL    HW2 1822   1.555   3.500   0.212
  602SOL     OW 1823   0.807   2.467   1.465
  602SOL    HW1 1824   0.760   2.464   1.554
  602SOL    HW2 1825   0.756   2.412   1.399
  603SOL     OW 1826   1.394   2.331   1.674
  603SOL    HW1 1827   1.374   2.374   1.762
  603SOL    HW2 1828   1.472   2.269   1.683
  604SOL     OW 1829   0.973   2.752   1.572
  604SOL    HW1 1830   1.019   2.668   1.543
  604SOL    HW2 1831   0.917   2.786   1.497
  605SOL     OW 1832   0.991   2.272   1.242
  605SOL    HW1 1833   0.914   2.306   1.296
  605SOL    HW2 1834   0.957   2.221   1.163
  606SOL     OW 1835   1.041   2.563   0.429
  606SOL    HW1 1836   1.067   2.559   0.525
  606SOL    HW2 1837   0.956   2.512   0.415
  607SOL     OW 1838   0.076   2.673   0.789
  607SOL    HW1 1839   0.175   2.661   0.798
  607SOL    HW2 1840   0.052   2.768   0.810
  608SOL     OW 1841   0.130   3.683   1.571
  608SOL    HW1 1842   0.120   3.668   1.670
  608SOL    HW2 1843   0.044   3.719   1.535
  609SOL     OW 1844   0.865   2.210   0.195
  609SOL    HW1 1845   0.924   2.273   0.146
  609SOL    HW2 1846   0.884   2.116   0.166
  610SOL     OW 1847   1.719   2.447   1.831
  610SOL    HW1 1848   1.693   2.536   1.795
  610SOL    HW2 1849   1.717   2.379   1.758
  611SOL     OW 1850   1.362   3.006   0.545
  611SOL    HW1 1851   1.445   2.977   0.497
  611SOL    HW2 1852   1.313   3.073   0.489
  612SOL     OW 1853   0.550   2.058   0.885
  612SOL    HW1 1854   0.545   2.053   0.985
  612SOL    HW2 1855   0.552   2.154   0.856
  613SOL     OW 1856   1.008   3.318   0.477
  613SOL    HW1 1857   0.962   3.390   0.425
  613SOL    HW2 1858   1.004   3.338   0.575
  614SOL     OW 1859   0.351   3.663   0.853
  614SOL    HW1 1860   0.401   3.577   0.859
  614SOL    HW2 1861   0.416   3.740   0.850
  615SOL     OW 1862   1.795   2.928   0.873
  615SOL    HW1 1863   1.733   2.913   0.797
  615SOL    HW2 1864   1.743   2.939   0.958
  616SOL     OW 1865   1.227   3.412   1.506
  616SOL    HW1 1866   1.233   3.335   1.570
  616SOL    HW2 1867   1.175   3.386   1.426
  617SOL     OW 1868   0.321   2.805   0.242
  617SOL    HW1 1869   0.403   2.844   0.200
  617SOL    HW2 1870   0.294   2.723   0.193
  618SOL     OW 1871   1.458   2.597   0.728
  618SOL    HW1 1872   1.453   2.532   0.803
  618SOL    HW2 1873   1.538   2.656   0.741
  619SOL     OW 1874   0.461   3.128   1.727
  619SOL    HW1 1875   0.411   3.129   1.641
  619SOL    HW2 1876   0.398   3.110   1.803
  620SOL     OW 1877   1.111   3.638   0.237
  620SOL    HW1 1878   1.051   3.576   0.287
  620SOL    HW2 1879   1.142   3.594   0.152
  621SOL     OW 1880   0.202   2.147   1.498
  621SOL    HW1 1881   0.122   2.207   1.485
  621SOL    HW2 1882   0.192   2.098   1.584
  622SOL     OW 1883   1.632   3.239   0.081
  622SOL    HW1 1884   1.600   3.333   0.071
  622SOL    HW2 1885   1.556   3.176   0.069
  623SOL     OW 1886   0.464   3.605   0.323
  623SOL    HW1 1887   0.497   3.644   0.409
  623SOL    HW2 1888   0.540   3.598   0.258
  624SOL     OW 1889   1.400   1.969   0.426
  624SOL    HW1 1890   1.376   1.932   0.336
  624SOL    HW2 1891   1.499   1.985   0.430
  625SOL     OW 1892   0.249   3.647   1.241
  625SOL    HW1 1893   0.306   3.582   1.291
  625SOL    HW2 1894   0.233   3.614   1.148
  626SOL     OW 1895   0.940   3.560   0.904
  626SOL    HW1 1896   1.020   3.503   0.925
  626SOL    HW2 1897   0.891   3.520   0.827
  627SOL     OW 1898   0.382   2.562   0.480
  627SOL    HW1 1899   0.427   2.472   0.477
  627SOL    HW2 1900   0.288   2.551   0.513
  628SOL     OW 1901   1.547   2.084   1.729
  628SOL    HW1 1902   1.542   2.121   1.821
  628SOL    HW2 1903   1.475   2.015   1.717
  629SOL     OW 1904   0.614   1.984   0.117
  629SOL    HW1 1905   0.712   1.962   0.124
  629SOL    HW2 1906   0.583   1.967   0.024
  630SOL     OW 1907   0.781   2.126   1.749
  630SOL    HW1 1908   0.848   2.065   1.792
  630SOL    HW2 1909   0.708   2.145   1.814
  631SOL     OW 1910   0.888   3.376   1.195
  631SOL    HW1 1911   0.865   3.351   1.101
  631SOL    HW2 1912   0.949   3.307   1.234
  632SOL     OW 1913   1.351   2.452   1.433
  632SOL    HW1 1914   1.379   2.409   1.518
  632SOL    HW2 1915   1.376   2.548   1.434
  633SOL     OW 1916   0.803   3.264   0.924
  633SOL    HW1 1917   0.893   3.278   0.882
  633SOL    HW2 1918   0.732   3.266   0.853
  634SOL     OW 1919   0.922   2.365   0.899
  634SOL    HW1 1920   0.897   2.356   0.803
  634SOL    HW2 1921   0.970   2.283   0.930
  635SOL     OW 1922   0.539   1.926   0.512
  635SOL    HW1 1923   0.458   1.927   0.570
  635SOL    HW2 1924   0.542   2.009   0.457
  636SOL     OW 1925   1.434   3.050   0.041
  636SOL    HW1 1926   1.466   2.974   0.098
  636SOL    HW2 1927   1.342   3.077   0.071
  637SOL     OW 1928   0.297   1.897   0.171
  637SOL    HW1 1929   0.346   1.981   0.150
  637SOL    HW2 1930   0.359   1.832   0.216
  638SOL     OW 1931   0.935   2.098   0.480
  638SOL    HW1 1932   0.887   2.139   0.402
  638SOL    HW2 1933   1.034   2.096   0.461
  639SOL     OW 1934   1.076   2.545   1.464
  639SOL    HW1 1935   0.996   2.484   1.467
  639SOL    HW2 1936   1.157   2.492   1.440
  640SOL     OW 1937   1.227   3.432   0.793
  640SOL    HW1 1938   1.248   3.506   0.728
  640SOL    HW2 1939   1.295   3.432   0.866
  641SOL     OW 1940   0.459   3.014   0.741
  641SOL    HW1 1941   0.388   2.987   0.806
  641SOL    HW2 1942   0.433   2.986   0.648
  642SOL     OW 1943   1.271   3.659   0.591
  642SOL    HW1 1944   1.315   3.723   0.527
  642SOL    HW2 1945   1.221   3.711   0.661
  643SOL     OW 1946   1.032   2.411   0.016
  643SOL    HW1 1947   0.991   2.493  -0.023
  643SOL    HW2 1948   1.096   2.437   0.089
  644SOL     OW 1949   0.078   2.418   1.386
  644SOL    HW1 1950   0.170   2.417   1.345
  644SOL    HW2 1951   0.072   2.492   1.453
  645SOL     OW 1952   0.561   2.084   1.147
  645SOL    HW1 1953   0.599   2.000   1.184
  645SOL    HW2 1954   0.473   2.103   1.191
  646SOL     OW 1955   0.866   2.316   0.642
  646SOL    HW1 1956   0.834   2.388   0.580
  646SOL    HW2 1957   0.890   2.235   0.589
  647SOL     OW 1958   1.017   1.901   0.753
  647SOL    HW1 1959   0.945   1.906   0.684
  647SOL    HW2 1960   0.993   1.832   0.822
  648SOL     OW 1961   1.429   3.035   0.867
  648SOL    HW1 1962   1.374   2.951   0.860
  648SOL    HW2 1963   1.455   3.064   0.775
  649SOL     OW 1964   1.466   2.452   0.992
  649SOL    HW1 1965   1.436   2.357   0.999
  649SOL    HW2 1966   1.539   2.468   1.058
  650SOL     OW 1967   1.857   2.695   0.377
  650SOL    HW1 1968   1.899   2.631   0.441
  650SOL    HW2 1969   1.819   2.644   0.299
  651SOL     OW 1970   0.488   3.247   0.174
  651SOL    HW1 1971   0.401   3.232   0.221
  651SOL    HW2 1972   0.471   3.273   0.079
  652SOL     OW 1973   1.664   3.142   0.657
  652SOL    HW1 1974   1.763   3.150   0.671
  652SOL    HW2 1975   1.619   3.226   0.688
  653SOL     OW 1976   1.390   2.437   0.078
  653SOL    HW1 1977   1.336   2.416   0.159
  653SOL    HW2 1978   1.481   2.396   0.087
  654SOL     OW 1979   0.527   2.118   0.328
  654SOL    HW1 1980   0.554   2.059   0.253
  654SOL    HW2 1981   0.527   2.213   0.297
  655SOL     OW 1982   1.754   3.085   1.588
  655SOL    HW1 1983   1.845   3.046   1.575
  655SOL    HW2 1984   1.762   3.181   1.612
  656SOL     OW 1985   1.064   3.209   1.340
  656SOL    HW1 1986   0.984   3.186   1.395
  656SOL    HW2 1987   1.147   3.183   1.389
  657SOL     OW 1988   1.592   3.491   1.625
  657SOL    HW1 1989   1.619   3.525   1.535
  657SOL    HW2 1990   1.671   3.453   1.671
  658SOL     OW 1991   1.111   3.057   1.100
  658SOL    HW1 1992   1.071   3.101   1.181
  658SOL    HW2 1993   1.070   3.094   1.017
  659SOL     OW 1994   1.638   2.961   1.079
  659SOL    HW1 1995   1.643   3.042   1.138
  659SOL    HW2 1996   1.552   2.963   1.028
  660SOL     OW 1997   0.915   1.951   1.402
  660SOL    HW1 1998   0.940   1.931   1.307
  660SOL    HW2 1999   0.987   2.007   1.444
  661SOL     OW 2000   0.980   2.978   1.719
  661SOL    HW1 2001   0.881   2.984   1.729
  661SOL    HW2 2002   1.003   2.898   1.663
  662SOL     OW 2003   0.705   2.912   0.368
  662SOL    HW1 2004   0.691   2.919   0.467
  662SOL    HW2 2005   0.789   2.861   0.350
  663SOL     OW 2006   0.410   2.675   1.251
  663SOL    HW1 2007   0.496   2.687   1.301
  663SOL    HW2 2008   0.368   2.588   1.278
  664SOL     OW 2009   1.274   2.248   1.262
  664SOL    HW1 2010   1.295   2.322   1.326
  664SOL    HW2 2011   1.185   2.265   1.219
  665SOL     OW 2012   0.064   3.426   1.331
  665SOL    HW1 2013   0.018   3.508   1.297
  665SOL    HW2 2014   0.162   3.445   1.340
  666SOL     OW 2015   0.367   2.962   0.501
  666SOL    HW1 2016   0.360   3.045   0.445
  666SOL    HW2 2017   0.371   2.882   0.441
  667SOL     OW 2018   0.566   2.399   0.865
  667SOL    HW1 2019   0.578   2.465   0.791
  667SOL    HW2 2020   0.612   2.433   0.948
  668SOL     OW 2021   1.252   3.210   0.388
  668SOL    HW1 2022   1.302   3.287   0.428
  668SOL    HW2 2023   1.157   3.212   0.420
  669SOL     OW 2024   1.272   3.307   1.142
  669SOL    HW1 2025   1.319   3.320   1.229
  669SOL    HW2 2026   1.206   3.233   1.151
  670SOL     OW 2027   1.582   2.501   0.472
  670SOL    HW1 2028   1.551   2.562   0.545
  670SOL    HW2 2029   1.632   2.553   0.403
  671SOL     OW 2030   0.354   3.372   1.329
  671SOL    HW1 2031   0.333   3.328   1.242
  671SOL    HW2 2032   0.451   3.398   1.332
  672SOL     OW 2033   0.402   2.613   1.598
  672SOL    HW1 2034   0.470   2.668   1.551
  672SOL    HW2 2035   0.442   2.525   1.625
  673SOL     OW 2036   1.587   2.641   1.670
  673SOL    HW1 2037   1.495   2.679   1.665
  673SOL    HW2 2038   1.647   2.688   1.605
  674SOL     OW 2039   1.013   1.967   1.770
  674SOL    HW1 2040   1.019   2.052   1.718
  674SOL    HW2 2041   1.045   1.891   1.713
  675SOL     OW 2042   0.504   1.912   1.740
  675SOL    HW1 2043   0.462   1.855   1.670
  675SOL    HW2 2044   0.438   1.981   1.772
  676SOL     OW 2045   0.573   2.732   1.029
  676SOL    HW1 2046   0.617   2.821   1.020
  676SOL    HW2 2047   0.510   2.732   1.106
  677SOL     OW 2048   1.360   2.724   1.045
  677SOL    HW1 2049   1.285   2.724   0.979
  677SOL    HW2 2050   1.397   2.632   1.054
  678SOL     OW 2051   1.209   2.387   0.275
  678SOL    HW1 2052   1.222   2.303   0.329
  678SOL    HW2 2053   1.180   2.461   0.335
  679SOL     OW 2054   0.307   2.075   1.231
  679SOL    HW1 2055   0.284   2.112   1.321
  679SOL    HW2 2056   0.277   1.980   1.225
  680SOL     OW 2057   0.037   3.172   1.282
  680SOL    HW1 2058   0.090   3.123   1.350
  680SOL    HW2 2059   0.059   3.270   1.287
  681SOL     OW 2060   0.732   2.496   1.064
  681SOL    HW1 2061   0.791   2.470   0.988
  681SOL    HW2 2062   0.704   2.592   1.053
  682SOL     OW 2063   1.728   2.797   1.854
  682SOL    HW1 2064   1.682   2.790   1.765
  682SOL    HW2 2065   1.666   2.841   1.920
  683SOL     OW 2066   0.307   1.925   0.618
  683SOL    HW1 2067   0.296   2.019   0.651
  683SOL    HW2 2068   0.302   1.862   0.695
  684SOL     OW 2069   1.622   2.229   0.374
  684SOL    HW1 2070   1.624   2.153   0.438
  684SOL    HW2 2071   1.574   2.306   0.414
  685SOL     OW 2072   1.023   2.628   0.966
  685SOL    HW1 2073   1.038   2.649   1.062
  685SOL    HW2 2074   0.993   2.533   0.957
  686SOL     OW 2075   0.980   3.435   1.700
  686SOL    HW1 2076   0.960   3.479   1.612
  686SOL    HW2 2077   1.019   3.344   1.684
  687SOL     OW 2078   1.859   3.380   1.605
  687SOL    HW1 2079   1.873   3.407   1.510
  687SOL    HW2 2080   1.942   3.402   1.658
  688SOL     OW 2081   0.350   2.760   1.804
  688SOL    HW1 2082   0.426   2.804   1.852
  688SOL    HW2 2083   0.385   2.713   1.722
  689SOL     OW 2084   1.540   2.136   0.125
  689SOL    HW1 2085   1.479   2.061   0.148
  689SOL    HW2 2086   1.562   2.188   0.208
  690SOL     OW 2087   1.303   2.700   0.042
  690SOL    HW1 2088   1.337   2.607   0.057
  690SOL    HW2 2089   1.321   2.727  -0.053
  691SOL     OW 2090   1.068   3.195   0.849
  691SOL    HW1 2091   1.075   3.111   0.794
  691SOL    HW2 2092   1.130   3.264   0.813
  692SOL     OW 2093   0.319   2.672   0.949
  692SOL    HW1 2094   0.412   2.708   0.954
  692SOL    HW2 2095   0.313   2.587   1.001
  693SOL     OW 2096   0.339   2.371   1.006
  693SOL    HW1 2097   0.287   2.288   0.989
  693SOL    HW2 2098   0.416   2.376   0.942
  694SOL     OW 2099   1.138   2.242   1.678
  694SOL    HW1 2100   1.093   2.305   1.742
  694SOL    HW2 2101   1.231   2.273   1.661
  695SOL     OW 2102   1.160   2.069   1.477
  695SOL    HW1 2103   1.160   2.133   1.554
  695SOL    HW2 2104   1.188   2.117   1.394
  696SOL     OW 2105   0.008   3.188   0.200
  696SOL    HW1 2106  -0.085   3.209   0.169
  696SOL    HW2 2107   0.018   3.089   0.213
  697SOL     OW 2108   0.088   3.663   0.927
  697SOL    HW1 2109   0.046   3.577   0.900
  697SOL    HW2 2110   0.182   3.666   0.893
  698SOL     OW 2111   0.504   3.430   0.910
  698SOL    HW1 2112   0.570   3.504   0.919
  698SOL    HW2 2113   0.548   3.351   0.868
  699SOL     OW 2114   1.002   2.658   1.238
  699SOL    HW1 2115   1.043   2.626   1.324
  699SOL    HW2 2116   0.906   2.631   1.235
  700SOL     OW 2117   0.040   2.406   1.114
  700SOL    HW1 2118   0.125   2.373   1.073
  700SOL    HW2 2119   0.053   2.421   1.212
  701SOL     OW 2120   0.189   2.382   1.722
  701SOL    HW1 2121   0.248   2.342   1.652
  701SOL    HW2 2122   0.131   2.453   1.681
  702SOL     OW 2123   1.369   2.812   1.660
  702SOL    HW1 2124   1.408   2.901   1.680
  702SOL    HW2 2125   1.379   2.792   1.563
  703SOL     OW 2126   0.815   2.434   0.325
  703SOL    HW1 2127   0.822   2.345   0.279
  703SOL    HW2 2128   0.721   2.468   0.317
  704SOL     OW 2129   1.657   2.466   1.206
  704SOL    HW1 2130   1.619   2.397   1.268
  704SOL    HW2 2131   1.739   2.430   1.162
  705SOL     OW 2132   0.252   3.426   1.744
  705SOL    HW1 2133   0.222   3.483   1.820
  705SOL    HW2 2134   0.245   3.329   1.770
  706SOL     OW 2135   0.671   2.326   1.269
  706SOL    HW1 2136   0.637   2.237   1.239
  706SOL    HW2 2137   0.697   2.380   1.189
  707SOL     OW 2138   0.930   3.540   1.465
  707SOL    HW1 2139   0.906   3.522   1.370
  707SOL    HW2 2140   0.960   3.634   1.475
  708SOL     OW 2141   0.473   2.362   0.191
  708SOL    HW1 2142   0.534   2.442   0.195
  708SOL    HW2 2143   0.378   2.393   0.198
  709SOL     OW 2144   0.159   2.999   1.466
  709SOL    HW1 2145   0.181   2.938   1.542
  709SOL    HW2 2146   0.169   2.950   1.380
  710SOL     OW 2147   1.347   2.921   1.234
  710SOL    HW1 2148   1.371   2.858   1.160
  710SOL    HW2 2149   1.257   2.961   1.216
  711SOL     OW 2150   1.302   2.717   0.309
  711SOL    HW1 2151   1.216   2.686   0.351
  711SOL    HW2 2152   1.298   2.703   0.210
  712SOL     OW 2153   1.759   3.609   1.154
  712SOL    HW1 2154   1.820   3.639   1.081
  712SOL    HW2 2155   1.721   3.520   1.132
  713SOL     OW 2156   1.252   3.593   1.128
  713SOL    HW1 2157   1.336   3.598   1.074
  713SOL    HW2 2158   1.229   3.497   1.146
  714SOL     OW 2159   0.083   3.120   1.022
  714SOL    HW1 2160   0.078   3.119   1.122
  714SOL    HW2 2161   0.000   3.079   0.984
  715SOL     OW 2162   0.688   3.524   1.716
  715SOL    HW1 2163   0.632   3.605   1.725
  715SOL    HW2 2164   0.740   3.528   1.630
  716SOL     OW 2165   0.903   1.948   0.133
  716SOL    HW1 2166   0.954   1.949   0.047
  716SOL    HW2 2167   0.959   1.906   0.204
  717SOL     OW 2168   1.726   1.997   0.523
  717SOL    HW1 2169   1.799   1.980   0.456
  717SOL    HW2 2170   1.695   1.910   0.561
  718SOL     OW 2171   1.388   3.435   0.477
  718SOL    HW1 2172   1.455   3.447   0.403
  718SOL    HW2 2173   1.348   3.524   0.500
  719SOL     OW 2174   0.130   3.656   1.851
  719SOL    HW1 2175   0.089   3.582   1.904
  719SOL    HW2 2176   0.194   3.707   1.909
  720SOL     OW 2177   1.280   2.789   0.672
  720SOL    HW1 2178   1.340   2.708   0.674
  720SOL    HW2 2179   1.320   2.858   0.612
  721SOL     OW 2180   0.830   3.135   1.422
  721SOL    HW1 2181   0.825   3.168   1.517
  721SOL    HW2 2182   0.744   3.154   1.376
  722SOL     OW 2183   0.672   3.478   0.154
  722SOL    HW1 2184   0.681   3.488   0.055
  722SOL    HW2 2185   0.632   3.389   0.175
  723SOL     OW 2186   1.650   3.582   1.394
  723SOL    HW1 2187   1.703   3.592   1.310
  723SOL    HW2 2188   1.623   3.672   1.428
  724SOL     OW 2189   1.841   2.037   0.963
  724SOL    HW1 2190   1.880   1.952   0.927
  724SOL    HW2 2191   1.743   2.039   0.944
  725SOL     OW 2192   0.263   2.188   0.720
  725SOL    HW1 2193   0.184   2.239   0.686
  725SOL    HW2 2194   0.254   2.173   0.818
  726SOL     OW 2195   1.194   3.474   0.031
  726SOL    HW1 2196   1.200   3.381   0.068
  726SOL    HW2 2197   1.135   3.474  -0.049
  727SOL     OW 2198   0.822   2.864   1.372
  727SOL    HW1 2199   0.862   2.863   1.280
  727SOL    HW2 2200   0.832   2.956   1.412
  728SOL     OW 2201   0.916   2.772   0.291
  728SOL    HW1 2202   0.979   2.810   0.223
  728SOL    HW2 2203   0.956   2.689   0.330
  729SOL     OW 2204   1.504   3.469   0.044
  729SOL    HW1 2205   1.412   3.506   0.051
  729SOL    HW2 2206   1.542   3.489  -0.046
  730SOL     OW 2207   0.372   3.150   1.490
  730SOL    HW1 2208   0.359   3.243   1.456
  730SOL    HW2 2209   0.288   3.098   1.477
  731SOL     OW 2210   1.614   3.154   1.289
  731SOL    HW1 2211   1.674   3.157   1.369
  731SOL    HW2 2212   1.539   3.218   1.302
  732SOL     OW 2213   1.039   2.960   0.696
  732SOL    HW1 2214   0.969   2.913   0.750
  732SOL    HW2 2215   1.098   2.892   0.653
  733SOL     OW 2216   1.014   2.098   0.971
  733SOL    HW1 2217   1.006   2.062   0.878
  733SOL    HW2 2218   1.012   2.022   1.036
  734SOL     OW 2219   0.590   3.349   0.491
  734SOL    HW1 2220   0.632   3.291   0.421
  734SOL    HW2 2221   0.546   3.428   0.447
  735SOL     OW 2222   1.709   2.247   1.381
  735SOL    HW1 2223   1.782   2.316   1.385
  735SOL    HW2 2224   1.737   2.172   1.322
  736SOL     OW 2225   0.255   3.210   0.290
  736SOL    HW1 2226   0.159   3.211   0.263
  736SOL    HW2 2227   0.267   3.263   0.374
  737SOL     OW 2228   0.105   2.875   1.726
  737SOL    HW1 2229   0.028   2.842   1.780
  737SOL    HW2 2230   0.190   2.845   1.768
  738SOL     OW 2231   0.672   2.065   1.489
  738SOL    HW1 2232   0.762   2.049   1.449
  738SOL    HW2 2233   0.680   2.070   1.588
  739SOL     OW 2234   0.075   2.207   0.033
  739SOL    HW1 2235  -0.017   2.179   0.004
  739SOL    HW2 2236   0.106   2.284  -0.023
  740SOL     OW 2237   1.440   2.718   1.398
  740SOL    HW1 2238   1.383   2.770   1.335
  740SOL    HW2 2239   1.536   2.730   1.374
  741SOL     OW 2240   0.072   2.028   0.318
  741SOL    HW1 2241   0.055   2.111   0.264
  741SOL    HW2 2242   0.162   1.991   0.296
  742SOL     OW 2243   1.183   3.197   0.119
  742SOL    HW1 2244   1.084   3.186   0.121
  742SOL    HW2 2245   1.217   3.212   0.212
  743SOL     OW 2246   0.613   2.704   1.431
  743SOL    HW1 2247   0.669   2.785   1.414
  743SOL    HW2 2248   0.672   2.624   1.434
  744SOL     OW 2249   1.493   3.629   0.959
  744SOL    HW1 2250   1.526   3.693   0.890
  744SOL    HW2 2251   1.559   3.623   1.034
  745SOL     OW 2252   0.716   2.427   1.708
  745SOL    HW1 2253   0.735   2.492   1.782
  745SOL    HW2 2254   0.776   2.347   1.717
  746SOL     OW 2255   1.450   3.082   1.633
  746SOL    HW1 2256   1.441   3.072   1.732
  746SOL    HW2 2257   1.546   3.075   1.607
  747SOL     OW 2258   0.390   3.603   1.560
  747SOL    HW1 2259   0.299   3.644   1.558
  747SOL    HW2 2260   0.383   3.509   1.592
  748SOL     OW 2261   1.674   2.745   1.254
  748SOL    HW1 2262   1.647   2.656   1.217
  748SOL    HW2 2263   1.675   2.813   1.181
  749SOL     OW 2264   1.225   2.187   0.449
  749SOL    HW1 2265   1.290   2.113   0.438
  749SOL    HW2 2266   1.245   2.237   0.533
  750SOL     OW 2267   0.594   2.607   0.652
  750SOL    HW1 2268   0.644   2.692   0.633
  750SOL    HW2 2269   0.506   2.609   0.604
  751SOL     OW 2270   1.777   2.204   1.642
  751SOL    HW1 2271   1.760   2.235   1.548
  751SOL    HW2 2272   1.693   2.167   1.680
  752SOL     OW 2273   1.730   2.796   1.517
  752SOL    HW1 2274   1.768   2.887   1.532
  752SOL    HW2 2275   1.722   2.779   1.418
  753SOL     OW 2276   0.859   3.236   0.016
  753SOL    HW1 2277   0.813   3.251   0.104
  753SOL    HW2 2278   0.903   3.321  -0.014
  754SOL     OW 2279   0.661   3.652   0.953
  754SOL    HW1 2280   0.615   3.740   0.940
  754SOL    HW2 2281   0.760   3.664   0.946
  755SOL     OW 2282   0.859   2.818   0.861
  755SOL    HW1 2283   0.913   2.749   0.909
  755SOL    HW2 2284   0.827   2.887   0.927
  756SOL     OW 2285   1.083   2.846   0.087
  756SOL    HW1 2286   1.060   2.899   0.005
  756SOL    HW2 2287   1.164   2.790   0.068
  757SOL     OW 2288   1.861   3.431   0.851
  757SOL    HW1 2289   1.790   3.419   0.781
  757SOL    HW2 2290   1.862   3.352   0.911
  758SOL     OW 2291   0.221   3.176   1.844
  758SOL    HW1 2292   0.156   3.103   1.823
  758SOL    HW2 2293   0.225   3.190   1.942
  759SOL     OW 2294   0.079   3.102   0.653
  759SOL    HW1 2295   0.078   3.055   0.741
  759SOL    HW2 2296   0.161   3.074   0.602
  760SOL     OW 2297   0.672   3.253   1.624
  760SOL    HW1 2298   0.594   3.203   1.662
  760SOL    HW2 2299   0.669   3.348   1.655
  761SOL     OW 2300   1.824   2.054   1.227
  761SOL    HW1 2301   1.820   1.964   1.271
  761SOL    HW2 2302   1.827   2.043   1.128
  762SOL     OW 2303   0.428   2.286   0.520
  762SOL    HW1 2304   0.458   2.214   0.458
  762SOL    HW2 2305   0.389   2.246   0.603
  763SOL     OW 2306   1.705   3.349   1.104
  763SOL    HW1 2307   1.612   3.324   1.077
  763SOL    HW2 2308   1.731   3.299   1.186
  764SOL     OW 2309   0.317   2.409   1.280
  764SOL    HW1 2310   0.355   2.350   1.352
  764SOL    HW2 2311   0.357   2.383   1.192
  765SOL     OW 2312   0.812   3.448   0.687
  765SOL    HW1 2313   0.844   3.458   0.593
  765SOL    HW2 2314   0.733   3.386   0.689
  766SOL     OW 2315   1.424   2.076   1.112
  766SOL    HW1 2316   1.476   2.011   1.167
  766SOL    HW2 2317   1.375   2.139   1.173
  767SOL     OW 2318   1.001   1.896   1.154
  767SOL    HW1 2319   0.938   1.824   1.123
  767SOL    HW2 2320   1.094   1.860   1.154
  768SOL     OW 2321   0.770   3.192   0.301
  768SOL    HW1 2322   0.724   3.105   0.318
  768SOL    HW2 2323   0.861   3.189   0.342
  769SOL     OW 2324   0.618   3.429   1.284
  769SOL    HW1 2325   0.613   3.511   1.341
  769SOL    HW2 2326   0.707   3.426   1.239
  770SOL     OW 2327   1.352   1.914   0.168
  770SOL    HW1 2328   1.387   1.873   0.084
  770SOL    HW2 2329   1.262   1.876   0.188
  771SOL     OW 2330   1.300   2.315   0.691
  771SOL    HW1 2331   1.241   2.395   0.695
  771SOL    HW2 2332   1.315   2.280   0.784
  772SOL     OW 2333   1.593   2.083   0.882
  772SOL    HW1 2334   1.509   2.082   0.936
  772SOL    HW2 2335   1.595   2.166   0.826
  773SOL     OW 2336   0.039   2.939   0.300
  773SOL    HW1 2337   0.138   2.928   0.291
  773SOL    HW2 2338  -0.001   2.853   0.332
  774SOL     OW 2339   0.875   3.508   0.337
  774SOL    HW1 2340   0.798   3.473   0.283
  774SOL    HW2 2341   0.843   3.579   0.399
  775SOL     OW 2342   0.230   2.490   1.975
  775SOL    HW1 2343   0.137   2.488   2.012
  775SOL    HW2 2344   0.231   2.451   1.883
  776SOL     OW 2345   0.225   2.137   2.858
  776SOL    HW1 2346   0.260   2.120   2.950
  776SOL    HW2 2347   0.137   2.092   2.846
  777SOL     OW 2348   0.019   2.230   2.509
  777SOL    HW1 2349  -0.063   2.273   2.548
  777SOL    HW2 2350  -0.009   2.157   2.446
  778SOL     OW 2351   0.569   3.137   3.027
  778SOL    HW1 2352   0.476   3.130   2.990
  778SOL    HW2 2353   0.580   3.226   3.071
  779SOL     OW 2354   1.555   3.373   2.565
  779SOL    HW1 2355   1.498   3.357   2.646
  779SOL    HW2 2356   1.496   3.383   2.485
  780SOL     OW 2357   1.135   2.565   2.579
  780SOL    HW1 2358   1.192   2.643   2.554
  780SOL    HW2 2359   1.075   2.591   2.655
  781SOL     OW 2360   1.755   2.469   2.093
  781SOL    HW1 2361   1.743   2.456   1.994
  781SOL    HW2 2362   1.725   2.388   2.142
  782SOL     OW 2363   0.768   3.006   2.885
  782SOL    HW1 2364   0.690   3.023   2.945
  782SOL    HW2 2365   0.802   3.093   2.849
  783SOL     OW 2366   0.850   2.660   3.685
  783SOL    HW1 2367   0.846   2.736   3.750
  783SOL    HW2 2368   0.872   2.696   3.594
  784SOL     OW 2369   0.685   2.874   2.527
  784SOL    HW1 2370   0.754   2.858   2.597
  784SOL    HW2 2371   0.612   2.931   2.565
  785SOL     OW 2372   0.686   3.023   3.665
  785SOL    HW1 2373   0.746   3.102   3.679
  785SOL    HW2 2374   0.600   3.054   3.624
  786SOL     OW 2375   0.335   3.297   2.923
  786SOL    HW1 2376   0.257   3.266   2.870
  786SOL    HW2 2377   0.393   3.355   2.866
  787SOL     OW 2378   1.460   3.367   3.201
  787SOL    HW1 2379   1.484   3.461   3.227
  787SOL    HW2 2380   1.444   3.313   3.283
  788SOL     OW 2381   0.438   2.254   3.361
  788SOL    HW1 2382   0.520   2.198   3.370
  788SOL    HW2 2383   0.357   2.196   3.365
  789SOL     OW 2384   1.603   2.309   2.599
  789SOL    HW1 2385   1.529   2.355   2.549
  789SOL    HW2 2386   1.654   2.377   2.652
  790SOL     OW 2387   0.231   3.575   2.345
  790SOL    HW1 2388   0.265   3.652   2.399
  790SOL    HW2 2389   0.275   3.575   2.255
  791SOL     OW 2390   1.127   3.203   3.552
  791SOL    HW1 2391   1.174   3.203   3.640
  791SOL    HW2 2392   1.079   3.116   3.541
  792SOL     OW 2393   0.230   3.296   2.400
  792SOL    HW1 2394   0.204   3.392   2.400
  792SOL    HW2 2395   0.159   3.242   2.445
  793SOL     OW 2396   0.240   2.953   2.748
  793SOL    HW1 2397   0.254   2.869   2.800
  793SOL    HW2 2398   0.185   3.017   2.803
  794SOL     OW 2399   0.620   3.648   3.301
  794SOL    HW1 2400   0.528   3.631   3.336
  794SOL    HW2 2401   0.648   3.740   3.327
  795SOL     OW 2402   0.606   2.826   1.985
  795SOL    HW1 2403   0.613   2.910   1.931
  795SOL    HW2 2404   0.652   2.839   2.073
  796SOL     OW 2405   1.594   1.976   3.342
  796SOL    HW1 2406   1.576   2.043   3.270
  796SOL    HW2 2407   1.591   2.022   3.431
  797SOL     OW 2408   0.122   2.505   2.425
  797SOL    HW1 2409   0.077   2.417   2.442
  797SOL    HW2 2410   0.121   2.559   2.509
  798SOL     OW 2411   1.842   3.629   2.221
  798SOL    HW1 2412   1.896   3.600   2.301
  798SOL    HW2 2413   1.872   3.719   2.192
  799SOL     OW 2414   0.027   3.458   1.979
  799SOL    HW1 2415   0.008   3.362   2.000
  799SOL    HW2 2416  -0.006   3.516   2.054
  800SOL     OW 2417   1.689   2.784   2.474
  800SOL    HW1 2418   1.784   2.755   2.482
  800SOL    HW2 2419   1.681   2.849   2.399
  801SOL     OW 2420   1.641   2.970   2.294
  801SOL    HW1 2421   1.727   2.972   2.242
  801SOL    HW2 2422   1.655   3.017   2.382
  802SOL     OW 2423   0.113   2.599   3.459
  802SOL    HW1 2424   0.201   2.586   3.504
  802SOL    HW2 2425   0.100   2.696   3.437
  803SOL     OW 2426   0.613   3.227   2.588
  803SOL    HW1 2427   0.564   3.140   2.597
  803SOL    HW2 2428   0.590   3.270   2.501
  804SOL     OW 2429   1.293   3.090   3.285
  804SOL    HW1 2430   1.330   3.017   3.227
  804SOL    HW2 2431   1.345   3.095   3.370
  805SOL     OW 2432   0.809   1.866   2.364
  805SOL    HW1 2433   0.849   1.957   2.355
  805SOL    HW2 2434   0.709   1.874   2.370
  806SOL     OW 2435   0.197   2.838   3.126
  806SOL    HW1 2436   0.286   2.793   3.112
  806SOL    HW2 2437   0.124   2.773   3.107
  807SOL     OW 2438   1.525   2.861   2.052
  807SOL    HW1 2439   1.462   2.785   2.065
  807SOL    HW2 2440   1.573   2.879   2.138
  808SOL     OW 2441   1.187   3.654   3.478
  808SOL    HW1 2442   1.211   3.714   3.402
  808SOL    HW2 2443   1.194   3.559   3.448
  809SOL     OW 2444   0.317   2.113   3.663
  809SOL    HW1 2445   0.388   2.184   3.669
  809SOL    HW2 2446   0.229   2.152   3.691
  810SOL     OW 2447   1.466   3.279   2.815
  810SOL    HW1 2448   1.407   3.285   2.895
  810SOL    HW2 2449   1.451   3.191   2.769
  811SOL     OW 2450   1.667   3.576   2.434
  811SOL    HW1 2451   1.626   3.553   2.346
  811SOL    HW2 2452   1.649   3.502   2.499
  812SOL     OW 2453   0.598   2.591   2.132
  812SOL    HW1 2454   0.622   2.660   2.064
  812SOL    HW2 2455   0.520   2.624   2.186
  813SOL     OW 2456   1.281   2.207   2.806
  813SOL    HW1 2457   1.195   2.157   2.793
  813SOL    HW2 2458   1.343   2.153   2.862
  814SOL     OW 2459   1.576   3.524   2.169
  814SOL    HW1 2460   1.665   3.570   2.172
  814SOL    HW2 2461   1.555   3.500   2.074
  815SOL     OW 2462   0.807   2.467   3.327
  815SOL    HW1 2463   0.760   2.464   3.416
  815SOL    HW2 2464   0.756   2.412   3.261
  816SOL     OW 2465   1.394   2.331   3.536
  816SOL    HW1 2466   1.374   2.374   3.624
  816SOL    HW2 2467   1.472   2.269   3.545
  817SOL     OW 2468   0.973   2.752   3.434
  817SOL    HW1 2469   1.019   2.668   3.405
  817SOL    HW2 2470   0.917   2.786   3.359
  818SOL     OW 2471   0.991   2.272   3.104
  818SOL    HW1 2472   0.914   2.306   3.158
  818SOL    HW2 2473   0.957   2.221   3.025
  819SOL     OW 2474   1.041   2.563   2.291
  819SOL    HW1 2475   1.067   2.559   2.387
  819SOL    HW2 2476   0.956   2.512   2.277
  820SOL     OW 2477   0.076   2.673   2.651
  820SOL    HW1 2478   0.175   2.661   2.660
  820SOL    HW2 2479   0.052   2.768   2.672
  821SOL     OW 2480   0.130   3.683   3.433
  821SOL    HW1 2481   0.120   3.668   3.532
  821SOL    HW2 2482   0.044   3.719   3.397
  822SOL     OW 2483   0.865   2.210   2.057
  822SOL    HW1 2484   0.924   2.273   2.008
  822SOL    HW2 2485   0.884   2.116   2.028
  823SOL     OW 2486   1.719   2.447   3.693
  823SOL    HW1 2487   1.693   2.536   3.657
  823SOL    HW2 2488   1.717   2.379   3.620
  824SOL     OW 2489   1.362   3.006   2.407
  824SOL    HW1 2490   1.445   2.977   2.359
  824SOL    HW2 2491   1.313   3.073   2.351
  825SOL     OW 2492   0.550   2.058   2.747
  825SOL    HW1 2493   0.545   2.053   2.847
  825SOL    HW2 2494   0.552   2.154   2.718
  826SOL     OW 2495   1.008   3.318   2.339
  826SOL    HW1 2496   0.962   3.390   2.287
  826SOL    HW2 2497   1.004   3.338   2.437
  827SOL     OW 2498   0.351   3.663   2.715
  827SOL    HW1 2499   0.401   3.577   2.721
  827SOL    HW2 2500   0.416   3.740   2.712
  828SOL     OW 2501   1.795   2.928   2.735
  828SOL    HW1 2502   1.733   2.913   2.659
  828SOL    HW2 2503   1.743   2.939   2.820
  829SOL     OW 2504   1.227   3.412   3.368
  829SOL    HW1 2505   1.233   3.335   3.432
  829SOL    HW2 2506   1.175   3.386   3.288
  830SOL     OW 2507   0.321   2.805   2.104
  830SOL    HW1 2508   0.403   2.844   2.062
  830SOL    HW2 2509   0.294   2.723   2.055
  831SOL     OW 2510   1.458   2.597   2.590
  831SOL    HW1 2511   1.453   2.532   2.665
  831SOL    HW2 2512   1.538   2.656   2.603
  832SOL     OW 2513   0.461   3.128   3.589
  832SOL    HW1 2514   0.411   3.129   3.503
  832SOL    HW2 2515   0.398   3.110   3.665
  833SOL     OW 2516   1.111   3.638   2.099
  833SOL    HW1 2517   1.051   3.576   2.149
  833SOL    HW2 2518   1.142   3.594   2.014
  834SOL     OW 2519   0.202   2.147   3.360
  834SOL    HW1 2520   0.122   2.207   3.347
  834SOL    HW2 2521   0.192   2.098   3.446
  835SOL     OW 2522   1.632   3.239   1.943
  835SOL    HW1 2523   1.600   3.333   1.933
  835SOL    HW2 2524   1.556   3.176   1.931
  836SOL     OW 2525   0.464   3.605   2.185
  836SOL    HW1 2526   0.497   3.644   2.271
  836SOL    HW2 2527   0.540   3.598   2.120
  837SOL     OW 2528   1.400   1.969   2.288
  837SOL    HW1 2529   1.376   1.932   2.198
  837SOL    HW2 2530   1.499   1.985   2.292
  838SOL     OW 2531   0.249   3.647   3.103
  838SOL    HW1 2532   0.306   3.582   3.153
  838SOL    HW2 2533   0.233   3.614   3.010
  839SOL     OW 2534   0.940   3.560   2.766
  839SOL    HW1 2535   1.020   3.503   2.787
  839SOL    HW2 2536   0.891   3.520   2.689
  840SOL     OW 2537   0.382   2.562   2.342
  840SOL    HW1 2538   0.427   2.472   2.339
  840SOL    HW2 2539   0.288   2.551   2.375
  841SOL     OW 2540   1.547   2.084   3.591
  841SOL    HW1 2541   1.542   2.121   3.683
  841SOL    HW2 2542   1.475   2.015   3.579
  842SOL     OW 2543   0.614   1.984   1.979
  842SOL    HW1 2544   0.712   1.962   1.986
  842SOL    HW2 2545   0.583   1.967   1.886
  843SOL     OW 2546   0.781   2.126   3.611
  843SOL    HW1 2547   0.848   2.065   3.654
  843SOL    HW2 2548   0.708   2.145   3.676
  844SOL     OW 2549   0.888   3.376   3.057
  844SOL    HW1 2550   0.865   3.351   2.963
  844SOL    HW2 2551   0.949   3.307   3.096
  845SOL     OW 2552   1.351   2.452   3.295
  845SOL    HW1 2553   1.379   2.409   3.380
  845SOL    HW2 2554   1.376   2.548   3.296
  846SOL     OW 2555   0.803   3.264   2.786
  846SOL    HW1 2556   0.893   3.278   2.744
  846SOL    HW2 2557   0.732   3.266   2.715
  847SOL     OW 2558   0.922   2.365   2.761
  847SOL    HW1 2559   0.897   2.356   2.665
  847SOL    HW2 2560   0.970   2.283   2.792
  848SOL     OW 2561   0.539   1.926   2.374
  848SOL    HW1 2562   0.458   1.927   2.432
  848SOL    HW2 2563   0.542   2.009   2.319
  849SOL     OW 2564   1.434   3.050   1.903
  849SOL    HW1 2565   1.466   2.974   1.960
  849SOL    HW2 2566   1.342   3.077   1.933
  850SOL     OW 2567   0.297   1.897   2.033
  850SOL    HW1 2568   0.346   1.981   2.012
  850SOL    HW2 2569   0.359   1.832   2.078
  851SOL     OW 2570   0.935   2.098   2.342
  851SOL    HW1 2571   0.887   2.139   2.264
  851SOL    HW2 2572   1.034   2.096   2.323
  852SOL     OW 2573   1.076   2.545   3.326
  852SOL    HW1 2574   0.996   2.484   3.329
  852SOL    HW2 2575   1.157   2.492   3.302
  853SOL     OW 2576   1.227   3.432   2.655
  853SOL    HW1 2577   1.248   3.506   2.590
  853SOL    HW2 2578   1.295   3.432   2.728
  854SOL     OW 2579   0.459   3.014   2.603
  854SOL    HW1 2580   0.388   2.987   2.668
  854SOL    HW2 2581   0.433   2.986   2.510
  855SOL     OW 2582   1.271   3.659   2.453
  855SOL    HW1 2583   1.315   3.723   2.389
  855SOL    HW2 2584   1.221   3.711   2.523
  856SOL     OW 2585   1.032   2.411   1.878
  856SOL    HW1 2586   0.991   2.493   1.839
  856SOL    HW2 2587   1.096   2.437   1.951
  857SOL     OW 2588   0.078   2.418   3.248
  857SOL    HW1 2589   0.170   2.417   3.207
  857SOL    HW2 2590   0.072   2.492   3.315
  858SOL     OW 2591   0.561   2.084   3.009
  858SOL    HW1 2592   0.599   2.000   3.046
  858SOL    HW2 2593   0.473   2.103   3.053
  859SOL     OW 2594   0.866   2.316   2.504
  859SOL    HW1 2595   0.834   2.388   2.442
  859SOL    HW2 2596   0.890   2.235   2.451
  860SOL     OW 2597   1.017   1.901   2.615
  860SOL    HW1 2598   0.945   1.906   2.546
  860SOL    HW2 2599   0.993   1.832   2.684
  861SOL     OW 2600   1.429   3.035   2.729
  861SOL    HW1 2601   1.374   2.951   2.722
  861SOL    HW2 2602   1.455   3.064   2.637
  862SOL     OW 2603   1.466   2.452   2.854
  862SOL    HW1 2604   1.436   2.357   2.861
  862SOL    HW2 2605   1.539   2.468   2.920
  863SOL     OW 2606   1.857   2.695   2.239
  863SOL    HW1 2607   1.899   2.631   2.303
  863SOL    HW2 2608   1.819   2.644   2.161
  864SOL     OW 2609   0.488   3.247   2.036
  864SOL    HW1 2610   0.401   3.232   2.083
  864SOL    HW2 2611   0.471   3.273   1.941
  865SOL     OW 2612   1.664   3.142   2.519
  865SOL    HW1 2613   1.763   3.150   2.533
  865SOL    HW2 2614   1.619   3.226   2.550
  866SOL     OW 2615   1.390   2.437   1.940
  866SOL    HW1 2616   1.336   2.416   2.021
  866SOL    HW2 2617   1.481   2.396   1.949
  867SOL     OW 2618   0.527   2.118   2.190
  867SOL    HW1 2619   0.554   2.059   2.115
  867SOL    HW2 2620   0.527   2.213   2.159
  868SOL     OW 2621   1.754   3.085   3.450
  868SOL    HW1 2622   1.845   3.046   3.437
  868SOL    HW2 2623   1.762   3.181   3.474
  869SOL     OW 2624   1.064   3.209   3.202
  869SOL    HW1 2625   0.984   3.186   3.257
  869SOL    HW2 2626   1.147   3.183   3.251
  870SOL     OW 2627   1.592   3.491   3.487
  870SOL    HW1 2628   1.619   3.525   3.397
  870SOL    HW2 2629   1.671   3.453   3.533
  871SOL     OW 2630   1.111   3.057   2.962
  871SOL    HW1 2631   1.071   3.101   3.043
  871SOL    HW2 2632   1.070   3.094   2.879
  872SOL     OW 2633   1.638   2.961   2.941
  872SOL    HW1 2634   1.643   3.042   3.000
  872SOL    HW2 2635   1.552   2.963   2.890
  873SOL     OW 2636   0.915   1.951   3.264
  873SOL    HW1 2637   0.940   1.931   3.169
  873SOL    HW2 2638   0.987   2.007   3.306
  874SOL     OW 2639   0.980   2.978   3.581
  874SOL    HW1 2640   0.881   2.984   3.591
  874SOL    HW2 2641   1.003   2.898   3.525
  875SOL     OW 2642   0.705   2.912   2.230
  875SOL    HW1 2643   0.691   2.919   2.329
  875SOL    HW2 2644   0.789   2.861   2.212
  876SOL     OW 2645   0.410   2.675   3.113
  876SOL    HW1 2646   0.496   2.687   3.163
  876SOL    HW2 2647   0.368   2.588   3.140
  877SOL     OW 2648   1.274   2.248   3.124
  877SOL    HW1 2649   1.295   2.322   3.188
  877SOL    HW2 2650   1.185   2.265   3.081
  878SOL     OW 2651   0.064   3.426   3.193
  878SOL    HW1 2652   0.018   3.508   3.159
  878SOL    HW2 2653   0.162   3.445   3.202
  879SOL     OW 2654   0.367   2.962   2.363
  879SOL    HW1 2655   0.360   3.045   2.307
  879SOL    HW2 2656   0.371   2.882   2.303
  880SOL     OW 2657   0.566   2.399   2.727
  880SOL    HW1 2658   0.578   2.465   2.653
  880SOL    HW2 2659   0.612   2.433   2.810
  881SOL     OW 2660   1.252   3.210   2.250
  881SOL    HW1 2661   1.302   3.287   2.290
  881SOL    HW2 2662   1.157   3.212   2.282
  882SOL     OW 2663   1.272   3.307   3.004
  882SOL    HW1 2664   1.319   3.320   3.091
  882SOL    HW2 2665   1.206   3.233   3.013
  883SOL     OW 2666   1.582   2.501   2.334
  883SOL    HW1 2667   1.551   2.562   2.407
  883SOL    HW2 2668   1.632   2.553   2.265
  884SOL     OW 2669   0.354   3.372   3.191
  884SOL    HW1 2670   0.333   3.328   3.104
  884SOL    HW2 2671   0.451   3.398   3.194
  885SOL     OW 2672   0.402   2.613   3.460
  885SOL    HW1 2673   0.470   2.668   3.413
  885SOL    HW2 2674   0.442   2.525   3.487
  886SOL     OW 2675   1.587   2.641   3.532
  886SOL    HW1 2676   1.495   2.679   3.527
  886SOL    HW2 2677   1.647   2.688   3.467
  887SOL     OW 2678   1.013   1.967   3.632
  887SOL    HW1 2679   1.019   2.052   3.580
  887SOL    HW2 2680   1.045   1.891   3.575
  888SOL     OW 2681   0.504   1.912   3.602
  888SOL    HW1 2682   0.462   1.855   3.532
  888SOL    HW2 2683   0.438   1.981   3.634
  889SOL     OW 2684   0.573   2.732   2.891
  889SOL    HW1 2685   0.617   2.821   2.882
  889SOL    HW2 2686   0.510   2.732   2.968
  890SOL     OW 2687   1.360   2.724   2.907
  890SOL    HW1 2688   1.285   2.724   2.841
  890SOL    HW2 2689   1.397   2.632   2.916
  891SOL     OW 2690   1.209   2.387   2.137
  891SOL    HW1 2691   1.222   2.303   2.191
  891SOL    HW2 2692   1.180   2.461   2.197
  892SOL     OW 2693   0.307   2.075   3.093
  892SOL    HW1 2694   0.284   2.112   3.183
  892SOL    HW2 2695   0.277   1.980   3.087
  893SOL     OW 2696   0.037   3.172   3.144
  893SOL    HW1 2697   0.090   3.123   3.212
  893SOL    HW2 2698   0.059   3.270   3.149
  894SOL     OW 2699   0.732   2.496   2.926
  894SOL    HW1 2700   0.791   2.470   2.850
  894SOL    HW2 2701   0.704   2.592   2.915
  895SOL     OW 2702   1.728   2.797   3.716
  895SOL    HW1 2703   1.682   2.790   3.627
  895SOL    HW2 2704   1.666   2.841   3.782
  896SOL     OW 2705   0.307   1.925   2.480
  896SOL    HW1 2706   0.296   2.019   2.513
  896SOL    HW2 2707   0.302   1.862   2.557
  897SOL     OW 2708   1.622   2.229   2.236
  897SOL    HW1 2709   1.624   2.153   2.300
  897SOL    HW2 2710   1.574   2.306   2.276
  898SOL     OW 2711   1.023   2.628   2.828
  898SOL    HW1 2712   1.038   2.649   2.924
  898SOL    HW2 2713   0.993   2.533   2.819
  899SOL     OW 2714   0.980   3.435   3.562
  899SOL    HW1 2715   0.960   3.479   3.474
  899SOL    HW2 2716   1.019   3.344   3.546
  900SOL     OW 2717   1.859   3.380   3.467
  900SOL    HW1 2718   1.873   3.407   3.372
  900SOL    HW2 2719   1.942   3.402   3.520
  901SOL     OW 2720   0.350   2.760   3.666
  901SOL    HW1 2721   0.426   2.804   3.714
  901SOL    HW2 2722   0.385   2.713   3.584
  902SOL     OW 2723   1.540   2.136   1.987
  902SOL    HW1 2724   1.479   2.061   2.010
  902SOL    HW2 2725   1.562   2.188   2.070
  903SOL     OW 2726   1.303   2.700   1.904
  903SOL    HW1 2727   1.337   2.607   1.919
  903SOL    HW2 2728   1.321   2.727   1.809
  904SOL     OW 2729   1.068   3.195   2.711
  904SOL    HW1 2730   1.075   3.111   2.656
  904SOL    HW2 2731   1.130   3.264   2.675
  905SOL     OW 2732   0.319   2.672   2.811
  905SOL    HW1 2733   0.412   2.708   2.816
  905SOL    HW2 2734   0.313   2.587   2.863
  906SOL     OW 2735   0.339   2.371   2.868
  906SOL    HW1 2736   0.287   2.288   2.851
  906SOL    HW2 2737   0.416   2.376   2.804
  907SOL     OW 2738   1.138   2.242   3.540
  907SOL    HW1 2739   1.093   2.305   3.604
  907SOL    HW2 2740   1.231   2.273   3.523
  908SOL     OW 2741   1.160   2.069   3.339
  908SOL    HW1 2742   1.160   2.133   3.416
  908SOL    HW2 2743   1.188   2.117   3.256
  909SOL     OW 2744   0.008   3.188   2.062
  909SOL    HW1 2745  -0.085   3.209   2.031
  909SOL    HW2 2746   0.018   3.089   2.075
  910SOL     OW 2747   0.088   3.663   2.789
  910SOL    HW1 2748   0.046   3.577   2.762
  910SOL    HW2 2749   0.182   3.666   2.755
  911SOL     OW 2750   0.504   3.430   2.772
  911SOL    HW1 2751   0.570   3.504   2.781
  911SOL    HW2 2752   0.548   3.351   2.730
  912SOL     OW 2753   1.002   2.658   3.100
  912SOL    HW1 2754   1.043   2.626   3.186
  912SOL    HW2 2755   0.906   2.631   3.097
  913SOL     OW 2756   0.040   2.406   2.976
  913SOL    HW1 2757   0.125   2.373   2.935
  913SOL    HW2 2758   0.053   2.421   3.074
  914SOL     OW 2759   0.189   2.382   3.584
  914SOL    HW1 2760   0.248   2.342   3.514
  914SOL    HW2 2761   0.131   2.453   3.543
  915SOL     OW 2762   1.369   2.812   3.522
  915SOL    HW1 2763   1.408   2.901   3.542
  915SOL    HW2 2764   1.379   2.792   3.425
  916SOL     OW 2765   0.815   2.434   2.187
  916SOL    HW1 2766   0.822   2.345   2.141
  916SOL    HW2 2767   0.721   2.468   2.179
  917SOL     OW 2768   1.657   2.466   3.068
  917SOL    HW1 2769   1.619   2.397   3.130
  917SOL    HW2 2770   1.739   2.430   3.024
  918SOL     OW 2771   0.252   3.426   3.606
  918SOL    HW1 2772   0.222   3.483   3.682
  918SOL    HW2 2773   0.245   3.329   3.632
  919SOL     OW 2774   0.671   2.326   3.131
  919SOL    HW1 2775   0.637   2.237   3.101
  919SOL    HW2 2776   0.697   2.380   3.051
  920SOL     OW 2777   0.930   3.540   3.327
  920SOL    HW1 2778   0.906   3.522   3.232
  920SOL    HW2 2779   0.960   3.634   3.337
  921SOL     OW 2780   0.473   2.362   2.053
  921SOL    HW1 2781   0.534   2.442   2.057
  921SOL    HW2 2782   0.378   2.393   2.060
  922SOL     OW 2783   0.159   2.999   3.328
  922SOL    HW1 2784   0.181   2.938   3.404
  922SOL    HW2 2785   0.169   2.950   3.242
  923SOL     OW 2786   1.347   2.921   3.096
  923SOL    HW1 2787   1.371   2.858   3.022
  923SOL    HW2 2788   1.257   2.961   3.078
  924SOL     OW 2789   1.302   2.717   2.171
  924SOL    HW1 2790   1.216   2.686   2.213
  924SOL    HW2 2791   1.298   2.703   2.072
  925SOL     OW 2792   1.759   3.609   3.016
  925SOL    HW1 2793   1.820   3.639   2.943
  925SOL    HW2 2794   1.721   3.520   2.994
  926SOL     OW 2795   1.252   3.593   2.990
  926SOL    HW1 2796   1.336   3.598   2.936
  926SOL    HW2 2797   1.229   3.497   3.008
  927SOL     OW 2798   0.083   3.120   2.884
  927SOL    HW1 2799   0.078   3.119   2.984
  927SOL    HW2 2800   0.000   3.079   2.846
  928SOL     OW 2801   0.688   3.524   3.578
  928SOL    HW1 2802   0.632   3.605   3.587
  928SOL    HW2 2803   0.740   3.528   3.492
  929SOL     OW 2804   1.726   1.997   2.385
  929SOL    HW1 2805   1.799   1.980   2.318
  929SOL    HW2 2806   1.695   1.910   2.423
  930SOL     OW 2807   1.388   3.435   2.339
  930SOL    HW1 2808   1.455   3.447   2.265
  930SOL    HW2 2809   1.348   3.524   2.362
  931SOL     OW 2810   0.130   3.656   3.713
  931SOL    HW1 2811   0.089   3.582   3.766
  931SOL    HW2 2812   0.194   3.707   3.771
  932SOL     OW 2813   1.280   2.789   2.534
  932SOL    HW1 2814   1.340   2.708   2.536
  932SOL    HW2 2815   1.320   2.858   2.474
  933SOL     OW 2816   0.830   3.135   3.284
  933SOL    HW1 2817   0.825   3.168   3.379
  933SOL    HW2 2818   0.744   3.154   3.238
  934SOL     OW 2819   0.672   3.478   2.016
  934SOL    HW1 2820   0.681   3.488   1.917
  934SOL    HW2 2821   0.632   3.389   2.037
  935SOL     OW 2822   1.650   3.582   3.256
  935SOL    HW1 2823   1.703   3.592   3.172
  935SOL    HW2 2824   1.623   3.672   3.290
  936SOL     OW 2825   1.841   2.037   2.825
  936SOL    HW1 2826   1.880   1.952   2.789
  936SOL    HW2 2827   1.743   2.039   2.806
  937SOL     OW 2828   0.263   2.188   2.582
  937SOL    HW1 2829   0.184   2.239   2.548
  937SOL    HW2 2830   0.254   2.173   2.680
  938SOL     OW 2831   1.194   3.474   1.893
  938SOL    HW1 2832   1.200   3.381   1.930
  938SOL    HW2 2833   1.135   3.474   1.813
  939SOL     OW 2834   0.822   2.864   3.234
  939SOL    HW1 2835   0.862   2.863   3.142
  939SOL    HW2 2836   0.832   2.956   3.274
  940SOL     OW 2837   0.916   2.772   2.153
  940SOL    HW1 2838   0.979   2.810   2.085
  940SOL    HW2 2839   0.956   2.689   2.192
  941SOL     OW 2840   1.504   3.469   1.906
  941SOL    HW1 2841   1.412   3.506   1.913
  941SOL    HW2 2842   1.542   3.489   1.816
  942SOL     OW 2843   0.372   3.150   3.352
  942SOL    HW1 2844   0.359   3.243   3.318
  942SOL    HW2 2845   0.288   3.098   3.339
  943SOL     OW 2846   1.614   3.154   3.151
  943SOL    HW1 2847   1.674   3.157   3.231
  943SOL    HW2 2848   1.539   3.218   3.164
  944SOL     OW 2849   1.039   2.960   2.558
  944SOL    HW1 2850   0.969   2.913   2.612
  944SOL    HW2 2851   1.098   2.892   2.515
  945SOL     OW 2852   1.014   2.098   2.833
  945SOL    HW1 2853   1.006   2.062   2.740
  945SOL    HW2 2854   1.012   2.022   2.898
  946SOL     OW 2855   0.590   3.349   2.353
  946SOL    HW1 2856   0.632   3.291   2.283
  946SOL    HW2 2857   0.546   3.428   2.309
  947SOL     OW 2858   1.709   2.247   3.243
  947SOL    HW1 2859   1.782   2.316   3.247
  947SOL    HW2 2860   1.737   2.172   3.184
  948SOL     OW 2861   0.255   3.210   2.152
  948SOL    HW1 2862   0.159   3.211   2.125
  948SOL    HW2 2863   0.267   3.263   2.236
  949SOL     OW 2864   0.105   2.875   3.588
  949SOL    HW1 2865   0.028   2.842   3.642
  949SOL    HW2 2866   0.190   2.845   3.630
  950SOL     OW 2867   0.672   2.065   3.351
  950SOL    HW1 2868   0.762   2.049   3.311
  950SOL    HW2 2869   0.680   2.070   3.450
  951SOL     OW 2870   0.075   2.207   1.895
  951SOL    HW1 2871  -0.017   2.179   1.866
  951SOL    HW2 2872   0.106   2.284   1.839
  952SOL     OW 2873   1.440   2.718   3.260
  952SOL    HW1 2874   1.383   2.770   3.197
  952SOL    HW2 2875   1.536   2.730   3.236
  953SOL     OW 2876   0.072   2.028   2.180
  953SOL    HW1 2877   0.055   2.111   2.126
  953SOL    HW2 2878   0.162   1.991   2.158
  954SOL     OW 2879   1.183   3.197   1.981
  954SOL    HW1 2880   1.084   3.186   1.983
  954SOL    HW2 2881   1.217   3.212   2.074
  955SOL     OW 2882   0.613   2.704   3.293
  955SOL    HW1 2883   0.669   2.785   3.276
  955SOL    HW2 2884   0.672   2.624   3.296
  956SOL     OW 2885   1.493   3.629   2.821
  956SOL    HW1 2886   1.526   3.693   2.752
  956SOL    HW2 2887   1.559   3.623   2.896
  957SOL     OW 2888   0.716   2.427   3.570
  957SOL    HW1 2889   0.735   2.492   3.644
  957SOL    HW2 2890   0.776   2.347   3.579
  958SOL     OW 2891   1.450   3.082   3.495
  958SOL    HW1 2892   1.441   3.072   3.594
  958SOL    HW2 2893   1.546   3.075   3.469
  959SOL     OW 2894   0.390   3.603   3.422
  959SOL    HW1 2895   0.299   3.644   3.420
  959SOL    HW2 2896   0.383   3.509   3.454
  960SOL     OW 2897   1.674   2.745   3.116
  960SOL    HW1 2898   1.647   2.656   3.079
  960SOL    HW2 2899   1.675   2.813   3.043
  961SOL     OW 2900   1.225   2.187   2.311
  961SOL    HW1 2901   1.290   2.113   2.300
  961SOL    HW2 2902   1.245   2.237   2.395
  962SOL     OW 2903   0.594   2.607   2.514
  962SOL    HW1 2904   0.644   2.692   2.495
  962SOL    HW2 2905   0.506   2.609   2.466
  963SOL     OW 2906   1.777   2.204   3.504
  963SOL    HW1 2907   1.760   2.235   3.410
  963SOL    HW2 2908   1.693   2.167   3.542
  964SOL     OW 2909   1.730   2.796   3.379
  964SOL    HW1 2910   1.768   2.887   3.394
  964SOL    HW2 2911   1.722   2.779   3.280
  965SOL     OW 2912   0.859   3.236   1.878
  965SOL    HW1 2913   0.813   3.251   1.966
  965SOL    HW2 2914   0.903   3.321   1.848
  966SOL     OW 2915   0.661   3.652   2.815
  966SOL    HW1 2916   0.615   3.740   2.802
  966SOL    HW2 2917   0.760   3.664   2.808
  967SOL     OW 2918   0.859   2.818   2.723
  967SOL    HW1 2919   0.913   2.749   2.771
  967SOL    HW2 2920   0.827   2.887   2.789
  968SOL     OW 2921   1.083   2.846   1.949
  968SOL    HW1 2922   1.060   2.899   1.867
  968SOL    HW2 2923   1.164   2.790   1.930
  969SOL     OW 2924   1.861   3.431   2.713
  969SOL    HW1 2925   1.790   3.419   2.643
  969SOL    HW2 2926   1.862   3.352   2.773
  970SOL     OW 2927   0.221   3.176   3.706
  970SOL    HW1 2928   0.156   3.103   3.685
  970SOL    HW2 2929   0.225   3.190   3.804
  971SOL     OW 2930   0.079   3.102   2.515
  971SOL    HW1 2931   0.078   3.055   2.603
  971SOL    HW2 2932   0.161   3.074   2.464
  972SOL     OW 2933   0.672   3.253   3.486
  972SOL    HW1 2934   0.594   3.203   3.524
  972SOL    HW2 2935   0.669   3.348   3.517
  973SOL     OW 2936   1.824   2.054   3.089
  973SOL    HW1 2937   1.820   1.964   3.133
  973SOL    HW2 2938   1.827   2.043   2.990
  974SOL     OW 2939   0.428   2.286   2.382
  974SOL    HW1 2940   0.458   2.214   2.320
  974SOL    HW2 2941   0.389   2.246   2.465
  975SOL     OW 2942   1.705   3.349   2.966
  975SOL    HW1 2943   1.612   3.324   2.939
  975SOL    HW2 2944   1.731   3.299   3.048
  976SOL     OW 2945   0.317   2.409   3.142
  976SOL    HW1 2946   0.355   2.350   3.214
  976SOL    HW2 2947   0.357   2.383   3.054
  977SOL     OW 2948   0.812   3.448   2.549
  977SOL    HW1 2949   0.844   3.458   2.455
  977SOL    HW2 2950   0.733   3.386   2.551
  978SOL     OW 2951   1.424   2.076   2.974
  978SOL    HW1 2952   1.476   2.011   3.029
  978SOL    HW2 2953   1.375   2.139   3.035
  979SOL     OW 2954   1.001   1.896   3.016
  979SOL    HW1 2955   0.938   1.824   2.985
  979SOL    HW2 2956   1.094   1.860   3.016
  980SOL     OW 2957   0.770   3.192   2.163
  980SOL    HW1 2958   0.724   3.105   2.180
  980SOL    HW2 2959   0.861   3.189   2.204
  981SOL     OW 2960   0.618   3.429   3.146
  981SOL    HW1 2961   0.613   3.511   3.203
  981SOL    HW2 2962   0.707   3.426   3.101
  982SOL     OW 2963   1.352   1.914   2.030
  982SOL    HW1 2964   1.387   1.873   1.946
  982SOL    HW2 2965   1.262   1.876   2.050
  983SOL     OW 2966   1.300   2.315   2.553
  983SOL    HW1 2967   1.241   2.395   2.557
  983SOL    HW2 2968   1.315   2.280   2.646
  984SOL     OW 2969   1.593   2.083   2.744
  984SOL    HW1 2970   1.509   2.082   2.798
  984SOL    HW2 2971   1.595   2.166   2.688
  985SOL     OW 2972   0.039   2.939   2.162
  985SOL    HW1 2973   0.138   2.928   2.153
  985SOL    HW2 2974  -0.001   2.853   2.194
  986SOL     OW 2975   0.875   3.508   2.199
  986SOL    HW1 2976   0.798   3.473   2.145
  986SOL    HW2 2977   0.843   3.579   2.261
  987SOL     OW 2978   0.230   2.490   3.837
  987SOL    HW1 2979   0.137   2.488   3.874
  987SOL    HW2 2980   0.231   2.451   3.745
  988SOL     OW 2981   0.225   2.137   4.720
  988SOL    HW1 2982   0.260   2.120   4.812
  988SOL    HW2 2983   0.137   2.092   4.708
  989SOL     OW 2984   0.019   2.230   4.371
  989SOL    HW1 2985  -0.063   2.273   4.410
  989SOL    HW2 2986  -0.009   2.157   4.308
  990SOL     OW 2987   0.569   3.137   4.889
  990SOL    HW1 2988   0.476   3.130   4.852
  990SOL    HW2 2989   0.580   3.226   4.933
  991SOL     OW 2990   1.555   3.373   4.427
  991SOL    HW1 2991   1.498   3.357   4.508
  991SOL    HW2 2992   1.496   3.383   4.347
  992SOL     OW 2993   1.135   2.565   4.441
  992SOL    HW1 2994   1.192   2.643   4.416
  992SOL    HW2 2995   1.075   2.591   4.517
  993SOL     OW 2996   1.755   2.469   3.955
  993SOL    HW1 2997   1.743   2.456   3.856
  993SOL    HW2 2998   1.725   2.388   4.004
  994SOL     OW 2999   0.768   3.006   4.747
  994SOL    HW1 3000   0.690   3.023   4.807
  994SOL    HW2 3001   0.802   3.093   4.711
  995SOL     OW 3002   0.685   2.874   4.389
  995SOL    HW1 3003   0.754   2.858   4.459
  995SOL    HW2 3004   0.612   2.931   4.427
  996SOL     OW 3005   0.335   3.297   4.785
  996SOL    HW1 3006   0.257   3.266   4.732
  996SOL    HW2 3007   0.393   3.355   4.728
  997SOL     OW 3008   1.603   2.309   4.461
  997SOL    HW1 3009   1.529   2.355   4.411
  997SOL    HW2 3010   1.654   2.377   4.514
  998SOL     OW 3011   0.231   3.575   4.207
  998SOL    HW1 3012   0.265   3.652   4.261
  998SOL    HW2 3013   0.275   3.575   4.117
  999SOL     OW 3014   0.230   3.296   4.262
  999SOL    HW1 3015   0.204   3.392   4.262
  999SOL    HW2 3016   0.159   3.242   4.307
 1000SOL     OW 3017   0.240   2.953   4.610
 1000SOL    HW1 3018   0.254   2.869   4.662
 1000SOL    HW2 3019   0.185   3.017   4.665
 1001SOL     OW 3020   0.606   2.826   3.847
 1001SOL    HW1 3021   0.613   2.910   3.793
 1001SOL    HW2 3022   0.652   2.839   3.935
 1002SOL     OW 3023   0.122   2.505   4.287
 1002SOL    HW1 3024   0.077   2.417   4.304
 1002SOL    HW2 3025   0.121   2.559   4.371
 1003SOL     OW 3026   1.842   3.629   4.083
 1003SOL    HW1 3027   1.896   3.600   4.163
 1003SOL    HW2 3028   1.872   3.719   4.054
 1004SOL     OW 3029   0.027   3.458   3.841
 1004SOL    HW1 3030   0.008   3.362   3.862
 1004SOL    HW2 3031  -0.006   3.516   3.916
 1005SOL     OW 3032   1.689   2.784   4.336
 1005SOL    HW1 3033   1.784   2.755   4.344
 1005SOL    HW2 3034   1.681   2.849   4.261
 1006SOL     OW 3035   1.641   2.970   4.156
 1006SOL    HW1 3036   1.727   2.972   4.104
 1006SOL    HW2 3037   1.655   3.017   4.244
 1007SOL     OW 3038   0.613   3.227   4.450
 1007SOL    HW1 3039   0.564   3.140   4.459
 1007SOL    HW2 3040   0.590   3.270   4.363
 1008SOL     OW 3041   0.809   1.866   4.226
 1008SOL    HW1 3042   0.849   1.957   4.217
 1008SOL    HW2 3043   0.709   1.874   4.232
 1009SOL     OW 3044   0.197   2.838   4.988
 1009SOL    HW1 3045   0.286   2.793   4.974
 1009SOL    HW2 3046   0.124   2.773   4.969
 1010SOL     OW 3047   1.525   2.861   3.914
 1010SOL    HW1 3048   1.462   2.785   3.927
 1010SOL    HW2 3049   1.573   2.879   4.000
 1011SOL     OW 3050   1.466   3.279   4.677
 1011SOL    HW1 3051   1.407   3.285   4.757
 1011SOL    HW2 3052   1.451   3.191   4.631
 1012SOL     OW 3053   1.667   3.576   4.296
 1012SOL    HW1 3054   1.626   3.553   4.208
 1012SOL    HW2 3055   1.649   3.502   4.361
 1013SOL     OW 3056   0.598   2.591   3.994
 1013SOL    HW1 3057   0.622   2.660   3.926
 1013SOL    HW2 3058   0.520   2.624   4.048
 1014SOL     OW 3059   1.281   2.207   4.668
 1014SOL    HW1 3060   1.195   2.157   4.655
 1014SOL    HW2 3061   1.343   2.153   4.724
 1015SOL     OW 3062   1.576   3.524   4.031
 1015SOL    HW1 3063   1.665   3.570   4.034
 1015SOL    HW2 3064   1.555   3.500   3.936
 1016SOL     OW 3065   1.041   2.563   4.153
 1016SOL    HW1 3066   1.067   2.559   4.249
 1016SOL    HW2 3067   0.956   2.512   4.139
 1017SOL     OW 3068   0.076   2.673   4.513
 1017SOL    HW1 3069   0.175   2.661   4.522
 1017SOL    HW2 3070   0.052   2.768   4.534
 1018SOL     OW 3071   0.865   2.210   3.919
 1018SOL    HW1 3072   0.924   2.273   3.870
 1018SOL    HW2 3073   0.884   2.116   3.890
 1019SOL     OW 3074   1.362   3.006   4.269
 1019SOL    HW1 3075   1.445   2.977   4.221
 1019SOL    HW2 3076   1.313   3.073   4.213
 1020SOL     OW 3077   0.550   2.058   4.609
 1020SOL    HW1 3078   0.545   2.053   4.709
 1020SOL    HW2 3079   0.552   2.154   4.580
 1021SOL     OW 3080   1.008   3.318   4.201
 1021SOL    HW1 3081   0.962   3.390   4.149
 1021SOL    HW2 3082   1.004   3.338   4.299
 1022SOL     OW 3083   0.351   3.663   4.577
 1022SOL    HW1 3084   0.401   3.577   4.583
 1022SOL    HW2 3085   0.416   3.740   4.574
 1023SOL     OW 3086   1.795   2.928   4.597
 1023SOL    HW1 3087   1.733   2.913   4.521
 1023SOL    HW2 3088   1.743   2.939   4.682
 1024SOL     OW 3089   0.321   2.805   3.966
 1024SOL    HW1 3090   0.403   2.844   3.924
 1024SOL    HW2 3091   0.294   2.723   3.917
 1025SOL     OW 3092   1.458   2.597   4.452
 1025SOL    HW1 3093   1.453   2.532   4.527
 1025SOL    HW2 3094   1.538   2.656   4.465
 1026SOL     OW 3095   1.111   3.638   3.961
 1026SOL    HW1 3096   1.051   3.576   4.011
 1026SOL    HW2 3097   1.142   3.594   3.876
 1027SOL     OW 3098   1.632   3.239   3.805
 1027SOL    HW1 3099   1.600   3.333   3.795
 1027SOL    HW2 3100   1.556   3.176   3.793
 1028SOL     OW 3101   0.464   3.605   4.047
 1028SOL    HW1 3102   0.497   3.644   4.133
 1028SOL    HW2 3103   0.540   3.598   3.982
 1029SOL     OW 3104   1.400   1.969   4.150
 1029SOL    HW1 3105   1.376   1.932   4.060
 1029SOL    HW2 3106   1.499   1.985   4.154
 1030SOL     OW 3107   0.249   3.647   4.965
 1030SOL    HW1 3108   0.306   3.582   5.015
 1030SOL    HW2 3109   0.233   3.614   4.872
 1031SOL     OW 3110   0.940   3.560   4.628
 1031SOL    HW1 3111   1.020   3.503   4.649
 1031SOL    HW2 3112   0.891   3.520   4.551
 1032SOL     OW 3113   0.382   2.562   4.204
 1032SOL    HW1 3114   0.427   2.472   4.201
 1032SOL    HW2 3115   0.288   2.551   4.237
 1033SOL     OW 3116   0.614   1.984   3.841
 1033SOL    HW1 3117   0.712   1.962   3.848
 1033SOL    HW2 3118   0.583   1.967   3.748
 1034SOL     OW 3119   0.803   3.264   4.648
 1034SOL    HW1 3120   0.893   3.278   4.606
 1034SOL    HW2 3121   0.732   3.266   4.577
 1035SOL     OW 3122   0.922   2.365   4.623
 1035SOL    HW1 3123   0.897   2.356   4.527
 1035SOL    HW2 3124   0.970   2.283   4.654
 1036SOL     OW 3125   0.539   1.926   4.236
 1036SOL    HW1 3126   0.458   1.927   4.294
 1036SOL    HW2 3127   0.542   2.009   4.181
 1037SOL     OW 3128   1.434   3.050   3.765
 1037SOL    HW1 3129   1.466   2.974   3.822
 1037SOL    HW2 3130   1.342   3.077   3.795
 1038SOL     OW 3131   0.297   1.897   3.895
 1038SOL    HW1 3132   0.346   1.981   3.874
 1038SOL    HW2 3133   0.359   1.832   3.940
 1039SOL     OW 3134   0.935   2.098   4.204
 1039SOL    HW1 3135   0.887   2.139   4.126
 1039SOL    HW2 3136   1.034   2.096   4.185
 1040SOL     OW 3137   1.227   3.432   4.517
 1040SOL    HW1 3138   1.248   3.506   4.452
 1040SOL    HW2 3139   1.295   3.432   4.590
 1041SOL     OW 3140   0.459   3.014   4.465
 1041SOL    HW1 3141   0.388   2.987   4.530
 1041SOL    HW2 3142   0.433   2.986   4.372
 1042SOL     OW 3143   1.271   3.659   4.315
 1042SOL    HW1 3144   1.315   3.723   4.251
 1042SOL    HW2 3145   1.221   3.711   4.385
 1043SOL     OW 3146   1.032   2.411   3.740
 1043SOL    HW1 3147   0.991   2.493   3.701
 1043SOL    HW2 3148   1.096   2.437   3.813
 1044SOL     OW 3149   0.866   2.316   4.366
 1044SOL    HW1 3150   0.834   2.388   4.304
 1044SOL    HW2 3151   0.890   2.235   4.313
 1045SOL     OW 3152   1.017   1.901   4.477
 1045SOL    HW1 3153   0.945   1.906   4.408
 1045SOL    HW2 3154   0.993   1.832   4.546
 1046SOL     OW 3155   1.429   3.035   4.591
 1046SOL    HW1 3156   1.374   2.951   4.584
 1046SOL    HW2 3157   1.455   3.064   4.499
 1047SOL     OW 3158   1.466   2.452   4.716
 1047SOL    HW1 3159   1.436   2.357   4.723
 1047SOL    HW2 3160   1.539   2.468   4.782
 1048SOL     OW 3161   1.857   2.695   4.101
 1048SOL    HW1 3162   1.899   2.631   4.165
 1048SOL    HW2 3163   1.819   2.644   4.023
 1049SOL     OW 3164   0.488   3.247   3.898
 1049SOL    HW1 3165   0.401   3.232   3.945
 1049SOL    HW2 3166   0.471   3.273   3.803
 1050SOL     OW 3167   1.664   3.142   4.381
 1050SOL    HW1 3168   1.763   3.150   4.395
 1050SOL    HW2 3169   1.619   3.226   4.412
 1051SOL     OW 3170   1.390   2.437   3.802
 1051SOL    HW1 3171   1.336   2.416   3.883
 1051SOL    HW2 3172   1.481   2.396   3.811
 1052SOL     OW 3173   0.527   2.118   4.052
 1052SOL    HW1 3174   0.554   2.059   3.977
 1052SOL    HW2 3175   0.527   2.213   4.021
 1053SOL     OW 3176   1.111   3.057   4.824
 1053SOL    HW1 3177   1.071   3.101   4.905
 1053SOL    HW2 3178   1.070   3.094   4.741
 1054SOL     OW 3179   1.638   2.961   4.803
 1054SOL    HW1 3180   1.643   3.042   4.862
 1054SOL    HW2 3181   1.552   2.963   4.752
 1055SOL     OW 3182   0.705   2.912   4.092
 1055SOL    HW1 3183   0.691   2.919   4.191
 1055SOL    HW2 3184   0.789   2.861   4.074
 1056SOL     OW 3185   0.410   2.675   4.975
 1056SOL    HW1 3186   0.496   2.687   5.025
 1056SOL    HW2 3187   0.368   2.588   5.002
 1057SOL     OW 3188   0.367   2.962   4.225
 1057SOL    HW1 3189   0.360   3.045   4.169
 1057SOL    HW2 3190   0.371   2.882   4.165
 1058SOL     OW 3191   0.566   2.399   4.589
 1058SOL    HW1 3192   0.578   2.465   4.515
 1058SOL    HW2 3193   0.612   2.433   4.672
 1059SOL     OW 3194   1.252   3.210   4.112
 1059SOL    HW1 3195   1.302   3.287   4.152
 1059SOL    HW2 3196   1.157   3.212   4.144
 1060SOL     OW 3197   1.272   3.307   4.866
 1060SOL    HW1 3198   1.319   3.320   4.953
 1060SOL    HW2 3199   1.206   3.233   4.875
 1061SOL     OW 3200   1.582   2.501   4.196
 1061SOL    HW1 3201   1.551   2.562   4.269
 1061SOL    HW2 3202   1.632   2.553   4.127
 1062SOL     OW 3203   0.573   2.732   4.753
 1062SOL    HW1 3204   0.617   2.821   4.744
 1062SOL    HW2 3205   0.510   2.732   4.830
 1063SOL     OW 3206   1.209   2.387   3.999
 1063SOL    HW1 3207   1.222   2.303   4.053
 1063SOL    HW2 3208   1.180   2.461   4.059
 1064SOL     OW 3209   0.307   2.075   4.955
 1064SOL    HW1 3210   0.284   2.112   5.045
 1064SOL    HW2 3211   0.277   1.980   4.949
 1065SOL     OW 3212   0.732   2.496   4.788
 1065SOL    HW1 3213   0.791   2.470   4.712
 1065SOL    HW2 3214   0.704   2.592   4.777
 1066SOL     OW 3215   0.307   1.925   4.342
 1066SOL    HW1 3216   0.296   2.019   4.375
 1066SOL    HW2 3217   0.302   1.862   4.419
 1067SOL     OW 3218   1.622   2.229   4.098
 1067SOL    HW1 3219   1.624   2.153   4.162
 1067SOL    HW2 3220   1.574   2.306   4.138
 1068SOL     OW 3221   1.023   2.628   4.690
 1068SOL    HW1 3222   1.038   2.649   4.786
 1068SOL    HW2 3223   0.993   2.533   4.681
 1069SOL     OW 3224   1.540   2.136   3.849
 1069SOL    HW1 3225   1.479   2.061   3.872
 1069SOL    HW2 3226   1.562   2.188   3.932
 1070SOL     OW 3227   1.303   2.700   3.766
 1070SOL    HW1 3228   1.337   2.607   3.781
 1070SOL    HW2 3229   1.321   2.727   3.671
 1071SOL     OW 3230   1.068   3.195   4.573
 1071SOL    HW1 3231   1.075   3.111   4.518
 1071SOL    HW2 3232   1.130   3.264   4.537
 1072SOL     OW 3233   0.319   2.672   4.673
 1072SOL    HW1 3234   0.412   2.708   4.678
 1072SOL    HW2 3235   0.313   2.587   4.725
 1073SOL     OW 3236   0.339   2.371   4.730
 1073SOL    HW1 3237   0.287   2.288   4.713
 1073SOL    HW2 3238   0.416   2.376   4.666
 1074SOL     OW 3239   0.008   3.188   3.924
 1074SOL    HW1 3240  -0.085   3.209   3.893
 1074SOL    HW2 3241   0.018   3.089   3.937
 1075SOL     OW 3242   0.088   3.663   4.651
 1075SOL    HW1 3243   0.046   3.577   4.624
 1075SOL    HW2 3244   0.182   3.666   4.617
 1076SOL     OW 3245   0.504   3.430   4.634
 1076SOL    HW1 3246   0.570   3.504   4.643
 1076SOL    HW2 3247   0.548   3.351   4.592
 1077SOL     OW 3248   1.002   2.658   4.962
 1077SOL    HW1 3249   1.043   2.626   5.048
 1077SOL    HW2 3250   0.906   2.631   4.959
 1078SOL     OW 3251   0.815   2.434   4.049
 1078SOL    HW1 3252   0.822   2.345   4.003
 1078SOL    HW2 3253   0.721   2.468   4.041
 1079SOL     OW 3254   1.657   2.466   4.930
 1079SOL    HW1 3255   1.619   2.397   4.992
 1079SOL    HW2 3256   1.739   2.430   4.886
 1080SOL     OW 3257   0.671   2.326   4.993
 1080SOL    HW1 3258   0.637   2.237   4.963
 1080SOL    HW2 3259   0.697   2.380   4.913
 1081SOL     OW 3260   0.473   2.362   3.915
 1081SOL    HW1 3261   0.534   2.442   3.919
 1081SOL    HW2 3262   0.378   2.393   3.922
 1082SOL     OW 3263   1.302   2.717   4.033
 1082SOL    HW1 3264   1.216   2.686   4.075
 1082SOL    HW2 3265   1.298   2.703   3.934
 1083SOL     OW 3266   1.759   3.609   4.878
 1083SOL    HW1 3267   1.820   3.639   4.805
 1083SOL    HW2 3268   1.721   3.520   4.856
 1084SOL     OW 3269   0.083   3.120   4.746
 1084SOL    HW1 3270   0.078   3.119   4.846
 1084SOL    HW2 3271   0.000   3.079   4.708
 1085SOL     OW 3272   1.726   1.997   4.247
 1085SOL    HW1 3273   1.799   1.980   4.180
 1085SOL    HW2 3274   1.695   1.910   4.285
 1086SOL     OW 3275   1.388   3.435   4.201
 1086SOL    HW1 3276   1.455   3.447   4.127
 1086SOL    HW2 3277   1.348   3.524   4.224
 1087SOL     OW 3278   1.280   2.789   4.396
 1087SOL    HW1 3279   1.340   2.708   4.398
 1087SOL    HW2 3280   1.320   2.858   4.336
 1088SOL     OW 3281   0.672   3.478   3.878
 1088SOL    HW1 3282   0.681   3.488   3.779
 1088SOL    HW2 3283   0.632   3.389   3.899
 1089SOL     OW 3284   1.841   2.037   4.687
 1089SOL    HW1 3285   1.880   1.952   4.651
 1089SOL    HW2 3286   1.743   2.039   4.668
 1090SOL     OW 3287   0.263   2.188   4.444
 1090SOL    HW1 3288   0.184   2.239   4.410
 1090SOL    HW2 3289   0.254   2.173   4.542
 1091SOL     OW 3290   1.194   3.474   3.755
 1091SOL    HW1 3291   1.200   3.381   3.792
 1091SOL    HW2 3292   1.135   3.474   3.675
 1092SOL     OW 3293   0.822   2.864   5.096
 1092SOL    HW1 3294   0.862   2.863   5.004
 1092SOL    HW2 3295   0.832   2.956   5.136
 1093SOL     OW 3296   0.916   2.772   4.015
 1093SOL    HW1 3297   0.979   2.810   3.947
 1093SOL    HW2 3298   0.956   2.689   4.054
 1094SOL     OW 3299   1.504   3.469   3.768
 1094SOL    HW1 3300   1.412   3.506   3.775
 1094SOL    HW2 3301   1.542   3.489   3.678
 1095SOL     OW 3302   1.039   2.960   4.420
 1095SOL    HW1 3303   0.969   2.913   4.474
 1095SOL    HW2 3304   1.098   2.892   4.377
 1096SOL     OW 3305   1.014   2.098   4.695
 1096SOL    HW1 3306   1.006   2.062   4.602
 1096SOL    HW2 3307   1.012   2.022   4.760
 1097SOL     OW 3308   0.590   3.349   4.215
 1097SOL    HW1 3309   0.632   3.291   4.145
 1097SOL    HW2 3310   0.546   3.428   4.171
 1098SOL     OW 3311   0.255   3.210   4.014
 1098SOL    HW1 3312   0.159   3.211   3.987
 1098SOL    HW2 3313   0.267   3.263   4.098
 1099SOL     OW 3314   0.075   2.207   3.757
 1099SOL    HW1 3315  -0.017   2.179   3.728
 1099SOL    HW2 3316   0.106   2.284   3.701
 1100SOL     OW 3317   0.072   2.028   4.042
 1100SOL    HW1 3318   0.055   2.111   3.988
 1100SOL    HW2 3319   0.162   1.991   4.020
 1101SOL     OW 3320   1.183   3.197   3.843
 1101SOL    HW1 3321   1.084   3.186   3.845
 1101SOL    HW2 3322   1.217   3.212   3.936
 1102SOL     OW 3323   1.493   3.629   4.683
 1102SOL    HW1 3324   1.526   3.693   4.614
 1102SOL    HW2 3325   1.559   3.623   4.758
 1103SOL     OW 3326   1.674   2.745   4.978
 1103SOL    HW1 3327   1.647   2.656   4.941
 1103SOL    HW2 3328   1.675   2.813   4.905
 1104SOL     OW 3329   1.225   2.187   4.173
 1104SOL    HW1 3330   1.290   2.113   4.162
 1104SOL    HW2 3331   1.245   2.237   4.257
 1105SOL     OW 3332   0.594   2.607   4.376
 1105SOL    HW1 3333   0.644   2.692   4.357
 1105SOL    HW2 3334   0.506   2.609   4.328
 1106SOL     OW 3335   0.859   3.236   3.740
 1106SOL    HW1 3336   0.813   3.251   3.828
 1106SOL    HW2 3337   0.903   3.321   3.710
 1107SOL     OW 3338   0.661   3.652   4.677
 1107SOL    HW1 3339   0.615   3.740   4.664
 1107SOL    HW2 3340   0.760   3.664   4.670
 1108SOL     OW 3341   0.859   2.818   4.585
 1108SOL    HW1 3342   0.913   2.749   4.633
 1108SOL    HW2 3343   0.827   2.887   4.651
 1109SOL     OW 3344   1.083   2.846   3.811
 1109SOL    HW1 3345   1.060   2.899   3.729
 1109SOL    HW2 3346   1.164   2.790   3.792
 1110SOL     OW 3347   1.861   3.431   4.575
 1110SOL    HW1 3348   1.790   3.419   4.505
 1110SOL    HW2 3349   1.862   3.352   4.635
 1111SOL     OW 3350   0.079   3.102   4.377
 1111SOL    HW1 3351   0.078   3.055   4.465
 1111SOL    HW2 3352   0.161   3.074   4.326
 1112SOL     OW 3353   1.824   2.054   4.951
 1112SOL    HW1 3354   1.820   1.964   4.995
 1112SOL    HW2 3355   1.827   2.043   4.852
 1113SOL     OW 3356   0.428   2.286   4.244
 1113SOL    HW1 3357   0.458   2.214   4.182
 1113SOL    HW2 3358   0.389   2.246   4.327
 1114SOL     OW 3359   0.812   3.448   4.411
 1114SOL    HW1 3360   0.844   3.458   4.317
 1114SOL    HW2 3361   0.733   3.386   4.413
 1115SOL     OW 3362   1.424   2.076   4.836
 1115SOL    HW1 3363   1.476   2.011   4.891
 1115SOL    HW2 3364   1.375   2.139   4.897
 1116SOL     OW 3365   0.770   3.192   4.025
 1116SOL    HW1 3366   0.724   3.105   4.042
 1116SOL    HW2 3367   0.861   3.189   4.066
 1117SOL     OW 3368   1.352   1.914   3.892
 1117SOL    HW1 3369   1.387   1.873   3.808
 1117SOL    HW2 3370   1.262   1.876   3.912
 1118SOL     OW 3371   1.300   2.315   4.415
 1118SOL    HW1 3372   1.241   2.395   4.419
 1118SOL    HW2 3373   1.315   2.280   4.508
 1119SOL     OW 3374   1.593   2.083   4.606
 1119SOL    HW1 3375   1.509   2.082   4.660
 1119SOL    HW2 3376   1.595   2.166   4.550
 1120SOL     OW 3377   0.039   2.939   4.024
 1120SOL    HW1 3378   0.138   2.928   4.015
 1120SOL    HW2 3379  -0.001   2.853   4.056
 1121SOL     OW 3380   0.875   3.508   4.061
 1121SOL    HW1 3381   0.798   3.473   4.007
 1121SOL    HW2 3382   0.843   3.579   4.123
 1122SOL     OW 3383   0.230   4.352   0.113
 1122SOL    HW1 3384   0.137   4.350   0.150
 1122SOL    HW2 3385   0.231   4.313   0.021
 1123SOL     OW 3386   0.225   3.999   0.996
 1123SOL    HW1 3387   0.260   3.982   1.088
 1123SOL    HW2 3388   0.137   3.954   0.984
 1124SOL     OW 3389   0.019   4.092   0.647
 1124SOL    HW1 3390  -0.063   4.135   0.686
 1124SOL    HW2 3391  -0.009   4.019   0.584
 1125SOL     OW 3392   1.135   4.427   0.717
 1125SOL    HW1 3393   1.192   4.505   0.692
 1125SOL    HW2 3394   1.075   4.453   0.793
 1126SOL     OW 3395   1.755   4.331   0.231
 1126SOL    HW1 3396   1.743   4.318   0.132
 1126SOL    HW2 3397   1.725   4.250   0.280
 1127SOL     OW 3398   0.768   4.868   1.023
 1127SOL    HW1 3399   0.690   4.885   1.083
 1127SOL    HW2 3400   0.802   4.955   0.987
 1128SOL     OW 3401   0.850   4.522   1.823
 1128SOL    HW1 3402   0.846   4.598   1.888
 1128SOL    HW2 3403   0.872   4.558   1.732
 1129SOL     OW 3404   0.685   4.736   0.665
 1129SOL    HW1 3405   0.754   4.720   0.735
 1129SOL    HW2 3406   0.612   4.793   0.703
 1130SOL     OW 3407   1.460   5.229   1.339
 1130SOL    HW1 3408   1.484   5.323   1.365
 1130SOL    HW2 3409   1.444   5.175   1.421
 1131SOL     OW 3410   0.438   4.116   1.499
 1131SOL    HW1 3411   0.520   4.060   1.508
 1131SOL    HW2 3412   0.357   4.058   1.503
 1132SOL     OW 3413   1.603   4.171   0.737
 1132SOL    HW1 3414   1.529   4.217   0.687
 1132SOL    HW2 3415   1.654   4.239   0.790
 1133SOL     OW 3416   0.240   4.815   0.886
 1133SOL    HW1 3417   0.254   4.731   0.938
 1133SOL    HW2 3418   0.185   4.879   0.941
 1134SOL     OW 3419   0.606   4.688   0.123
 1134SOL    HW1 3420   0.613   4.772   0.069
 1134SOL    HW2 3421   0.652   4.701   0.211
 1135SOL     OW 3422   1.594   3.838   1.480
 1135SOL    HW1 3423   1.576   3.905   1.408
 1135SOL    HW2 3424   1.591   3.884   1.569
 1136SOL     OW 3425   0.122   4.367   0.563
 1136SOL    HW1 3426   0.077   4.279   0.580
 1136SOL    HW2 3427   0.121   4.421   0.647
 1137SOL     OW 3428   1.689   4.646   0.612
 1137SOL    HW1 3429   1.784   4.617   0.620
 1137SOL    HW2 3430   1.681   4.711   0.537
 1138SOL     OW 3431   0.113   4.461   1.597
 1138SOL    HW1 3432   0.201   4.448   1.642
 1138SOL    HW2 3433   0.100   4.558   1.575
 1139SOL     OW 3434   0.613   5.089   0.726
 1139SOL    HW1 3435   0.564   5.002   0.735
 1139SOL    HW2 3436   0.590   5.132   0.639
 1140SOL     OW 3437   1.293   4.952   1.423
 1140SOL    HW1 3438   1.330   4.879   1.365
 1140SOL    HW2 3439   1.345   4.957   1.508
 1141SOL     OW 3440   0.809   3.728   0.502
 1141SOL    HW1 3441   0.849   3.819   0.493
 1141SOL    HW2 3442   0.709   3.736   0.508
 1142SOL     OW 3443   0.197   4.700   1.264
 1142SOL    HW1 3444   0.286   4.655   1.250
 1142SOL    HW2 3445   0.124   4.635   1.245
 1143SOL     OW 3446   1.525   4.723   0.190
 1143SOL    HW1 3447   1.462   4.647   0.203
 1143SOL    HW2 3448   1.573   4.741   0.276
 1144SOL     OW 3449   0.317   3.975   1.801
 1144SOL    HW1 3450   0.388   4.046   1.807
 1144SOL    HW2 3451   0.229   4.014   1.829
 1145SOL     OW 3452   0.598   4.453   0.270
 1145SOL    HW1 3453   0.622   4.522   0.202
 1145SOL    HW2 3454   0.520   4.486   0.324
 1146SOL     OW 3455   1.281   4.069   0.944
 1146SOL    HW1 3456   1.195   4.019   0.931
 1146SOL    HW2 3457   1.343   4.015   1.000
 1147SOL     OW 3458   0.807   4.329   1.465
 1147SOL    HW1 3459   0.760   4.326   1.554
 1147SOL    HW2 3460   0.756   4.274   1.399
 1148SOL     OW 3461   1.394   4.193   1.674
 1148SOL    HW1 3462   1.374   4.236   1.762
 1148SOL    HW2 3463   1.472   4.131   1.683
 1149SOL     OW 3464   0.973   4.614   1.572
 1149SOL    HW1 3465   1.019   4.530   1.543
 1149SOL    HW2 3466   0.917   4.648   1.497
 1150SOL     OW 3467   0.991   4.134   1.242
 1150SOL    HW1 3468   0.914   4.168   1.296
 1150SOL    HW2 3469   0.957   4.083   1.163
 1151SOL     OW 3470   1.041   4.425   0.429
 1151SOL    HW1 3471   1.067   4.421   0.525
 1151SOL    HW2 3472   0.956   4.374   0.415
 1152SOL     OW 3473   0.076   4.535   0.789
 1152SOL    HW1 3474   0.175   4.523   0.798
 1152SOL    HW2 3475   0.052   4.630   0.810
 1153SOL     OW 3476   0.865   4.072   0.195
 1153SOL    HW1 3477   0.924   4.135   0.146
 1153SOL    HW2 3478   0.884   3.978   0.166
 1154SOL     OW 3479   1.719   4.309   1.831
 1154SOL    HW1 3480   1.693   4.398   1.795
 1154SOL    HW2 3481   1.717   4.241   1.758
 1155SOL     OW 3482   0.550   3.920   0.885
 1155SOL    HW1 3483   0.545   3.915   0.985
 1155SOL    HW2 3484   0.552   4.016   0.856
 1156SOL     OW 3485   1.795   4.790   0.873
 1156SOL    HW1 3486   1.733   4.775   0.797
 1156SOL    HW2 3487   1.743   4.801   0.958
 1157SOL     OW 3488   0.321   4.667   0.242
 1157SOL    HW1 3489   0.403   4.706   0.200
 1157SOL    HW2 3490   0.294   4.585   0.193
 1158SOL     OW 3491   1.458   4.459   0.728
 1158SOL    HW1 3492   1.453   4.394   0.803
 1158SOL    HW2 3493   1.538   4.518   0.741
 1159SOL     OW 3494   0.202   4.009   1.498
 1159SOL    HW1 3495   0.122   4.069   1.485
 1159SOL    HW2 3496   0.192   3.960   1.584
 1160SOL     OW 3497   1.400   3.831   0.426
 1160SOL    HW1 3498   1.376   3.794   0.336
 1160SOL    HW2 3499   1.499   3.847   0.430
 1161SOL     OW 3500   0.382   4.424   0.480
 1161SOL    HW1 3501   0.427   4.334   0.477
 1161SOL    HW2 3502   0.288   4.413   0.513
 1162SOL     OW 3503   1.547   3.946   1.729
 1162SOL    HW1 3504   1.542   3.983   1.821
 1162SOL    HW2 3505   1.475   3.877   1.717
 1163SOL     OW 3506   0.614   3.846   0.117
 1163SOL    HW1 3507   0.712   3.824   0.124
 1163SOL    HW2 3508   0.583   3.829   0.024
 1164SOL     OW 3509   0.781   3.988   1.749
 1164SOL    HW1 3510   0.848   3.927   1.792
 1164SOL    HW2 3511   0.708   4.007   1.814
 1165SOL     OW 3512   1.351   4.314   1.433
 1165SOL    HW1 3513   1.379   4.271   1.518
 1165SOL    HW2 3514   1.376   4.410   1.434
 1166SOL     OW 3515   0.922   4.227   0.899
 1166SOL    HW1 3516   0.897   4.218   0.803
 1166SOL    HW2 3517   0.970   4.145   0.930
 1167SOL     OW 3518   0.539   3.788   0.512
 1167SOL    HW1 3519   0.458   3.789   0.570
 1167SOL    HW2 3520   0.542   3.871   0.457
 1168SOL     OW 3521   0.297   3.759   0.171
 1168SOL    HW1 3522   0.346   3.843   0.150
 1168SOL    HW2 3523   0.359   3.694   0.216
 1169SOL     OW 3524   0.935   3.960   0.480
 1169SOL    HW1 3525   0.887   4.001   0.402
 1169SOL    HW2 3526   1.034   3.958   0.461
 1170SOL     OW 3527   1.076   4.407   1.464
 1170SOL    HW1 3528   0.996   4.346   1.467
 1170SOL    HW2 3529   1.157   4.354   1.440
 1171SOL     OW 3530   0.459   4.876   0.741
 1171SOL    HW1 3531   0.388   4.849   0.806
 1171SOL    HW2 3532   0.433   4.848   0.648
 1172SOL     OW 3533   1.032   4.273   0.016
 1172SOL    HW1 3534   0.991   4.355  -0.023
 1172SOL    HW2 3535   1.096   4.299   0.089
 1173SOL     OW 3536   0.078   4.280   1.386
 1173SOL    HW1 3537   0.170   4.279   1.345
 1173SOL    HW2 3538   0.072   4.354   1.453
 1174SOL     OW 3539   0.561   3.946   1.147
 1174SOL    HW1 3540   0.599   3.862   1.184
 1174SOL    HW2 3541   0.473   3.965   1.191
 1175SOL     OW 3542   0.866   4.178   0.642
 1175SOL    HW1 3543   0.834   4.250   0.580
 1175SOL    HW2 3544   0.890   4.097   0.589
 1176SOL     OW 3545   1.017   3.763   0.753
 1176SOL    HW1 3546   0.945   3.768   0.684
 1176SOL    HW2 3547   0.993   3.694   0.822
 1177SOL     OW 3548   1.429   4.897   0.867
 1177SOL    HW1 3549   1.374   4.813   0.860
 1177SOL    HW2 3550   1.455   4.926   0.775
 1178SOL     OW 3551   1.466   4.314   0.992
 1178SOL    HW1 3552   1.436   4.219   0.999
 1178SOL    HW2 3553   1.539   4.330   1.058
 1179SOL     OW 3554   1.857   4.557   0.377
 1179SOL    HW1 3555   1.899   4.493   0.441
 1179SOL    HW2 3556   1.819   4.506   0.299
 1180SOL     OW 3557   1.390   4.299   0.078
 1180SOL    HW1 3558   1.336   4.278   0.159
 1180SOL    HW2 3559   1.481   4.258   0.087
 1181SOL     OW 3560   0.527   3.980   0.328
 1181SOL    HW1 3561   0.554   3.921   0.253
 1181SOL    HW2 3562   0.527   4.075   0.297
 1182SOL     OW 3563   1.754   4.947   1.588
 1182SOL    HW1 3564   1.845   4.908   1.575
 1182SOL    HW2 3565   1.762   5.043   1.612
 1183SOL     OW 3566   1.638   4.823   1.079
 1183SOL    HW1 3567   1.643   4.904   1.138
 1183SOL    HW2 3568   1.552   4.825   1.028
 1184SOL     OW 3569   0.915   3.813   1.402
 1184SOL    HW1 3570   0.940   3.793   1.307
 1184SOL    HW2 3571   0.987   3.869   1.444
 1185SOL     OW 3572   0.705   4.774   0.368
 1185SOL    HW1 3573   0.691   4.781   0.467
 1185SOL    HW2 3574   0.789   4.723   0.350
 1186SOL     OW 3575   0.410   4.537   1.251
 1186SOL    HW1 3576   0.496   4.549   1.301
 1186SOL    HW2 3577   0.368   4.450   1.278
 1187SOL     OW 3578   1.274   4.110   1.262
 1187SOL    HW1 3579   1.295   4.184   1.326
 1187SOL    HW2 3580   1.185   4.127   1.219
 1188SOL     OW 3581   0.367   4.824   0.501
 1188SOL    HW1 3582   0.360   4.907   0.445
 1188SOL    HW2 3583   0.371   4.744   0.441
 1189SOL     OW 3584   0.566   4.261   0.865
 1189SOL    HW1 3585   0.578   4.327   0.791
 1189SOL    HW2 3586   0.612   4.295   0.948
 1190SOL     OW 3587   1.582   4.363   0.472
 1190SOL    HW1 3588   1.551   4.424   0.545
 1190SOL    HW2 3589   1.632   4.415   0.403
 1191SOL     OW 3590   0.402   4.475   1.598
 1191SOL    HW1 3591   0.470   4.530   1.551
 1191SOL    HW2 3592   0.442   4.387   1.625
 1192SOL     OW 3593   1.587   4.503   1.670
 1192SOL    HW1 3594   1.495   4.541   1.665
 1192SOL    HW2 3595   1.647   4.550   1.605
 1193SOL     OW 3596   1.013   3.829   1.770
 1193SOL    HW1 3597   1.019   3.914   1.718
 1193SOL    HW2 3598   1.045   3.753   1.713
 1194SOL     OW 3599   0.504   3.774   1.740
 1194SOL    HW1 3600   0.462   3.717   1.670
 1194SOL    HW2 3601   0.438   3.843   1.772
 1195SOL     OW 3602   0.573   4.594   1.029
 1195SOL    HW1 3603   0.617   4.683   1.020
 1195SOL    HW2 3604   0.510   4.594   1.106
 1196SOL     OW 3605   1.360   4.586   1.045
 1196SOL    HW1 3606   1.285   4.586   0.979
 1196SOL    HW2 3607   1.397   4.494   1.054
 1197SOL     OW 3608   1.209   4.249   0.275
 1197SOL    HW1 3609   1.222   4.165   0.329
 1197SOL    HW2 3610   1.180   4.323   0.335
 1198SOL     OW 3611   0.307   3.937   1.231
 1198SOL    HW1 3612   0.284   3.974   1.321
 1198SOL    HW2 3613   0.277   3.842   1.225
 1199SOL     OW 3614   0.037   5.034   1.282
 1199SOL    HW1 3615   0.090   4.985   1.350
 1199SOL    HW2 3616   0.059   5.132   1.287
 1200SOL     OW 3617   0.732   4.358   1.064
 1200SOL    HW1 3618   0.791   4.332   0.988
 1200SOL    HW2 3619   0.704   4.454   1.053
 1201SOL     OW 3620   1.728   4.659   1.854
 1201SOL    HW1 3621   1.682   4.652   1.765
 1201SOL    HW2 3622   1.666   4.703   1.920
 1202SOL     OW 3623   0.307   3.787   0.618
 1202SOL    HW1 3624   0.296   3.881   0.651
 1202SOL    HW2 3625   0.302   3.724   0.695
 1203SOL     OW 3626   1.622   4.091   0.374
 1203SOL    HW1 3627   1.624   4.015   0.438
 1203SOL    HW2 3628   1.574   4.168   0.414
 1204SOL     OW 3629   1.023   4.490   0.966
 1204SOL    HW1 3630   1.038   4.511   1.062
 1204SOL    HW2 3631   0.993   4.395   0.957
 1205SOL     OW 3632   0.350   4.622   1.804
 1205SOL    HW1 3633   0.426   4.666   1.852
 1205SOL    HW2 3634   0.385   4.575   1.722
 1206SOL     OW 3635   1.540   3.998   0.125
 1206SOL    HW1 3636   1.479   3.923   0.148
 1206SOL    HW2 3637   1.562   4.050   0.208
 1207SOL     OW 3638   1.303   4.562   0.042
 1207SOL    HW1 3639   1.337   4.469   0.057
 1207SOL    HW2 3640   1.321   4.589  -0.053
 1208SOL     OW 3641   0.319   4.534   0.949
 1208SOL    HW1 3642   0.412   4.570   0.954
 1208SOL    HW2 3643   0.313   4.449   1.001
 1209SOL     OW 3644   0.339   4.233   1.006
 1209SOL    HW1 3645   0.287   4.150   0.989
 1209SOL    HW2 3646   0.416   4.238   0.942
 1210SOL     OW 3647   1.138   4.104   1.678
 1210SOL    HW1 3648   1.093   4.167   1.742
 1210SOL    HW2 3649   1.231   4.135   1.661
 1211SOL     OW 3650   1.160   3.931   1.477
 1211SOL    HW1 3651   1.160   3.995   1.554
 1211SOL    HW2 3652   1.188   3.979   1.394
 1212SOL     OW 3653   1.002   4.520   1.238
 1212SOL    HW1 3654   1.043   4.488   1.324
 1212SOL    HW2 3655   0.906   4.493   1.235
 1213SOL     OW 3656   0.040   4.268   1.114
 1213SOL    HW1 3657   0.125   4.235   1.073
 1213SOL    HW2 3658   0.053   4.283   1.212
 1214SOL     OW 3659   0.189   4.244   1.722
 1214SOL    HW1 3660   0.248   4.204   1.652
 1214SOL    HW2 3661   0.131   4.315   1.681
 1215SOL     OW 3662   1.369   4.674   1.660
 1215SOL    HW1 3663   1.408   4.763   1.680
 1215SOL    HW2 3664   1.379   4.654   1.563
 1216SOL     OW 3665   0.815   4.296   0.325
 1216SOL    HW1 3666   0.822   4.207   0.279
 1216SOL    HW2 3667   0.721   4.330   0.317
 1217SOL     OW 3668   1.657   4.328   1.206
 1217SOL    HW1 3669   1.619   4.259   1.268
 1217SOL    HW2 3670   1.739   4.292   1.162
 1218SOL     OW 3671   0.671   4.188   1.269
 1218SOL    HW1 3672   0.637   4.099   1.239
 1218SOL    HW2 3673   0.697   4.242   1.189
 1219SOL     OW 3674   0.473   4.224   0.191
 1219SOL    HW1 3675   0.534   4.304   0.195
 1219SOL    HW2 3676   0.378   4.255   0.198
 1220SOL     OW 3677   0.159   4.861   1.466
 1220SOL    HW1 3678   0.181   4.800   1.542
 1220SOL    HW2 3679   0.169   4.812   1.380
 1221SOL     OW 3680   1.347   4.783   1.234
 1221SOL    HW1 3681   1.371   4.720   1.160
 1221SOL    HW2 3682   1.257   4.823   1.216
 1222SOL     OW 3683   1.302   4.579   0.309
 1222SOL    HW1 3684   1.216   4.548   0.351
 1222SOL    HW2 3685   1.298   4.565   0.210
 1223SOL     OW 3686   0.083   4.982   1.022
 1223SOL    HW1 3687   0.078   4.981   1.122
 1223SOL    HW2 3688   0.000   4.941   0.984
 1224SOL     OW 3689   0.903   3.810   0.133
 1224SOL    HW1 3690   0.954   3.811   0.047
 1224SOL    HW2 3691   0.959   3.768   0.204
 1225SOL     OW 3692   1.726   3.859   0.523
 1225SOL    HW1 3693   1.799   3.842   0.456
 1225SOL    HW2 3694   1.695   3.772   0.561
 1226SOL     OW 3695   1.280   4.651   0.672
 1226SOL    HW1 3696   1.340   4.570   0.674
 1226SOL    HW2 3697   1.320   4.720   0.612
 1227SOL     OW 3698   1.841   3.899   0.963
 1227SOL    HW1 3699   1.880   3.814   0.927
 1227SOL    HW2 3700   1.743   3.901   0.944
 1228SOL     OW 3701   0.263   4.050   0.720
 1228SOL    HW1 3702   0.184   4.101   0.686
 1228SOL    HW2 3703   0.254   4.035   0.818
 1229SOL     OW 3704   0.822   4.726   1.372
 1229SOL    HW1 3705   0.862   4.725   1.280
 1229SOL    HW2 3706   0.832   4.818   1.412
 1230SOL     OW 3707   0.916   4.634   0.291
 1230SOL    HW1 3708   0.979   4.672   0.223
 1230SOL    HW2 3709   0.956   4.551   0.330
 1231SOL     OW 3710   0.372   5.012   1.490
 1231SOL    HW1 3711   0.359   5.105   1.456
 1231SOL    HW2 3712   0.288   4.960   1.477
 1232SOL     OW 3713   1.014   3.960   0.971
 1232SOL    HW1 3714   1.006   3.924   0.878
 1232SOL    HW2 3715   1.012   3.884   1.036
 1233SOL     OW 3716   1.709   4.109   1.381
 1233SOL    HW1 3717   1.782   4.178   1.385
 1233SOL    HW2 3718   1.737   4.034   1.322
 1234SOL     OW 3719   0.105   4.737   1.726
 1234SOL    HW1 3720   0.028   4.704   1.780
 1234SOL    HW2 3721   0.190   4.707   1.768
 1235SOL     OW 3722   0.672   3.927   1.489
 1235SOL    HW1 3723   0.762   3.911   1.449
 1235SOL    HW2 3724   0.680   3.932   1.588
 1236SOL     OW 3725   0.075   4.069   0.033
 1236SOL    HW1 3726  -0.017   4.041   0.004
 1236SOL    HW2 3727   0.106   4.146  -0.023
 1237SOL     OW 3728   1.440   4.580   1.398
 1237SOL    HW1 3729   1.383   4.632   1.335
 1237SOL    HW2 3730   1.536   4.592   1.374
 1238SOL     OW 3731   0.072   3.890   0.318
 1238SOL    HW1 3732   0.055   3.973   0.264
 1238SOL    HW2 3733   0.162   3.853   0.296
 1239SOL     OW 3734   1.183   5.059   0.119
 1239SOL    HW1 3735   1.084   5.048   0.121
 1239SOL    HW2 3736   1.217   5.074   0.212
 1240SOL     OW 3737   0.613   4.566   1.431
 1240SOL    HW1 3738   0.669   4.647   1.414
 1240SOL    HW2 3739   0.672   4.486   1.434
 1241SOL     OW 3740   0.716   4.289   1.708
 1241SOL    HW1 3741   0.735   4.354   1.782
 1241SOL    HW2 3742   0.776   4.209   1.717
 1242SOL     OW 3743   1.450   4.944   1.633
 1242SOL    HW1 3744   1.441   4.934   1.732
 1242SOL    HW2 3745   1.546   4.937   1.607
 1243SOL     OW 3746   1.674   4.607   1.254
 1243SOL    HW1 3747   1.647   4.518   1.217
 1243SOL    HW2 3748   1.675   4.675   1.181
 1244SOL     OW 3749   1.225   4.049   0.449
 1244SOL    HW1 3750   1.290   3.975   0.438
 1244SOL    HW2 3751   1.245   4.099   0.533
 1245SOL     OW 3752   0.594   4.469   0.652
 1245SOL    HW1 3753   0.644   4.554   0.633
 1245SOL    HW2 3754   0.506   4.471   0.604
 1246SOL     OW 3755   1.777   4.066   1.642
 1246SOL    HW1 3756   1.760   4.097   1.548
 1246SOL    HW2 3757   1.693   4.029   1.680
 1247SOL     OW 3758   1.730   4.658   1.517
 1247SOL    HW1 3759   1.768   4.749   1.532
 1247SOL    HW2 3760   1.722   4.641   1.418
 1248SOL     OW 3761   0.859   4.680   0.861
 1248SOL    HW1 3762   0.913   4.611   0.909
 1248SOL    HW2 3763   0.827   4.749   0.927
 1249SOL     OW 3764   1.083   4.708   0.087
 1249SOL    HW1 3765   1.060   4.761   0.005
 1249SOL    HW2 3766   1.164   4.652   0.068
 1250SOL     OW 3767   0.079   4.964   0.653
 1250SOL    HW1 3768   0.078   4.917   0.741
 1250SOL    HW2 3769   0.161   4.936   0.602
 1251SOL     OW 3770   1.824   3.916   1.227
 1251SOL    HW1 3771   1.820   3.826   1.271
 1251SOL    HW2 3772   1.827   3.905   1.128
 1252SOL     OW 3773   0.428   4.148   0.520
 1252SOL    HW1 3774   0.458   4.076   0.458
 1252SOL    HW2 3775   0.389   4.108   0.603
 1253SOL     OW 3776   0.317   4.271   1.280
 1253SOL    HW1 3777   0.355   4.212   1.352
 1253SOL    HW2 3778   0.357   4.245   1.192
 1254SOL     OW 3779   1.424   3.938   1.112
 1254SOL    HW1 3780   1.476   3.873   1.167
 1254SOL    HW2 3781   1.375   4.001   1.173
 1255SOL     OW 3782   1.001   3.758   1.154
 1255SOL    HW1 3783   0.938   3.686   1.123
 1255SOL    HW2 3784   1.094   3.722   1.154
 1256SOL     OW 3785   0.770   5.054   0.301
 1256SOL    HW1 3786   0.724   4.967   0.318
 1256SOL    HW2 3787   0.861   5.051   0.342
 1257SOL     OW 3788   1.352   3.776   0.168
 1257SOL    HW1 3789   1.387   3.735   0.084
 1257SOL    HW2 3790   1.262   3.738   0.188
 1258SOL     OW 3791   1.300   4.177   0.691
 1258SOL    HW1 3792   1.241   4.257   0.695
 1258SOL    HW2 3793   1.315   4.142   0.784
 1259SOL     OW 3794   1.593   3.945   0.882
 1259SOL    HW1 3795   1.509   3.944   0.936
 1259SOL    HW2 3796   1.595   4.028   0.826
 1260SOL     OW 3797   0.039   4.801   0.300
 1260SOL    HW1 3798   0.138   4.790   0.291
 1260SOL    HW2 3799  -0.001   4.715   0.332
 1261SOL     OW 3800   0.230   4.352   1.975
 1261SOL    HW1 3801   0.137   4.350   2.012
 1261SOL    HW2 3802   0.231   4.313   1.883
 1262SOL     OW 3803   0.225   3.999   2.858
 1262SOL    HW1 3804   0.260   3.982   2.950
 1262SOL    HW2 3805   0.137   3.954   2.846
 1263SOL     OW 3806   0.019   4.092   2.509
 1263SOL    HW1 3807  -0.063   4.135   2.548
 1263SOL    HW2 3808  -0.009   4.019   2.446
 1264SOL     OW 3809   1.135   4.427   2.579
 1264SOL    HW1 3810   1.192   4.505   2.554
 1264SOL    HW2 3811   1.075   4.453   2.655
 1265SOL     OW 3812   1.755   4.331   2.093
 1265SOL    HW1 3813   1.743   4.318   1.994
 1265SOL    HW2 3814   1.725   4.250   2.142
 1266SOL     OW 3815   0.768   4.868   2.885
 1266SOL    HW1 3816   0.690   4.885   2.945
 1266SOL    HW2 3817   0.802   4.955   2.849
 1267SOL     OW 3818   0.850   4.522   3.685
 1267SOL    HW1 3819   0.846   4.598   3.750
 1267SOL    HW2 3820   0.872   4.558   3.594
 1268SOL     OW 3821   0.685   4.736   2.527
 1268SOL    HW1 3822   0.754   4.720   2.597
 1268SOL    HW2 3823   0.612   4.793   2.565
 1269SOL     OW 3824   1.460   5.229   3.201
 1269SOL    HW1 3825   1.484   5.323   3.227
 1269SOL    HW2 3826   1.444   5.175   3.283
 1270SOL     OW 3827   0.438   4.116   3.361
 1270SOL    HW1 3828   0.520   4.060   3.370
 1270SOL    HW2 3829   0.357   4.058   3.365
 1271SOL     OW 3830   1.603   4.171   2.599
 1271SOL    HW1 3831   1.529   4.217   2.549
 1271SOL    HW2 3832   1.654   4.239   2.652
 1272SOL     OW 3833   0.240   4.815   2.748
 1272SOL    HW1 3834   0.254   4.731   2.800
 1272SOL    HW2 3835   0.185   4.879   2.803
 1273SOL     OW 3836   0.606   4.688   1.985
 1273SOL    HW1 3837   0.613   4.772   1.931
 1273SOL    HW2 3838   0.652   4.701   2.073
 1274SOL     OW 3839   1.594   3.838   3.342
 1274SOL    HW1 3840   1.576   3.905   3.270
 1274SOL    HW2 3841   1.591   3.884   3.431
 1275SOL     OW 3842   0.122   4.367   2.425
 1275SOL    HW1 3843   0.077   4.279   2.442
 1275SOL    HW2 3844   0.121   4.421   2.509
 1276SOL     OW 3845   1.689   4.646   2.474
 1276SOL    HW1 3846   1.784   4.617   2.482
 1276SOL    HW2 3847   1.681   4.711   2.399
 1277SOL     OW 3848   0.113   4.461   3.459
 1277SOL    HW1 3849   0.201   4.448   3.504
 1277SOL    HW2 3850   0.100   4.558   3.437
 1278SOL     OW 3851   0.613   5.089   2.588
 1278SOL    HW1 3852   0.564   5.002   2.597
 1278SOL    HW2 3853   0.590   5.132   2.501
 1279SOL     OW 3854   1.293   4.952   3.285
 1279SOL    HW1 3855   1.330   4.879   3.227
 1279SOL    HW2 3856   1.345   4.957   3.370
 1280SOL     OW 3857   0.809   3.728   2.364
 1280SOL    HW1 3858   0.849   3.819   2.355
 1280SOL    HW2 3859   0.709   3.736   2.370
 1281SOL     OW 3860   0.197   4.700   3.126
 1281SOL    HW1 3861   0.286   4.655   3.112
 1281SOL    HW2 3862   0.124   4.635   3.107
 1282SOL     OW 3863   1.525   4.723   2.052
 1282SOL    HW1 3864   1.462   4.647   2.065
 1282SOL    HW2 3865   1.573   4.741   2.138
 1283SOL     OW 3866   0.317   3.975   3.663
 1283SOL    HW1 3867   0.388   4.046   3.669
 1283SOL    HW2 3868   0.229   4.014   3.691
 1284SOL     OW 3869   0.598   4.453   2.132
 1284SOL    HW1 3870   0.622   4.522   2.064
 1284SOL    HW2 3871   0.520   4.486   2.186
 1285SOL     OW 3872   1.281   4.069   2.806
 1285SOL    HW1 3873   1.195   4.019   2.793
 1285SOL    HW2 3874   1.343   4.015   2.862
 1286SOL     OW 3875   0.807   4.329   3.327
 1286SOL    HW1 3876   0.760   4.326   3.416
 1286SOL    HW2 3877   0.756   4.274   3.261
 1287SOL     OW 3878   1.394   4.193   3.536
 1287SOL    HW1 3879   1.374   4.236   3.624
 1287SOL    HW2 3880   1.472   4.131   3.545
 1288SOL     OW 3881   0.973   4.614   3.434
 1288SOL    HW1 3882   1.019   4.530   3.405
 1288SOL    HW2 3883   0.917   4.648   3.359
 1289SOL     OW 3884   0.991   4.134   3.104
 1289SOL    HW1 3885   0.914   4.168   3.158
 1289SOL    HW2 3886   0.957   4.083   3.025
 1290SOL     OW 3887   1.041   4.425   2.291
 1290SOL    HW1 3888   1.067   4.421   2.387
 1290SOL    HW2 3889   0.956   4.374   2.277
 1291SOL     OW 3890   0.076   4.535   2.651
 1291SOL    HW1 3891   0.175   4.523   2.660
 1291SOL    HW2 3892   0.052   4.630   2.672
 1292SOL     OW 3893   0.865   4.072   2.057
 1292SOL    HW1 3894   0.924   4.135   2.008
 1292SOL    HW2 3895   0.884   3.978   2.028
 1293SOL     OW 3896   1.719   4.309   3.693
 1293SOL    HW1 3897   1.693   4.398   3.657
 1293SOL    HW2 3898   1.717   4.241   3.620
 1294SOL     OW 3899   0.550   3.920   2.747
 1294SOL    HW1 3900   0.545   3.915   2.847
 1294SOL    HW2 3901   0.552   4.016   2.718
 1295SOL     OW 3902   1.795   4.790   2.735
 1295SOL    HW1 3903   1.733   4.775   2.659
 1295SOL    HW2 3904   1.743   4.801   2.820
 1296SOL     OW 3905   0.321   4.667   2.104
 1296SOL    HW1 3906   0.403   4.706   2.062
 1296SOL    HW2 3907   0.294   4.585   2.055
 1297SOL     OW 3908   1.458   4.459   2.590
 1297SOL    HW1 3909   1.453   4.394   2.665
 1297SOL    HW2 3910   1.538   4.518   2.603
 1298SOL     OW 3911   0.202   4.009   3.360
 1298SOL    HW1 3912   0.122   4.069   3.347
 1298SOL    HW2 3913   0.192   3.960   3.446
 1299SOL     OW 3914   1.400   3.831   2.288
 1299SOL    HW1 3915   1.376   3.794   2.198
 1299SOL    HW2 3916   1.499   3.847   2.292
 1300SOL     OW 3917   0.382   4.424   2.342
 1300SOL    HW1 3918   0.427   4.334   2.339
 1300SOL    HW2 3919   0.288   4.413   2.375
 1301SOL     OW 3920   1.547   3.946   3.591
 1301SOL    HW1 3921   1.542   3.983   3.683
 1301SOL    HW2 3922   1.475   3.877   3.579
 1302SOL     OW 3923   0.614   3.846   1.979
 1302SOL    HW1 3924   0.712   3.824   1.986
 1302SOL    HW2 3925   0.583   3.829   1.886
 1303SOL     OW 3926   0.781   3.988   3.611
 1303SOL    HW1 3927   0.848   3.927   3.654
 1303SOL    HW2 3928   0.708   4.007   3.676
 1304SOL     OW 3929   1.351   4.314   3.295
 1304SOL    HW1 3930   1.379   4.271   3.380
 1304SOL    HW2 3931   1.376   4.410   3.296
 1305SOL     OW 3932   0.922   4.227   2.761
 1305SOL    HW1 3933   0.897   4.218   2.665
 1305SOL    HW2 3934   0.970   4.145   2.792
 1306SOL     OW 3935   0.539   3.788   2.374
 1306SOL    HW1 3936   0.458   3.789   2.432
 1306SOL    HW2 3937   0.542   3.871   2.319
 1307SOL     OW 3938   0.297   3.759   2.033
 1307SOL    HW1 3939   0.346   3.843   2.012
 1307SOL    HW2 3940   0.359   3.694   2.078
 1308SOL     OW 3941   0.935   3.960   2.342
 1308SOL    HW1 3942   0.887   4.001   2.264
 1308SOL    HW2 3943   1.034   3.958   2.323
 1309SOL     OW 3944   1.076   4.407   3.326
 1309SOL    HW1 3945   0.996   4.346   3.329
 1309SOL    HW2 3946   1.157   4.354   3.302
 1310SOL     OW 3947   0.459   4.876   2.603
 1310SOL    HW1 3948   0.388   4.849   2.668
 1310SOL    HW2 3949   0.433   4.848   2.510
 1311SOL     OW 3950   1.032   4.273   1.878
 1311SOL    HW1 3951   0.991   4.355   1.839
 1311SOL    HW2 3952   1.096   4.299   1.951
 1312SOL     OW 3953   0.078   4.280   3.248
 1312SOL    HW1 3954   0.170   4.279   3.207
 1312SOL    HW2 3955   0.072   4.354   3.315
 1313SOL     OW 3956   0.561   3.946   3.009
 1313SOL    HW1 3957   0.599   3.862   3.046
 1313SOL    HW2 3958   0.473   3.965   3.053
 1314SOL     OW 3959   0.866   4.178   2.504
 1314SOL    HW1 3960   0.834   4.250   2.442
 1314SOL    HW2 3961   0.890   4.097   2.451
 1315SOL     OW 3962   1.017   3.763   2.615
 1315SOL    HW1 3963   0.945   3.768   2.546
 1315SOL    HW2 3964   0.993   3.694   2.684
 1316SOL     OW 3965   1.429   4.897   2.729
 1316SOL    HW1 3966   1.374   4.813   2.722
 1316SOL    HW2 3967   1.455   4.926   2.637
 1317SOL     OW 3968   1.466   4.314   2.854
 1317SOL    HW1 3969   1.436   4.219   2.861
 1317SOL    HW2 3970   1.539   4.330   2.920
 1318SOL     OW 3971   1.857   4.557   2.239
 1318SOL    HW1 3972   1.899   4.493   2.303
 1318SOL    HW2 3973   1.819   4.506   2.161
 1319SOL     OW 3974   1.390   4.299   1.940
 1319SOL    HW1 3975   1.336   4.278   2.021
 1319SOL    HW2 3976   1.481   4.258   1.949
 1320SOL     OW 3977   0.527   3.980   2.190
 1320SOL    HW1 3978   0.554   3.921   2.115
 1320SOL    HW2 3979   0.527   4.075   2.159
 1321SOL     OW 3980   1.754   4.947   3.450
 1321SOL    HW1 3981   1.845   4.908   3.437
 1321SOL    HW2 3982   1.762   5.043   3.474
 1322SOL     OW 3983   1.638   4.823   2.941
 1322SOL    HW1 3984   1.643   4.904   3.000
 1322SOL    HW2 3985   1.552   4.825   2.890
 1323SOL     OW 3986   0.915   3.813   3.264
 1323SOL    HW1 3987   0.940   3.793   3.169
 1323SOL    HW2 3988   0.987   3.869   3.306
 1324SOL     OW 3989   0.705   4.774   2.230
 1324SOL    HW1 3990   0.691   4.781   2.329
 1324SOL    HW2 3991   0.789   4.723   2.212
 1325SOL     OW 3992   0.410   4.537   3.113
 1325SOL    HW1 3993   0.496   4.549   3.163
 1325SOL    HW2 3994   0.368   4.450   3.140
 1326SOL     OW 3995   1.274   4.110   3.124
 1326SOL    HW1 3996   1.295   4.184   3.188
 1326SOL    HW2 3997   1.185   4.127   3.081
 1327SOL     OW 3998   0.367   4.824   2.363
 1327SOL    HW1 3999   0.360   4.907   2.307
 1327SOL    HW2 4000   0.371   4.744   2.303
 1328SOL     OW 4001   0.566   4.261   2.727
 1328SOL    HW1 4002   0.578   4.327   2.653
 1328SOL    HW2 4003   0.612   4.295   2.810
 1329SOL     OW 4004   1.582   4.363   2.334
 1329SOL    HW1 4005   1.551   4.424   2.407
 1329SOL    HW2 4006   1.632   4.415   2.265
 1330SOL     OW 4007   0.402   4.475   3.460
 1330SOL    HW1 4008   0.470   4.530   3.413
 1330SOL    HW2 4009   0.442   4.387   3.487
 1331SOL     OW 4010   1.587   4.503   3.532
 1331SOL    HW1 4011   1.495   4.541   3.527
 1331SOL    HW2 4012   1.647   4.550   3.467
 1332SOL     OW 4013   1.013   3.829   3.632
 1332SOL    HW1 4014   1.019   3.914   3.580
 1332SOL    HW2 4015   1.045   3.753   3.575
 1333SOL     OW 4016   0.504   3.774   3.602
 1333SOL    HW1 4017   0.462   3.717   3.532
 1333SOL    HW2 4018   0.438   3.843   3.634
 1334SOL     OW 4019   0.573   4.594   2.891
 1334SOL    HW1 4020   0.617   4.683   2.882
 1334SOL    HW2 4021   0.510   4.594   2.968
 1335SOL     OW 4022   1.360   4.586   2.907
 1335SOL    HW1 4023   1.285   4.586   2.841
 1335SOL    HW2 4024   1.397   4.494   2.916
 1336SOL     OW 4025   1.209   4.249   2.137
 1336SOL    HW1 4026   1.222   4.165   2.191
 1336SOL    HW2 4027   1.180   4.323   2.197
 1337SOL     OW 4028   0.307   3.937   3.093
 1337SOL    HW1 4029   0.284   3.974   3.183
 1337SOL    HW2 4030   0.277   3.842   3.087
 1338SOL     OW 4031   0.037   5.034   3.144
 1338SOL    HW1 4032   0.090   4.985   3.212
 1338SOL    HW2 4033   0.059   5.132   3.149
 1339SOL     OW 4034   0.732   4.358   2.926
 1339SOL    HW1 4035   0.791   4.332   2.850
 1339SOL    HW2 4036   0.704   4.454   2.915
 1340SOL     OW 4037   1.728   4.659   3.716
 1340SOL    HW1 4038   1.682   4.652   3.627
 1340SOL    HW2 4039   1.666   4.703   3.782
 1341SOL     OW 4040   0.307   3.787   2.480
 1341SOL    HW1 4041   0.296   3.881   2.513
 1341SOL    HW2 4042   0.302   3.724   2.557
 1342SOL     OW 4043   1.622   4.091   2.236
 1342SOL    HW1 4044   1.624   4.015   2.300
 1342SOL    HW2 4045   1.574   4.168   2.276
 1343SOL     OW 4046   1.023   4.490   2.828
 1343SOL    HW1 4047   1.038   4.511   2.924
 1343SOL    HW2 4048   0.993   4.395   2.819
 1344SOL     OW 4049   0.350   4.622   3.666
 1344SOL    HW1 4050   0.426   4.666   3.714
 1344SOL    HW2 4051   0.385   4.575   3.584
 1345SOL     OW 4052   1.540   3.998   1.987
 1345SOL    HW1 4053   1.479   3.923   2.010
 1345SOL    HW2 4054   1.562   4.050   2.070
 1346SOL     OW 4055   1.303   4.562   1.904
 1346SOL    HW1 4056   1.337   4.469   1.919
 1346SOL    HW2 4057   1.321   4.589   1.809
 1347SOL     OW 4058   0.319   4.534   2.811
 1347SOL    HW1 4059   0.412   4.570   2.816
 1347SOL    HW2 4060   0.313   4.449   2.863
 1348SOL     OW 4061   0.339   4.233   2.868
 1348SOL    HW1 4062   0.287   4.150   2.851
 1348SOL    HW2 4063   0.416   4.238   2.804
 1349SOL     OW 4064   1.138   4.104   3.540
 1349SOL    HW1 4065   1.093   4.167   3.604
 1349SOL    HW2 4066   1.231   4.135   3.523
 1350SOL     OW 4067   1.160   3.931   3.339
 1350SOL    HW1 4068   1.160   3.995   3.416
 1350SOL    HW2 4069   1.188   3.979   3.256
 1351SOL     OW 4070   1.002   4.520   3.100
 1351SOL    HW1 4071   1.043   4.488   3.186
 1351SOL    HW2 4072   0.906   4.493   3.097
 1352SOL     OW 4073   0.040   4.268   2.976
 1352SOL    HW1 4074   0.125   4.235   2.935
 1352SOL    HW2 4075   0.053   4.283   3.074
 1353SOL     OW 4076   0.189   4.244   3.584
 1353SOL    HW1 4077   0.248   4.204   3.514
 1353SOL    HW2 4078   0.131   4.315   3.543
 1354SOL     OW 4079   1.369   4.674   3.522
 1354SOL    HW1 4080   1.408   4.763   3.542
 1354SOL    HW2 4081   1.379   4.654   3.425
 1355SOL     OW 4082   0.815   4.296   2.187
 1355SOL    HW1 4083   0.822   4.207   2.141
 1355SOL    HW2 4084   0.721   4.330   2.179
 1356SOL     OW 4085   1.657   4.328   3.068
 1356SOL    HW1 4086   1.619   4.259   3.130
 1356SOL    HW2 4087   1.739   4.292   3.024
 1357SOL     OW 4088   0.671   4.188   3.131
 1357SOL    HW1 4089   0.637   4.099   3.101
 1357SOL    HW2 4090   0.697   4.242   3.051
 1358SOL     OW 4091   0.473   4.224   2.053
 1358SOL    HW1 4092   0.534   4.304   2.057
 1358SOL    HW2 4093   0.378   4.255   2.060
 1359SOL     OW 4094   0.159   4.861   3.328
 1359SOL    HW1 4095   0.181   4.800   3.404
 1359SOL    HW2 4096   0.169   4.812   3.242
 1360SOL     OW 4097   1.347   4.783   3.096
 1360SOL    HW1 4098   1.371   4.720   3.022
 1360SOL    HW2 4099   1.257   4.823   3.078
 1361SOL     OW 4100   1.302   4.579   2.171
 1361SOL    HW1 4101   1.216   4.548   2.213
 1361SOL    HW2 4102   1.298   4.565   2.072
 1362SOL     OW 4103   0.083   4.982   2.884
 1362SOL    HW1 4104   0.078   4.981   2.984
 1362SOL    HW2 4105   0.000   4.941   2.846
 1363SOL     OW 4106   1.726   3.859   2.385
 1363SOL    HW1 4107   1.799   3.842   2.318
 1363SOL    HW2 4108   1.695   3.772   2.423
 1364SOL     OW 4109   1.280   4.651   2.534
 1364SOL    HW1 4110   1.340   4.570   2.536
 1364SOL    HW2 4111   1.320   4.720   2.474
 1365SOL     OW 4112   1.841   3.899   2.825
 1365SOL    HW1 4113   1.880   3.814   2.789
 1365SOL    HW2 4114   1.743   3.901   2.806
 1366SOL     OW 4115   0.263   4.050   2.582
 1366SOL    HW1 4116   0.184   4.101   2.548
 1366SOL    HW2 4117   0.254   4.035   2.680
 1367SOL     OW 4118   0.822   4.726   3.234
 1367SOL    HW1 4119   0.862   4.725   3.142
 1367SOL    HW2 4120   0.832   4.818   3.274
 1368SOL     OW 4121   0.916   4.634   2.153
 1368SOL    HW1 4122   0.979   4.672   2.085
 1368SOL    HW2 4123   0.956   4.551   2.192
 1369SOL     OW 4124   0.372   5.012   3.352
 1369SOL    HW1 4125   0.359   5.105   3.318
 1369SOL    HW2 4126   0.288   4.960   3.339
 1370SOL     OW 4127   1.014   3.960   2.833
 1370SOL    HW1 4128   1.006   3.924   2.740
 1370SOL    HW2 4129   1.012   3.884   2.898
 1371SOL     OW 4130   1.709   4.109   3.243
 1371SOL    HW1 4131   1.782   4.178   3.247
 1371SOL    HW2 4132   1.737   4.034   3.184
 1372SOL     OW 4133   0.105   4.737   3.588
 1372SOL    HW1 4134   0.028   4.704   3.642
 1372SOL    HW2 4135   0.190   4.707   3.630
 1373SOL     OW 4136   0.672   3.927   3.351
 1373SOL    HW1 4137   0.762   3.911   3.311
 1373SOL    HW2 4138   0.680   3.932   3.450
 1374SOL     OW 4139   0.075   4.069   1.895
 1374SOL    HW1 4140  -0.017   4.041   1.866
 1374SOL    HW2 4141   0.106   4.146   1.839
 1375SOL     OW 4142   1.440   4.580   3.260
 1375SOL    HW1 4143   1.383   4.632   3.197
 1375SOL    HW2 4144   1.536   4.592   3.236
 1376SOL     OW 4145   0.072   3.890   2.180
 1376SOL    HW1 4146   0.055   3.973   2.126
 1376SOL    HW2 4147   0.162   3.853   2.158
 1377SOL     OW 4148   1.183   5.059   1.981
 1377SOL    HW1 4149   1.084   5.048   1.983
 1377SOL    HW2 4150   1.217   5.074   2.074
 1378SOL     OW 4151   0.613   4.566   3.293
 1378SOL    HW1 4152   0.669   4.647   3.276
 1378SOL    HW2 4153   0.672   4.486   3.296
 1379SOL     OW 4154   0.716   4.289   3.570
 1379SOL    HW1 4155   0.735   4.354   3.644
 1379SOL    HW2 4156   0.776   4.209   3.579
 1380SOL     OW 4157   1.450   4.944   3.495
 1380SOL    HW1 4158   1.441   4.934   3.594
 1380SOL    HW2 4159   1.546   4.937   3.469
 1381SOL     OW 4160   1.674   4.607   3.116
 1381SOL    HW1 4161   1.647   4.518   3.079
 1381SOL    HW2 4162   1.675   4.675   3.043
 1382SOL     OW 4163   1.225   4.049   2.311
 1382SOL    HW1 4164   1.290   3.975   2.300
 1382SOL    HW2 4165   1.245   4.099   2.395
 1383SOL     OW 4166   0.594   4.469   2.514
 1383SOL    HW1 4167   0.644   4.554   2.495
 1383SOL    HW2 4168   0.506   4.471   2.466
 1384SOL     OW 4169   1.777   4.066   3.504
 1384SOL    HW1 4170   1.760   4.097   3.410
 1384SOL    HW2 4171   1.693   4.029   3.542
 1385SOL     OW 4172   1.730   4.658   3.379
 1385SOL    HW1 4173   1.768   4.749   3.394
 1385SOL    HW2 4174   1.722   4.641   3.280
 1386SOL     OW 4175   0.859   4.680   2.723
 1386SOL    HW1 4176   0.913   4.611   2.771
 1386SOL    HW2 4177   0.827   4.749   2.789
 1387SOL     OW 4178   1.083   4.708   1.949
 1387SOL    HW1 4179   1.060   4.761   1.867
 1387SOL    HW2 4180   1.164   4.652   1.930
 1388SOL     OW 4181   0.079   4.964   2.515
 1388SOL    HW1 4182   0.078   4.917   2.603
 1388SOL    HW2 4183   0.161   4.936   2.464
 1389SOL     OW 4184   1.824   3.916   3.089
 1389SOL    HW1 4185   1.820   3.826   3.133
 1389SOL    HW2 4186   1.827   3.905   2.990
 1390SOL     OW 4187   0.428   4.148   2.382
 1390SOL    HW1 4188   0.458   4.076   2.320
 1390SOL    HW2 4189   0.389   4.108   2.465
 1391SOL     OW 4190   0.317   4.271   3.142
 1391SOL    HW1 4191   0.355   4.212   3.214
 1391SOL    HW2 4192   0.357   4.245   3.054
 1392SOL     OW 4193   1.424   3.938   2.974
 1392SOL    HW1 4194   1.476   3.873   3.029
 1392SOL    HW2 4195   1.375   4.001   3.035
 1393SOL     OW 4196   1.001   3.758   3.016
 1393SOL    HW1 4197   0.938   3.686   2.985
 1393SOL    HW2 4198   1.094   3.722   3.016
 1394SOL     OW 4199   0.770   5.054   2.163
 1394SOL    HW1 4200   0.724   4.967   2.180
 1394SOL    HW2 4201   0.861   5.051   2.204
 1395SOL     OW 4202   1.352   3.776   2.030
 1395SOL    HW1 4203   1.387   3.735   1.946
 1395SOL    HW2 4204   1.262   3.738   2.050
 1396SOL     OW 4205   1.300   4.177   2.553
 1396SOL    HW1 4206   1.241   4.257   2.557
 1396SOL    HW2 4207   1.315   4.142   2.646
 1397SOL     OW 4208   1.593   3.945   2.744
 1397SOL    HW1 4209   1.509   3.944   2.798
 1397SOL    HW2 4210   1.595   4.028   2.688
 1398SOL     OW 4211   0.039   4.801   2.162
 1398SOL    HW1 4212   0.138   4.790   2.153
 1398SOL    HW2 4213  -0.001   4.715   2.194
 1399SOL     OW 4214   0.230   4.352   3.837
 1399SOL    HW1 4215   0.137   4.350   3.874
 1399SOL    HW2 4216   0.231   4.313   3.745
 1400SOL     OW 4217   0.225   3.999   4.720
 1400SOL    HW1 4218   0.260   3.982   4.812
 1400SOL    HW2 4219   0.137   3.954   4.708
 1401SOL     OW 4220   0.019   4.092   4.371
 1401SOL    HW1 4221  -0.063   4.135   4.410
 1401SOL    HW2 4222  -0.009   4.019   4.308
 1402SOL     OW 4223   1.135   4.427   4.441
 1402SOL    HW1 4224   1.192   4.505   4.416
 1402SOL    HW2 4225   1.075   4.453   4.517
 1403SOL     OW 4226   1.755   4.331   3.955
 1403SOL    HW1 4227   1.743   4.318   3.856
 1403SOL    HW2 4228   1.725   4.250   4.004
 1404SOL     OW 4229   0.768   4.868   4.747
 1404SOL    HW1 4230   0.690   4.885   4.807
 1404SOL    HW2 4231   0.802   4.955   4.711
 1405SOL     OW 4232   0.685   4.736   4.389
 1405SOL    HW1 4233   0.754   4.720   4.459
 1405SOL    HW2 4234   0.612   4.793   4.427
 1406SOL     OW 4235   1.603   4.171   4.461
 1406SOL    HW1 4236   1.529   4.217   4.411
 1406SOL    HW2 4237   1.654   4.239   4.514
 1407SOL     OW 4238   0.240   4.815   4.610
 1407SOL    HW1 4239   0.254   4.731   4.662
 1407SOL    HW2 4240   0.185   4.879   4.665
 1408SOL     OW 4241   0.606   4.688   3.847
 1408SOL    HW1 4242   0.613   4.772   3.793
 1408SOL    HW2 4243   0.652   4.701   3.935
 1409SOL     OW 4244   0.122   4.367   4.287
 1409SOL    HW1 4245   0.077   4.279   4.304
 1409SOL    HW2 4246   0.121   4.421   4.371
 1410SOL     OW 4247   1.689   4.646   4.336
 1410SOL    HW1 4248   1.784   4.617   4.344
 1410SOL    HW2 4249   1.681   4.711   4.261
 1411SOL     OW 4250   0.613   5.089   4.450
 1411SOL    HW1 4251   0.564   5.002   4.459
 1411SOL    HW2 4252   0.590   5.132   4.363
 1412SOL     OW 4253   0.809   3.728   4.226
 1412SOL    HW1 4254   0.849   3.819   4.217
 1412SOL    HW2 4255   0.709   3.736   4.232
 1413SOL     OW 4256   0.197   4.700   4.988
 1413SOL    HW1 4257   0.286   4.655   4.974
 1413SOL    HW2 4258   0.124   4.635   4.969
 1414SOL     OW 4259   1.525   4.723   3.914
 1414SOL    HW1 4260   1.462   4.647   3.927
 1414SOL    HW2 4261   1.573   4.741   4.000
 1415SOL     OW 4262   0.598   4.453   3.994
 1415SOL    HW1 4263   0.622   4.522   3.926
 1415SOL    HW2 4264   0.520   4.486   4.048
 1416SOL     OW 4265   1.281   4.069   4.668
 1416SOL    HW1 4266   1.195   4.019   4.655
 1416SOL    HW2 4267   1.343   4.015   4.724
 1417SOL     OW 4268   1.041   4.425   4.153
 1417SOL    HW1 4269   1.067   4.421   4.249
 1417SOL    HW2 4270   0.956   4.374   4.139
 1418SOL     OW 4271   0.076   4.535   4.513
 1418SOL    HW1 4272   0.175   4.523   4.522
 1418SOL    HW2 4273   0.052   4.630   4.534
 1419SOL     OW 4274   0.865   4.072   3.919
 1419SOL    HW1 4275   0.924   4.135   3.870
 1419SOL    HW2 4276   0.884   3.978   3.890
 1420SOL     OW 4277   0.550   3.920   4.609
 1420SOL    HW1 4278   0.545   3.915   4.709
 1420SOL    HW2 4279   0.552   4.016   4.580
 1421SOL     OW 4280   1.795   4.790   4.597
 1421SOL    HW1 4281   1.733   4.775   4.521
 1421SOL    HW2 4282   1.743   4.801   4.682
 1422SOL     OW 4283   0.321   4.667   3.966
 1422SOL    HW1 4284   0.403   4.706   3.924
 1422SOL    HW2 4285   0.294   4.585   3.917
 1423SOL     OW 4286   1.458   4.459   4.452
 1423SOL    HW1 4287   1.453   4.394   4.527
 1423SOL    HW2 4288   1.538   4.518   4.465
 1424SOL     OW 4289   1.400   3.831   4.150
 1424SOL    HW1 4290   1.376   3.794   4.060
 1424SOL    HW2 4291   1.499   3.847   4.154
 1425SOL     OW 4292   0.382   4.424   4.204
 1425SOL    HW1 4293   0.427   4.334   4.201
 1425SOL    HW2 4294   0.288   4.413   4.237
 1426SOL     OW 4295   0.614   3.846   3.841
 1426SOL    HW1 4296   0.712   3.824   3.848
 1426SOL    HW2 4297   0.583   3.829   3.748
 1427SOL     OW 4298   0.888   5.238   4.919
 1427SOL    HW1 4299   0.865   5.213   4.825
 1427SOL    HW2 4300   0.949   5.169   4.958
 1428SOL     OW 4301   0.922   4.227   4.623
 1428SOL    HW1 4302   0.897   4.218   4.527
 1428SOL    HW2 4303   0.970   4.145   4.654
 1429SOL     OW 4304   0.539   3.788   4.236
 1429SOL    HW1 4305   0.458   3.789   4.294
 1429SOL    HW2 4306   0.542   3.871   4.181
 1430SOL     OW 4307   0.297   3.759   3.895
 1430SOL    HW1 4308   0.346   3.843   3.874
 1430SOL    HW2 4309   0.359   3.694   3.940
 1431SOL     OW 4310   0.935   3.960   4.204
 1431SOL    HW1 4311   0.887   4.001   4.126
 1431SOL    HW2 4312   1.034   3.958   4.185
 1432SOL     OW 4313   0.459   4.876   4.465
 1432SOL    HW1 4314   0.388   4.849   4.530
 1432SOL    HW2 4315   0.433   4.848   4.372
 1433SOL     OW 4316   1.032   4.273   3.740
 1433SOL    HW1 4317   0.991   4.355   3.701
 1433SOL    HW2 4318   1.096   4.299   3.813
 1434SOL     OW 4319   0.866   4.178   4.366
 1434SOL    HW1 4320   0.834   4.250   4.304
 1434SOL    HW2 4321   0.890   4.097   4.313
 1435SOL     OW 4322   1.017   3.763   4.477
 1435SOL    HW1 4323   0.945   3.768   4.408
 1435SOL    HW2 4324   0.993   3.694   4.546
 1436SOL     OW 4325   1.429   4.897   4.591
 1436SOL    HW1 4326   1.374   4.813   4.584
 1436SOL    HW2 4327   1.455   4.926   4.499
 1437SOL     OW 4328   1.466   4.314   4.716
 1437SOL    HW1 4329   1.436   4.219   4.723
 1437SOL    HW2 4330   1.539   4.330   4.782
 1438SOL     OW 4331   1.857   4.557   4.101
 1438SOL    HW1 4332   1.899   4.493   4.165
 1438SOL    HW2 4333   1.819   4.506   4.023
 1439SOL     OW 4334   1.390   4.299   3.802
 1439SOL    HW1 4335   1.336   4.278   3.883
 1439SOL    HW2 4336   1.481   4.258   3.811
 1440SOL     OW 4337   0.527   3.980   4.052
 1440SOL    HW1 4338   0.554   3.921   3.977
 1440SOL    HW2 4339   0.527   4.075   4.021
 1441SOL     OW 4340   1.111   4.919   4.824
 1441SOL    HW1 4341   1.071   4.963   4.905
 1441SOL    HW2 4342   1.070   4.956   4.741
 1442SOL     OW 4343   1.638   4.823   4.803
 1442SOL    HW1 4344   1.643   4.904   4.862
 1442SOL    HW2 4345   1.552   4.825   4.752
 1443SOL     OW 4346   0.705   4.774   4.092
 1443SOL    HW1 4347   0.691   4.781   4.191
 1443SOL    HW2 4348   0.789   4.723   4.074
 1444SOL     OW 4349   0.410   4.537   4.975
 1444SOL    HW1 4350   0.496   4.549   5.025
 1444SOL    HW2 4351   0.368   4.450   5.002
 1445SOL     OW 4352   0.367   4.824   4.225
 1445SOL    HW1 4353   0.360   4.907   4.169
 1445SOL    HW2 4354   0.371   4.744   4.165
 1446SOL     OW 4355   0.566   4.261   4.589
 1446SOL    HW1 4356   0.578   4.327   4.515
 1446SOL    HW2 4357   0.612   4.295   4.672
 1447SOL     OW 4358   1.582   4.363   4.196
 1447SOL    HW1 4359   1.551   4.424   4.269
 1447SOL    HW2 4360   1.632   4.415   4.127
 1448SOL     OW 4361   0.573   4.594   4.753
 1448SOL    HW1 4362   0.617   4.683   4.744
 1448SOL    HW2 4363   0.510   4.594   4.830
 1449SOL     OW 4364   1.209   4.249   3.999
 1449SOL    HW1 4365   1.222   4.165   4.053
 1449SOL    HW2 4366   1.180   4.323   4.059
 1450SOL     OW 4367   0.307   3.937   4.955
 1450SOL    HW1 4368   0.284   3.974   5.045
 1450SOL    HW2 4369   0.277   3.842   4.949
 1451SOL     OW 4370   0.732   4.358   4.788
 1451SOL    HW1 4371   0.791   4.332   4.712
 1451SOL    HW2 4372   0.704   4.454   4.777
 1452SOL     OW 4373   0.307   3.787   4.342
 1452SOL    HW1 4374   0.296   3.881   4.375
 1452SOL    HW2 4375   0.302   3.724   4.419
 1453SOL     OW 4376   1.622   4.091   4.098
 1453SOL    HW1 4377   1.624   4.015   4.162
 1453SOL    HW2 4378   1.574   4.168   4.138
 1454SOL     OW 4379   1.023   4.490   4.690
 1454SOL    HW1 4380   1.038   4.511   4.786
 1454SOL    HW2 4381   0.993   4.395   4.681
 1455SOL     OW 4382   1.540   3.998   3.849
 1455SOL    HW1 4383   1.479   3.923   3.872
 1455SOL    HW2 4384   1.562   4.050   3.932
 1456SOL     OW 4385   1.303   4.562   3.766
 1456SOL    HW1 4386   1.337   4.469   3.781
 1456SOL    HW2 4387   1.321   4.589   3.671
 1457SOL     OW 4388   0.319   4.534   4.673
 1457SOL    HW1 4389   0.412   4.570   4.678
 1457SOL    HW2 4390   0.313   4.449   4.725
 1458SOL     OW 4391   0.339   4.233   4.730
 1458SOL    HW1 4392   0.287   4.150   4.713
 1458SOL    HW2 4393   0.416   4.238   4.666
 1459SOL     OW 4394   1.002   4.520   4.962
 1459SOL    HW1 4395   1.043   4.488   5.048
 1459SOL    HW2 4396   0.906   4.493   4.959
 1460SOL     OW 4397   0.815   4.296   4.049
 1460SOL    HW1 4398   0.822   4.207   4.003
 1460SOL    HW2 4399   0.721   4.330   4.041
 1461SOL     OW 4400   1.657   4.328   4.930
 1461SOL    HW1 4401   1.619   4.259   4.992
 1461SOL    HW2 4402   1.739   4.292   4.886
 1462SOL     OW 4403   0.671   4.188   4.993
 1462SOL    HW1 4404   0.637   4.099   4.963
 1462SOL    HW2 4405   0.697   4.242   4.913
 1463SOL     OW 4406   0.473   4.224   3.915
 1463SOL    HW1 4407   0.534   4.304   3.919
 1463SOL    HW2 4408   0.378   4.255   3.922
 1464SOL     OW 4409   1.347   4.783   4.958
 1464SOL    HW1 4410   1.371   4.720   4.884
 1464SOL    HW2 4411   1.257   4.823   4.940
 1465SOL     OW 4412   1.302   4.579   4.033
 1465SOL    HW1 4413   1.216   4.548   4.075
 1465SOL    HW2 4414   1.298   4.565   3.934
 1466SOL     OW 4415   0.083   4.982   4.746
 1466SOL    HW1 4416   0.078   4.981   4.846
 1466SOL    HW2 4417   0.000   4.941   4.708
 1467SOL     OW 4418   1.726   3.859   4.247
 1467SOL    HW1 4419   1.799   3.842   4.180
 1467SOL    HW2 4420   1.695   3.772   4.285
 1468SOL     OW 4421   1.280   4.651   4.396
 1468SOL    HW1 4422   1.340   4.570   4.398
 1468SOL    HW2 4423   1.320   4.720   4.336
 1469SOL     OW 4424   1.841   3.899   4.687
 1469SOL    HW1 4425   1.880   3.814   4.651
 1469SOL    HW2 4426   1.743   3.901   4.668
 1470SOL     OW 4427   0.263   4.050   4.444
 1470SOL    HW1 4428   0.184   4.101   4.410
 1470SOL    HW2 4429   0.254   4.035   4.542
 1471SOL     OW 4430   0.822   4.726   5.096
 1471SOL    HW1 4431   0.862   4.725   5.004
 1471SOL    HW2 4432   0.832   4.818   5.136
 1472SOL     OW 4433   0.916   4.634   4.015
 1472SOL    HW1 4434   0.979   4.672   3.947
 1472SOL    HW2 4435   0.956   4.551   4.054
 1473SOL     OW 4436   1.014   3.960   4.695
 1473SOL    HW1 4437   1.006   3.924   4.602
 1473SOL    HW2 4438   1.012   3.884   4.760
 1474SOL     OW 4439   0.075   4.069   3.757
 1474SOL    HW1 4440  -0.017   4.041   3.728
 1474SOL    HW2 4441   0.106   4.146   3.701
 1475SOL     OW 4442   0.072   3.890   4.042
 1475SOL    HW1 4443   0.055   3.973   3.988
 1475SOL    HW2 4444   0.162   3.853   4.020
 1476SOL     OW 4445   1.183   5.059   3.843
 1476SOL    HW1 4446   1.084   5.048   3.845
 1476SOL    HW2 4447   1.217   5.074   3.936
 1477SOL     OW 4448   1.674   4.607   4.978
 1477SOL    HW1 4449   1.647   4.518   4.941
 1477SOL    HW2 4450   1.675   4.675   4.905
 1478SOL     OW 4451   1.225   4.049   4.173
 1478SOL    HW1 4452   1.290   3.975   4.162
 1478SOL    HW2 4453   1.245   4.099   4.257
 1479SOL     OW 4454   0.594   4.469   4.376
 1479SOL    HW1 4455   0.644   4.554   4.357
 1479SOL    HW2 4456   0.506   4.471   4.328
 1480SOL     OW 4457   1.730   4.658   5.241
 1480SOL    HW1 4458   1.768   4.749   5.256
 1480SOL    HW2 4459   1.722   4.641   5.142
 1481SOL     OW 4460   0.859   4.680   4.585
 1481SOL    HW1 4461   0.913   4.611   4.633
 1481SOL    HW2 4462   0.827   4.749   4.651
 1482SOL     OW 4463   1.083   4.708   3.811
 1482SOL    HW1 4464   1.060   4.761   3.729
 1482SOL    HW2 4465   1.164   4.652   3.792
 1483SOL     OW 4466   0.079   4.964   4.377
 1483SOL    HW1 4467   0.078   4.917   4.465
 1483SOL    HW2 4468   0.161   4.936   4.326
 1484SOL     OW 4469   1.824   3.916   4.951
 1484SOL    HW1 4470   1.820   3.826   4.995
 1484SOL    HW2 4471   1.827   3.905   4.852
 1485SOL     OW 4472   0.428   4.148   4.244
 1485SOL    HW1 4473   0.458   4.076   4.182
 1485SOL    HW2 4474   0.389   4.108   4.327
 1486SOL     OW 4475   1.424   3.938   4.836
 1486SOL    HW1 4476   1.476   3.873   4.891
 1486SOL    HW2 4477   1.375   4.001   4.897
 1487SOL     OW 4478   0.770   5.054   4.025
 1487SOL    HW1 4479   0.724   4.967   4.042
 1487SOL    HW2 4480   0.861   5.051   4.066
 1488SOL     OW 4481   1.352   3.776   3.892
 1488SOL    HW1 4482   1.387   3.735   3.808
 1488SOL    HW2 4483   1.262   3.738   3.912
 1489SOL     OW 4484   1.300   4.177   4.415
 1489SOL    HW1 4485   1.241   4.257   4.419
 1489SOL    HW2 4486   1.315   4.142   4.508
 1490SOL     OW 4487   1.593   3.945   4.606
 1490SOL    HW1 4488   1.509   3.944   4.660
 1490SOL    HW2 4489   1.595   4.028   4.550
 1491SOL     OW 4490   0.039   4.801   4.024
 1491SOL    HW1 4491   0.138   4.790   4.015
 1491SOL    HW2 4492  -0.001   4.715   4.056
 1492SOL     OW 4493   2.092   0.628   0.113
 1492SOL    HW1 4494   1.999   0.626   0.150
 1492SOL    HW2 4495   2.093   0.589   0.021
 1493SOL     OW 4496   2.087   0.275   0.996
 1493SOL    HW1 4497   2.122   0.258   1.088
 1493SOL    HW2 4498   1.999   0.230   0.984
 1494SOL     OW 4499   1.881   0.368   0.647
 1494SOL    HW1 4500   1.799   0.411   0.686
 1494SOL    HW2 4501   1.853   0.295   0.584
 1495SOL     OW 4502   2.431   1.275   1.165
 1495SOL    HW1 4503   2.338   1.268   1.128
 1495SOL    HW2 4504   2.442   1.364   1.209
 1496SOL     OW 4505   3.417   1.511   0.703
 1496SOL    HW1 4506   3.360   1.495   0.784
 1496SOL    HW2 4507   3.358   1.521   0.623
 1497SOL     OW 4508   2.997   0.703   0.717
 1497SOL    HW1 4509   3.054   0.781   0.692
 1497SOL    HW2 4510   2.937   0.729   0.793
 1498SOL     OW 4511   3.617   0.607   0.231
 1498SOL    HW1 4512   3.605   0.594   0.132
 1498SOL    HW2 4513   3.587   0.526   0.280
 1499SOL     OW 4514   2.630   1.144   1.023
 1499SOL    HW1 4515   2.552   1.161   1.083
 1499SOL    HW2 4516   2.664   1.231   0.987
 1500SOL     OW 4517   2.712   0.798   1.823
 1500SOL    HW1 4518   2.708   0.874   1.888
 1500SOL    HW2 4519   2.734   0.834   1.732
 1501SOL     OW 4520   2.547   1.012   0.665
 1501SOL    HW1 4521   2.616   0.996   0.735
 1501SOL    HW2 4522   2.474   1.069   0.703
 1502SOL     OW 4523   2.548   1.161   1.803
 1502SOL    HW1 4524   2.608   1.240   1.817
 1502SOL    HW2 4525   2.462   1.192   1.762
 1503SOL     OW 4526   2.197   1.435   1.061
 1503SOL    HW1 4527   2.119   1.404   1.008
 1503SOL    HW2 4528   2.255   1.493   1.004
 1504SOL     OW 4529   3.322   1.505   1.339
 1504SOL    HW1 4530   3.346   1.599   1.365
 1504SOL    HW2 4531   3.306   1.451   1.421
 1505SOL     OW 4532   2.300   0.392   1.499
 1505SOL    HW1 4533   2.382   0.336   1.508
 1505SOL    HW2 4534   2.219   0.334   1.503
 1506SOL     OW 4535   3.465   0.447   0.737
 1506SOL    HW1 4536   3.391   0.493   0.687
 1506SOL    HW2 4537   3.516   0.515   0.790
 1507SOL     OW 4538   2.093   1.713   0.483
 1507SOL    HW1 4539   2.127   1.790   0.537
 1507SOL    HW2 4540   2.137   1.713   0.393
 1508SOL     OW 4541   2.989   1.341   1.690
 1508SOL    HW1 4542   3.036   1.341   1.778
 1508SOL    HW2 4543   2.941   1.254   1.679
 1509SOL     OW 4544   2.092   1.434   0.538
 1509SOL    HW1 4545   2.066   1.530   0.538
 1509SOL    HW2 4546   2.021   1.380   0.583
 1510SOL     OW 4547   2.102   1.091   0.886
 1510SOL    HW1 4548   2.116   1.007   0.938
 1510SOL    HW2 4549   2.047   1.155   0.941
 1511SOL     OW 4550   2.482   1.786   1.439
 1511SOL    HW1 4551   2.390   1.769   1.474
 1511SOL    HW2 4552   2.510   1.878   1.465
 1512SOL     OW 4553   2.468   0.964   0.123
 1512SOL    HW1 4554   2.475   1.048   0.069
 1512SOL    HW2 4555   2.514   0.977   0.211
 1513SOL     OW 4556   3.456   0.114   1.480
 1513SOL    HW1 4557   3.438   0.181   1.408
 1513SOL    HW2 4558   3.453   0.160   1.569
 1514SOL     OW 4559   1.984   0.643   0.563
 1514SOL    HW1 4560   1.939   0.555   0.580
 1514SOL    HW2 4561   1.983   0.697   0.647
 1515SOL     OW 4562   3.704   1.767   0.359
 1515SOL    HW1 4563   3.758   1.738   0.439
 1515SOL    HW2 4564   3.734   1.857   0.330
 1516SOL     OW 4565   1.889   1.596   0.117
 1516SOL    HW1 4566   1.870   1.500   0.138
 1516SOL    HW2 4567   1.856   1.654   0.192
 1517SOL     OW 4568   3.551   0.922   0.612
 1517SOL    HW1 4569   3.646   0.893   0.620
 1517SOL    HW2 4570   3.543   0.987   0.537
 1518SOL     OW 4571   3.503   1.108   0.432
 1518SOL    HW1 4572   3.589   1.110   0.380
 1518SOL    HW2 4573   3.517   1.155   0.520
 1519SOL     OW 4574   1.975   0.737   1.597
 1519SOL    HW1 4575   2.063   0.724   1.642
 1519SOL    HW2 4576   1.962   0.834   1.575
 1520SOL     OW 4577   2.475   1.365   0.726
 1520SOL    HW1 4578   2.426   1.278   0.735
 1520SOL    HW2 4579   2.452   1.408   0.639
 1521SOL     OW 4580   3.155   1.228   1.423
 1521SOL    HW1 4581   3.192   1.155   1.365
 1521SOL    HW2 4582   3.207   1.233   1.508
 1522SOL     OW 4583   2.671   0.004   0.502
 1522SOL    HW1 4584   2.711   0.095   0.493
 1522SOL    HW2 4585   2.571   0.012   0.508
 1523SOL     OW 4586   2.059   0.976   1.264
 1523SOL    HW1 4587   2.148   0.931   1.250
 1523SOL    HW2 4588   1.986   0.911   1.245
 1524SOL     OW 4589   3.387   0.999   0.190
 1524SOL    HW1 4590   3.324   0.923   0.203
 1524SOL    HW2 4591   3.435   1.017   0.276
 1525SOL     OW 4592   3.049   1.792   1.616
 1525SOL    HW1 4593   3.073   1.852   1.540
 1525SOL    HW2 4594   3.056   1.697   1.586
 1526SOL     OW 4595   2.179   0.251   1.801
 1526SOL    HW1 4596   2.250   0.322   1.807
 1526SOL    HW2 4597   2.091   0.290   1.829
 1527SOL     OW 4598   3.328   1.417   0.953
 1527SOL    HW1 4599   3.269   1.423   1.033
 1527SOL    HW2 4600   3.313   1.329   0.907
 1528SOL     OW 4601   3.529   1.714   0.572
 1528SOL    HW1 4602   3.488   1.691   0.484
 1528SOL    HW2 4603   3.511   1.640   0.637
 1529SOL     OW 4604   2.460   0.729   0.270
 1529SOL    HW1 4605   2.484   0.798   0.202
 1529SOL    HW2 4606   2.382   0.762   0.324
 1530SOL     OW 4607   3.143   0.345   0.944
 1530SOL    HW1 4608   3.057   0.295   0.931
 1530SOL    HW2 4609   3.205   0.291   1.000
 1531SOL     OW 4610   3.438   1.662   0.307
 1531SOL    HW1 4611   3.527   1.708   0.310
 1531SOL    HW2 4612   3.417   1.638   0.212
 1532SOL     OW 4613   2.669   0.605   1.465
 1532SOL    HW1 4614   2.622   0.602   1.554
 1532SOL    HW2 4615   2.618   0.550   1.399
 1533SOL     OW 4616   3.256   0.469   1.674
 1533SOL    HW1 4617   3.236   0.512   1.762
 1533SOL    HW2 4618   3.334   0.407   1.683
 1534SOL     OW 4619   2.835   0.890   1.572
 1534SOL    HW1 4620   2.881   0.806   1.543
 1534SOL    HW2 4621   2.779   0.924   1.497
 1535SOL     OW 4622   2.853   0.410   1.242
 1535SOL    HW1 4623   2.776   0.444   1.296
 1535SOL    HW2 4624   2.819   0.359   1.163
 1536SOL     OW 4625   2.903   0.701   0.429
 1536SOL    HW1 4626   2.929   0.697   0.525
 1536SOL    HW2 4627   2.818   0.650   0.415
 1537SOL     OW 4628   1.938   0.811   0.789
 1537SOL    HW1 4629   2.037   0.799   0.798
 1537SOL    HW2 4630   1.914   0.906   0.810
 1538SOL     OW 4631   1.992   1.821   1.571
 1538SOL    HW1 4632   1.982   1.806   1.670
 1538SOL    HW2 4633   1.906   1.857   1.535
 1539SOL     OW 4634   2.727   0.348   0.195
 1539SOL    HW1 4635   2.786   0.411   0.146
 1539SOL    HW2 4636   2.746   0.254   0.166
 1540SOL     OW 4637   3.581   0.585   1.831
 1540SOL    HW1 4638   3.555   0.674   1.795
 1540SOL    HW2 4639   3.579   0.517   1.758
 1541SOL     OW 4640   3.224   1.144   0.545
 1541SOL    HW1 4641   3.307   1.115   0.497
 1541SOL    HW2 4642   3.175   1.211   0.489
 1542SOL     OW 4643   2.412   0.196   0.885
 1542SOL    HW1 4644   2.407   0.191   0.985
 1542SOL    HW2 4645   2.414   0.292   0.856
 1543SOL     OW 4646   2.870   1.456   0.477
 1543SOL    HW1 4647   2.824   1.528   0.425
 1543SOL    HW2 4648   2.866   1.476   0.575
 1544SOL     OW 4649   2.213   1.801   0.853
 1544SOL    HW1 4650   2.263   1.715   0.859
 1544SOL    HW2 4651   2.278   1.878   0.850
 1545SOL     OW 4652   3.657   1.066   0.873
 1545SOL    HW1 4653   3.595   1.051   0.797
 1545SOL    HW2 4654   3.605   1.077   0.958
 1546SOL     OW 4655   3.089   1.550   1.506
 1546SOL    HW1 4656   3.095   1.473   1.570
 1546SOL    HW2 4657   3.037   1.524   1.426
 1547SOL     OW 4658   2.183   0.943   0.242
 1547SOL    HW1 4659   2.265   0.982   0.200
 1547SOL    HW2 4660   2.156   0.861   0.193
 1548SOL     OW 4661   3.320   0.735   0.728
 1548SOL    HW1 4662   3.315   0.670   0.803
 1548SOL    HW2 4663   3.400   0.794   0.741
 1549SOL     OW 4664   2.323   1.266   1.727
 1549SOL    HW1 4665   2.273   1.267   1.641
 1549SOL    HW2 4666   2.260   1.248   1.803
 1550SOL     OW 4667   2.973   1.776   0.237
 1550SOL    HW1 4668   2.913   1.714   0.287
 1550SOL    HW2 4669   3.004   1.732   0.152
 1551SOL     OW 4670   2.064   0.285   1.498
 1551SOL    HW1 4671   1.984   0.345   1.485
 1551SOL    HW2 4672   2.054   0.236   1.584
 1552SOL     OW 4673   3.494   1.377   0.081
 1552SOL    HW1 4674   3.462   1.471   0.071
 1552SOL    HW2 4675   3.418   1.314   0.069
 1553SOL     OW 4676   2.326   1.743   0.323
 1553SOL    HW1 4677   2.359   1.782   0.409
 1553SOL    HW2 4678   2.402   1.736   0.258
 1554SOL     OW 4679   3.262   0.107   0.426
 1554SOL    HW1 4680   3.238   0.070   0.336
 1554SOL    HW2 4681   3.361   0.123   0.430
 1555SOL     OW 4682   2.111   1.785   1.241
 1555SOL    HW1 4683   2.168   1.720   1.291
 1555SOL    HW2 4684   2.095   1.752   1.148
 1556SOL     OW 4685   2.802   1.698   0.904
 1556SOL    HW1 4686   2.882   1.641   0.925
 1556SOL    HW2 4687   2.753   1.658   0.827
 1557SOL     OW 4688   2.244   0.700   0.480
 1557SOL    HW1 4689   2.289   0.610   0.477
 1557SOL    HW2 4690   2.150   0.689   0.513
 1558SOL     OW 4691   3.409   0.222   1.729
 1558SOL    HW1 4692   3.404   0.259   1.821
 1558SOL    HW2 4693   3.337   0.153   1.717
 1559SOL     OW 4694   2.476   0.122   0.117
 1559SOL    HW1 4695   2.574   0.100   0.124
 1559SOL    HW2 4696   2.445   0.105   0.024
 1560SOL     OW 4697   2.643   0.264   1.749
 1560SOL    HW1 4698   2.710   0.203   1.792
 1560SOL    HW2 4699   2.570   0.283   1.814
 1561SOL     OW 4700   2.750   1.514   1.195
 1561SOL    HW1 4701   2.727   1.489   1.101
 1561SOL    HW2 4702   2.811   1.445   1.234
 1562SOL     OW 4703   3.213   0.590   1.433
 1562SOL    HW1 4704   3.241   0.547   1.518
 1562SOL    HW2 4705   3.238   0.686   1.434
 1563SOL     OW 4706   2.665   1.402   0.924
 1563SOL    HW1 4707   2.755   1.416   0.882
 1563SOL    HW2 4708   2.594   1.404   0.853
 1564SOL     OW 4709   2.784   0.503   0.899
 1564SOL    HW1 4710   2.759   0.494   0.803
 1564SOL    HW2 4711   2.832   0.421   0.930
 1565SOL     OW 4712   2.401   0.064   0.512
 1565SOL    HW1 4713   2.320   0.065   0.570
 1565SOL    HW2 4714   2.404   0.147   0.457
 1566SOL     OW 4715   3.296   1.188   0.041
 1566SOL    HW1 4716   3.328   1.112   0.098
 1566SOL    HW2 4717   3.204   1.215   0.071
 1567SOL     OW 4718   2.159   0.035   0.171
 1567SOL    HW1 4719   2.208   0.119   0.150
 1567SOL    HW2 4720   2.221  -0.030   0.216
 1568SOL     OW 4721   2.797   0.236   0.480
 1568SOL    HW1 4722   2.749   0.277   0.402
 1568SOL    HW2 4723   2.896   0.234   0.461
 1569SOL     OW 4724   2.938   0.683   1.464
 1569SOL    HW1 4725   2.858   0.622   1.467
 1569SOL    HW2 4726   3.019   0.630   1.440
 1570SOL     OW 4727   3.089   1.570   0.793
 1570SOL    HW1 4728   3.110   1.644   0.728
 1570SOL    HW2 4729   3.157   1.570   0.866
 1571SOL     OW 4730   2.321   1.152   0.741
 1571SOL    HW1 4731   2.250   1.125   0.806
 1571SOL    HW2 4732   2.295   1.124   0.648
 1572SOL     OW 4733   3.133   1.797   0.591
 1572SOL    HW1 4734   3.177   1.861   0.527
 1572SOL    HW2 4735   3.083   1.849   0.661
 1573SOL     OW 4736   2.894   0.549   0.016
 1573SOL    HW1 4737   2.853   0.631  -0.023
 1573SOL    HW2 4738   2.958   0.575   0.089
 1574SOL     OW 4739   1.940   0.556   1.386
 1574SOL    HW1 4740   2.032   0.555   1.345
 1574SOL    HW2 4741   1.934   0.630   1.453
 1575SOL     OW 4742   2.423   0.222   1.147
 1575SOL    HW1 4743   2.461   0.138   1.184
 1575SOL    HW2 4744   2.335   0.241   1.191
 1576SOL     OW 4745   2.728   0.454   0.642
 1576SOL    HW1 4746   2.696   0.526   0.580
 1576SOL    HW2 4747   2.752   0.373   0.589
 1577SOL     OW 4748   2.879   0.039   0.753
 1577SOL    HW1 4749   2.807   0.044   0.684
 1577SOL    HW2 4750   2.855  -0.030   0.822
 1578SOL     OW 4751   3.291   1.173   0.867
 1578SOL    HW1 4752   3.236   1.089   0.860
 1578SOL    HW2 4753   3.317   1.202   0.775
 1579SOL     OW 4754   3.328   0.590   0.992
 1579SOL    HW1 4755   3.298   0.495   0.999
 1579SOL    HW2 4756   3.401   0.606   1.058
 1580SOL     OW 4757   3.719   0.833   0.377
 1580SOL    HW1 4758   3.761   0.769   0.441
 1580SOL    HW2 4759   3.681   0.782   0.299
 1581SOL     OW 4760   2.350   1.385   0.174
 1581SOL    HW1 4761   2.263   1.370   0.221
 1581SOL    HW2 4762   2.333   1.411   0.079
 1582SOL     OW 4763   3.526   1.280   0.657
 1582SOL    HW1 4764   3.625   1.288   0.671
 1582SOL    HW2 4765   3.481   1.364   0.688
 1583SOL     OW 4766   3.252   0.575   0.078
 1583SOL    HW1 4767   3.198   0.554   0.159
 1583SOL    HW2 4768   3.343   0.534   0.087
 1584SOL     OW 4769   2.389   0.256   0.328
 1584SOL    HW1 4770   2.416   0.197   0.253
 1584SOL    HW2 4771   2.389   0.351   0.297
 1585SOL     OW 4772   3.616   1.223   1.588
 1585SOL    HW1 4773   3.707   1.184   1.575
 1585SOL    HW2 4774   3.624   1.319   1.612
 1586SOL     OW 4775   2.926   1.347   1.340
 1586SOL    HW1 4776   2.846   1.324   1.395
 1586SOL    HW2 4777   3.009   1.321   1.389
 1587SOL     OW 4778   3.454   1.629   1.625
 1587SOL    HW1 4779   3.481   1.663   1.535
 1587SOL    HW2 4780   3.533   1.591   1.671
 1588SOL     OW 4781   2.973   1.195   1.100
 1588SOL    HW1 4782   2.933   1.239   1.181
 1588SOL    HW2 4783   2.932   1.232   1.017
 1589SOL     OW 4784   3.500   1.099   1.079
 1589SOL    HW1 4785   3.505   1.180   1.138
 1589SOL    HW2 4786   3.414   1.101   1.028
 1590SOL     OW 4787   2.777   0.089   1.402
 1590SOL    HW1 4788   2.802   0.069   1.307
 1590SOL    HW2 4789   2.849   0.145   1.444
 1591SOL     OW 4790   2.842   1.116   1.719
 1591SOL    HW1 4791   2.743   1.122   1.729
 1591SOL    HW2 4792   2.865   1.036   1.663
 1592SOL     OW 4793   2.567   1.050   0.368
 1592SOL    HW1 4794   2.553   1.057   0.467
 1592SOL    HW2 4795   2.651   0.999   0.350
 1593SOL     OW 4796   2.272   0.813   1.251
 1593SOL    HW1 4797   2.358   0.825   1.301
 1593SOL    HW2 4798   2.230   0.726   1.278
 1594SOL     OW 4799   3.136   0.386   1.262
 1594SOL    HW1 4800   3.157   0.460   1.326
 1594SOL    HW2 4801   3.047   0.403   1.219
 1595SOL     OW 4802   1.926   1.564   1.331
 1595SOL    HW1 4803   1.880   1.646   1.297
 1595SOL    HW2 4804   2.024   1.583   1.340
 1596SOL     OW 4805   2.229   1.100   0.501
 1596SOL    HW1 4806   2.222   1.183   0.445
 1596SOL    HW2 4807   2.233   1.020   0.441
 1597SOL     OW 4808   2.428   0.537   0.865
 1597SOL    HW1 4809   2.440   0.603   0.791
 1597SOL    HW2 4810   2.474   0.571   0.948
 1598SOL     OW 4811   3.114   1.348   0.388
 1598SOL    HW1 4812   3.164   1.425   0.428
 1598SOL    HW2 4813   3.019   1.350   0.420
 1599SOL     OW 4814   3.134   1.445   1.142
 1599SOL    HW1 4815   3.181   1.458   1.229
 1599SOL    HW2 4816   3.068   1.371   1.151
 1600SOL     OW 4817   3.444   0.639   0.472
 1600SOL    HW1 4818   3.413   0.700   0.545
 1600SOL    HW2 4819   3.494   0.691   0.403
 1601SOL     OW 4820   2.216   1.510   1.329
 1601SOL    HW1 4821   2.195   1.466   1.242
 1601SOL    HW2 4822   2.313   1.536   1.332
 1602SOL     OW 4823   2.264   0.751   1.598
 1602SOL    HW1 4824   2.332   0.806   1.551
 1602SOL    HW2 4825   2.304   0.663   1.625
 1603SOL     OW 4826   3.449   0.779   1.670
 1603SOL    HW1 4827   3.357   0.817   1.665
 1603SOL    HW2 4828   3.509   0.826   1.605
 1604SOL     OW 4829   2.875   0.105   1.770
 1604SOL    HW1 4830   2.881   0.190   1.718
 1604SOL    HW2 4831   2.907   0.029   1.713
 1605SOL     OW 4832   2.366   0.050   1.740
 1605SOL    HW1 4833   2.324  -0.007   1.670
 1605SOL    HW2 4834   2.300   0.119   1.772
 1606SOL     OW 4835   2.435   0.870   1.029
 1606SOL    HW1 4836   2.479   0.959   1.020
 1606SOL    HW2 4837   2.372   0.870   1.106
 1607SOL     OW 4838   3.222   0.862   1.045
 1607SOL    HW1 4839   3.147   0.862   0.979
 1607SOL    HW2 4840   3.259   0.770   1.054
 1608SOL     OW 4841   3.071   0.525   0.275
 1608SOL    HW1 4842   3.084   0.441   0.329
 1608SOL    HW2 4843   3.042   0.599   0.335
 1609SOL     OW 4844   2.169   0.213   1.231
 1609SOL    HW1 4845   2.146   0.250   1.321
 1609SOL    HW2 4846   2.139   0.118   1.225
 1610SOL     OW 4847   1.899   1.310   1.282
 1610SOL    HW1 4848   1.952   1.261   1.350
 1610SOL    HW2 4849   1.921   1.408   1.287
 1611SOL     OW 4850   2.594   0.634   1.064
 1611SOL    HW1 4851   2.653   0.608   0.988
 1611SOL    HW2 4852   2.566   0.730   1.053
 1612SOL     OW 4853   3.590   0.935   1.854
 1612SOL    HW1 4854   3.544   0.928   1.765
 1612SOL    HW2 4855   3.528   0.979   1.920
 1613SOL     OW 4856   2.169   0.063   0.618
 1613SOL    HW1 4857   2.158   0.157   0.651
 1613SOL    HW2 4858   2.164   0.000   0.695
 1614SOL     OW 4859   3.484   0.367   0.374
 1614SOL    HW1 4860   3.486   0.291   0.438
 1614SOL    HW2 4861   3.436   0.444   0.414
 1615SOL     OW 4862   2.885   0.766   0.966
 1615SOL    HW1 4863   2.900   0.787   1.062
 1615SOL    HW2 4864   2.855   0.671   0.957
 1616SOL     OW 4865   2.842   1.573   1.700
 1616SOL    HW1 4866   2.822   1.617   1.612
 1616SOL    HW2 4867   2.881   1.482   1.684
 1617SOL     OW 4868   3.721   1.518   1.605
 1617SOL    HW1 4869   3.735   1.545   1.510
 1617SOL    HW2 4870   3.804   1.540   1.658
 1618SOL     OW 4871   2.212   0.898   1.804
 1618SOL    HW1 4872   2.288   0.942   1.852
 1618SOL    HW2 4873   2.247   0.851   1.722
 1619SOL     OW 4874   3.402   0.274   0.125
 1619SOL    HW1 4875   3.341   0.199   0.148
 1619SOL    HW2 4876   3.424   0.326   0.208
 1620SOL     OW 4877   3.165   0.838   0.042
 1620SOL    HW1 4878   3.199   0.745   0.057
 1620SOL    HW2 4879   3.183   0.865  -0.053
 1621SOL     OW 4880   2.930   1.333   0.849
 1621SOL    HW1 4881   2.937   1.249   0.794
 1621SOL    HW2 4882   2.992   1.402   0.813
 1622SOL     OW 4883   2.181   0.810   0.949
 1622SOL    HW1 4884   2.274   0.846   0.954
 1622SOL    HW2 4885   2.175   0.725   1.001
 1623SOL     OW 4886   2.201   0.509   1.006
 1623SOL    HW1 4887   2.149   0.426   0.989
 1623SOL    HW2 4888   2.278   0.514   0.942
 1624SOL     OW 4889   3.000   0.380   1.678
 1624SOL    HW1 4890   2.955   0.443   1.742
 1624SOL    HW2 4891   3.093   0.411   1.661
 1625SOL     OW 4892   3.022   0.207   1.477
 1625SOL    HW1 4893   3.022   0.271   1.554
 1625SOL    HW2 4894   3.050   0.255   1.394
 1626SOL     OW 4895   1.870   1.326   0.200
 1626SOL    HW1 4896   1.777   1.347   0.169
 1626SOL    HW2 4897   1.880   1.227   0.213
 1627SOL     OW 4898   1.950   1.801   0.927
 1627SOL    HW1 4899   1.908   1.715   0.900
 1627SOL    HW2 4900   2.044   1.804   0.893
 1628SOL     OW 4901   2.366   1.568   0.910
 1628SOL    HW1 4902   2.432   1.642   0.919
 1628SOL    HW2 4903   2.410   1.489   0.868
 1629SOL     OW 4904   2.864   0.796   1.238
 1629SOL    HW1 4905   2.905   0.764   1.324
 1629SOL    HW2 4906   2.768   0.769   1.235
 1630SOL     OW 4907   1.902   0.544   1.114
 1630SOL    HW1 4908   1.987   0.511   1.073
 1630SOL    HW2 4909   1.915   0.559   1.212
 1631SOL     OW 4910   2.051   0.520   1.722
 1631SOL    HW1 4911   2.110   0.480   1.652
 1631SOL    HW2 4912   1.993   0.591   1.681
 1632SOL     OW 4913   3.231   0.950   1.660
 1632SOL    HW1 4914   3.270   1.039   1.680
 1632SOL    HW2 4915   3.241   0.930   1.563
 1633SOL     OW 4916   2.677   0.572   0.325
 1633SOL    HW1 4917   2.684   0.483   0.279
 1633SOL    HW2 4918   2.583   0.606   0.317
 1634SOL     OW 4919   3.519   0.604   1.206
 1634SOL    HW1 4920   3.481   0.535   1.268
 1634SOL    HW2 4921   3.601   0.568   1.162
 1635SOL     OW 4922   2.114   1.564   1.744
 1635SOL    HW1 4923   2.084   1.621   1.820
 1635SOL    HW2 4924   2.107   1.467   1.770
 1636SOL     OW 4925   2.533   0.464   1.269
 1636SOL    HW1 4926   2.499   0.375   1.239
 1636SOL    HW2 4927   2.559   0.518   1.189
 1637SOL     OW 4928   2.792   1.678   1.465
 1637SOL    HW1 4929   2.768   1.660   1.370
 1637SOL    HW2 4930   2.822   1.772   1.475
 1638SOL     OW 4931   2.335   0.500   0.191
 1638SOL    HW1 4932   2.396   0.580   0.195
 1638SOL    HW2 4933   2.240   0.531   0.198
 1639SOL     OW 4934   2.021   1.137   1.466
 1639SOL    HW1 4935   2.043   1.076   1.542
 1639SOL    HW2 4936   2.031   1.088   1.380
 1640SOL     OW 4937   3.209   1.059   1.234
 1640SOL    HW1 4938   3.233   0.996   1.160
 1640SOL    HW2 4939   3.119   1.099   1.216
 1641SOL     OW 4940   3.164   0.855   0.309
 1641SOL    HW1 4941   3.078   0.824   0.351
 1641SOL    HW2 4942   3.160   0.841   0.210
 1642SOL     OW 4943   3.621   1.747   1.154
 1642SOL    HW1 4944   3.682   1.777   1.081
 1642SOL    HW2 4945   3.583   1.658   1.132
 1643SOL     OW 4946   3.114   1.731   1.128
 1643SOL    HW1 4947   3.198   1.736   1.074
 1643SOL    HW2 4948   3.091   1.635   1.146
 1644SOL     OW 4949   1.945   1.258   1.022
 1644SOL    HW1 4950   1.940   1.257   1.122
 1644SOL    HW2 4951   1.862   1.217   0.984
 1645SOL     OW 4952   2.550   1.662   1.716
 1645SOL    HW1 4953   2.494   1.743   1.725
 1645SOL    HW2 4954   2.602   1.666   1.630
 1646SOL     OW 4955   2.765   0.086   0.133
 1646SOL    HW1 4956   2.816   0.087   0.047
 1646SOL    HW2 4957   2.821   0.044   0.204
 1647SOL     OW 4958   3.588   0.135   0.523
 1647SOL    HW1 4959   3.661   0.118   0.456
 1647SOL    HW2 4960   3.557   0.048   0.561
 1648SOL     OW 4961   3.250   1.573   0.477
 1648SOL    HW1 4962   3.317   1.585   0.403
 1648SOL    HW2 4963   3.210   1.662   0.500
 1649SOL     OW 4964   1.992   1.794   1.851
 1649SOL    HW1 4965   1.951   1.720   1.904
 1649SOL    HW2 4966   2.056   1.845   1.909
 1650SOL     OW 4967   3.142   0.927   0.672
 1650SOL    HW1 4968   3.202   0.846   0.674
 1650SOL    HW2 4969   3.182   0.996   0.612
 1651SOL     OW 4970   2.692   1.273   1.422
 1651SOL    HW1 4971   2.687   1.306   1.517
 1651SOL    HW2 4972   2.606   1.292   1.376
 1652SOL     OW 4973   2.534   1.616   0.154
 1652SOL    HW1 4974   2.543   1.626   0.055
 1652SOL    HW2 4975   2.494   1.527   0.175
 1653SOL     OW 4976   3.512   1.720   1.394
 1653SOL    HW1 4977   3.565   1.730   1.310
 1653SOL    HW2 4978   3.485   1.810   1.428
 1654SOL     OW 4979   3.703   0.175   0.963
 1654SOL    HW1 4980   3.742   0.090   0.927
 1654SOL    HW2 4981   3.605   0.177   0.944
 1655SOL     OW 4982   2.125   0.326   0.720
 1655SOL    HW1 4983   2.046   0.377   0.686
 1655SOL    HW2 4984   2.116   0.311   0.818
 1656SOL     OW 4985   3.056   1.612   0.031
 1656SOL    HW1 4986   3.062   1.519   0.068
 1656SOL    HW2 4987   2.997   1.612  -0.049
 1657SOL     OW 4988   2.684   1.002   1.372
 1657SOL    HW1 4989   2.724   1.001   1.280
 1657SOL    HW2 4990   2.694   1.094   1.412
 1658SOL     OW 4991   2.778   0.910   0.291
 1658SOL    HW1 4992   2.841   0.948   0.223
 1658SOL    HW2 4993   2.818   0.827   0.330
 1659SOL     OW 4994   3.366   1.607   0.044
 1659SOL    HW1 4995   3.274   1.644   0.051
 1659SOL    HW2 4996   3.404   1.627  -0.046
 1660SOL     OW 4997   2.234   1.288   1.490
 1660SOL    HW1 4998   2.221   1.381   1.456
 1660SOL    HW2 4999   2.150   1.236   1.477
 1661SOL     OW 5000   3.476   1.292   1.289
 1661SOL    HW1 5001   3.536   1.295   1.369
 1661SOL    HW2 5002   3.401   1.356   1.302
 1662SOL     OW 5003   2.901   1.098   0.696
 1662SOL    HW1 5004   2.831   1.051   0.750
 1662SOL    HW2 5005   2.960   1.030   0.653
 1663SOL     OW 5006   2.876   0.236   0.971
 1663SOL    HW1 5007   2.868   0.200   0.878
 1663SOL    HW2 5008   2.874   0.160   1.036
 1664SOL     OW 5009   2.452   1.487   0.491
 1664SOL    HW1 5010   2.494   1.429   0.421
 1664SOL    HW2 5011   2.408   1.566   0.447
 1665SOL     OW 5012   3.571   0.385   1.381
 1665SOL    HW1 5013   3.644   0.454   1.385
 1665SOL    HW2 5014   3.599   0.310   1.322
 1666SOL     OW 5015   2.117   1.348   0.290
 1666SOL    HW1 5016   2.021   1.349   0.263
 1666SOL    HW2 5017   2.129   1.401   0.374
 1667SOL     OW 5018   1.967   1.013   1.726
 1667SOL    HW1 5019   1.890   0.980   1.780
 1667SOL    HW2 5020   2.052   0.983   1.768
 1668SOL     OW 5021   2.534   0.203   1.489
 1668SOL    HW1 5022   2.624   0.187   1.449
 1668SOL    HW2 5023   2.542   0.208   1.588
 1669SOL     OW 5024   3.302   0.856   1.398
 1669SOL    HW1 5025   3.245   0.908   1.335
 1669SOL    HW2 5026   3.398   0.868   1.374
 1670SOL     OW 5027   1.934   0.166   0.318
 1670SOL    HW1 5028   1.917   0.249   0.264
 1670SOL    HW2 5029   2.024   0.129   0.296
 1671SOL     OW 5030   3.045   1.335   0.119
 1671SOL    HW1 5031   2.946   1.324   0.121
 1671SOL    HW2 5032   3.079   1.350   0.212
 1672SOL     OW 5033   2.475   0.842   1.431
 1672SOL    HW1 5034   2.531   0.923   1.414
 1672SOL    HW2 5035   2.534   0.762   1.434
 1673SOL     OW 5036   3.355   1.767   0.959
 1673SOL    HW1 5037   3.388   1.831   0.890
 1673SOL    HW2 5038   3.421   1.761   1.034
 1674SOL     OW 5039   2.578   0.565   1.708
 1674SOL    HW1 5040   2.597   0.630   1.782
 1674SOL    HW2 5041   2.638   0.485   1.717
 1675SOL     OW 5042   3.312   1.220   1.633
 1675SOL    HW1 5043   3.303   1.210   1.732
 1675SOL    HW2 5044   3.408   1.213   1.607
 1676SOL     OW 5045   2.252   1.741   1.560
 1676SOL    HW1 5046   2.161   1.782   1.558
 1676SOL    HW2 5047   2.245   1.647   1.592
 1677SOL     OW 5048   3.536   0.883   1.254
 1677SOL    HW1 5049   3.509   0.794   1.217
 1677SOL    HW2 5050   3.537   0.951   1.181
 1678SOL     OW 5051   3.087   0.325   0.449
 1678SOL    HW1 5052   3.152   0.251   0.438
 1678SOL    HW2 5053   3.107   0.375   0.533
 1679SOL     OW 5054   2.456   0.745   0.652
 1679SOL    HW1 5055   2.506   0.830   0.633
 1679SOL    HW2 5056   2.368   0.747   0.604
 1680SOL     OW 5057   3.639   0.342   1.642
 1680SOL    HW1 5058   3.622   0.373   1.548
 1680SOL    HW2 5059   3.555   0.305   1.680
 1681SOL     OW 5060   3.592   0.934   1.517
 1681SOL    HW1 5061   3.630   1.025   1.532
 1681SOL    HW2 5062   3.584   0.917   1.418
 1682SOL     OW 5063   2.721   1.374   0.016
 1682SOL    HW1 5064   2.675   1.389   0.104
 1682SOL    HW2 5065   2.765   1.459  -0.014
 1683SOL     OW 5066   2.523   1.790   0.953
 1683SOL    HW1 5067   2.477   1.878   0.940
 1683SOL    HW2 5068   2.622   1.802   0.946
 1684SOL     OW 5069   2.721   0.956   0.861
 1684SOL    HW1 5070   2.775   0.887   0.909
 1684SOL    HW2 5071   2.689   1.025   0.927
 1685SOL     OW 5072   2.945   0.984   0.087
 1685SOL    HW1 5073   2.922   1.037   0.005
 1685SOL    HW2 5074   3.026   0.928   0.068
 1686SOL     OW 5075   3.723   1.569   0.851
 1686SOL    HW1 5076   3.652   1.557   0.781
 1686SOL    HW2 5077   3.724   1.490   0.911
 1687SOL     OW 5078   2.083   1.314   1.844
 1687SOL    HW1 5079   2.018   1.241   1.823
 1687SOL    HW2 5080   2.087   1.328   1.942
 1688SOL     OW 5081   1.941   1.240   0.653
 1688SOL    HW1 5082   1.940   1.193   0.741
 1688SOL    HW2 5083   2.023   1.212   0.602
 1689SOL     OW 5084   2.534   1.391   1.624
 1689SOL    HW1 5085   2.456   1.341   1.662
 1689SOL    HW2 5086   2.531   1.486   1.655
 1690SOL     OW 5087   3.686   0.192   1.227
 1690SOL    HW1 5088   3.682   0.102   1.271
 1690SOL    HW2 5089   3.689   0.181   1.128
 1691SOL     OW 5090   2.290   0.424   0.520
 1691SOL    HW1 5091   2.320   0.352   0.458
 1691SOL    HW2 5092   2.251   0.384   0.603
 1692SOL     OW 5093   3.567   1.487   1.104
 1692SOL    HW1 5094   3.474   1.462   1.077
 1692SOL    HW2 5095   3.593   1.437   1.186
 1693SOL     OW 5096   2.179   0.547   1.280
 1693SOL    HW1 5097   2.217   0.488   1.352
 1693SOL    HW2 5098   2.219   0.521   1.192
 1694SOL     OW 5099   2.674   1.586   0.687
 1694SOL    HW1 5100   2.706   1.596   0.593
 1694SOL    HW2 5101   2.595   1.524   0.689
 1695SOL     OW 5102   3.286   0.214   1.112
 1695SOL    HW1 5103   3.338   0.149   1.167
 1695SOL    HW2 5104   3.237   0.277   1.173
 1696SOL     OW 5105   2.863   0.034   1.154
 1696SOL    HW1 5106   2.800  -0.038   1.123
 1696SOL    HW2 5107   2.956  -0.002   1.154
 1697SOL     OW 5108   2.632   1.330   0.301
 1697SOL    HW1 5109   2.586   1.243   0.318
 1697SOL    HW2 5110   2.723   1.327   0.342
 1698SOL     OW 5111   2.480   1.567   1.284
 1698SOL    HW1 5112   2.475   1.649   1.341
 1698SOL    HW2 5113   2.569   1.564   1.239
 1699SOL     OW 5114   3.214   0.052   0.168
 1699SOL    HW1 5115   3.249   0.011   0.084
 1699SOL    HW2 5116   3.124   0.014   0.188
 1700SOL     OW 5117   3.162   0.453   0.691
 1700SOL    HW1 5118   3.103   0.533   0.695
 1700SOL    HW2 5119   3.177   0.418   0.784
 1701SOL     OW 5120   3.455   0.221   0.882
 1701SOL    HW1 5121   3.371   0.220   0.936
 1701SOL    HW2 5122   3.457   0.304   0.826
 1702SOL     OW 5123   1.901   1.077   0.300
 1702SOL    HW1 5124   2.000   1.066   0.291
 1702SOL    HW2 5125   1.861   0.991   0.332
 1703SOL     OW 5126   2.737   1.646   0.337
 1703SOL    HW1 5127   2.660   1.611   0.283
 1703SOL    HW2 5128   2.705   1.717   0.399
 1704SOL     OW 5129   2.092   0.628   1.975
 1704SOL    HW1 5130   1.999   0.626   2.012
 1704SOL    HW2 5131   2.093   0.589   1.883
 1705SOL     OW 5132   2.087   0.275   2.858
 1705SOL    HW1 5133   2.122   0.258   2.950
 1705SOL    HW2 5134   1.999   0.230   2.846
 1706SOL     OW 5135   1.881   0.368   2.509
 1706SOL    HW1 5136   1.799   0.411   2.548
 1706SOL    HW2 5137   1.853   0.295   2.446
 1707SOL     OW 5138   2.431   1.275   3.027
 1707SOL    HW1 5139   2.338   1.268   2.990
 1707SOL    HW2 5140   2.442   1.364   3.071
 1708SOL     OW 5141   3.417   1.511   2.565
 1708SOL    HW1 5142   3.360   1.495   2.646
 1708SOL    HW2 5143   3.358   1.521   2.485
 1709SOL     OW 5144   2.997   0.703   2.579
 1709SOL    HW1 5145   3.054   0.781   2.554
 1709SOL    HW2 5146   2.937   0.729   2.655
 1710SOL     OW 5147   3.617   0.607   2.093
 1710SOL    HW1 5148   3.605   0.594   1.994
 1710SOL    HW2 5149   3.587   0.526   2.142
 1711SOL     OW 5150   2.630   1.144   2.885
 1711SOL    HW1 5151   2.552   1.161   2.945
 1711SOL    HW2 5152   2.664   1.231   2.849
 1712SOL     OW 5153   2.712   0.798   3.685
 1712SOL    HW1 5154   2.708   0.874   3.750
 1712SOL    HW2 5155   2.734   0.834   3.594
 1713SOL     OW 5156   2.547   1.012   2.527
 1713SOL    HW1 5157   2.616   0.996   2.597
 1713SOL    HW2 5158   2.474   1.069   2.565
 1714SOL     OW 5159   2.548   1.161   3.665
 1714SOL    HW1 5160   2.608   1.240   3.679
 1714SOL    HW2 5161   2.462   1.192   3.624
 1715SOL     OW 5162   2.197   1.435   2.923
 1715SOL    HW1 5163   2.119   1.404   2.870
 1715SOL    HW2 5164   2.255   1.493   2.866
 1716SOL     OW 5165   3.322   1.505   3.201
 1716SOL    HW1 5166   3.346   1.599   3.227
 1716SOL    HW2 5167   3.306   1.451   3.283
 1717SOL     OW 5168   2.300   0.392   3.361
 1717SOL    HW1 5169   2.382   0.336   3.370
 1717SOL    HW2 5170   2.219   0.334   3.365
 1718SOL     OW 5171   3.465   0.447   2.599
 1718SOL    HW1 5172   3.391   0.493   2.549
 1718SOL    HW2 5173   3.516   0.515   2.652
 1719SOL     OW 5174   2.093   1.713   2.345
 1719SOL    HW1 5175   2.127   1.790   2.399
 1719SOL    HW2 5176   2.137   1.713   2.255
 1720SOL     OW 5177   2.989   1.341   3.552
 1720SOL    HW1 5178   3.036   1.341   3.640
 1720SOL    HW2 5179   2.941   1.254   3.541
 1721SOL     OW 5180   2.092   1.434   2.400
 1721SOL    HW1 5181   2.066   1.530   2.400
 1721SOL    HW2 5182   2.021   1.380   2.445
 1722SOL     OW 5183   2.102   1.091   2.748
 1722SOL    HW1 5184   2.116   1.007   2.800
 1722SOL    HW2 5185   2.047   1.155   2.803
 1723SOL     OW 5186   2.482   1.786   3.301
 1723SOL    HW1 5187   2.390   1.769   3.336
 1723SOL    HW2 5188   2.510   1.878   3.327
 1724SOL     OW 5189   2.468   0.964   1.985
 1724SOL    HW1 5190   2.475   1.048   1.931
 1724SOL    HW2 5191   2.514   0.977   2.073
 1725SOL     OW 5192   3.456   0.114   3.342
 1725SOL    HW1 5193   3.438   0.181   3.270
 1725SOL    HW2 5194   3.453   0.160   3.431
 1726SOL     OW 5195   1.984   0.643   2.425
 1726SOL    HW1 5196   1.939   0.555   2.442
 1726SOL    HW2 5197   1.983   0.697   2.509
 1727SOL     OW 5198   3.704   1.767   2.221
 1727SOL    HW1 5199   3.758   1.738   2.301
 1727SOL    HW2 5200   3.734   1.857   2.192
 1728SOL     OW 5201   1.889   1.596   1.979
 1728SOL    HW1 5202   1.870   1.500   2.000
 1728SOL    HW2 5203   1.856   1.654   2.054
 1729SOL     OW 5204   3.551   0.922   2.474
 1729SOL    HW1 5205   3.646   0.893   2.482
 1729SOL    HW2 5206   3.543   0.987   2.399
 1730SOL     OW 5207   3.503   1.108   2.294
 1730SOL    HW1 5208   3.589   1.110   2.242
 1730SOL    HW2 5209   3.517   1.155   2.382
 1731SOL     OW 5210   1.975   0.737   3.459
 1731SOL    HW1 5211   2.063   0.724   3.504
 1731SOL    HW2 5212   1.962   0.834   3.437
 1732SOL     OW 5213   2.475   1.365   2.588
 1732SOL    HW1 5214   2.426   1.278   2.597
 1732SOL    HW2 5215   2.452   1.408   2.501
 1733SOL     OW 5216   3.155   1.228   3.285
 1733SOL    HW1 5217   3.192   1.155   3.227
 1733SOL    HW2 5218   3.207   1.233   3.370
 1734SOL     OW 5219   2.671   0.004   2.364
 1734SOL    HW1 5220   2.711   0.095   2.355
 1734SOL    HW2 5221   2.571   0.012   2.370
 1735SOL     OW 5222   2.059   0.976   3.126
 1735SOL    HW1 5223   2.148   0.931   3.112
 1735SOL    HW2 5224   1.986   0.911   3.107
 1736SOL     OW 5225   3.387   0.999   2.052
 1736SOL    HW1 5226   3.324   0.923   2.065
 1736SOL    HW2 5227   3.435   1.017   2.138
 1737SOL     OW 5228   3.049   1.792   3.478
 1737SOL    HW1 5229   3.073   1.852   3.402
 1737SOL    HW2 5230   3.056   1.697   3.448
 1738SOL     OW 5231   2.179   0.251   3.663
 1738SOL    HW1 5232   2.250   0.322   3.669
 1738SOL    HW2 5233   2.091   0.290   3.691
 1739SOL     OW 5234   3.328   1.417   2.815
 1739SOL    HW1 5235   3.269   1.423   2.895
 1739SOL    HW2 5236   3.313   1.329   2.769
 1740SOL     OW 5237   3.529   1.714   2.434
 1740SOL    HW1 5238   3.488   1.691   2.346
 1740SOL    HW2 5239   3.511   1.640   2.499
 1741SOL     OW 5240   2.460   0.729   2.132
 1741SOL    HW1 5241   2.484   0.798   2.064
 1741SOL    HW2 5242   2.382   0.762   2.186
 1742SOL     OW 5243   3.143   0.345   2.806
 1742SOL    HW1 5244   3.057   0.295   2.793
 1742SOL    HW2 5245   3.205   0.291   2.862
 1743SOL     OW 5246   3.438   1.662   2.169
 1743SOL    HW1 5247   3.527   1.708   2.172
 1743SOL    HW2 5248   3.417   1.638   2.074
 1744SOL     OW 5249   2.669   0.605   3.327
 1744SOL    HW1 5250   2.622   0.602   3.416
 1744SOL    HW2 5251   2.618   0.550   3.261
 1745SOL     OW 5252   3.256   0.469   3.536
 1745SOL    HW1 5253   3.236   0.512   3.624
 1745SOL    HW2 5254   3.334   0.407   3.545
 1746SOL     OW 5255   2.835   0.890   3.434
 1746SOL    HW1 5256   2.881   0.806   3.405
 1746SOL    HW2 5257   2.779   0.924   3.359
 1747SOL     OW 5258   2.853   0.410   3.104
 1747SOL    HW1 5259   2.776   0.444   3.158
 1747SOL    HW2 5260   2.819   0.359   3.025
 1748SOL     OW 5261   2.903   0.701   2.291
 1748SOL    HW1 5262   2.929   0.697   2.387
 1748SOL    HW2 5263   2.818   0.650   2.277
 1749SOL     OW 5264   1.938   0.811   2.651
 1749SOL    HW1 5265   2.037   0.799   2.660
 1749SOL    HW2 5266   1.914   0.906   2.672
 1750SOL     OW 5267   1.992   1.821   3.433
 1750SOL    HW1 5268   1.982   1.806   3.532
 1750SOL    HW2 5269   1.906   1.857   3.397
 1751SOL     OW 5270   2.727   0.348   2.057
 1751SOL    HW1 5271   2.786   0.411   2.008
 1751SOL    HW2 5272   2.746   0.254   2.028
 1752SOL     OW 5273   3.581   0.585   3.693
 1752SOL    HW1 5274   3.555   0.674   3.657
 1752SOL    HW2 5275   3.579   0.517   3.620
 1753SOL     OW 5276   3.224   1.144   2.407
 1753SOL    HW1 5277   3.307   1.115   2.359
 1753SOL    HW2 5278   3.175   1.211   2.351
 1754SOL     OW 5279   2.412   0.196   2.747
 1754SOL    HW1 5280   2.407   0.191   2.847
 1754SOL    HW2 5281   2.414   0.292   2.718
 1755SOL     OW 5282   2.870   1.456   2.339
 1755SOL    HW1 5283   2.824   1.528   2.287
 1755SOL    HW2 5284   2.866   1.476   2.437
 1756SOL     OW 5285   2.213   1.801   2.715
 1756SOL    HW1 5286   2.263   1.715   2.721
 1756SOL    HW2 5287   2.278   1.878   2.712
 1757SOL     OW 5288   3.657   1.066   2.735
 1757SOL    HW1 5289   3.595   1.051   2.659
 1757SOL    HW2 5290   3.605   1.077   2.820
 1758SOL     OW 5291   3.089   1.550   3.368
 1758SOL    HW1 5292   3.095   1.473   3.432
 1758SOL    HW2 5293   3.037   1.524   3.288
 1759SOL     OW 5294   2.183   0.943   2.104
 1759SOL    HW1 5295   2.265   0.982   2.062
 1759SOL    HW2 5296   2.156   0.861   2.055
 1760SOL     OW 5297   3.320   0.735   2.590
 1760SOL    HW1 5298   3.315   0.670   2.665
 1760SOL    HW2 5299   3.400   0.794   2.603
 1761SOL     OW 5300   2.323   1.266   3.589
 1761SOL    HW1 5301   2.273   1.267   3.503
 1761SOL    HW2 5302   2.260   1.248   3.665
 1762SOL     OW 5303   2.973   1.776   2.099
 1762SOL    HW1 5304   2.913   1.714   2.149
 1762SOL    HW2 5305   3.004   1.732   2.014
 1763SOL     OW 5306   2.064   0.285   3.360
 1763SOL    HW1 5307   1.984   0.345   3.347
 1763SOL    HW2 5308   2.054   0.236   3.446
 1764SOL     OW 5309   3.494   1.377   1.943
 1764SOL    HW1 5310   3.462   1.471   1.933
 1764SOL    HW2 5311   3.418   1.314   1.931
 1765SOL     OW 5312   2.326   1.743   2.185
 1765SOL    HW1 5313   2.359   1.782   2.271
 1765SOL    HW2 5314   2.402   1.736   2.120
 1766SOL     OW 5315   3.262   0.107   2.288
 1766SOL    HW1 5316   3.238   0.070   2.198
 1766SOL    HW2 5317   3.361   0.123   2.292
 1767SOL     OW 5318   2.111   1.785   3.103
 1767SOL    HW1 5319   2.168   1.720   3.153
 1767SOL    HW2 5320   2.095   1.752   3.010
 1768SOL     OW 5321   2.802   1.698   2.766
 1768SOL    HW1 5322   2.882   1.641   2.787
 1768SOL    HW2 5323   2.753   1.658   2.689
 1769SOL     OW 5324   2.244   0.700   2.342
 1769SOL    HW1 5325   2.289   0.610   2.339
 1769SOL    HW2 5326   2.150   0.689   2.375
 1770SOL     OW 5327   3.409   0.222   3.591
 1770SOL    HW1 5328   3.404   0.259   3.683
 1770SOL    HW2 5329   3.337   0.153   3.579
 1771SOL     OW 5330   2.476   0.122   1.979
 1771SOL    HW1 5331   2.574   0.100   1.986
 1771SOL    HW2 5332   2.445   0.105   1.886
 1772SOL     OW 5333   2.643   0.264   3.611
 1772SOL    HW1 5334   2.710   0.203   3.654
 1772SOL    HW2 5335   2.570   0.283   3.676
 1773SOL     OW 5336   2.750   1.514   3.057
 1773SOL    HW1 5337   2.727   1.489   2.963
 1773SOL    HW2 5338   2.811   1.445   3.096
 1774SOL     OW 5339   3.213   0.590   3.295
 1774SOL    HW1 5340   3.241   0.547   3.380
 1774SOL    HW2 5341   3.238   0.686   3.296
 1775SOL     OW 5342   2.665   1.402   2.786
 1775SOL    HW1 5343   2.755   1.416   2.744
 1775SOL    HW2 5344   2.594   1.404   2.715
 1776SOL     OW 5345   2.784   0.503   2.761
 1776SOL    HW1 5346   2.759   0.494   2.665
 1776SOL    HW2 5347   2.832   0.421   2.792
 1777SOL     OW 5348   2.401   0.064   2.374
 1777SOL    HW1 5349   2.320   0.065   2.432
 1777SOL    HW2 5350   2.404   0.147   2.319
 1778SOL     OW 5351   3.296   1.188   1.903
 1778SOL    HW1 5352   3.328   1.112   1.960
 1778SOL    HW2 5353   3.204   1.215   1.933
 1779SOL     OW 5354   2.159   0.035   2.033
 1779SOL    HW1 5355   2.208   0.119   2.012
 1779SOL    HW2 5356   2.221  -0.030   2.078
 1780SOL     OW 5357   2.797   0.236   2.342
 1780SOL    HW1 5358   2.749   0.277   2.264
 1780SOL    HW2 5359   2.896   0.234   2.323
 1781SOL     OW 5360   2.938   0.683   3.326
 1781SOL    HW1 5361   2.858   0.622   3.329
 1781SOL    HW2 5362   3.019   0.630   3.302
 1782SOL     OW 5363   3.089   1.570   2.655
 1782SOL    HW1 5364   3.110   1.644   2.590
 1782SOL    HW2 5365   3.157   1.570   2.728
 1783SOL     OW 5366   2.321   1.152   2.603
 1783SOL    HW1 5367   2.250   1.125   2.668
 1783SOL    HW2 5368   2.295   1.124   2.510
 1784SOL     OW 5369   3.133   1.797   2.453
 1784SOL    HW1 5370   3.177   1.861   2.389
 1784SOL    HW2 5371   3.083   1.849   2.523
 1785SOL     OW 5372   2.894   0.549   1.878
 1785SOL    HW1 5373   2.853   0.631   1.839
 1785SOL    HW2 5374   2.958   0.575   1.951
 1786SOL     OW 5375   1.940   0.556   3.248
 1786SOL    HW1 5376   2.032   0.555   3.207
 1786SOL    HW2 5377   1.934   0.630   3.315
 1787SOL     OW 5378   2.423   0.222   3.009
 1787SOL    HW1 5379   2.461   0.138   3.046
 1787SOL    HW2 5380   2.335   0.241   3.053
 1788SOL     OW 5381   2.728   0.454   2.504
 1788SOL    HW1 5382   2.696   0.526   2.442
 1788SOL    HW2 5383   2.752   0.373   2.451
 1789SOL     OW 5384   2.879   0.039   2.615
 1789SOL    HW1 5385   2.807   0.044   2.546
 1789SOL    HW2 5386   2.855  -0.030   2.684
 1790SOL     OW 5387   3.291   1.173   2.729
 1790SOL    HW1 5388   3.236   1.089   2.722
 1790SOL    HW2 5389   3.317   1.202   2.637
 1791SOL     OW 5390   3.328   0.590   2.854
 1791SOL    HW1 5391   3.298   0.495   2.861
 1791SOL    HW2 5392   3.401   0.606   2.920
 1792SOL     OW 5393   3.719   0.833   2.239
 1792SOL    HW1 5394   3.761   0.769   2.303
 1792SOL    HW2 5395   3.681   0.782   2.161
 1793SOL     OW 5396   2.350   1.385   2.036
 1793SOL    HW1 5397   2.263   1.370   2.083
 1793SOL    HW2 5398   2.333   1.411   1.941
 1794SOL     OW 5399   3.526   1.280   2.519
 1794SOL    HW1 5400   3.625   1.288   2.533
 1794SOL    HW2 5401   3.481   1.364   2.550
 1795SOL     OW 5402   3.252   0.575   1.940
 1795SOL    HW1 5403   3.198   0.554   2.021
 1795SOL    HW2 5404   3.343   0.534   1.949
 1796SOL     OW 5405   2.389   0.256   2.190
 1796SOL    HW1 5406   2.416   0.197   2.115
 1796SOL    HW2 5407   2.389   0.351   2.159
 1797SOL     OW 5408   3.616   1.223   3.450
 1797SOL    HW1 5409   3.707   1.184   3.437
 1797SOL    HW2 5410   3.624   1.319   3.474
 1798SOL     OW 5411   2.926   1.347   3.202
 1798SOL    HW1 5412   2.846   1.324   3.257
 1798SOL    HW2 5413   3.009   1.321   3.251
 1799SOL     OW 5414   3.454   1.629   3.487
 1799SOL    HW1 5415   3.481   1.663   3.397
 1799SOL    HW2 5416   3.533   1.591   3.533
 1800SOL     OW 5417   2.973   1.195   2.962
 1800SOL    HW1 5418   2.933   1.239   3.043
 1800SOL    HW2 5419   2.932   1.232   2.879
 1801SOL     OW 5420   3.500   1.099   2.941
 1801SOL    HW1 5421   3.505   1.180   3.000
 1801SOL    HW2 5422   3.414   1.101   2.890
 1802SOL     OW 5423   2.777   0.089   3.264
 1802SOL    HW1 5424   2.802   0.069   3.169
 1802SOL    HW2 5425   2.849   0.145   3.306
 1803SOL     OW 5426   2.842   1.116   3.581
 1803SOL    HW1 5427   2.743   1.122   3.591
 1803SOL    HW2 5428   2.865   1.036   3.525
 1804SOL     OW 5429   2.567   1.050   2.230
 1804SOL    HW1 5430   2.553   1.057   2.329
 1804SOL    HW2 5431   2.651   0.999   2.212
 1805SOL     OW 5432   2.272   0.813   3.113
 1805SOL    HW1 5433   2.358   0.825   3.163
 1805SOL    HW2 5434   2.230   0.726   3.140
 1806SOL     OW 5435   3.136   0.386   3.124
 1806SOL    HW1 5436   3.157   0.460   3.188
 1806SOL    HW2 5437   3.047   0.403   3.081
 1807SOL     OW 5438   1.926   1.564   3.193
 1807SOL    HW1 5439   1.880   1.646   3.159
 1807SOL    HW2 5440   2.024   1.583   3.202
 1808SOL     OW 5441   2.229   1.100   2.363
 1808SOL    HW1 5442   2.222   1.183   2.307
 1808SOL    HW2 5443   2.233   1.020   2.303
 1809SOL     OW 5444   2.428   0.537   2.727
 1809SOL    HW1 5445   2.440   0.603   2.653
 1809SOL    HW2 5446   2.474   0.571   2.810
 1810SOL     OW 5447   3.114   1.348   2.250
 1810SOL    HW1 5448   3.164   1.425   2.290
 1810SOL    HW2 5449   3.019   1.350   2.282
 1811SOL     OW 5450   3.134   1.445   3.004
 1811SOL    HW1 5451   3.181   1.458   3.091
 1811SOL    HW2 5452   3.068   1.371   3.013
 1812SOL     OW 5453   3.444   0.639   2.334
 1812SOL    HW1 5454   3.413   0.700   2.407
 1812SOL    HW2 5455   3.494   0.691   2.265
 1813SOL     OW 5456   2.216   1.510   3.191
 1813SOL    HW1 5457   2.195   1.466   3.104
 1813SOL    HW2 5458   2.313   1.536   3.194
 1814SOL     OW 5459   2.264   0.751   3.460
 1814SOL    HW1 5460   2.332   0.806   3.413
 1814SOL    HW2 5461   2.304   0.663   3.487
 1815SOL     OW 5462   3.449   0.779   3.532
 1815SOL    HW1 5463   3.357   0.817   3.527
 1815SOL    HW2 5464   3.509   0.826   3.467
 1816SOL     OW 5465   2.875   0.105   3.632
 1816SOL    HW1 5466   2.881   0.190   3.580
 1816SOL    HW2 5467   2.907   0.029   3.575
 1817SOL     OW 5468   2.366   0.050   3.602
 1817SOL    HW1 5469   2.324  -0.007   3.532
 1817SOL    HW2 5470   2.300   0.119   3.634
 1818SOL     OW 5471   2.435   0.870   2.891
 1818SOL    HW1 5472   2.479   0.959   2.882
 1818SOL    HW2 5473   2.372   0.870   2.968
 1819SOL     OW 5474   3.222   0.862   2.907
 1819SOL    HW1 5475   3.147   0.862   2.841
 1819SOL    HW2 5476   3.259   0.770   2.916
 1820SOL     OW 5477   3.071   0.525   2.137
 1820SOL    HW1 5478   3.084   0.441   2.191
 1820SOL    HW2 5479   3.042   0.599   2.197
 1821SOL     OW 5480   2.169   0.213   3.093
 1821SOL    HW1 5481   2.146   0.250   3.183
 1821SOL    HW2 5482   2.139   0.118   3.087
 1822SOL     OW 5483   1.899   1.310   3.144
 1822SOL    HW1 5484   1.952   1.261   3.212
 1822SOL    HW2 5485   1.921   1.408   3.149
 1823SOL     OW 5486   2.594   0.634   2.926
 1823SOL    HW1 5487   2.653   0.608   2.850
 1823SOL    HW2 5488   2.566   0.730   2.915
 1824SOL     OW 5489   3.590   0.935   3.716
 1824SOL    HW1 5490   3.544   0.928   3.627
 1824SOL    HW2 5491   3.528   0.979   3.782
 1825SOL     OW 5492   2.169   0.063   2.480
 1825SOL    HW1 5493   2.158   0.157   2.513
 1825SOL    HW2 5494   2.164   0.000   2.557
 1826SOL     OW 5495   3.484   0.367   2.236
 1826SOL    HW1 5496   3.486   0.291   2.300
 1826SOL    HW2 5497   3.436   0.444   2.276
 1827SOL     OW 5498   2.885   0.766   2.828
 1827SOL    HW1 5499   2.900   0.787   2.924
 1827SOL    HW2 5500   2.855   0.671   2.819
 1828SOL     OW 5501   2.842   1.573   3.562
 1828SOL    HW1 5502   2.822   1.617   3.474
 1828SOL    HW2 5503   2.881   1.482   3.546
 1829SOL     OW 5504   3.721   1.518   3.467
 1829SOL    HW1 5505   3.735   1.545   3.372
 1829SOL    HW2 5506   3.804   1.540   3.520
 1830SOL     OW 5507   2.212   0.898   3.666
 1830SOL    HW1 5508   2.288   0.942   3.714
 1830SOL    HW2 5509   2.247   0.851   3.584
 1831SOL     OW 5510   3.402   0.274   1.987
 1831SOL    HW1 5511   3.341   0.199   2.010
 1831SOL    HW2 5512   3.424   0.326   2.070
 1832SOL     OW 5513   3.165   0.838   1.904
 1832SOL    HW1 5514   3.199   0.745   1.919
 1832SOL    HW2 5515   3.183   0.865   1.809
 1833SOL     OW 5516   2.930   1.333   2.711
 1833SOL    HW1 5517   2.937   1.249   2.656
 1833SOL    HW2 5518   2.992   1.402   2.675
 1834SOL     OW 5519   2.181   0.810   2.811
 1834SOL    HW1 5520   2.274   0.846   2.816
 1834SOL    HW2 5521   2.175   0.725   2.863
 1835SOL     OW 5522   2.201   0.509   2.868
 1835SOL    HW1 5523   2.149   0.426   2.851
 1835SOL    HW2 5524   2.278   0.514   2.804
 1836SOL     OW 5525   3.000   0.380   3.540
 1836SOL    HW1 5526   2.955   0.443   3.604
 1836SOL    HW2 5527   3.093   0.411   3.523
 1837SOL     OW 5528   3.022   0.207   3.339
 1837SOL    HW1 5529   3.022   0.271   3.416
 1837SOL    HW2 5530   3.050   0.255   3.256
 1838SOL     OW 5531   1.870   1.326   2.062
 1838SOL    HW1 5532   1.777   1.347   2.031
 1838SOL    HW2 5533   1.880   1.227   2.075
 1839SOL     OW 5534   1.950   1.801   2.789
 1839SOL    HW1 5535   1.908   1.715   2.762
 1839SOL    HW2 5536   2.044   1.804   2.755
 1840SOL     OW 5537   2.366   1.568   2.772
 1840SOL    HW1 5538   2.432   1.642   2.781
 1840SOL    HW2 5539   2.410   1.489   2.730
 1841SOL     OW 5540   2.864   0.796   3.100
 1841SOL    HW1 5541   2.905   0.764   3.186
 1841SOL    HW2 5542   2.768   0.769   3.097
 1842SOL     OW 5543   1.902   0.544   2.976
 1842SOL    HW1 5544   1.987   0.511   2.935
 1842SOL    HW2 5545   1.915   0.559   3.074
 1843SOL     OW 5546   2.051   0.520   3.584
 1843SOL    HW1 5547   2.110   0.480   3.514
 1843SOL    HW2 5548   1.993   0.591   3.543
 1844SOL     OW 5549   3.231   0.950   3.522
 1844SOL    HW1 5550   3.270   1.039   3.542
 1844SOL    HW2 5551   3.241   0.930   3.425
 1845SOL     OW 5552   2.677   0.572   2.187
 1845SOL    HW1 5553   2.684   0.483   2.141
 1845SOL    HW2 5554   2.583   0.606   2.179
 1846SOL     OW 5555   3.519   0.604   3.068
 1846SOL    HW1 5556   3.481   0.535   3.130
 1846SOL    HW2 5557   3.601   0.568   3.024
 1847SOL     OW 5558   2.114   1.564   3.606
 1847SOL    HW1 5559   2.084   1.621   3.682
 1847SOL    HW2 5560   2.107   1.467   3.632
 1848SOL     OW 5561   2.533   0.464   3.131
 1848SOL    HW1 5562   2.499   0.375   3.101
 1848SOL    HW2 5563   2.559   0.518   3.051
 1849SOL     OW 5564   2.792   1.678   3.327
 1849SOL    HW1 5565   2.768   1.660   3.232
 1849SOL    HW2 5566   2.822   1.772   3.337
 1850SOL     OW 5567   2.335   0.500   2.053
 1850SOL    HW1 5568   2.396   0.580   2.057
 1850SOL    HW2 5569   2.240   0.531   2.060
 1851SOL     OW 5570   2.021   1.137   3.328
 1851SOL    HW1 5571   2.043   1.076   3.404
 1851SOL    HW2 5572   2.031   1.088   3.242
 1852SOL     OW 5573   3.209   1.059   3.096
 1852SOL    HW1 5574   3.233   0.996   3.022
 1852SOL    HW2 5575   3.119   1.099   3.078
 1853SOL     OW 5576   3.164   0.855   2.171
 1853SOL    HW1 5577   3.078   0.824   2.213
 1853SOL    HW2 5578   3.160   0.841   2.072
 1854SOL     OW 5579   3.621   1.747   3.016
 1854SOL    HW1 5580   3.682   1.777   2.943
 1854SOL    HW2 5581   3.583   1.658   2.994
 1855SOL     OW 5582   3.114   1.731   2.990
 1855SOL    HW1 5583   3.198   1.736   2.936
 1855SOL    HW2 5584   3.091   1.635   3.008
 1856SOL     OW 5585   1.945   1.258   2.884
 1856SOL    HW1 5586   1.940   1.257   2.984
 1856SOL    HW2 5587   1.862   1.217   2.846
 1857SOL     OW 5588   2.550   1.662   3.578
 1857SOL    HW1 5589   2.494   1.743   3.587
 1857SOL    HW2 5590   2.602   1.666   3.492
 1858SOL     OW 5591   3.588   0.135   2.385
 1858SOL    HW1 5592   3.661   0.118   2.318
 1858SOL    HW2 5593   3.557   0.048   2.423
 1859SOL     OW 5594   3.250   1.573   2.339
 1859SOL    HW1 5595   3.317   1.585   2.265
 1859SOL    HW2 5596   3.210   1.662   2.362
 1860SOL     OW 5597   1.992   1.794   3.713
 1860SOL    HW1 5598   1.951   1.720   3.766
 1860SOL    HW2 5599   2.056   1.845   3.771
 1861SOL     OW 5600   3.142   0.927   2.534
 1861SOL    HW1 5601   3.202   0.846   2.536
 1861SOL    HW2 5602   3.182   0.996   2.474
 1862SOL     OW 5603   2.692   1.273   3.284
 1862SOL    HW1 5604   2.687   1.306   3.379
 1862SOL    HW2 5605   2.606   1.292   3.238
 1863SOL     OW 5606   2.534   1.616   2.016
 1863SOL    HW1 5607   2.543   1.626   1.917
 1863SOL    HW2 5608   2.494   1.527   2.037
 1864SOL     OW 5609   3.512   1.720   3.256
 1864SOL    HW1 5610   3.565   1.730   3.172
 1864SOL    HW2 5611   3.485   1.810   3.290
 1865SOL     OW 5612   3.703   0.175   2.825
 1865SOL    HW1 5613   3.742   0.090   2.789
 1865SOL    HW2 5614   3.605   0.177   2.806
 1866SOL     OW 5615   2.125   0.326   2.582
 1866SOL    HW1 5616   2.046   0.377   2.548
 1866SOL    HW2 5617   2.116   0.311   2.680
 1867SOL     OW 5618   3.056   1.612   1.893
 1867SOL    HW1 5619   3.062   1.519   1.930
 1867SOL    HW2 5620   2.997   1.612   1.813
 1868SOL     OW 5621   2.684   1.002   3.234
 1868SOL    HW1 5622   2.724   1.001   3.142
 1868SOL    HW2 5623   2.694   1.094   3.274
 1869SOL     OW 5624   2.778   0.910   2.153
 1869SOL    HW1 5625   2.841   0.948   2.085
 1869SOL    HW2 5626   2.818   0.827   2.192
 1870SOL     OW 5627   3.366   1.607   1.906
 1870SOL    HW1 5628   3.274   1.644   1.913
 1870SOL    HW2 5629   3.404   1.627   1.816
 1871SOL     OW 5630   2.234   1.288   3.352
 1871SOL    HW1 5631   2.221   1.381   3.318
 1871SOL    HW2 5632   2.150   1.236   3.339
 1872SOL     OW 5633   3.476   1.292   3.151
 1872SOL    HW1 5634   3.536   1.295   3.231
 1872SOL    HW2 5635   3.401   1.356   3.164
 1873SOL     OW 5636   2.901   1.098   2.558
 1873SOL    HW1 5637   2.831   1.051   2.612
 1873SOL    HW2 5638   2.960   1.030   2.515
 1874SOL     OW 5639   2.876   0.236   2.833
 1874SOL    HW1 5640   2.868   0.200   2.740
 1874SOL    HW2 5641   2.874   0.160   2.898
 1875SOL     OW 5642   2.452   1.487   2.353
 1875SOL    HW1 5643   2.494   1.429   2.283
 1875SOL    HW2 5644   2.408   1.566   2.309
 1876SOL     OW 5645   3.571   0.385   3.243
 1876SOL    HW1 5646   3.644   0.454   3.247
 1876SOL    HW2 5647   3.599   0.310   3.184
 1877SOL     OW 5648   2.117   1.348   2.152
 1877SOL    HW1 5649   2.021   1.349   2.125
 1877SOL    HW2 5650   2.129   1.401   2.236
 1878SOL     OW 5651   1.967   1.013   3.588
 1878SOL    HW1 5652   1.890   0.980   3.642
 1878SOL    HW2 5653   2.052   0.983   3.630
 1879SOL     OW 5654   2.534   0.203   3.351
 1879SOL    HW1 5655   2.624   0.187   3.311
 1879SOL    HW2 5656   2.542   0.208   3.450
 1880SOL     OW 5657   1.937   0.345   1.895
 1880SOL    HW1 5658   1.845   0.317   1.866
 1880SOL    HW2 5659   1.968   0.422   1.839
 1881SOL     OW 5660   3.302   0.856   3.260
 1881SOL    HW1 5661   3.245   0.908   3.197
 1881SOL    HW2 5662   3.398   0.868   3.236
 1882SOL     OW 5663   1.934   0.166   2.180
 1882SOL    HW1 5664   1.917   0.249   2.126
 1882SOL    HW2 5665   2.024   0.129   2.158
 1883SOL     OW 5666   3.045   1.335   1.981
 1883SOL    HW1 5667   2.946   1.324   1.983
 1883SOL    HW2 5668   3.079   1.350   2.074
 1884SOL     OW 5669   2.475   0.842   3.293
 1884SOL    HW1 5670   2.531   0.923   3.276
 1884SOL    HW2 5671   2.534   0.762   3.296
 1885SOL     OW 5672   3.355   1.767   2.821
 1885SOL    HW1 5673   3.388   1.831   2.752
 1885SOL    HW2 5674   3.421   1.761   2.896
 1886SOL     OW 5675   2.578   0.565   3.570
 1886SOL    HW1 5676   2.597   0.630   3.644
 1886SOL    HW2 5677   2.638   0.485   3.579
 1887SOL     OW 5678   3.312   1.220   3.495
 1887SOL    HW1 5679   3.303   1.210   3.594
 1887SOL    HW2 5680   3.408   1.213   3.469
 1888SOL     OW 5681   2.252   1.741   3.422
 1888SOL    HW1 5682   2.161   1.782   3.420
 1888SOL    HW2 5683   2.245   1.647   3.454
 1889SOL     OW 5684   3.536   0.883   3.116
 1889SOL    HW1 5685   3.509   0.794   3.079
 1889SOL    HW2 5686   3.537   0.951   3.043
 1890SOL     OW 5687   3.087   0.325   2.311
 1890SOL    HW1 5688   3.152   0.251   2.300
 1890SOL    HW2 5689   3.107   0.375   2.395
 1891SOL     OW 5690   2.456   0.745   2.514
 1891SOL    HW1 5691   2.506   0.830   2.495
 1891SOL    HW2 5692   2.368   0.747   2.466
 1892SOL     OW 5693   3.639   0.342   3.504
 1892SOL    HW1 5694   3.622   0.373   3.410
 1892SOL    HW2 5695   3.555   0.305   3.542
 1893SOL     OW 5696   3.592   0.934   3.379
 1893SOL    HW1 5697   3.630   1.025   3.394
 1893SOL    HW2 5698   3.584   0.917   3.280
 1894SOL     OW 5699   2.721   1.374   1.878
 1894SOL    HW1 5700   2.675   1.389   1.966
 1894SOL    HW2 5701   2.765   1.459   1.848
 1895SOL     OW 5702   2.523   1.790   2.815
 1895SOL    HW1 5703   2.477   1.878   2.802
 1895SOL    HW2 5704   2.622   1.802   2.808
 1896SOL     OW 5705   2.721   0.956   2.723
 1896SOL    HW1 5706   2.775   0.887   2.771
 1896SOL    HW2 5707   2.689   1.025   2.789
 1897SOL     OW 5708   2.945   0.984   1.949
 1897SOL    HW1 5709   2.922   1.037   1.867
 1897SOL    HW2 5710   3.026   0.928   1.930
 1898SOL     OW 5711   3.723   1.569   2.713
 1898SOL    HW1 5712   3.652   1.557   2.643
 1898SOL    HW2 5713   3.724   1.490   2.773
 1899SOL     OW 5714   2.083   1.314   3.706
 1899SOL    HW1 5715   2.018   1.241   3.685
 1899SOL    HW2 5716   2.087   1.328   3.804
 1900SOL     OW 5717   1.941   1.240   2.515
 1900SOL    HW1 5718   1.940   1.193   2.603
 1900SOL    HW2 5719   2.023   1.212   2.464
 1901SOL     OW 5720   2.534   1.391   3.486
 1901SOL    HW1 5721   2.456   1.341   3.524
 1901SOL    HW2 5722   2.531   1.486   3.517
 1902SOL     OW 5723   3.686   0.192   3.089
 1902SOL    HW1 5724   3.682   0.102   3.133
 1902SOL    HW2 5725   3.689   0.181   2.990
 1903SOL     OW 5726   2.290   0.424   2.382
 1903SOL    HW1 5727   2.320   0.352   2.320
 1903SOL    HW2 5728   2.251   0.384   2.465
 1904SOL     OW 5729   3.567   1.487   2.966
 1904SOL    HW1 5730   3.474   1.462   2.939
 1904SOL    HW2 5731   3.593   1.437   3.048
 1905SOL     OW 5732   2.179   0.547   3.142
 1905SOL    HW1 5733   2.217   0.488   3.214
 1905SOL    HW2 5734   2.219   0.521   3.054
 1906SOL     OW 5735   2.674   1.586   2.549
 1906SOL    HW1 5736   2.706   1.596   2.455
 1906SOL    HW2 5737   2.595   1.524   2.551
 1907SOL     OW 5738   3.286   0.214   2.974
 1907SOL    HW1 5739   3.338   0.149   3.029
 1907SOL    HW2 5740   3.237   0.277   3.035
 1908SOL     OW 5741   2.863   0.034   3.016
 1908SOL    HW1 5742   2.800  -0.038   2.985
 1908SOL    HW2 5743   2.956  -0.002   3.016
 1909SOL     OW 5744   2.632   1.330   2.163
 1909SOL    HW1 5745   2.586   1.243   2.180
 1909SOL    HW2 5746   2.723   1.327   2.204
 1910SOL     OW 5747   2.480   1.567   3.146
 1910SOL    HW1 5748   2.475   1.649   3.203
 1910SOL    HW2 5749   2.569   1.564   3.101
 1911SOL     OW 5750   3.214   0.052   2.030
 1911SOL    HW1 5751   3.249   0.011   1.946
 1911SOL    HW2 5752   3.124   0.014   2.050
 1912SOL     OW 5753   3.162   0.453   2.553
 1912SOL    HW1 5754   3.103   0.533   2.557
 1912SOL    HW2 5755   3.177   0.418   2.646
 1913SOL     OW 5756   3.455   0.221   2.744
 1913SOL    HW1 5757   3.371   0.220   2.798
 1913SOL    HW2 5758   3.457   0.304   2.688
 1914SOL     OW 5759   1.901   1.077   2.162
 1914SOL    HW1 5760   2.000   1.066   2.153
 1914SOL    HW2 5761   1.861   0.991   2.194
 1915SOL     OW 5762   2.737   1.646   2.199
 1915SOL    HW1 5763   2.660   1.611   2.145
 1915SOL    HW2 5764   2.705   1.717   2.261
 1916SOL     OW 5765   2.092   0.628   3.837
 1916SOL    HW1 5766   1.999   0.626   3.874
 1916SOL    HW2 5767   2.093   0.589   3.745
 1917SOL     OW 5768   2.087   0.275   4.720
 1917SOL    HW1 5769   2.122   0.258   4.812
 1917SOL    HW2 5770   1.999   0.230   4.708
 1918SOL     OW 5771   1.881   0.368   4.371
 1918SOL    HW1 5772   1.799   0.411   4.410
 1918SOL    HW2 5773   1.853   0.295   4.308
 1919SOL     OW 5774   2.431   1.275   4.889
 1919SOL    HW1 5775   2.338   1.268   4.852
 1919SOL    HW2 5776   2.442   1.364   4.933
 1920SOL     OW 5777   3.417   1.511   4.427
 1920SOL    HW1 5778   3.360   1.495   4.508
 1920SOL    HW2 5779   3.358   1.521   4.347
 1921SOL     OW 5780   2.997   0.703   4.441
 1921SOL    HW1 5781   3.054   0.781   4.416
 1921SOL    HW2 5782   2.937   0.729   4.517
 1922SOL     OW 5783   3.617   0.607   3.955
 1922SOL    HW1 5784   3.605   0.594   3.856
 1922SOL    HW2 5785   3.587   0.526   4.004
 1923SOL     OW 5786   2.630   1.144   4.747
 1923SOL    HW1 5787   2.552   1.161   4.807
 1923SOL    HW2 5788   2.664   1.231   4.711
 1924SOL     OW 5789   2.547   1.012   4.389
 1924SOL    HW1 5790   2.616   0.996   4.459
 1924SOL    HW2 5791   2.474   1.069   4.427
 1925SOL     OW 5792   2.197   1.435   4.785
 1925SOL    HW1 5793   2.119   1.404   4.732
 1925SOL    HW2 5794   2.255   1.493   4.728
 1926SOL     OW 5795   3.465   0.447   4.461
 1926SOL    HW1 5796   3.391   0.493   4.411
 1926SOL    HW2 5797   3.516   0.515   4.514
 1927SOL     OW 5798   2.093   1.713   4.207
 1927SOL    HW1 5799   2.127   1.790   4.261
 1927SOL    HW2 5800   2.137   1.713   4.117
 1928SOL     OW 5801   2.092   1.434   4.262
 1928SOL    HW1 5802   2.066   1.530   4.262
 1928SOL    HW2 5803   2.021   1.380   4.307
 1929SOL     OW 5804   2.102   1.091   4.610
 1929SOL    HW1 5805   2.116   1.007   4.662
 1929SOL    HW2 5806   2.047   1.155   4.665
 1930SOL     OW 5807   2.468   0.964   3.847
 1930SOL    HW1 5808   2.475   1.048   3.793
 1930SOL    HW2 5809   2.514   0.977   3.935
 1931SOL     OW 5810   1.984   0.643   4.287
 1931SOL    HW1 5811   1.939   0.555   4.304
 1931SOL    HW2 5812   1.983   0.697   4.371
 1932SOL     OW 5813   3.704   1.767   4.083
 1932SOL    HW1 5814   3.758   1.738   4.163
 1932SOL    HW2 5815   3.734   1.857   4.054
 1933SOL     OW 5816   1.889   1.596   3.841
 1933SOL    HW1 5817   1.870   1.500   3.862
 1933SOL    HW2 5818   1.856   1.654   3.916
 1934SOL     OW 5819   3.551   0.922   4.336
 1934SOL    HW1 5820   3.646   0.893   4.344
 1934SOL    HW2 5821   3.543   0.987   4.261
 1935SOL     OW 5822   3.503   1.108   4.156
 1935SOL    HW1 5823   3.589   1.110   4.104
 1935SOL    HW2 5824   3.517   1.155   4.244
 1936SOL     OW 5825   2.475   1.365   4.450
 1936SOL    HW1 5826   2.426   1.278   4.459
 1936SOL    HW2 5827   2.452   1.408   4.363
 1937SOL     OW 5828   2.671   0.004   4.226
 1937SOL    HW1 5829   2.711   0.095   4.217
 1937SOL    HW2 5830   2.571   0.012   4.232
 1938SOL     OW 5831   2.059   0.976   4.988
 1938SOL    HW1 5832   2.148   0.931   4.974
 1938SOL    HW2 5833   1.986   0.911   4.969
 1939SOL     OW 5834   3.387   0.999   3.914
 1939SOL    HW1 5835   3.324   0.923   3.927
 1939SOL    HW2 5836   3.435   1.017   4.000
 1940SOL     OW 5837   3.328   1.417   4.677
 1940SOL    HW1 5838   3.269   1.423   4.757
 1940SOL    HW2 5839   3.313   1.329   4.631
 1941SOL     OW 5840   3.529   1.714   4.296
 1941SOL    HW1 5841   3.488   1.691   4.208
 1941SOL    HW2 5842   3.511   1.640   4.361
 1942SOL     OW 5843   2.460   0.729   3.994
 1942SOL    HW1 5844   2.484   0.798   3.926
 1942SOL    HW2 5845   2.382   0.762   4.048
 1943SOL     OW 5846   3.143   0.345   4.668
 1943SOL    HW1 5847   3.057   0.295   4.655
 1943SOL    HW2 5848   3.205   0.291   4.724
 1944SOL     OW 5849   3.438   1.662   4.031
 1944SOL    HW1 5850   3.527   1.708   4.034
 1944SOL    HW2 5851   3.417   1.638   3.936
 1945SOL     OW 5852   2.903   0.701   4.153
 1945SOL    HW1 5853   2.929   0.697   4.249
 1945SOL    HW2 5854   2.818   0.650   4.139
 1946SOL     OW 5855   1.938   0.811   4.513
 1946SOL    HW1 5856   2.037   0.799   4.522
 1946SOL    HW2 5857   1.914   0.906   4.534
 1947SOL     OW 5858   2.727   0.348   3.919
 1947SOL    HW1 5859   2.786   0.411   3.870
 1947SOL    HW2 5860   2.746   0.254   3.890
 1948SOL     OW 5861   3.224   1.144   4.269
 1948SOL    HW1 5862   3.307   1.115   4.221
 1948SOL    HW2 5863   3.175   1.211   4.213
 1949SOL     OW 5864   2.412   0.196   4.609
 1949SOL    HW1 5865   2.407   0.191   4.709
 1949SOL    HW2 5866   2.414   0.292   4.580
 1950SOL     OW 5867   2.870   1.456   4.201
 1950SOL    HW1 5868   2.824   1.528   4.149
 1950SOL    HW2 5869   2.866   1.476   4.299
 1951SOL     OW 5870   2.213   1.801   4.577
 1951SOL    HW1 5871   2.263   1.715   4.583
 1951SOL    HW2 5872   2.278   1.878   4.574
 1952SOL     OW 5873   3.657   1.066   4.597
 1952SOL    HW1 5874   3.595   1.051   4.521
 1952SOL    HW2 5875   3.605   1.077   4.682
 1953SOL     OW 5876   2.183   0.943   3.966
 1953SOL    HW1 5877   2.265   0.982   3.924
 1953SOL    HW2 5878   2.156   0.861   3.917
 1954SOL     OW 5879   3.320   0.735   4.452
 1954SOL    HW1 5880   3.315   0.670   4.527
 1954SOL    HW2 5881   3.400   0.794   4.465
 1955SOL     OW 5882   2.973   1.776   3.961
 1955SOL    HW1 5883   2.913   1.714   4.011
 1955SOL    HW2 5884   3.004   1.732   3.876
 1956SOL     OW 5885   3.494   1.377   3.805
 1956SOL    HW1 5886   3.462   1.471   3.795
 1956SOL    HW2 5887   3.418   1.314   3.793
 1957SOL     OW 5888   2.326   1.743   4.047
 1957SOL    HW1 5889   2.359   1.782   4.133
 1957SOL    HW2 5890   2.402   1.736   3.982
 1958SOL     OW 5891   3.262   0.107   4.150
 1958SOL    HW1 5892   3.238   0.070   4.060
 1958SOL    HW2 5893   3.361   0.123   4.154
 1959SOL     OW 5894   2.111   1.785   4.965
 1959SOL    HW1 5895   2.168   1.720   5.015
 1959SOL    HW2 5896   2.095   1.752   4.872
 1960SOL     OW 5897   2.802   1.698   4.628
 1960SOL    HW1 5898   2.882   1.641   4.649
 1960SOL    HW2 5899   2.753   1.658   4.551
 1961SOL     OW 5900   2.244   0.700   4.204
 1961SOL    HW1 5901   2.289   0.610   4.201
 1961SOL    HW2 5902   2.150   0.689   4.237
 1962SOL     OW 5903   2.476   0.122   3.841
 1962SOL    HW1 5904   2.574   0.100   3.848
 1962SOL    HW2 5905   2.445   0.105   3.748
 1963SOL     OW 5906   2.665   1.402   4.648
 1963SOL    HW1 5907   2.755   1.416   4.606
 1963SOL    HW2 5908   2.594   1.404   4.577
 1964SOL     OW 5909   2.784   0.503   4.623
 1964SOL    HW1 5910   2.759   0.494   4.527
 1964SOL    HW2 5911   2.832   0.421   4.654
 1965SOL     OW 5912   2.401   0.064   4.236
 1965SOL    HW1 5913   2.320   0.065   4.294
 1965SOL    HW2 5914   2.404   0.147   4.181
 1966SOL     OW 5915   3.296   1.188   3.765
 1966SOL    HW1 5916   3.328   1.112   3.822
 1966SOL    HW2 5917   3.204   1.215   3.795
 1967SOL     OW 5918   2.159   0.035   3.895
 1967SOL    HW1 5919   2.208   0.119   3.874
 1967SOL    HW2 5920   2.221  -0.030   3.940
 1968SOL     OW 5921   2.797   0.236   4.204
 1968SOL    HW1 5922   2.749   0.277   4.126
 1968SOL    HW2 5923   2.896   0.234   4.185
 1969SOL     OW 5924   3.089   1.570   4.517
 1969SOL    HW1 5925   3.110   1.644   4.452
 1969SOL    HW2 5926   3.157   1.570   4.590
 1970SOL     OW 5927   2.321   1.152   4.465
 1970SOL    HW1 5928   2.250   1.125   4.530
 1970SOL    HW2 5929   2.295   1.124   4.372
 1971SOL     OW 5930   3.133   1.797   4.315
 1971SOL    HW1 5931   3.177   1.861   4.251
 1971SOL    HW2 5932   3.083   1.849   4.385
 1972SOL     OW 5933   2.894   0.549   3.740
 1972SOL    HW1 5934   2.853   0.631   3.701
 1972SOL    HW2 5935   2.958   0.575   3.813
 1973SOL     OW 5936   2.728   0.454   4.366
 1973SOL    HW1 5937   2.696   0.526   4.304
 1973SOL    HW2 5938   2.752   0.373   4.313
 1974SOL     OW 5939   2.879   0.039   4.477
 1974SOL    HW1 5940   2.807   0.044   4.408
 1974SOL    HW2 5941   2.855  -0.030   4.546
 1975SOL     OW 5942   3.291   1.173   4.591
 1975SOL    HW1 5943   3.236   1.089   4.584
 1975SOL    HW2 5944   3.317   1.202   4.499
 1976SOL     OW 5945   3.328   0.590   4.716
 1976SOL    HW1 5946   3.298   0.495   4.723
 1976SOL    HW2 5947   3.401   0.606   4.782
 1977SOL     OW 5948   3.719   0.833   4.101
 1977SOL    HW1 5949   3.761   0.769   4.165
 1977SOL    HW2 5950   3.681   0.782   4.023
 1978SOL     OW 5951   2.350   1.385   3.898
 1978SOL    HW1 5952   2.263   1.370   3.945
 1978SOL    HW2 5953   2.333   1.411   3.803
 1979SOL     OW 5954   3.526   1.280   4.381
 1979SOL    HW1 5955   3.625   1.288   4.395
 1979SOL    HW2 5956   3.481   1.364   4.412
 1980SOL     OW 5957   3.252   0.575   3.802
 1980SOL    HW1 5958   3.198   0.554   3.883
 1980SOL    HW2 5959   3.343   0.534   3.811
 1981SOL     OW 5960   2.389   0.256   4.052
 1981SOL    HW1 5961   2.416   0.197   3.977
 1981SOL    HW2 5962   2.389   0.351   4.021
 1982SOL     OW 5963   2.973   1.195   4.824
 1982SOL    HW1 5964   2.933   1.239   4.905
 1982SOL    HW2 5965   2.932   1.232   4.741
 1983SOL     OW 5966   3.500   1.099   4.803
 1983SOL    HW1 5967   3.505   1.180   4.862
 1983SOL    HW2 5968   3.414   1.101   4.752
 1984SOL     OW 5969   2.567   1.050   4.092
 1984SOL    HW1 5970   2.553   1.057   4.191
 1984SOL    HW2 5971   2.651   0.999   4.074
 1985SOL     OW 5972   2.272   0.813   4.975
 1985SOL    HW1 5973   2.358   0.825   5.025
 1985SOL    HW2 5974   2.230   0.726   5.002
 1986SOL     OW 5975   2.229   1.100   4.225
 1986SOL    HW1 5976   2.222   1.183   4.169
 1986SOL    HW2 5977   2.233   1.020   4.165
 1987SOL     OW 5978   2.428   0.537   4.589
 1987SOL    HW1 5979   2.440   0.603   4.515
 1987SOL    HW2 5980   2.474   0.571   4.672
 1988SOL     OW 5981   3.114   1.348   4.112
 1988SOL    HW1 5982   3.164   1.425   4.152
 1988SOL    HW2 5983   3.019   1.350   4.144
 1989SOL     OW 5984   3.134   1.445   4.866
 1989SOL    HW1 5985   3.181   1.458   4.953
 1989SOL    HW2 5986   3.068   1.371   4.875
 1990SOL     OW 5987   3.444   0.639   4.196
 1990SOL    HW1 5988   3.413   0.700   4.269
 1990SOL    HW2 5989   3.494   0.691   4.127
 1991SOL     OW 5990   2.435   0.870   4.753
 1991SOL    HW1 5991   2.479   0.959   4.744
 1991SOL    HW2 5992   2.372   0.870   4.830
 1992SOL     OW 5993   3.071   0.525   3.999
 1992SOL    HW1 5994   3.084   0.441   4.053
 1992SOL    HW2 5995   3.042   0.599   4.059
 1993SOL     OW 5996   2.169   0.213   4.955
 1993SOL    HW1 5997   2.146   0.250   5.045
 1993SOL    HW2 5998   2.139   0.118   4.949
 1994SOL     OW 5999   2.594   0.634   4.788
 1994SOL    HW1 6000   2.653   0.608   4.712
 1994SOL    HW2 6001   2.566   0.730   4.777
 1995SOL     OW 6002   2.169   0.063   4.342
 1995SOL    HW1 6003   2.158   0.157   4.375
 1995SOL    HW2 6004   2.164   0.000   4.419
 1996SOL     OW 6005   3.484   0.367   4.098
 1996SOL    HW1 6006   3.486   0.291   4.162
 1996SOL    HW2 6007   3.436   0.444   4.138
 1997SOL     OW 6008   2.885   0.766   4.690
 1997SOL    HW1 6009   2.900   0.787   4.786
 1997SOL    HW2 6010   2.855   0.671   4.681
 1998SOL     OW 6011   3.402   0.274   3.849
 1998SOL    HW1 6012   3.341   0.199   3.872
 1998SOL    HW2 6013   3.424   0.326   3.932
 1999SOL     OW 6014   3.165   0.838   3.766
 1999SOL    HW1 6015   3.199   0.745   3.781
 1999SOL    HW2 6016   3.183   0.865   3.671
 2000SOL     OW 6017   2.930   1.333   4.573
 2000SOL    HW1 6018   2.937   1.249   4.518
 2000SOL    HW2 6019   2.992   1.402   4.537
 2001SOL     OW 6020   2.181   0.810   4.673
 2001SOL    HW1 6021   2.274   0.846   4.678
 2001SOL    HW2 6022   2.175   0.725   4.725
 2002SOL     OW 6023   2.201   0.509   4.730
 2002SOL    HW1 6024   2.149   0.426   4.713
 2002SOL    HW2 6025   2.278   0.514   4.666
 2003SOL     OW 6026   1.870   1.326   3.924
 2003SOL    HW1 6027   1.777   1.347   3.893
 2003SOL    HW2 6028   1.880   1.227   3.937
 2004SOL     OW 6029   1.950   1.801   4.651
 2004SOL    HW1 6030   1.908   1.715   4.624
 2004SOL    HW2 6031   2.044   1.804   4.617
 2005SOL     OW 6032   2.366   1.568   4.634
 2005SOL    HW1 6033   2.432   1.642   4.643
 2005SOL    HW2 6034   2.410   1.489   4.592
 2006SOL     OW 6035   2.864   0.796   4.962
 2006SOL    HW1 6036   2.905   0.764   5.048
 2006SOL    HW2 6037   2.768   0.769   4.959
 2007SOL     OW 6038   1.902   0.544   4.838
 2007SOL    HW1 6039   1.987   0.511   4.797
 2007SOL    HW2 6040   1.915   0.559   4.936
 2008SOL     OW 6041   2.677   0.572   4.049
 2008SOL    HW1 6042   2.684   0.483   4.003
 2008SOL    HW2 6043   2.583   0.606   4.041
 2009SOL     OW 6044   3.519   0.604   4.930
 2009SOL    HW1 6045   3.481   0.535   4.992
 2009SOL    HW2 6046   3.601   0.568   4.886
 2010SOL     OW 6047   2.533   0.464   4.993
 2010SOL    HW1 6048   2.499   0.375   4.963
 2010SOL    HW2 6049   2.559   0.518   4.913
 2011SOL     OW 6050   2.335   0.500   3.915
 2011SOL    HW1 6051   2.396   0.580   3.919
 2011SOL    HW2 6052   2.240   0.531   3.922
 2012SOL     OW 6053   3.164   0.855   4.033
 2012SOL    HW1 6054   3.078   0.824   4.075
 2012SOL    HW2 6055   3.160   0.841   3.934
 2013SOL     OW 6056   3.621   1.747   4.878
 2013SOL    HW1 6057   3.682   1.777   4.805
 2013SOL    HW2 6058   3.583   1.658   4.856
 2014SOL     OW 6059   1.945   1.258   4.746
 2014SOL    HW1 6060   1.940   1.257   4.846
 2014SOL    HW2 6061   1.862   1.217   4.708
 2015SOL     OW 6062   3.588   0.135   4.247
 2015SOL    HW1 6063   3.661   0.118   4.180
 2015SOL    HW2 6064   3.557   0.048   4.285
 2016SOL     OW 6065   3.250   1.573   4.201
 2016SOL    HW1 6066   3.317   1.585   4.127
 2016SOL    HW2 6067   3.210   1.662   4.224
 2017SOL     OW 6068   3.142   0.927   4.396
 2017SOL    HW1 6069   3.202   0.846   4.398
 2017SOL    HW2 6070   3.182   0.996   4.336
 2018SOL     OW 6071   2.534   1.616   3.878
 2018SOL    HW1 6072   2.543   1.626   3.779
 2018SOL    HW2 6073   2.494   1.527   3.899
 2019SOL     OW 6074   3.703   0.175   4.687
 2019SOL    HW1 6075   3.742   0.090   4.651
 2019SOL    HW2 6076   3.605   0.177   4.668
 2020SOL     OW 6077   2.125   0.326   4.444
 2020SOL    HW1 6078   2.046   0.377   4.410
 2020SOL    HW2 6079   2.116   0.311   4.542
 2021SOL     OW 6080   3.056   1.612   3.755
 2021SOL    HW1 6081   3.062   1.519   3.792
 2021SOL    HW2 6082   2.997   1.612   3.675
 2022SOL     OW 6083   2.684   1.002   5.096
 2022SOL    HW1 6084   2.724   1.001   5.004
 2022SOL    HW2 6085   2.694   1.094   5.136
 2023SOL     OW 6086   2.778   0.910   4.015
 2023SOL    HW1 6087   2.841   0.948   3.947
 2023SOL    HW2 6088   2.818   0.827   4.054
 2024SOL     OW 6089   3.366   1.607   3.768
 2024SOL    HW1 6090   3.274   1.644   3.775
 2024SOL    HW2 6091   3.404   1.627   3.678
 2025SOL     OW 6092   2.901   1.098   4.420
 2025SOL    HW1 6093   2.831   1.051   4.474
 2025SOL    HW2 6094   2.960   1.030   4.377
 2026SOL     OW 6095   2.876   0.236   4.695
 2026SOL    HW1 6096   2.868   0.200   4.602
 2026SOL    HW2 6097   2.874   0.160   4.760
 2027SOL     OW 6098   2.452   1.487   4.215
 2027SOL    HW1 6099   2.494   1.429   4.145
 2027SOL    HW2 6100   2.408   1.566   4.171
 2028SOL     OW 6101   2.117   1.348   4.014
 2028SOL    HW1 6102   2.021   1.349   3.987
 2028SOL    HW2 6103   2.129   1.401   4.098
 2029SOL     OW 6104   1.937   0.345   3.757
 2029SOL    HW1 6105   1.845   0.317   3.728
 2029SOL    HW2 6106   1.968   0.422   3.701
 2030SOL     OW 6107   1.934   0.166   4.042
 2030SOL    HW1 6108   1.917   0.249   3.988
 2030SOL    HW2 6109   2.024   0.129   4.020
 2031SOL     OW 6110   3.045   1.335   3.843
 2031SOL    HW1 6111   2.946   1.324   3.845
 2031SOL    HW2 6112   3.079   1.350   3.936
 2032SOL     OW 6113   3.355   1.767   4.683
 2032SOL    HW1 6114   3.388   1.831   4.614
 2032SOL    HW2 6115   3.421   1.761   4.758
 2033SOL     OW 6116   3.536   0.883   4.978
 2033SOL    HW1 6117   3.509   0.794   4.941
 2033SOL    HW2 6118   3.537   0.951   4.905
 2034SOL     OW 6119   3.087   0.325   4.173
 2034SOL    HW1 6120   3.152   0.251   4.162
 2034SOL    HW2 6121   3.107   0.375   4.257
 2035SOL     OW 6122   2.456   0.745   4.376
 2035SOL    HW1 6123   2.506   0.830   4.357
 2035SOL    HW2 6124   2.368   0.747   4.328
 2036SOL     OW 6125   2.721   1.374   3.740
 2036SOL    HW1 6126   2.675   1.389   3.828
 2036SOL    HW2 6127   2.765   1.459   3.710
 2037SOL     OW 6128   2.523   1.790   4.677
 2037SOL    HW1 6129   2.477   1.878   4.664
 2037SOL    HW2 6130   2.622   1.802   4.670
 2038SOL     OW 6131   2.721   0.956   4.585
 2038SOL    HW1 6132   2.775   0.887   4.633
 2038SOL    HW2 6133   2.689   1.025   4.651
 2039SOL     OW 6134   2.945   0.984   3.811
 2039SOL    HW1 6135   2.922   1.037   3.729
 2039SOL    HW2 6136   3.026   0.928   3.792
 2040SOL     OW 6137   3.723   1.569   4.575
 2040SOL    HW1 6138   3.652   1.557   4.505
 2040SOL    HW2 6139   3.724   1.490   4.635
 2041SOL     OW 6140   1.941   1.240   4.377
 2041SOL    HW1 6141   1.940   1.193   4.465
 2041SOL    HW2 6142   2.023   1.212   4.326
 2042SOL     OW 6143   3.686   0.192   4.951
 2042SOL    HW1 6144   3.682   0.102   4.995
 2042SOL    HW2 6145   3.689   0.181   4.852
 2043SOL     OW 6146   2.290   0.424   4.244
 2043SOL    HW1 6147   2.320   0.352   4.182
 2043SOL    HW2 6148   2.251   0.384   4.327
 2044SOL     OW 6149   2.674   1.586   4.411
 2044SOL    HW1 6150   2.706   1.596   4.317
 2044SOL    HW2 6151   2.595   1.524   4.413
 2045SOL     OW 6152   3.286   0.214   4.836
 2045SOL    HW1 6153   3.338   0.149   4.891
 2045SOL    HW2 6154   3.237   0.277   4.897
 2046SOL     OW 6155   2.632   1.330   4.025
 2046SOL    HW1 6156   2.586   1.243   4.042
 2046SOL    HW2 6157   2.723   1.327   4.066
 2047SOL     OW 6158   3.214   0.052   3.892
 2047SOL    HW1 6159   3.249   0.011   3.808
 2047SOL    HW2 6160   3.124   0.014   3.912
 2048SOL     OW 6161   3.162   0.453   4.415
 2048SOL    HW1 6162   3.103   0.533   4.419
 2048SOL    HW2 6163   3.177   0.418   4.508
 2049SOL     OW 6164   3.455   0.221   4.606
 2049SOL    HW1 6165   3.371   0.220   4.660
 2049SOL    HW2 6166   3.457   0.304   4.550
 2050SOL     OW 6167   1.901   1.077   4.024
 2050SOL    HW1 6168   2.000   1.066   4.015
 2050SOL    HW2 6169   1.861   0.991   4.056
 2051SOL     OW 6170   2.737   1.646   4.061
 2051SOL    HW1 6171   2.660   1.611   4.007
 2051SOL    HW2 6172   2.705   1.717   4.123
 2052SOL     OW 6173   2.092   2.490   0.113
 2052SOL    HW1 6174   1.999   2.488   0.150
 2052SOL    HW2 6175   2.093   2.451   0.021
 2053SOL     OW 6176   2.087   2.137   0.996
 2053SOL    HW1 6177   2.122   2.120   1.088
 2053SOL    HW2 6178   1.999   2.092   0.984
 2054SOL     OW 6179   1.881   2.230   0.647
 2054SOL    HW1 6180   1.799   2.273   0.686
 2054SOL    HW2 6181   1.853   2.157   0.584
 2055SOL     OW 6182   2.431   3.137   1.165
 2055SOL    HW1 6183   2.338   3.130   1.128
 2055SOL    HW2 6184   2.442   3.226   1.209
 2056SOL     OW 6185   3.417   3.373   0.703
 2056SOL    HW1 6186   3.360   3.357   0.784
 2056SOL    HW2 6187   3.358   3.383   0.623
 2057SOL     OW 6188   2.997   2.565   0.717
 2057SOL    HW1 6189   3.054   2.643   0.692
 2057SOL    HW2 6190   2.937   2.591   0.793
 2058SOL     OW 6191   3.617   2.469   0.231
 2058SOL    HW1 6192   3.605   2.456   0.132
 2058SOL    HW2 6193   3.587   2.388   0.280
 2059SOL     OW 6194   2.630   3.006   1.023
 2059SOL    HW1 6195   2.552   3.023   1.083
 2059SOL    HW2 6196   2.664   3.093   0.987
 2060SOL     OW 6197   2.712   2.660   1.823
 2060SOL    HW1 6198   2.708   2.736   1.888
 2060SOL    HW2 6199   2.734   2.696   1.732
 2061SOL     OW 6200   2.547   2.874   0.665
 2061SOL    HW1 6201   2.616   2.858   0.735
 2061SOL    HW2 6202   2.474   2.931   0.703
 2062SOL     OW 6203   2.548   3.023   1.803
 2062SOL    HW1 6204   2.608   3.102   1.817
 2062SOL    HW2 6205   2.462   3.054   1.762
 2063SOL     OW 6206   2.197   3.297   1.061
 2063SOL    HW1 6207   2.119   3.266   1.008
 2063SOL    HW2 6208   2.255   3.355   1.004
 2064SOL     OW 6209   3.322   3.367   1.339
 2064SOL    HW1 6210   3.346   3.461   1.365
 2064SOL    HW2 6211   3.306   3.313   1.421
 2065SOL     OW 6212   2.300   2.254   1.499
 2065SOL    HW1 6213   2.382   2.198   1.508
 2065SOL    HW2 6214   2.219   2.196   1.503
 2066SOL     OW 6215   3.465   2.309   0.737
 2066SOL    HW1 6216   3.391   2.355   0.687
 2066SOL    HW2 6217   3.516   2.377   0.790
 2067SOL     OW 6218   2.093   3.575   0.483
 2067SOL    HW1 6219   2.127   3.652   0.537
 2067SOL    HW2 6220   2.137   3.575   0.393
 2068SOL     OW 6221   2.989   3.203   1.690
 2068SOL    HW1 6222   3.036   3.203   1.778
 2068SOL    HW2 6223   2.941   3.116   1.679
 2069SOL     OW 6224   2.092   3.296   0.538
 2069SOL    HW1 6225   2.066   3.392   0.538
 2069SOL    HW2 6226   2.021   3.242   0.583
 2070SOL     OW 6227   2.102   2.953   0.886
 2070SOL    HW1 6228   2.116   2.869   0.938
 2070SOL    HW2 6229   2.047   3.017   0.941
 2071SOL     OW 6230   2.482   3.648   1.439
 2071SOL    HW1 6231   2.390   3.631   1.474
 2071SOL    HW2 6232   2.510   3.740   1.465
 2072SOL     OW 6233   2.468   2.826   0.123
 2072SOL    HW1 6234   2.475   2.910   0.069
 2072SOL    HW2 6235   2.514   2.839   0.211
 2073SOL     OW 6236   3.456   1.976   1.480
 2073SOL    HW1 6237   3.438   2.043   1.408
 2073SOL    HW2 6238   3.453   2.022   1.569
 2074SOL     OW 6239   1.984   2.505   0.563
 2074SOL    HW1 6240   1.939   2.417   0.580
 2074SOL    HW2 6241   1.983   2.559   0.647
 2075SOL     OW 6242   3.704   3.629   0.359
 2075SOL    HW1 6243   3.758   3.600   0.439
 2075SOL    HW2 6244   3.734   3.719   0.330
 2076SOL     OW 6245   1.889   3.458   0.117
 2076SOL    HW1 6246   1.870   3.362   0.138
 2076SOL    HW2 6247   1.856   3.516   0.192
 2077SOL     OW 6248   3.551   2.784   0.612
 2077SOL    HW1 6249   3.646   2.755   0.620
 2077SOL    HW2 6250   3.543   2.849   0.537
 2078SOL     OW 6251   3.503   2.970   0.432
 2078SOL    HW1 6252   3.589   2.972   0.380
 2078SOL    HW2 6253   3.517   3.017   0.520
 2079SOL     OW 6254   1.975   2.599   1.597
 2079SOL    HW1 6255   2.063   2.586   1.642
 2079SOL    HW2 6256   1.962   2.696   1.575
 2080SOL     OW 6257   2.475   3.227   0.726
 2080SOL    HW1 6258   2.426   3.140   0.735
 2080SOL    HW2 6259   2.452   3.270   0.639
 2081SOL     OW 6260   3.155   3.090   1.423
 2081SOL    HW1 6261   3.192   3.017   1.365
 2081SOL    HW2 6262   3.207   3.095   1.508
 2082SOL     OW 6263   2.671   1.866   0.502
 2082SOL    HW1 6264   2.711   1.957   0.493
 2082SOL    HW2 6265   2.571   1.874   0.508
 2083SOL     OW 6266   2.059   2.838   1.264
 2083SOL    HW1 6267   2.148   2.793   1.250
 2083SOL    HW2 6268   1.986   2.773   1.245
 2084SOL     OW 6269   3.387   2.861   0.190
 2084SOL    HW1 6270   3.324   2.785   0.203
 2084SOL    HW2 6271   3.435   2.879   0.276
 2085SOL     OW 6272   3.049   3.654   1.616
 2085SOL    HW1 6273   3.073   3.714   1.540
 2085SOL    HW2 6274   3.056   3.559   1.586
 2086SOL     OW 6275   2.179   2.113   1.801
 2086SOL    HW1 6276   2.250   2.184   1.807
 2086SOL    HW2 6277   2.091   2.152   1.829
 2087SOL     OW 6278   3.328   3.279   0.953
 2087SOL    HW1 6279   3.269   3.285   1.033
 2087SOL    HW2 6280   3.313   3.191   0.907
 2088SOL     OW 6281   3.529   3.576   0.572
 2088SOL    HW1 6282   3.488   3.553   0.484
 2088SOL    HW2 6283   3.511   3.502   0.637
 2089SOL     OW 6284   2.460   2.591   0.270
 2089SOL    HW1 6285   2.484   2.660   0.202
 2089SOL    HW2 6286   2.382   2.624   0.324
 2090SOL     OW 6287   3.143   2.207   0.944
 2090SOL    HW1 6288   3.057   2.157   0.931
 2090SOL    HW2 6289   3.205   2.153   1.000
 2091SOL     OW 6290   3.438   3.524   0.307
 2091SOL    HW1 6291   3.527   3.570   0.310
 2091SOL    HW2 6292   3.417   3.500   0.212
 2092SOL     OW 6293   2.669   2.467   1.465
 2092SOL    HW1 6294   2.622   2.464   1.554
 2092SOL    HW2 6295   2.618   2.412   1.399
 2093SOL     OW 6296   3.256   2.331   1.674
 2093SOL    HW1 6297   3.236   2.374   1.762
 2093SOL    HW2 6298   3.334   2.269   1.683
 2094SOL     OW 6299   2.835   2.752   1.572
 2094SOL    HW1 6300   2.881   2.668   1.543
 2094SOL    HW2 6301   2.779   2.786   1.497
 2095SOL     OW 6302   2.853   2.272   1.242
 2095SOL    HW1 6303   2.776   2.306   1.296
 2095SOL    HW2 6304   2.819   2.221   1.163
 2096SOL     OW 6305   2.903   2.563   0.429
 2096SOL    HW1 6306   2.929   2.559   0.525
 2096SOL    HW2 6307   2.818   2.512   0.415
 2097SOL     OW 6308   1.938   2.673   0.789
 2097SOL    HW1 6309   2.037   2.661   0.798
 2097SOL    HW2 6310   1.914   2.768   0.810
 2098SOL     OW 6311   1.992   3.683   1.571
 2098SOL    HW1 6312   1.982   3.668   1.670
 2098SOL    HW2 6313   1.906   3.719   1.535
 2099SOL     OW 6314   2.727   2.210   0.195
 2099SOL    HW1 6315   2.786   2.273   0.146
 2099SOL    HW2 6316   2.746   2.116   0.166
 2100SOL     OW 6317   3.581   2.447   1.831
 2100SOL    HW1 6318   3.555   2.536   1.795
 2100SOL    HW2 6319   3.579   2.379   1.758
 2101SOL     OW 6320   3.224   3.006   0.545
 2101SOL    HW1 6321   3.307   2.977   0.497
 2101SOL    HW2 6322   3.175   3.073   0.489
 2102SOL     OW 6323   2.412   2.058   0.885
 2102SOL    HW1 6324   2.407   2.053   0.985
 2102SOL    HW2 6325   2.414   2.154   0.856
 2103SOL     OW 6326   2.870   3.318   0.477
 2103SOL    HW1 6327   2.824   3.390   0.425
 2103SOL    HW2 6328   2.866   3.338   0.575
 2104SOL     OW 6329   2.213   3.663   0.853
 2104SOL    HW1 6330   2.263   3.577   0.859
 2104SOL    HW2 6331   2.278   3.740   0.850
 2105SOL     OW 6332   3.657   2.928   0.873
 2105SOL    HW1 6333   3.595   2.913   0.797
 2105SOL    HW2 6334   3.605   2.939   0.958
 2106SOL     OW 6335   3.089   3.412   1.506
 2106SOL    HW1 6336   3.095   3.335   1.570
 2106SOL    HW2 6337   3.037   3.386   1.426
 2107SOL     OW 6338   2.183   2.805   0.242
 2107SOL    HW1 6339   2.265   2.844   0.200
 2107SOL    HW2 6340   2.156   2.723   0.193
 2108SOL     OW 6341   3.320   2.597   0.728
 2108SOL    HW1 6342   3.315   2.532   0.803
 2108SOL    HW2 6343   3.400   2.656   0.741
 2109SOL     OW 6344   2.323   3.128   1.727
 2109SOL    HW1 6345   2.273   3.129   1.641
 2109SOL    HW2 6346   2.260   3.110   1.803
 2110SOL     OW 6347   2.973   3.638   0.237
 2110SOL    HW1 6348   2.913   3.576   0.287
 2110SOL    HW2 6349   3.004   3.594   0.152
 2111SOL     OW 6350   2.064   2.147   1.498
 2111SOL    HW1 6351   1.984   2.207   1.485
 2111SOL    HW2 6352   2.054   2.098   1.584
 2112SOL     OW 6353   3.494   3.239   0.081
 2112SOL    HW1 6354   3.462   3.333   0.071
 2112SOL    HW2 6355   3.418   3.176   0.069
 2113SOL     OW 6356   2.326   3.605   0.323
 2113SOL    HW1 6357   2.359   3.644   0.409
 2113SOL    HW2 6358   2.402   3.598   0.258
 2114SOL     OW 6359   3.262   1.969   0.426
 2114SOL    HW1 6360   3.238   1.932   0.336
 2114SOL    HW2 6361   3.361   1.985   0.430
 2115SOL     OW 6362   2.111   3.647   1.241
 2115SOL    HW1 6363   2.168   3.582   1.291
 2115SOL    HW2 6364   2.095   3.614   1.148
 2116SOL     OW 6365   2.802   3.560   0.904
 2116SOL    HW1 6366   2.882   3.503   0.925
 2116SOL    HW2 6367   2.753   3.520   0.827
 2117SOL     OW 6368   2.244   2.562   0.480
 2117SOL    HW1 6369   2.289   2.472   0.477
 2117SOL    HW2 6370   2.150   2.551   0.513
 2118SOL     OW 6371   3.409   2.084   1.729
 2118SOL    HW1 6372   3.404   2.121   1.821
 2118SOL    HW2 6373   3.337   2.015   1.717
 2119SOL     OW 6374   2.476   1.984   0.117
 2119SOL    HW1 6375   2.574   1.962   0.124
 2119SOL    HW2 6376   2.445   1.967   0.024
 2120SOL     OW 6377   2.643   2.126   1.749
 2120SOL    HW1 6378   2.710   2.065   1.792
 2120SOL    HW2 6379   2.570   2.145   1.814
 2121SOL     OW 6380   2.750   3.376   1.195
 2121SOL    HW1 6381   2.727   3.351   1.101
 2121SOL    HW2 6382   2.811   3.307   1.234
 2122SOL     OW 6383   3.213   2.452   1.433
 2122SOL    HW1 6384   3.241   2.409   1.518
 2122SOL    HW2 6385   3.238   2.548   1.434
 2123SOL     OW 6386   2.665   3.264   0.924
 2123SOL    HW1 6387   2.755   3.278   0.882
 2123SOL    HW2 6388   2.594   3.266   0.853
 2124SOL     OW 6389   2.784   2.365   0.899
 2124SOL    HW1 6390   2.759   2.356   0.803
 2124SOL    HW2 6391   2.832   2.283   0.930
 2125SOL     OW 6392   2.401   1.926   0.512
 2125SOL    HW1 6393   2.320   1.927   0.570
 2125SOL    HW2 6394   2.404   2.009   0.457
 2126SOL     OW 6395   3.296   3.050   0.041
 2126SOL    HW1 6396   3.328   2.974   0.098
 2126SOL    HW2 6397   3.204   3.077   0.071
 2127SOL     OW 6398   2.159   1.897   0.171
 2127SOL    HW1 6399   2.208   1.981   0.150
 2127SOL    HW2 6400   2.221   1.832   0.216
 2128SOL     OW 6401   2.797   2.098   0.480
 2128SOL    HW1 6402   2.749   2.139   0.402
 2128SOL    HW2 6403   2.896   2.096   0.461
 2129SOL     OW 6404   2.938   2.545   1.464
 2129SOL    HW1 6405   2.858   2.484   1.467
 2129SOL    HW2 6406   3.019   2.492   1.440
 2130SOL     OW 6407   3.089   3.432   0.793
 2130SOL    HW1 6408   3.110   3.506   0.728
 2130SOL    HW2 6409   3.157   3.432   0.866
 2131SOL     OW 6410   2.321   3.014   0.741
 2131SOL    HW1 6411   2.250   2.987   0.806
 2131SOL    HW2 6412   2.295   2.986   0.648
 2132SOL     OW 6413   3.133   3.659   0.591
 2132SOL    HW1 6414   3.177   3.723   0.527
 2132SOL    HW2 6415   3.083   3.711   0.661
 2133SOL     OW 6416   2.894   2.411   0.016
 2133SOL    HW1 6417   2.853   2.493  -0.023
 2133SOL    HW2 6418   2.958   2.437   0.089
 2134SOL     OW 6419   1.940   2.418   1.386
 2134SOL    HW1 6420   2.032   2.417   1.345
 2134SOL    HW2 6421   1.934   2.492   1.453
 2135SOL     OW 6422   2.423   2.084   1.147
 2135SOL    HW1 6423   2.461   2.000   1.184
 2135SOL    HW2 6424   2.335   2.103   1.191
 2136SOL     OW 6425   2.728   2.316   0.642
 2136SOL    HW1 6426   2.696   2.388   0.580
 2136SOL    HW2 6427   2.752   2.235   0.589
 2137SOL     OW 6428   2.879   1.901   0.753
 2137SOL    HW1 6429   2.807   1.906   0.684
 2137SOL    HW2 6430   2.855   1.832   0.822
 2138SOL     OW 6431   3.291   3.035   0.867
 2138SOL    HW1 6432   3.236   2.951   0.860
 2138SOL    HW2 6433   3.317   3.064   0.775
 2139SOL     OW 6434   3.328   2.452   0.992
 2139SOL    HW1 6435   3.298   2.357   0.999
 2139SOL    HW2 6436   3.401   2.468   1.058
 2140SOL     OW 6437   3.719   2.695   0.377
 2140SOL    HW1 6438   3.761   2.631   0.441
 2140SOL    HW2 6439   3.681   2.644   0.299
 2141SOL     OW 6440   2.350   3.247   0.174
 2141SOL    HW1 6441   2.263   3.232   0.221
 2141SOL    HW2 6442   2.333   3.273   0.079
 2142SOL     OW 6443   3.526   3.142   0.657
 2142SOL    HW1 6444   3.625   3.150   0.671
 2142SOL    HW2 6445   3.481   3.226   0.688
 2143SOL     OW 6446   3.252   2.437   0.078
 2143SOL    HW1 6447   3.198   2.416   0.159
 2143SOL    HW2 6448   3.343   2.396   0.087
 2144SOL     OW 6449   2.389   2.118   0.328
 2144SOL    HW1 6450   2.416   2.059   0.253
 2144SOL    HW2 6451   2.389   2.213   0.297
 2145SOL     OW 6452   3.616   3.085   1.588
 2145SOL    HW1 6453   3.707   3.046   1.575
 2145SOL    HW2 6454   3.624   3.181   1.612
 2146SOL     OW 6455   2.926   3.209   1.340
 2146SOL    HW1 6456   2.846   3.186   1.395
 2146SOL    HW2 6457   3.009   3.183   1.389
 2147SOL     OW 6458   3.454   3.491   1.625
 2147SOL    HW1 6459   3.481   3.525   1.535
 2147SOL    HW2 6460   3.533   3.453   1.671
 2148SOL     OW 6461   2.973   3.057   1.100
 2148SOL    HW1 6462   2.933   3.101   1.181
 2148SOL    HW2 6463   2.932   3.094   1.017
 2149SOL     OW 6464   3.500   2.961   1.079
 2149SOL    HW1 6465   3.505   3.042   1.138
 2149SOL    HW2 6466   3.414   2.963   1.028
 2150SOL     OW 6467   2.777   1.951   1.402
 2150SOL    HW1 6468   2.802   1.931   1.307
 2150SOL    HW2 6469   2.849   2.007   1.444
 2151SOL     OW 6470   2.842   2.978   1.719
 2151SOL    HW1 6471   2.743   2.984   1.729
 2151SOL    HW2 6472   2.865   2.898   1.663
 2152SOL     OW 6473   2.567   2.912   0.368
 2152SOL    HW1 6474   2.553   2.919   0.467
 2152SOL    HW2 6475   2.651   2.861   0.350
 2153SOL     OW 6476   2.272   2.675   1.251
 2153SOL    HW1 6477   2.358   2.687   1.301
 2153SOL    HW2 6478   2.230   2.588   1.278
 2154SOL     OW 6479   3.136   2.248   1.262
 2154SOL    HW1 6480   3.157   2.322   1.326
 2154SOL    HW2 6481   3.047   2.265   1.219
 2155SOL     OW 6482   1.926   3.426   1.331
 2155SOL    HW1 6483   1.880   3.508   1.297
 2155SOL    HW2 6484   2.024   3.445   1.340
 2156SOL     OW 6485   2.229   2.962   0.501
 2156SOL    HW1 6486   2.222   3.045   0.445
 2156SOL    HW2 6487   2.233   2.882   0.441
 2157SOL     OW 6488   2.428   2.399   0.865
 2157SOL    HW1 6489   2.440   2.465   0.791
 2157SOL    HW2 6490   2.474   2.433   0.948
 2158SOL     OW 6491   3.114   3.210   0.388
 2158SOL    HW1 6492   3.164   3.287   0.428
 2158SOL    HW2 6493   3.019   3.212   0.420
 2159SOL     OW 6494   3.134   3.307   1.142
 2159SOL    HW1 6495   3.181   3.320   1.229
 2159SOL    HW2 6496   3.068   3.233   1.151
 2160SOL     OW 6497   3.444   2.501   0.472
 2160SOL    HW1 6498   3.413   2.562   0.545
 2160SOL    HW2 6499   3.494   2.553   0.403
 2161SOL     OW 6500   2.216   3.372   1.329
 2161SOL    HW1 6501   2.195   3.328   1.242
 2161SOL    HW2 6502   2.313   3.398   1.332
 2162SOL     OW 6503   2.264   2.613   1.598
 2162SOL    HW1 6504   2.332   2.668   1.551
 2162SOL    HW2 6505   2.304   2.525   1.625
 2163SOL     OW 6506   3.449   2.641   1.670
 2163SOL    HW1 6507   3.357   2.679   1.665
 2163SOL    HW2 6508   3.509   2.688   1.605
 2164SOL     OW 6509   2.875   1.967   1.770
 2164SOL    HW1 6510   2.881   2.052   1.718
 2164SOL    HW2 6511   2.907   1.891   1.713
 2165SOL     OW 6512   2.366   1.912   1.740
 2165SOL    HW1 6513   2.324   1.855   1.670
 2165SOL    HW2 6514   2.300   1.981   1.772
 2166SOL     OW 6515   2.435   2.732   1.029
 2166SOL    HW1 6516   2.479   2.821   1.020
 2166SOL    HW2 6517   2.372   2.732   1.106
 2167SOL     OW 6518   3.222   2.724   1.045
 2167SOL    HW1 6519   3.147   2.724   0.979
 2167SOL    HW2 6520   3.259   2.632   1.054
 2168SOL     OW 6521   3.071   2.387   0.275
 2168SOL    HW1 6522   3.084   2.303   0.329
 2168SOL    HW2 6523   3.042   2.461   0.335
 2169SOL     OW 6524   2.169   2.075   1.231
 2169SOL    HW1 6525   2.146   2.112   1.321
 2169SOL    HW2 6526   2.139   1.980   1.225
 2170SOL     OW 6527   1.899   3.172   1.282
 2170SOL    HW1 6528   1.952   3.123   1.350
 2170SOL    HW2 6529   1.921   3.270   1.287
 2171SOL     OW 6530   2.594   2.496   1.064
 2171SOL    HW1 6531   2.653   2.470   0.988
 2171SOL    HW2 6532   2.566   2.592   1.053
 2172SOL     OW 6533   3.590   2.797   1.854
 2172SOL    HW1 6534   3.544   2.790   1.765
 2172SOL    HW2 6535   3.528   2.841   1.920
 2173SOL     OW 6536   2.169   1.925   0.618
 2173SOL    HW1 6537   2.158   2.019   0.651
 2173SOL    HW2 6538   2.164   1.862   0.695
 2174SOL     OW 6539   3.484   2.229   0.374
 2174SOL    HW1 6540   3.486   2.153   0.438
 2174SOL    HW2 6541   3.436   2.306   0.414
 2175SOL     OW 6542   2.885   2.628   0.966
 2175SOL    HW1 6543   2.900   2.649   1.062
 2175SOL    HW2 6544   2.855   2.533   0.957
 2176SOL     OW 6545   2.842   3.435   1.700
 2176SOL    HW1 6546   2.822   3.479   1.612
 2176SOL    HW2 6547   2.881   3.344   1.684
 2177SOL     OW 6548   3.721   3.380   1.605
 2177SOL    HW1 6549   3.735   3.407   1.510
 2177SOL    HW2 6550   3.804   3.402   1.658
 2178SOL     OW 6551   2.212   2.760   1.804
 2178SOL    HW1 6552   2.288   2.804   1.852
 2178SOL    HW2 6553   2.247   2.713   1.722
 2179SOL     OW 6554   3.402   2.136   0.125
 2179SOL    HW1 6555   3.341   2.061   0.148
 2179SOL    HW2 6556   3.424   2.188   0.208
 2180SOL     OW 6557   3.165   2.700   0.042
 2180SOL    HW1 6558   3.199   2.607   0.057
 2180SOL    HW2 6559   3.183   2.727  -0.053
 2181SOL     OW 6560   2.930   3.195   0.849
 2181SOL    HW1 6561   2.937   3.111   0.794
 2181SOL    HW2 6562   2.992   3.264   0.813
 2182SOL     OW 6563   2.181   2.672   0.949
 2182SOL    HW1 6564   2.274   2.708   0.954
 2182SOL    HW2 6565   2.175   2.587   1.001
 2183SOL     OW 6566   2.201   2.371   1.006
 2183SOL    HW1 6567   2.149   2.288   0.989
 2183SOL    HW2 6568   2.278   2.376   0.942
 2184SOL     OW 6569   3.000   2.242   1.678
 2184SOL    HW1 6570   2.955   2.305   1.742
 2184SOL    HW2 6571   3.093   2.273   1.661
 2185SOL     OW 6572   3.022   2.069   1.477
 2185SOL    HW1 6573   3.022   2.133   1.554
 2185SOL    HW2 6574   3.050   2.117   1.394
 2186SOL     OW 6575   1.870   3.188   0.200
 2186SOL    HW1 6576   1.777   3.209   0.169
 2186SOL    HW2 6577   1.880   3.089   0.213
 2187SOL     OW 6578   1.950   3.663   0.927
 2187SOL    HW1 6579   1.908   3.577   0.900
 2187SOL    HW2 6580   2.044   3.666   0.893
 2188SOL     OW 6581   2.366   3.430   0.910
 2188SOL    HW1 6582   2.432   3.504   0.919
 2188SOL    HW2 6583   2.410   3.351   0.868
 2189SOL     OW 6584   2.864   2.658   1.238
 2189SOL    HW1 6585   2.905   2.626   1.324
 2189SOL    HW2 6586   2.768   2.631   1.235
 2190SOL     OW 6587   1.902   2.406   1.114
 2190SOL    HW1 6588   1.987   2.373   1.073
 2190SOL    HW2 6589   1.915   2.421   1.212
 2191SOL     OW 6590   2.051   2.382   1.722
 2191SOL    HW1 6591   2.110   2.342   1.652
 2191SOL    HW2 6592   1.993   2.453   1.681
 2192SOL     OW 6593   3.231   2.812   1.660
 2192SOL    HW1 6594   3.270   2.901   1.680
 2192SOL    HW2 6595   3.241   2.792   1.563
 2193SOL     OW 6596   2.677   2.434   0.325
 2193SOL    HW1 6597   2.684   2.345   0.279
 2193SOL    HW2 6598   2.583   2.468   0.317
 2194SOL     OW 6599   3.519   2.466   1.206
 2194SOL    HW1 6600   3.481   2.397   1.268
 2194SOL    HW2 6601   3.601   2.430   1.162
 2195SOL     OW 6602   2.114   3.426   1.744
 2195SOL    HW1 6603   2.084   3.483   1.820
 2195SOL    HW2 6604   2.107   3.329   1.770
 2196SOL     OW 6605   2.533   2.326   1.269
 2196SOL    HW1 6606   2.499   2.237   1.239
 2196SOL    HW2 6607   2.559   2.380   1.189
 2197SOL     OW 6608   2.792   3.540   1.465
 2197SOL    HW1 6609   2.768   3.522   1.370
 2197SOL    HW2 6610   2.822   3.634   1.475
 2198SOL     OW 6611   2.335   2.362   0.191
 2198SOL    HW1 6612   2.396   2.442   0.195
 2198SOL    HW2 6613   2.240   2.393   0.198
 2199SOL     OW 6614   2.021   2.999   1.466
 2199SOL    HW1 6615   2.043   2.938   1.542
 2199SOL    HW2 6616   2.031   2.950   1.380
 2200SOL     OW 6617   3.209   2.921   1.234
 2200SOL    HW1 6618   3.233   2.858   1.160
 2200SOL    HW2 6619   3.119   2.961   1.216
 2201SOL     OW 6620   3.164   2.717   0.309
 2201SOL    HW1 6621   3.078   2.686   0.351
 2201SOL    HW2 6622   3.160   2.703   0.210
 2202SOL     OW 6623   3.621   3.609   1.154
 2202SOL    HW1 6624   3.682   3.639   1.081
 2202SOL    HW2 6625   3.583   3.520   1.132
 2203SOL     OW 6626   3.114   3.593   1.128
 2203SOL    HW1 6627   3.198   3.598   1.074
 2203SOL    HW2 6628   3.091   3.497   1.146
 2204SOL     OW 6629   1.945   3.120   1.022
 2204SOL    HW1 6630   1.940   3.119   1.122
 2204SOL    HW2 6631   1.862   3.079   0.984
 2205SOL     OW 6632   2.550   3.524   1.716
 2205SOL    HW1 6633   2.494   3.605   1.725
 2205SOL    HW2 6634   2.602   3.528   1.630
 2206SOL     OW 6635   2.765   1.948   0.133
 2206SOL    HW1 6636   2.816   1.949   0.047
 2206SOL    HW2 6637   2.821   1.906   0.204
 2207SOL     OW 6638   3.588   1.997   0.523
 2207SOL    HW1 6639   3.661   1.980   0.456
 2207SOL    HW2 6640   3.557   1.910   0.561
 2208SOL     OW 6641   3.250   3.435   0.477
 2208SOL    HW1 6642   3.317   3.447   0.403
 2208SOL    HW2 6643   3.210   3.524   0.500
 2209SOL     OW 6644   1.992   3.656   1.851
 2209SOL    HW1 6645   1.951   3.582   1.904
 2209SOL    HW2 6646   2.056   3.707   1.909
 2210SOL     OW 6647   3.142   2.789   0.672
 2210SOL    HW1 6648   3.202   2.708   0.674
 2210SOL    HW2 6649   3.182   2.858   0.612
 2211SOL     OW 6650   2.692   3.135   1.422
 2211SOL    HW1 6651   2.687   3.168   1.517
 2211SOL    HW2 6652   2.606   3.154   1.376
 2212SOL     OW 6653   2.534   3.478   0.154
 2212SOL    HW1 6654   2.543   3.488   0.055
 2212SOL    HW2 6655   2.494   3.389   0.175
 2213SOL     OW 6656   3.512   3.582   1.394
 2213SOL    HW1 6657   3.565   3.592   1.310
 2213SOL    HW2 6658   3.485   3.672   1.428
 2214SOL     OW 6659   3.703   2.037   0.963
 2214SOL    HW1 6660   3.742   1.952   0.927
 2214SOL    HW2 6661   3.605   2.039   0.944
 2215SOL     OW 6662   2.125   2.188   0.720
 2215SOL    HW1 6663   2.046   2.239   0.686
 2215SOL    HW2 6664   2.116   2.173   0.818
 2216SOL     OW 6665   3.056   3.474   0.031
 2216SOL    HW1 6666   3.062   3.381   0.068
 2216SOL    HW2 6667   2.997   3.474  -0.049
 2217SOL     OW 6668   2.684   2.864   1.372
 2217SOL    HW1 6669   2.724   2.863   1.280
 2217SOL    HW2 6670   2.694   2.956   1.412
 2218SOL     OW 6671   2.778   2.772   0.291
 2218SOL    HW1 6672   2.841   2.810   0.223
 2218SOL    HW2 6673   2.818   2.689   0.330
 2219SOL     OW 6674   3.366   3.469   0.044
 2219SOL    HW1 6675   3.274   3.506   0.051
 2219SOL    HW2 6676   3.404   3.489  -0.046
 2220SOL     OW 6677   2.234   3.150   1.490
 2220SOL    HW1 6678   2.221   3.243   1.456
 2220SOL    HW2 6679   2.150   3.098   1.477
 2221SOL     OW 6680   3.476   3.154   1.289
 2221SOL    HW1 6681   3.536   3.157   1.369
 2221SOL    HW2 6682   3.401   3.218   1.302
 2222SOL     OW 6683   2.901   2.960   0.696
 2222SOL    HW1 6684   2.831   2.913   0.750
 2222SOL    HW2 6685   2.960   2.892   0.653
 2223SOL     OW 6686   2.876   2.098   0.971
 2223SOL    HW1 6687   2.868   2.062   0.878
 2223SOL    HW2 6688   2.874   2.022   1.036
 2224SOL     OW 6689   2.452   3.349   0.491
 2224SOL    HW1 6690   2.494   3.291   0.421
 2224SOL    HW2 6691   2.408   3.428   0.447
 2225SOL     OW 6692   3.571   2.247   1.381
 2225SOL    HW1 6693   3.644   2.316   1.385
 2225SOL    HW2 6694   3.599   2.172   1.322
 2226SOL     OW 6695   2.117   3.210   0.290
 2226SOL    HW1 6696   2.021   3.211   0.263
 2226SOL    HW2 6697   2.129   3.263   0.374
 2227SOL     OW 6698   1.967   2.875   1.726
 2227SOL    HW1 6699   1.890   2.842   1.780
 2227SOL    HW2 6700   2.052   2.845   1.768
 2228SOL     OW 6701   2.534   2.065   1.489
 2228SOL    HW1 6702   2.624   2.049   1.449
 2228SOL    HW2 6703   2.542   2.070   1.588
 2229SOL     OW 6704   3.302   2.718   1.398
 2229SOL    HW1 6705   3.245   2.770   1.335
 2229SOL    HW2 6706   3.398   2.730   1.374
 2230SOL     OW 6707   1.934   2.028   0.318
 2230SOL    HW1 6708   1.917   2.111   0.264
 2230SOL    HW2 6709   2.024   1.991   0.296
 2231SOL     OW 6710   3.045   3.197   0.119
 2231SOL    HW1 6711   2.946   3.186   0.121
 2231SOL    HW2 6712   3.079   3.212   0.212
 2232SOL     OW 6713   2.475   2.704   1.431
 2232SOL    HW1 6714   2.531   2.785   1.414
 2232SOL    HW2 6715   2.534   2.624   1.434
 2233SOL     OW 6716   3.355   3.629   0.959
 2233SOL    HW1 6717   3.388   3.693   0.890
 2233SOL    HW2 6718   3.421   3.623   1.034
 2234SOL     OW 6719   2.578   2.427   1.708
 2234SOL    HW1 6720   2.597   2.492   1.782
 2234SOL    HW2 6721   2.638   2.347   1.717
 2235SOL     OW 6722   3.312   3.082   1.633
 2235SOL    HW1 6723   3.303   3.072   1.732
 2235SOL    HW2 6724   3.408   3.075   1.607
 2236SOL     OW 6725   2.252   3.603   1.560
 2236SOL    HW1 6726   2.161   3.644   1.558
 2236SOL    HW2 6727   2.245   3.509   1.592
 2237SOL     OW 6728   3.536   2.745   1.254
 2237SOL    HW1 6729   3.509   2.656   1.217
 2237SOL    HW2 6730   3.537   2.813   1.181
 2238SOL     OW 6731   3.087   2.187   0.449
 2238SOL    HW1 6732   3.152   2.113   0.438
 2238SOL    HW2 6733   3.107   2.237   0.533
 2239SOL     OW 6734   2.456   2.607   0.652
 2239SOL    HW1 6735   2.506   2.692   0.633
 2239SOL    HW2 6736   2.368   2.609   0.604
 2240SOL     OW 6737   3.639   2.204   1.642
 2240SOL    HW1 6738   3.622   2.235   1.548
 2240SOL    HW2 6739   3.555   2.167   1.680
 2241SOL     OW 6740   3.592   2.796   1.517
 2241SOL    HW1 6741   3.630   2.887   1.532
 2241SOL    HW2 6742   3.584   2.779   1.418
 2242SOL     OW 6743   2.721   3.236   0.016
 2242SOL    HW1 6744   2.675   3.251   0.104
 2242SOL    HW2 6745   2.765   3.321  -0.014
 2243SOL     OW 6746   2.523   3.652   0.953
 2243SOL    HW1 6747   2.477   3.740   0.940
 2243SOL    HW2 6748   2.622   3.664   0.946
 2244SOL     OW 6749   2.721   2.818   0.861
 2244SOL    HW1 6750   2.775   2.749   0.909
 2244SOL    HW2 6751   2.689   2.887   0.927
 2245SOL     OW 6752   2.945   2.846   0.087
 2245SOL    HW1 6753   2.922   2.899   0.005
 2245SOL    HW2 6754   3.026   2.790   0.068
 2246SOL     OW 6755   3.723   3.431   0.851
 2246SOL    HW1 6756   3.652   3.419   0.781
 2246SOL    HW2 6757   3.724   3.352   0.911
 2247SOL     OW 6758   2.083   3.176   1.844
 2247SOL    HW1 6759   2.018   3.103   1.823
 2247SOL    HW2 6760   2.087   3.190   1.942
 2248SOL     OW 6761   1.941   3.102   0.653
 2248SOL    HW1 6762   1.940   3.055   0.741
 2248SOL    HW2 6763   2.023   3.074   0.602
 2249SOL     OW 6764   2.534   3.253   1.624
 2249SOL    HW1 6765   2.456   3.203   1.662
 2249SOL    HW2 6766   2.531   3.348   1.655
 2250SOL     OW 6767   3.686   2.054   1.227
 2250SOL    HW1 6768   3.682   1.964   1.271
 2250SOL    HW2 6769   3.689   2.043   1.128
 2251SOL     OW 6770   2.290   2.286   0.520
 2251SOL    HW1 6771   2.320   2.214   0.458
 2251SOL    HW2 6772   2.251   2.246   0.603
 2252SOL     OW 6773   3.567   3.349   1.104
 2252SOL    HW1 6774   3.474   3.324   1.077
 2252SOL    HW2 6775   3.593   3.299   1.186
 2253SOL     OW 6776   2.179   2.409   1.280
 2253SOL    HW1 6777   2.217   2.350   1.352
 2253SOL    HW2 6778   2.219   2.383   1.192
 2254SOL     OW 6779   2.674   3.448   0.687
 2254SOL    HW1 6780   2.706   3.458   0.593
 2254SOL    HW2 6781   2.595   3.386   0.689
 2255SOL     OW 6782   3.286   2.076   1.112
 2255SOL    HW1 6783   3.338   2.011   1.167
 2255SOL    HW2 6784   3.237   2.139   1.173
 2256SOL     OW 6785   2.863   1.896   1.154
 2256SOL    HW1 6786   2.800   1.824   1.123
 2256SOL    HW2 6787   2.956   1.860   1.154
 2257SOL     OW 6788   2.632   3.192   0.301
 2257SOL    HW1 6789   2.586   3.105   0.318
 2257SOL    HW2 6790   2.723   3.189   0.342
 2258SOL     OW 6791   2.480   3.429   1.284
 2258SOL    HW1 6792   2.475   3.511   1.341
 2258SOL    HW2 6793   2.569   3.426   1.239
 2259SOL     OW 6794   3.214   1.914   0.168
 2259SOL    HW1 6795   3.249   1.873   0.084
 2259SOL    HW2 6796   3.124   1.876   0.188
 2260SOL     OW 6797   3.162   2.315   0.691
 2260SOL    HW1 6798   3.103   2.395   0.695
 2260SOL    HW2 6799   3.177   2.280   0.784
 2261SOL     OW 6800   3.455   2.083   0.882
 2261SOL    HW1 6801   3.371   2.082   0.936
 2261SOL    HW2 6802   3.457   2.166   0.826
 2262SOL     OW 6803   1.901   2.939   0.300
 2262SOL    HW1 6804   2.000   2.928   0.291
 2262SOL    HW2 6805   1.861   2.853   0.332
 2263SOL     OW 6806   2.737   3.508   0.337
 2263SOL    HW1 6807   2.660   3.473   0.283
 2263SOL    HW2 6808   2.705   3.579   0.399
 2264SOL     OW 6809   2.092   2.490   1.975
 2264SOL    HW1 6810   1.999   2.488   2.012
 2264SOL    HW2 6811   2.093   2.451   1.883
 2265SOL     OW 6812   2.087   2.137   2.858
 2265SOL    HW1 6813   2.122   2.120   2.950
 2265SOL    HW2 6814   1.999   2.092   2.846
 2266SOL     OW 6815   1.881   2.230   2.509
 2266SOL    HW1 6816   1.799   2.273   2.548
 2266SOL    HW2 6817   1.853   2.157   2.446
 2267SOL     OW 6818   2.431   3.137   3.027
 2267SOL    HW1 6819   2.338   3.130   2.990
 2267SOL    HW2 6820   2.442   3.226   3.071
 2268SOL     OW 6821   3.417   3.373   2.565
 2268SOL    HW1 6822   3.360   3.357   2.646
 2268SOL    HW2 6823   3.358   3.383   2.485
 2269SOL     OW 6824   2.997   2.565   2.579
 2269SOL    HW1 6825   3.054   2.643   2.554
 2269SOL    HW2 6826   2.937   2.591   2.655
 2270SOL     OW 6827   3.617   2.469   2.093
 2270SOL    HW1 6828   3.605   2.456   1.994
 2270SOL    HW2 6829   3.587   2.388   2.142
 2271SOL     OW 6830   2.630   3.006   2.885
 2271SOL    HW1 6831   2.552   3.023   2.945
 2271SOL    HW2 6832   2.664   3.093   2.849
 2272SOL     OW 6833   2.712   2.660   3.685
 2272SOL    HW1 6834   2.708   2.736   3.750
 2272SOL    HW2 6835   2.734   2.696   3.594
 2273SOL     OW 6836   2.547   2.874   2.527
 2273SOL    HW1 6837   2.616   2.858   2.597
 2273SOL    HW2 6838   2.474   2.931   2.565
 2274SOL     OW 6839   2.548   3.023   3.665
 2274SOL    HW1 6840   2.608   3.102   3.679
 2274SOL    HW2 6841   2.462   3.054   3.624
 2275SOL     OW 6842   2.197   3.297   2.923
 2275SOL    HW1 6843   2.119   3.266   2.870
 2275SOL    HW2 6844   2.255   3.355   2.866
 2276SOL     OW 6845   3.322   3.367   3.201
 2276SOL    HW1 6846   3.346   3.461   3.227
 2276SOL    HW2 6847   3.306   3.313   3.283
 2277SOL     OW 6848   2.300   2.254   3.361
 2277SOL    HW1 6849   2.382   2.198   3.370
 2277SOL    HW2 6850   2.219   2.196   3.365
 2278SOL     OW 6851   3.465   2.309   2.599
 2278SOL    HW1 6852   3.391   2.355   2.549
 2278SOL    HW2 6853   3.516   2.377   2.652
 2279SOL     OW 6854   2.093   3.575   2.345
 2279SOL    HW1 6855   2.127   3.652   2.399
 2279SOL    HW2 6856   2.137   3.575   2.255
 2280SOL     OW 6857   2.989   3.203   3.552
 2280SOL    HW1 6858   3.036   3.203   3.640
 2280SOL    HW2 6859   2.941   3.116   3.541
 2281SOL     OW 6860   2.092   3.296   2.400
 2281SOL    HW1 6861   2.066   3.392   2.400
 2281SOL    HW2 6862   2.021   3.242   2.445
 2282SOL     OW 6863   2.102   2.953   2.748
 2282SOL    HW1 6864   2.116   2.869   2.800
 2282SOL    HW2 6865   2.047   3.017   2.803
 2283SOL     OW 6866   2.482   3.648   3.301
 2283SOL    HW1 6867   2.390   3.631   3.336
 2283SOL    HW2 6868   2.510   3.740   3.327
 2284SOL     OW 6869   2.468   2.826   1.985
 2284SOL    HW1 6870   2.475   2.910   1.931
 2284SOL    HW2 6871   2.514   2.839   2.073
 2285SOL     OW 6872   3.456   1.976   3.342
 2285SOL    HW1 6873   3.438   2.043   3.270
 2285SOL    HW2 6874   3.453   2.022   3.431
 2286SOL     OW 6875   1.984   2.505   2.425
 2286SOL    HW1 6876   1.939   2.417   2.442
 2286SOL    HW2 6877   1.983   2.559   2.509
 2287SOL     OW 6878   3.704   3.629   2.221
 2287SOL    HW1 6879   3.758   3.600   2.301
 2287SOL    HW2 6880   3.734   3.719   2.192
 2288SOL     OW 6881   1.889   3.458   1.979
 2288SOL    HW1 6882   1.870   3.362   2.000
 2288SOL    HW2 6883   1.856   3.516   2.054
 2289SOL     OW 6884   3.551   2.784   2.474
 2289SOL    HW1 6885   3.646   2.755   2.482
 2289SOL    HW2 6886   3.543   2.849   2.399
 2290SOL     OW 6887   3.503   2.970   2.294
 2290SOL    HW1 6888   3.589   2.972   2.242
 2290SOL    HW2 6889   3.517   3.017   2.382
 2291SOL     OW 6890   1.975   2.599   3.459
 2291SOL    HW1 6891   2.063   2.586   3.504
 2291SOL    HW2 6892   1.962   2.696   3.437
 2292SOL     OW 6893   2.475   3.227   2.588
 2292SOL    HW1 6894   2.426   3.140   2.597
 2292SOL    HW2 6895   2.452   3.270   2.501
 2293SOL     OW 6896   3.155   3.090   3.285
 2293SOL    HW1 6897   3.192   3.017   3.227
 2293SOL    HW2 6898   3.207   3.095   3.370
 2294SOL     OW 6899   2.671   1.866   2.364
 2294SOL    HW1 6900   2.711   1.957   2.355
 2294SOL    HW2 6901   2.571   1.874   2.370
 2295SOL     OW 6902   2.059   2.838   3.126
 2295SOL    HW1 6903   2.148   2.793   3.112
 2295SOL    HW2 6904   1.986   2.773   3.107
 2296SOL     OW 6905   3.387   2.861   2.052
 2296SOL    HW1 6906   3.324   2.785   2.065
 2296SOL    HW2 6907   3.435   2.879   2.138
 2297SOL     OW 6908   3.049   3.654   3.478
 2297SOL    HW1 6909   3.073   3.714   3.402
 2297SOL    HW2 6910   3.056   3.559   3.448
 2298SOL     OW 6911   2.179   2.113   3.663
 2298SOL    HW1 6912   2.250   2.184   3.669
 2298SOL    HW2 6913   2.091   2.152   3.691
 2299SOL     OW 6914   3.328   3.279   2.815
 2299SOL    HW1 6915   3.269   3.285   2.895
 2299SOL    HW2 6916   3.313   3.191   2.769
 2300SOL     OW 6917   3.529   3.576   2.434
 2300SOL    HW1 6918   3.488   3.553   2.346
 2300SOL    HW2 6919   3.511   3.502   2.499
 2301SOL     OW 6920   2.460   2.591   2.132
 2301SOL    HW1 6921   2.484   2.660   2.064
 2301SOL    HW2 6922   2.382   2.624   2.186
 2302SOL     OW 6923   3.143   2.207   2.806
 2302SOL    HW1 6924   3.057   2.157   2.793
 2302SOL    HW2 6925   3.205   2.153   2.862
 2303SOL     OW 6926   3.438   3.524   2.169
 2303SOL    HW1 6927   3.527   3.570   2.172
 2303SOL    HW2 6928   3.417   3.500   2.074
 2304SOL     OW 6929   2.669   2.467   3.327
 2304SOL    HW1 6930   2.622   2.464   3.416
 2304SOL    HW2 6931   2.618   2.412   3.261
 2305SOL     OW 6932   3.256   2.331   3.536
 2305SOL    HW1 6933   3.236   2.374   3.624
 2305SOL    HW2 6934   3.334   2.269   3.545
 2306SOL     OW 6935   2.835   2.752   3.434
 2306SOL    HW1 6936   2.881   2.668   3.405
 2306SOL    HW2 6937   2.779   2.786   3.359
 2307SOL     OW 6938   2.853   2.272   3.104
 2307SOL    HW1 6939   2.776   2.306   3.158
 2307SOL    HW2 6940   2.819   2.221   3.025
 2308SOL     OW 6941   1.938   2.673   2.651
 2308SOL    HW1 6942   2.037   2.661   2.660
 2308SOL    HW2 6943   1.914   2.768   2.672
 2309SOL     OW 6944   1.992   3.683   3.433
 2309SOL    HW1 6945   1.982   3.668   3.532
 2309SOL    HW2 6946   1.906   3.719   3.397
 2310SOL     OW 6947   2.727   2.210   2.057
 2310SOL    HW1 6948   2.786   2.273   2.008
 2310SOL    HW2 6949   2.746   2.116   2.028
 2311SOL     OW 6950   3.581   2.447   3.693
 2311SOL    HW1 6951   3.555   2.536   3.657
 2311SOL    HW2 6952   3.579   2.379   3.620
 2312SOL     OW 6953   3.224   3.006   2.407
 2312SOL    HW1 6954   3.307   2.977   2.359
 2312SOL    HW2 6955   3.175   3.073   2.351
 2313SOL     OW 6956   2.412   2.058   2.747
 2313SOL    HW1 6957   2.407   2.053   2.847
 2313SOL    HW2 6958   2.414   2.154   2.718
 2314SOL     OW 6959   2.870   3.318   2.339
 2314SOL    HW1 6960   2.824   3.390   2.287
 2314SOL    HW2 6961   2.866   3.338   2.437
 2315SOL     OW 6962   2.213   3.663   2.715
 2315SOL    HW1 6963   2.263   3.577   2.721
 2315SOL    HW2 6964   2.278   3.740   2.712
 2316SOL     OW 6965   3.657   2.928   2.735
 2316SOL    HW1 6966   3.595   2.913   2.659
 2316SOL    HW2 6967   3.605   2.939   2.820
 2317SOL     OW 6968   3.089   3.412   3.368
 2317SOL    HW1 6969   3.095   3.335   3.432
 2317SOL    HW2 6970   3.037   3.386   3.288
 2318SOL     OW 6971   2.183   2.805   2.104
 2318SOL    HW1 6972   2.265   2.844   2.062
 2318SOL    HW2 6973   2.156   2.723   2.055
 2319SOL     OW 6974   3.320   2.597   2.590
 2319SOL    HW1 6975   3.315   2.532   2.665
 2319SOL    HW2 6976   3.400   2.656   2.603
 2320SOL     OW 6977   2.323   3.128   3.589
 2320SOL    HW1 6978   2.273   3.129   3.503
 2320SOL    HW2 6979   2.260   3.110   3.665
 2321SOL     OW 6980   2.973   3.638   2.099
 2321SOL    HW1 6981   2.913   3.576   2.149
 2321SOL    HW2 6982   3.004   3.594   2.014
 2322SOL     OW 6983   2.064   2.147   3.360
 2322SOL    HW1 6984   1.984   2.207   3.347
 2322SOL    HW2 6985   2.054   2.098   3.446
 2323SOL     OW 6986   3.494   3.239   1.943
 2323SOL    HW1 6987   3.462   3.333   1.933
 2323SOL    HW2 6988   3.418   3.176   1.931
 2324SOL     OW 6989   2.326   3.605   2.185
 2324SOL    HW1 6990   2.359   3.644   2.271
 2324SOL    HW2 6991   2.402   3.598   2.120
 2325SOL     OW 6992   3.262   1.969   2.288
 2325SOL    HW1 6993   3.238   1.932   2.198
 2325SOL    HW2 6994   3.361   1.985   2.292
 2326SOL     OW 6995   2.111   3.647   3.103
 2326SOL    HW1 6996   2.168   3.582   3.153
 2326SOL    HW2 6997   2.095   3.614   3.010
 2327SOL     OW 6998   2.802   3.560   2.766
 2327SOL    HW1 6999   2.882   3.503   2.787
 2327SOL    HW2 7000   2.753   3.520   2.689
 2328SOL     OW 7001   3.409   2.084   3.591
 2328SOL    HW1 7002   3.404   2.121   3.683
 2328SOL    HW2 7003   3.337   2.015   3.579
 2329SOL     OW 7004   2.476   1.984   1.979
 2329SOL    HW1 7005   2.574   1.962   1.986
 2329SOL    HW2 7006   2.445   1.967   1.886
 2330SOL     OW 7007   2.643   2.126   3.611
 2330SOL    HW1 7008   2.710   2.065   3.654
 2330SOL    HW2 7009   2.570   2.145   3.676
 2331SOL     OW 7010   2.750   3.376   3.057
 2331SOL    HW1 7011   2.727   3.351   2.963
 2331SOL    HW2 7012   2.811   3.307   3.096
 2332SOL     OW 7013   3.213   2.452   3.295
 2332SOL    HW1 7014   3.241   2.409   3.380
 2332SOL    HW2 7015   3.238   2.548   3.296
 2333SOL     OW 7016   2.665   3.264   2.786
 2333SOL    HW1 7017   2.755   3.278   2.744
 2333SOL    HW2 7018   2.594   3.266   2.715
 2334SOL     OW 7019   2.784   2.365   2.761
 2334SOL    HW1 7020   2.759   2.356   2.665
 2334SOL    HW2 7021   2.832   2.283   2.792
 2335SOL     OW 7022   2.401   1.926   2.374
 2335SOL    HW1 7023   2.320   1.927   2.432
 2335SOL    HW2 7024   2.404   2.009   2.319
 2336SOL     OW 7025   3.296   3.050   1.903
 2336SOL    HW1 7026   3.328   2.974   1.960
 2336SOL    HW2 7027   3.204   3.077   1.933
 2337SOL     OW 7028   2.159   1.897   2.033
 2337SOL    HW1 7029   2.208   1.981   2.012
 2337SOL    HW2 7030   2.221   1.832   2.078
 2338SOL     OW 7031   2.797   2.098   2.342
 2338SOL    HW1 7032   2.749   2.139   2.264
 2338SOL    HW2 7033   2.896   2.096   2.323
 2339SOL     OW 7034   2.938   2.545   3.326
 2339SOL    HW1 7035   2.858   2.484   3.329
 2339SOL    HW2 7036   3.019   2.492   3.302
 2340SOL     OW 7037   3.089   3.432   2.655
 2340SOL    HW1 7038   3.110   3.506   2.590
 2340SOL    HW2 7039   3.157   3.432   2.728
 2341SOL     OW 7040   2.321   3.014   2.603
 2341SOL    HW1 7041   2.250   2.987   2.668
 2341SOL    HW2 7042   2.295   2.986   2.510
 2342SOL     OW 7043   3.133   3.659   2.453
 2342SOL    HW1 7044   3.177   3.723   2.389
 2342SOL    HW2 7045   3.083   3.711   2.523
 2343SOL     OW 7046   2.894   2.411   1.878
 2343SOL    HW1 7047   2.853   2.493   1.839
 2343SOL    HW2 7048   2.958   2.437   1.951
 2344SOL     OW 7049   1.940   2.418   3.248
 2344SOL    HW1 7050   2.032   2.417   3.207
 2344SOL    HW2 7051   1.934   2.492   3.315
 2345SOL     OW 7052   2.423   2.084   3.009
 2345SOL    HW1 7053   2.461   2.000   3.046
 2345SOL    HW2 7054   2.335   2.103   3.053
 2346SOL     OW 7055   2.879   1.901   2.615
 2346SOL    HW1 7056   2.807   1.906   2.546
 2346SOL    HW2 7057   2.855   1.832   2.684
 2347SOL     OW 7058   3.291   3.035   2.729
 2347SOL    HW1 7059   3.236   2.951   2.722
 2347SOL    HW2 7060   3.317   3.064   2.637
 2348SOL     OW 7061   3.328   2.452   2.854
 2348SOL    HW1 7062   3.298   2.357   2.861
 2348SOL    HW2 7063   3.401   2.468   2.920
 2349SOL     OW 7064   3.719   2.695   2.239
 2349SOL    HW1 7065   3.761   2.631   2.303
 2349SOL    HW2 7066   3.681   2.644   2.161
 2350SOL     OW 7067   2.350   3.247   2.036
 2350SOL    HW1 7068   2.263   3.232   2.083
 2350SOL    HW2 7069   2.333   3.273   1.941
 2351SOL     OW 7070   3.526   3.142   2.519
 2351SOL    HW1 7071   3.625   3.150   2.533
 2351SOL    HW2 7072   3.481   3.226   2.550
 2352SOL     OW 7073   3.252   2.437   1.940
 2352SOL    HW1 7074   3.198   2.416   2.021
 2352SOL    HW2 7075   3.343   2.396   1.949
 2353SOL     OW 7076   2.389   2.118   2.190
 2353SOL    HW1 7077   2.416   2.059   2.115
 2353SOL    HW2 7078   2.389   2.213   2.159
 2354SOL     OW 7079   3.616   3.085   3.450
 2354SOL    HW1 7080   3.707   3.046   3.437
 2354SOL    HW2 7081   3.624   3.181   3.474
 2355SOL     OW 7082   2.926   3.209   3.202
 2355SOL    HW1 7083   2.846   3.186   3.257
 2355SOL    HW2 7084   3.009   3.183   3.251
 2356SOL     OW 7085   3.454   3.491   3.487
 2356SOL    HW1 7086   3.481   3.525   3.397
 2356SOL    HW2 7087   3.533   3.453   3.533
 2357SOL     OW 7088   2.973   3.057   2.962
 2357SOL    HW1 7089   2.933   3.101   3.043
 2357SOL    HW2 7090   2.932   3.094   2.879
 2358SOL     OW 7091   3.500   2.961   2.941
 2358SOL    HW1 7092   3.505   3.042   3.000
 2358SOL    HW2 7093   3.414   2.963   2.890
 2359SOL     OW 7094   2.777   1.951   3.264
 2359SOL    HW1 7095   2.802   1.931   3.169
 2359SOL    HW2 7096   2.849   2.007   3.306
 2360SOL     OW 7097   2.842   2.978   3.581
 2360SOL    HW1 7098   2.743   2.984   3.591
 2360SOL    HW2 7099   2.865   2.898   3.525
 2361SOL     OW 7100   2.567   2.912   2.230
 2361SOL    HW1 7101   2.553   2.919   2.329
 2361SOL    HW2 7102   2.651   2.861   2.212
 2362SOL     OW 7103   2.272   2.675   3.113
 2362SOL    HW1 7104   2.358   2.687   3.163
 2362SOL    HW2 7105   2.230   2.588   3.140
 2363SOL     OW 7106   3.136   2.248   3.124
 2363SOL    HW1 7107   3.157   2.322   3.188
 2363SOL    HW2 7108   3.047   2.265   3.081
 2364SOL     OW 7109   1.926   3.426   3.193
 2364SOL    HW1 7110   1.880   3.508   3.159
 2364SOL    HW2 7111   2.024   3.445   3.202
 2365SOL     OW 7112   2.229   2.962   2.363
 2365SOL    HW1 7113   2.222   3.045   2.307
 2365SOL    HW2 7114   2.233   2.882   2.303
 2366SOL     OW 7115   3.114   3.210   2.250
 2366SOL    HW1 7116   3.164   3.287   2.290
 2366SOL    HW2 7117   3.019   3.212   2.282
 2367SOL     OW 7118   3.134   3.307   3.004
 2367SOL    HW1 7119   3.181   3.320   3.091
 2367SOL    HW2 7120   3.068   3.233   3.013
 2368SOL     OW 7121   3.444   2.501   2.334
 2368SOL    HW1 7122   3.413   2.562   2.407
 2368SOL    HW2 7123   3.494   2.553   2.265
 2369SOL     OW 7124   2.216   3.372   3.191
 2369SOL    HW1 7125   2.195   3.328   3.104
 2369SOL    HW2 7126   2.313   3.398   3.194
 2370SOL     OW 7127   2.264   2.613   3.460
 2370SOL    HW1 7128   2.332   2.668   3.413
 2370SOL    HW2 7129   2.304   2.525   3.487
 2371SOL     OW 7130   3.449   2.641   3.532
 2371SOL    HW1 7131   3.357   2.679   3.527
 2371SOL    HW2 7132   3.509   2.688   3.467
 2372SOL     OW 7133   2.875   1.967   3.632
 2372SOL    HW1 7134   2.881   2.052   3.580
 2372SOL    HW2 7135   2.907   1.891   3.575
 2373SOL     OW 7136   2.366   1.912   3.602
 2373SOL    HW1 7137   2.324   1.855   3.532
 2373SOL    HW2 7138   2.300   1.981   3.634
 2374SOL     OW 7139   2.435   2.732   2.891
 2374SOL    HW1 7140   2.479   2.821   2.882
 2374SOL    HW2 7141   2.372   2.732   2.968
 2375SOL     OW 7142   3.222   2.724   2.907
 2375SOL    HW1 7143   3.147   2.724   2.841
 2375SOL    HW2 7144   3.259   2.632   2.916
 2376SOL     OW 7145   3.071   2.387   2.137
 2376SOL    HW1 7146   3.084   2.303   2.191
 2376SOL    HW2 7147   3.042   2.461   2.197
 2377SOL     OW 7148   2.169   2.075   3.093
 2377SOL    HW1 7149   2.146   2.112   3.183
 2377SOL    HW2 7150   2.139   1.980   3.087
 2378SOL     OW 7151   1.899   3.172   3.144
 2378SOL    HW1 7152   1.952   3.123   3.212
 2378SOL    HW2 7153   1.921   3.270   3.149
 2379SOL     OW 7154   2.594   2.496   2.926
 2379SOL    HW1 7155   2.653   2.470   2.850
 2379SOL    HW2 7156   2.566   2.592   2.915
 2380SOL     OW 7157   3.590   2.797   3.716
 2380SOL    HW1 7158   3.544   2.790   3.627
 2380SOL    HW2 7159   3.528   2.841   3.782
 2381SOL     OW 7160   2.169   1.925   2.480
 2381SOL    HW1 7161   2.158   2.019   2.513
 2381SOL    HW2 7162   2.164   1.862   2.557
 2382SOL     OW 7163   3.484   2.229   2.236
 2382SOL    HW1 7164   3.486   2.153   2.300
 2382SOL    HW2 7165   3.436   2.306   2.276
 2383SOL     OW 7166   2.885   2.628   2.828
 2383SOL    HW1 7167   2.900   2.649   2.924
 2383SOL    HW2 7168   2.855   2.533   2.819
 2384SOL     OW 7169   2.842   3.435   3.562
 2384SOL    HW1 7170   2.822   3.479   3.474
 2384SOL    HW2 7171   2.881   3.344   3.546
 2385SOL     OW 7172   3.721   3.380   3.467
 2385SOL    HW1 7173   3.735   3.407   3.372
 2385SOL    HW2 7174   3.804   3.402   3.520
 2386SOL     OW 7175   2.212   2.760   3.666
 2386SOL    HW1 7176   2.288   2.804   3.714
 2386SOL    HW2 7177   2.247   2.713   3.584
 2387SOL     OW 7178   3.402   2.136   1.987
 2387SOL    HW1 7179   3.341   2.061   2.010
 2387SOL    HW2 7180   3.424   2.188   2.070
 2388SOL     OW 7181   3.165   2.700   1.904
 2388SOL    HW1 7182   3.199   2.607   1.919
 2388SOL    HW2 7183   3.183   2.727   1.809
 2389SOL     OW 7184   2.930   3.195   2.711
 2389SOL    HW1 7185   2.937   3.111   2.656
 2389SOL    HW2 7186   2.992   3.264   2.675
 2390SOL     OW 7187   2.181   2.672   2.811
 2390SOL    HW1 7188   2.274   2.708   2.816
 2390SOL    HW2 7189   2.175   2.587   2.863
 2391SOL     OW 7190   2.201   2.371   2.868
 2391SOL    HW1 7191   2.149   2.288   2.851
 2391SOL    HW2 7192   2.278   2.376   2.804
 2392SOL     OW 7193   3.000   2.242   3.540
 2392SOL    HW1 7194   2.955   2.305   3.604
 2392SOL    HW2 7195   3.093   2.273   3.523
 2393SOL     OW 7196   3.022   2.069   3.339
 2393SOL    HW1 7197   3.022   2.133   3.416
 2393SOL    HW2 7198   3.050   2.117   3.256
 2394SOL     OW 7199   1.870   3.188   2.062
 2394SOL    HW1 7200   1.777   3.209   2.031
 2394SOL    HW2 7201   1.880   3.089   2.075
 2395SOL     OW 7202   1.950   3.663   2.789
 2395SOL    HW1 7203   1.908   3.577   2.762
 2395SOL    HW2 7204   2.044   3.666   2.755
 2396SOL     OW 7205   2.366   3.430   2.772
 2396SOL    HW1 7206   2.432   3.504   2.781
 2396SOL    HW2 7207   2.410   3.351   2.730
 2397SOL     OW 7208   2.864   2.658   3.100
 2397SOL    HW1 7209   2.905   2.626   3.186
 2397SOL    HW2 7210   2.768   2.631   3.097
 2398SOL     OW 7211   1.902   2.406   2.976
 2398SOL    HW1 7212   1.987   2.373   2.935
 2398SOL    HW2 7213   1.915   2.421   3.074
 2399SOL     OW 7214   2.051   2.382   3.584
 2399SOL    HW1 7215   2.110   2.342   3.514
 2399SOL    HW2 7216   1.993   2.453   3.543
 2400SOL     OW 7217   3.231   2.812   3.522
 2400SOL    HW1 7218   3.270   2.901   3.542
 2400SOL    HW2 7219   3.241   2.792   3.425
 2401SOL     OW 7220   3.519   2.466   3.068
 2401SOL    HW1 7221   3.481   2.397   3.130
 2401SOL    HW2 7222   3.601   2.430   3.024
 2402SOL     OW 7223   2.114   3.426   3.606
 2402SOL    HW1 7224   2.084   3.483   3.682
 2402SOL    HW2 7225   2.107   3.329   3.632
 2403SOL     OW 7226   2.533   2.326   3.131
 2403SOL    HW1 7227   2.499   2.237   3.101
 2403SOL    HW2 7228   2.559   2.380   3.051
 2404SOL     OW 7229   2.792   3.540   3.327
 2404SOL    HW1 7230   2.768   3.522   3.232
 2404SOL    HW2 7231   2.822   3.634   3.337
 2405SOL     OW 7232   2.335   2.362   2.053
 2405SOL    HW1 7233   2.396   2.442   2.057
 2405SOL    HW2 7234   2.240   2.393   2.060
 2406SOL     OW 7235   2.021   2.999   3.328
 2406SOL    HW1 7236   2.043   2.938   3.404
 2406SOL    HW2 7237   2.031   2.950   3.242
 2407SOL     OW 7238   3.209   2.921   3.096
 2407SOL    HW1 7239   3.233   2.858   3.022
 2407SOL    HW2 7240   3.119   2.961   3.078
 2408SOL     OW 7241   3.164   2.717   2.171
 2408SOL    HW1 7242   3.078   2.686   2.213
 2408SOL    HW2 7243   3.160   2.703   2.072
 2409SOL     OW 7244   3.621   3.609   3.016
 2409SOL    HW1 7245   3.682   3.639   2.943
 2409SOL    HW2 7246   3.583   3.520   2.994
 2410SOL     OW 7247   3.114   3.593   2.990
 2410SOL    HW1 7248   3.198   3.598   2.936
 2410SOL    HW2 7249   3.091   3.497   3.008
 2411SOL     OW 7250   1.945   3.120   2.884
 2411SOL    HW1 7251   1.940   3.119   2.984
 2411SOL    HW2 7252   1.862   3.079   2.846
 2412SOL     OW 7253   2.550   3.524   3.578
 2412SOL    HW1 7254   2.494   3.605   3.587
 2412SOL    HW2 7255   2.602   3.528   3.492
 2413SOL     OW 7256   3.588   1.997   2.385
 2413SOL    HW1 7257   3.661   1.980   2.318
 2413SOL    HW2 7258   3.557   1.910   2.423
 2414SOL     OW 7259   3.250   3.435   2.339
 2414SOL    HW1 7260   3.317   3.447   2.265
 2414SOL    HW2 7261   3.210   3.524   2.362
 2415SOL     OW 7262   1.992   3.656   3.713
 2415SOL    HW1 7263   1.951   3.582   3.766
 2415SOL    HW2 7264   2.056   3.707   3.771
 2416SOL     OW 7265   3.142   2.789   2.534
 2416SOL    HW1 7266   3.202   2.708   2.536
 2416SOL    HW2 7267   3.182   2.858   2.474
 2417SOL     OW 7268   2.692   3.135   3.284
 2417SOL    HW1 7269   2.687   3.168   3.379
 2417SOL    HW2 7270   2.606   3.154   3.238
 2418SOL     OW 7271   2.534   3.478   2.016
 2418SOL    HW1 7272   2.543   3.488   1.917
 2418SOL    HW2 7273   2.494   3.389   2.037
 2419SOL     OW 7274   3.512   3.582   3.256
 2419SOL    HW1 7275   3.565   3.592   3.172
 2419SOL    HW2 7276   3.485   3.672   3.290
 2420SOL     OW 7277   3.703   2.037   2.825
 2420SOL    HW1 7278   3.742   1.952   2.789
 2420SOL    HW2 7279   3.605   2.039   2.806
 2421SOL     OW 7280   3.056   3.474   1.893
 2421SOL    HW1 7281   3.062   3.381   1.930
 2421SOL    HW2 7282   2.997   3.474   1.813
 2422SOL     OW 7283   2.684   2.864   3.234
 2422SOL    HW1 7284   2.724   2.863   3.142
 2422SOL    HW2 7285   2.694   2.956   3.274
 2423SOL     OW 7286   2.778   2.772   2.153
 2423SOL    HW1 7287   2.841   2.810   2.085
 2423SOL    HW2 7288   2.818   2.689   2.192
 2424SOL     OW 7289   3.366   3.469   1.906
 2424SOL    HW1 7290   3.274   3.506   1.913
 2424SOL    HW2 7291   3.404   3.489   1.816
 2425SOL     OW 7292   2.234   3.150   3.352
 2425SOL    HW1 7293   2.221   3.243   3.318
 2425SOL    HW2 7294   2.150   3.098   3.339
 2426SOL     OW 7295   3.476   3.154   3.151
 2426SOL    HW1 7296   3.536   3.157   3.231
 2426SOL    HW2 7297   3.401   3.218   3.164
 2427SOL     OW 7298   2.901   2.960   2.558
 2427SOL    HW1 7299   2.831   2.913   2.612
 2427SOL    HW2 7300   2.960   2.892   2.515
 2428SOL     OW 7301   2.876   2.098   2.833
 2428SOL    HW1 7302   2.868   2.062   2.740
 2428SOL    HW2 7303   2.874   2.022   2.898
 2429SOL     OW 7304   2.452   3.349   2.353
 2429SOL    HW1 7305   2.494   3.291   2.283
 2429SOL    HW2 7306   2.408   3.428   2.309
 2430SOL     OW 7307   3.571   2.247   3.243
 2430SOL    HW1 7308   3.644   2.316   3.247
 2430SOL    HW2 7309   3.599   2.172   3.184
 2431SOL     OW 7310   2.117   3.210   2.152
 2431SOL    HW1 7311   2.021   3.211   2.125
 2431SOL    HW2 7312   2.129   3.263   2.236
 2432SOL     OW 7313   1.967   2.875   3.588
 2432SOL    HW1 7314   1.890   2.842   3.642
 2432SOL    HW2 7315   2.052   2.845   3.630
 2433SOL     OW 7316   2.534   2.065   3.351
 2433SOL    HW1 7317   2.624   2.049   3.311
 2433SOL    HW2 7318   2.542   2.070   3.450
 2434SOL     OW 7319   1.937   2.207   1.895
 2434SOL    HW1 7320   1.845   2.179   1.866
 2434SOL    HW2 7321   1.968   2.284   1.839
 2435SOL     OW 7322   3.302   2.718   3.260
 2435SOL    HW1 7323   3.245   2.770   3.197
 2435SOL    HW2 7324   3.398   2.730   3.236
 2436SOL     OW 7325   1.934   2.028   2.180
 2436SOL    HW1 7326   1.917   2.111   2.126
 2436SOL    HW2 7327   2.024   1.991   2.158
 2437SOL     OW 7328   3.045   3.197   1.981
 2437SOL    HW1 7329   2.946   3.186   1.983
 2437SOL    HW2 7330   3.079   3.212   2.074
 2438SOL     OW 7331   2.475   2.704   3.293
 2438SOL    HW1 7332   2.531   2.785   3.276
 2438SOL    HW2 7333   2.534   2.624   3.296
 2439SOL     OW 7334   3.355   3.629   2.821
 2439SOL    HW1 7335   3.388   3.693   2.752
 2439SOL    HW2 7336   3.421   3.623   2.896
 2440SOL     OW 7337   2.578   2.427   3.570
 2440SOL    HW1 7338   2.597   2.492   3.644
 2440SOL    HW2 7339   2.638   2.347   3.579
 2441SOL     OW 7340   3.312   3.082   3.495
 2441SOL    HW1 7341   3.303   3.072   3.594
 2441SOL    HW2 7342   3.408   3.075   3.469
 2442SOL     OW 7343   2.252   3.603   3.422
 2442SOL    HW1 7344   2.161   3.644   3.420
 2442SOL    HW2 7345   2.245   3.509   3.454
 2443SOL     OW 7346   3.536   2.745   3.116
 2443SOL    HW1 7347   3.509   2.656   3.079
 2443SOL    HW2 7348   3.537   2.813   3.043
 2444SOL     OW 7349   3.087   2.187   2.311
 2444SOL    HW1 7350   3.152   2.113   2.300
 2444SOL    HW2 7351   3.107   2.237   2.395
 2445SOL     OW 7352   3.639   2.204   3.504
 2445SOL    HW1 7353   3.622   2.235   3.410
 2445SOL    HW2 7354   3.555   2.167   3.542
 2446SOL     OW 7355   3.592   2.796   3.379
 2446SOL    HW1 7356   3.630   2.887   3.394
 2446SOL    HW2 7357   3.584   2.779   3.280
 2447SOL     OW 7358   2.721   3.236   1.878
 2447SOL    HW1 7359   2.675   3.251   1.966
 2447SOL    HW2 7360   2.765   3.321   1.848
 2448SOL     OW 7361   2.523   3.652   2.815
 2448SOL    HW1 7362   2.477   3.740   2.802
 2448SOL    HW2 7363   2.622   3.664   2.808
 2449SOL     OW 7364   2.945   2.846   1.949
 2449SOL    HW1 7365   2.922   2.899   1.867
 2449SOL    HW2 7366   3.026   2.790   1.930
 2450SOL     OW 7367   3.723   3.431   2.713
 2450SOL    HW1 7368   3.652   3.419   2.643
 2450SOL    HW2 7369   3.724   3.352   2.773
 2451SOL     OW 7370   2.083   3.176   3.706
 2451SOL    HW1 7371   2.018   3.103   3.685
 2451SOL    HW2 7372   2.087   3.190   3.804
 2452SOL     OW 7373   1.941   3.102   2.515
 2452SOL    HW1 7374   1.940   3.055   2.603
 2452SOL    HW2 7375   2.023   3.074   2.464
 2453SOL     OW 7376   2.534   3.253   3.486
 2453SOL    HW1 7377   2.456   3.203   3.524
 2453SOL    HW2 7378   2.531   3.348   3.517
 2454SOL     OW 7379   3.686   2.054   3.089
 2454SOL    HW1 7380   3.682   1.964   3.133
 2454SOL    HW2 7381   3.689   2.043   2.990
 2455SOL     OW 7382   3.567   3.349   2.966
 2455SOL    HW1 7383   3.474   3.324   2.939
 2455SOL    HW2 7384   3.593   3.299   3.048
 2456SOL     OW 7385   2.179   2.409   3.142
 2456SOL    HW1 7386   2.217   2.350   3.214
 2456SOL    HW2 7387   2.219   2.383   3.054
 2457SOL     OW 7388   2.674   3.448   2.549
 2457SOL    HW1 7389   2.706   3.458   2.455
 2457SOL    HW2 7390   2.595   3.386   2.551
 2458SOL     OW 7391   3.286   2.076   2.974
 2458SOL    HW1 7392   3.338   2.011   3.029
 2458SOL    HW2 7393   3.237   2.139   3.035
 2459SOL     OW 7394   2.863   1.896   3.016
 2459SOL    HW1 7395   2.800   1.824   2.985
 2459SOL    HW2 7396   2.956   1.860   3.016
 2460SOL     OW 7397   2.632   3.192   2.163
 2460SOL    HW1 7398   2.586   3.105   2.180
 2460SOL    HW2 7399   2.723   3.189   2.204
 2461SOL     OW 7400   2.480   3.429   3.146
 2461SOL    HW1 7401   2.475   3.511   3.203
 2461SOL    HW2 7402   2.569   3.426   3.101
 2462SOL     OW 7403   3.214   1.914   2.030
 2462SOL    HW1 7404   3.249   1.873   1.946
 2462SOL    HW2 7405   3.124   1.876   2.050
 2463SOL     OW 7406   3.162   2.315   2.553
 2463SOL    HW1 7407   3.103   2.395   2.557
 2463SOL    HW2 7408   3.177   2.280   2.646
 2464SOL     OW 7409   3.455   2.083   2.744
 2464SOL    HW1 7410   3.371   2.082   2.798
 2464SOL    HW2 7411   3.457   2.166   2.688
 2465SOL     OW 7412   1.901   2.939   2.162
 2465SOL    HW1 7413   2.000   2.928   2.153
 2465SOL    HW2 7414   1.861   2.853   2.194
 2466SOL     OW 7415   2.737   3.508   2.199
 2466SOL    HW1 7416   2.660   3.473   2.145
 2466SOL    HW2 7417   2.705   3.579   2.261
 2467SOL     OW 7418   2.092   2.490   3.837
 2467SOL    HW1 7419   1.999   2.488   3.874
 2467SOL    HW2 7420   2.093   2.451   3.745
 2468SOL     OW 7421   2.087   2.137   4.720
 2468SOL    HW1 7422   2.122   2.120   4.812
 2468SOL    HW2 7423   1.999   2.092   4.708
 2469SOL     OW 7424   1.881   2.230   4.371
 2469SOL    HW1 7425   1.799   2.273   4.410
 2469SOL    HW2 7426   1.853   2.157   4.308
 2470SOL     OW 7427   2.431   3.137   4.889
 2470SOL    HW1 7428   2.338   3.130   4.852
 2470SOL    HW2 7429   2.442   3.226   4.933
 2471SOL     OW 7430   3.417   3.373   4.427
 2471SOL    HW1 7431   3.360   3.357   4.508
 2471SOL    HW2 7432   3.358   3.383   4.347
 2472SOL     OW 7433   2.997   2.565   4.441
 2472SOL    HW1 7434   3.054   2.643   4.416
 2472SOL    HW2 7435   2.937   2.591   4.517
 2473SOL     OW 7436   3.617   2.469   3.955
 2473SOL    HW1 7437   3.605   2.456   3.856
 2473SOL    HW2 7438   3.587   2.388   4.004
 2474SOL     OW 7439   2.630   3.006   4.747
 2474SOL    HW1 7440   2.552   3.023   4.807
 2474SOL    HW2 7441   2.664   3.093   4.711
 2475SOL     OW 7442   2.547   2.874   4.389
 2475SOL    HW1 7443   2.616   2.858   4.459
 2475SOL    HW2 7444   2.474   2.931   4.427
 2476SOL     OW 7445   2.197   3.297   4.785
 2476SOL    HW1 7446   2.119   3.266   4.732
 2476SOL    HW2 7447   2.255   3.355   4.728
 2477SOL     OW 7448   3.465   2.309   4.461
 2477SOL    HW1 7449   3.391   2.355   4.411
 2477SOL    HW2 7450   3.516   2.377   4.514
 2478SOL     OW 7451   2.093   3.575   4.207
 2478SOL    HW1 7452   2.127   3.652   4.261
 2478SOL    HW2 7453   2.137   3.575   4.117
 2479SOL     OW 7454   2.092   3.296   4.262
 2479SOL    HW1 7455   2.066   3.392   4.262
 2479SOL    HW2 7456   2.021   3.242   4.307
 2480SOL     OW 7457   2.102   2.953   4.610
 2480SOL    HW1 7458   2.116   2.869   4.662
 2480SOL    HW2 7459   2.047   3.017   4.665
 2481SOL     OW 7460   2.468   2.826   3.847
 2481SOL    HW1 7461   2.475   2.910   3.793
 2481SOL    HW2 7462   2.514   2.839   3.935
 2482SOL     OW 7463   1.984   2.505   4.287
 2482SOL    HW1 7464   1.939   2.417   4.304
 2482SOL    HW2 7465   1.983   2.559   4.371
 2483SOL     OW 7466   3.704   3.629   4.083
 2483SOL    HW1 7467   3.758   3.600   4.163
 2483SOL    HW2 7468   3.734   3.719   4.054
 2484SOL     OW 7469   1.889   3.458   3.841
 2484SOL    HW1 7470   1.870   3.362   3.862
 2484SOL    HW2 7471   1.856   3.516   3.916
 2485SOL     OW 7472   3.551   2.784   4.336
 2485SOL    HW1 7473   3.646   2.755   4.344
 2485SOL    HW2 7474   3.543   2.849   4.261
 2486SOL     OW 7475   3.503   2.970   4.156
 2486SOL    HW1 7476   3.589   2.972   4.104
 2486SOL    HW2 7477   3.517   3.017   4.244
 2487SOL     OW 7478   2.475   3.227   4.450
 2487SOL    HW1 7479   2.426   3.140   4.459
 2487SOL    HW2 7480   2.452   3.270   4.363
 2488SOL     OW 7481   2.671   1.866   4.226
 2488SOL    HW1 7482   2.711   1.957   4.217
 2488SOL    HW2 7483   2.571   1.874   4.232
 2489SOL     OW 7484   2.059   2.838   4.988
 2489SOL    HW1 7485   2.148   2.793   4.974
 2489SOL    HW2 7486   1.986   2.773   4.969
 2490SOL     OW 7487   3.387   2.861   3.914
 2490SOL    HW1 7488   3.324   2.785   3.927
 2490SOL    HW2 7489   3.435   2.879   4.000
 2491SOL     OW 7490   3.328   3.279   4.677
 2491SOL    HW1 7491   3.269   3.285   4.757
 2491SOL    HW2 7492   3.313   3.191   4.631
 2492SOL     OW 7493   3.529   3.576   4.296
 2492SOL    HW1 7494   3.488   3.553   4.208
 2492SOL    HW2 7495   3.511   3.502   4.361
 2493SOL     OW 7496   2.460   2.591   3.994
 2493SOL    HW1 7497   2.484   2.660   3.926
 2493SOL    HW2 7498   2.382   2.624   4.048
 2494SOL     OW 7499   3.143   2.207   4.668
 2494SOL    HW1 7500   3.057   2.157   4.655
 2494SOL    HW2 7501   3.205   2.153   4.724
 2495SOL     OW 7502   3.438   3.524   4.031
 2495SOL    HW1 7503   3.527   3.570   4.034
 2495SOL    HW2 7504   3.417   3.500   3.936
 2496SOL     OW 7505   2.903   2.563   4.153
 2496SOL    HW1 7506   2.929   2.559   4.249
 2496SOL    HW2 7507   2.818   2.512   4.139
 2497SOL     OW 7508   1.938   2.673   4.513
 2497SOL    HW1 7509   2.037   2.661   4.522
 2497SOL    HW2 7510   1.914   2.768   4.534
 2498SOL     OW 7511   2.727   2.210   3.919
 2498SOL    HW1 7512   2.786   2.273   3.870
 2498SOL    HW2 7513   2.746   2.116   3.890
 2499SOL     OW 7514   3.224   3.006   4.269
 2499SOL    HW1 7515   3.307   2.977   4.221
 2499SOL    HW2 7516   3.175   3.073   4.213
 2500SOL     OW 7517   2.412   2.058   4.609
 2500SOL    HW1 7518   2.407   2.053   4.709
 2500SOL    HW2 7519   2.414   2.154   4.580
 2501SOL     OW 7520   2.870   3.318   4.201
 2501SOL    HW1 7521   2.824   3.390   4.149
 2501SOL    HW2 7522   2.866   3.338   4.299
 2502SOL     OW 7523   2.213   3.663   4.577
 2502SOL    HW1 7524   2.263   3.577   4.583
 2502SOL    HW2 7525   2.278   3.740   4.574
 2503SOL     OW 7526   3.657   2.928   4.597
 2503SOL    HW1 7527   3.595   2.913   4.521
 2503SOL    HW2 7528   3.605   2.939   4.682
 2504SOL     OW 7529   2.183   2.805   3.966
 2504SOL    HW1 7530   2.265   2.844   3.924
 2504SOL    HW2 7531   2.156   2.723   3.917
 2505SOL     OW 7532   3.320   2.597   4.452
 2505SOL    HW1 7533   3.315   2.532   4.527
 2505SOL    HW2 7534   3.400   2.656   4.465
 2506SOL     OW 7535   2.973   3.638   3.961
 2506SOL    HW1 7536   2.913   3.576   4.011
 2506SOL    HW2 7537   3.004   3.594   3.876
 2507SOL     OW 7538   3.494   3.239   3.805
 2507SOL    HW1 7539   3.462   3.333   3.795
 2507SOL    HW2 7540   3.418   3.176   3.793
 2508SOL     OW 7541   2.326   3.605   4.047
 2508SOL    HW1 7542   2.359   3.644   4.133
 2508SOL    HW2 7543   2.402   3.598   3.982
 2509SOL     OW 7544   3.262   1.969   4.150
 2509SOL    HW1 7545   3.238   1.932   4.060
 2509SOL    HW2 7546   3.361   1.985   4.154
 2510SOL     OW 7547   2.111   3.647   4.965
 2510SOL    HW1 7548   2.168   3.582   5.015
 2510SOL    HW2 7549   2.095   3.614   4.872
 2511SOL     OW 7550   2.802   3.560   4.628
 2511SOL    HW1 7551   2.882   3.503   4.649
 2511SOL    HW2 7552   2.753   3.520   4.551
 2512SOL     OW 7553   2.244   2.562   4.204
 2512SOL    HW1 7554   2.289   2.472   4.201
 2512SOL    HW2 7555   2.150   2.551   4.237
 2513SOL     OW 7556   2.476   1.984   3.841
 2513SOL    HW1 7557   2.574   1.962   3.848
 2513SOL    HW2 7558   2.445   1.967   3.748
 2514SOL     OW 7559   2.665   3.264   4.648
 2514SOL    HW1 7560   2.755   3.278   4.606
 2514SOL    HW2 7561   2.594   3.266   4.577
 2515SOL     OW 7562   2.784   2.365   4.623
 2515SOL    HW1 7563   2.759   2.356   4.527
 2515SOL    HW2 7564   2.832   2.283   4.654
 2516SOL     OW 7565   2.401   1.926   4.236
 2516SOL    HW1 7566   2.320   1.927   4.294
 2516SOL    HW2 7567   2.404   2.009   4.181
 2517SOL     OW 7568   3.296   3.050   3.765
 2517SOL    HW1 7569   3.328   2.974   3.822
 2517SOL    HW2 7570   3.204   3.077   3.795
 2518SOL     OW 7571   2.159   1.897   3.895
 2518SOL    HW1 7572   2.208   1.981   3.874
 2518SOL    HW2 7573   2.221   1.832   3.940
 2519SOL     OW 7574   2.797   2.098   4.204
 2519SOL    HW1 7575   2.749   2.139   4.126
 2519SOL    HW2 7576   2.896   2.096   4.185
 2520SOL     OW 7577   3.089   3.432   4.517
 2520SOL    HW1 7578   3.110   3.506   4.452
 2520SOL    HW2 7579   3.157   3.432   4.590
 2521SOL     OW 7580   2.321   3.014   4.465
 2521SOL    HW1 7581   2.250   2.987   4.530
 2521SOL    HW2 7582   2.295   2.986   4.372
 2522SOL     OW 7583   3.133   3.659   4.315
 2522SOL    HW1 7584   3.177   3.723   4.251
 2522SOL    HW2 7585   3.083   3.711   4.385
 2523SOL     OW 7586   2.894   2.411   3.740
 2523SOL    HW1 7587   2.853   2.493   3.701
 2523SOL    HW2 7588   2.958   2.437   3.813
 2524SOL     OW 7589   2.728   2.316   4.366
 2524SOL    HW1 7590   2.696   2.388   4.304
 2524SOL    HW2 7591   2.752   2.235   4.313
 2525SOL     OW 7592   2.879   1.901   4.477
 2525SOL    HW1 7593   2.807   1.906   4.408
 2525SOL    HW2 7594   2.855   1.832   4.546
 2526SOL     OW 7595   3.291   3.035   4.591
 2526SOL    HW1 7596   3.236   2.951   4.584
 2526SOL    HW2 7597   3.317   3.064   4.499
 2527SOL     OW 7598   3.328   2.452   4.716
 2527SOL    HW1 7599   3.298   2.357   4.723
 2527SOL    HW2 7600   3.401   2.468   4.782
 2528SOL     OW 7601   3.719   2.695   4.101
 2528SOL    HW1 7602   3.761   2.631   4.165
 2528SOL    HW2 7603   3.681   2.644   4.023
 2529SOL     OW 7604   2.350   3.247   3.898
 2529SOL    HW1 7605   2.263   3.232   3.945
 2529SOL    HW2 7606   2.333   3.273   3.803
 2530SOL     OW 7607   3.526   3.142   4.381
 2530SOL    HW1 7608   3.625   3.150   4.395
 2530SOL    HW2 7609   3.481   3.226   4.412
 2531SOL     OW 7610   3.252   2.437   3.802
 2531SOL    HW1 7611   3.198   2.416   3.883
 2531SOL    HW2 7612   3.343   2.396   3.811
 2532SOL     OW 7613   2.389   2.118   4.052
 2532SOL    HW1 7614   2.416   2.059   3.977
 2532SOL    HW2 7615   2.389   2.213   4.021
 2533SOL     OW 7616   2.973   3.057   4.824
 2533SOL    HW1 7617   2.933   3.101   4.905
 2533SOL    HW2 7618   2.932   3.094   4.741
 2534SOL     OW 7619   3.500   2.961   4.803
 2534SOL    HW1 7620   3.505   3.042   4.862
 2534SOL    HW2 7621   3.414   2.963   4.752
 2535SOL     OW 7622   2.567   2.912   4.092
 2535SOL    HW1 7623   2.553   2.919   4.191
 2535SOL    HW2 7624   2.651   2.861   4.074
 2536SOL     OW 7625   2.272   2.675   4.975
 2536SOL    HW1 7626   2.358   2.687   5.025
 2536SOL    HW2 7627   2.230   2.588   5.002
 2537SOL     OW 7628   2.229   2.962   4.225
 2537SOL    HW1 7629   2.222   3.045   4.169
 2537SOL    HW2 7630   2.233   2.882   4.165
 2538SOL     OW 7631   2.428   2.399   4.589
 2538SOL    HW1 7632   2.440   2.465   4.515
 2538SOL    HW2 7633   2.474   2.433   4.672
 2539SOL     OW 7634   3.114   3.210   4.112
 2539SOL    HW1 7635   3.164   3.287   4.152
 2539SOL    HW2 7636   3.019   3.212   4.144
 2540SOL     OW 7637   3.134   3.307   4.866
 2540SOL    HW1 7638   3.181   3.320   4.953
 2540SOL    HW2 7639   3.068   3.233   4.875
 2541SOL     OW 7640   3.444   2.501   4.196
 2541SOL    HW1 7641   3.413   2.562   4.269
 2541SOL    HW2 7642   3.494   2.553   4.127
 2542SOL     OW 7643   2.435   2.732   4.753
 2542SOL    HW1 7644   2.479   2.821   4.744
 2542SOL    HW2 7645   2.372   2.732   4.830
 2543SOL     OW 7646   3.071   2.387   3.999
 2543SOL    HW1 7647   3.084   2.303   4.053
 2543SOL    HW2 7648   3.042   2.461   4.059
 2544SOL     OW 7649   2.169   2.075   4.955
 2544SOL    HW1 7650   2.146   2.112   5.045
 2544SOL    HW2 7651   2.139   1.980   4.949
 2545SOL     OW 7652   2.594   2.496   4.788
 2545SOL    HW1 7653   2.653   2.470   4.712
 2545SOL    HW2 7654   2.566   2.592   4.777
 2546SOL     OW 7655   2.169   1.925   4.342
 2546SOL    HW1 7656   2.158   2.019   4.375
 2546SOL    HW2 7657   2.164   1.862   4.419
 2547SOL     OW 7658   3.484   2.229   4.098
 2547SOL    HW1 7659   3.486   2.153   4.162
 2547SOL    HW2 7660   3.436   2.306   4.138
 2548SOL     OW 7661   2.885   2.628   4.690
 2548SOL    HW1 7662   2.900   2.649   4.786
 2548SOL    HW2 7663   2.855   2.533   4.681
 2549SOL     OW 7664   3.402   2.136   3.849
 2549SOL    HW1 7665   3.341   2.061   3.872
 2549SOL    HW2 7666   3.424   2.188   3.932
 2550SOL     OW 7667   3.165   2.700   3.766
 2550SOL    HW1 7668   3.199   2.607   3.781
 2550SOL    HW2 7669   3.183   2.727   3.671
 2551SOL     OW 7670   2.930   3.195   4.573
 2551SOL    HW1 7671   2.937   3.111   4.518
 2551SOL    HW2 7672   2.992   3.264   4.537
 2552SOL     OW 7673   2.181   2.672   4.673
 2552SOL    HW1 7674   2.274   2.708   4.678
 2552SOL    HW2 7675   2.175   2.587   4.725
 2553SOL     OW 7676   2.201   2.371   4.730
 2553SOL    HW1 7677   2.149   2.288   4.713
 2553SOL    HW2 7678   2.278   2.376   4.666
 2554SOL     OW 7679   1.870   3.188   3.924
 2554SOL    HW1 7680   1.777   3.209   3.893
 2554SOL    HW2 7681   1.880   3.089   3.937
 2555SOL     OW 7682   1.950   3.663   4.651
 2555SOL    HW1 7683   1.908   3.577   4.624
 2555SOL    HW2 7684   2.044   3.666   4.617
 2556SOL     OW 7685   2.366   3.430   4.634
 2556SOL    HW1 7686   2.432   3.504   4.643
 2556SOL    HW2 7687   2.410   3.351   4.592
 2557SOL     OW 7688   2.864   2.658   4.962
 2557SOL    HW1 7689   2.905   2.626   5.048
 2557SOL    HW2 7690   2.768   2.631   4.959
 2558SOL     OW 7691   1.902   2.406   4.838
 2558SOL    HW1 7692   1.987   2.373   4.797
 2558SOL    HW2 7693   1.915   2.421   4.936
 2559SOL     OW 7694   2.677   2.434   4.049
 2559SOL    HW1 7695   2.684   2.345   4.003
 2559SOL    HW2 7696   2.583   2.468   4.041
 2560SOL     OW 7697   3.519   2.466   4.930
 2560SOL    HW1 7698   3.481   2.397   4.992
 2560SOL    HW2 7699   3.601   2.430   4.886
 2561SOL     OW 7700   2.533   2.326   4.993
 2561SOL    HW1 7701   2.499   2.237   4.963
 2561SOL    HW2 7702   2.559   2.380   4.913
 2562SOL     OW 7703   2.335   2.362   3.915
 2562SOL    HW1 7704   2.396   2.442   3.919
 2562SOL    HW2 7705   2.240   2.393   3.922
 2563SOL     OW 7706   3.164   2.717   4.033
 2563SOL    HW1 7707   3.078   2.686   4.075
 2563SOL    HW2 7708   3.160   2.703   3.934
 2564SOL     OW 7709   3.621   3.609   4.878
 2564SOL    HW1 7710   3.682   3.639   4.805
 2564SOL    HW2 7711   3.583   3.520   4.856
 2565SOL     OW 7712   1.945   3.120   4.746
 2565SOL    HW1 7713   1.940   3.119   4.846
 2565SOL    HW2 7714   1.862   3.079   4.708
 2566SOL     OW 7715   3.588   1.997   4.247
 2566SOL    HW1 7716   3.661   1.980   4.180
 2566SOL    HW2 7717   3.557   1.910   4.285
 2567SOL     OW 7718   3.250   3.435   4.201
 2567SOL    HW1 7719   3.317   3.447   4.127
 2567SOL    HW2 7720   3.210   3.524   4.224
 2568SOL     OW 7721   3.142   2.789   4.396
 2568SOL    HW1 7722   3.202   2.708   4.398
 2568SOL    HW2 7723   3.182   2.858   4.336
 2569SOL     OW 7724   2.534   3.478   3.878
 2569SOL    HW1 7725   2.543   3.488   3.779
 2569SOL    HW2 7726   2.494   3.389   3.899
 2570SOL     OW 7727   3.703   2.037   4.687
 2570SOL    HW1 7728   3.742   1.952   4.651
 2570SOL    HW2 7729   3.605   2.039   4.668
 2571SOL     OW 7730   2.125   2.188   4.444
 2571SOL    HW1 7731   2.046   2.239   4.410
 2571SOL    HW2 7732   2.116   2.173   4.542
 2572SOL     OW 7733   3.056   3.474   3.755
 2572SOL    HW1 7734   3.062   3.381   3.792
 2572SOL    HW2 7735   2.997   3.474   3.675
 2573SOL     OW 7736   2.684   2.864   5.096
 2573SOL    HW1 7737   2.724   2.863   5.004
 2573SOL    HW2 7738   2.694   2.956   5.136
 2574SOL     OW 7739   2.778   2.772   4.015
 2574SOL    HW1 7740   2.841   2.810   3.947
 2574SOL    HW2 7741   2.818   2.689   4.054
 2575SOL     OW 7742   3.366   3.469   3.768
 2575SOL    HW1 7743   3.274   3.506   3.775
 2575SOL    HW2 7744   3.404   3.489   3.678
 2576SOL     OW 7745   2.901   2.960   4.420
 2576SOL    HW1 7746   2.831   2.913   4.474
 2576SOL    HW2 7747   2.960   2.892   4.377
 2577SOL     OW 7748   2.876   2.098   4.695
 2577SOL    HW1 7749   2.868   2.062   4.602
 2577SOL    HW2 7750   2.874   2.022   4.760
 2578SOL     OW 7751   2.452   3.349   4.215
 2578SOL    HW1 7752   2.494   3.291   4.145
 2578SOL    HW2 7753   2.408   3.428   4.171
 2579SOL     OW 7754   2.117   3.210   4.014
 2579SOL    HW1 7755   2.021   3.211   3.987
 2579SOL    HW2 7756   2.129   3.263   4.098
 2580SOL     OW 7757   1.937   2.207   3.757
 2580SOL    HW1 7758   1.845   2.179   3.728
 2580SOL    HW2 7759   1.968   2.284   3.701
 2581SOL     OW 7760   1.934   2.028   4.042
 2581SOL    HW1 7761   1.917   2.111   3.988
 2581SOL    HW2 7762   2.024   1.991   4.020
 2582SOL     OW 7763   3.045   3.197   3.843
 2582SOL    HW1 7764   2.946   3.186   3.845
 2582SOL    HW2 7765   3.079   3.212   3.936
 2583SOL     OW 7766   3.355   3.629   4.683
 2583SOL    HW1 7767   3.388   3.693   4.614
 2583SOL    HW2 7768   3.421   3.623   4.758
 2584SOL     OW 7769   3.536   2.745   4.978
 2584SOL    HW1 7770   3.509   2.656   4.941
 2584SOL    HW2 7771   3.537   2.813   4.905
 2585SOL     OW 7772   3.087   2.187   4.173
 2585SOL    HW1 7773   3.152   2.113   4.162
 2585SOL    HW2 7774   3.107   2.237   4.257
 2586SOL     OW 7775   2.456   2.607   4.376
 2586SOL    HW1 7776   2.506   2.692   4.357
 2586SOL    HW2 7777   2.368   2.609   4.328
 2587SOL     OW 7778   2.721   3.236   3.740
 2587SOL    HW1 7779   2.675   3.251   3.828
 2587SOL    HW2 7780   2.765   3.321   3.710
 2588SOL     OW 7781   2.523   3.652   4.677
 2588SOL    HW1 7782   2.477   3.740   4.664
 2588SOL    HW2 7783   2.622   3.664   4.670
 2589SOL     OW 7784   2.721   2.818   4.585
 2589SOL    HW1 7785   2.775   2.749   4.633
 2589SOL    HW2 7786   2.689   2.887   4.651
 2590SOL     OW 7787   2.945   2.846   3.811
 2590SOL    HW1 7788   2.922   2.899   3.729
 2590SOL    HW2 7789   3.026   2.790   3.792
 2591SOL     OW 7790   3.723   3.431   4.575
 2591SOL    HW1 7791   3.652   3.419   4.505
 2591SOL    HW2 7792   3.724   3.352   4.635
 2592SOL     OW 7793   1.941   3.102   4.377
 2592SOL    HW1 7794   1.940   3.055   4.465
 2592SOL    HW2 7795   2.023   3.074   4.326
 2593SOL     OW 7796   3.686   2.054   4.951
 2593SOL    HW1 7797   3.682   1.964   4.995
 2593SOL    HW2 7798   3.689   2.043   4.852
 2594SOL     OW 7799   2.290   2.286   4.244
 2594SOL    HW1 7800   2.320   2.214   4.182
 2594SOL    HW2 7801   2.251   2.246   4.327
 2595SOL     OW 7802   2.674   3.448   4.411
 2595SOL    HW1 7803   2.706   3.458   4.317
 2595SOL    HW2 7804   2.595   3.386   4.413
 2596SOL     OW 7805   3.286   2.076   4.836
 2596SOL    HW1 7806   3.338   2.011   4.891
 2596SOL    HW2 7807   3.237   2.139   4.897
 2597SOL     OW 7808   2.632   3.192   4.025
 2597SOL    HW1 7809   2.586   3.105   4.042
 2597SOL    HW2 7810   2.723   3.189   4.066
 2598SOL     OW 7811   3.214   1.914   3.892
 2598SOL    HW1 7812   3.249   1.873   3.808
 2598SOL    HW2 7813   3.124   1.876   3.912
 2599SOL     OW 7814   3.162   2.315   4.415
 2599SOL    HW1 7815   3.103   2.395   4.419
 2599SOL    HW2 7816   3.177   2.280   4.508
 2600SOL     OW 7817   3.455   2.083   4.606
 2600SOL    HW1 7818   3.371   2.082   4.660
 2600SOL    HW2 7819   3.457   2.166   4.550
 2601SOL     OW 7820   1.901   2.939   4.024
 2601SOL    HW1 7821   2.000   2.928   4.015
 2601SOL    HW2 7822   1.861   2.853   4.056
 2602SOL     OW 7823   2.737   3.508   4.061
 2602SOL    HW1 7824   2.660   3.473   4.007
 2602SOL    HW2 7825   2.705   3.579   4.123
 2603SOL     OW 7826   2.092   4.352   0.113
 2603SOL    HW1 7827   1.999   4.350   0.150
 2603SOL    HW2 7828   2.093   4.313   0.021
 2604SOL     OW 7829   2.087   3.999   0.996
 2604SOL    HW1 7830   2.122   3.982   1.088
 2604SOL    HW2 7831   1.999   3.954   0.984
 2605SOL     OW 7832   1.881   4.092   0.647
 2605SOL    HW1 7833   1.799   4.135   0.686
 2605SOL    HW2 7834   1.853   4.019   0.584
 2606SOL     OW 7835   2.997   4.427   0.717
 2606SOL    HW1 7836   3.054   4.505   0.692
 2606SOL    HW2 7837   2.937   4.453   0.793
 2607SOL     OW 7838   3.617   4.331   0.231
 2607SOL    HW1 7839   3.605   4.318   0.132
 2607SOL    HW2 7840   3.587   4.250   0.280
 2608SOL     OW 7841   2.630   4.868   1.023
 2608SOL    HW1 7842   2.552   4.885   1.083
 2608SOL    HW2 7843   2.664   4.955   0.987
 2609SOL     OW 7844   2.712   4.522   1.823
 2609SOL    HW1 7845   2.708   4.598   1.888
 2609SOL    HW2 7846   2.734   4.558   1.732
 2610SOL     OW 7847   2.547   4.736   0.665
 2610SOL    HW1 7848   2.616   4.720   0.735
 2610SOL    HW2 7849   2.474   4.793   0.703
 2611SOL     OW 7850   3.322   5.229   1.339
 2611SOL    HW1 7851   3.346   5.323   1.365
 2611SOL    HW2 7852   3.306   5.175   1.421
 2612SOL     OW 7853   2.300   4.116   1.499
 2612SOL    HW1 7854   2.382   4.060   1.508
 2612SOL    HW2 7855   2.219   4.058   1.503
 2613SOL     OW 7856   3.465   4.171   0.737
 2613SOL    HW1 7857   3.391   4.217   0.687
 2613SOL    HW2 7858   3.516   4.239   0.790
 2614SOL     OW 7859   2.102   4.815   0.886
 2614SOL    HW1 7860   2.116   4.731   0.938
 2614SOL    HW2 7861   2.047   4.879   0.941
 2615SOL     OW 7862   2.468   4.688   0.123
 2615SOL    HW1 7863   2.475   4.772   0.069
 2615SOL    HW2 7864   2.514   4.701   0.211
 2616SOL     OW 7865   3.456   3.838   1.480
 2616SOL    HW1 7866   3.438   3.905   1.408
 2616SOL    HW2 7867   3.453   3.884   1.569
 2617SOL     OW 7868   1.984   4.367   0.563
 2617SOL    HW1 7869   1.939   4.279   0.580
 2617SOL    HW2 7870   1.983   4.421   0.647
 2618SOL     OW 7871   3.551   4.646   0.612
 2618SOL    HW1 7872   3.646   4.617   0.620
 2618SOL    HW2 7873   3.543   4.711   0.537
 2619SOL     OW 7874   1.975   4.461   1.597
 2619SOL    HW1 7875   2.063   4.448   1.642
 2619SOL    HW2 7876   1.962   4.558   1.575
 2620SOL     OW 7877   2.475   5.089   0.726
 2620SOL    HW1 7878   2.426   5.002   0.735
 2620SOL    HW2 7879   2.452   5.132   0.639
 2621SOL     OW 7880   3.155   4.952   1.423
 2621SOL    HW1 7881   3.192   4.879   1.365
 2621SOL    HW2 7882   3.207   4.957   1.508
 2622SOL     OW 7883   2.671   3.728   0.502
 2622SOL    HW1 7884   2.711   3.819   0.493
 2622SOL    HW2 7885   2.571   3.736   0.508
 2623SOL     OW 7886   2.059   4.700   1.264
 2623SOL    HW1 7887   2.148   4.655   1.250
 2623SOL    HW2 7888   1.986   4.635   1.245
 2624SOL     OW 7889   3.387   4.723   0.190
 2624SOL    HW1 7890   3.324   4.647   0.203
 2624SOL    HW2 7891   3.435   4.741   0.276
 2625SOL     OW 7892   2.179   3.975   1.801
 2625SOL    HW1 7893   2.250   4.046   1.807
 2625SOL    HW2 7894   2.091   4.014   1.829
 2626SOL     OW 7895   2.460   4.453   0.270
 2626SOL    HW1 7896   2.484   4.522   0.202
 2626SOL    HW2 7897   2.382   4.486   0.324
 2627SOL     OW 7898   3.143   4.069   0.944
 2627SOL    HW1 7899   3.057   4.019   0.931
 2627SOL    HW2 7900   3.205   4.015   1.000
 2628SOL     OW 7901   2.669   4.329   1.465
 2628SOL    HW1 7902   2.622   4.326   1.554
 2628SOL    HW2 7903   2.618   4.274   1.399
 2629SOL     OW 7904   3.256   4.193   1.674
 2629SOL    HW1 7905   3.236   4.236   1.762
 2629SOL    HW2 7906   3.334   4.131   1.683
 2630SOL     OW 7907   2.835   4.614   1.572
 2630SOL    HW1 7908   2.881   4.530   1.543
 2630SOL    HW2 7909   2.779   4.648   1.497
 2631SOL     OW 7910   2.853   4.134   1.242
 2631SOL    HW1 7911   2.776   4.168   1.296
 2631SOL    HW2 7912   2.819   4.083   1.163
 2632SOL     OW 7913   2.903   4.425   0.429
 2632SOL    HW1 7914   2.929   4.421   0.525
 2632SOL    HW2 7915   2.818   4.374   0.415
 2633SOL     OW 7916   1.938   4.535   0.789
 2633SOL    HW1 7917   2.037   4.523   0.798
 2633SOL    HW2 7918   1.914   4.630   0.810
 2634SOL     OW 7919   2.727   4.072   0.195
 2634SOL    HW1 7920   2.786   4.135   0.146
 2634SOL    HW2 7921   2.746   3.978   0.166
 2635SOL     OW 7922   3.581   4.309   1.831
 2635SOL    HW1 7923   3.555   4.398   1.795
 2635SOL    HW2 7924   3.579   4.241   1.758
 2636SOL     OW 7925   2.412   3.920   0.885
 2636SOL    HW1 7926   2.407   3.915   0.985
 2636SOL    HW2 7927   2.414   4.016   0.856
 2637SOL     OW 7928   3.657   4.790   0.873
 2637SOL    HW1 7929   3.595   4.775   0.797
 2637SOL    HW2 7930   3.605   4.801   0.958
 2638SOL     OW 7931   2.183   4.667   0.242
 2638SOL    HW1 7932   2.265   4.706   0.200
 2638SOL    HW2 7933   2.156   4.585   0.193
 2639SOL     OW 7934   3.320   4.459   0.728
 2639SOL    HW1 7935   3.315   4.394   0.803
 2639SOL    HW2 7936   3.400   4.518   0.741
 2640SOL     OW 7937   2.064   4.009   1.498
 2640SOL    HW1 7938   1.984   4.069   1.485
 2640SOL    HW2 7939   2.054   3.960   1.584
 2641SOL     OW 7940   3.262   3.831   0.426
 2641SOL    HW1 7941   3.238   3.794   0.336
 2641SOL    HW2 7942   3.361   3.847   0.430
 2642SOL     OW 7943   2.244   4.424   0.480
 2642SOL    HW1 7944   2.289   4.334   0.477
 2642SOL    HW2 7945   2.150   4.413   0.513
 2643SOL     OW 7946   3.409   3.946   1.729
 2643SOL    HW1 7947   3.404   3.983   1.821
 2643SOL    HW2 7948   3.337   3.877   1.717
 2644SOL     OW 7949   2.476   3.846   0.117
 2644SOL    HW1 7950   2.574   3.824   0.124
 2644SOL    HW2 7951   2.445   3.829   0.024
 2645SOL     OW 7952   2.643   3.988   1.749
 2645SOL    HW1 7953   2.710   3.927   1.792
 2645SOL    HW2 7954   2.570   4.007   1.814
 2646SOL     OW 7955   3.213   4.314   1.433
 2646SOL    HW1 7956   3.241   4.271   1.518
 2646SOL    HW2 7957   3.238   4.410   1.434
 2647SOL     OW 7958   2.784   4.227   0.899
 2647SOL    HW1 7959   2.759   4.218   0.803
 2647SOL    HW2 7960   2.832   4.145   0.930
 2648SOL     OW 7961   2.401   3.788   0.512
 2648SOL    HW1 7962   2.320   3.789   0.570
 2648SOL    HW2 7963   2.404   3.871   0.457
 2649SOL     OW 7964   2.159   3.759   0.171
 2649SOL    HW1 7965   2.208   3.843   0.150
 2649SOL    HW2 7966   2.221   3.694   0.216
 2650SOL     OW 7967   2.797   3.960   0.480
 2650SOL    HW1 7968   2.749   4.001   0.402
 2650SOL    HW2 7969   2.896   3.958   0.461
 2651SOL     OW 7970   2.938   4.407   1.464
 2651SOL    HW1 7971   2.858   4.346   1.467
 2651SOL    HW2 7972   3.019   4.354   1.440
 2652SOL     OW 7973   2.321   4.876   0.741
 2652SOL    HW1 7974   2.250   4.849   0.806
 2652SOL    HW2 7975   2.295   4.848   0.648
 2653SOL     OW 7976   2.894   4.273   0.016
 2653SOL    HW1 7977   2.853   4.355  -0.023
 2653SOL    HW2 7978   2.958   4.299   0.089
 2654SOL     OW 7979   1.940   4.280   1.386
 2654SOL    HW1 7980   2.032   4.279   1.345
 2654SOL    HW2 7981   1.934   4.354   1.453
 2655SOL     OW 7982   2.423   3.946   1.147
 2655SOL    HW1 7983   2.461   3.862   1.184
 2655SOL    HW2 7984   2.335   3.965   1.191
 2656SOL     OW 7985   2.728   4.178   0.642
 2656SOL    HW1 7986   2.696   4.250   0.580
 2656SOL    HW2 7987   2.752   4.097   0.589
 2657SOL     OW 7988   2.879   3.763   0.753
 2657SOL    HW1 7989   2.807   3.768   0.684
 2657SOL    HW2 7990   2.855   3.694   0.822
 2658SOL     OW 7991   3.291   4.897   0.867
 2658SOL    HW1 7992   3.236   4.813   0.860
 2658SOL    HW2 7993   3.317   4.926   0.775
 2659SOL     OW 7994   3.328   4.314   0.992
 2659SOL    HW1 7995   3.298   4.219   0.999
 2659SOL    HW2 7996   3.401   4.330   1.058
 2660SOL     OW 7997   3.719   4.557   0.377
 2660SOL    HW1 7998   3.761   4.493   0.441
 2660SOL    HW2 7999   3.681   4.506   0.299
 2661SOL     OW 8000   3.252   4.299   0.078
 2661SOL    HW1 8001   3.198   4.278   0.159
 2661SOL    HW2 8002   3.343   4.258   0.087
 2662SOL     OW 8003   2.389   3.980   0.328
 2662SOL    HW1 8004   2.416   3.921   0.253
 2662SOL    HW2 8005   2.389   4.075   0.297
 2663SOL     OW 8006   3.616   4.947   1.588
 2663SOL    HW1 8007   3.707   4.908   1.575
 2663SOL    HW2 8008   3.624   5.043   1.612
 2664SOL     OW 8009   3.500   4.823   1.079
 2664SOL    HW1 8010   3.505   4.904   1.138
 2664SOL    HW2 8011   3.414   4.825   1.028
 2665SOL     OW 8012   2.777   3.813   1.402
 2665SOL    HW1 8013   2.802   3.793   1.307
 2665SOL    HW2 8014   2.849   3.869   1.444
 2666SOL     OW 8015   2.567   4.774   0.368
 2666SOL    HW1 8016   2.553   4.781   0.467
 2666SOL    HW2 8017   2.651   4.723   0.350
 2667SOL     OW 8018   2.272   4.537   1.251
 2667SOL    HW1 8019   2.358   4.549   1.301
 2667SOL    HW2 8020   2.230   4.450   1.278
 2668SOL     OW 8021   3.136   4.110   1.262
 2668SOL    HW1 8022   3.157   4.184   1.326
 2668SOL    HW2 8023   3.047   4.127   1.219
 2669SOL     OW 8024   2.229   4.824   0.501
 2669SOL    HW1 8025   2.222   4.907   0.445
 2669SOL    HW2 8026   2.233   4.744   0.441
 2670SOL     OW 8027   2.428   4.261   0.865
 2670SOL    HW1 8028   2.440   4.327   0.791
 2670SOL    HW2 8029   2.474   4.295   0.948
 2671SOL     OW 8030   3.444   4.363   0.472
 2671SOL    HW1 8031   3.413   4.424   0.545
 2671SOL    HW2 8032   3.494   4.415   0.403
 2672SOL     OW 8033   2.264   4.475   1.598
 2672SOL    HW1 8034   2.332   4.530   1.551
 2672SOL    HW2 8035   2.304   4.387   1.625
 2673SOL     OW 8036   3.449   4.503   1.670
 2673SOL    HW1 8037   3.357   4.541   1.665
 2673SOL    HW2 8038   3.509   4.550   1.605
 2674SOL     OW 8039   2.875   3.829   1.770
 2674SOL    HW1 8040   2.881   3.914   1.718
 2674SOL    HW2 8041   2.907   3.753   1.713
 2675SOL     OW 8042   2.366   3.774   1.740
 2675SOL    HW1 8043   2.324   3.717   1.670
 2675SOL    HW2 8044   2.300   3.843   1.772
 2676SOL     OW 8045   2.435   4.594   1.029
 2676SOL    HW1 8046   2.479   4.683   1.020
 2676SOL    HW2 8047   2.372   4.594   1.106
 2677SOL     OW 8048   3.222   4.586   1.045
 2677SOL    HW1 8049   3.147   4.586   0.979
 2677SOL    HW2 8050   3.259   4.494   1.054
 2678SOL     OW 8051   3.071   4.249   0.275
 2678SOL    HW1 8052   3.084   4.165   0.329
 2678SOL    HW2 8053   3.042   4.323   0.335
 2679SOL     OW 8054   2.169   3.937   1.231
 2679SOL    HW1 8055   2.146   3.974   1.321
 2679SOL    HW2 8056   2.139   3.842   1.225
 2680SOL     OW 8057   2.594   4.358   1.064
 2680SOL    HW1 8058   2.653   4.332   0.988
 2680SOL    HW2 8059   2.566   4.454   1.053
 2681SOL     OW 8060   3.590   4.659   1.854
 2681SOL    HW1 8061   3.544   4.652   1.765
 2681SOL    HW2 8062   3.528   4.703   1.920
 2682SOL     OW 8063   2.169   3.787   0.618
 2682SOL    HW1 8064   2.158   3.881   0.651
 2682SOL    HW2 8065   2.164   3.724   0.695
 2683SOL     OW 8066   3.484   4.091   0.374
 2683SOL    HW1 8067   3.486   4.015   0.438
 2683SOL    HW2 8068   3.436   4.168   0.414
 2684SOL     OW 8069   2.885   4.490   0.966
 2684SOL    HW1 8070   2.900   4.511   1.062
 2684SOL    HW2 8071   2.855   4.395   0.957
 2685SOL     OW 8072   2.212   4.622   1.804
 2685SOL    HW1 8073   2.288   4.666   1.852
 2685SOL    HW2 8074   2.247   4.575   1.722
 2686SOL     OW 8075   3.402   3.998   0.125
 2686SOL    HW1 8076   3.341   3.923   0.148
 2686SOL    HW2 8077   3.424   4.050   0.208
 2687SOL     OW 8078   3.165   4.562   0.042
 2687SOL    HW1 8079   3.199   4.469   0.057
 2687SOL    HW2 8080   3.183   4.589  -0.053
 2688SOL     OW 8081   2.181   4.534   0.949
 2688SOL    HW1 8082   2.274   4.570   0.954
 2688SOL    HW2 8083   2.175   4.449   1.001
 2689SOL     OW 8084   2.201   4.233   1.006
 2689SOL    HW1 8085   2.149   4.150   0.989
 2689SOL    HW2 8086   2.278   4.238   0.942
 2690SOL     OW 8087   3.000   4.104   1.678
 2690SOL    HW1 8088   2.955   4.167   1.742
 2690SOL    HW2 8089   3.093   4.135   1.661
 2691SOL     OW 8090   3.022   3.931   1.477
 2691SOL    HW1 8091   3.022   3.995   1.554
 2691SOL    HW2 8092   3.050   3.979   1.394
 2692SOL     OW 8093   2.864   4.520   1.238
 2692SOL    HW1 8094   2.905   4.488   1.324
 2692SOL    HW2 8095   2.768   4.493   1.235
 2693SOL     OW 8096   1.902   4.268   1.114
 2693SOL    HW1 8097   1.987   4.235   1.073
 2693SOL    HW2 8098   1.915   4.283   1.212
 2694SOL     OW 8099   2.051   4.244   1.722
 2694SOL    HW1 8100   2.110   4.204   1.652
 2694SOL    HW2 8101   1.993   4.315   1.681
 2695SOL     OW 8102   3.231   4.674   1.660
 2695SOL    HW1 8103   3.270   4.763   1.680
 2695SOL    HW2 8104   3.241   4.654   1.563
 2696SOL     OW 8105   2.677   4.296   0.325
 2696SOL    HW1 8106   2.684   4.207   0.279
 2696SOL    HW2 8107   2.583   4.330   0.317
 2697SOL     OW 8108   3.519   4.328   1.206
 2697SOL    HW1 8109   3.481   4.259   1.268
 2697SOL    HW2 8110   3.601   4.292   1.162
 2698SOL     OW 8111   2.533   4.188   1.269
 2698SOL    HW1 8112   2.499   4.099   1.239
 2698SOL    HW2 8113   2.559   4.242   1.189
 2699SOL     OW 8114   2.335   4.224   0.191
 2699SOL    HW1 8115   2.396   4.304   0.195
 2699SOL    HW2 8116   2.240   4.255   0.198
 2700SOL     OW 8117   2.021   4.861   1.466
 2700SOL    HW1 8118   2.043   4.800   1.542
 2700SOL    HW2 8119   2.031   4.812   1.380
 2701SOL     OW 8120   3.209   4.783   1.234
 2701SOL    HW1 8121   3.233   4.720   1.160
 2701SOL    HW2 8122   3.119   4.823   1.216
 2702SOL     OW 8123   3.164   4.579   0.309
 2702SOL    HW1 8124   3.078   4.548   0.351
 2702SOL    HW2 8125   3.160   4.565   0.210
 2703SOL     OW 8126   2.765   3.810   0.133
 2703SOL    HW1 8127   2.816   3.811   0.047
 2703SOL    HW2 8128   2.821   3.768   0.204
 2704SOL     OW 8129   3.588   3.859   0.523
 2704SOL    HW1 8130   3.661   3.842   0.456
 2704SOL    HW2 8131   3.557   3.772   0.561
 2705SOL     OW 8132   3.142   4.651   0.672
 2705SOL    HW1 8133   3.202   4.570   0.674
 2705SOL    HW2 8134   3.182   4.720   0.612
 2706SOL     OW 8135   3.703   3.899   0.963
 2706SOL    HW1 8136   3.742   3.814   0.927
 2706SOL    HW2 8137   3.605   3.901   0.944
 2707SOL     OW 8138   2.125   4.050   0.720
 2707SOL    HW1 8139   2.046   4.101   0.686
 2707SOL    HW2 8140   2.116   4.035   0.818
 2708SOL     OW 8141   2.684   4.726   1.372
 2708SOL    HW1 8142   2.724   4.725   1.280
 2708SOL    HW2 8143   2.694   4.818   1.412
 2709SOL     OW 8144   2.778   4.634   0.291
 2709SOL    HW1 8145   2.841   4.672   0.223
 2709SOL    HW2 8146   2.818   4.551   0.330
 2710SOL     OW 8147   2.234   5.012   1.490
 2710SOL    HW1 8148   2.221   5.105   1.456
 2710SOL    HW2 8149   2.150   4.960   1.477
 2711SOL     OW 8150   2.876   3.960   0.971
 2711SOL    HW1 8151   2.868   3.924   0.878
 2711SOL    HW2 8152   2.874   3.884   1.036
 2712SOL     OW 8153   3.571   4.109   1.381
 2712SOL    HW1 8154   3.644   4.178   1.385
 2712SOL    HW2 8155   3.599   4.034   1.322
 2713SOL     OW 8156   1.967   4.737   1.726
 2713SOL    HW1 8157   1.890   4.704   1.780
 2713SOL    HW2 8158   2.052   4.707   1.768
 2714SOL     OW 8159   2.534   3.927   1.489
 2714SOL    HW1 8160   2.624   3.911   1.449
 2714SOL    HW2 8161   2.542   3.932   1.588
 2715SOL     OW 8162   3.302   4.580   1.398
 2715SOL    HW1 8163   3.245   4.632   1.335
 2715SOL    HW2 8164   3.398   4.592   1.374
 2716SOL     OW 8165   1.934   3.890   0.318
 2716SOL    HW1 8166   1.917   3.973   0.264
 2716SOL    HW2 8167   2.024   3.853   0.296
 2717SOL     OW 8168   3.045   5.059   0.119
 2717SOL    HW1 8169   2.946   5.048   0.121
 2717SOL    HW2 8170   3.079   5.074   0.212
 2718SOL     OW 8171   2.475   4.566   1.431
 2718SOL    HW1 8172   2.531   4.647   1.414
 2718SOL    HW2 8173   2.534   4.486   1.434
 2719SOL     OW 8174   2.578   4.289   1.708
 2719SOL    HW1 8175   2.597   4.354   1.782
 2719SOL    HW2 8176   2.638   4.209   1.717
 2720SOL     OW 8177   3.312   4.944   1.633
 2720SOL    HW1 8178   3.303   4.934   1.732
 2720SOL    HW2 8179   3.408   4.937   1.607
 2721SOL     OW 8180   3.536   4.607   1.254
 2721SOL    HW1 8181   3.509   4.518   1.217
 2721SOL    HW2 8182   3.537   4.675   1.181
 2722SOL     OW 8183   3.087   4.049   0.449
 2722SOL    HW1 8184   3.152   3.975   0.438
 2722SOL    HW2 8185   3.107   4.099   0.533
 2723SOL     OW 8186   2.456   4.469   0.652
 2723SOL    HW1 8187   2.506   4.554   0.633
 2723SOL    HW2 8188   2.368   4.471   0.604
 2724SOL     OW 8189   3.639   4.066   1.642
 2724SOL    HW1 8190   3.622   4.097   1.548
 2724SOL    HW2 8191   3.555   4.029   1.680
 2725SOL     OW 8192   3.592   4.658   1.517
 2725SOL    HW1 8193   3.630   4.749   1.532
 2725SOL    HW2 8194   3.584   4.641   1.418
 2726SOL     OW 8195   2.721   4.680   0.861
 2726SOL    HW1 8196   2.775   4.611   0.909
 2726SOL    HW2 8197   2.689   4.749   0.927
 2727SOL     OW 8198   2.945   4.708   0.087
 2727SOL    HW1 8199   2.922   4.761   0.005
 2727SOL    HW2 8200   3.026   4.652   0.068
 2728SOL     OW 8201   1.941   4.964   0.653
 2728SOL    HW1 8202   1.940   4.917   0.741
 2728SOL    HW2 8203   2.023   4.936   0.602
 2729SOL     OW 8204   3.686   3.916   1.227
 2729SOL    HW1 8205   3.682   3.826   1.271
 2729SOL    HW2 8206   3.689   3.905   1.128
 2730SOL     OW 8207   2.290   4.148   0.520
 2730SOL    HW1 8208   2.320   4.076   0.458
 2730SOL    HW2 8209   2.251   4.108   0.603
 2731SOL     OW 8210   2.179   4.271   1.280
 2731SOL    HW1 8211   2.217   4.212   1.352
 2731SOL    HW2 8212   2.219   4.245   1.192
 2732SOL     OW 8213   3.286   3.938   1.112
 2732SOL    HW1 8214   3.338   3.873   1.167
 2732SOL    HW2 8215   3.237   4.001   1.173
 2733SOL     OW 8216   2.863   3.758   1.154
 2733SOL    HW1 8217   2.800   3.686   1.123
 2733SOL    HW2 8218   2.956   3.722   1.154
 2734SOL     OW 8219   2.632   5.054   0.301
 2734SOL    HW1 8220   2.586   4.967   0.318
 2734SOL    HW2 8221   2.723   5.051   0.342
 2735SOL     OW 8222   3.214   3.776   0.168
 2735SOL    HW1 8223   3.249   3.735   0.084
 2735SOL    HW2 8224   3.124   3.738   0.188
 2736SOL     OW 8225   3.162   4.177   0.691
 2736SOL    HW1 8226   3.103   4.257   0.695
 2736SOL    HW2 8227   3.177   4.142   0.784
 2737SOL     OW 8228   3.455   3.945   0.882
 2737SOL    HW1 8229   3.371   3.944   0.936
 2737SOL    HW2 8230   3.457   4.028   0.826
 2738SOL     OW 8231   2.092   4.352   1.975
 2738SOL    HW1 8232   1.999   4.350   2.012
 2738SOL    HW2 8233   2.093   4.313   1.883
 2739SOL     OW 8234   2.087   3.999   2.858
 2739SOL    HW1 8235   2.122   3.982   2.950
 2739SOL    HW2 8236   1.999   3.954   2.846
 2740SOL     OW 8237   1.881   4.092   2.509
 2740SOL    HW1 8238   1.799   4.135   2.548
 2740SOL    HW2 8239   1.853   4.019   2.446
 2741SOL     OW 8240   2.997   4.427   2.579
 2741SOL    HW1 8241   3.054   4.505   2.554
 2741SOL    HW2 8242   2.937   4.453   2.655
 2742SOL     OW 8243   3.617   4.331   2.093
 2742SOL    HW1 8244   3.605   4.318   1.994
 2742SOL    HW2 8245   3.587   4.250   2.142
 2743SOL     OW 8246   2.630   4.868   2.885
 2743SOL    HW1 8247   2.552   4.885   2.945
 2743SOL    HW2 8248   2.664   4.955   2.849
 2744SOL     OW 8249   2.712   4.522   3.685
 2744SOL    HW1 8250   2.708   4.598   3.750
 2744SOL    HW2 8251   2.734   4.558   3.594
 2745SOL     OW 8252   2.547   4.736   2.527
 2745SOL    HW1 8253   2.616   4.720   2.597
 2745SOL    HW2 8254   2.474   4.793   2.565
 2746SOL     OW 8255   3.322   5.229   3.201
 2746SOL    HW1 8256   3.346   5.323   3.227
 2746SOL    HW2 8257   3.306   5.175   3.283
 2747SOL     OW 8258   2.300   4.116   3.361
 2747SOL    HW1 8259   2.382   4.060   3.370
 2747SOL    HW2 8260   2.219   4.058   3.365
 2748SOL     OW 8261   3.465   4.171   2.599
 2748SOL    HW1 8262   3.391   4.217   2.549
 2748SOL    HW2 8263   3.516   4.239   2.652
 2749SOL     OW 8264   2.102   4.815   2.748
 2749SOL    HW1 8265   2.116   4.731   2.800
 2749SOL    HW2 8266   2.047   4.879   2.803
 2750SOL     OW 8267   2.468   4.688   1.985
 2750SOL    HW1 8268   2.475   4.772   1.931
 2750SOL    HW2 8269   2.514   4.701   2.073
 2751SOL     OW 8270   3.456   3.838   3.342
 2751SOL    HW1 8271   3.438   3.905   3.270
 2751SOL    HW2 8272   3.453   3.884   3.431
 2752SOL     OW 8273   1.984   4.367   2.425
 2752SOL    HW1 8274   1.939   4.279   2.442
 2752SOL    HW2 8275   1.983   4.421   2.509
 2753SOL     OW 8276   3.551   4.646   2.474
 2753SOL    HW1 8277   3.646   4.617   2.482
 2753SOL    HW2 8278   3.543   4.711   2.399
 2754SOL     OW 8279   1.975   4.461   3.459
 2754SOL    HW1 8280   2.063   4.448   3.504
 2754SOL    HW2 8281   1.962   4.558   3.437
 2755SOL     OW 8282   2.475   5.089   2.588
 2755SOL    HW1 8283   2.426   5.002   2.597
 2755SOL    HW2 8284   2.452   5.132   2.501
 2756SOL     OW 8285   3.155   4.952   3.285
 2756SOL    HW1 8286   3.192   4.879   3.227
 2756SOL    HW2 8287   3.207   4.957   3.370
 2757SOL     OW 8288   2.671   3.728   2.364
 2757SOL    HW1 8289   2.711   3.819   2.355
 2757SOL    HW2 8290   2.571   3.736   2.370
 2758SOL     OW 8291   2.059   4.700   3.126
 2758SOL    HW1 8292   2.148   4.655   3.112
 2758SOL    HW2 8293   1.986   4.635   3.107
 2759SOL     OW 8294   3.387   4.723   2.052
 2759SOL    HW1 8295   3.324   4.647   2.065
 2759SOL    HW2 8296   3.435   4.741   2.138
 2760SOL     OW 8297   2.179   3.975   3.663
 2760SOL    HW1 8298   2.250   4.046   3.669
 2760SOL    HW2 8299   2.091   4.014   3.691
 2761SOL     OW 8300   2.460   4.453   2.132
 2761SOL    HW1 8301   2.484   4.522   2.064
 2761SOL    HW2 8302   2.382   4.486   2.186
 2762SOL     OW 8303   3.143   4.069   2.806
 2762SOL    HW1 8304   3.057   4.019   2.793
 2762SOL    HW2 8305   3.205   4.015   2.862
 2763SOL     OW 8306   2.669   4.329   3.327
 2763SOL    HW1 8307   2.622   4.326   3.416
 2763SOL    HW2 8308   2.618   4.274   3.261
 2764SOL     OW 8309   3.256   4.193   3.536
 2764SOL    HW1 8310   3.236   4.236   3.624
 2764SOL    HW2 8311   3.334   4.131   3.545
 2765SOL     OW 8312   2.835   4.614   3.434
 2765SOL    HW1 8313   2.881   4.530   3.405
 2765SOL    HW2 8314   2.779   4.648   3.359
 2766SOL     OW 8315   2.853   4.134   3.104
 2766SOL    HW1 8316   2.776   4.168   3.158
 2766SOL    HW2 8317   2.819   4.083   3.025
 2767SOL     OW 8318   2.903   4.425   2.291
 2767SOL    HW1 8319   2.929   4.421   2.387
 2767SOL    HW2 8320   2.818   4.374   2.277
 2768SOL     OW 8321   1.938   4.535   2.651
 2768SOL    HW1 8322   2.037   4.523   2.660
 2768SOL    HW2 8323   1.914   4.630   2.672
 2769SOL     OW 8324   2.727   4.072   2.057
 2769SOL    HW1 8325   2.786   4.135   2.008
 2769SOL    HW2 8326   2.746   3.978   2.028
 2770SOL     OW 8327   3.581   4.309   3.693
 2770SOL    HW1 8328   3.555   4.398   3.657
 2770SOL    HW2 8329   3.579   4.241   3.620
 2771SOL     OW 8330   2.412   3.920   2.747
 2771SOL    HW1 8331   2.407   3.915   2.847
 2771SOL    HW2 8332   2.414   4.016   2.718
 2772SOL     OW 8333   3.657   4.790   2.735
 2772SOL    HW1 8334   3.595   4.775   2.659
 2772SOL    HW2 8335   3.605   4.801   2.820
 2773SOL     OW 8336   2.183   4.667   2.104
 2773SOL    HW1 8337   2.265   4.706   2.062
 2773SOL    HW2 8338   2.156   4.585   2.055
 2774SOL     OW 8339   3.320   4.459   2.590
 2774SOL    HW1 8340   3.315   4.394   2.665
 2774SOL    HW2 8341   3.400   4.518   2.603
 2775SOL     OW 8342   2.064   4.009   3.360
 2775SOL    HW1 8343   1.984   4.069   3.347
 2775SOL    HW2 8344   2.054   3.960   3.446
 2776SOL     OW 8345   3.262   3.831   2.288
 2776SOL    HW1 8346   3.238   3.794   2.198
 2776SOL    HW2 8347   3.361   3.847   2.292
 2777SOL     OW 8348   2.244   4.424   2.342
 2777SOL    HW1 8349   2.289   4.334   2.339
 2777SOL    HW2 8350   2.150   4.413   2.375
 2778SOL     OW 8351   3.409   3.946   3.591
 2778SOL    HW1 8352   3.404   3.983   3.683
 2778SOL    HW2 8353   3.337   3.877   3.579
 2779SOL     OW 8354   2.476   3.846   1.979
 2779SOL    HW1 8355   2.574   3.824   1.986
 2779SOL    HW2 8356   2.445   3.829   1.886
 2780SOL     OW 8357   2.643   3.988   3.611
 2780SOL    HW1 8358   2.710   3.927   3.654
 2780SOL    HW2 8359   2.570   4.007   3.676
 2781SOL     OW 8360   3.213   4.314   3.295
 2781SOL    HW1 8361   3.241   4.271   3.380
 2781SOL    HW2 8362   3.238   4.410   3.296
 2782SOL     OW 8363   2.784   4.227   2.761
 2782SOL    HW1 8364   2.759   4.218   2.665
 2782SOL    HW2 8365   2.832   4.145   2.792
 2783SOL     OW 8366   2.401   3.788   2.374
 2783SOL    HW1 8367   2.320   3.789   2.432
 2783SOL    HW2 8368   2.404   3.871   2.319
 2784SOL     OW 8369   2.159   3.759   2.033
 2784SOL    HW1 8370   2.208   3.843   2.012
 2784SOL    HW2 8371   2.221   3.694   2.078
 2785SOL     OW 8372   2.797   3.960   2.342
 2785SOL    HW1 8373   2.749   4.001   2.264
 2785SOL    HW2 8374   2.896   3.958   2.323
 2786SOL     OW 8375   2.938   4.407   3.326
 2786SOL    HW1 8376   2.858   4.346   3.329
 2786SOL    HW2 8377   3.019   4.354   3.302
 2787SOL     OW 8378   2.321   4.876   2.603
 2787SOL    HW1 8379   2.250   4.849   2.668
 2787SOL    HW2 8380   2.295   4.848   2.510
 2788SOL     OW 8381   2.894   4.273   1.878
 2788SOL    HW1 8382   2.853   4.355   1.839
 2788SOL    HW2 8383   2.958   4.299   1.951
 2789SOL     OW 8384   1.940   4.280   3.248
 2789SOL    HW1 8385   2.032   4.279   3.207
 2789SOL    HW2 8386   1.934   4.354   3.315
 2790SOL     OW 8387   2.423   3.946   3.009
 2790SOL    HW1 8388   2.461   3.862   3.046
 2790SOL    HW2 8389   2.335   3.965   3.053
 2791SOL     OW 8390   2.728   4.178   2.504
 2791SOL    HW1 8391   2.696   4.250   2.442
 2791SOL    HW2 8392   2.752   4.097   2.451
 2792SOL     OW 8393   2.879   3.763   2.615
 2792SOL    HW1 8394   2.807   3.768   2.546
 2792SOL    HW2 8395   2.855   3.694   2.684
 2793SOL     OW 8396   3.291   4.897   2.729
 2793SOL    HW1 8397   3.236   4.813   2.722
 2793SOL    HW2 8398   3.317   4.926   2.637
 2794SOL     OW 8399   3.328   4.314   2.854
 2794SOL    HW1 8400   3.298   4.219   2.861
 2794SOL    HW2 8401   3.401   4.330   2.920
 2795SOL     OW 8402   3.719   4.557   2.239
 2795SOL    HW1 8403   3.761   4.493   2.303
 2795SOL    HW2 8404   3.681   4.506   2.161
 2796SOL     OW 8405   3.252   4.299   1.940
 2796SOL    HW1 8406   3.198   4.278   2.021
 2796SOL    HW2 8407   3.343   4.258   1.949
 2797SOL     OW 8408   2.389   3.980   2.190
 2797SOL    HW1 8409   2.416   3.921   2.115
 2797SOL    HW2 8410   2.389   4.075   2.159
 2798SOL     OW 8411   3.616   4.947   3.450
 2798SOL    HW1 8412   3.707   4.908   3.437
 2798SOL    HW2 8413   3.624   5.043   3.474
 2799SOL     OW 8414   3.500   4.823   2.941
 2799SOL    HW1 8415   3.505   4.904   3.000
 2799SOL    HW2 8416   3.414   4.825   2.890
 2800SOL     OW 8417   2.777   3.813   3.264
 2800SOL    HW1 8418   2.802   3.793   3.169
 2800SOL    HW2 8419   2.849   3.869   3.306
 2801SOL     OW 8420   2.567   4.774   2.230
 2801SOL    HW1 8421   2.553   4.781   2.329
 2801SOL    HW2 8422   2.651   4.723   2.212
 2802SOL     OW 8423   2.272   4.537   3.113
 2802SOL    HW1 8424   2.358   4.549   3.163
 2802SOL    HW2 8425   2.230   4.450   3.140
 2803SOL     OW 8426   3.136   4.110   3.124
 2803SOL    HW1 8427   3.157   4.184   3.188
 2803SOL    HW2 8428   3.047   4.127   3.081
 2804SOL     OW 8429   2.229   4.824   2.363
 2804SOL    HW1 8430   2.222   4.907   2.307
 2804SOL    HW2 8431   2.233   4.744   2.303
 2805SOL     OW 8432   2.428   4.261   2.727
 2805SOL    HW1 8433   2.440   4.327   2.653
 2805SOL    HW2 8434   2.474   4.295   2.810
 2806SOL     OW 8435   3.444   4.363   2.334
 2806SOL    HW1 8436   3.413   4.424   2.407
 2806SOL    HW2 8437   3.494   4.415   2.265
 2807SOL     OW 8438   2.264   4.475   3.460
 2807SOL    HW1 8439   2.332   4.530   3.413
 2807SOL    HW2 8440   2.304   4.387   3.487
 2808SOL     OW 8441   3.449   4.503   3.532
 2808SOL    HW1 8442   3.357   4.541   3.527
 2808SOL    HW2 8443   3.509   4.550   3.467
 2809SOL     OW 8444   2.875   3.829   3.632
 2809SOL    HW1 8445   2.881   3.914   3.580
 2809SOL    HW2 8446   2.907   3.753   3.575
 2810SOL     OW 8447   2.366   3.774   3.602
 2810SOL    HW1 8448   2.324   3.717   3.532
 2810SOL    HW2 8449   2.300   3.843   3.634
 2811SOL     OW 8450   2.435   4.594   2.891
 2811SOL    HW1 8451   2.479   4.683   2.882
 2811SOL    HW2 8452   2.372   4.594   2.968
 2812SOL     OW 8453   3.222   4.586   2.907
 2812SOL    HW1 8454   3.147   4.586   2.841
 2812SOL    HW2 8455   3.259   4.494   2.916
 2813SOL     OW 8456   3.071   4.249   2.137
 2813SOL    HW1 8457   3.084   4.165   2.191
 2813SOL    HW2 8458   3.042   4.323   2.197
 2814SOL     OW 8459   2.169   3.937   3.093
 2814SOL    HW1 8460   2.146   3.974   3.183
 2814SOL    HW2 8461   2.139   3.842   3.087
 2815SOL     OW 8462   2.594   4.358   2.926
 2815SOL    HW1 8463   2.653   4.332   2.850
 2815SOL    HW2 8464   2.566   4.454   2.915
 2816SOL     OW 8465   3.590   4.659   3.716
 2816SOL    HW1 8466   3.544   4.652   3.627
 2816SOL    HW2 8467   3.528   4.703   3.782
 2817SOL     OW 8468   2.169   3.787   2.480
 2817SOL    HW1 8469   2.158   3.881   2.513
 2817SOL    HW2 8470   2.164   3.724   2.557
 2818SOL     OW 8471   3.484   4.091   2.236
 2818SOL    HW1 8472   3.486   4.015   2.300
 2818SOL    HW2 8473   3.436   4.168   2.276
 2819SOL     OW 8474   2.885   4.490   2.828
 2819SOL    HW1 8475   2.900   4.511   2.924
 2819SOL    HW2 8476   2.855   4.395   2.819
 2820SOL     OW 8477   2.212   4.622   3.666
 2820SOL    HW1 8478   2.288   4.666   3.714
 2820SOL    HW2 8479   2.247   4.575   3.584
 2821SOL     OW 8480   3.402   3.998   1.987
 2821SOL    HW1 8481   3.341   3.923   2.010
 2821SOL    HW2 8482   3.424   4.050   2.070
 2822SOL     OW 8483   3.165   4.562   1.904
 2822SOL    HW1 8484   3.199   4.469   1.919
 2822SOL    HW2 8485   3.183   4.589   1.809
 2823SOL     OW 8486   2.181   4.534   2.811
 2823SOL    HW1 8487   2.274   4.570   2.816
 2823SOL    HW2 8488   2.175   4.449   2.863
 2824SOL     OW 8489   2.201   4.233   2.868
 2824SOL    HW1 8490   2.149   4.150   2.851
 2824SOL    HW2 8491   2.278   4.238   2.804
 2825SOL     OW 8492   3.000   4.104   3.540
 2825SOL    HW1 8493   2.955   4.167   3.604
 2825SOL    HW2 8494   3.093   4.135   3.523
 2826SOL     OW 8495   3.022   3.931   3.339
 2826SOL    HW1 8496   3.022   3.995   3.416
 2826SOL    HW2 8497   3.050   3.979   3.256
 2827SOL     OW 8498   2.864   4.520   3.100
 2827SOL    HW1 8499   2.905   4.488   3.186
 2827SOL    HW2 8500   2.768   4.493   3.097
 2828SOL     OW 8501   1.902   4.268   2.976
 2828SOL    HW1 8502   1.987   4.235   2.935
 2828SOL    HW2 8503   1.915   4.283   3.074
 2829SOL     OW 8504   2.051   4.244   3.584
 2829SOL    HW1 8505   2.110   4.204   3.514
 2829SOL    HW2 8506   1.993   4.315   3.543
 2830SOL     OW 8507   3.231   4.674   3.522
 2830SOL    HW1 8508   3.270   4.763   3.542
 2830SOL    HW2 8509   3.241   4.654   3.425
 2831SOL     OW 8510   2.677   4.296   2.187
 2831SOL    HW1 8511   2.684   4.207   2.141
 2831SOL    HW2 8512   2.583   4.330   2.179
 2832SOL     OW 8513   3.519   4.328   3.068
 2832SOL    HW1 8514   3.481   4.259   3.130
 2832SOL    HW2 8515   3.601   4.292   3.024
 2833SOL     OW 8516   2.533   4.188   3.131
 2833SOL    HW1 8517   2.499   4.099   3.101
 2833SOL    HW2 8518   2.559   4.242   3.051
 2834SOL     OW 8519   2.335   4.224   2.053
 2834SOL    HW1 8520   2.396   4.304   2.057
 2834SOL    HW2 8521   2.240   4.255   2.060
 2835SOL     OW 8522   2.021   4.861   3.328
 2835SOL    HW1 8523   2.043   4.800   3.404
 2835SOL    HW2 8524   2.031   4.812   3.242
 2836SOL     OW 8525   3.209   4.783   3.096
 2836SOL    HW1 8526   3.233   4.720   3.022
 2836SOL    HW2 8527   3.119   4.823   3.078
 2837SOL     OW 8528   3.164   4.579   2.171
 2837SOL    HW1 8529   3.078   4.548   2.213
 2837SOL    HW2 8530   3.160   4.565   2.072
 2838SOL     OW 8531   3.588   3.859   2.385
 2838SOL    HW1 8532   3.661   3.842   2.318
 2838SOL    HW2 8533   3.557   3.772   2.423
 2839SOL     OW 8534   3.142   4.651   2.534
 2839SOL    HW1 8535   3.202   4.570   2.536
 2839SOL    HW2 8536   3.182   4.720   2.474
 2840SOL     OW 8537   3.703   3.899   2.825
 2840SOL    HW1 8538   3.742   3.814   2.789
 2840SOL    HW2 8539   3.605   3.901   2.806
 2841SOL     OW 8540   2.125   4.050   2.582
 2841SOL    HW1 8541   2.046   4.101   2.548
 2841SOL    HW2 8542   2.116   4.035   2.680
 2842SOL     OW 8543   2.684   4.726   3.234
 2842SOL    HW1 8544   2.724   4.725   3.142
 2842SOL    HW2 8545   2.694   4.818   3.274
 2843SOL     OW 8546   2.778   4.634   2.153
 2843SOL    HW1 8547   2.841   4.672   2.085
 2843SOL    HW2 8548   2.818   4.551   2.192
 2844SOL     OW 8549   2.234   5.012   3.352
 2844SOL    HW1 8550   2.221   5.105   3.318
 2844SOL    HW2 8551   2.150   4.960   3.339
 2845SOL     OW 8552   2.876   3.960   2.833
 2845SOL    HW1 8553   2.868   3.924   2.740
 2845SOL    HW2 8554   2.874   3.884   2.898
 2846SOL     OW 8555   3.571   4.109   3.243
 2846SOL    HW1 8556   3.644   4.178   3.247
 2846SOL    HW2 8557   3.599   4.034   3.184
 2847SOL     OW 8558   1.967   4.737   3.588
 2847SOL    HW1 8559   1.890   4.704   3.642
 2847SOL    HW2 8560   2.052   4.707   3.630
 2848SOL     OW 8561   2.534   3.927   3.351
 2848SOL    HW1 8562   2.624   3.911   3.311
 2848SOL    HW2 8563   2.542   3.932   3.450
 2849SOL     OW 8564   1.937   4.069   1.895
 2849SOL    HW1 8565   1.845   4.041   1.866
 2849SOL    HW2 8566   1.968   4.146   1.839
 2850SOL     OW 8567   3.302   4.580   3.260
 2850SOL    HW1 8568   3.245   4.632   3.197
 2850SOL    HW2 8569   3.398   4.592   3.236
 2851SOL     OW 8570   1.934   3.890   2.180
 2851SOL    HW1 8571   1.917   3.973   2.126
 2851SOL    HW2 8572   2.024   3.853   2.158
 2852SOL     OW 8573   3.045   5.059   1.981
 2852SOL    HW1 8574   2.946   5.048   1.983
 2852SOL    HW2 8575   3.079   5.074   2.074
 2853SOL     OW 8576   2.475   4.566   3.293
 2853SOL    HW1 8577   2.531   4.647   3.276
 2853SOL    HW2 8578   2.534   4.486   3.296
 2854SOL     OW 8579   2.578   4.289   3.570
 2854SOL    HW1 8580   2.597   4.354   3.644
 2854SOL    HW2 8581   2.638   4.209   3.579
 2855SOL     OW 8582   3.312   4.944   3.495
 2855SOL    HW1 8583   3.303   4.934   3.594
 2855SOL    HW2 8584   3.408   4.937   3.469
 2856SOL     OW 8585   3.536   4.607   3.116
 2856SOL    HW1 8586   3.509   4.518   3.079
 2856SOL    HW2 8587   3.537   4.675   3.043
 2857SOL     OW 8588   3.087   4.049   2.311
 2857SOL    HW1 8589   3.152   3.975   2.300
 2857SOL    HW2 8590   3.107   4.099   2.395
 2858SOL     OW 8591   2.456   4.469   2.514
 2858SOL    HW1 8592   2.506   4.554   2.495
 2858SOL    HW2 8593   2.368   4.471   2.466
 2859SOL     OW 8594   3.639   4.066   3.504
 2859SOL    HW1 8595   3.622   4.097   3.410
 2859SOL    HW2 8596   3.555   4.029   3.542
 2860SOL     OW 8597   3.592   4.658   3.379
 2860SOL    HW1 8598   3.630   4.749   3.394
 2860SOL    HW2 8599   3.584   4.641   3.280
 2861SOL     OW 8600   2.721   4.680   2.723
 2861SOL    HW1 8601   2.775   4.611   2.771
 2861SOL    HW2 8602   2.689   4.749   2.789
 2862SOL     OW 8603   2.945   4.708   1.949
 2862SOL    HW1 8604   2.922   4.761   1.867
 2862SOL    HW2 8605   3.026   4.652   1.930
 2863SOL     OW 8606   1.941   4.964   2.515
 2863SOL    HW1 8607   1.940   4.917   2.603
 2863SOL    HW2 8608   2.023   4.936   2.464
 2864SOL     OW 8609   3.686   3.916   3.089
 2864SOL    HW1 8610   3.682   3.826   3.133
 2864SOL    HW2 8611   3.689   3.905   2.990
 2865SOL     OW 8612   2.290   4.148   2.382
 2865SOL    HW1 8613   2.320   4.076   2.320
 2865SOL    HW2 8614   2.251   4.108   2.465
 2866SOL     OW 8615   2.179   4.271   3.142
 2866SOL    HW1 8616   2.217   4.212   3.214
 2866SOL    HW2 8617   2.219   4.245   3.054
 2867SOL     OW 8618   3.286   3.938   2.974
 2867SOL    HW1 8619   3.338   3.873   3.029
 2867SOL    HW2 8620   3.237   4.001   3.035
 2868SOL     OW 8621   2.863   3.758   3.016
 2868SOL    HW1 8622   2.800   3.686   2.985
 2868SOL    HW2 8623   2.956   3.722   3.016
 2869SOL     OW 8624   2.632   5.054   2.163
 2869SOL    HW1 8625   2.586   4.967   2.180
 2869SOL    HW2 8626   2.723   5.051   2.204
 2870SOL     OW 8627   3.214   3.776   2.030
 2870SOL    HW1 8628   3.249   3.735   1.946
 2870SOL    HW2 8629   3.124   3.738   2.050
 2871SOL     OW 8630   3.162   4.177   2.553
 2871SOL    HW1 8631   3.103   4.257   2.557
 2871SOL    HW2 8632   3.177   4.142   2.646
 2872SOL     OW 8633   3.455   3.945   2.744
 2872SOL    HW1 8634   3.371   3.944   2.798
 2872SOL    HW2 8635   3.457   4.028   2.688
 2873SOL     OW 8636   1.901   4.801   2.162
 2873SOL    HW1 8637   2.000   4.790   2.153
 2873SOL    HW2 8638   1.861   4.715   2.194
 2874SOL     OW 8639   2.092   4.352   3.837
 2874SOL    HW1 8640   1.999   4.350   3.874
 2874SOL    HW2 8641   2.093   4.313   3.745
 2875SOL     OW 8642   2.087   3.999   4.720
 2875SOL    HW1 8643   2.122   3.982   4.812
 2875SOL    HW2 8644   1.999   3.954   4.708
 2876SOL     OW 8645   1.881   4.092   4.371
 2876SOL    HW1 8646   1.799   4.135   4.410
 2876SOL    HW2 8647   1.853   4.019   4.308
 2877SOL     OW 8648   2.997   4.427   4.441
 2877SOL    HW1 8649   3.054   4.505   4.416
 2877SOL    HW2 8650   2.937   4.453   4.517
 2878SOL     OW 8651   3.617   4.331   3.955
 2878SOL    HW1 8652   3.605   4.318   3.856
 2878SOL    HW2 8653   3.587   4.250   4.004
 2879SOL     OW 8654   2.630   4.868   4.747
 2879SOL    HW1 8655   2.552   4.885   4.807
 2879SOL    HW2 8656   2.664   4.955   4.711
 2880SOL     OW 8657   2.547   4.736   4.389
 2880SOL    HW1 8658   2.616   4.720   4.459
 2880SOL    HW2 8659   2.474   4.793   4.427
 2881SOL     OW 8660   3.465   4.171   4.461
 2881SOL    HW1 8661   3.391   4.217   4.411
 2881SOL    HW2 8662   3.516   4.239   4.514
 2882SOL     OW 8663   2.102   4.815   4.610
 2882SOL    HW1 8664   2.116   4.731   4.662
 2882SOL    HW2 8665   2.047   4.879   4.665
 2883SOL     OW 8666   2.468   4.688   3.847
 2883SOL    HW1 8667   2.475   4.772   3.793
 2883SOL    HW2 8668   2.514   4.701   3.935
 2884SOL     OW 8669   1.984   4.367   4.287
 2884SOL    HW1 8670   1.939   4.279   4.304
 2884SOL    HW2 8671   1.983   4.421   4.371
 2885SOL     OW 8672   3.551   4.646   4.336
 2885SOL    HW1 8673   3.646   4.617   4.344
 2885SOL    HW2 8674   3.543   4.711   4.261
 2886SOL     OW 8675   2.475   5.089   4.450
 2886SOL    HW1 8676   2.426   5.002   4.459
 2886SOL    HW2 8677   2.452   5.132   4.363
 2887SOL     OW 8678   2.671   3.728   4.226
 2887SOL    HW1 8679   2.711   3.819   4.217
 2887SOL    HW2 8680   2.571   3.736   4.232
 2888SOL     OW 8681   2.059   4.700   4.988
 2888SOL    HW1 8682   2.148   4.655   4.974
 2888SOL    HW2 8683   1.986   4.635   4.969
 2889SOL     OW 8684   3.387   4.723   3.914
 2889SOL    HW1 8685   3.324   4.647   3.927
 2889SOL    HW2 8686   3.435   4.741   4.000
 2890SOL     OW 8687   2.460   4.453   3.994
 2890SOL    HW1 8688   2.484   4.522   3.926
 2890SOL    HW2 8689   2.382   4.486   4.048
 2891SOL     OW 8690   3.143   4.069   4.668
 2891SOL    HW1 8691   3.057   4.019   4.655
 2891SOL    HW2 8692   3.205   4.015   4.724
 2892SOL     OW 8693   2.903   4.425   4.153
 2892SOL    HW1 8694   2.929   4.421   4.249
 2892SOL    HW2 8695   2.818   4.374   4.139
 2893SOL     OW 8696   1.938   4.535   4.513
 2893SOL    HW1 8697   2.037   4.523   4.522
 2893SOL    HW2 8698   1.914   4.630   4.534
 2894SOL     OW 8699   2.727   4.072   3.919
 2894SOL    HW1 8700   2.786   4.135   3.870
 2894SOL    HW2 8701   2.746   3.978   3.890
 2895SOL     OW 8702   2.412   3.920   4.609
 2895SOL    HW1 8703   2.407   3.915   4.709
 2895SOL    HW2 8704   2.414   4.016   4.580
 2896SOL     OW 8705   3.657   4.790   4.597
 2896SOL    HW1 8706   3.595   4.775   4.521
 2896SOL    HW2 8707   3.605   4.801   4.682
 2897SOL     OW 8708   2.183   4.667   3.966
 2897SOL    HW1 8709   2.265   4.706   3.924
 2897SOL    HW2 8710   2.156   4.585   3.917
 2898SOL     OW 8711   3.320   4.459   4.452
 2898SOL    HW1 8712   3.315   4.394   4.527
 2898SOL    HW2 8713   3.400   4.518   4.465
 2899SOL     OW 8714   3.262   3.831   4.150
 2899SOL    HW1 8715   3.238   3.794   4.060
 2899SOL    HW2 8716   3.361   3.847   4.154
 2900SOL     OW 8717   2.244   4.424   4.204
 2900SOL    HW1 8718   2.289   4.334   4.201
 2900SOL    HW2 8719   2.150   4.413   4.237
 2901SOL     OW 8720   2.476   3.846   3.841
 2901SOL    HW1 8721   2.574   3.824   3.848
 2901SOL    HW2 8722   2.445   3.829   3.748
 2902SOL     OW 8723   2.750   5.238   4.919
 2902SOL    HW1 8724   2.727   5.213   4.825
 2902SOL    HW2 8725   2.811   5.169   4.958
 2903SOL     OW 8726   2.784   4.227   4.623
 2903SOL    HW1 8727   2.759   4.218   4.527
 2903SOL    HW2 8728   2.832   4.145   4.654
 2904SOL     OW 8729   2.401   3.788   4.236
 2904SOL    HW1 8730   2.320   3.789   4.294
 2904SOL    HW2 8731   2.404   3.871   4.181
 2905SOL     OW 8732   2.159   3.759   3.895
 2905SOL    HW1 8733   2.208   3.843   3.874
 2905SOL    HW2 8734   2.221   3.694   3.940
 2906SOL     OW 8735   2.797   3.960   4.204
 2906SOL    HW1 8736   2.749   4.001   4.126
 2906SOL    HW2 8737   2.896   3.958   4.185
 2907SOL     OW 8738   2.321   4.876   4.465
 2907SOL    HW1 8739   2.250   4.849   4.530
 2907SOL    HW2 8740   2.295   4.848   4.372
 2908SOL     OW 8741   2.894   4.273   3.740
 2908SOL    HW1 8742   2.853   4.355   3.701
 2908SOL    HW2 8743   2.958   4.299   3.813
 2909SOL     OW 8744   2.728   4.178   4.366
 2909SOL    HW1 8745   2.696   4.250   4.304
 2909SOL    HW2 8746   2.752   4.097   4.313
 2910SOL     OW 8747   2.879   3.763   4.477
 2910SOL    HW1 8748   2.807   3.768   4.408
 2910SOL    HW2 8749   2.855   3.694   4.546
 2911SOL     OW 8750   3.291   4.897   4.591
 2911SOL    HW1 8751   3.236   4.813   4.584
 2911SOL    HW2 8752   3.317   4.926   4.499
 2912SOL     OW 8753   3.328   4.314   4.716
 2912SOL    HW1 8754   3.298   4.219   4.723
 2912SOL    HW2 8755   3.401   4.330   4.782
 2913SOL     OW 8756   3.719   4.557   4.101
 2913SOL    HW1 8757   3.761   4.493   4.165
 2913SOL    HW2 8758   3.681   4.506   4.023
 2914SOL     OW 8759   3.252   4.299   3.802
 2914SOL    HW1 8760   3.198   4.278   3.883
 2914SOL    HW2 8761   3.343   4.258   3.811
 2915SOL     OW 8762   2.389   3.980   4.052
 2915SOL    HW1 8763   2.416   3.921   3.977
 2915SOL    HW2 8764   2.389   4.075   4.021
 2916SOL     OW 8765   2.973   4.919   4.824
 2916SOL    HW1 8766   2.933   4.963   4.905
 2916SOL    HW2 8767   2.932   4.956   4.741
 2917SOL     OW 8768   3.500   4.823   4.803
 2917SOL    HW1 8769   3.505   4.904   4.862
 2917SOL    HW2 8770   3.414   4.825   4.752
 2918SOL     OW 8771   2.567   4.774   4.092
 2918SOL    HW1 8772   2.553   4.781   4.191
 2918SOL    HW2 8773   2.651   4.723   4.074
 2919SOL     OW 8774   2.272   4.537   4.975
 2919SOL    HW1 8775   2.358   4.549   5.025
 2919SOL    HW2 8776   2.230   4.450   5.002
 2920SOL     OW 8777   2.229   4.824   4.225
 2920SOL    HW1 8778   2.222   4.907   4.169
 2920SOL    HW2 8779   2.233   4.744   4.165
 2921SOL     OW 8780   2.428   4.261   4.589
 2921SOL    HW1 8781   2.440   4.327   4.515
 2921SOL    HW2 8782   2.474   4.295   4.672
 2922SOL     OW 8783   3.444   4.363   4.196
 2922SOL    HW1 8784   3.413   4.424   4.269
 2922SOL    HW2 8785   3.494   4.415   4.127
 2923SOL     OW 8786   2.435   4.594   4.753
 2923SOL    HW1 8787   2.479   4.683   4.744
 2923SOL    HW2 8788   2.372   4.594   4.830
 2924SOL     OW 8789   3.071   4.249   3.999
 2924SOL    HW1 8790   3.084   4.165   4.053
 2924SOL    HW2 8791   3.042   4.323   4.059
 2925SOL     OW 8792   2.169   3.937   4.955
 2925SOL    HW1 8793   2.146   3.974   5.045
 2925SOL    HW2 8794   2.139   3.842   4.949
 2926SOL     OW 8795   2.594   4.358   4.788
 2926SOL    HW1 8796   2.653   4.332   4.712
 2926SOL    HW2 8797   2.566   4.454   4.777
 2927SOL     OW 8798   2.169   3.787   4.342
 2927SOL    HW1 8799   2.158   3.881   4.375
 2927SOL    HW2 8800   2.164   3.724   4.419
 2928SOL     OW 8801   3.484   4.091   4.098
 2928SOL    HW1 8802   3.486   4.015   4.162
 2928SOL    HW2 8803   3.436   4.168   4.138
 2929SOL     OW 8804   2.885   4.490   4.690
 2929SOL    HW1 8805   2.900   4.511   4.786
 2929SOL    HW2 8806   2.855   4.395   4.681
 2930SOL     OW 8807   3.402   3.998   3.849
 2930SOL    HW1 8808   3.341   3.923   3.872
 2930SOL    HW2 8809   3.424   4.050   3.932
 2931SOL     OW 8810   3.165   4.562   3.766
 2931SOL    HW1 8811   3.199   4.469   3.781
 2931SOL    HW2 8812   3.183   4.589   3.671
 2932SOL     OW 8813   2.181   4.534   4.673
 2932SOL    HW1 8814   2.274   4.570   4.678
 2932SOL    HW2 8815   2.175   4.449   4.725
 2933SOL     OW 8816   2.201   4.233   4.730
 2933SOL    HW1 8817   2.149   4.150   4.713
 2933SOL    HW2 8818   2.278   4.238   4.666
 2934SOL     OW 8819   2.864   4.520   4.962
 2934SOL    HW1 8820   2.905   4.488   5.048
 2934SOL    HW2 8821   2.768   4.493   4.959
 2935SOL     OW 8822   1.902   4.268   4.838
 2935SOL    HW1 8823   1.987   4.235   4.797
 2935SOL    HW2 8824   1.915   4.283   4.936
 2936SOL     OW 8825   2.677   4.296   4.049
 2936SOL    HW1 8826   2.684   4.207   4.003
 2936SOL    HW2 8827   2.583   4.330   4.041
 2937SOL     OW 8828   3.519   4.328   4.930
 2937SOL    HW1 8829   3.481   4.259   4.992
 2937SOL    HW2 8830   3.601   4.292   4.886
 2938SOL     OW 8831   2.533   4.188   4.993
 2938SOL    HW1 8832   2.499   4.099   4.963
 2938SOL    HW2 8833   2.559   4.242   4.913
 2939SOL     OW 8834   2.335   4.224   3.915
 2939SOL    HW1 8835   2.396   4.304   3.919
 2939SOL    HW2 8836   2.240   4.255   3.922
 2940SOL     OW 8837   2.021   4.861   5.190
 2940SOL    HW1 8838   2.043   4.800   5.266
 2940SOL    HW2 8839   2.031   4.812   5.104
 2941SOL     OW 8840   3.209   4.783   4.958
 2941SOL    HW1 8841   3.233   4.720   4.884
 2941SOL    HW2 8842   3.119   4.823   4.940
 2942SOL     OW 8843   3.164   4.579   4.033
 2942SOL    HW1 8844   3.078   4.548   4.075
 2942SOL    HW2 8845   3.160   4.565   3.934
 2943SOL     OW 8846   3.588   3.859   4.247
 2943SOL    HW1 8847   3.661   3.842   4.180
 2943SOL    HW2 8848   3.557   3.772   4.285
 2944SOL     OW 8849   3.142   4.651   4.396
 2944SOL    HW1 8850   3.202   4.570   4.398
 2944SOL    HW2 8851   3.182   4.720   4.336
 2945SOL     OW 8852   3.703   3.899   4.687
 2945SOL    HW1 8853   3.742   3.814   4.651
 2945SOL    HW2 8854   3.605   3.901   4.668
 2946SOL     OW 8855   2.125   4.050   4.444
 2946SOL    HW1 8856   2.046   4.101   4.410
 2946SOL    HW2 8857   2.116   4.035   4.542
 2947SOL     OW 8858   2.684   4.726   5.096
 2947SOL    HW1 8859   2.724   4.725   5.004
 2947SOL    HW2 8860   2.694   4.818   5.136
 2948SOL     OW 8861   2.778   4.634   4.015
 2948SOL    HW1 8862   2.841   4.672   3.947
 2948SOL    HW2 8863   2.818   4.551   4.054
 2949SOL     OW 8864   2.876   3.960   4.695
 2949SOL    HW1 8865   2.868   3.924   4.602
 2949SOL    HW2 8866   2.874   3.884   4.760
 2950SOL     OW 8867   1.937   4.069   3.757
 2950SOL    HW1 8868   1.845   4.041   3.728
 2950SOL    HW2 8869   1.968   4.146   3.701
 2951SOL     OW 8870   1.934   3.890   4.042
 2951SOL    HW1 8871   1.917   3.973   3.988
 2951SOL    HW2 8872   2.024   3.853   4.020
 2952SOL     OW 8873   3.045   5.059   3.843
 2952SOL    HW1 8874   2.946   5.048   3.845
 2952SOL    HW2 8875   3.079   5.074   3.936
 2953SOL     OW 8876   3.536   4.607   4.978
 2953SOL    HW1 8877   3.509   4.518   4.941
 2953SOL    HW2 8878   3.537   4.675   4.905
 2954SOL     OW 8879   3.087   4.049   4.173
 2954SOL    HW1 8880   3.152   3.975   4.162
 2954SOL    HW2 8881   3.107   4.099   4.257
 2955SOL     OW 8882   2.456   4.469   4.376
 2955SOL    HW1 8883   2.506   4.554   4.357
 2955SOL    HW2 8884   2.368   4.471   4.328
 2956SOL     OW 8885   3.592   4.658   5.241
 2956SOL    HW1 8886   3.630   4.749   5.256
 2956SOL    HW2 8887   3.584   4.641   5.142
 2957SOL     OW 8888   2.721   4.680   4.585
 2957SOL    HW1 8889   2.775   4.611   4.633
 2957SOL    HW2 8890   2.689   4.749   4.651
 2958SOL     OW 8891   2.945   4.708   3.811
 2958SOL    HW1 8892   2.922   4.761   3.729
 2958SOL    HW2 8893   3.026   4.652   3.792
 2959SOL     OW 8894   1.941   4.964   4.377
 2959SOL    HW1 8895   1.940   4.917   4.465
 2959SOL    HW2 8896   2.023   4.936   4.326
 2960SOL     OW 8897   3.686   3.916   4.951
 2960SOL    HW1 8898   3.682   3.826   4.995
 2960SOL    HW2 8899   3.689   3.905   4.852
 2961SOL     OW 8900   2.290   4.148   4.244
 2961SOL    HW1 8901   2.320   4.076   4.182
 2961SOL    HW2 8902   2.251   4.108   4.327
 2962SOL     OW 8903   3.286   3.938   4.836
 2962SOL    HW1 8904   3.338   3.873   4.891
 2962SOL    HW2 8905   3.237   4.001   4.897
 2963SOL     OW 8906   2.632   5.054   4.025
 2963SOL    HW1 8907   2.586   4.967   4.042
 2963SOL    HW2 8908   2.723   5.051   4.066
 2964SOL     OW 8909   3.214   3.776   3.892
 2964SOL    HW1 8910   3.249   3.735   3.808
 2964SOL    HW2 8911   3.124   3.738   3.912
 2965SOL     OW 8912   3.162   4.177   4.415
 2965SOL    HW1 8913   3.103   4.257   4.419
 2965SOL    HW2 8914   3.177   4.142   4.508
 2966SOL     OW 8915   3.455   3.945   4.606
 2966SOL    HW1 8916   3.371   3.944   4.660
 2966SOL    HW2 8917   3.457   4.028   4.550
 2967SOL     OW 8918   1.901   4.801   4.024
 2967SOL    HW1 8919   2.000   4.790   4.015
 2967SOL    HW2 8920   1.861   4.715   4.056
 2968SOL     OW 8921   3.954   0.628   0.113
 2968SOL    HW1 8922   3.861   0.626   0.150
 2968SOL    HW2 8923   3.955   0.589   0.021
 2969SOL     OW 8924   3.949   0.275   0.996
 2969SOL    HW1 8925   3.984   0.258   1.088
 2969SOL    HW2 8926   3.861   0.230   0.984
 2970SOL     OW 8927   3.743   0.368   0.647
 2970SOL    HW1 8928   3.661   0.411   0.686
 2970SOL    HW2 8929   3.715   0.295   0.584
 2971SOL     OW 8930   4.293   1.275   1.165
 2971SOL    HW1 8931   4.200   1.268   1.128
 2971SOL    HW2 8932   4.304   1.364   1.209
 2972SOL     OW 8933   4.492   1.144   1.023
 2972SOL    HW1 8934   4.414   1.161   1.083
 2972SOL    HW2 8935   4.526   1.231   0.987
 2973SOL     OW 8936   4.574   0.798   1.823
 2973SOL    HW1 8937   4.570   0.874   1.888
 2973SOL    HW2 8938   4.596   0.834   1.732
 2974SOL     OW 8939   4.409   1.012   0.665
 2974SOL    HW1 8940   4.478   0.996   0.735
 2974SOL    HW2 8941   4.336   1.069   0.703
 2975SOL     OW 8942   4.410   1.161   1.803
 2975SOL    HW1 8943   4.470   1.240   1.817
 2975SOL    HW2 8944   4.324   1.192   1.762
 2976SOL     OW 8945   4.059   1.435   1.061
 2976SOL    HW1 8946   3.981   1.404   1.008
 2976SOL    HW2 8947   4.117   1.493   1.004
 2977SOL     OW 8948   4.162   0.392   1.499
 2977SOL    HW1 8949   4.244   0.336   1.508
 2977SOL    HW2 8950   4.081   0.334   1.503
 2978SOL     OW 8951   3.955   1.713   0.483
 2978SOL    HW1 8952   3.989   1.790   0.537
 2978SOL    HW2 8953   3.999   1.713   0.393
 2979SOL     OW 8954   4.851   1.341   1.690
 2979SOL    HW1 8955   4.898   1.341   1.778
 2979SOL    HW2 8956   4.803   1.254   1.679
 2980SOL     OW 8957   3.954   1.434   0.538
 2980SOL    HW1 8958   3.928   1.530   0.538
 2980SOL    HW2 8959   3.883   1.380   0.583
 2981SOL     OW 8960   3.964   1.091   0.886
 2981SOL    HW1 8961   3.978   1.007   0.938
 2981SOL    HW2 8962   3.909   1.155   0.941
 2982SOL     OW 8963   4.344   1.786   1.439
 2982SOL    HW1 8964   4.252   1.769   1.474
 2982SOL    HW2 8965   4.372   1.878   1.465
 2983SOL     OW 8966   4.330   0.964   0.123
 2983SOL    HW1 8967   4.337   1.048   0.069
 2983SOL    HW2 8968   4.376   0.977   0.211
 2984SOL     OW 8969   3.846   0.643   0.563
 2984SOL    HW1 8970   3.801   0.555   0.580
 2984SOL    HW2 8971   3.845   0.697   0.647
 2985SOL     OW 8972   3.751   1.596   0.117
 2985SOL    HW1 8973   3.732   1.500   0.138
 2985SOL    HW2 8974   3.718   1.654   0.192
 2986SOL     OW 8975   3.837   0.737   1.597
 2986SOL    HW1 8976   3.925   0.724   1.642
 2986SOL    HW2 8977   3.824   0.834   1.575
 2987SOL     OW 8978   4.337   1.365   0.726
 2987SOL    HW1 8979   4.288   1.278   0.735
 2987SOL    HW2 8980   4.314   1.408   0.639
 2988SOL     OW 8981   4.533   0.004   0.502
 2988SOL    HW1 8982   4.573   0.095   0.493
 2988SOL    HW2 8983   4.433   0.012   0.508
 2989SOL     OW 8984   3.921   0.976   1.264
 2989SOL    HW1 8985   4.010   0.931   1.250
 2989SOL    HW2 8986   3.848   0.911   1.245
 2990SOL     OW 8987   4.041   0.251   1.801
 2990SOL    HW1 8988   4.112   0.322   1.807
 2990SOL    HW2 8989   3.953   0.290   1.829
 2991SOL     OW 8990   4.322   0.729   0.270
 2991SOL    HW1 8991   4.346   0.798   0.202
 2991SOL    HW2 8992   4.244   0.762   0.324
 2992SOL     OW 8993   4.531   0.605   1.465
 2992SOL    HW1 8994   4.484   0.602   1.554
 2992SOL    HW2 8995   4.480   0.550   1.399
 2993SOL     OW 8996   4.697   0.890   1.572
 2993SOL    HW1 8997   4.743   0.806   1.543
 2993SOL    HW2 8998   4.641   0.924   1.497
 2994SOL     OW 8999   4.715   0.410   1.242
 2994SOL    HW1 9000   4.638   0.444   1.296
 2994SOL    HW2 9001   4.681   0.359   1.163
 2995SOL     OW 9002   4.765   0.701   0.429
 2995SOL    HW1 9003   4.791   0.697   0.525
 2995SOL    HW2 9004   4.680   0.650   0.415
 2996SOL     OW 9005   3.800   0.811   0.789
 2996SOL    HW1 9006   3.899   0.799   0.798
 2996SOL    HW2 9007   3.776   0.906   0.810
 2997SOL     OW 9008   3.854   1.821   1.571
 2997SOL    HW1 9009   3.844   1.806   1.670
 2997SOL    HW2 9010   3.768   1.857   1.535
 2998SOL     OW 9011   4.589   0.348   0.195
 2998SOL    HW1 9012   4.648   0.411   0.146
 2998SOL    HW2 9013   4.608   0.254   0.166
 2999SOL     OW 9014   4.274   0.196   0.885
 2999SOL    HW1 9015   4.269   0.191   0.985
 2999SOL    HW2 9016   4.276   0.292   0.856
 3000SOL     OW 9017   4.732   1.456   0.477
 3000SOL    HW1 9018   4.686   1.528   0.425
 3000SOL    HW2 9019   4.728   1.476   0.575
 3001SOL     OW 9020   4.075   1.801   0.853
 3001SOL    HW1 9021   4.125   1.715   0.859
 3001SOL    HW2 9022   4.140   1.878   0.850
 3002SOL     OW 9023   4.045   0.943   0.242
 3002SOL    HW1 9024   4.127   0.982   0.200
 3002SOL    HW2 9025   4.018   0.861   0.193
 3003SOL     OW 9026   4.185   1.266   1.727
 3003SOL    HW1 9027   4.135   1.267   1.641
 3003SOL    HW2 9028   4.122   1.248   1.803
 3004SOL     OW 9029   3.926   0.285   1.498
 3004SOL    HW1 9030   3.846   0.345   1.485
 3004SOL    HW2 9031   3.916   0.236   1.584
 3005SOL     OW 9032   4.188   1.743   0.323
 3005SOL    HW1 9033   4.221   1.782   0.409
 3005SOL    HW2 9034   4.264   1.736   0.258
 3006SOL     OW 9035   3.973   1.785   1.241
 3006SOL    HW1 9036   4.030   1.720   1.291
 3006SOL    HW2 9037   3.957   1.752   1.148
 3007SOL     OW 9038   4.664   1.698   0.904
 3007SOL    HW1 9039   4.744   1.641   0.925
 3007SOL    HW2 9040   4.615   1.658   0.827
 3008SOL     OW 9041   4.106   0.700   0.480
 3008SOL    HW1 9042   4.151   0.610   0.477
 3008SOL    HW2 9043   4.012   0.689   0.513
 3009SOL     OW 9044   4.338   0.122   0.117
 3009SOL    HW1 9045   4.436   0.100   0.124
 3009SOL    HW2 9046   4.307   0.105   0.024
 3010SOL     OW 9047   4.505   0.264   1.749
 3010SOL    HW1 9048   4.572   0.203   1.792
 3010SOL    HW2 9049   4.432   0.283   1.814
 3011SOL     OW 9050   4.612   1.514   1.195
 3011SOL    HW1 9051   4.589   1.489   1.101
 3011SOL    HW2 9052   4.673   1.445   1.234
 3012SOL     OW 9053   4.527   1.402   0.924
 3012SOL    HW1 9054   4.617   1.416   0.882
 3012SOL    HW2 9055   4.456   1.404   0.853
 3013SOL     OW 9056   4.646   0.503   0.899
 3013SOL    HW1 9057   4.621   0.494   0.803
 3013SOL    HW2 9058   4.694   0.421   0.930
 3014SOL     OW 9059   4.263   0.064   0.512
 3014SOL    HW1 9060   4.182   0.065   0.570
 3014SOL    HW2 9061   4.266   0.147   0.457
 3015SOL     OW 9062   5.158   1.188   0.041
 3015SOL    HW1 9063   5.190   1.112   0.098
 3015SOL    HW2 9064   5.066   1.215   0.071
 3016SOL     OW 9065   4.021   0.035   0.171
 3016SOL    HW1 9066   4.070   0.119   0.150
 3016SOL    HW2 9067   4.083  -0.030   0.216
 3017SOL     OW 9068   4.659   0.236   0.480
 3017SOL    HW1 9069   4.611   0.277   0.402
 3017SOL    HW2 9070   4.758   0.234   0.461
 3018SOL     OW 9071   4.951   1.570   0.793
 3018SOL    HW1 9072   4.972   1.644   0.728
 3018SOL    HW2 9073   5.019   1.570   0.866
 3019SOL     OW 9074   4.183   1.152   0.741
 3019SOL    HW1 9075   4.112   1.125   0.806
 3019SOL    HW2 9076   4.157   1.124   0.648
 3020SOL     OW 9077   4.995   1.797   0.591
 3020SOL    HW1 9078   5.039   1.861   0.527
 3020SOL    HW2 9079   4.945   1.849   0.661
 3021SOL     OW 9080   4.756   0.549   0.016
 3021SOL    HW1 9081   4.715   0.631  -0.023
 3021SOL    HW2 9082   4.820   0.575   0.089
 3022SOL     OW 9083   3.802   0.556   1.386
 3022SOL    HW1 9084   3.894   0.555   1.345
 3022SOL    HW2 9085   3.796   0.630   1.453
 3023SOL     OW 9086   4.285   0.222   1.147
 3023SOL    HW1 9087   4.323   0.138   1.184
 3023SOL    HW2 9088   4.197   0.241   1.191
 3024SOL     OW 9089   4.590   0.454   0.642
 3024SOL    HW1 9090   4.558   0.526   0.580
 3024SOL    HW2 9091   4.614   0.373   0.589
 3025SOL     OW 9092   4.741   0.039   0.753
 3025SOL    HW1 9093   4.669   0.044   0.684
 3025SOL    HW2 9094   4.717  -0.030   0.822
 3026SOL     OW 9095   4.212   1.385   0.174
 3026SOL    HW1 9096   4.125   1.370   0.221
 3026SOL    HW2 9097   4.195   1.411   0.079
 3027SOL     OW 9098   4.251   0.256   0.328
 3027SOL    HW1 9099   4.278   0.197   0.253
 3027SOL    HW2 9100   4.251   0.351   0.297
 3028SOL     OW 9101   4.639   0.089   1.402
 3028SOL    HW1 9102   4.664   0.069   1.307
 3028SOL    HW2 9103   4.711   0.145   1.444
 3029SOL     OW 9104   4.704   1.116   1.719
 3029SOL    HW1 9105   4.605   1.122   1.729
 3029SOL    HW2 9106   4.727   1.036   1.663
 3030SOL     OW 9107   4.429   1.050   0.368
 3030SOL    HW1 9108   4.415   1.057   0.467
 3030SOL    HW2 9109   4.513   0.999   0.350
 3031SOL     OW 9110   4.134   0.813   1.251
 3031SOL    HW1 9111   4.220   0.825   1.301
 3031SOL    HW2 9112   4.092   0.726   1.278
 3032SOL     OW 9113   3.788   1.564   1.331
 3032SOL    HW1 9114   3.742   1.646   1.297
 3032SOL    HW2 9115   3.886   1.583   1.340
 3033SOL     OW 9116   4.091   1.100   0.501
 3033SOL    HW1 9117   4.084   1.183   0.445
 3033SOL    HW2 9118   4.095   1.020   0.441
 3034SOL     OW 9119   4.290   0.537   0.865
 3034SOL    HW1 9120   4.302   0.603   0.791
 3034SOL    HW2 9121   4.336   0.571   0.948
 3035SOL     OW 9122   4.976   1.348   0.388
 3035SOL    HW1 9123   5.026   1.425   0.428
 3035SOL    HW2 9124   4.881   1.350   0.420
 3036SOL     OW 9125   4.078   1.510   1.329
 3036SOL    HW1 9126   4.057   1.466   1.242
 3036SOL    HW2 9127   4.175   1.536   1.332
 3037SOL     OW 9128   4.126   0.751   1.598
 3037SOL    HW1 9129   4.194   0.806   1.551
 3037SOL    HW2 9130   4.166   0.663   1.625
 3038SOL     OW 9131   4.737   0.105   1.770
 3038SOL    HW1 9132   4.743   0.190   1.718
 3038SOL    HW2 9133   4.769   0.029   1.713
 3039SOL     OW 9134   4.228   0.050   1.740
 3039SOL    HW1 9135   4.186  -0.007   1.670
 3039SOL    HW2 9136   4.162   0.119   1.772
 3040SOL     OW 9137   4.297   0.870   1.029
 3040SOL    HW1 9138   4.341   0.959   1.020
 3040SOL    HW2 9139   4.234   0.870   1.106
 3041SOL     OW 9140   5.084   0.862   1.045
 3041SOL    HW1 9141   5.009   0.862   0.979
 3041SOL    HW2 9142   5.121   0.770   1.054
 3042SOL     OW 9143   4.933   0.525   0.275
 3042SOL    HW1 9144   4.946   0.441   0.329
 3042SOL    HW2 9145   4.904   0.599   0.335
 3043SOL     OW 9146   4.031   0.213   1.231
 3043SOL    HW1 9147   4.008   0.250   1.321
 3043SOL    HW2 9148   4.001   0.118   1.225
 3044SOL     OW 9149   3.761   1.310   1.282
 3044SOL    HW1 9150   3.814   1.261   1.350
 3044SOL    HW2 9151   3.783   1.408   1.287
 3045SOL     OW 9152   4.456   0.634   1.064
 3045SOL    HW1 9153   4.515   0.608   0.988
 3045SOL    HW2 9154   4.428   0.730   1.053
 3046SOL     OW 9155   4.031   0.063   0.618
 3046SOL    HW1 9156   4.020   0.157   0.651
 3046SOL    HW2 9157   4.026   0.000   0.695
 3047SOL     OW 9158   4.747   0.766   0.966
 3047SOL    HW1 9159   4.762   0.787   1.062
 3047SOL    HW2 9160   4.717   0.671   0.957
 3048SOL     OW 9161   4.704   1.573   1.700
 3048SOL    HW1 9162   4.684   1.617   1.612
 3048SOL    HW2 9163   4.743   1.482   1.684
 3049SOL     OW 9164   4.074   0.898   1.804
 3049SOL    HW1 9165   4.150   0.942   1.852
 3049SOL    HW2 9166   4.109   0.851   1.722
 3050SOL     OW 9167   4.792   1.333   0.849
 3050SOL    HW1 9168   4.799   1.249   0.794
 3050SOL    HW2 9169   4.854   1.402   0.813
 3051SOL     OW 9170   4.043   0.810   0.949
 3051SOL    HW1 9171   4.136   0.846   0.954
 3051SOL    HW2 9172   4.037   0.725   1.001
 3052SOL     OW 9173   4.063   0.509   1.006
 3052SOL    HW1 9174   4.011   0.426   0.989
 3052SOL    HW2 9175   4.140   0.514   0.942
 3053SOL     OW 9176   4.862   0.380   1.678
 3053SOL    HW1 9177   4.817   0.443   1.742
 3053SOL    HW2 9178   4.955   0.411   1.661
 3054SOL     OW 9179   4.884   0.207   1.477
 3054SOL    HW1 9180   4.884   0.271   1.554
 3054SOL    HW2 9181   4.912   0.255   1.394
 3055SOL     OW 9182   3.732   1.326   0.200
 3055SOL    HW1 9183   3.639   1.347   0.169
 3055SOL    HW2 9184   3.742   1.227   0.213
 3056SOL     OW 9185   3.812   1.801   0.927
 3056SOL    HW1 9186   3.770   1.715   0.900
 3056SOL    HW2 9187   3.906   1.804   0.893
 3057SOL     OW 9188   4.228   1.568   0.910
 3057SOL    HW1 9189   4.294   1.642   0.919
 3057SOL    HW2 9190   4.272   1.489   0.868
 3058SOL     OW 9191   4.726   0.796   1.238
 3058SOL    HW1 9192   4.767   0.764   1.324
 3058SOL    HW2 9193   4.630   0.769   1.235
 3059SOL     OW 9194   3.764   0.544   1.114
 3059SOL    HW1 9195   3.849   0.511   1.073
 3059SOL    HW2 9196   3.777   0.559   1.212
 3060SOL     OW 9197   3.913   0.520   1.722
 3060SOL    HW1 9198   3.972   0.480   1.652
 3060SOL    HW2 9199   3.855   0.591   1.681
 3061SOL     OW 9200   4.539   0.572   0.325
 3061SOL    HW1 9201   4.546   0.483   0.279
 3061SOL    HW2 9202   4.445   0.606   0.317
 3062SOL     OW 9203   3.976   1.564   1.744
 3062SOL    HW1 9204   3.946   1.621   1.820
 3062SOL    HW2 9205   3.969   1.467   1.770
 3063SOL     OW 9206   4.395   0.464   1.269
 3063SOL    HW1 9207   4.361   0.375   1.239
 3063SOL    HW2 9208   4.421   0.518   1.189
 3064SOL     OW 9209   4.654   1.678   1.465
 3064SOL    HW1 9210   4.630   1.660   1.370
 3064SOL    HW2 9211   4.684   1.772   1.475
 3065SOL     OW 9212   4.197   0.500   0.191
 3065SOL    HW1 9213   4.258   0.580   0.195
 3065SOL    HW2 9214   4.102   0.531   0.198
 3066SOL     OW 9215   3.883   1.137   1.466
 3066SOL    HW1 9216   3.905   1.076   1.542
 3066SOL    HW2 9217   3.893   1.088   1.380
 3067SOL     OW 9218   5.026   0.855   0.309
 3067SOL    HW1 9219   4.940   0.824   0.351
 3067SOL    HW2 9220   5.022   0.841   0.210
 3068SOL     OW 9221   3.807   1.258   1.022
 3068SOL    HW1 9222   3.802   1.257   1.122
 3068SOL    HW2 9223   3.724   1.217   0.984
 3069SOL     OW 9224   4.412   1.662   1.716
 3069SOL    HW1 9225   4.356   1.743   1.725
 3069SOL    HW2 9226   4.464   1.666   1.630
 3070SOL     OW 9227   4.627   0.086   0.133
 3070SOL    HW1 9228   4.678   0.087   0.047
 3070SOL    HW2 9229   4.683   0.044   0.204
 3071SOL     OW 9230   3.854   1.794   1.851
 3071SOL    HW1 9231   3.813   1.720   1.904
 3071SOL    HW2 9232   3.918   1.845   1.909
 3072SOL     OW 9233   4.554   1.273   1.422
 3072SOL    HW1 9234   4.549   1.306   1.517
 3072SOL    HW2 9235   4.468   1.292   1.376
 3073SOL     OW 9236   4.396   1.616   0.154
 3073SOL    HW1 9237   4.405   1.626   0.055
 3073SOL    HW2 9238   4.356   1.527   0.175
 3074SOL     OW 9239   3.987   0.326   0.720
 3074SOL    HW1 9240   3.908   0.377   0.686
 3074SOL    HW2 9241   3.978   0.311   0.818
 3075SOL     OW 9242   4.546   1.002   1.372
 3075SOL    HW1 9243   4.586   1.001   1.280
 3075SOL    HW2 9244   4.556   1.094   1.412
 3076SOL     OW 9245   4.640   0.910   0.291
 3076SOL    HW1 9246   4.703   0.948   0.223
 3076SOL    HW2 9247   4.680   0.827   0.330
 3077SOL     OW 9248   4.096   1.288   1.490
 3077SOL    HW1 9249   4.083   1.381   1.456
 3077SOL    HW2 9250   4.012   1.236   1.477
 3078SOL     OW 9251   4.763   1.098   0.696
 3078SOL    HW1 9252   4.693   1.051   0.750
 3078SOL    HW2 9253   4.822   1.030   0.653
 3079SOL     OW 9254   4.738   0.236   0.971
 3079SOL    HW1 9255   4.730   0.200   0.878
 3079SOL    HW2 9256   4.736   0.160   1.036
 3080SOL     OW 9257   4.314   1.487   0.491
 3080SOL    HW1 9258   4.356   1.429   0.421
 3080SOL    HW2 9259   4.270   1.566   0.447
 3081SOL     OW 9260   3.979   1.348   0.290
 3081SOL    HW1 9261   3.883   1.349   0.263
 3081SOL    HW2 9262   3.991   1.401   0.374
 3082SOL     OW 9263   3.829   1.013   1.726
 3082SOL    HW1 9264   3.752   0.980   1.780
 3082SOL    HW2 9265   3.914   0.983   1.768
 3083SOL     OW 9266   4.396   0.203   1.489
 3083SOL    HW1 9267   4.486   0.187   1.449
 3083SOL    HW2 9268   4.404   0.208   1.588
 3084SOL     OW 9269   3.796   0.166   0.318
 3084SOL    HW1 9270   3.779   0.249   0.264
 3084SOL    HW2 9271   3.886   0.129   0.296
 3085SOL     OW 9272   4.337   0.842   1.431
 3085SOL    HW1 9273   4.393   0.923   1.414
 3085SOL    HW2 9274   4.396   0.762   1.434
 3086SOL     OW 9275   4.440   0.565   1.708
 3086SOL    HW1 9276   4.459   0.630   1.782
 3086SOL    HW2 9277   4.500   0.485   1.717
 3087SOL     OW 9278   4.114   1.741   1.560
 3087SOL    HW1 9279   4.023   1.782   1.558
 3087SOL    HW2 9280   4.107   1.647   1.592
 3088SOL     OW 9281   4.318   0.745   0.652
 3088SOL    HW1 9282   4.368   0.830   0.633
 3088SOL    HW2 9283   4.230   0.747   0.604
 3089SOL     OW 9284   4.583   1.374   0.016
 3089SOL    HW1 9285   4.537   1.389   0.104
 3089SOL    HW2 9286   4.627   1.459  -0.014
 3090SOL     OW 9287   4.385   1.790   0.953
 3090SOL    HW1 9288   4.339   1.878   0.940
 3090SOL    HW2 9289   4.484   1.802   0.946
 3091SOL     OW 9290   4.583   0.956   0.861
 3091SOL    HW1 9291   4.637   0.887   0.909
 3091SOL    HW2 9292   4.551   1.025   0.927
 3092SOL     OW 9293   4.807   0.984   0.087
 3092SOL    HW1 9294   4.784   1.037   0.005
 3092SOL    HW2 9295   4.888   0.928   0.068
 3093SOL     OW 9296   3.945   1.314   1.844
 3093SOL    HW1 9297   3.880   1.241   1.823
 3093SOL    HW2 9298   3.949   1.328   1.942
 3094SOL     OW 9299   3.803   1.240   0.653
 3094SOL    HW1 9300   3.802   1.193   0.741
 3094SOL    HW2 9301   3.885   1.212   0.602
 3095SOL     OW 9302   4.396   1.391   1.624
 3095SOL    HW1 9303   4.318   1.341   1.662
 3095SOL    HW2 9304   4.393   1.486   1.655
 3096SOL     OW 9305   4.152   0.424   0.520
 3096SOL    HW1 9306   4.182   0.352   0.458
 3096SOL    HW2 9307   4.113   0.384   0.603
 3097SOL     OW 9308   4.041   0.547   1.280
 3097SOL    HW1 9309   4.079   0.488   1.352
 3097SOL    HW2 9310   4.081   0.521   1.192
 3098SOL     OW 9311   4.536   1.586   0.687
 3098SOL    HW1 9312   4.568   1.596   0.593
 3098SOL    HW2 9313   4.457   1.524   0.689
 3099SOL     OW 9314   4.725   0.034   1.154
 3099SOL    HW1 9315   4.662  -0.038   1.123
 3099SOL    HW2 9316   4.818  -0.002   1.154
 3100SOL     OW 9317   4.494   1.330   0.301
 3100SOL    HW1 9318   4.448   1.243   0.318
 3100SOL    HW2 9319   4.585   1.327   0.342
 3101SOL     OW 9320   4.342   1.567   1.284
 3101SOL    HW1 9321   4.337   1.649   1.341
 3101SOL    HW2 9322   4.431   1.564   1.239
 3102SOL     OW 9323   3.763   1.077   0.300
 3102SOL    HW1 9324   3.862   1.066   0.291
 3102SOL    HW2 9325   3.723   0.991   0.332
 3103SOL     OW 9326   4.599   1.646   0.337
 3103SOL    HW1 9327   4.522   1.611   0.283
 3103SOL    HW2 9328   4.567   1.717   0.399
 3104SOL     OW 9329   3.954   0.628   1.975
 3104SOL    HW1 9330   3.861   0.626   2.012
 3104SOL    HW2 9331   3.955   0.589   1.883
 3105SOL     OW 9332   3.949   0.275   2.858
 3105SOL    HW1 9333   3.984   0.258   2.950
 3105SOL    HW2 9334   3.861   0.230   2.846
 3106SOL     OW 9335   3.743   0.368   2.509
 3106SOL    HW1 9336   3.661   0.411   2.548
 3106SOL    HW2 9337   3.715   0.295   2.446
 3107SOL     OW 9338   4.293   1.275   3.027
 3107SOL    HW1 9339   4.200   1.268   2.990
 3107SOL    HW2 9340   4.304   1.364   3.071
 3108SOL     OW 9341   4.492   1.144   2.885
 3108SOL    HW1 9342   4.414   1.161   2.945
 3108SOL    HW2 9343   4.526   1.231   2.849
 3109SOL     OW 9344   4.574   0.798   3.685
 3109SOL    HW1 9345   4.570   0.874   3.750
 3109SOL    HW2 9346   4.596   0.834   3.594
 3110SOL     OW 9347   4.409   1.012   2.527
 3110SOL    HW1 9348   4.478   0.996   2.597
 3110SOL    HW2 9349   4.336   1.069   2.565
 3111SOL     OW 9350   4.410   1.161   3.665
 3111SOL    HW1 9351   4.470   1.240   3.679
 3111SOL    HW2 9352   4.324   1.192   3.624
 3112SOL     OW 9353   4.059   1.435   2.923
 3112SOL    HW1 9354   3.981   1.404   2.870
 3112SOL    HW2 9355   4.117   1.493   2.866
 3113SOL     OW 9356   4.162   0.392   3.361
 3113SOL    HW1 9357   4.244   0.336   3.370
 3113SOL    HW2 9358   4.081   0.334   3.365
 3114SOL     OW 9359   3.955   1.713   2.345
 3114SOL    HW1 9360   3.989   1.790   2.399
 3114SOL    HW2 9361   3.999   1.713   2.255
 3115SOL     OW 9362   4.851   1.341   3.552
 3115SOL    HW1 9363   4.898   1.341   3.640
 3115SOL    HW2 9364   4.803   1.254   3.541
 3116SOL     OW 9365   3.954   1.434   2.400
 3116SOL    HW1 9366   3.928   1.530   2.400
 3116SOL    HW2 9367   3.883   1.380   2.445
 3117SOL     OW 9368   3.964   1.091   2.748
 3117SOL    HW1 9369   3.978   1.007   2.800
 3117SOL    HW2 9370   3.909   1.155   2.803
 3118SOL     OW 9371   4.344   1.786   3.301
 3118SOL    HW1 9372   4.252   1.769   3.336
 3118SOL    HW2 9373   4.372   1.878   3.327
 3119SOL     OW 9374   4.330   0.964   1.985
 3119SOL    HW1 9375   4.337   1.048   1.931
 3119SOL    HW2 9376   4.376   0.977   2.073
 3120SOL     OW 9377   3.846   0.643   2.425
 3120SOL    HW1 9378   3.801   0.555   2.442
 3120SOL    HW2 9379   3.845   0.697   2.509
 3121SOL     OW 9380   3.751   1.596   1.979
 3121SOL    HW1 9381   3.732   1.500   2.000
 3121SOL    HW2 9382   3.718   1.654   2.054
 3122SOL     OW 9383   3.837   0.737   3.459
 3122SOL    HW1 9384   3.925   0.724   3.504
 3122SOL    HW2 9385   3.824   0.834   3.437
 3123SOL     OW 9386   4.337   1.365   2.588
 3123SOL    HW1 9387   4.288   1.278   2.597
 3123SOL    HW2 9388   4.314   1.408   2.501
 3124SOL     OW 9389   4.533   0.004   2.364
 3124SOL    HW1 9390   4.573   0.095   2.355
 3124SOL    HW2 9391   4.433   0.012   2.370
 3125SOL     OW 9392   3.921   0.976   3.126
 3125SOL    HW1 9393   4.010   0.931   3.112
 3125SOL    HW2 9394   3.848   0.911   3.107
 3126SOL     OW 9395   4.041   0.251   3.663
 3126SOL    HW1 9396   4.112   0.322   3.669
 3126SOL    HW2 9397   3.953   0.290   3.691
 3127SOL     OW 9398   4.322   0.729   2.132
 3127SOL    HW1 9399   4.346   0.798   2.064
 3127SOL    HW2 9400   4.244   0.762   2.186
 3128SOL     OW 9401   4.531   0.605   3.327
 3128SOL    HW1 9402   4.484   0.602   3.416
 3128SOL    HW2 9403   4.480   0.550   3.261
 3129SOL     OW 9404   4.697   0.890   3.434
 3129SOL    HW1 9405   4.743   0.806   3.405
 3129SOL    HW2 9406   4.641   0.924   3.359
 3130SOL     OW 9407   4.715   0.410   3.104
 3130SOL    HW1 9408   4.638   0.444   3.158
 3130SOL    HW2 9409   4.681   0.359   3.025
 3131SOL     OW 9410   4.765   0.701   2.291
 3131SOL    HW1 9411   4.791   0.697   2.387
 3131SOL    HW2 9412   4.680   0.650   2.277
 3132SOL     OW 9413   3.800   0.811   2.651
 3132SOL    HW1 9414   3.899   0.799   2.660
 3132SOL    HW2 9415   3.776   0.906   2.672
 3133SOL     OW 9416   3.854   1.821   3.433
 3133SOL    HW1 9417   3.844   1.806   3.532
 3133SOL    HW2 9418   3.768   1.857   3.397
 3134SOL     OW 9419   4.589   0.348   2.057
 3134SOL    HW1 9420   4.648   0.411   2.008
 3134SOL    HW2 9421   4.608   0.254   2.028
 3135SOL     OW 9422   4.274   0.196   2.747
 3135SOL    HW1 9423   4.269   0.191   2.847
 3135SOL    HW2 9424   4.276   0.292   2.718
 3136SOL     OW 9425   4.732   1.456   2.339
 3136SOL    HW1 9426   4.686   1.528   2.287
 3136SOL    HW2 9427   4.728   1.476   2.437
 3137SOL     OW 9428   4.075   1.801   2.715
 3137SOL    HW1 9429   4.125   1.715   2.721
 3137SOL    HW2 9430   4.140   1.878   2.712
 3138SOL     OW 9431   4.045   0.943   2.104
 3138SOL    HW1 9432   4.127   0.982   2.062
 3138SOL    HW2 9433   4.018   0.861   2.055
 3139SOL     OW 9434   4.185   1.266   3.589
 3139SOL    HW1 9435   4.135   1.267   3.503
 3139SOL    HW2 9436   4.122   1.248   3.665
 3140SOL     OW 9437   3.926   0.285   3.360
 3140SOL    HW1 9438   3.846   0.345   3.347
 3140SOL    HW2 9439   3.916   0.236   3.446
 3141SOL     OW 9440   4.188   1.743   2.185
 3141SOL    HW1 9441   4.221   1.782   2.271
 3141SOL    HW2 9442   4.264   1.736   2.120
 3142SOL     OW 9443   3.973   1.785   3.103
 3142SOL    HW1 9444   4.030   1.720   3.153
 3142SOL    HW2 9445   3.957   1.752   3.010
 3143SOL     OW 9446   4.664   1.698   2.766
 3143SOL    HW1 9447   4.744   1.641   2.787
 3143SOL    HW2 9448   4.615   1.658   2.689
 3144SOL     OW 9449   4.106   0.700   2.342
 3144SOL    HW1 9450   4.151   0.610   2.339
 3144SOL    HW2 9451   4.012   0.689   2.375
 3145SOL     OW 9452   4.338   0.122   1.979
 3145SOL    HW1 9453   4.436   0.100   1.986
 3145SOL    HW2 9454   4.307   0.105   1.886
 3146SOL     OW 9455   4.505   0.264   3.611
 3146SOL    HW1 9456   4.572   0.203   3.654
 3146SOL    HW2 9457   4.432   0.283   3.676
 3147SOL     OW 9458   4.612   1.514   3.057
 3147SOL    HW1 9459   4.589   1.489   2.963
 3147SOL    HW2 9460   4.673   1.445   3.096
 3148SOL     OW 9461   4.527   1.402   2.786
 3148SOL    HW1 9462   4.617   1.416   2.744
 3148SOL    HW2 9463   4.456   1.404   2.715
 3149SOL     OW 9464   4.646   0.503   2.761
 3149SOL    HW1 9465   4.621   0.494   2.665
 3149SOL    HW2 9466   4.694   0.421   2.792
 3150SOL     OW 9467   4.263   0.064   2.374
 3150SOL    HW1 9468   4.182   0.065   2.432
 3150SOL    HW2 9469   4.266   0.147   2.319
 3151SOL     OW 9470   4.021   0.035   2.033
 3151SOL    HW1 9471   4.070   0.119   2.012
 3151SOL    HW2 9472   4.083  -0.030   2.078
 3152SOL     OW 9473   4.659   0.236   2.342
 3152SOL    HW1 9474   4.611   0.277   2.264
 3152SOL    HW2 9475   4.758   0.234   2.323
 3153SOL     OW 9476   4.951   1.570   2.655
 3153SOL    HW1 9477   4.972   1.644   2.590
 3153SOL    HW2 9478   5.019   1.570   2.728
 3154SOL     OW 9479   4.183   1.152   2.603
 3154SOL    HW1 9480   4.112   1.125   2.668
 3154SOL    HW2 9481   4.157   1.124   2.510
 3155SOL     OW 9482   4.995   1.797   2.453
 3155SOL    HW1 9483   5.039   1.861   2.389
 3155SOL    HW2 9484   4.945   1.849   2.523
 3156SOL     OW 9485   4.756   0.549   1.878
 3156SOL    HW1 9486   4.715   0.631   1.839
 3156SOL    HW2 9487   4.820   0.575   1.951
 3157SOL     OW 9488   3.802   0.556   3.248
 3157SOL    HW1 9489   3.894   0.555   3.207
 3157SOL    HW2 9490   3.796   0.630   3.315
 3158SOL     OW 9491   4.285   0.222   3.009
 3158SOL    HW1 9492   4.323   0.138   3.046
 3158SOL    HW2 9493   4.197   0.241   3.053
 3159SOL     OW 9494   4.590   0.454   2.504
 3159SOL    HW1 9495   4.558   0.526   2.442
 3159SOL    HW2 9496   4.614   0.373   2.451
 3160SOL     OW 9497   4.741   0.039   2.615
 3160SOL    HW1 9498   4.669   0.044   2.546
 3160SOL    HW2 9499   4.717  -0.030   2.684
 3161SOL     OW 9500   4.212   1.385   2.036
 3161SOL    HW1 9501   4.125   1.370   2.083
 3161SOL    HW2 9502   4.195   1.411   1.941
 3162SOL     OW 9503   4.251   0.256   2.190
 3162SOL    HW1 9504   4.278   0.197   2.115
 3162SOL    HW2 9505   4.251   0.351   2.159
 3163SOL     OW 9506   4.639   0.089   3.264
 3163SOL    HW1 9507   4.664   0.069   3.169
 3163SOL    HW2 9508   4.711   0.145   3.306
 3164SOL     OW 9509   4.704   1.116   3.581
 3164SOL    HW1 9510   4.605   1.122   3.591
 3164SOL    HW2 9511   4.727   1.036   3.525
 3165SOL     OW 9512   4.429   1.050   2.230
 3165SOL    HW1 9513   4.415   1.057   2.329
 3165SOL    HW2 9514   4.513   0.999   2.212
 3166SOL     OW 9515   4.134   0.813   3.113
 3166SOL    HW1 9516   4.220   0.825   3.163
 3166SOL    HW2 9517   4.092   0.726   3.140
 3167SOL     OW 9518   3.788   1.564   3.193
 3167SOL    HW1 9519   3.742   1.646   3.159
 3167SOL    HW2 9520   3.886   1.583   3.202
 3168SOL     OW 9521   4.091   1.100   2.363
 3168SOL    HW1 9522   4.084   1.183   2.307
 3168SOL    HW2 9523   4.095   1.020   2.303
 3169SOL     OW 9524   4.290   0.537   2.727
 3169SOL    HW1 9525   4.302   0.603   2.653
 3169SOL    HW2 9526   4.336   0.571   2.810
 3170SOL     OW 9527   4.976   1.348   2.250
 3170SOL    HW1 9528   5.026   1.425   2.290
 3170SOL    HW2 9529   4.881   1.350   2.282
 3171SOL     OW 9530   4.078   1.510   3.191
 3171SOL    HW1 9531   4.057   1.466   3.104
 3171SOL    HW2 9532   4.175   1.536   3.194
 3172SOL     OW 9533   4.126   0.751   3.460
 3172SOL    HW1 9534   4.194   0.806   3.413
 3172SOL    HW2 9535   4.166   0.663   3.487
 3173SOL     OW 9536   4.737   0.105   3.632
 3173SOL    HW1 9537   4.743   0.190   3.580
 3173SOL    HW2 9538   4.769   0.029   3.575
 3174SOL     OW 9539   4.228   0.050   3.602
 3174SOL    HW1 9540   4.186  -0.007   3.532
 3174SOL    HW2 9541   4.162   0.119   3.634
 3175SOL     OW 9542   4.297   0.870   2.891
 3175SOL    HW1 9543   4.341   0.959   2.882
 3175SOL    HW2 9544   4.234   0.870   2.968
 3176SOL     OW 9545   5.084   0.862   2.907
 3176SOL    HW1 9546   5.009   0.862   2.841
 3176SOL    HW2 9547   5.121   0.770   2.916
 3177SOL     OW 9548   4.933   0.525   2.137
 3177SOL    HW1 9549   4.946   0.441   2.191
 3177SOL    HW2 9550   4.904   0.599   2.197
 3178SOL     OW 9551   4.031   0.213   3.093
 3178SOL    HW1 9552   4.008   0.250   3.183
 3178SOL    HW2 9553   4.001   0.118   3.087
 3179SOL     OW 9554   3.761   1.310   3.144
 3179SOL    HW1 9555   3.814   1.261   3.212
 3179SOL    HW2 9556   3.783   1.408   3.149
 3180SOL     OW 9557   4.456   0.634   2.926
 3180SOL    HW1 9558   4.515   0.608   2.850
 3180SOL    HW2 9559   4.428   0.730   2.915
 3181SOL     OW 9560   4.031   0.063   2.480
 3181SOL    HW1 9561   4.020   0.157   2.513
 3181SOL    HW2 9562   4.026   0.000   2.557
 3182SOL     OW 9563   4.747   0.766   2.828
 3182SOL    HW1 9564   4.762   0.787   2.924
 3182SOL    HW2 9565   4.717   0.671   2.819
 3183SOL     OW 9566   4.704   1.573   3.562
 3183SOL    HW1 9567   4.684   1.617   3.474
 3183SOL    HW2 9568   4.743   1.482   3.546
 3184SOL     OW 9569   4.074   0.898   3.666
 3184SOL    HW1 9570   4.150   0.942   3.714
 3184SOL    HW2 9571   4.109   0.851   3.584
 3185SOL     OW 9572   5.027   0.838   1.904
 3185SOL    HW1 9573   5.061   0.745   1.919
 3185SOL    HW2 9574   5.045   0.865   1.809
 3186SOL     OW 9575   4.792   1.333   2.711
 3186SOL    HW1 9576   4.799   1.249   2.656
 3186SOL    HW2 9577   4.854   1.402   2.675
 3187SOL     OW 9578   4.043   0.810   2.811
 3187SOL    HW1 9579   4.136   0.846   2.816
 3187SOL    HW2 9580   4.037   0.725   2.863
 3188SOL     OW 9581   4.063   0.509   2.868
 3188SOL    HW1 9582   4.011   0.426   2.851
 3188SOL    HW2 9583   4.140   0.514   2.804
 3189SOL     OW 9584   4.862   0.380   3.540
 3189SOL    HW1 9585   4.817   0.443   3.604
 3189SOL    HW2 9586   4.955   0.411   3.523
 3190SOL     OW 9587   4.884   0.207   3.339
 3190SOL    HW1 9588   4.884   0.271   3.416
 3190SOL    HW2 9589   4.912   0.255   3.256
 3191SOL     OW 9590   3.732   1.326   2.062
 3191SOL    HW1 9591   3.639   1.347   2.031
 3191SOL    HW2 9592   3.742   1.227   2.075
 3192SOL     OW 9593   3.812   1.801   2.789
 3192SOL    HW1 9594   3.770   1.715   2.762
 3192SOL    HW2 9595   3.906   1.804   2.755
 3193SOL     OW 9596   4.228   1.568   2.772
 3193SOL    HW1 9597   4.294   1.642   2.781
 3193SOL    HW2 9598   4.272   1.489   2.730
 3194SOL     OW 9599   4.726   0.796   3.100
 3194SOL    HW1 9600   4.767   0.764   3.186
 3194SOL    HW2 9601   4.630   0.769   3.097
 3195SOL     OW 9602   3.764   0.544   2.976
 3195SOL    HW1 9603   3.849   0.511   2.935
 3195SOL    HW2 9604   3.777   0.559   3.074
 3196SOL     OW 9605   3.913   0.520   3.584
 3196SOL    HW1 9606   3.972   0.480   3.514
 3196SOL    HW2 9607   3.855   0.591   3.543
 3197SOL     OW 9608   4.539   0.572   2.187
 3197SOL    HW1 9609   4.546   0.483   2.141
 3197SOL    HW2 9610   4.445   0.606   2.179
 3198SOL     OW 9611   3.976   1.564   3.606
 3198SOL    HW1 9612   3.946   1.621   3.682
 3198SOL    HW2 9613   3.969   1.467   3.632
 3199SOL     OW 9614   4.395   0.464   3.131
 3199SOL    HW1 9615   4.361   0.375   3.101
 3199SOL    HW2 9616   4.421   0.518   3.051
 3200SOL     OW 9617   4.654   1.678   3.327
 3200SOL    HW1 9618   4.630   1.660   3.232
 3200SOL    HW2 9619   4.684   1.772   3.337
 3201SOL     OW 9620   4.197   0.500   2.053
 3201SOL    HW1 9621   4.258   0.580   2.057
 3201SOL    HW2 9622   4.102   0.531   2.060
 3202SOL     OW 9623   3.883   1.137   3.328
 3202SOL    HW1 9624   3.905   1.076   3.404
 3202SOL    HW2 9625   3.893   1.088   3.242
 3203SOL     OW 9626   5.026   0.855   2.171
 3203SOL    HW1 9627   4.940   0.824   2.213
 3203SOL    HW2 9628   5.022   0.841   2.072
 3204SOL     OW 9629   3.807   1.258   2.884
 3204SOL    HW1 9630   3.802   1.257   2.984
 3204SOL    HW2 9631   3.724   1.217   2.846
 3205SOL     OW 9632   4.412   1.662   3.578
 3205SOL    HW1 9633   4.356   1.743   3.587
 3205SOL    HW2 9634   4.464   1.666   3.492
 3206SOL     OW 9635   3.854   1.794   3.713
 3206SOL    HW1 9636   3.813   1.720   3.766
 3206SOL    HW2 9637   3.918   1.845   3.771
 3207SOL     OW 9638   4.554   1.273   3.284
 3207SOL    HW1 9639   4.549   1.306   3.379
 3207SOL    HW2 9640   4.468   1.292   3.238
 3208SOL     OW 9641   4.396   1.616   2.016
 3208SOL    HW1 9642   4.405   1.626   1.917
 3208SOL    HW2 9643   4.356   1.527   2.037
 3209SOL     OW 9644   3.987   0.326   2.582
 3209SOL    HW1 9645   3.908   0.377   2.548
 3209SOL    HW2 9646   3.978   0.311   2.680
 3210SOL     OW 9647   4.546   1.002   3.234
 3210SOL    HW1 9648   4.586   1.001   3.142
 3210SOL    HW2 9649   4.556   1.094   3.274
 3211SOL     OW 9650   4.640   0.910   2.153
 3211SOL    HW1 9651   4.703   0.948   2.085
 3211SOL    HW2 9652   4.680   0.827   2.192
 3212SOL     OW 9653   4.096   1.288   3.352
 3212SOL    HW1 9654   4.083   1.381   3.318
 3212SOL    HW2 9655   4.012   1.236   3.339
 3213SOL     OW 9656   4.763   1.098   2.558
 3213SOL    HW1 9657   4.693   1.051   2.612
 3213SOL    HW2 9658   4.822   1.030   2.515
 3214SOL     OW 9659   4.738   0.236   2.833
 3214SOL    HW1 9660   4.730   0.200   2.740
 3214SOL    HW2 9661   4.736   0.160   2.898
 3215SOL     OW 9662   4.314   1.487   2.353
 3215SOL    HW1 9663   4.356   1.429   2.283
 3215SOL    HW2 9664   4.270   1.566   2.309
 3216SOL     OW 9665   3.979   1.348   2.152
 3216SOL    HW1 9666   3.883   1.349   2.125
 3216SOL    HW2 9667   3.991   1.401   2.236
 3217SOL     OW 9668   3.829   1.013   3.588
 3217SOL    HW1 9669   3.752   0.980   3.642
 3217SOL    HW2 9670   3.914   0.983   3.630
 3218SOL     OW 9671   4.396   0.203   3.351
 3218SOL    HW1 9672   4.486   0.187   3.311
 3218SOL    HW2 9673   4.404   0.208   3.450
 3219SOL     OW 9674   3.799   0.345   1.895
 3219SOL    HW1 9675   3.707   0.317   1.866
 3219SOL    HW2 9676   3.830   0.422   1.839
 3220SOL     OW 9677   3.796   0.166   2.180
 3220SOL    HW1 9678   3.779   0.249   2.126
 3220SOL    HW2 9679   3.886   0.129   2.158
 3221SOL     OW 9680   4.337   0.842   3.293
 3221SOL    HW1 9681   4.393   0.923   3.276
 3221SOL    HW2 9682   4.396   0.762   3.296
 3222SOL     OW 9683   4.440   0.565   3.570
 3222SOL    HW1 9684   4.459   0.630   3.644
 3222SOL    HW2 9685   4.500   0.485   3.579
 3223SOL     OW 9686   4.114   1.741   3.422
 3223SOL    HW1 9687   4.023   1.782   3.420
 3223SOL    HW2 9688   4.107   1.647   3.454
 3224SOL     OW 9689   4.318   0.745   2.514
 3224SOL    HW1 9690   4.368   0.830   2.495
 3224SOL    HW2 9691   4.230   0.747   2.466
 3225SOL     OW 9692   4.583   1.374   1.878
 3225SOL    HW1 9693   4.537   1.389   1.966
 3225SOL    HW2 9694   4.627   1.459   1.848
 3226SOL     OW 9695   4.385   1.790   2.815
 3226SOL    HW1 9696   4.339   1.878   2.802
 3226SOL    HW2 9697   4.484   1.802   2.808
 3227SOL     OW 9698   4.583   0.956   2.723
 3227SOL    HW1 9699   4.637   0.887   2.771
 3227SOL    HW2 9700   4.551   1.025   2.789
 3228SOL     OW 9701   4.807   0.984   1.949
 3228SOL    HW1 9702   4.784   1.037   1.867
 3228SOL    HW2 9703   4.888   0.928   1.930
 3229SOL     OW 9704   3.945   1.314   3.706
 3229SOL    HW1 9705   3.880   1.241   3.685
 3229SOL    HW2 9706   3.949   1.328   3.804
 3230SOL     OW 9707   3.803   1.240   2.515
 3230SOL    HW1 9708   3.802   1.193   2.603
 3230SOL    HW2 9709   3.885   1.212   2.464
 3231SOL     OW 9710   4.396   1.391   3.486
 3231SOL    HW1 9711   4.318   1.341   3.524
 3231SOL    HW2 9712   4.393   1.486   3.517
 3232SOL     OW 9713   4.152   0.424   2.382
 3232SOL    HW1 9714   4.182   0.352   2.320
 3232SOL    HW2 9715   4.113   0.384   2.465
 3233SOL     OW 9716   4.041   0.547   3.142
 3233SOL    HW1 9717   4.079   0.488   3.214
 3233SOL    HW2 9718   4.081   0.521   3.054
 3234SOL     OW 9719   4.536   1.586   2.549
 3234SOL    HW1 9720   4.568   1.596   2.455
 3234SOL    HW2 9721   4.457   1.524   2.551
 3235SOL     OW 9722   4.725   0.034   3.016
 3235SOL    HW1 9723   4.662  -0.038   2.985
 3235SOL    HW2 9724   4.818  -0.002   3.016
 3236SOL     OW 9725   4.494   1.330   2.163
 3236SOL    HW1 9726   4.448   1.243   2.180
 3236SOL    HW2 9727   4.585   1.327   2.204
 3237SOL     OW 9728   4.342   1.567   3.146
 3237SOL    HW1 9729   4.337   1.649   3.203
 3237SOL    HW2 9730   4.431   1.564   3.101
 3238SOL     OW 9731   3.763   1.077   2.162
 3238SOL    HW1 9732   3.862   1.066   2.153
 3238SOL    HW2 9733   3.723   0.991   2.194
 3239SOL     OW 9734   4.599   1.646   2.199
 3239SOL    HW1 9735   4.522   1.611   2.145
 3239SOL    HW2 9736   4.567   1.717   2.261
 3240SOL     OW 9737   3.954   0.628   3.837
 3240SOL    HW1 9738   3.861   0.626   3.874
 3240SOL    HW2 9739   3.955   0.589   3.745
 3241SOL     OW 9740   3.949   0.275   4.720
 3241SOL    HW1 9741   3.984   0.258   4.812
 3241SOL    HW2 9742   3.861   0.230   4.708
 3242SOL     OW 9743   3.743   0.368   4.371
 3242SOL    HW1 9744   3.661   0.411   4.410
 3242SOL    HW2 9745   3.715   0.295   4.308
 3243SOL     OW 9746   4.293   1.275   4.889
 3243SOL    HW1 9747   4.200   1.268   4.852
 3243SOL    HW2 9748   4.304   1.364   4.933
 3244SOL     OW 9749   4.492   1.144   4.747
 3244SOL    HW1 9750   4.414   1.161   4.807
 3244SOL    HW2 9751   4.526   1.231   4.711
 3245SOL     OW 9752   4.409   1.012   4.389
 3245SOL    HW1 9753   4.478   0.996   4.459
 3245SOL    HW2 9754   4.336   1.069   4.427
 3246SOL     OW 9755   4.059   1.435   4.785
 3246SOL    HW1 9756   3.981   1.404   4.732
 3246SOL    HW2 9757   4.117   1.493   4.728
 3247SOL     OW 9758   3.955   1.713   4.207
 3247SOL    HW1 9759   3.989   1.790   4.261
 3247SOL    HW2 9760   3.999   1.713   4.117
 3248SOL     OW 9761   3.954   1.434   4.262
 3248SOL    HW1 9762   3.928   1.530   4.262
 3248SOL    HW2 9763   3.883   1.380   4.307
 3249SOL     OW 9764   3.964   1.091   4.610
 3249SOL    HW1 9765   3.978   1.007   4.662
 3249SOL    HW2 9766   3.909   1.155   4.665
 3250SOL     OW 9767   4.330   0.964   3.847
 3250SOL    HW1 9768   4.337   1.048   3.793
 3250SOL    HW2 9769   4.376   0.977   3.935
 3251SOL     OW 9770   3.846   0.643   4.287
 3251SOL    HW1 9771   3.801   0.555   4.304
 3251SOL    HW2 9772   3.845   0.697   4.371
 3252SOL     OW 9773   3.751   1.596   3.841
 3252SOL    HW1 9774   3.732   1.500   3.862
 3252SOL    HW2 9775   3.718   1.654   3.916
 3253SOL     OW 9776   4.337   1.365   4.450
 3253SOL    HW1 9777   4.288   1.278   4.459
 3253SOL    HW2 9778   4.314   1.408   4.363
 3254SOL     OW 9779   4.533   0.004   4.226
 3254SOL    HW1 9780   4.573   0.095   4.217
 3254SOL    HW2 9781   4.433   0.012   4.232
 3255SOL     OW 9782   3.921   0.976   4.988
 3255SOL    HW1 9783   4.010   0.931   4.974
 3255SOL    HW2 9784   3.848   0.911   4.969
 3256SOL     OW 9785   4.322   0.729   3.994
 3256SOL    HW1 9786   4.346   0.798   3.926
 3256SOL    HW2 9787   4.244   0.762   4.048
 3257SOL     OW 9788   4.765   0.701   4.153
 3257SOL    HW1 9789   4.791   0.697   4.249
 3257SOL    HW2 9790   4.680   0.650   4.139
 3258SOL     OW 9791   3.800   0.811   4.513
 3258SOL    HW1 9792   3.899   0.799   4.522
 3258SOL    HW2 9793   3.776   0.906   4.534
 3259SOL     OW 9794   4.589   0.348   3.919
 3259SOL    HW1 9795   4.648   0.411   3.870
 3259SOL    HW2 9796   4.608   0.254   3.890
 3260SOL     OW 9797   4.274   0.196   4.609
 3260SOL    HW1 9798   4.269   0.191   4.709
 3260SOL    HW2 9799   4.276   0.292   4.580
 3261SOL     OW 9800   4.732   1.456   4.201
 3261SOL    HW1 9801   4.686   1.528   4.149
 3261SOL    HW2 9802   4.728   1.476   4.299
 3262SOL     OW 9803   4.075   1.801   4.577
 3262SOL    HW1 9804   4.125   1.715   4.583
 3262SOL    HW2 9805   4.140   1.878   4.574
 3263SOL     OW 9806   4.045   0.943   3.966
 3263SOL    HW1 9807   4.127   0.982   3.924
 3263SOL    HW2 9808   4.018   0.861   3.917
 3264SOL     OW 9809   4.188   1.743   4.047
 3264SOL    HW1 9810   4.221   1.782   4.133
 3264SOL    HW2 9811   4.264   1.736   3.982
 3265SOL     OW 9812   3.973   1.785   4.965
 3265SOL    HW1 9813   4.030   1.720   5.015
 3265SOL    HW2 9814   3.957   1.752   4.872
 3266SOL     OW 9815   4.664   1.698   4.628
 3266SOL    HW1 9816   4.744   1.641   4.649
 3266SOL    HW2 9817   4.615   1.658   4.551
 3267SOL     OW 9818   4.106   0.700   4.204
 3267SOL    HW1 9819   4.151   0.610   4.201
 3267SOL    HW2 9820   4.012   0.689   4.237
 3268SOL     OW 9821   4.338   0.122   3.841
 3268SOL    HW1 9822   4.436   0.100   3.848
 3268SOL    HW2 9823   4.307   0.105   3.748
 3269SOL     OW 9824   4.527   1.402   4.648
 3269SOL    HW1 9825   4.617   1.416   4.606
 3269SOL    HW2 9826   4.456   1.404   4.577
 3270SOL     OW 9827   4.646   0.503   4.623
 3270SOL    HW1 9828   4.621   0.494   4.527
 3270SOL    HW2 9829   4.694   0.421   4.654
 3271SOL     OW 9830   4.263   0.064   4.236
 3271SOL    HW1 9831   4.182   0.065   4.294
 3271SOL    HW2 9832   4.266   0.147   4.181
 3272SOL     OW 9833   4.021   0.035   3.895
 3272SOL    HW1 9834   4.070   0.119   3.874
 3272SOL    HW2 9835   4.083  -0.030   3.940
 3273SOL     OW 9836   4.659   0.236   4.204
 3273SOL    HW1 9837   4.611   0.277   4.126
 3273SOL    HW2 9838   4.758   0.234   4.185
 3274SOL     OW 9839   4.951   1.570   4.517
 3274SOL    HW1 9840   4.972   1.644   4.452
 3274SOL    HW2 9841   5.019   1.570   4.590
 3275SOL     OW 9842   4.183   1.152   4.465
 3275SOL    HW1 9843   4.112   1.125   4.530
 3275SOL    HW2 9844   4.157   1.124   4.372
 3276SOL     OW 9845   4.995   1.797   4.315
 3276SOL    HW1 9846   5.039   1.861   4.251
 3276SOL    HW2 9847   4.945   1.849   4.385
 3277SOL     OW 9848   4.756   0.549   3.740
 3277SOL    HW1 9849   4.715   0.631   3.701
 3277SOL    HW2 9850   4.820   0.575   3.813
 3278SOL     OW 9851   4.590   0.454   4.366
 3278SOL    HW1 9852   4.558   0.526   4.304
 3278SOL    HW2 9853   4.614   0.373   4.313
 3279SOL     OW 9854   4.741   0.039   4.477
 3279SOL    HW1 9855   4.669   0.044   4.408
 3279SOL    HW2 9856   4.717  -0.030   4.546
 3280SOL     OW 9857   4.212   1.385   3.898
 3280SOL    HW1 9858   4.125   1.370   3.945
 3280SOL    HW2 9859   4.195   1.411   3.803
 3281SOL     OW 9860   4.251   0.256   4.052
 3281SOL    HW1 9861   4.278   0.197   3.977
 3281SOL    HW2 9862   4.251   0.351   4.021
 3282SOL     OW 9863   4.429   1.050   4.092
 3282SOL    HW1 9864   4.415   1.057   4.191
 3282SOL    HW2 9865   4.513   0.999   4.074
 3283SOL     OW 9866   4.134   0.813   4.975
 3283SOL    HW1 9867   4.220   0.825   5.025
 3283SOL    HW2 9868   4.092   0.726   5.002
 3284SOL     OW 9869   4.091   1.100   4.225
 3284SOL    HW1 9870   4.084   1.183   4.169
 3284SOL    HW2 9871   4.095   1.020   4.165
 3285SOL     OW 9872   4.290   0.537   4.589
 3285SOL    HW1 9873   4.302   0.603   4.515
 3285SOL    HW2 9874   4.336   0.571   4.672
 3286SOL     OW 9875   4.976   1.348   4.112
 3286SOL    HW1 9876   5.026   1.425   4.152
 3286SOL    HW2 9877   4.881   1.350   4.144
 3287SOL     OW 9878   4.996   1.445   4.866
 3287SOL    HW1 9879   5.043   1.458   4.953
 3287SOL    HW2 9880   4.930   1.371   4.875
 3288SOL     OW 9881   4.297   0.870   4.753
 3288SOL    HW1 9882   4.341   0.959   4.744
 3288SOL    HW2 9883   4.234   0.870   4.830
 3289SOL     OW 9884   5.084   0.862   4.769
 3289SOL    HW1 9885   5.009   0.862   4.703
 3289SOL    HW2 9886   5.121   0.770   4.778
 3290SOL     OW 9887   4.933   0.525   3.999
 3290SOL    HW1 9888   4.946   0.441   4.053
 3290SOL    HW2 9889   4.904   0.599   4.059
 3291SOL     OW 9890   4.031   0.213   4.955
 3291SOL    HW1 9891   4.008   0.250   5.045
 3291SOL    HW2 9892   4.001   0.118   4.949
 3292SOL     OW 9893   4.456   0.634   4.788
 3292SOL    HW1 9894   4.515   0.608   4.712
 3292SOL    HW2 9895   4.428   0.730   4.777
 3293SOL     OW 9896   4.031   0.063   4.342
 3293SOL    HW1 9897   4.020   0.157   4.375
 3293SOL    HW2 9898   4.026   0.000   4.419
 3294SOL     OW 9899   4.747   0.766   4.690
 3294SOL    HW1 9900   4.762   0.787   4.786
 3294SOL    HW2 9901   4.717   0.671   4.681
 3295SOL     OW 9902   5.027   0.838   3.766
 3295SOL    HW1 9903   5.061   0.745   3.781
 3295SOL    HW2 9904   5.045   0.865   3.671
 3296SOL     OW 9905   4.792   1.333   4.573
 3296SOL    HW1 9906   4.799   1.249   4.518
 3296SOL    HW2 9907   4.854   1.402   4.537
 3297SOL     OW 9908   4.043   0.810   4.673
 3297SOL    HW1 9909   4.136   0.846   4.678
 3297SOL    HW2 9910   4.037   0.725   4.725
 3298SOL     OW 9911   4.063   0.509   4.730
 3298SOL    HW1 9912   4.011   0.426   4.713
 3298SOL    HW2 9913   4.140   0.514   4.666
 3299SOL     OW 9914   3.732   1.326   3.924
 3299SOL    HW1 9915   3.639   1.347   3.893
 3299SOL    HW2 9916   3.742   1.227   3.937
 3300SOL     OW 9917   3.812   1.801   4.651
 3300SOL    HW1 9918   3.770   1.715   4.624
 3300SOL    HW2 9919   3.906   1.804   4.617
 3301SOL     OW 9920   4.228   1.568   4.634
 3301SOL    HW1 9921   4.294   1.642   4.643
 3301SOL    HW2 9922   4.272   1.489   4.592
 3302SOL     OW 9923   4.726   0.796   4.962
 3302SOL    HW1 9924   4.767   0.764   5.048
 3302SOL    HW2 9925   4.630   0.769   4.959
 3303SOL     OW 9926   3.764   0.544   4.838
 3303SOL    HW1 9927   3.849   0.511   4.797
 3303SOL    HW2 9928   3.777   0.559   4.936
 3304SOL     OW 9929   4.539   0.572   4.049
 3304SOL    HW1 9930   4.546   0.483   4.003
 3304SOL    HW2 9931   4.445   0.606   4.041
 3305SOL     OW 9932   4.395   0.464   4.993
 3305SOL    HW1 9933   4.361   0.375   4.963
 3305SOL    HW2 9934   4.421   0.518   4.913
 3306SOL     OW 9935   4.197   0.500   3.915
 3306SOL    HW1 9936   4.258   0.580   3.919
 3306SOL    HW2 9937   4.102   0.531   3.922
 3307SOL     OW 9938   5.026   0.855   4.033
 3307SOL    HW1 9939   4.940   0.824   4.075
 3307SOL    HW2 9940   5.022   0.841   3.934
 3308SOL     OW 9941   3.807   1.258   4.746
 3308SOL    HW1 9942   3.802   1.257   4.846
 3308SOL    HW2 9943   3.724   1.217   4.708
 3309SOL     OW 9944   4.396   1.616   3.878
 3309SOL    HW1 9945   4.405   1.626   3.779
 3309SOL    HW2 9946   4.356   1.527   3.899
 3310SOL     OW 9947   3.987   0.326   4.444
 3310SOL    HW1 9948   3.908   0.377   4.410
 3310SOL    HW2 9949   3.978   0.311   4.542
 3311SOL     OW 9950   4.546   1.002   5.096
 3311SOL    HW1 9951   4.586   1.001   5.004
 3311SOL    HW2 9952   4.556   1.094   5.136
 3312SOL     OW 9953   4.640   0.910   4.015
 3312SOL    HW1 9954   4.703   0.948   3.947
 3312SOL    HW2 9955   4.680   0.827   4.054
 3313SOL     OW 9956   4.763   1.098   4.420
 3313SOL    HW1 9957   4.693   1.051   4.474
 3313SOL    HW2 9958   4.822   1.030   4.377
 3314SOL     OW 9959   4.738   0.236   4.695
 3314SOL    HW1 9960   4.730   0.200   4.602
 3314SOL    HW2 9961   4.736   0.160   4.760
 3315SOL     OW 9962   4.314   1.487   4.215
 3315SOL    HW1 9963   4.356   1.429   4.145
 3315SOL    HW2 9964   4.270   1.566   4.171
 3316SOL     OW 9965   3.979   1.348   4.014
 3316SOL    HW1 9966   3.883   1.349   3.987
 3316SOL    HW2 9967   3.991   1.401   4.098
 3317SOL     OW 9968   3.799   0.345   3.757
 3317SOL    HW1 9969   3.707   0.317   3.728
 3317SOL    HW2 9970   3.830   0.422   3.701
 3318SOL     OW 9971   3.796   0.166   4.042
 3318SOL    HW1 9972   3.779   0.249   3.988
 3318SOL    HW2 9973   3.886   0.129   4.020
 3319SOL     OW 9974   4.318   0.745   4.376
 3319SOL    HW1 9975   4.368   0.830   4.357
 3319SOL    HW2 9976   4.230   0.747   4.328
 3320SOL     OW 9977   4.583   1.374   3.740
 3320SOL    HW1 9978   4.537   1.389   3.828
 3320SOL    HW2 9979   4.627   1.459   3.710
 3321SOL     OW 9980   4.385   1.790   4.677
 3321SOL    HW1 9981   4.339   1.878   4.664
 3321SOL    HW2 9982   4.484   1.802   4.670
 3322SOL     OW 9983   4.583   0.956   4.585
 3322SOL    HW1 9984   4.637   0.887   4.633
 3322SOL    HW2 9985   4.551   1.025   4.651
 3323SOL     OW 9986   4.807   0.984   3.811
 3323SOL    HW1 9987   4.784   1.037   3.729
 3323SOL    HW2 9988   4.888   0.928   3.792
 3324SOL     OW 9989   3.803   1.240   4.377
 3324SOL    HW1 9990   3.802   1.193   4.465
 3324SOL    HW2 9991   3.885   1.212   4.326
 3325SOL     OW 9992   4.152   0.424   4.244
 3325SOL    HW1 9993   4.182   0.352   4.182
 3325SOL    HW2 9994   4.113   0.384   4.327
 3326SOL     OW 9995   4.536   1.586   4.411
 3326SOL    HW1 9996   4.568   1.596   4.317
 3326SOL    HW2 9997   4.457   1.524   4.413
 3327SOL     OW 9998   4.494   1.330   4.025
 3327SOL    HW1 9999   4.448   1.243   4.042
 3327SOL    HW210000   4.585   1.327   4.066
 3328SOL     OW10001   3.763   1.077   4.024
 3328SOL    HW110002   3.862   1.066   4.015
 3328SOL    HW210003   3.723   0.991   4.056
 3329SOL     OW10004   4.599   1.646   4.061
 3329SOL    HW110005   4.522   1.611   4.007
 3329SOL    HW210006   4.567   1.717   4.123
 3330SOL     OW10007   3.954   2.490   0.113
 3330SOL    HW110008   3.861   2.488   0.150
 3330SOL    HW210009   3.955   2.451   0.021
 3331SOL     OW10010   3.949   2.137   0.996
 3331SOL    HW110011   3.984   2.120   1.088
 3331SOL    HW210012   3.861   2.092   0.984
 3332SOL     OW10013   3.743   2.230   0.647
 3332SOL    HW110014   3.661   2.273   0.686
 3332SOL    HW210015   3.715   2.157   0.584
 3333SOL     OW10016   4.293   3.137   1.165
 3333SOL    HW110017   4.200   3.130   1.128
 3333SOL    HW210018   4.304   3.226   1.209
 3334SOL     OW10019   4.492   3.006   1.023
 3334SOL    HW110020   4.414   3.023   1.083
 3334SOL    HW210021   4.526   3.093   0.987
 3335SOL     OW10022   4.574   2.660   1.823
 3335SOL    HW110023   4.570   2.736   1.888
 3335SOL    HW210024   4.596   2.696   1.732
 3336SOL     OW10025   4.409   2.874   0.665
 3336SOL    HW110026   4.478   2.858   0.735
 3336SOL    HW210027   4.336   2.931   0.703
 3337SOL     OW10028   4.410   3.023   1.803
 3337SOL    HW110029   4.470   3.102   1.817
 3337SOL    HW210030   4.324   3.054   1.762
 3338SOL     OW10031   4.059   3.297   1.061
 3338SOL    HW110032   3.981   3.266   1.008
 3338SOL    HW210033   4.117   3.355   1.004
 3339SOL     OW10034   4.162   2.254   1.499
 3339SOL    HW110035   4.244   2.198   1.508
 3339SOL    HW210036   4.081   2.196   1.503
 3340SOL     OW10037   3.955   3.575   0.483
 3340SOL    HW110038   3.989   3.652   0.537
 3340SOL    HW210039   3.999   3.575   0.393
 3341SOL     OW10040   4.851   3.203   1.690
 3341SOL    HW110041   4.898   3.203   1.778
 3341SOL    HW210042   4.803   3.116   1.679
 3342SOL     OW10043   3.954   3.296   0.538
 3342SOL    HW110044   3.928   3.392   0.538
 3342SOL    HW210045   3.883   3.242   0.583
 3343SOL     OW10046   3.964   2.953   0.886
 3343SOL    HW110047   3.978   2.869   0.938
 3343SOL    HW210048   3.909   3.017   0.941
 3344SOL     OW10049   4.344   3.648   1.439
 3344SOL    HW110050   4.252   3.631   1.474
 3344SOL    HW210051   4.372   3.740   1.465
 3345SOL     OW10052   4.330   2.826   0.123
 3345SOL    HW110053   4.337   2.910   0.069
 3345SOL    HW210054   4.376   2.839   0.211
 3346SOL     OW10055   3.846   2.505   0.563
 3346SOL    HW110056   3.801   2.417   0.580
 3346SOL    HW210057   3.845   2.559   0.647
 3347SOL     OW10058   3.751   3.458   0.117
 3347SOL    HW110059   3.732   3.362   0.138
 3347SOL    HW210060   3.718   3.516   0.192
 3348SOL     OW10061   3.837   2.599   1.597
 3348SOL    HW110062   3.925   2.586   1.642
 3348SOL    HW210063   3.824   2.696   1.575
 3349SOL     OW10064   4.337   3.227   0.726
 3349SOL    HW110065   4.288   3.140   0.735
 3349SOL    HW210066   4.314   3.270   0.639
 3350SOL     OW10067   4.533   1.866   0.502
 3350SOL    HW110068   4.573   1.957   0.493
 3350SOL    HW210069   4.433   1.874   0.508
 3351SOL     OW10070   3.921   2.838   1.264
 3351SOL    HW110071   4.010   2.793   1.250
 3351SOL    HW210072   3.848   2.773   1.245
 3352SOL     OW10073   4.041   2.113   1.801
 3352SOL    HW110074   4.112   2.184   1.807
 3352SOL    HW210075   3.953   2.152   1.829
 3353SOL     OW10076   4.322   2.591   0.270
 3353SOL    HW110077   4.346   2.660   0.202
 3353SOL    HW210078   4.244   2.624   0.324
 3354SOL     OW10079   4.531   2.467   1.465
 3354SOL    HW110080   4.484   2.464   1.554
 3354SOL    HW210081   4.480   2.412   1.399
 3355SOL     OW10082   4.697   2.752   1.572
 3355SOL    HW110083   4.743   2.668   1.543
 3355SOL    HW210084   4.641   2.786   1.497
 3356SOL     OW10085   4.715   2.272   1.242
 3356SOL    HW110086   4.638   2.306   1.296
 3356SOL    HW210087   4.681   2.221   1.163
 3357SOL     OW10088   4.765   2.563   0.429
 3357SOL    HW110089   4.791   2.559   0.525
 3357SOL    HW210090   4.680   2.512   0.415
 3358SOL     OW10091   3.800   2.673   0.789
 3358SOL    HW110092   3.899   2.661   0.798
 3358SOL    HW210093   3.776   2.768   0.810
 3359SOL     OW10094   3.854   3.683   1.571
 3359SOL    HW110095   3.844   3.668   1.670
 3359SOL    HW210096   3.768   3.719   1.535
 3360SOL     OW10097   4.589   2.210   0.195
 3360SOL    HW110098   4.648   2.273   0.146
 3360SOL    HW210099   4.608   2.116   0.166
 3361SOL     OW10100   4.274   2.058   0.885
 3361SOL    HW110101   4.269   2.053   0.985
 3361SOL    HW210102   4.276   2.154   0.856
 3362SOL     OW10103   4.732   3.318   0.477
 3362SOL    HW110104   4.686   3.390   0.425
 3362SOL    HW210105   4.728   3.338   0.575
 3363SOL     OW10106   4.075   3.663   0.853
 3363SOL    HW110107   4.125   3.577   0.859
 3363SOL    HW210108   4.140   3.740   0.850
 3364SOL     OW10109   4.045   2.805   0.242
 3364SOL    HW110110   4.127   2.844   0.200
 3364SOL    HW210111   4.018   2.723   0.193
 3365SOL     OW10112   4.185   3.128   1.727
 3365SOL    HW110113   4.135   3.129   1.641
 3365SOL    HW210114   4.122   3.110   1.803
 3366SOL     OW10115   3.926   2.147   1.498
 3366SOL    HW110116   3.846   2.207   1.485
 3366SOL    HW210117   3.916   2.098   1.584
 3367SOL     OW10118   4.188   3.605   0.323
 3367SOL    HW110119   4.221   3.644   0.409
 3367SOL    HW210120   4.264   3.598   0.258
 3368SOL     OW10121   3.973   3.647   1.241
 3368SOL    HW110122   4.030   3.582   1.291
 3368SOL    HW210123   3.957   3.614   1.148
 3369SOL     OW10124   4.664   3.560   0.904
 3369SOL    HW110125   4.744   3.503   0.925
 3369SOL    HW210126   4.615   3.520   0.827
 3370SOL     OW10127   4.106   2.562   0.480
 3370SOL    HW110128   4.151   2.472   0.477
 3370SOL    HW210129   4.012   2.551   0.513
 3371SOL     OW10130   4.338   1.984   0.117
 3371SOL    HW110131   4.436   1.962   0.124
 3371SOL    HW210132   4.307   1.967   0.024
 3372SOL     OW10133   4.505   2.126   1.749
 3372SOL    HW110134   4.572   2.065   1.792
 3372SOL    HW210135   4.432   2.145   1.814
 3373SOL     OW10136   4.612   3.376   1.195
 3373SOL    HW110137   4.589   3.351   1.101
 3373SOL    HW210138   4.673   3.307   1.234
 3374SOL     OW10139   4.527   3.264   0.924
 3374SOL    HW110140   4.617   3.278   0.882
 3374SOL    HW210141   4.456   3.266   0.853
 3375SOL     OW10142   4.646   2.365   0.899
 3375SOL    HW110143   4.621   2.356   0.803
 3375SOL    HW210144   4.694   2.283   0.930
 3376SOL     OW10145   4.263   1.926   0.512
 3376SOL    HW110146   4.182   1.927   0.570
 3376SOL    HW210147   4.266   2.009   0.457
 3377SOL     OW10148   5.158   3.050   0.041
 3377SOL    HW110149   5.190   2.974   0.098
 3377SOL    HW210150   5.066   3.077   0.071
 3378SOL     OW10151   4.021   1.897   0.171
 3378SOL    HW110152   4.070   1.981   0.150
 3378SOL    HW210153   4.083   1.832   0.216
 3379SOL     OW10154   4.659   2.098   0.480
 3379SOL    HW110155   4.611   2.139   0.402
 3379SOL    HW210156   4.758   2.096   0.461
 3380SOL     OW10157   4.951   3.432   0.793
 3380SOL    HW110158   4.972   3.506   0.728
 3380SOL    HW210159   5.019   3.432   0.866
 3381SOL     OW10160   4.183   3.014   0.741
 3381SOL    HW110161   4.112   2.987   0.806
 3381SOL    HW210162   4.157   2.986   0.648
 3382SOL     OW10163   4.995   3.659   0.591
 3382SOL    HW110164   5.039   3.723   0.527
 3382SOL    HW210165   4.945   3.711   0.661
 3383SOL     OW10166   4.756   2.411   0.016
 3383SOL    HW110167   4.715   2.493  -0.023
 3383SOL    HW210168   4.820   2.437   0.089
 3384SOL     OW10169   3.802   2.418   1.386
 3384SOL    HW110170   3.894   2.417   1.345
 3384SOL    HW210171   3.796   2.492   1.453
 3385SOL     OW10172   4.285   2.084   1.147
 3385SOL    HW110173   4.323   2.000   1.184
 3385SOL    HW210174   4.197   2.103   1.191
 3386SOL     OW10175   4.590   2.316   0.642
 3386SOL    HW110176   4.558   2.388   0.580
 3386SOL    HW210177   4.614   2.235   0.589
 3387SOL     OW10178   4.741   1.901   0.753
 3387SOL    HW110179   4.669   1.906   0.684
 3387SOL    HW210180   4.717   1.832   0.822
 3388SOL     OW10181   4.212   3.247   0.174
 3388SOL    HW110182   4.125   3.232   0.221
 3388SOL    HW210183   4.195   3.273   0.079
 3389SOL     OW10184   4.251   2.118   0.328
 3389SOL    HW110185   4.278   2.059   0.253
 3389SOL    HW210186   4.251   2.213   0.297
 3390SOL     OW10187   4.639   1.951   1.402
 3390SOL    HW110188   4.664   1.931   1.307
 3390SOL    HW210189   4.711   2.007   1.444
 3391SOL     OW10190   4.704   2.978   1.719
 3391SOL    HW110191   4.605   2.984   1.729
 3391SOL    HW210192   4.727   2.898   1.663
 3392SOL     OW10193   4.429   2.912   0.368
 3392SOL    HW110194   4.415   2.919   0.467
 3392SOL    HW210195   4.513   2.861   0.350
 3393SOL     OW10196   4.134   2.675   1.251
 3393SOL    HW110197   4.220   2.687   1.301
 3393SOL    HW210198   4.092   2.588   1.278
 3394SOL     OW10199   3.788   3.426   1.331
 3394SOL    HW110200   3.742   3.508   1.297
 3394SOL    HW210201   3.886   3.445   1.340
 3395SOL     OW10202   4.091   2.962   0.501
 3395SOL    HW110203   4.084   3.045   0.445
 3395SOL    HW210204   4.095   2.882   0.441
 3396SOL     OW10205   4.290   2.399   0.865
 3396SOL    HW110206   4.302   2.465   0.791
 3396SOL    HW210207   4.336   2.433   0.948
 3397SOL     OW10208   4.976   3.210   0.388
 3397SOL    HW110209   5.026   3.287   0.428
 3397SOL    HW210210   4.881   3.212   0.420
 3398SOL     OW10211   4.078   3.372   1.329
 3398SOL    HW110212   4.057   3.328   1.242
 3398SOL    HW210213   4.175   3.398   1.332
 3399SOL     OW10214   4.126   2.613   1.598
 3399SOL    HW110215   4.194   2.668   1.551
 3399SOL    HW210216   4.166   2.525   1.625
 3400SOL     OW10217   4.737   1.967   1.770
 3400SOL    HW110218   4.743   2.052   1.718
 3400SOL    HW210219   4.769   1.891   1.713
 3401SOL     OW10220   4.228   1.912   1.740
 3401SOL    HW110221   4.186   1.855   1.670
 3401SOL    HW210222   4.162   1.981   1.772
 3402SOL     OW10223   4.297   2.732   1.029
 3402SOL    HW110224   4.341   2.821   1.020
 3402SOL    HW210225   4.234   2.732   1.106
 3403SOL     OW10226   5.084   2.724   1.045
 3403SOL    HW110227   5.009   2.724   0.979
 3403SOL    HW210228   5.121   2.632   1.054
 3404SOL     OW10229   4.933   2.387   0.275
 3404SOL    HW110230   4.946   2.303   0.329
 3404SOL    HW210231   4.904   2.461   0.335
 3405SOL     OW10232   4.031   2.075   1.231
 3405SOL    HW110233   4.008   2.112   1.321
 3405SOL    HW210234   4.001   1.980   1.225
 3406SOL     OW10235   3.761   3.172   1.282
 3406SOL    HW110236   3.814   3.123   1.350
 3406SOL    HW210237   3.783   3.270   1.287
 3407SOL     OW10238   4.456   2.496   1.064
 3407SOL    HW110239   4.515   2.470   0.988
 3407SOL    HW210240   4.428   2.592   1.053
 3408SOL     OW10241   4.031   1.925   0.618
 3408SOL    HW110242   4.020   2.019   0.651
 3408SOL    HW210243   4.026   1.862   0.695
 3409SOL     OW10244   4.747   2.628   0.966
 3409SOL    HW110245   4.762   2.649   1.062
 3409SOL    HW210246   4.717   2.533   0.957
 3410SOL     OW10247   4.704   3.435   1.700
 3410SOL    HW110248   4.684   3.479   1.612
 3410SOL    HW210249   4.743   3.344   1.684
 3411SOL     OW10250   4.074   2.760   1.804
 3411SOL    HW110251   4.150   2.804   1.852
 3411SOL    HW210252   4.109   2.713   1.722
 3412SOL     OW10253   4.792   3.195   0.849
 3412SOL    HW110254   4.799   3.111   0.794
 3412SOL    HW210255   4.854   3.264   0.813
 3413SOL     OW10256   4.043   2.672   0.949
 3413SOL    HW110257   4.136   2.708   0.954
 3413SOL    HW210258   4.037   2.587   1.001
 3414SOL     OW10259   4.063   2.371   1.006
 3414SOL    HW110260   4.011   2.288   0.989
 3414SOL    HW210261   4.140   2.376   0.942
 3415SOL     OW10262   4.862   2.242   1.678
 3415SOL    HW110263   4.817   2.305   1.742
 3415SOL    HW210264   4.955   2.273   1.661
 3416SOL     OW10265   4.884   2.069   1.477
 3416SOL    HW110266   4.884   2.133   1.554
 3416SOL    HW210267   4.912   2.117   1.394
 3417SOL     OW10268   3.732   3.188   0.200
 3417SOL    HW110269   3.639   3.209   0.169
 3417SOL    HW210270   3.742   3.089   0.213
 3418SOL     OW10271   3.812   3.663   0.927
 3418SOL    HW110272   3.770   3.577   0.900
 3418SOL    HW210273   3.906   3.666   0.893
 3419SOL     OW10274   4.228   3.430   0.910
 3419SOL    HW110275   4.294   3.504   0.919
 3419SOL    HW210276   4.272   3.351   0.868
 3420SOL     OW10277   4.726   2.658   1.238
 3420SOL    HW110278   4.767   2.626   1.324
 3420SOL    HW210279   4.630   2.631   1.235
 3421SOL     OW10280   3.764   2.406   1.114
 3421SOL    HW110281   3.849   2.373   1.073
 3421SOL    HW210282   3.777   2.421   1.212
 3422SOL     OW10283   3.913   2.382   1.722
 3422SOL    HW110284   3.972   2.342   1.652
 3422SOL    HW210285   3.855   2.453   1.681
 3423SOL     OW10286   4.539   2.434   0.325
 3423SOL    HW110287   4.546   2.345   0.279
 3423SOL    HW210288   4.445   2.468   0.317
 3424SOL     OW10289   3.976   3.426   1.744
 3424SOL    HW110290   3.946   3.483   1.820
 3424SOL    HW210291   3.969   3.329   1.770
 3425SOL     OW10292   4.395   2.326   1.269
 3425SOL    HW110293   4.361   2.237   1.239
 3425SOL    HW210294   4.421   2.380   1.189
 3426SOL     OW10295   4.654   3.540   1.465
 3426SOL    HW110296   4.630   3.522   1.370
 3426SOL    HW210297   4.684   3.634   1.475
 3427SOL     OW10298   4.197   2.362   0.191
 3427SOL    HW110299   4.258   2.442   0.195
 3427SOL    HW210300   4.102   2.393   0.198
 3428SOL     OW10301   3.883   2.999   1.466
 3428SOL    HW110302   3.905   2.938   1.542
 3428SOL    HW210303   3.893   2.950   1.380
 3429SOL     OW10304   5.026   2.717   0.309
 3429SOL    HW110305   4.940   2.686   0.351
 3429SOL    HW210306   5.022   2.703   0.210
 3430SOL     OW10307   3.807   3.120   1.022
 3430SOL    HW110308   3.802   3.119   1.122
 3430SOL    HW210309   3.724   3.079   0.984
 3431SOL     OW10310   4.412   3.524   1.716
 3431SOL    HW110311   4.356   3.605   1.725
 3431SOL    HW210312   4.464   3.528   1.630
 3432SOL     OW10313   4.627   1.948   0.133
 3432SOL    HW110314   4.678   1.949   0.047
 3432SOL    HW210315   4.683   1.906   0.204
 3433SOL     OW10316   3.854   3.656   1.851
 3433SOL    HW110317   3.813   3.582   1.904
 3433SOL    HW210318   3.918   3.707   1.909
 3434SOL     OW10319   4.554   3.135   1.422
 3434SOL    HW110320   4.549   3.168   1.517
 3434SOL    HW210321   4.468   3.154   1.376
 3435SOL     OW10322   4.396   3.478   0.154
 3435SOL    HW110323   4.405   3.488   0.055
 3435SOL    HW210324   4.356   3.389   0.175
 3436SOL     OW10325   3.987   2.188   0.720
 3436SOL    HW110326   3.908   2.239   0.686
 3436SOL    HW210327   3.978   2.173   0.818
 3437SOL     OW10328   4.546   2.864   1.372
 3437SOL    HW110329   4.586   2.863   1.280
 3437SOL    HW210330   4.556   2.956   1.412
 3438SOL     OW10331   4.640   2.772   0.291
 3438SOL    HW110332   4.703   2.810   0.223
 3438SOL    HW210333   4.680   2.689   0.330
 3439SOL     OW10334   4.096   3.150   1.490
 3439SOL    HW110335   4.083   3.243   1.456
 3439SOL    HW210336   4.012   3.098   1.477
 3440SOL     OW10337   4.763   2.960   0.696
 3440SOL    HW110338   4.693   2.913   0.750
 3440SOL    HW210339   4.822   2.892   0.653
 3441SOL     OW10340   4.738   2.098   0.971
 3441SOL    HW110341   4.730   2.062   0.878
 3441SOL    HW210342   4.736   2.022   1.036
 3442SOL     OW10343   4.314   3.349   0.491
 3442SOL    HW110344   4.356   3.291   0.421
 3442SOL    HW210345   4.270   3.428   0.447
 3443SOL     OW10346   3.979   3.210   0.290
 3443SOL    HW110347   3.883   3.211   0.263
 3443SOL    HW210348   3.991   3.263   0.374
 3444SOL     OW10349   3.829   2.875   1.726
 3444SOL    HW110350   3.752   2.842   1.780
 3444SOL    HW210351   3.914   2.845   1.768
 3445SOL     OW10352   4.396   2.065   1.489
 3445SOL    HW110353   4.486   2.049   1.449
 3445SOL    HW210354   4.404   2.070   1.588
 3446SOL     OW10355   3.796   2.028   0.318
 3446SOL    HW110356   3.779   2.111   0.264
 3446SOL    HW210357   3.886   1.991   0.296
 3447SOL     OW10358   4.337   2.704   1.431
 3447SOL    HW110359   4.393   2.785   1.414
 3447SOL    HW210360   4.396   2.624   1.434
 3448SOL     OW10361   4.440   2.427   1.708
 3448SOL    HW110362   4.459   2.492   1.782
 3448SOL    HW210363   4.500   2.347   1.717
 3449SOL     OW10364   4.114   3.603   1.560
 3449SOL    HW110365   4.023   3.644   1.558
 3449SOL    HW210366   4.107   3.509   1.592
 3450SOL     OW10367   4.318   2.607   0.652
 3450SOL    HW110368   4.368   2.692   0.633
 3450SOL    HW210369   4.230   2.609   0.604
 3451SOL     OW10370   4.583   3.236   0.016
 3451SOL    HW110371   4.537   3.251   0.104
 3451SOL    HW210372   4.627   3.321  -0.014
 3452SOL     OW10373   4.385   3.652   0.953
 3452SOL    HW110374   4.339   3.740   0.940
 3452SOL    HW210375   4.484   3.664   0.946
 3453SOL     OW10376   4.583   2.818   0.861
 3453SOL    HW110377   4.637   2.749   0.909
 3453SOL    HW210378   4.551   2.887   0.927
 3454SOL     OW10379   4.807   2.846   0.087
 3454SOL    HW110380   4.784   2.899   0.005
 3454SOL    HW210381   4.888   2.790   0.068
 3455SOL     OW10382   3.945   3.176   1.844
 3455SOL    HW110383   3.880   3.103   1.823
 3455SOL    HW210384   3.949   3.190   1.942
 3456SOL     OW10385   3.803   3.102   0.653
 3456SOL    HW110386   3.802   3.055   0.741
 3456SOL    HW210387   3.885   3.074   0.602
 3457SOL     OW10388   4.396   3.253   1.624
 3457SOL    HW110389   4.318   3.203   1.662
 3457SOL    HW210390   4.393   3.348   1.655
 3458SOL     OW10391   4.152   2.286   0.520
 3458SOL    HW110392   4.182   2.214   0.458
 3458SOL    HW210393   4.113   2.246   0.603
 3459SOL     OW10394   4.041   2.409   1.280
 3459SOL    HW110395   4.079   2.350   1.352
 3459SOL    HW210396   4.081   2.383   1.192
 3460SOL     OW10397   4.536   3.448   0.687
 3460SOL    HW110398   4.568   3.458   0.593
 3460SOL    HW210399   4.457   3.386   0.689
 3461SOL     OW10400   4.725   1.896   1.154
 3461SOL    HW110401   4.662   1.824   1.123
 3461SOL    HW210402   4.818   1.860   1.154
 3462SOL     OW10403   4.494   3.192   0.301
 3462SOL    HW110404   4.448   3.105   0.318
 3462SOL    HW210405   4.585   3.189   0.342
 3463SOL     OW10406   4.342   3.429   1.284
 3463SOL    HW110407   4.337   3.511   1.341
 3463SOL    HW210408   4.431   3.426   1.239
 3464SOL     OW10409   3.763   2.939   0.300
 3464SOL    HW110410   3.862   2.928   0.291
 3464SOL    HW210411   3.723   2.853   0.332
 3465SOL     OW10412   4.599   3.508   0.337
 3465SOL    HW110413   4.522   3.473   0.283
 3465SOL    HW210414   4.567   3.579   0.399
 3466SOL     OW10415   3.954   2.490   1.975
 3466SOL    HW110416   3.861   2.488   2.012
 3466SOL    HW210417   3.955   2.451   1.883
 3467SOL     OW10418   3.949   2.137   2.858
 3467SOL    HW110419   3.984   2.120   2.950
 3467SOL    HW210420   3.861   2.092   2.846
 3468SOL     OW10421   3.743   2.230   2.509
 3468SOL    HW110422   3.661   2.273   2.548
 3468SOL    HW210423   3.715   2.157   2.446
 3469SOL     OW10424   4.293   3.137   3.027
 3469SOL    HW110425   4.200   3.130   2.990
 3469SOL    HW210426   4.304   3.226   3.071
 3470SOL     OW10427   4.492   3.006   2.885
 3470SOL    HW110428   4.414   3.023   2.945
 3470SOL    HW210429   4.526   3.093   2.849
 3471SOL     OW10430   4.574   2.660   3.685
 3471SOL    HW110431   4.570   2.736   3.750
 3471SOL    HW210432   4.596   2.696   3.594
 3472SOL     OW10433   4.409   2.874   2.527
 3472SOL    HW110434   4.478   2.858   2.597
 3472SOL    HW210435   4.336   2.931   2.565
 3473SOL     OW10436   4.410   3.023   3.665
 3473SOL    HW110437   4.470   3.102   3.679
 3473SOL    HW210438   4.324   3.054   3.624
 3474SOL     OW10439   4.059   3.297   2.923
 3474SOL    HW110440   3.981   3.266   2.870
 3474SOL    HW210441   4.117   3.355   2.866
 3475SOL     OW10442   4.162   2.254   3.361
 3475SOL    HW110443   4.244   2.198   3.370
 3475SOL    HW210444   4.081   2.196   3.365
 3476SOL     OW10445   3.955   3.575   2.345
 3476SOL    HW110446   3.989   3.652   2.399
 3476SOL    HW210447   3.999   3.575   2.255
 3477SOL     OW10448   4.851   3.203   3.552
 3477SOL    HW110449   4.898   3.203   3.640
 3477SOL    HW210450   4.803   3.116   3.541
 3478SOL     OW10451   3.954   3.296   2.400
 3478SOL    HW110452   3.928   3.392   2.400
 3478SOL    HW210453   3.883   3.242   2.445
 3479SOL     OW10454   3.964   2.953   2.748
 3479SOL    HW110455   3.978   2.869   2.800
 3479SOL    HW210456   3.909   3.017   2.803
 3480SOL     OW10457   4.344   3.648   3.301
 3480SOL    HW110458   4.252   3.631   3.336
 3480SOL    HW210459   4.372   3.740   3.327
 3481SOL     OW10460   4.330   2.826   1.985
 3481SOL    HW110461   4.337   2.910   1.931
 3481SOL    HW210462   4.376   2.839   2.073
 3482SOL     OW10463   3.846   2.505   2.425
 3482SOL    HW110464   3.801   2.417   2.442
 3482SOL    HW210465   3.845   2.559   2.509
 3483SOL     OW10466   3.751   3.458   1.979
 3483SOL    HW110467   3.732   3.362   2.000
 3483SOL    HW210468   3.718   3.516   2.054
 3484SOL     OW10469   3.837   2.599   3.459
 3484SOL    HW110470   3.925   2.586   3.504
 3484SOL    HW210471   3.824   2.696   3.437
 3485SOL     OW10472   4.337   3.227   2.588
 3485SOL    HW110473   4.288   3.140   2.597
 3485SOL    HW210474   4.314   3.270   2.501
 3486SOL     OW10475   4.533   1.866   2.364
 3486SOL    HW110476   4.573   1.957   2.355
 3486SOL    HW210477   4.433   1.874   2.370
 3487SOL     OW10478   3.921   2.838   3.126
 3487SOL    HW110479   4.010   2.793   3.112
 3487SOL    HW210480   3.848   2.773   3.107
 3488SOL     OW10481   4.041   2.113   3.663
 3488SOL    HW110482   4.112   2.184   3.669
 3488SOL    HW210483   3.953   2.152   3.691
 3489SOL     OW10484   4.322   2.591   2.132
 3489SOL    HW110485   4.346   2.660   2.064
 3489SOL    HW210486   4.244   2.624   2.186
 3490SOL     OW10487   4.531   2.467   3.327
 3490SOL    HW110488   4.484   2.464   3.416
 3490SOL    HW210489   4.480   2.412   3.261
 3491SOL     OW10490   4.697   2.752   3.434
 3491SOL    HW110491   4.743   2.668   3.405
 3491SOL    HW210492   4.641   2.786   3.359
 3492SOL     OW10493   4.715   2.272   3.104
 3492SOL    HW110494   4.638   2.306   3.158
 3492SOL    HW210495   4.681   2.221   3.025
 3493SOL     OW10496   4.765   2.563   2.291
 3493SOL    HW110497   4.791   2.559   2.387
 3493SOL    HW210498   4.680   2.512   2.277
 3494SOL     OW10499   3.800   2.673   2.651
 3494SOL    HW110500   3.899   2.661   2.660
 3494SOL    HW210501   3.776   2.768   2.672
 3495SOL     OW10502   3.854   3.683   3.433
 3495SOL    HW110503   3.844   3.668   3.532
 3495SOL    HW210504   3.768   3.719   3.397
 3496SOL     OW10505   4.589   2.210   2.057
 3496SOL    HW110506   4.648   2.273   2.008
 3496SOL    HW210507   4.608   2.116   2.028
 3497SOL     OW10508   4.274   2.058   2.747
 3497SOL    HW110509   4.269   2.053   2.847
 3497SOL    HW210510   4.276   2.154   2.718
 3498SOL     OW10511   4.732   3.318   2.339
 3498SOL    HW110512   4.686   3.390   2.287
 3498SOL    HW210513   4.728   3.338   2.437
 3499SOL     OW10514   4.075   3.663   2.715
 3499SOL    HW110515   4.125   3.577   2.721
 3499SOL    HW210516   4.140   3.740   2.712
 3500SOL     OW10517   4.045   2.805   2.104
 3500SOL    HW110518   4.127   2.844   2.062
 3500SOL    HW210519   4.018   2.723   2.055
 3501SOL     OW10520   4.185   3.128   3.589
 3501SOL    HW110521   4.135   3.129   3.503
 3501SOL    HW210522   4.122   3.110   3.665
 3502SOL     OW10523   3.926   2.147   3.360
 3502SOL    HW110524   3.846   2.207   3.347
 3502SOL    HW210525   3.916   2.098   3.446
 3503SOL     OW10526   4.188   3.605   2.185
 3503SOL    HW110527   4.221   3.644   2.271
 3503SOL    HW210528   4.264   3.598   2.120
 3504SOL     OW10529   3.973   3.647   3.103
 3504SOL    HW110530   4.030   3.582   3.153
 3504SOL    HW210531   3.957   3.614   3.010
 3505SOL     OW10532   4.664   3.560   2.766
 3505SOL    HW110533   4.744   3.503   2.787
 3505SOL    HW210534   4.615   3.520   2.689
 3506SOL     OW10535   4.106   2.562   2.342
 3506SOL    HW110536   4.151   2.472   2.339
 3506SOL    HW210537   4.012   2.551   2.375
 3507SOL     OW10538   4.338   1.984   1.979
 3507SOL    HW110539   4.436   1.962   1.986
 3507SOL    HW210540   4.307   1.967   1.886
 3508SOL     OW10541   4.505   2.126   3.611
 3508SOL    HW110542   4.572   2.065   3.654
 3508SOL    HW210543   4.432   2.145   3.676
 3509SOL     OW10544   4.612   3.376   3.057
 3509SOL    HW110545   4.589   3.351   2.963
 3509SOL    HW210546   4.673   3.307   3.096
 3510SOL     OW10547   4.527   3.264   2.786
 3510SOL    HW110548   4.617   3.278   2.744
 3510SOL    HW210549   4.456   3.266   2.715
 3511SOL     OW10550   4.646   2.365   2.761
 3511SOL    HW110551   4.621   2.356   2.665
 3511SOL    HW210552   4.694   2.283   2.792
 3512SOL     OW10553   4.263   1.926   2.374
 3512SOL    HW110554   4.182   1.927   2.432
 3512SOL    HW210555   4.266   2.009   2.319
 3513SOL     OW10556   4.021   1.897   2.033
 3513SOL    HW110557   4.070   1.981   2.012
 3513SOL    HW210558   4.083   1.832   2.078
 3514SOL     OW10559   4.659   2.098   2.342
 3514SOL    HW110560   4.611   2.139   2.264
 3514SOL    HW210561   4.758   2.096   2.323
 3515SOL     OW10562   4.951   3.432   2.655
 3515SOL    HW110563   4.972   3.506   2.590
 3515SOL    HW210564   5.019   3.432   2.728
 3516SOL     OW10565   4.183   3.014   2.603
 3516SOL    HW110566   4.112   2.987   2.668
 3516SOL    HW210567   4.157   2.986   2.510
 3517SOL     OW10568   4.995   3.659   2.453
 3517SOL    HW110569   5.039   3.723   2.389
 3517SOL    HW210570   4.945   3.711   2.523
 3518SOL     OW10571   4.756   2.411   1.878
 3518SOL    HW110572   4.715   2.493   1.839
 3518SOL    HW210573   4.820   2.437   1.951
 3519SOL     OW10574   3.802   2.418   3.248
 3519SOL    HW110575   3.894   2.417   3.207
 3519SOL    HW210576   3.796   2.492   3.315
 3520SOL     OW10577   4.285   2.084   3.009
 3520SOL    HW110578   4.323   2.000   3.046
 3520SOL    HW210579   4.197   2.103   3.053
 3521SOL     OW10580   4.590   2.316   2.504
 3521SOL    HW110581   4.558   2.388   2.442
 3521SOL    HW210582   4.614   2.235   2.451
 3522SOL     OW10583   4.741   1.901   2.615
 3522SOL    HW110584   4.669   1.906   2.546
 3522SOL    HW210585   4.717   1.832   2.684
 3523SOL     OW10586   4.212   3.247   2.036
 3523SOL    HW110587   4.125   3.232   2.083
 3523SOL    HW210588   4.195   3.273   1.941
 3524SOL     OW10589   4.251   2.118   2.190
 3524SOL    HW110590   4.278   2.059   2.115
 3524SOL    HW210591   4.251   2.213   2.159
 3525SOL     OW10592   4.639   1.951   3.264
 3525SOL    HW110593   4.664   1.931   3.169
 3525SOL    HW210594   4.711   2.007   3.306
 3526SOL     OW10595   4.704   2.978   3.581
 3526SOL    HW110596   4.605   2.984   3.591
 3526SOL    HW210597   4.727   2.898   3.525
 3527SOL     OW10598   4.429   2.912   2.230
 3527SOL    HW110599   4.415   2.919   2.329
 3527SOL    HW210600   4.513   2.861   2.212
 3528SOL     OW10601   4.134   2.675   3.113
 3528SOL    HW110602   4.220   2.687   3.163
 3528SOL    HW210603   4.092   2.588   3.140
 3529SOL     OW10604   3.788   3.426   3.193
 3529SOL    HW110605   3.742   3.508   3.159
 3529SOL    HW210606   3.886   3.445   3.202
 3530SOL     OW10607   4.091   2.962   2.363
 3530SOL    HW110608   4.084   3.045   2.307
 3530SOL    HW210609   4.095   2.882   2.303
 3531SOL     OW10610   4.290   2.399   2.727
 3531SOL    HW110611   4.302   2.465   2.653
 3531SOL    HW210612   4.336   2.433   2.810
 3532SOL     OW10613   4.976   3.210   2.250
 3532SOL    HW110614   5.026   3.287   2.290
 3532SOL    HW210615   4.881   3.212   2.282
 3533SOL     OW10616   4.078   3.372   3.191
 3533SOL    HW110617   4.057   3.328   3.104
 3533SOL    HW210618   4.175   3.398   3.194
 3534SOL     OW10619   4.126   2.613   3.460
 3534SOL    HW110620   4.194   2.668   3.413
 3534SOL    HW210621   4.166   2.525   3.487
 3535SOL     OW10622   4.737   1.967   3.632
 3535SOL    HW110623   4.743   2.052   3.580
 3535SOL    HW210624   4.769   1.891   3.575
 3536SOL     OW10625   4.228   1.912   3.602
 3536SOL    HW110626   4.186   1.855   3.532
 3536SOL    HW210627   4.162   1.981   3.634
 3537SOL     OW10628   4.297   2.732   2.891
 3537SOL    HW110629   4.341   2.821   2.882
 3537SOL    HW210630   4.234   2.732   2.968
 3538SOL     OW10631   5.084   2.724   2.907
 3538SOL    HW110632   5.009   2.724   2.841
 3538SOL    HW210633   5.121   2.632   2.916
 3539SOL     OW10634   4.933   2.387   2.137
 3539SOL    HW110635   4.946   2.303   2.191
 3539SOL    HW210636   4.904   2.461   2.197
 3540SOL     OW10637   4.031   2.075   3.093
 3540SOL    HW110638   4.008   2.112   3.183
 3540SOL    HW210639   4.001   1.980   3.087
 3541SOL     OW10640   3.761   3.172   3.144
 3541SOL    HW110641   3.814   3.123   3.212
 3541SOL    HW210642   3.783   3.270   3.149
 3542SOL     OW10643   4.456   2.496   2.926
 3542SOL    HW110644   4.515   2.470   2.850
 3542SOL    HW210645   4.428   2.592   2.915
 3543SOL     OW10646   4.031   1.925   2.480
 3543SOL    HW110647   4.020   2.019   2.513
 3543SOL    HW210648   4.026   1.862   2.557
 3544SOL     OW10649   4.747   2.628   2.828
 3544SOL    HW110650   4.762   2.649   2.924
 3544SOL    HW210651   4.717   2.533   2.819
 3545SOL     OW10652   4.704   3.435   3.562
 3545SOL    HW110653   4.684   3.479   3.474
 3545SOL    HW210654   4.743   3.344   3.546
 3546SOL     OW10655   4.074   2.760   3.666
 3546SOL    HW110656   4.150   2.804   3.714
 3546SOL    HW210657   4.109   2.713   3.584
 3547SOL     OW10658   5.027   2.700   1.904
 3547SOL    HW110659   5.061   2.607   1.919
 3547SOL    HW210660   5.045   2.727   1.809
 3548SOL     OW10661   4.792   3.195   2.711
 3548SOL    HW110662   4.799   3.111   2.656
 3548SOL    HW210663   4.854   3.264   2.675
 3549SOL     OW10664   4.043   2.672   2.811
 3549SOL    HW110665   4.136   2.708   2.816
 3549SOL    HW210666   4.037   2.587   2.863
 3550SOL     OW10667   4.063   2.371   2.868
 3550SOL    HW110668   4.011   2.288   2.851
 3550SOL    HW210669   4.140   2.376   2.804
 3551SOL     OW10670   4.862   2.242   3.540
 3551SOL    HW110671   4.817   2.305   3.604
 3551SOL    HW210672   4.955   2.273   3.523
 3552SOL     OW10673   4.884   2.069   3.339
 3552SOL    HW110674   4.884   2.133   3.416
 3552SOL    HW210675   4.912   2.117   3.256
 3553SOL     OW10676   3.732   3.188   2.062
 3553SOL    HW110677   3.639   3.209   2.031
 3553SOL    HW210678   3.742   3.089   2.075
 3554SOL     OW10679   3.812   3.663   2.789
 3554SOL    HW110680   3.770   3.577   2.762
 3554SOL    HW210681   3.906   3.666   2.755
 3555SOL     OW10682   4.228   3.430   2.772
 3555SOL    HW110683   4.294   3.504   2.781
 3555SOL    HW210684   4.272   3.351   2.730
 3556SOL     OW10685   4.726   2.658   3.100
 3556SOL    HW110686   4.767   2.626   3.186
 3556SOL    HW210687   4.630   2.631   3.097
 3557SOL     OW10688   3.764   2.406   2.976
 3557SOL    HW110689   3.849   2.373   2.935
 3557SOL    HW210690   3.777   2.421   3.074
 3558SOL     OW10691   3.913   2.382   3.584
 3558SOL    HW110692   3.972   2.342   3.514
 3558SOL    HW210693   3.855   2.453   3.543
 3559SOL     OW10694   4.539   2.434   2.187
 3559SOL    HW110695   4.546   2.345   2.141
 3559SOL    HW210696   4.445   2.468   2.179
 3560SOL     OW10697   3.976   3.426   3.606
 3560SOL    HW110698   3.946   3.483   3.682
 3560SOL    HW210699   3.969   3.329   3.632
 3561SOL     OW10700   4.395   2.326   3.131
 3561SOL    HW110701   4.361   2.237   3.101
 3561SOL    HW210702   4.421   2.380   3.051
 3562SOL     OW10703   4.654   3.540   3.327
 3562SOL    HW110704   4.630   3.522   3.232
 3562SOL    HW210705   4.684   3.634   3.337
 3563SOL     OW10706   4.197   2.362   2.053
 3563SOL    HW110707   4.258   2.442   2.057
 3563SOL    HW210708   4.102   2.393   2.060
 3564SOL     OW10709   3.883   2.999   3.328
 3564SOL    HW110710   3.905   2.938   3.404
 3564SOL    HW210711   3.893   2.950   3.242
 3565SOL     OW10712   5.026   2.717   2.171
 3565SOL    HW110713   4.940   2.686   2.213
 3565SOL    HW210714   5.022   2.703   2.072
 3566SOL     OW10715   3.807   3.120   2.884
 3566SOL    HW110716   3.802   3.119   2.984
 3566SOL    HW210717   3.724   3.079   2.846
 3567SOL     OW10718   4.412   3.524   3.578
 3567SOL    HW110719   4.356   3.605   3.587
 3567SOL    HW210720   4.464   3.528   3.492
 3568SOL     OW10721   3.854   3.656   3.713
 3568SOL    HW110722   3.813   3.582   3.766
 3568SOL    HW210723   3.918   3.707   3.771
 3569SOL     OW10724   4.554   3.135   3.284
 3569SOL    HW110725   4.549   3.168   3.379
 3569SOL    HW210726   4.468   3.154   3.238
 3570SOL     OW10727   4.396   3.478   2.016
 3570SOL    HW110728   4.405   3.488   1.917
 3570SOL    HW210729   4.356   3.389   2.037
 3571SOL     OW10730   3.987   2.188   2.582
 3571SOL    HW110731   3.908   2.239   2.548
 3571SOL    HW210732   3.978   2.173   2.680
 3572SOL     OW10733   4.546   2.864   3.234
 3572SOL    HW110734   4.586   2.863   3.142
 3572SOL    HW210735   4.556   2.956   3.274
 3573SOL     OW10736   4.640   2.772   2.153
 3573SOL    HW110737   4.703   2.810   2.085
 3573SOL    HW210738   4.680   2.689   2.192
 3574SOL     OW10739   4.096   3.150   3.352
 3574SOL    HW110740   4.083   3.243   3.318
 3574SOL    HW210741   4.012   3.098   3.339
 3575SOL     OW10742   4.763   2.960   2.558
 3575SOL    HW110743   4.693   2.913   2.612
 3575SOL    HW210744   4.822   2.892   2.515
 3576SOL     OW10745   4.738   2.098   2.833
 3576SOL    HW110746   4.730   2.062   2.740
 3576SOL    HW210747   4.736   2.022   2.898
 3577SOL     OW10748   4.314   3.349   2.353
 3577SOL    HW110749   4.356   3.291   2.283
 3577SOL    HW210750   4.270   3.428   2.309
 3578SOL     OW10751   3.979   3.210   2.152
 3578SOL    HW110752   3.883   3.211   2.125
 3578SOL    HW210753   3.991   3.263   2.236
 3579SOL     OW10754   3.829   2.875   3.588
 3579SOL    HW110755   3.752   2.842   3.642
 3579SOL    HW210756   3.914   2.845   3.630
 3580SOL     OW10757   4.396   2.065   3.351
 3580SOL    HW110758   4.486   2.049   3.311
 3580SOL    HW210759   4.404   2.070   3.450
 3581SOL     OW10760   3.799   2.207   1.895
 3581SOL    HW110761   3.707   2.179   1.866
 3581SOL    HW210762   3.830   2.284   1.839
 3582SOL     OW10763   3.796   2.028   2.180
 3582SOL    HW110764   3.779   2.111   2.126
 3582SOL    HW210765   3.886   1.991   2.158
 3583SOL     OW10766   4.337   2.704   3.293
 3583SOL    HW110767   4.393   2.785   3.276
 3583SOL    HW210768   4.396   2.624   3.296
 3584SOL     OW10769   4.440   2.427   3.570
 3584SOL    HW110770   4.459   2.492   3.644
 3584SOL    HW210771   4.500   2.347   3.579
 3585SOL     OW10772   4.114   3.603   3.422
 3585SOL    HW110773   4.023   3.644   3.420
 3585SOL    HW210774   4.107   3.509   3.454
 3586SOL     OW10775   4.318   2.607   2.514
 3586SOL    HW110776   4.368   2.692   2.495
 3586SOL    HW210777   4.230   2.609   2.466
 3587SOL     OW10778   4.583   3.236   1.878
 3587SOL    HW110779   4.537   3.251   1.966
 3587SOL    HW210780   4.627   3.321   1.848
 3588SOL     OW10781   4.385   3.652   2.815
 3588SOL    HW110782   4.339   3.740   2.802
 3588SOL    HW210783   4.484   3.664   2.808
 3589SOL     OW10784   4.583   2.818   2.723
 3589SOL    HW110785   4.637   2.749   2.771
 3589SOL    HW210786   4.551   2.887   2.789
 3590SOL     OW10787   4.807   2.846   1.949
 3590SOL    HW110788   4.784   2.899   1.867
 3590SOL    HW210789   4.888   2.790   1.930
 3591SOL     OW10790   3.945   3.176   3.706
 3591SOL    HW110791   3.880   3.103   3.685
 3591SOL    HW210792   3.949   3.190   3.804
 3592SOL     OW10793   3.803   3.102   2.515
 3592SOL    HW110794   3.802   3.055   2.603
 3592SOL    HW210795   3.885   3.074   2.464
 3593SOL     OW10796   4.396   3.253   3.486
 3593SOL    HW110797   4.318   3.203   3.524
 3593SOL    HW210798   4.393   3.348   3.517
 3594SOL     OW10799   4.152   2.286   2.382
 3594SOL    HW110800   4.182   2.214   2.320
 3594SOL    HW210801   4.113   2.246   2.465
 3595SOL     OW10802   4.041   2.409   3.142
 3595SOL    HW110803   4.079   2.350   3.214
 3595SOL    HW210804   4.081   2.383   3.054
 3596SOL     OW10805   4.536   3.448   2.549
 3596SOL    HW110806   4.568   3.458   2.455
 3596SOL    HW210807   4.457   3.386   2.551
 3597SOL     OW10808   4.725   1.896   3.016
 3597SOL    HW110809   4.662   1.824   2.985
 3597SOL    HW210810   4.818   1.860   3.016
 3598SOL     OW10811   4.494   3.192   2.163
 3598SOL    HW110812   4.448   3.105   2.180
 3598SOL    HW210813   4.585   3.189   2.204
 3599SOL     OW10814   4.342   3.429   3.146
 3599SOL    HW110815   4.337   3.511   3.203
 3599SOL    HW210816   4.431   3.426   3.101
 3600SOL     OW10817   3.763   2.939   2.162
 3600SOL    HW110818   3.862   2.928   2.153
 3600SOL    HW210819   3.723   2.853   2.194
 3601SOL     OW10820   4.599   3.508   2.199
 3601SOL    HW110821   4.522   3.473   2.145
 3601SOL    HW210822   4.567   3.579   2.261
 3602SOL     OW10823   3.954   2.490   3.837
 3602SOL    HW110824   3.861   2.488   3.874
 3602SOL    HW210825   3.955   2.451   3.745
 3603SOL     OW10826   3.949   2.137   4.720
 3603SOL    HW110827   3.984   2.120   4.812
 3603SOL    HW210828   3.861   2.092   4.708
 3604SOL     OW10829   3.743   2.230   4.371
 3604SOL    HW110830   3.661   2.273   4.410
 3604SOL    HW210831   3.715   2.157   4.308
 3605SOL     OW10832   4.293   3.137   4.889
 3605SOL    HW110833   4.200   3.130   4.852
 3605SOL    HW210834   4.304   3.226   4.933
 3606SOL     OW10835   4.492   3.006   4.747
 3606SOL    HW110836   4.414   3.023   4.807
 3606SOL    HW210837   4.526   3.093   4.711
 3607SOL     OW10838   4.409   2.874   4.389
 3607SOL    HW110839   4.478   2.858   4.459
 3607SOL    HW210840   4.336   2.931   4.427
 3608SOL     OW10841   4.059   3.297   4.785
 3608SOL    HW110842   3.981   3.266   4.732
 3608SOL    HW210843   4.117   3.355   4.728
 3609SOL     OW10844   3.955   3.575   4.207
 3609SOL    HW110845   3.989   3.652   4.261
 3609SOL    HW210846   3.999   3.575   4.117
 3610SOL     OW10847   3.954   3.296   4.262
 3610SOL    HW110848   3.928   3.392   4.262
 3610SOL    HW210849   3.883   3.242   4.307
 3611SOL     OW10850   3.964   2.953   4.610
 3611SOL    HW110851   3.978   2.869   4.662
 3611SOL    HW210852   3.909   3.017   4.665
 3612SOL     OW10853   4.330   2.826   3.847
 3612SOL    HW110854   4.337   2.910   3.793
 3612SOL    HW210855   4.376   2.839   3.935
 3613SOL     OW10856   3.846   2.505   4.287
 3613SOL    HW110857   3.801   2.417   4.304
 3613SOL    HW210858   3.845   2.559   4.371
 3614SOL     OW10859   3.751   3.458   3.841
 3614SOL    HW110860   3.732   3.362   3.862
 3614SOL    HW210861   3.718   3.516   3.916
 3615SOL     OW10862   4.337   3.227   4.450
 3615SOL    HW110863   4.288   3.140   4.459
 3615SOL    HW210864   4.314   3.270   4.363
 3616SOL     OW10865   4.533   1.866   4.226
 3616SOL    HW110866   4.573   1.957   4.217
 3616SOL    HW210867   4.433   1.874   4.232
 3617SOL     OW10868   3.921   2.838   4.988
 3617SOL    HW110869   4.010   2.793   4.974
 3617SOL    HW210870   3.848   2.773   4.969
 3618SOL     OW10871   4.322   2.591   3.994
 3618SOL    HW110872   4.346   2.660   3.926
 3618SOL    HW210873   4.244   2.624   4.048
 3619SOL     OW10874   4.765   2.563   4.153
 3619SOL    HW110875   4.791   2.559   4.249
 3619SOL    HW210876   4.680   2.512   4.139
 3620SOL     OW10877   3.800   2.673   4.513
 3620SOL    HW110878   3.899   2.661   4.522
 3620SOL    HW210879   3.776   2.768   4.534
 3621SOL     OW10880   4.589   2.210   3.919
 3621SOL    HW110881   4.648   2.273   3.870
 3621SOL    HW210882   4.608   2.116   3.890
 3622SOL     OW10883   4.274   2.058   4.609
 3622SOL    HW110884   4.269   2.053   4.709
 3622SOL    HW210885   4.276   2.154   4.580
 3623SOL     OW10886   4.732   3.318   4.201
 3623SOL    HW110887   4.686   3.390   4.149
 3623SOL    HW210888   4.728   3.338   4.299
 3624SOL     OW10889   4.075   3.663   4.577
 3624SOL    HW110890   4.125   3.577   4.583
 3624SOL    HW210891   4.140   3.740   4.574
 3625SOL     OW10892   4.045   2.805   3.966
 3625SOL    HW110893   4.127   2.844   3.924
 3625SOL    HW210894   4.018   2.723   3.917
 3626SOL     OW10895   4.188   3.605   4.047
 3626SOL    HW110896   4.221   3.644   4.133
 3626SOL    HW210897   4.264   3.598   3.982
 3627SOL     OW10898   3.973   3.647   4.965
 3627SOL    HW110899   4.030   3.582   5.015
 3627SOL    HW210900   3.957   3.614   4.872
 3628SOL     OW10901   4.664   3.560   4.628
 3628SOL    HW110902   4.744   3.503   4.649
 3628SOL    HW210903   4.615   3.520   4.551
 3629SOL     OW10904   4.106   2.562   4.204
 3629SOL    HW110905   4.151   2.472   4.201
 3629SOL    HW210906   4.012   2.551   4.237
 3630SOL     OW10907   4.338   1.984   3.841
 3630SOL    HW110908   4.436   1.962   3.848
 3630SOL    HW210909   4.307   1.967   3.748
 3631SOL     OW10910   4.527   3.264   4.648
 3631SOL    HW110911   4.617   3.278   4.606
 3631SOL    HW210912   4.456   3.266   4.577
 3632SOL     OW10913   4.646   2.365   4.623
 3632SOL    HW110914   4.621   2.356   4.527
 3632SOL    HW210915   4.694   2.283   4.654
 3633SOL     OW10916   4.263   1.926   4.236
 3633SOL    HW110917   4.182   1.927   4.294
 3633SOL    HW210918   4.266   2.009   4.181
 3634SOL     OW10919   4.021   1.897   3.895
 3634SOL    HW110920   4.070   1.981   3.874
 3634SOL    HW210921   4.083   1.832   3.940
 3635SOL     OW10922   4.659   2.098   4.204
 3635SOL    HW110923   4.611   2.139   4.126
 3635SOL    HW210924   4.758   2.096   4.185
 3636SOL     OW10925   4.951   3.432   4.517
 3636SOL    HW110926   4.972   3.506   4.452
 3636SOL    HW210927   5.019   3.432   4.590
 3637SOL     OW10928   4.183   3.014   4.465
 3637SOL    HW110929   4.112   2.987   4.530
 3637SOL    HW210930   4.157   2.986   4.372
 3638SOL     OW10931   4.995   3.659   4.315
 3638SOL    HW110932   5.039   3.723   4.251
 3638SOL    HW210933   4.945   3.711   4.385
 3639SOL     OW10934   4.756   2.411   3.740
 3639SOL    HW110935   4.715   2.493   3.701
 3639SOL    HW210936   4.820   2.437   3.813
 3640SOL     OW10937   4.590   2.316   4.366
 3640SOL    HW110938   4.558   2.388   4.304
 3640SOL    HW210939   4.614   2.235   4.313
 3641SOL     OW10940   4.741   1.901   4.477
 3641SOL    HW110941   4.669   1.906   4.408
 3641SOL    HW210942   4.717   1.832   4.546
 3642SOL     OW10943   4.212   3.247   3.898
 3642SOL    HW110944   4.125   3.232   3.945
 3642SOL    HW210945   4.195   3.273   3.803
 3643SOL     OW10946   4.251   2.118   4.052
 3643SOL    HW110947   4.278   2.059   3.977
 3643SOL    HW210948   4.251   2.213   4.021
 3644SOL     OW10949   4.429   2.912   4.092
 3644SOL    HW110950   4.415   2.919   4.191
 3644SOL    HW210951   4.513   2.861   4.074
 3645SOL     OW10952   4.134   2.675   4.975
 3645SOL    HW110953   4.220   2.687   5.025
 3645SOL    HW210954   4.092   2.588   5.002
 3646SOL     OW10955   4.091   2.962   4.225
 3646SOL    HW110956   4.084   3.045   4.169
 3646SOL    HW210957   4.095   2.882   4.165
 3647SOL     OW10958   4.290   2.399   4.589
 3647SOL    HW110959   4.302   2.465   4.515
 3647SOL    HW210960   4.336   2.433   4.672
 3648SOL     OW10961   4.976   3.210   4.112
 3648SOL    HW110962   5.026   3.287   4.152
 3648SOL    HW210963   4.881   3.212   4.144
 3649SOL     OW10964   4.996   3.307   4.866
 3649SOL    HW110965   5.043   3.320   4.953
 3649SOL    HW210966   4.930   3.233   4.875
 3650SOL     OW10967   4.297   2.732   4.753
 3650SOL    HW110968   4.341   2.821   4.744
 3650SOL    HW210969   4.234   2.732   4.830
 3651SOL     OW10970   5.084   2.724   4.769
 3651SOL    HW110971   5.009   2.724   4.703
 3651SOL    HW210972   5.121   2.632   4.778
 3652SOL     OW10973   4.933   2.387   3.999
 3652SOL    HW110974   4.946   2.303   4.053
 3652SOL    HW210975   4.904   2.461   4.059
 3653SOL     OW10976   4.031   2.075   4.955
 3653SOL    HW110977   4.008   2.112   5.045
 3653SOL    HW210978   4.001   1.980   4.949
 3654SOL     OW10979   4.456   2.496   4.788
 3654SOL    HW110980   4.515   2.470   4.712
 3654SOL    HW210981   4.428   2.592   4.777
 3655SOL     OW10982   4.031   1.925   4.342
 3655SOL    HW110983   4.020   2.019   4.375
 3655SOL    HW210984   4.026   1.862   4.419
 3656SOL     OW10985   4.747   2.628   4.690
 3656SOL    HW110986   4.762   2.649   4.786
 3656SOL    HW210987   4.717   2.533   4.681
 3657SOL     OW10988   5.027   2.700   3.766
 3657SOL    HW110989   5.061   2.607   3.781
 3657SOL    HW210990   5.045   2.727   3.671
 3658SOL     OW10991   4.792   3.195   4.573
 3658SOL    HW110992   4.799   3.111   4.518
 3658SOL    HW210993   4.854   3.264   4.537
 3659SOL     OW10994   4.043   2.672   4.673
 3659SOL    HW110995   4.136   2.708   4.678
 3659SOL    HW210996   4.037   2.587   4.725
 3660SOL     OW10997   4.063   2.371   4.730
 3660SOL    HW110998   4.011   2.288   4.713
 3660SOL    HW210999   4.140   2.376   4.666
 3661SOL     OW11000   3.732   3.188   3.924
 3661SOL    HW111001   3.639   3.209   3.893
 3661SOL    HW211002   3.742   3.089   3.937
 3662SOL     OW11003   3.812   3.663   4.651
 3662SOL    HW111004   3.770   3.577   4.624
 3662SOL    HW211005   3.906   3.666   4.617
 3663SOL     OW11006   4.228   3.430   4.634
 3663SOL    HW111007   4.294   3.504   4.643
 3663SOL    HW211008   4.272   3.351   4.592
 3664SOL     OW11009   4.726   2.658   4.962
 3664SOL    HW111010   4.767   2.626   5.048
 3664SOL    HW211011   4.630   2.631   4.959
 3665SOL     OW11012   3.764   2.406   4.838
 3665SOL    HW111013   3.849   2.373   4.797
 3665SOL    HW211014   3.777   2.421   4.936
 3666SOL     OW11015   4.539   2.434   4.049
 3666SOL    HW111016   4.546   2.345   4.003
 3666SOL    HW211017   4.445   2.468   4.041
 3667SOL     OW11018   4.395   2.326   4.993
 3667SOL    HW111019   4.361   2.237   4.963
 3667SOL    HW211020   4.421   2.380   4.913
 3668SOL     OW11021   4.197   2.362   3.915
 3668SOL    HW111022   4.258   2.442   3.919
 3668SOL    HW211023   4.102   2.393   3.922
 3669SOL     OW11024   5.026   2.717   4.033
 3669SOL    HW111025   4.940   2.686   4.075
 3669SOL    HW211026   5.022   2.703   3.934
 3670SOL     OW11027   3.807   3.120   4.746
 3670SOL    HW111028   3.802   3.119   4.846
 3670SOL    HW211029   3.724   3.079   4.708
 3671SOL     OW11030   4.396   3.478   3.878
 3671SOL    HW111031   4.405   3.488   3.779
 3671SOL    HW211032   4.356   3.389   3.899
 3672SOL     OW11033   3.987   2.188   4.444
 3672SOL    HW111034   3.908   2.239   4.410
 3672SOL    HW211035   3.978   2.173   4.542
 3673SOL     OW11036   4.546   2.864   5.096
 3673SOL    HW111037   4.586   2.863   5.004
 3673SOL    HW211038   4.556   2.956   5.136
 3674SOL     OW11039   4.640   2.772   4.015
 3674SOL    HW111040   4.703   2.810   3.947
 3674SOL    HW211041   4.680   2.689   4.054
 3675SOL     OW11042   4.763   2.960   4.420
 3675SOL    HW111043   4.693   2.913   4.474
 3675SOL    HW211044   4.822   2.892   4.377
 3676SOL     OW11045   4.738   2.098   4.695
 3676SOL    HW111046   4.730   2.062   4.602
 3676SOL    HW211047   4.736   2.022   4.760
 3677SOL     OW11048   4.314   3.349   4.215
 3677SOL    HW111049   4.356   3.291   4.145
 3677SOL    HW211050   4.270   3.428   4.171
 3678SOL     OW11051   3.979   3.210   4.014
 3678SOL    HW111052   3.883   3.211   3.987
 3678SOL    HW211053   3.991   3.263   4.098
 3679SOL     OW11054   3.799   2.207   3.757
 3679SOL    HW111055   3.707   2.179   3.728
 3679SOL    HW211056   3.830   2.284   3.701
 3680SOL     OW11057   3.796   2.028   4.042
 3680SOL    HW111058   3.779   2.111   3.988
 3680SOL    HW211059   3.886   1.991   4.020
 3681SOL     OW11060   4.318   2.607   4.376
 3681SOL    HW111061   4.368   2.692   4.357
 3681SOL    HW211062   4.230   2.609   4.328
 3682SOL     OW11063   4.583   3.236   3.740
 3682SOL    HW111064   4.537   3.251   3.828
 3682SOL    HW211065   4.627   3.321   3.710
 3683SOL     OW11066   4.385   3.652   4.677
 3683SOL    HW111067   4.339   3.740   4.664
 3683SOL    HW211068   4.484   3.664   4.670
 3684SOL     OW11069   4.583   2.818   4.585
 3684SOL    HW111070   4.637   2.749   4.633
 3684SOL    HW211071   4.551   2.887   4.651
 3685SOL     OW11072   4.807   2.846   3.811
 3685SOL    HW111073   4.784   2.899   3.729
 3685SOL    HW211074   4.888   2.790   3.792
 3686SOL     OW11075   3.803   3.102   4.377
 3686SOL    HW111076   3.802   3.055   4.465
 3686SOL    HW211077   3.885   3.074   4.326
 3687SOL     OW11078   4.152   2.286   4.244
 3687SOL    HW111079   4.182   2.214   4.182
 3687SOL    HW211080   4.113   2.246   4.327
 3688SOL     OW11081   4.536   3.448   4.411
 3688SOL    HW111082   4.568   3.458   4.317
 3688SOL    HW211083   4.457   3.386   4.413
 3689SOL     OW11084   4.494   3.192   4.025
 3689SOL    HW111085   4.448   3.105   4.042
 3689SOL    HW211086   4.585   3.189   4.066
 3690SOL     OW11087   3.763   2.939   4.024
 3690SOL    HW111088   3.862   2.928   4.015
 3690SOL    HW211089   3.723   2.853   4.056
 3691SOL     OW11090   4.599   3.508   4.061
 3691SOL    HW111091   4.522   3.473   4.007
 3691SOL    HW211092   4.567   3.579   4.123
 3692SOL     OW11093   3.954   4.352   0.113
 3692SOL    HW111094   3.861   4.350   0.150
 3692SOL    HW211095   3.955   4.313   0.021
 3693SOL     OW11096   3.949   3.999   0.996
 3693SOL    HW111097   3.984   3.982   1.088
 3693SOL    HW211098   3.861   3.954   0.984
 3694SOL     OW11099   3.743   4.092   0.647
 3694SOL    HW111100   3.661   4.135   0.686
 3694SOL    HW211101   3.715   4.019   0.584
 3695SOL     OW11102   4.492   4.868   1.023
 3695SOL    HW111103   4.414   4.885   1.083
 3695SOL    HW211104   4.526   4.955   0.987
 3696SOL     OW11105   4.574   4.522   1.823
 3696SOL    HW111106   4.570   4.598   1.888
 3696SOL    HW211107   4.596   4.558   1.732
 3697SOL     OW11108   4.409   4.736   0.665
 3697SOL    HW111109   4.478   4.720   0.735
 3697SOL    HW211110   4.336   4.793   0.703
 3698SOL     OW11111   4.162   4.116   1.499
 3698SOL    HW111112   4.244   4.060   1.508
 3698SOL    HW211113   4.081   4.058   1.503
 3699SOL     OW11114   3.964   4.815   0.886
 3699SOL    HW111115   3.978   4.731   0.938
 3699SOL    HW211116   3.909   4.879   0.941
 3700SOL     OW11117   4.330   4.688   0.123
 3700SOL    HW111118   4.337   4.772   0.069
 3700SOL    HW211119   4.376   4.701   0.211
 3701SOL     OW11120   3.846   4.367   0.563
 3701SOL    HW111121   3.801   4.279   0.580
 3701SOL    HW211122   3.845   4.421   0.647
 3702SOL     OW11123   3.837   4.461   1.597
 3702SOL    HW111124   3.925   4.448   1.642
 3702SOL    HW211125   3.824   4.558   1.575
 3703SOL     OW11126   4.337   5.089   0.726
 3703SOL    HW111127   4.288   5.002   0.735
 3703SOL    HW211128   4.314   5.132   0.639
 3704SOL     OW11129   4.533   3.728   0.502
 3704SOL    HW111130   4.573   3.819   0.493
 3704SOL    HW211131   4.433   3.736   0.508
 3705SOL     OW11132   3.921   4.700   1.264
 3705SOL    HW111133   4.010   4.655   1.250
 3705SOL    HW211134   3.848   4.635   1.245
 3706SOL     OW11135   4.041   3.975   1.801
 3706SOL    HW111136   4.112   4.046   1.807
 3706SOL    HW211137   3.953   4.014   1.829
 3707SOL     OW11138   4.322   4.453   0.270
 3707SOL    HW111139   4.346   4.522   0.202
 3707SOL    HW211140   4.244   4.486   0.324
 3708SOL     OW11141   4.531   4.329   1.465
 3708SOL    HW111142   4.484   4.326   1.554
 3708SOL    HW211143   4.480   4.274   1.399
 3709SOL     OW11144   4.697   4.614   1.572
 3709SOL    HW111145   4.743   4.530   1.543
 3709SOL    HW211146   4.641   4.648   1.497
 3710SOL     OW11147   4.715   4.134   1.242
 3710SOL    HW111148   4.638   4.168   1.296
 3710SOL    HW211149   4.681   4.083   1.163
 3711SOL     OW11150   4.765   4.425   0.429
 3711SOL    HW111151   4.791   4.421   0.525
 3711SOL    HW211152   4.680   4.374   0.415
 3712SOL     OW11153   3.800   4.535   0.789
 3712SOL    HW111154   3.899   4.523   0.798
 3712SOL    HW211155   3.776   4.630   0.810
 3713SOL     OW11156   4.589   4.072   0.195
 3713SOL    HW111157   4.648   4.135   0.146
 3713SOL    HW211158   4.608   3.978   0.166
 3714SOL     OW11159   4.274   3.920   0.885
 3714SOL    HW111160   4.269   3.915   0.985
 3714SOL    HW211161   4.276   4.016   0.856
 3715SOL     OW11162   4.045   4.667   0.242
 3715SOL    HW111163   4.127   4.706   0.200
 3715SOL    HW211164   4.018   4.585   0.193
 3716SOL     OW11165   3.926   4.009   1.498
 3716SOL    HW111166   3.846   4.069   1.485
 3716SOL    HW211167   3.916   3.960   1.584
 3717SOL     OW11168   4.106   4.424   0.480
 3717SOL    HW111169   4.151   4.334   0.477
 3717SOL    HW211170   4.012   4.413   0.513
 3718SOL     OW11171   4.338   3.846   0.117
 3718SOL    HW111172   4.436   3.824   0.124
 3718SOL    HW211173   4.307   3.829   0.024
 3719SOL     OW11174   4.505   3.988   1.749
 3719SOL    HW111175   4.572   3.927   1.792
 3719SOL    HW211176   4.432   4.007   1.814
 3720SOL     OW11177   4.646   4.227   0.899
 3720SOL    HW111178   4.621   4.218   0.803
 3720SOL    HW211179   4.694   4.145   0.930
 3721SOL     OW11180   4.263   3.788   0.512
 3721SOL    HW111181   4.182   3.789   0.570
 3721SOL    HW211182   4.266   3.871   0.457
 3722SOL     OW11183   4.021   3.759   0.171
 3722SOL    HW111184   4.070   3.843   0.150
 3722SOL    HW211185   4.083   3.694   0.216
 3723SOL     OW11186   4.659   3.960   0.480
 3723SOL    HW111187   4.611   4.001   0.402
 3723SOL    HW211188   4.758   3.958   0.461
 3724SOL     OW11189   4.183   4.876   0.741
 3724SOL    HW111190   4.112   4.849   0.806
 3724SOL    HW211191   4.157   4.848   0.648
 3725SOL     OW11192   4.756   4.273   0.016
 3725SOL    HW111193   4.715   4.355  -0.023
 3725SOL    HW211194   4.820   4.299   0.089
 3726SOL     OW11195   3.802   4.280   1.386
 3726SOL    HW111196   3.894   4.279   1.345
 3726SOL    HW211197   3.796   4.354   1.453
 3727SOL     OW11198   4.285   3.946   1.147
 3727SOL    HW111199   4.323   3.862   1.184
 3727SOL    HW211200   4.197   3.965   1.191
 3728SOL     OW11201   4.590   4.178   0.642
 3728SOL    HW111202   4.558   4.250   0.580
 3728SOL    HW211203   4.614   4.097   0.589
 3729SOL     OW11204   4.741   3.763   0.753
 3729SOL    HW111205   4.669   3.768   0.684
 3729SOL    HW211206   4.717   3.694   0.822
 3730SOL     OW11207   4.251   3.980   0.328
 3730SOL    HW111208   4.278   3.921   0.253
 3730SOL    HW211209   4.251   4.075   0.297
 3731SOL     OW11210   4.639   3.813   1.402
 3731SOL    HW111211   4.664   3.793   1.307
 3731SOL    HW211212   4.711   3.869   1.444
 3732SOL     OW11213   4.429   4.774   0.368
 3732SOL    HW111214   4.415   4.781   0.467
 3732SOL    HW211215   4.513   4.723   0.350
 3733SOL     OW11216   4.134   4.537   1.251
 3733SOL    HW111217   4.220   4.549   1.301
 3733SOL    HW211218   4.092   4.450   1.278
 3734SOL     OW11219   4.091   4.824   0.501
 3734SOL    HW111220   4.084   4.907   0.445
 3734SOL    HW211221   4.095   4.744   0.441
 3735SOL     OW11222   4.290   4.261   0.865
 3735SOL    HW111223   4.302   4.327   0.791
 3735SOL    HW211224   4.336   4.295   0.948
 3736SOL     OW11225   4.126   4.475   1.598
 3736SOL    HW111226   4.194   4.530   1.551
 3736SOL    HW211227   4.166   4.387   1.625
 3737SOL     OW11228   4.737   3.829   1.770
 3737SOL    HW111229   4.743   3.914   1.718
 3737SOL    HW211230   4.769   3.753   1.713
 3738SOL     OW11231   4.228   3.774   1.740
 3738SOL    HW111232   4.186   3.717   1.670
 3738SOL    HW211233   4.162   3.843   1.772
 3739SOL     OW11234   4.297   4.594   1.029
 3739SOL    HW111235   4.341   4.683   1.020
 3739SOL    HW211236   4.234   4.594   1.106
 3740SOL     OW11237   5.084   4.586   1.045
 3740SOL    HW111238   5.009   4.586   0.979
 3740SOL    HW211239   5.121   4.494   1.054
 3741SOL     OW11240   4.933   4.249   0.275
 3741SOL    HW111241   4.946   4.165   0.329
 3741SOL    HW211242   4.904   4.323   0.335
 3742SOL     OW11243   4.031   3.937   1.231
 3742SOL    HW111244   4.008   3.974   1.321
 3742SOL    HW211245   4.001   3.842   1.225
 3743SOL     OW11246   4.456   4.358   1.064
 3743SOL    HW111247   4.515   4.332   0.988
 3743SOL    HW211248   4.428   4.454   1.053
 3744SOL     OW11249   4.031   3.787   0.618
 3744SOL    HW111250   4.020   3.881   0.651
 3744SOL    HW211251   4.026   3.724   0.695
 3745SOL     OW11252   4.747   4.490   0.966
 3745SOL    HW111253   4.762   4.511   1.062
 3745SOL    HW211254   4.717   4.395   0.957
 3746SOL     OW11255   4.074   4.622   1.804
 3746SOL    HW111256   4.150   4.666   1.852
 3746SOL    HW211257   4.109   4.575   1.722
 3747SOL     OW11258   4.043   4.534   0.949
 3747SOL    HW111259   4.136   4.570   0.954
 3747SOL    HW211260   4.037   4.449   1.001
 3748SOL     OW11261   4.063   4.233   1.006
 3748SOL    HW111262   4.011   4.150   0.989
 3748SOL    HW211263   4.140   4.238   0.942
 3749SOL     OW11264   4.862   4.104   1.678
 3749SOL    HW111265   4.817   4.167   1.742
 3749SOL    HW211266   4.955   4.135   1.661
 3750SOL     OW11267   4.884   3.931   1.477
 3750SOL    HW111268   4.884   3.995   1.554
 3750SOL    HW211269   4.912   3.979   1.394
 3751SOL     OW11270   4.726   4.520   1.238
 3751SOL    HW111271   4.767   4.488   1.324
 3751SOL    HW211272   4.630   4.493   1.235
 3752SOL     OW11273   3.764   4.268   1.114
 3752SOL    HW111274   3.849   4.235   1.073
 3752SOL    HW211275   3.777   4.283   1.212
 3753SOL     OW11276   3.913   4.244   1.722
 3753SOL    HW111277   3.972   4.204   1.652
 3753SOL    HW211278   3.855   4.315   1.681
 3754SOL     OW11279   4.539   4.296   0.325
 3754SOL    HW111280   4.546   4.207   0.279
 3754SOL    HW211281   4.445   4.330   0.317
 3755SOL     OW11282   4.395   4.188   1.269
 3755SOL    HW111283   4.361   4.099   1.239
 3755SOL    HW211284   4.421   4.242   1.189
 3756SOL     OW11285   4.197   4.224   0.191
 3756SOL    HW111286   4.258   4.304   0.195
 3756SOL    HW211287   4.102   4.255   0.198
 3757SOL     OW11288   3.883   4.861   1.466
 3757SOL    HW111289   3.905   4.800   1.542
 3757SOL    HW211290   3.893   4.812   1.380
 3758SOL     OW11291   5.026   4.579   0.309
 3758SOL    HW111292   4.940   4.548   0.351
 3758SOL    HW211293   5.022   4.565   0.210
 3759SOL     OW11294   4.627   3.810   0.133
 3759SOL    HW111295   4.678   3.811   0.047
 3759SOL    HW211296   4.683   3.768   0.204
 3760SOL     OW11297   3.987   4.050   0.720
 3760SOL    HW111298   3.908   4.101   0.686
 3760SOL    HW211299   3.978   4.035   0.818
 3761SOL     OW11300   4.546   4.726   1.372
 3761SOL    HW111301   4.586   4.725   1.280
 3761SOL    HW211302   4.556   4.818   1.412
 3762SOL     OW11303   4.640   4.634   0.291
 3762SOL    HW111304   4.703   4.672   0.223
 3762SOL    HW211305   4.680   4.551   0.330
 3763SOL     OW11306   4.096   5.012   1.490
 3763SOL    HW111307   4.083   5.105   1.456
 3763SOL    HW211308   4.012   4.960   1.477
 3764SOL     OW11309   4.738   3.960   0.971
 3764SOL    HW111310   4.730   3.924   0.878
 3764SOL    HW211311   4.736   3.884   1.036
 3765SOL     OW11312   3.829   4.737   1.726
 3765SOL    HW111313   3.752   4.704   1.780
 3765SOL    HW211314   3.914   4.707   1.768
 3766SOL     OW11315   4.396   3.927   1.489
 3766SOL    HW111316   4.486   3.911   1.449
 3766SOL    HW211317   4.404   3.932   1.588
 3767SOL     OW11318   3.796   3.890   0.318
 3767SOL    HW111319   3.779   3.973   0.264
 3767SOL    HW211320   3.886   3.853   0.296
 3768SOL     OW11321   4.337   4.566   1.431
 3768SOL    HW111322   4.393   4.647   1.414
 3768SOL    HW211323   4.396   4.486   1.434
 3769SOL     OW11324   4.440   4.289   1.708
 3769SOL    HW111325   4.459   4.354   1.782
 3769SOL    HW211326   4.500   4.209   1.717
 3770SOL     OW11327   4.318   4.469   0.652
 3770SOL    HW111328   4.368   4.554   0.633
 3770SOL    HW211329   4.230   4.471   0.604
 3771SOL     OW11330   4.583   4.680   0.861
 3771SOL    HW111331   4.637   4.611   0.909
 3771SOL    HW211332   4.551   4.749   0.927
 3772SOL     OW11333   4.807   4.708   0.087
 3772SOL    HW111334   4.784   4.761   0.005
 3772SOL    HW211335   4.888   4.652   0.068
 3773SOL     OW11336   3.803   4.964   0.653
 3773SOL    HW111337   3.802   4.917   0.741
 3773SOL    HW211338   3.885   4.936   0.602
 3774SOL     OW11339   4.152   4.148   0.520
 3774SOL    HW111340   4.182   4.076   0.458
 3774SOL    HW211341   4.113   4.108   0.603
 3775SOL     OW11342   4.041   4.271   1.280
 3775SOL    HW111343   4.079   4.212   1.352
 3775SOL    HW211344   4.081   4.245   1.192
 3776SOL     OW11345   4.725   3.758   1.154
 3776SOL    HW111346   4.662   3.686   1.123
 3776SOL    HW211347   4.818   3.722   1.154
 3777SOL     OW11348   4.494   5.054   0.301
 3777SOL    HW111349   4.448   4.967   0.318
 3777SOL    HW211350   4.585   5.051   0.342
 3778SOL     OW11351   3.954   4.352   1.975
 3778SOL    HW111352   3.861   4.350   2.012
 3778SOL    HW211353   3.955   4.313   1.883
 3779SOL     OW11354   3.949   3.999   2.858
 3779SOL    HW111355   3.984   3.982   2.950
 3779SOL    HW211356   3.861   3.954   2.846
 3780SOL     OW11357   3.743   4.092   2.509
 3780SOL    HW111358   3.661   4.135   2.548
 3780SOL    HW211359   3.715   4.019   2.446
 3781SOL     OW11360   4.492   4.868   2.885
 3781SOL    HW111361   4.414   4.885   2.945
 3781SOL    HW211362   4.526   4.955   2.849
 3782SOL     OW11363   4.574   4.522   3.685
 3782SOL    HW111364   4.570   4.598   3.750
 3782SOL    HW211365   4.596   4.558   3.594
 3783SOL     OW11366   4.409   4.736   2.527
 3783SOL    HW111367   4.478   4.720   2.597
 3783SOL    HW211368   4.336   4.793   2.565
 3784SOL     OW11369   4.162   4.116   3.361
 3784SOL    HW111370   4.244   4.060   3.370
 3784SOL    HW211371   4.081   4.058   3.365
 3785SOL     OW11372   3.964   4.815   2.748
 3785SOL    HW111373   3.978   4.731   2.800
 3785SOL    HW211374   3.909   4.879   2.803
 3786SOL     OW11375   4.330   4.688   1.985
 3786SOL    HW111376   4.337   4.772   1.931
 3786SOL    HW211377   4.376   4.701   2.073
 3787SOL     OW11378   3.846   4.367   2.425
 3787SOL    HW111379   3.801   4.279   2.442
 3787SOL    HW211380   3.845   4.421   2.509
 3788SOL     OW11381   3.837   4.461   3.459
 3788SOL    HW111382   3.925   4.448   3.504
 3788SOL    HW211383   3.824   4.558   3.437
 3789SOL     OW11384   4.337   5.089   2.588
 3789SOL    HW111385   4.288   5.002   2.597
 3789SOL    HW211386   4.314   5.132   2.501
 3790SOL     OW11387   4.533   3.728   2.364
 3790SOL    HW111388   4.573   3.819   2.355
 3790SOL    HW211389   4.433   3.736   2.370
 3791SOL     OW11390   3.921   4.700   3.126
 3791SOL    HW111391   4.010   4.655   3.112
 3791SOL    HW211392   3.848   4.635   3.107
 3792SOL     OW11393   4.041   3.975   3.663
 3792SOL    HW111394   4.112   4.046   3.669
 3792SOL    HW211395   3.953   4.014   3.691
 3793SOL     OW11396   4.322   4.453   2.132
 3793SOL    HW111397   4.346   4.522   2.064
 3793SOL    HW211398   4.244   4.486   2.186
 3794SOL     OW11399   4.531   4.329   3.327
 3794SOL    HW111400   4.484   4.326   3.416
 3794SOL    HW211401   4.480   4.274   3.261
 3795SOL     OW11402   4.697   4.614   3.434
 3795SOL    HW111403   4.743   4.530   3.405
 3795SOL    HW211404   4.641   4.648   3.359
 3796SOL     OW11405   4.715   4.134   3.104
 3796SOL    HW111406   4.638   4.168   3.158
 3796SOL    HW211407   4.681   4.083   3.025
 3797SOL     OW11408   4.765   4.425   2.291
 3797SOL    HW111409   4.791   4.421   2.387
 3797SOL    HW211410   4.680   4.374   2.277
 3798SOL     OW11411   3.800   4.535   2.651
 3798SOL    HW111412   3.899   4.523   2.660
 3798SOL    HW211413   3.776   4.630   2.672
 3799SOL     OW11414   4.589   4.072   2.057
 3799SOL    HW111415   4.648   4.135   2.008
 3799SOL    HW211416   4.608   3.978   2.028
 3800SOL     OW11417   4.274   3.920   2.747
 3800SOL    HW111418   4.269   3.915   2.847
 3800SOL    HW211419   4.276   4.016   2.718
 3801SOL     OW11420   4.045   4.667   2.104
 3801SOL    HW111421   4.127   4.706   2.062
 3801SOL    HW211422   4.018   4.585   2.055
 3802SOL     OW11423   3.926   4.009   3.360
 3802SOL    HW111424   3.846   4.069   3.347
 3802SOL    HW211425   3.916   3.960   3.446
 3803SOL     OW11426   4.106   4.424   2.342
 3803SOL    HW111427   4.151   4.334   2.339
 3803SOL    HW211428   4.012   4.413   2.375
 3804SOL     OW11429   4.338   3.846   1.979
 3804SOL    HW111430   4.436   3.824   1.986
 3804SOL    HW211431   4.307   3.829   1.886
 3805SOL     OW11432   4.505   3.988   3.611
 3805SOL    HW111433   4.572   3.927   3.654
 3805SOL    HW211434   4.432   4.007   3.676
 3806SOL     OW11435   4.646   4.227   2.761
 3806SOL    HW111436   4.621   4.218   2.665
 3806SOL    HW211437   4.694   4.145   2.792
 3807SOL     OW11438   4.263   3.788   2.374
 3807SOL    HW111439   4.182   3.789   2.432
 3807SOL    HW211440   4.266   3.871   2.319
 3808SOL     OW11441   4.021   3.759   2.033
 3808SOL    HW111442   4.070   3.843   2.012
 3808SOL    HW211443   4.083   3.694   2.078
 3809SOL     OW11444   4.659   3.960   2.342
 3809SOL    HW111445   4.611   4.001   2.264
 3809SOL    HW211446   4.758   3.958   2.323
 3810SOL     OW11447   4.183   4.876   2.603
 3810SOL    HW111448   4.112   4.849   2.668
 3810SOL    HW211449   4.157   4.848   2.510
 3811SOL     OW11450   4.756   4.273   1.878
 3811SOL    HW111451   4.715   4.355   1.839
 3811SOL    HW211452   4.820   4.299   1.951
 3812SOL     OW11453   3.802   4.280   3.248
 3812SOL    HW111454   3.894   4.279   3.207
 3812SOL    HW211455   3.796   4.354   3.315
 3813SOL     OW11456   4.285   3.946   3.009
 3813SOL    HW111457   4.323   3.862   3.046
 3813SOL    HW211458   4.197   3.965   3.053
 3814SOL     OW11459   4.590   4.178   2.504
 3814SOL    HW111460   4.558   4.250   2.442
 3814SOL    HW211461   4.614   4.097   2.451
 3815SOL     OW11462   4.741   3.763   2.615
 3815SOL    HW111463   4.669   3.768   2.546
 3815SOL    HW211464   4.717   3.694   2.684
 3816SOL     OW11465   4.251   3.980   2.190
 3816SOL    HW111466   4.278   3.921   2.115
 3816SOL    HW211467   4.251   4.075   2.159
 3817SOL     OW11468   4.639   3.813   3.264
 3817SOL    HW111469   4.664   3.793   3.169
 3817SOL    HW211470   4.711   3.869   3.306
 3818SOL     OW11471   4.429   4.774   2.230
 3818SOL    HW111472   4.415   4.781   2.329
 3818SOL    HW211473   4.513   4.723   2.212
 3819SOL     OW11474   4.134   4.537   3.113
 3819SOL    HW111475   4.220   4.549   3.163
 3819SOL    HW211476   4.092   4.450   3.140
 3820SOL     OW11477   4.091   4.824   2.363
 3820SOL    HW111478   4.084   4.907   2.307
 3820SOL    HW211479   4.095   4.744   2.303
 3821SOL     OW11480   4.290   4.261   2.727
 3821SOL    HW111481   4.302   4.327   2.653
 3821SOL    HW211482   4.336   4.295   2.810
 3822SOL     OW11483   4.126   4.475   3.460
 3822SOL    HW111484   4.194   4.530   3.413
 3822SOL    HW211485   4.166   4.387   3.487
 3823SOL     OW11486   4.737   3.829   3.632
 3823SOL    HW111487   4.743   3.914   3.580
 3823SOL    HW211488   4.769   3.753   3.575
 3824SOL     OW11489   4.228   3.774   3.602
 3824SOL    HW111490   4.186   3.717   3.532
 3824SOL    HW211491   4.162   3.843   3.634
 3825SOL     OW11492   4.297   4.594   2.891
 3825SOL    HW111493   4.341   4.683   2.882
 3825SOL    HW211494   4.234   4.594   2.968
 3826SOL     OW11495   5.084   4.586   2.907
 3826SOL    HW111496   5.009   4.586   2.841
 3826SOL    HW211497   5.121   4.494   2.916
 3827SOL     OW11498   4.933   4.249   2.137
 3827SOL    HW111499   4.946   4.165   2.191
 3827SOL    HW211500   4.904   4.323   2.197
 3828SOL     OW11501   4.031   3.937   3.093
 3828SOL    HW111502   4.008   3.974   3.183
 3828SOL    HW211503   4.001   3.842   3.087
 3829SOL     OW11504   4.456   4.358   2.926
 3829SOL    HW111505   4.515   4.332   2.850
 3829SOL    HW211506   4.428   4.454   2.915
 3830SOL     OW11507   4.031   3.787   2.480
 3830SOL    HW111508   4.020   3.881   2.513
 3830SOL    HW211509   4.026   3.724   2.557
 3831SOL     OW11510   4.747   4.490   2.828
 3831SOL    HW111511   4.762   4.511   2.924
 3831SOL    HW211512   4.717   4.395   2.819
 3832SOL     OW11513   4.074   4.622   3.666
 3832SOL    HW111514   4.150   4.666   3.714
 3832SOL    HW211515   4.109   4.575   3.584
 3833SOL     OW11516   5.027   4.562   1.904
 3833SOL    HW111517   5.061   4.469   1.919
 3833SOL    HW211518   5.045   4.589   1.809
 3834SOL     OW11519   4.043   4.534   2.811
 3834SOL    HW111520   4.136   4.570   2.816
 3834SOL    HW211521   4.037   4.449   2.863
 3835SOL     OW11522   4.063   4.233   2.868
 3835SOL    HW111523   4.011   4.150   2.851
 3835SOL    HW211524   4.140   4.238   2.804
 3836SOL     OW11525   4.862   4.104   3.540
 3836SOL    HW111526   4.817   4.167   3.604
 3836SOL    HW211527   4.955   4.135   3.523
 3837SOL     OW11528   4.884   3.931   3.339
 3837SOL    HW111529   4.884   3.995   3.416
 3837SOL    HW211530   4.912   3.979   3.256
 3838SOL     OW11531   4.726   4.520   3.100
 3838SOL    HW111532   4.767   4.488   3.186
 3838SOL    HW211533   4.630   4.493   3.097
 3839SOL     OW11534   3.764   4.268   2.976
 3839SOL    HW111535   3.849   4.235   2.935
 3839SOL    HW211536   3.777   4.283   3.074
 3840SOL     OW11537   3.913   4.244   3.584
 3840SOL    HW111538   3.972   4.204   3.514
 3840SOL    HW211539   3.855   4.315   3.543
 3841SOL     OW11540   4.539   4.296   2.187
 3841SOL    HW111541   4.546   4.207   2.141
 3841SOL    HW211542   4.445   4.330   2.179
 3842SOL     OW11543   4.395   4.188   3.131
 3842SOL    HW111544   4.361   4.099   3.101
 3842SOL    HW211545   4.421   4.242   3.051
 3843SOL     OW11546   4.197   4.224   2.053
 3843SOL    HW111547   4.258   4.304   2.057
 3843SOL    HW211548   4.102   4.255   2.060
 3844SOL     OW11549   3.883   4.861   3.328
 3844SOL    HW111550   3.905   4.800   3.404
 3844SOL    HW211551   3.893   4.812   3.242
 3845SOL     OW11552   5.026   4.579   2.171
 3845SOL    HW111553   4.940   4.548   2.213
 3845SOL    HW211554   5.022   4.565   2.072
 3846SOL     OW11555   3.987   4.050   2.582
 3846SOL    HW111556   3.908   4.101   2.548
 3846SOL    HW211557   3.978   4.035   2.680
 3847SOL     OW11558   4.546   4.726   3.234
 3847SOL    HW111559   4.586   4.725   3.142
 3847SOL    HW211560   4.556   4.818   3.274
 3848SOL     OW11561   4.640   4.634   2.153
 3848SOL    HW111562   4.703   4.672   2.085
 3848SOL    HW211563   4.680   4.551   2.192
 3849SOL     OW11564   4.096   5.012   3.352
 3849SOL    HW111565   4.083   5.105   3.318
 3849SOL    HW211566   4.012   4.960   3.339
 3850SOL     OW11567   4.738   3.960   2.833
 3850SOL    HW111568   4.730   3.924   2.740
 3850SOL    HW211569   4.736   3.884   2.898
 3851SOL     OW11570   3.829   4.737   3.588
 3851SOL    HW111571   3.752   4.704   3.642
 3851SOL    HW211572   3.914   4.707   3.630
 3852SOL     OW11573   4.396   3.927   3.351
 3852SOL    HW111574   4.486   3.911   3.311
 3852SOL    HW211575   4.404   3.932   3.450
 3853SOL     OW11576   3.799   4.069   1.895
 3853SOL    HW111577   3.707   4.041   1.866
 3853SOL    HW211578   3.830   4.146   1.839
 3854SOL     OW11579   3.796   3.890   2.180
 3854SOL    HW111580   3.779   3.973   2.126
 3854SOL    HW211581   3.886   3.853   2.158
 3855SOL     OW11582   4.337   4.566   3.293
 3855SOL    HW111583   4.393   4.647   3.276
 3855SOL    HW211584   4.396   4.486   3.296
 3856SOL     OW11585   4.440   4.289   3.570
 3856SOL    HW111586   4.459   4.354   3.644
 3856SOL    HW211587   4.500   4.209   3.579
 3857SOL     OW11588   4.318   4.469   2.514
 3857SOL    HW111589   4.368   4.554   2.495
 3857SOL    HW211590   4.230   4.471   2.466
 3858SOL     OW11591   4.583   4.680   2.723
 3858SOL    HW111592   4.637   4.611   2.771
 3858SOL    HW211593   4.551   4.749   2.789
 3859SOL     OW11594   4.807   4.708   1.949
 3859SOL    HW111595   4.784   4.761   1.867
 3859SOL    HW211596   4.888   4.652   1.930
 3860SOL     OW11597   3.803   4.964   2.515
 3860SOL    HW111598   3.802   4.917   2.603
 3860SOL    HW211599   3.885   4.936   2.464
 3861SOL     OW11600   4.152   4.148   2.382
 3861SOL    HW111601   4.182   4.076   2.320
 3861SOL    HW211602   4.113   4.108   2.465
 3862SOL     OW11603   4.041   4.271   3.142
 3862SOL    HW111604   4.079   4.212   3.214
 3862SOL    HW211605   4.081   4.245   3.054
 3863SOL     OW11606   4.725   3.758   3.016
 3863SOL    HW111607   4.662   3.686   2.985
 3863SOL    HW211608   4.818   3.722   3.016
 3864SOL     OW11609   4.494   5.054   2.163
 3864SOL    HW111610   4.448   4.967   2.180
 3864SOL    HW211611   4.585   5.051   2.204
 3865SOL     OW11612   3.763   4.801   2.162
 3865SOL    HW111613   3.862   4.790   2.153
 3865SOL    HW211614   3.723   4.715   2.194
 3866SOL     OW11615   3.954   4.352   3.837
 3866SOL    HW111616   3.861   4.350   3.874
 3866SOL    HW211617   3.955   4.313   3.745
 3867SOL     OW11618   3.949   3.999   4.720
 3867SOL    HW111619   3.984   3.982   4.812
 3867SOL    HW211620   3.861   3.954   4.708
 3868SOL     OW11621   3.743   4.092   4.371
 3868SOL    HW111622   3.661   4.135   4.410
 3868SOL    HW211623   3.715   4.019   4.308
 3869SOL     OW11624   4.492   4.868   4.747
 3869SOL    HW111625   4.414   4.885   4.807
 3869SOL    HW211626   4.526   4.955   4.711
 3870SOL     OW11627   4.409   4.736   4.389
 3870SOL    HW111628   4.478   4.720   4.459
 3870SOL    HW211629   4.336   4.793   4.427
 3871SOL     OW11630   3.964   4.815   4.610
 3871SOL    HW111631   3.978   4.731   4.662
 3871SOL    HW211632   3.909   4.879   4.665
 3872SOL     OW11633   4.330   4.688   3.847
 3872SOL    HW111634   4.337   4.772   3.793
 3872SOL    HW211635   4.376   4.701   3.935
 3873SOL     OW11636   3.846   4.367   4.287
 3873SOL    HW111637   3.801   4.279   4.304
 3873SOL    HW211638   3.845   4.421   4.371
 3874SOL     OW11639   4.337   5.089   4.450
 3874SOL    HW111640   4.288   5.002   4.459
 3874SOL    HW211641   4.314   5.132   4.363
 3875SOL     OW11642   4.533   3.728   4.226
 3875SOL    HW111643   4.573   3.819   4.217
 3875SOL    HW211644   4.433   3.736   4.232
 3876SOL     OW11645   3.921   4.700   4.988
 3876SOL    HW111646   4.010   4.655   4.974
 3876SOL    HW211647   3.848   4.635   4.969
 3877SOL     OW11648   4.322   4.453   3.994
 3877SOL    HW111649   4.346   4.522   3.926
 3877SOL    HW211650   4.244   4.486   4.048
 3878SOL     OW11651   4.765   4.425   4.153
 3878SOL    HW111652   4.791   4.421   4.249
 3878SOL    HW211653   4.680   4.374   4.139
 3879SOL     OW11654   3.800   4.535   4.513
 3879SOL    HW111655   3.899   4.523   4.522
 3879SOL    HW211656   3.776   4.630   4.534
 3880SOL     OW11657   4.589   4.072   3.919
 3880SOL    HW111658   4.648   4.135   3.870
 3880SOL    HW211659   4.608   3.978   3.890
 3881SOL     OW11660   4.274   3.920   4.609
 3881SOL    HW111661   4.269   3.915   4.709
 3881SOL    HW211662   4.276   4.016   4.580
 3882SOL     OW11663   4.045   4.667   3.966
 3882SOL    HW111664   4.127   4.706   3.924
 3882SOL    HW211665   4.018   4.585   3.917
 3883SOL     OW11666   4.106   4.424   4.204
 3883SOL    HW111667   4.151   4.334   4.201
 3883SOL    HW211668   4.012   4.413   4.237
 3884SOL     OW11669   4.338   3.846   3.841
 3884SOL    HW111670   4.436   3.824   3.848
 3884SOL    HW211671   4.307   3.829   3.748
 3885SOL     OW11672   4.612   5.238   4.919
 3885SOL    HW111673   4.589   5.213   4.825
 3885SOL    HW211674   4.673   5.169   4.958
 3886SOL     OW11675   4.646   4.227   4.623
 3886SOL    HW111676   4.621   4.218   4.527
 3886SOL    HW211677   4.694   4.145   4.654
 3887SOL     OW11678   4.263   3.788   4.236
 3887SOL    HW111679   4.182   3.789   4.294
 3887SOL    HW211680   4.266   3.871   4.181
 3888SOL     OW11681   4.021   3.759   3.895
 3888SOL    HW111682   4.070   3.843   3.874
 3888SOL    HW211683   4.083   3.694   3.940
 3889SOL     OW11684   4.659   3.960   4.204
 3889SOL    HW111685   4.611   4.001   4.126
 3889SOL    HW211686   4.758   3.958   4.185
 3890SOL     OW11687   4.183   4.876   4.465
 3890SOL    HW111688   4.112   4.849   4.530
 3890SOL    HW211689   4.157   4.848   4.372
 3891SOL     OW11690   4.756   4.273   3.740
 3891SOL    HW111691   4.715   4.355   3.701
 3891SOL    HW211692   4.820   4.299   3.813
 3892SOL     OW11693   4.590   4.178   4.366
 3892SOL    HW111694   4.558   4.250   4.304
 3892SOL    HW211695   4.614   4.097   4.313
 3893SOL     OW11696   4.741   3.763   4.477
 3893SOL    HW111697   4.669   3.768   4.408
 3893SOL    HW211698   4.717   3.694   4.546
 3894SOL     OW11699   4.251   3.980   4.052
 3894SOL    HW111700   4.278   3.921   3.977
 3894SOL    HW211701   4.251   4.075   4.021
 3895SOL     OW11702   4.429   4.774   4.092
 3895SOL    HW111703   4.415   4.781   4.191
 3895SOL    HW211704   4.513   4.723   4.074
 3896SOL     OW11705   4.134   4.537   4.975
 3896SOL    HW111706   4.220   4.549   5.025
 3896SOL    HW211707   4.092   4.450   5.002
 3897SOL     OW11708   4.091   4.824   4.225
 3897SOL    HW111709   4.084   4.907   4.169
 3897SOL    HW211710   4.095   4.744   4.165
 3898SOL     OW11711   4.290   4.261   4.589
 3898SOL    HW111712   4.302   4.327   4.515
 3898SOL    HW211713   4.336   4.295   4.672
 3899SOL     OW11714   4.297   4.594   4.753
 3899SOL    HW111715   4.341   4.683   4.744
 3899SOL    HW211716   4.234   4.594   4.830
 3900SOL     OW11717   5.084   4.586   4.769
 3900SOL    HW111718   5.009   4.586   4.703
 3900SOL    HW211719   5.121   4.494   4.778
 3901SOL     OW11720   4.933   4.249   3.999
 3901SOL    HW111721   4.946   4.165   4.053
 3901SOL    HW211722   4.904   4.323   4.059
 3902SOL     OW11723   4.031   3.937   4.955
 3902SOL    HW111724   4.008   3.974   5.045
 3902SOL    HW211725   4.001   3.842   4.949
 3903SOL     OW11726   4.456   4.358   4.788
 3903SOL    HW111727   4.515   4.332   4.712
 3903SOL    HW211728   4.428   4.454   4.777
 3904SOL     OW11729   4.031   3.787   4.342
 3904SOL    HW111730   4.020   3.881   4.375
 3904SOL    HW211731   4.026   3.724   4.419
 3905SOL     OW11732   4.747   4.490   4.690
 3905SOL    HW111733   4.762   4.511   4.786
 3905SOL    HW211734   4.717   4.395   4.681
 3906SOL     OW11735   5.027   4.562   3.766
 3906SOL    HW111736   5.061   4.469   3.781
 3906SOL    HW211737   5.045   4.589   3.671
 3907SOL     OW11738   4.043   4.534   4.673
 3907SOL    HW111739   4.136   4.570   4.678
 3907SOL    HW211740   4.037   4.449   4.725
 3908SOL     OW11741   4.063   4.233   4.730
 3908SOL    HW111742   4.011   4.150   4.713
 3908SOL    HW211743   4.140   4.238   4.666
 3909SOL     OW11744   4.726   4.520   4.962
 3909SOL    HW111745   4.767   4.488   5.048
 3909SOL    HW211746   4.630   4.493   4.959
 3910SOL     OW11747   3.764   4.268   4.838
 3910SOL    HW111748   3.849   4.235   4.797
 3910SOL    HW211749   3.777   4.283   4.936
 3911SOL     OW11750   4.539   4.296   4.049
 3911SOL    HW111751   4.546   4.207   4.003
 3911SOL    HW211752   4.445   4.330   4.041
 3912SOL     OW11753   4.395   4.188   4.993
 3912SOL    HW111754   4.361   4.099   4.963
 3912SOL    HW211755   4.421   4.242   4.913
 3913SOL     OW11756   4.197   4.224   3.915
 3913SOL    HW111757   4.258   4.304   3.919
 3913SOL    HW211758   4.102   4.255   3.922
 3914SOL     OW11759   3.883   4.861   5.190
 3914SOL    HW111760   3.905   4.800   5.266
 3914SOL    HW211761   3.893   4.812   5.104
 3915SOL     OW11762   5.026   4.579   4.033
 3915SOL    HW111763   4.940   4.548   4.075
 3915SOL    HW211764   5.022   4.565   3.934
 3916SOL     OW11765   3.987   4.050   4.444
 3916SOL    HW111766   3.908   4.101   4.410
 3916SOL    HW211767   3.978   4.035   4.542
 3917SOL     OW11768   4.546   4.726   5.096
 3917SOL    HW111769   4.586   4.725   5.004
 3917SOL    HW211770   4.556   4.818   5.136
 3918SOL     OW11771   4.640   4.634   4.015
 3918SOL    HW111772   4.703   4.672   3.947
 3918SOL    HW211773   4.680   4.551   4.054
 3919SOL     OW11774   4.738   3.960   4.695
 3919SOL    HW111775   4.730   3.924   4.602
 3919SOL    HW211776   4.736   3.884   4.760
 3920SOL     OW11777   3.799   4.069   3.757
 3920SOL    HW111778   3.707   4.041   3.728
 3920SOL    HW211779   3.830   4.146   3.701
 3921SOL     OW11780   3.796   3.890   4.042
 3921SOL    HW111781   3.779   3.973   3.988
 3921SOL    HW211782   3.886   3.853   4.020
 3922SOL     OW11783   4.318   4.469   4.376
 3922SOL    HW111784   4.368   4.554   4.357
 3922SOL    HW211785   4.230   4.471   4.328
 3923SOL     OW11786   4.583   4.680   4.585
 3923SOL    HW111787   4.637   4.611   4.633
 3923SOL    HW211788   4.551   4.749   4.651
 3924SOL     OW11789   4.807   4.708   3.811
 3924SOL    HW111790   4.784   4.761   3.729
 3924SOL    HW211791   4.888   4.652   3.792
 3925SOL     OW11792   3.803   4.964   4.377
 3925SOL    HW111793   3.802   4.917   4.465
 3925SOL    HW211794   3.885   4.936   4.326
 3926SOL     OW11795   4.152   4.148   4.244
 3926SOL    HW111796   4.182   4.076   4.182
 3926SOL    HW211797   4.113   4.108   4.327
 3927SOL     OW11798   4.494   5.054   4.025
 3927SOL    HW111799   4.448   4.967   4.042
 3927SOL    HW211800   4.585   5.051   4.066
 3928SOL     OW11801   3.763   4.801   4.024
 3928SOL    HW111802   3.862   4.790   4.015
 3928SOL    HW211803   3.723   4.715   4.056
   4.92984   4.92984   4.92984
