mobley_2005792_GMX.gro created by acpype (v: 2023.10.27) on Wed May 20 23:57:53 2026
   22
    1MOL     C1    1   2.173   2.266   2.416
    1MOL     C2    2   2.230   2.334   2.309
    1MOL     C3    3   2.345   2.412   2.328
    1MOL     C4    4   2.404   2.424   2.454
    1MOL     C5    5   2.345   2.354   2.561
    1MOL     C6    6   2.231   2.276   2.542
    1MOL     C7    7   2.525   2.506   2.475
    1MOL     C8    8   2.636   2.495   2.388
    1MOL     C9    9   2.750   2.573   2.408
    1MOL    C10   10   2.756   2.663   2.513
    1MOL    C11   11   2.648   2.676   2.600
    1MOL    C12   12   2.534   2.598   2.581
    1MOL     H1   13   2.084   2.205   2.401
    1MOL     H2   14   2.185   2.327   2.210
    1MOL     H3   15   2.386   2.465   2.242
    1MOL     H4   16   2.389   2.359   2.661
    1MOL     H5   17   2.187   2.223   2.626
    1MOL     H6   18   2.635   2.424   2.306
    1MOL     H7   19   2.835   2.562   2.340
    1MOL     H8   20   2.845   2.724   2.528
    1MOL     H9   21   2.652   2.747   2.682
    1MOL    H10   22   2.450   2.611   2.649
   4.92984   4.92984   4.92984
