; mobley_2245668_GMX_OPLS.itp created by acpype (v: 2023.10.27) on Wed May 20 23:52:04 2026

; For OPLS atomtypes manual fine tuning
; AC_at:OPLS_at:OPLScode: Possible_Alternatives (see ffoplsaa.atp and ffoplsaanb.itp)
; c3:CT:opls_135: ['136', '137', '149', '157', '158', '206', '209', '210', '223B', '224B', '245', '246', '274', '283', '284', '285', '292', '292B', '293B', '296', '307', '308', '505']
; oh:OH:opls_154: ['167']
; hc:HC:opls_140: []
; h1:HC:opls_140: []
; ho:HO:opls_155: ['168']

[ moleculetype ]
;name            nrexcl
 mobley_2245668   3

[ atoms ]
;   nr  type  resi  res  atom  cgnr     charge      mass       ; qtot   bond_type
     1 opls_135     1   MOL    C1    1    -0.089600     12.01100 ; qtot -0.090  CT  
     2 opls_135     1   MOL    C2    2    -0.089600     12.01100 ; qtot -0.179  CT  
     3 opls_135     1   MOL    C3    3     0.128400     12.01100 ; qtot -0.051  CT  
     4 opls_135     1   MOL    C4    4    -0.104700     12.01100 ; qtot -0.155  CT  
     5 opls_154     1   MOL    O1    5    -0.599798     15.99940 ; qtot -0.755  OH  
     6 opls_140     1   MOL    H1    6     0.037533      1.00800 ; qtot -0.718  HC  
     7 opls_140     1   MOL    H2    7     0.037533      1.00800 ; qtot -0.680  HC  
     8 opls_140     1   MOL    H3    8     0.037533      1.00800 ; qtot -0.643  HC  
     9 opls_140     1   MOL    H4    9     0.037533      1.00800 ; qtot -0.605  HC  
    10 opls_140     1   MOL    H5   10     0.037533      1.00800 ; qtot -0.568  HC  
    11 opls_140     1   MOL    H6   11     0.037533      1.00800 ; qtot -0.530  HC  
    12 opls_140     1   MOL    H7   12     0.045200      1.00800 ; qtot -0.485  HC  
    13 opls_140     1   MOL    H8   13     0.045200      1.00800 ; qtot -0.440  HC  
    14 opls_140     1   MOL    H9   14     0.043700      1.00800 ; qtot -0.396  HC  
    15 opls_155     1   MOL   H10   15     0.396000      1.00800 ; qtot -0.000  HO  

[ bonds ]
;   ai     aj funct   r             k
     1      4   1 ;    1.5354e-01    1.9154e+05 ;     C1 - C4         CT - CT    
     1      6   1 ;    1.0962e-01    2.8891e+05 ;     C1 - H1         CT - HC    
     1      7   1 ;    1.0962e-01    2.8891e+05 ;     C1 - H2         CT - HC    
     1      8   1 ;    1.0962e-01    2.8891e+05 ;     C1 - H3         CT - HC    
     2      4   1 ;    1.5354e-01    1.9154e+05 ;     C2 - C4         CT - CT    
     2      9   1 ;    1.0962e-01    2.8891e+05 ;     C2 - H4         CT - HC    
     2     10   1 ;    1.0962e-01    2.8891e+05 ;     C2 - H5         CT - HC    
     2     11   1 ;    1.0962e-01    2.8891e+05 ;     C2 - H6         CT - HC    
     3      4   1 ;    1.5354e-01    1.9154e+05 ;     C3 - C4         CT - CT    
     3      5   1 ;    1.4242e-01    2.3861e+05 ;     C3 - O1         CT - OH    
     3     12   1 ;    1.0969e-01    2.8804e+05 ;     C3 - H7         CT - HC    
     3     13   1 ;    1.0969e-01    2.8804e+05 ;     C3 - H8         CT - HC    
     4     14   1 ;    1.0962e-01    2.8891e+05 ;     C4 - H9         CT - HC    
     5     15   1 ;    9.7250e-02    4.4811e+05 ;     O1 - H10        OH - HO    

[ pairs ]
;   ai     aj    funct
     1      5      1 ;     C1 - O1    
     1      9      1 ;     C1 - H4    
     1     10      1 ;     C1 - H5    
     1     11      1 ;     C1 - H6    
     1     12      1 ;     C1 - H7    
     1     13      1 ;     C1 - H8    
     2      5      1 ;     C2 - O1    
     2     12      1 ;     C2 - H7    
     2     13      1 ;     C2 - H8    
     3      9      1 ;     C3 - H4    
     3     10      1 ;     C3 - H5    
     3     11      1 ;     C3 - H6    
     4     15      1 ;     C4 - H10   
     5     14      1 ;     O1 - H9    
     6      2      1 ;     H1 - C2    
     6      3      1 ;     H1 - C3    
     6     14      1 ;     H1 - H9    
     7      2      1 ;     H2 - C2    
     7      3      1 ;     H2 - C3    
     7     14      1 ;     H2 - H9    
     8      2      1 ;     H3 - C2    
     8      3      1 ;     H3 - C3    
     8     14      1 ;     H3 - H9    
     9     14      1 ;     H4 - H9    
    10     14      1 ;     H5 - H9    
    11     14      1 ;     H6 - H9    
    12     14      1 ;     H7 - H9    
    12     15      1 ;     H7 - H10   
    13     14      1 ;     H8 - H9    
    13     15      1 ;     H8 - H10   

[ angles ]
;   ai     aj     ak    funct   theta         cth
     1      4      2      1 ;    1.1263e+02    5.0099e+02 ;     C1 - C4   - C2       CT -   CT - CT  
     1      4      3      1 ;    1.1263e+02    5.0099e+02 ;     C1 - C4   - C3       CT -   CT - CT  
     1      4     14      1 ;    1.0968e+02    3.6208e+02 ;     C1 - C4   - H9       CT -   CT - HC  
     2      4      3      1 ;    1.1263e+02    5.0099e+02 ;     C2 - C4   - C3       CT -   CT - CT  
     2      4     14      1 ;    1.0968e+02    3.6208e+02 ;     C2 - C4   - H9       CT -   CT - HC  
     3      4     14      1 ;    1.0968e+02    3.6208e+02 ;     C3 - C4   - H9       CT -   CT - HC  
     3      5     15      1 ;    1.0739e+02    5.4501e+02 ;     C3 - O1   - H10      CT -   OH - HO  
     4      1      6      1 ;    1.0968e+02    3.6208e+02 ;     C4 - C1   - H1       CT -   CT - HC  
     4      1      7      1 ;    1.0968e+02    3.6208e+02 ;     C4 - C1   - H2       CT -   CT - HC  
     4      1      8      1 ;    1.0968e+02    3.6208e+02 ;     C4 - C1   - H3       CT -   CT - HC  
     4      2      9      1 ;    1.0968e+02    3.6208e+02 ;     C4 - C2   - H4       CT -   CT - HC  
     4      2     10      1 ;    1.0968e+02    3.6208e+02 ;     C4 - C2   - H5       CT -   CT - HC  
     4      2     11      1 ;    1.0968e+02    3.6208e+02 ;     C4 - C2   - H6       CT -   CT - HC  
     4      3      5      1 ;    1.0966e+02    6.4258e+02 ;     C4 - C3   - O1       CT -   CT - OH  
     4      3     12      1 ;    1.0959e+02    3.6217e+02 ;     C4 - C3   - H7       CT -   CT - HC  
     4      3     13      1 ;    1.0959e+02    3.6217e+02 ;     C4 - C3   - H8       CT -   CT - HC  
     5      3     12      1 ;    1.1038e+02    4.7103e+02 ;     O1 - C3   - H7       OH -   CT - HC  
     5      3     13      1 ;    1.1038e+02    4.7103e+02 ;     O1 - C3   - H8       OH -   CT - HC  
     6      1      7      1 ;    1.0773e+02    2.9957e+02 ;     H1 - C1   - H2       HC -   CT - HC  
     6      1      8      1 ;    1.0773e+02    2.9957e+02 ;     H1 - C1   - H3       HC -   CT - HC  
     7      1      8      1 ;    1.0773e+02    2.9957e+02 ;     H2 - C1   - H3       HC -   CT - HC  
     9      2     10      1 ;    1.0773e+02    2.9957e+02 ;     H4 - C2   - H5       HC -   CT - HC  
     9      2     11      1 ;    1.0773e+02    2.9957e+02 ;     H4 - C2   - H6       HC -   CT - HC  
    10      2     11      1 ;    1.0773e+02    2.9957e+02 ;     H5 - C2   - H6       HC -   CT - HC  
    12      3     13      1 ;    1.0855e+02    2.9824e+02 ;     H7 - C3   - H8       HC -   CT - HC  

[ dihedrals ] ; propers
; for gromacs 4.5 or higher, using funct 9
;    i      j      k      l   func   phase     kd      pn
     1      4      2      9      9 ;     0.00   0.54392   3 ;     C1-    C4-    C2-    H4
     1      4      2     10      9 ;     0.00   0.54392   3 ;     C1-    C4-    C2-    H5
     1      4      2     11      9 ;     0.00   0.54392   3 ;     C1-    C4-    C2-    H6
     1      4      3      5      9 ;     0.00   0.75312   3 ;     C1-    C4-    C3-    O1
     1      4      3     12      9 ;     0.00   0.65084   3 ;     C1-    C4-    C3-    H7
     1      4      3     13      9 ;     0.00   0.65084   3 ;     C1-    C4-    C3-    H8
     2      4      3      5      9 ;     0.00   0.75312   3 ;     C2-    C4-    C3-    O1
     2      4      3     12      9 ;     0.00   0.65084   3 ;     C2-    C4-    C3-    H7
     2      4      3     13      9 ;     0.00   0.65084   3 ;     C2-    C4-    C3-    H8
     3      4      2      9      9 ;     0.00   0.54392   3 ;     C3-    C4-    C2-    H4
     3      4      2     10      9 ;     0.00   0.54392   3 ;     C3-    C4-    C2-    H5
     3      4      2     11      9 ;     0.00   0.54392   3 ;     C3-    C4-    C2-    H6
     4      3      5     15      9 ;     0.00   0.25104   3 ;     C4-    C3-    O1-   H10
     5      3      4     14      9 ;     0.00   0.37656   3 ;     O1-    C3-    C4-    H9
     6      1      4      2      9 ;     0.00   0.54392   3 ;     H1-    C1-    C4-    C2
     6      1      4      3      9 ;     0.00   0.54392   3 ;     H1-    C1-    C4-    C3
     6      1      4     14      9 ;     0.00   0.50208   3 ;     H1-    C1-    C4-    H9
     7      1      4      2      9 ;     0.00   0.54392   3 ;     H2-    C1-    C4-    C2
     7      1      4      3      9 ;     0.00   0.54392   3 ;     H2-    C1-    C4-    C3
     7      1      4     14      9 ;     0.00   0.50208   3 ;     H2-    C1-    C4-    H9
     8      1      4      2      9 ;     0.00   0.54392   3 ;     H3-    C1-    C4-    C2
     8      1      4      3      9 ;     0.00   0.54392   3 ;     H3-    C1-    C4-    C3
     8      1      4     14      9 ;     0.00   0.50208   3 ;     H3-    C1-    C4-    H9
     9      2      4     14      9 ;     0.00   0.50208   3 ;     H4-    C2-    C4-    H9
    10      2      4     14      9 ;     0.00   0.50208   3 ;     H5-    C2-    C4-    H9
    11      2      4     14      9 ;     0.00   0.50208   3 ;     H6-    C2-    C4-    H9
    12      3      4     14      9 ;     0.00   0.65084   3 ;     H7-    C3-    C4-    H9
    12      3      5     15      9 ;     0.00   0.51463   3 ;     H7-    C3-    O1-   H10
    13      3      4     14      9 ;     0.00   0.65084   3 ;     H8-    C3-    C4-    H9
    13      3      5     15      9 ;     0.00   0.51463   3 ;     H8-    C3-    O1-   H10
