2_methylpropan_1_ol
    15
   0.9980000  -0.3580000  -0.2740000   1.1580000   1.1800000  -2.2510000
   1.9990000   1.9490000  -0.0130000   1.8180000   0.7470000  -0.9440000
   2.6930000   1.5520000   1.1620000   0.8770000  -1.2130000  -0.9480000
   0.0000000  -0.0000000   0.0000000   1.4900000  -0.7200000   0.6340000
   1.0540000   0.3300000  -2.9340000   1.7590000   1.9430000  -2.7570000
   0.1600000   1.5970000  -2.0740000   2.5870000   2.7310000  -0.5050000
   1.0320000   2.3720000   0.2790000   2.8080000   0.3290000  -1.1710000
   3.4100000   2.1930000   1.2940000
