mobley_2126135_GMX.gro created by acpype (v: 2023.10.27) on Thu May 21 00:01:20 2026
   19
    1MOL     C1    1   2.468   2.320   2.151
    1MOL     C2    2   2.560   2.254   2.234
    1MOL     C3    3   2.363   2.393   2.208
    1MOL     C4    4   2.547   2.262   2.372
    1MOL     C5    5   2.351   2.401   2.347
    1MOL     C6    6   2.443   2.336   2.429
    1MOL     C7    7   2.126   2.391   2.457
    1MOL     C8    8   2.238   2.480   2.405
    1MOL     O1    9   2.432   2.342   2.565
    1MOL     H1   10   2.477   2.314   2.043
    1MOL     H2   11   2.641   2.197   2.189
    1MOL     H3   12   2.292   2.443   2.143
    1MOL     H4   13   2.619   2.211   2.436
    1MOL     H5   14   2.087   2.326   2.377
    1MOL     H6   15   2.043   2.451   2.495
    1MOL     H7   16   2.161   2.326   2.538
    1MOL     H8   17   2.275   2.543   2.488
    1MOL     H9   18   2.198   2.550   2.331
    1MOL    H10   19   2.503   2.291   2.606
   4.71816   4.71816   4.71816
