mobley_5263791_GMX.gro created by acpype (v: 2023.10.27) on Thu May 21 00:04:44 2026
10569
    1MOL     C1    1   2.070   2.448   2.401
    1MOL     C2    2   2.161   2.551   2.380
    1MOL     C3    3   2.431   2.123   2.368
    1MOL     C4    4   2.114   2.315   2.403
    1MOL     C5    5   2.296   2.522   2.361
    1MOL     C6    6   2.296   2.152   2.387
    1MOL     C7    7   2.522   2.226   2.347
    1MOL     C8    8   2.250   2.285   2.385
    1MOL     C9    9   2.342   2.389   2.363
    1MOL    C10   10   2.478   2.358   2.345
    1MOL    C11   11   2.642   2.515   2.452
    1MOL    C12   12   2.581   2.465   2.322
    1MOL     H1   13   1.965   2.470   2.415
    1MOL     H2   14   2.127   2.654   2.378
    1MOL     H3   15   2.465   2.020   2.370
    1MOL     H4   16   2.041   2.236   2.420
    1MOL     H5   17   2.364   2.605   2.345
    1MOL     H6   18   2.226   2.069   2.403
    1MOL     H7   19   2.627   2.202   2.333
    1MOL     H8   20   2.565   2.558   2.517
    1MOL     H9   21   2.717   2.592   2.432
    1MOL    H10   22   2.691   2.433   2.507
    1MOL    H11   23   2.661   2.426   2.257
    1MOL    H12   24   2.537   2.549   2.267
    2SOL     OW   25   0.230   0.628   0.113
    2SOL    HW1   26   0.137   0.626   0.150
    2SOL    HW2   27   0.231   0.589   0.021
    3SOL     OW   28   0.225   0.275   0.996
    3SOL    HW1   29   0.260   0.258   1.088
    3SOL    HW2   30   0.137   0.230   0.984
    4SOL     OW   31   0.019   0.368   0.647
    4SOL    HW1   32  -0.063   0.411   0.686
    4SOL    HW2   33  -0.009   0.295   0.584
    5SOL     OW   34   0.569   1.275   1.165
    5SOL    HW1   35   0.476   1.268   1.128
    5SOL    HW2   36   0.580   1.364   1.209
    6SOL     OW   37   1.555   1.511   0.703
    6SOL    HW1   38   1.498   1.495   0.784
    6SOL    HW2   39   1.496   1.521   0.623
    7SOL     OW   40   1.135   0.703   0.717
    7SOL    HW1   41   1.192   0.781   0.692
    7SOL    HW2   42   1.075   0.729   0.793
    8SOL     OW   43   1.755   0.607   0.231
    8SOL    HW1   44   1.743   0.594   0.132
    8SOL    HW2   45   1.725   0.526   0.280
    9SOL     OW   46   0.768   1.144   1.023
    9SOL    HW1   47   0.690   1.161   1.083
    9SOL    HW2   48   0.802   1.231   0.987
   10SOL     OW   49   0.850   0.798   1.823
   10SOL    HW1   50   0.846   0.874   1.888
   10SOL    HW2   51   0.872   0.834   1.732
   11SOL     OW   52   0.685   1.012   0.665
   11SOL    HW1   53   0.754   0.996   0.735
   11SOL    HW2   54   0.612   1.069   0.703
   12SOL     OW   55   0.686   1.161   1.803
   12SOL    HW1   56   0.746   1.240   1.817
   12SOL    HW2   57   0.600   1.192   1.762
   13SOL     OW   58   0.335   1.435   1.061
   13SOL    HW1   59   0.257   1.404   1.008
   13SOL    HW2   60   0.393   1.493   1.004
   14SOL     OW   61   1.460   1.505   1.339
   14SOL    HW1   62   1.484   1.599   1.365
   14SOL    HW2   63   1.444   1.451   1.421
   15SOL     OW   64   0.438   0.392   1.499
   15SOL    HW1   65   0.520   0.336   1.508
   15SOL    HW2   66   0.357   0.334   1.503
   16SOL     OW   67   1.603   0.447   0.737
   16SOL    HW1   68   1.529   0.493   0.687
   16SOL    HW2   69   1.654   0.515   0.790
   17SOL     OW   70   0.231   1.713   0.483
   17SOL    HW1   71   0.265   1.790   0.537
   17SOL    HW2   72   0.275   1.713   0.393
   18SOL     OW   73   1.127   1.341   1.690
   18SOL    HW1   74   1.174   1.341   1.778
   18SOL    HW2   75   1.079   1.254   1.679
   19SOL     OW   76   0.230   1.434   0.538
   19SOL    HW1   77   0.204   1.530   0.538
   19SOL    HW2   78   0.159   1.380   0.583
   20SOL     OW   79   0.240   1.091   0.886
   20SOL    HW1   80   0.254   1.007   0.938
   20SOL    HW2   81   0.185   1.155   0.941
   21SOL     OW   82   0.620   1.786   1.439
   21SOL    HW1   83   0.528   1.769   1.474
   21SOL    HW2   84   0.648   1.878   1.465
   22SOL     OW   85   0.606   0.964   0.123
   22SOL    HW1   86   0.613   1.048   0.069
   22SOL    HW2   87   0.652   0.977   0.211
   23SOL     OW   88   1.594   0.114   1.480
   23SOL    HW1   89   1.576   0.181   1.408
   23SOL    HW2   90   1.591   0.160   1.569
   24SOL     OW   91   0.122   0.643   0.563
   24SOL    HW1   92   0.077   0.555   0.580
   24SOL    HW2   93   0.121   0.697   0.647
   25SOL     OW   94   1.842   1.767   0.359
   25SOL    HW1   95   1.896   1.738   0.439
   25SOL    HW2   96   1.872   1.857   0.330
   26SOL     OW   97   0.027   1.596   0.117
   26SOL    HW1   98   0.008   1.500   0.138
   26SOL    HW2   99  -0.006   1.654   0.192
   27SOL     OW  100   1.689   0.922   0.612
   27SOL    HW1  101   1.784   0.893   0.620
   27SOL    HW2  102   1.681   0.987   0.537
   28SOL     OW  103   1.641   1.108   0.432
   28SOL    HW1  104   1.727   1.110   0.380
   28SOL    HW2  105   1.655   1.155   0.520
   29SOL     OW  106   0.113   0.737   1.597
   29SOL    HW1  107   0.201   0.724   1.642
   29SOL    HW2  108   0.100   0.834   1.575
   30SOL     OW  109   0.613   1.365   0.726
   30SOL    HW1  110   0.564   1.278   0.735
   30SOL    HW2  111   0.590   1.408   0.639
   31SOL     OW  112   1.293   1.228   1.423
   31SOL    HW1  113   1.330   1.155   1.365
   31SOL    HW2  114   1.345   1.233   1.508
   32SOL     OW  115   0.809   0.004   0.502
   32SOL    HW1  116   0.849   0.095   0.493
   32SOL    HW2  117   0.709   0.012   0.508
   33SOL     OW  118   0.197   0.976   1.264
   33SOL    HW1  119   0.286   0.931   1.250
   33SOL    HW2  120   0.124   0.911   1.245
   34SOL     OW  121   1.525   0.999   0.190
   34SOL    HW1  122   1.462   0.923   0.203
   34SOL    HW2  123   1.573   1.017   0.276
   35SOL     OW  124   1.187   1.792   1.616
   35SOL    HW1  125   1.211   1.852   1.540
   35SOL    HW2  126   1.194   1.697   1.586
   36SOL     OW  127   0.317   0.251   1.801
   36SOL    HW1  128   0.388   0.322   1.807
   36SOL    HW2  129   0.229   0.290   1.829
   37SOL     OW  130   1.466   1.417   0.953
   37SOL    HW1  131   1.407   1.423   1.033
   37SOL    HW2  132   1.451   1.329   0.907
   38SOL     OW  133   1.667   1.714   0.572
   38SOL    HW1  134   1.626   1.691   0.484
   38SOL    HW2  135   1.649   1.640   0.637
   39SOL     OW  136   0.598   0.729   0.270
   39SOL    HW1  137   0.622   0.798   0.202
   39SOL    HW2  138   0.520   0.762   0.324
   40SOL     OW  139   1.281   0.345   0.944
   40SOL    HW1  140   1.195   0.295   0.931
   40SOL    HW2  141   1.343   0.291   1.000
   41SOL     OW  142   1.576   1.662   0.307
   41SOL    HW1  143   1.665   1.708   0.310
   41SOL    HW2  144   1.555   1.638   0.212
   42SOL     OW  145   0.807   0.605   1.465
   42SOL    HW1  146   0.760   0.602   1.554
   42SOL    HW2  147   0.756   0.550   1.399
   43SOL     OW  148   1.394   0.469   1.674
   43SOL    HW1  149   1.374   0.512   1.762
   43SOL    HW2  150   1.472   0.407   1.683
   44SOL     OW  151   0.973   0.890   1.572
   44SOL    HW1  152   1.019   0.806   1.543
   44SOL    HW2  153   0.917   0.924   1.497
   45SOL     OW  154   0.991   0.410   1.242
   45SOL    HW1  155   0.914   0.444   1.296
   45SOL    HW2  156   0.957   0.359   1.163
   46SOL     OW  157   1.041   0.701   0.429
   46SOL    HW1  158   1.067   0.697   0.525
   46SOL    HW2  159   0.956   0.650   0.415
   47SOL     OW  160   0.076   0.811   0.789
   47SOL    HW1  161   0.175   0.799   0.798
   47SOL    HW2  162   0.052   0.906   0.810
   48SOL     OW  163   0.130   1.821   1.571
   48SOL    HW1  164   0.120   1.806   1.670
   48SOL    HW2  165   0.044   1.857   1.535
   49SOL     OW  166   0.865   0.348   0.195
   49SOL    HW1  167   0.924   0.411   0.146
   49SOL    HW2  168   0.884   0.254   0.166
   50SOL     OW  169   1.719   0.585   1.831
   50SOL    HW1  170   1.693   0.674   1.795
   50SOL    HW2  171   1.717   0.517   1.758
   51SOL     OW  172   1.362   1.144   0.545
   51SOL    HW1  173   1.445   1.115   0.497
   51SOL    HW2  174   1.313   1.211   0.489
   52SOL     OW  175   0.550   0.196   0.885
   52SOL    HW1  176   0.545   0.191   0.985
   52SOL    HW2  177   0.552   0.292   0.856
   53SOL     OW  178   1.008   1.456   0.477
   53SOL    HW1  179   0.962   1.528   0.425
   53SOL    HW2  180   1.004   1.476   0.575
   54SOL     OW  181   0.351   1.801   0.853
   54SOL    HW1  182   0.401   1.715   0.859
   54SOL    HW2  183   0.416   1.878   0.850
   55SOL     OW  184   1.795   1.066   0.873
   55SOL    HW1  185   1.733   1.051   0.797
   55SOL    HW2  186   1.743   1.077   0.958
   56SOL     OW  187   1.227   1.550   1.506
   56SOL    HW1  188   1.233   1.473   1.570
   56SOL    HW2  189   1.175   1.524   1.426
   57SOL     OW  190   0.321   0.943   0.242
   57SOL    HW1  191   0.403   0.982   0.200
   57SOL    HW2  192   0.294   0.861   0.193
   58SOL     OW  193   1.458   0.735   0.728
   58SOL    HW1  194   1.453   0.670   0.803
   58SOL    HW2  195   1.538   0.794   0.741
   59SOL     OW  196   0.461   1.266   1.727
   59SOL    HW1  197   0.411   1.267   1.641
   59SOL    HW2  198   0.398   1.248   1.803
   60SOL     OW  199   1.111   1.776   0.237
   60SOL    HW1  200   1.051   1.714   0.287
   60SOL    HW2  201   1.142   1.732   0.152
   61SOL     OW  202   0.202   0.285   1.498
   61SOL    HW1  203   0.122   0.345   1.485
   61SOL    HW2  204   0.192   0.236   1.584
   62SOL     OW  205   1.632   1.377   0.081
   62SOL    HW1  206   1.600   1.471   0.071
   62SOL    HW2  207   1.556   1.314   0.069
   63SOL     OW  208   0.464   1.743   0.323
   63SOL    HW1  209   0.497   1.782   0.409
   63SOL    HW2  210   0.540   1.736   0.258
   64SOL     OW  211   1.400   0.107   0.426
   64SOL    HW1  212   1.376   0.070   0.336
   64SOL    HW2  213   1.499   0.123   0.430
   65SOL     OW  214   0.249   1.785   1.241
   65SOL    HW1  215   0.306   1.720   1.291
   65SOL    HW2  216   0.233   1.752   1.148
   66SOL     OW  217   0.940   1.698   0.904
   66SOL    HW1  218   1.020   1.641   0.925
   66SOL    HW2  219   0.891   1.658   0.827
   67SOL     OW  220   0.382   0.700   0.480
   67SOL    HW1  221   0.427   0.610   0.477
   67SOL    HW2  222   0.288   0.689   0.513
   68SOL     OW  223   1.547   0.222   1.729
   68SOL    HW1  224   1.542   0.259   1.821
   68SOL    HW2  225   1.475   0.153   1.717
   69SOL     OW  226   0.614   0.122   0.117
   69SOL    HW1  227   0.712   0.100   0.124
   69SOL    HW2  228   0.583   0.105   0.024
   70SOL     OW  229   0.781   0.264   1.749
   70SOL    HW1  230   0.848   0.203   1.792
   70SOL    HW2  231   0.708   0.283   1.814
   71SOL     OW  232   0.888   1.514   1.195
   71SOL    HW1  233   0.865   1.489   1.101
   71SOL    HW2  234   0.949   1.445   1.234
   72SOL     OW  235   1.351   0.590   1.433
   72SOL    HW1  236   1.379   0.547   1.518
   72SOL    HW2  237   1.376   0.686   1.434
   73SOL     OW  238   0.803   1.402   0.924
   73SOL    HW1  239   0.893   1.416   0.882
   73SOL    HW2  240   0.732   1.404   0.853
   74SOL     OW  241   0.922   0.503   0.899
   74SOL    HW1  242   0.897   0.494   0.803
   74SOL    HW2  243   0.970   0.421   0.930
   75SOL     OW  244   0.539   0.064   0.512
   75SOL    HW1  245   0.458   0.065   0.570
   75SOL    HW2  246   0.542   0.147   0.457
   76SOL     OW  247   1.434   1.188   0.041
   76SOL    HW1  248   1.466   1.112   0.098
   76SOL    HW2  249   1.342   1.215   0.071
   77SOL     OW  250   0.297   0.035   0.171
   77SOL    HW1  251   0.346   0.119   0.150
   77SOL    HW2  252   0.359  -0.030   0.216
   78SOL     OW  253   0.935   0.236   0.480
   78SOL    HW1  254   0.887   0.277   0.402
   78SOL    HW2  255   1.034   0.234   0.461
   79SOL     OW  256   1.076   0.683   1.464
   79SOL    HW1  257   0.996   0.622   1.467
   79SOL    HW2  258   1.157   0.630   1.440
   80SOL     OW  259   1.227   1.570   0.793
   80SOL    HW1  260   1.248   1.644   0.728
   80SOL    HW2  261   1.295   1.570   0.866
   81SOL     OW  262   0.459   1.152   0.741
   81SOL    HW1  263   0.388   1.125   0.806
   81SOL    HW2  264   0.433   1.124   0.648
   82SOL     OW  265   1.271   1.797   0.591
   82SOL    HW1  266   1.315   1.861   0.527
   82SOL    HW2  267   1.221   1.849   0.661
   83SOL     OW  268   1.032   0.549   0.016
   83SOL    HW1  269   0.991   0.631  -0.023
   83SOL    HW2  270   1.096   0.575   0.089
   84SOL     OW  271   0.078   0.556   1.386
   84SOL    HW1  272   0.170   0.555   1.345
   84SOL    HW2  273   0.072   0.630   1.453
   85SOL     OW  274   0.561   0.222   1.147
   85SOL    HW1  275   0.599   0.138   1.184
   85SOL    HW2  276   0.473   0.241   1.191
   86SOL     OW  277   0.866   0.454   0.642
   86SOL    HW1  278   0.834   0.526   0.580
   86SOL    HW2  279   0.890   0.373   0.589
   87SOL     OW  280   1.017   0.039   0.753
   87SOL    HW1  281   0.945   0.044   0.684
   87SOL    HW2  282   0.993  -0.030   0.822
   88SOL     OW  283   1.429   1.173   0.867
   88SOL    HW1  284   1.374   1.089   0.860
   88SOL    HW2  285   1.455   1.202   0.775
   89SOL     OW  286   1.466   0.590   0.992
   89SOL    HW1  287   1.436   0.495   0.999
   89SOL    HW2  288   1.539   0.606   1.058
   90SOL     OW  289   1.857   0.833   0.377
   90SOL    HW1  290   1.899   0.769   0.441
   90SOL    HW2  291   1.819   0.782   0.299
   91SOL     OW  292   0.488   1.385   0.174
   91SOL    HW1  293   0.401   1.370   0.221
   91SOL    HW2  294   0.471   1.411   0.079
   92SOL     OW  295   1.664   1.280   0.657
   92SOL    HW1  296   1.763   1.288   0.671
   92SOL    HW2  297   1.619   1.364   0.688
   93SOL     OW  298   1.390   0.575   0.078
   93SOL    HW1  299   1.336   0.554   0.159
   93SOL    HW2  300   1.481   0.534   0.087
   94SOL     OW  301   0.527   0.256   0.328
   94SOL    HW1  302   0.554   0.197   0.253
   94SOL    HW2  303   0.527   0.351   0.297
   95SOL     OW  304   1.754   1.223   1.588
   95SOL    HW1  305   1.845   1.184   1.575
   95SOL    HW2  306   1.762   1.319   1.612
   96SOL     OW  307   1.064   1.347   1.340
   96SOL    HW1  308   0.984   1.324   1.395
   96SOL    HW2  309   1.147   1.321   1.389
   97SOL     OW  310   1.592   1.629   1.625
   97SOL    HW1  311   1.619   1.663   1.535
   97SOL    HW2  312   1.671   1.591   1.671
   98SOL     OW  313   1.111   1.195   1.100
   98SOL    HW1  314   1.071   1.239   1.181
   98SOL    HW2  315   1.070   1.232   1.017
   99SOL     OW  316   1.638   1.099   1.079
   99SOL    HW1  317   1.643   1.180   1.138
   99SOL    HW2  318   1.552   1.101   1.028
  100SOL     OW  319   0.915   0.089   1.402
  100SOL    HW1  320   0.940   0.069   1.307
  100SOL    HW2  321   0.987   0.145   1.444
  101SOL     OW  322   0.980   1.116   1.719
  101SOL    HW1  323   0.881   1.122   1.729
  101SOL    HW2  324   1.003   1.036   1.663
  102SOL     OW  325   0.705   1.050   0.368
  102SOL    HW1  326   0.691   1.057   0.467
  102SOL    HW2  327   0.789   0.999   0.350
  103SOL     OW  328   0.410   0.813   1.251
  103SOL    HW1  329   0.496   0.825   1.301
  103SOL    HW2  330   0.368   0.726   1.278
  104SOL     OW  331   1.274   0.386   1.262
  104SOL    HW1  332   1.295   0.460   1.326
  104SOL    HW2  333   1.185   0.403   1.219
  105SOL     OW  334   0.064   1.564   1.331
  105SOL    HW1  335   0.018   1.646   1.297
  105SOL    HW2  336   0.162   1.583   1.340
  106SOL     OW  337   0.367   1.100   0.501
  106SOL    HW1  338   0.360   1.183   0.445
  106SOL    HW2  339   0.371   1.020   0.441
  107SOL     OW  340   0.566   0.537   0.865
  107SOL    HW1  341   0.578   0.603   0.791
  107SOL    HW2  342   0.612   0.571   0.948
  108SOL     OW  343   1.252   1.348   0.388
  108SOL    HW1  344   1.302   1.425   0.428
  108SOL    HW2  345   1.157   1.350   0.420
  109SOL     OW  346   1.272   1.445   1.142
  109SOL    HW1  347   1.319   1.458   1.229
  109SOL    HW2  348   1.206   1.371   1.151
  110SOL     OW  349   1.582   0.639   0.472
  110SOL    HW1  350   1.551   0.700   0.545
  110SOL    HW2  351   1.632   0.691   0.403
  111SOL     OW  352   0.354   1.510   1.329
  111SOL    HW1  353   0.333   1.466   1.242
  111SOL    HW2  354   0.451   1.536   1.332
  112SOL     OW  355   0.402   0.751   1.598
  112SOL    HW1  356   0.470   0.806   1.551
  112SOL    HW2  357   0.442   0.663   1.625
  113SOL     OW  358   1.587   0.779   1.670
  113SOL    HW1  359   1.495   0.817   1.665
  113SOL    HW2  360   1.647   0.826   1.605
  114SOL     OW  361   1.013   0.105   1.770
  114SOL    HW1  362   1.019   0.190   1.718
  114SOL    HW2  363   1.045   0.029   1.713
  115SOL     OW  364   0.504   0.050   1.740
  115SOL    HW1  365   0.462  -0.007   1.670
  115SOL    HW2  366   0.438   0.119   1.772
  116SOL     OW  367   0.573   0.870   1.029
  116SOL    HW1  368   0.617   0.959   1.020
  116SOL    HW2  369   0.510   0.870   1.106
  117SOL     OW  370   1.360   0.862   1.045
  117SOL    HW1  371   1.285   0.862   0.979
  117SOL    HW2  372   1.397   0.770   1.054
  118SOL     OW  373   1.209   0.525   0.275
  118SOL    HW1  374   1.222   0.441   0.329
  118SOL    HW2  375   1.180   0.599   0.335
  119SOL     OW  376   0.307   0.213   1.231
  119SOL    HW1  377   0.284   0.250   1.321
  119SOL    HW2  378   0.277   0.118   1.225
  120SOL     OW  379   0.037   1.310   1.282
  120SOL    HW1  380   0.090   1.261   1.350
  120SOL    HW2  381   0.059   1.408   1.287
  121SOL     OW  382   0.732   0.634   1.064
  121SOL    HW1  383   0.791   0.608   0.988
  121SOL    HW2  384   0.704   0.730   1.053
  122SOL     OW  385   1.728   0.935   1.854
  122SOL    HW1  386   1.682   0.928   1.765
  122SOL    HW2  387   1.666   0.979   1.920
  123SOL     OW  388   0.307   0.063   0.618
  123SOL    HW1  389   0.296   0.157   0.651
  123SOL    HW2  390   0.302   0.000   0.695
  124SOL     OW  391   1.622   0.367   0.374
  124SOL    HW1  392   1.624   0.291   0.438
  124SOL    HW2  393   1.574   0.444   0.414
  125SOL     OW  394   1.023   0.766   0.966
  125SOL    HW1  395   1.038   0.787   1.062
  125SOL    HW2  396   0.993   0.671   0.957
  126SOL     OW  397   0.980   1.573   1.700
  126SOL    HW1  398   0.960   1.617   1.612
  126SOL    HW2  399   1.019   1.482   1.684
  127SOL     OW  400   1.859   1.518   1.605
  127SOL    HW1  401   1.873   1.545   1.510
  127SOL    HW2  402   1.942   1.540   1.658
  128SOL     OW  403   0.350   0.898   1.804
  128SOL    HW1  404   0.426   0.942   1.852
  128SOL    HW2  405   0.385   0.851   1.722
  129SOL     OW  406   1.540   0.274   0.125
  129SOL    HW1  407   1.479   0.199   0.148
  129SOL    HW2  408   1.562   0.326   0.208
  130SOL     OW  409   1.303   0.838   0.042
  130SOL    HW1  410   1.337   0.745   0.057
  130SOL    HW2  411   1.321   0.865  -0.053
  131SOL     OW  412   1.068   1.333   0.849
  131SOL    HW1  413   1.075   1.249   0.794
  131SOL    HW2  414   1.130   1.402   0.813
  132SOL     OW  415   0.319   0.810   0.949
  132SOL    HW1  416   0.412   0.846   0.954
  132SOL    HW2  417   0.313   0.725   1.001
  133SOL     OW  418   0.339   0.509   1.006
  133SOL    HW1  419   0.287   0.426   0.989
  133SOL    HW2  420   0.416   0.514   0.942
  134SOL     OW  421   1.138   0.380   1.678
  134SOL    HW1  422   1.093   0.443   1.742
  134SOL    HW2  423   1.231   0.411   1.661
  135SOL     OW  424   1.160   0.207   1.477
  135SOL    HW1  425   1.160   0.271   1.554
  135SOL    HW2  426   1.188   0.255   1.394
  136SOL     OW  427   0.008   1.326   0.200
  136SOL    HW1  428  -0.085   1.347   0.169
  136SOL    HW2  429   0.018   1.227   0.213
  137SOL     OW  430   0.088   1.801   0.927
  137SOL    HW1  431   0.046   1.715   0.900
  137SOL    HW2  432   0.182   1.804   0.893
  138SOL     OW  433   0.504   1.568   0.910
  138SOL    HW1  434   0.570   1.642   0.919
  138SOL    HW2  435   0.548   1.489   0.868
  139SOL     OW  436   1.002   0.796   1.238
  139SOL    HW1  437   1.043   0.764   1.324
  139SOL    HW2  438   0.906   0.769   1.235
  140SOL     OW  439   0.040   0.544   1.114
  140SOL    HW1  440   0.125   0.511   1.073
  140SOL    HW2  441   0.053   0.559   1.212
  141SOL     OW  442   0.189   0.520   1.722
  141SOL    HW1  443   0.248   0.480   1.652
  141SOL    HW2  444   0.131   0.591   1.681
  142SOL     OW  445   1.369   0.950   1.660
  142SOL    HW1  446   1.408   1.039   1.680
  142SOL    HW2  447   1.379   0.930   1.563
  143SOL     OW  448   0.815   0.572   0.325
  143SOL    HW1  449   0.822   0.483   0.279
  143SOL    HW2  450   0.721   0.606   0.317
  144SOL     OW  451   1.657   0.604   1.206
  144SOL    HW1  452   1.619   0.535   1.268
  144SOL    HW2  453   1.739   0.568   1.162
  145SOL     OW  454   0.252   1.564   1.744
  145SOL    HW1  455   0.222   1.621   1.820
  145SOL    HW2  456   0.245   1.467   1.770
  146SOL     OW  457   0.671   0.464   1.269
  146SOL    HW1  458   0.637   0.375   1.239
  146SOL    HW2  459   0.697   0.518   1.189
  147SOL     OW  460   0.930   1.678   1.465
  147SOL    HW1  461   0.906   1.660   1.370
  147SOL    HW2  462   0.960   1.772   1.475
  148SOL     OW  463   0.473   0.500   0.191
  148SOL    HW1  464   0.534   0.580   0.195
  148SOL    HW2  465   0.378   0.531   0.198
  149SOL     OW  466   0.159   1.137   1.466
  149SOL    HW1  467   0.181   1.076   1.542
  149SOL    HW2  468   0.169   1.088   1.380
  150SOL     OW  469   1.347   1.059   1.234
  150SOL    HW1  470   1.371   0.996   1.160
  150SOL    HW2  471   1.257   1.099   1.216
  151SOL     OW  472   1.302   0.855   0.309
  151SOL    HW1  473   1.216   0.824   0.351
  151SOL    HW2  474   1.298   0.841   0.210
  152SOL     OW  475   1.759   1.747   1.154
  152SOL    HW1  476   1.820   1.777   1.081
  152SOL    HW2  477   1.721   1.658   1.132
  153SOL     OW  478   1.252   1.731   1.128
  153SOL    HW1  479   1.336   1.736   1.074
  153SOL    HW2  480   1.229   1.635   1.146
  154SOL     OW  481   0.083   1.258   1.022
  154SOL    HW1  482   0.078   1.257   1.122
  154SOL    HW2  483   0.000   1.217   0.984
  155SOL     OW  484   0.688   1.662   1.716
  155SOL    HW1  485   0.632   1.743   1.725
  155SOL    HW2  486   0.740   1.666   1.630
  156SOL     OW  487   0.903   0.086   0.133
  156SOL    HW1  488   0.954   0.087   0.047
  156SOL    HW2  489   0.959   0.044   0.204
  157SOL     OW  490   1.726   0.135   0.523
  157SOL    HW1  491   1.799   0.118   0.456
  157SOL    HW2  492   1.695   0.048   0.561
  158SOL     OW  493   1.388   1.573   0.477
  158SOL    HW1  494   1.455   1.585   0.403
  158SOL    HW2  495   1.348   1.662   0.500
  159SOL     OW  496   0.130   1.794   1.851
  159SOL    HW1  497   0.089   1.720   1.904
  159SOL    HW2  498   0.194   1.845   1.909
  160SOL     OW  499   1.280   0.927   0.672
  160SOL    HW1  500   1.340   0.846   0.674
  160SOL    HW2  501   1.320   0.996   0.612
  161SOL     OW  502   0.830   1.273   1.422
  161SOL    HW1  503   0.825   1.306   1.517
  161SOL    HW2  504   0.744   1.292   1.376
  162SOL     OW  505   0.672   1.616   0.154
  162SOL    HW1  506   0.681   1.626   0.055
  162SOL    HW2  507   0.632   1.527   0.175
  163SOL     OW  508   1.650   1.720   1.394
  163SOL    HW1  509   1.703   1.730   1.310
  163SOL    HW2  510   1.623   1.810   1.428
  164SOL     OW  511   1.841   0.175   0.963
  164SOL    HW1  512   1.880   0.090   0.927
  164SOL    HW2  513   1.743   0.177   0.944
  165SOL     OW  514   0.263   0.326   0.720
  165SOL    HW1  515   0.184   0.377   0.686
  165SOL    HW2  516   0.254   0.311   0.818
  166SOL     OW  517   1.194   1.612   0.031
  166SOL    HW1  518   1.200   1.519   0.068
  166SOL    HW2  519   1.135   1.612  -0.049
  167SOL     OW  520   0.822   1.002   1.372
  167SOL    HW1  521   0.862   1.001   1.280
  167SOL    HW2  522   0.832   1.094   1.412
  168SOL     OW  523   0.916   0.910   0.291
  168SOL    HW1  524   0.979   0.948   0.223
  168SOL    HW2  525   0.956   0.827   0.330
  169SOL     OW  526   1.504   1.607   0.044
  169SOL    HW1  527   1.412   1.644   0.051
  169SOL    HW2  528   1.542   1.627  -0.046
  170SOL     OW  529   0.372   1.288   1.490
  170SOL    HW1  530   0.359   1.381   1.456
  170SOL    HW2  531   0.288   1.236   1.477
  171SOL     OW  532   1.614   1.292   1.289
  171SOL    HW1  533   1.674   1.295   1.369
  171SOL    HW2  534   1.539   1.356   1.302
  172SOL     OW  535   1.039   1.098   0.696
  172SOL    HW1  536   0.969   1.051   0.750
  172SOL    HW2  537   1.098   1.030   0.653
  173SOL     OW  538   1.014   0.236   0.971
  173SOL    HW1  539   1.006   0.200   0.878
  173SOL    HW2  540   1.012   0.160   1.036
  174SOL     OW  541   0.590   1.487   0.491
  174SOL    HW1  542   0.632   1.429   0.421
  174SOL    HW2  543   0.546   1.566   0.447
  175SOL     OW  544   1.709   0.385   1.381
  175SOL    HW1  545   1.782   0.454   1.385
  175SOL    HW2  546   1.737   0.310   1.322
  176SOL     OW  547   0.255   1.348   0.290
  176SOL    HW1  548   0.159   1.349   0.263
  176SOL    HW2  549   0.267   1.401   0.374
  177SOL     OW  550   0.105   1.013   1.726
  177SOL    HW1  551   0.028   0.980   1.780
  177SOL    HW2  552   0.190   0.983   1.768
  178SOL     OW  553   0.672   0.203   1.489
  178SOL    HW1  554   0.762   0.187   1.449
  178SOL    HW2  555   0.680   0.208   1.588
  179SOL     OW  556   0.075   0.345   0.033
  179SOL    HW1  557  -0.017   0.317   0.004
  179SOL    HW2  558   0.106   0.422  -0.023
  180SOL     OW  559   1.440   0.856   1.398
  180SOL    HW1  560   1.383   0.908   1.335
  180SOL    HW2  561   1.536   0.868   1.374
  181SOL     OW  562   0.072   0.166   0.318
  181SOL    HW1  563   0.055   0.249   0.264
  181SOL    HW2  564   0.162   0.129   0.296
  182SOL     OW  565   1.183   1.335   0.119
  182SOL    HW1  566   1.084   1.324   0.121
  182SOL    HW2  567   1.217   1.350   0.212
  183SOL     OW  568   0.613   0.842   1.431
  183SOL    HW1  569   0.669   0.923   1.414
  183SOL    HW2  570   0.672   0.762   1.434
  184SOL     OW  571   1.493   1.767   0.959
  184SOL    HW1  572   1.526   1.831   0.890
  184SOL    HW2  573   1.559   1.761   1.034
  185SOL     OW  574   0.716   0.565   1.708
  185SOL    HW1  575   0.735   0.630   1.782
  185SOL    HW2  576   0.776   0.485   1.717
  186SOL     OW  577   1.450   1.220   1.633
  186SOL    HW1  578   1.441   1.210   1.732
  186SOL    HW2  579   1.546   1.213   1.607
  187SOL     OW  580   0.390   1.741   1.560
  187SOL    HW1  581   0.299   1.782   1.558
  187SOL    HW2  582   0.383   1.647   1.592
  188SOL     OW  583   1.674   0.883   1.254
  188SOL    HW1  584   1.647   0.794   1.217
  188SOL    HW2  585   1.675   0.951   1.181
  189SOL     OW  586   1.225   0.325   0.449
  189SOL    HW1  587   1.290   0.251   0.438
  189SOL    HW2  588   1.245   0.375   0.533
  190SOL     OW  589   0.594   0.745   0.652
  190SOL    HW1  590   0.644   0.830   0.633
  190SOL    HW2  591   0.506   0.747   0.604
  191SOL     OW  592   1.777   0.342   1.642
  191SOL    HW1  593   1.760   0.373   1.548
  191SOL    HW2  594   1.693   0.305   1.680
  192SOL     OW  595   1.730   0.934   1.517
  192SOL    HW1  596   1.768   1.025   1.532
  192SOL    HW2  597   1.722   0.917   1.418
  193SOL     OW  598   0.859   1.374   0.016
  193SOL    HW1  599   0.813   1.389   0.104
  193SOL    HW2  600   0.903   1.459  -0.014
  194SOL     OW  601   0.661   1.790   0.953
  194SOL    HW1  602   0.615   1.878   0.940
  194SOL    HW2  603   0.760   1.802   0.946
  195SOL     OW  604   0.859   0.956   0.861
  195SOL    HW1  605   0.913   0.887   0.909
  195SOL    HW2  606   0.827   1.025   0.927
  196SOL     OW  607   1.083   0.984   0.087
  196SOL    HW1  608   1.060   1.037   0.005
  196SOL    HW2  609   1.164   0.928   0.068
  197SOL     OW  610   1.861   1.569   0.851
  197SOL    HW1  611   1.790   1.557   0.781
  197SOL    HW2  612   1.862   1.490   0.911
  198SOL     OW  613   0.221   1.314   1.844
  198SOL    HW1  614   0.156   1.241   1.823
  198SOL    HW2  615   0.225   1.328   1.942
  199SOL     OW  616   0.079   1.240   0.653
  199SOL    HW1  617   0.078   1.193   0.741
  199SOL    HW2  618   0.161   1.212   0.602
  200SOL     OW  619   0.672   1.391   1.624
  200SOL    HW1  620   0.594   1.341   1.662
  200SOL    HW2  621   0.669   1.486   1.655
  201SOL     OW  622   1.824   0.192   1.227
  201SOL    HW1  623   1.820   0.102   1.271
  201SOL    HW2  624   1.827   0.181   1.128
  202SOL     OW  625   0.428   0.424   0.520
  202SOL    HW1  626   0.458   0.352   0.458
  202SOL    HW2  627   0.389   0.384   0.603
  203SOL     OW  628   1.705   1.487   1.104
  203SOL    HW1  629   1.612   1.462   1.077
  203SOL    HW2  630   1.731   1.437   1.186
  204SOL     OW  631   0.317   0.547   1.280
  204SOL    HW1  632   0.355   0.488   1.352
  204SOL    HW2  633   0.357   0.521   1.192
  205SOL     OW  634   0.812   1.586   0.687
  205SOL    HW1  635   0.844   1.596   0.593
  205SOL    HW2  636   0.733   1.524   0.689
  206SOL     OW  637   1.424   0.214   1.112
  206SOL    HW1  638   1.476   0.149   1.167
  206SOL    HW2  639   1.375   0.277   1.173
  207SOL     OW  640   1.001   0.034   1.154
  207SOL    HW1  641   0.938  -0.038   1.123
  207SOL    HW2  642   1.094  -0.002   1.154
  208SOL     OW  643   0.770   1.330   0.301
  208SOL    HW1  644   0.724   1.243   0.318
  208SOL    HW2  645   0.861   1.327   0.342
  209SOL     OW  646   0.618   1.567   1.284
  209SOL    HW1  647   0.613   1.649   1.341
  209SOL    HW2  648   0.707   1.564   1.239
  210SOL     OW  649   1.352   0.052   0.168
  210SOL    HW1  650   1.387   0.011   0.084
  210SOL    HW2  651   1.262   0.014   0.188
  211SOL     OW  652   1.300   0.453   0.691
  211SOL    HW1  653   1.241   0.533   0.695
  211SOL    HW2  654   1.315   0.418   0.784
  212SOL     OW  655   1.593   0.221   0.882
  212SOL    HW1  656   1.509   0.220   0.936
  212SOL    HW2  657   1.595   0.304   0.826
  213SOL     OW  658   0.039   1.077   0.300
  213SOL    HW1  659   0.138   1.066   0.291
  213SOL    HW2  660  -0.001   0.991   0.332
  214SOL     OW  661   0.875   1.646   0.337
  214SOL    HW1  662   0.798   1.611   0.283
  214SOL    HW2  663   0.843   1.717   0.399
  215SOL     OW  664   0.230   0.628   1.975
  215SOL    HW1  665   0.137   0.626   2.012
  215SOL    HW2  666   0.231   0.589   1.883
  216SOL     OW  667   0.225   0.275   2.858
  216SOL    HW1  668   0.260   0.258   2.950
  216SOL    HW2  669   0.137   0.230   2.846
  217SOL     OW  670   0.019   0.368   2.509
  217SOL    HW1  671  -0.063   0.411   2.548
  217SOL    HW2  672  -0.009   0.295   2.446
  218SOL     OW  673   0.569   1.275   3.027
  218SOL    HW1  674   0.476   1.268   2.990
  218SOL    HW2  675   0.580   1.364   3.071
  219SOL     OW  676   1.555   1.511   2.565
  219SOL    HW1  677   1.498   1.495   2.646
  219SOL    HW2  678   1.496   1.521   2.485
  220SOL     OW  679   1.135   0.703   2.579
  220SOL    HW1  680   1.192   0.781   2.554
  220SOL    HW2  681   1.075   0.729   2.655
  221SOL     OW  682   1.755   0.607   2.093
  221SOL    HW1  683   1.743   0.594   1.994
  221SOL    HW2  684   1.725   0.526   2.142
  222SOL     OW  685   0.768   1.144   2.885
  222SOL    HW1  686   0.690   1.161   2.945
  222SOL    HW2  687   0.802   1.231   2.849
  223SOL     OW  688   0.850   0.798   3.685
  223SOL    HW1  689   0.846   0.874   3.750
  223SOL    HW2  690   0.872   0.834   3.594
  224SOL     OW  691   0.685   1.012   2.527
  224SOL    HW1  692   0.754   0.996   2.597
  224SOL    HW2  693   0.612   1.069   2.565
  225SOL     OW  694   0.686   1.161   3.665
  225SOL    HW1  695   0.746   1.240   3.679
  225SOL    HW2  696   0.600   1.192   3.624
  226SOL     OW  697   0.335   1.435   2.923
  226SOL    HW1  698   0.257   1.404   2.870
  226SOL    HW2  699   0.393   1.493   2.866
  227SOL     OW  700   1.460   1.505   3.201
  227SOL    HW1  701   1.484   1.599   3.227
  227SOL    HW2  702   1.444   1.451   3.283
  228SOL     OW  703   0.438   0.392   3.361
  228SOL    HW1  704   0.520   0.336   3.370
  228SOL    HW2  705   0.357   0.334   3.365
  229SOL     OW  706   1.603   0.447   2.599
  229SOL    HW1  707   1.529   0.493   2.549
  229SOL    HW2  708   1.654   0.515   2.652
  230SOL     OW  709   0.231   1.713   2.345
  230SOL    HW1  710   0.265   1.790   2.399
  230SOL    HW2  711   0.275   1.713   2.255
  231SOL     OW  712   1.127   1.341   3.552
  231SOL    HW1  713   1.174   1.341   3.640
  231SOL    HW2  714   1.079   1.254   3.541
  232SOL     OW  715   0.230   1.434   2.400
  232SOL    HW1  716   0.204   1.530   2.400
  232SOL    HW2  717   0.159   1.380   2.445
  233SOL     OW  718   0.240   1.091   2.748
  233SOL    HW1  719   0.254   1.007   2.800
  233SOL    HW2  720   0.185   1.155   2.803
  234SOL     OW  721   0.620   1.786   3.301
  234SOL    HW1  722   0.528   1.769   3.336
  234SOL    HW2  723   0.648   1.878   3.327
  235SOL     OW  724   0.606   0.964   1.985
  235SOL    HW1  725   0.613   1.048   1.931
  235SOL    HW2  726   0.652   0.977   2.073
  236SOL     OW  727   1.594   0.114   3.342
  236SOL    HW1  728   1.576   0.181   3.270
  236SOL    HW2  729   1.591   0.160   3.431
  237SOL     OW  730   0.122   0.643   2.425
  237SOL    HW1  731   0.077   0.555   2.442
  237SOL    HW2  732   0.121   0.697   2.509
  238SOL     OW  733   1.842   1.767   2.221
  238SOL    HW1  734   1.896   1.738   2.301
  238SOL    HW2  735   1.872   1.857   2.192
  239SOL     OW  736   0.027   1.596   1.979
  239SOL    HW1  737   0.008   1.500   2.000
  239SOL    HW2  738  -0.006   1.654   2.054
  240SOL     OW  739   1.689   0.922   2.474
  240SOL    HW1  740   1.784   0.893   2.482
  240SOL    HW2  741   1.681   0.987   2.399
  241SOL     OW  742   1.641   1.108   2.294
  241SOL    HW1  743   1.727   1.110   2.242
  241SOL    HW2  744   1.655   1.155   2.382
  242SOL     OW  745   0.113   0.737   3.459
  242SOL    HW1  746   0.201   0.724   3.504
  242SOL    HW2  747   0.100   0.834   3.437
  243SOL     OW  748   0.613   1.365   2.588
  243SOL    HW1  749   0.564   1.278   2.597
  243SOL    HW2  750   0.590   1.408   2.501
  244SOL     OW  751   1.293   1.228   3.285
  244SOL    HW1  752   1.330   1.155   3.227
  244SOL    HW2  753   1.345   1.233   3.370
  245SOL     OW  754   0.809   0.004   2.364
  245SOL    HW1  755   0.849   0.095   2.355
  245SOL    HW2  756   0.709   0.012   2.370
  246SOL     OW  757   0.197   0.976   3.126
  246SOL    HW1  758   0.286   0.931   3.112
  246SOL    HW2  759   0.124   0.911   3.107
  247SOL     OW  760   1.525   0.999   2.052
  247SOL    HW1  761   1.462   0.923   2.065
  247SOL    HW2  762   1.573   1.017   2.138
  248SOL     OW  763   1.187   1.792   3.478
  248SOL    HW1  764   1.211   1.852   3.402
  248SOL    HW2  765   1.194   1.697   3.448
  249SOL     OW  766   0.317   0.251   3.663
  249SOL    HW1  767   0.388   0.322   3.669
  249SOL    HW2  768   0.229   0.290   3.691
  250SOL     OW  769   1.466   1.417   2.815
  250SOL    HW1  770   1.407   1.423   2.895
  250SOL    HW2  771   1.451   1.329   2.769
  251SOL     OW  772   1.667   1.714   2.434
  251SOL    HW1  773   1.626   1.691   2.346
  251SOL    HW2  774   1.649   1.640   2.499
  252SOL     OW  775   0.598   0.729   2.132
  252SOL    HW1  776   0.622   0.798   2.064
  252SOL    HW2  777   0.520   0.762   2.186
  253SOL     OW  778   1.281   0.345   2.806
  253SOL    HW1  779   1.195   0.295   2.793
  253SOL    HW2  780   1.343   0.291   2.862
  254SOL     OW  781   1.576   1.662   2.169
  254SOL    HW1  782   1.665   1.708   2.172
  254SOL    HW2  783   1.555   1.638   2.074
  255SOL     OW  784   0.807   0.605   3.327
  255SOL    HW1  785   0.760   0.602   3.416
  255SOL    HW2  786   0.756   0.550   3.261
  256SOL     OW  787   1.394   0.469   3.536
  256SOL    HW1  788   1.374   0.512   3.624
  256SOL    HW2  789   1.472   0.407   3.545
  257SOL     OW  790   0.973   0.890   3.434
  257SOL    HW1  791   1.019   0.806   3.405
  257SOL    HW2  792   0.917   0.924   3.359
  258SOL     OW  793   0.991   0.410   3.104
  258SOL    HW1  794   0.914   0.444   3.158
  258SOL    HW2  795   0.957   0.359   3.025
  259SOL     OW  796   1.041   0.701   2.291
  259SOL    HW1  797   1.067   0.697   2.387
  259SOL    HW2  798   0.956   0.650   2.277
  260SOL     OW  799   0.076   0.811   2.651
  260SOL    HW1  800   0.175   0.799   2.660
  260SOL    HW2  801   0.052   0.906   2.672
  261SOL     OW  802   0.130   1.821   3.433
  261SOL    HW1  803   0.120   1.806   3.532
  261SOL    HW2  804   0.044   1.857   3.397
  262SOL     OW  805   0.865   0.348   2.057
  262SOL    HW1  806   0.924   0.411   2.008
  262SOL    HW2  807   0.884   0.254   2.028
  263SOL     OW  808   1.719   0.585   3.693
  263SOL    HW1  809   1.693   0.674   3.657
  263SOL    HW2  810   1.717   0.517   3.620
  264SOL     OW  811   1.362   1.144   2.407
  264SOL    HW1  812   1.445   1.115   2.359
  264SOL    HW2  813   1.313   1.211   2.351
  265SOL     OW  814   0.550   0.196   2.747
  265SOL    HW1  815   0.545   0.191   2.847
  265SOL    HW2  816   0.552   0.292   2.718
  266SOL     OW  817   1.008   1.456   2.339
  266SOL    HW1  818   0.962   1.528   2.287
  266SOL    HW2  819   1.004   1.476   2.437
  267SOL     OW  820   0.351   1.801   2.715
  267SOL    HW1  821   0.401   1.715   2.721
  267SOL    HW2  822   0.416   1.878   2.712
  268SOL     OW  823   1.795   1.066   2.735
  268SOL    HW1  824   1.733   1.051   2.659
  268SOL    HW2  825   1.743   1.077   2.820
  269SOL     OW  826   1.227   1.550   3.368
  269SOL    HW1  827   1.233   1.473   3.432
  269SOL    HW2  828   1.175   1.524   3.288
  270SOL     OW  829   0.321   0.943   2.104
  270SOL    HW1  830   0.403   0.982   2.062
  270SOL    HW2  831   0.294   0.861   2.055
  271SOL     OW  832   1.458   0.735   2.590
  271SOL    HW1  833   1.453   0.670   2.665
  271SOL    HW2  834   1.538   0.794   2.603
  272SOL     OW  835   0.461   1.266   3.589
  272SOL    HW1  836   0.411   1.267   3.503
  272SOL    HW2  837   0.398   1.248   3.665
  273SOL     OW  838   1.111   1.776   2.099
  273SOL    HW1  839   1.051   1.714   2.149
  273SOL    HW2  840   1.142   1.732   2.014
  274SOL     OW  841   0.202   0.285   3.360
  274SOL    HW1  842   0.122   0.345   3.347
  274SOL    HW2  843   0.192   0.236   3.446
  275SOL     OW  844   1.632   1.377   1.943
  275SOL    HW1  845   1.600   1.471   1.933
  275SOL    HW2  846   1.556   1.314   1.931
  276SOL     OW  847   0.464   1.743   2.185
  276SOL    HW1  848   0.497   1.782   2.271
  276SOL    HW2  849   0.540   1.736   2.120
  277SOL     OW  850   1.400   0.107   2.288
  277SOL    HW1  851   1.376   0.070   2.198
  277SOL    HW2  852   1.499   0.123   2.292
  278SOL     OW  853   0.249   1.785   3.103
  278SOL    HW1  854   0.306   1.720   3.153
  278SOL    HW2  855   0.233   1.752   3.010
  279SOL     OW  856   0.940   1.698   2.766
  279SOL    HW1  857   1.020   1.641   2.787
  279SOL    HW2  858   0.891   1.658   2.689
  280SOL     OW  859   0.382   0.700   2.342
  280SOL    HW1  860   0.427   0.610   2.339
  280SOL    HW2  861   0.288   0.689   2.375
  281SOL     OW  862   1.547   0.222   3.591
  281SOL    HW1  863   1.542   0.259   3.683
  281SOL    HW2  864   1.475   0.153   3.579
  282SOL     OW  865   0.614   0.122   1.979
  282SOL    HW1  866   0.712   0.100   1.986
  282SOL    HW2  867   0.583   0.105   1.886
  283SOL     OW  868   0.781   0.264   3.611
  283SOL    HW1  869   0.848   0.203   3.654
  283SOL    HW2  870   0.708   0.283   3.676
  284SOL     OW  871   0.888   1.514   3.057
  284SOL    HW1  872   0.865   1.489   2.963
  284SOL    HW2  873   0.949   1.445   3.096
  285SOL     OW  874   1.351   0.590   3.295
  285SOL    HW1  875   1.379   0.547   3.380
  285SOL    HW2  876   1.376   0.686   3.296
  286SOL     OW  877   0.803   1.402   2.786
  286SOL    HW1  878   0.893   1.416   2.744
  286SOL    HW2  879   0.732   1.404   2.715
  287SOL     OW  880   0.922   0.503   2.761
  287SOL    HW1  881   0.897   0.494   2.665
  287SOL    HW2  882   0.970   0.421   2.792
  288SOL     OW  883   0.539   0.064   2.374
  288SOL    HW1  884   0.458   0.065   2.432
  288SOL    HW2  885   0.542   0.147   2.319
  289SOL     OW  886   1.434   1.188   1.903
  289SOL    HW1  887   1.466   1.112   1.960
  289SOL    HW2  888   1.342   1.215   1.933
  290SOL     OW  889   0.297   0.035   2.033
  290SOL    HW1  890   0.346   0.119   2.012
  290SOL    HW2  891   0.359  -0.030   2.078
  291SOL     OW  892   0.935   0.236   2.342
  291SOL    HW1  893   0.887   0.277   2.264
  291SOL    HW2  894   1.034   0.234   2.323
  292SOL     OW  895   1.076   0.683   3.326
  292SOL    HW1  896   0.996   0.622   3.329
  292SOL    HW2  897   1.157   0.630   3.302
  293SOL     OW  898   1.227   1.570   2.655
  293SOL    HW1  899   1.248   1.644   2.590
  293SOL    HW2  900   1.295   1.570   2.728
  294SOL     OW  901   0.459   1.152   2.603
  294SOL    HW1  902   0.388   1.125   2.668
  294SOL    HW2  903   0.433   1.124   2.510
  295SOL     OW  904   1.271   1.797   2.453
  295SOL    HW1  905   1.315   1.861   2.389
  295SOL    HW2  906   1.221   1.849   2.523
  296SOL     OW  907   1.032   0.549   1.878
  296SOL    HW1  908   0.991   0.631   1.839
  296SOL    HW2  909   1.096   0.575   1.951
  297SOL     OW  910   0.078   0.556   3.248
  297SOL    HW1  911   0.170   0.555   3.207
  297SOL    HW2  912   0.072   0.630   3.315
  298SOL     OW  913   0.561   0.222   3.009
  298SOL    HW1  914   0.599   0.138   3.046
  298SOL    HW2  915   0.473   0.241   3.053
  299SOL     OW  916   0.866   0.454   2.504
  299SOL    HW1  917   0.834   0.526   2.442
  299SOL    HW2  918   0.890   0.373   2.451
  300SOL     OW  919   1.017   0.039   2.615
  300SOL    HW1  920   0.945   0.044   2.546
  300SOL    HW2  921   0.993  -0.030   2.684
  301SOL     OW  922   1.429   1.173   2.729
  301SOL    HW1  923   1.374   1.089   2.722
  301SOL    HW2  924   1.455   1.202   2.637
  302SOL     OW  925   1.466   0.590   2.854
  302SOL    HW1  926   1.436   0.495   2.861
  302SOL    HW2  927   1.539   0.606   2.920
  303SOL     OW  928   1.857   0.833   2.239
  303SOL    HW1  929   1.899   0.769   2.303
  303SOL    HW2  930   1.819   0.782   2.161
  304SOL     OW  931   0.488   1.385   2.036
  304SOL    HW1  932   0.401   1.370   2.083
  304SOL    HW2  933   0.471   1.411   1.941
  305SOL     OW  934   1.664   1.280   2.519
  305SOL    HW1  935   1.763   1.288   2.533
  305SOL    HW2  936   1.619   1.364   2.550
  306SOL     OW  937   1.390   0.575   1.940
  306SOL    HW1  938   1.336   0.554   2.021
  306SOL    HW2  939   1.481   0.534   1.949
  307SOL     OW  940   0.527   0.256   2.190
  307SOL    HW1  941   0.554   0.197   2.115
  307SOL    HW2  942   0.527   0.351   2.159
  308SOL     OW  943   1.754   1.223   3.450
  308SOL    HW1  944   1.845   1.184   3.437
  308SOL    HW2  945   1.762   1.319   3.474
  309SOL     OW  946   1.064   1.347   3.202
  309SOL    HW1  947   0.984   1.324   3.257
  309SOL    HW2  948   1.147   1.321   3.251
  310SOL     OW  949   1.592   1.629   3.487
  310SOL    HW1  950   1.619   1.663   3.397
  310SOL    HW2  951   1.671   1.591   3.533
  311SOL     OW  952   1.111   1.195   2.962
  311SOL    HW1  953   1.071   1.239   3.043
  311SOL    HW2  954   1.070   1.232   2.879
  312SOL     OW  955   1.638   1.099   2.941
  312SOL    HW1  956   1.643   1.180   3.000
  312SOL    HW2  957   1.552   1.101   2.890
  313SOL     OW  958   0.915   0.089   3.264
  313SOL    HW1  959   0.940   0.069   3.169
  313SOL    HW2  960   0.987   0.145   3.306
  314SOL     OW  961   0.980   1.116   3.581
  314SOL    HW1  962   0.881   1.122   3.591
  314SOL    HW2  963   1.003   1.036   3.525
  315SOL     OW  964   0.705   1.050   2.230
  315SOL    HW1  965   0.691   1.057   2.329
  315SOL    HW2  966   0.789   0.999   2.212
  316SOL     OW  967   0.410   0.813   3.113
  316SOL    HW1  968   0.496   0.825   3.163
  316SOL    HW2  969   0.368   0.726   3.140
  317SOL     OW  970   1.274   0.386   3.124
  317SOL    HW1  971   1.295   0.460   3.188
  317SOL    HW2  972   1.185   0.403   3.081
  318SOL     OW  973   0.064   1.564   3.193
  318SOL    HW1  974   0.018   1.646   3.159
  318SOL    HW2  975   0.162   1.583   3.202
  319SOL     OW  976   0.367   1.100   2.363
  319SOL    HW1  977   0.360   1.183   2.307
  319SOL    HW2  978   0.371   1.020   2.303
  320SOL     OW  979   0.566   0.537   2.727
  320SOL    HW1  980   0.578   0.603   2.653
  320SOL    HW2  981   0.612   0.571   2.810
  321SOL     OW  982   1.252   1.348   2.250
  321SOL    HW1  983   1.302   1.425   2.290
  321SOL    HW2  984   1.157   1.350   2.282
  322SOL     OW  985   1.272   1.445   3.004
  322SOL    HW1  986   1.319   1.458   3.091
  322SOL    HW2  987   1.206   1.371   3.013
  323SOL     OW  988   1.582   0.639   2.334
  323SOL    HW1  989   1.551   0.700   2.407
  323SOL    HW2  990   1.632   0.691   2.265
  324SOL     OW  991   0.354   1.510   3.191
  324SOL    HW1  992   0.333   1.466   3.104
  324SOL    HW2  993   0.451   1.536   3.194
  325SOL     OW  994   0.402   0.751   3.460
  325SOL    HW1  995   0.470   0.806   3.413
  325SOL    HW2  996   0.442   0.663   3.487
  326SOL     OW  997   1.587   0.779   3.532
  326SOL    HW1  998   1.495   0.817   3.527
  326SOL    HW2  999   1.647   0.826   3.467
  327SOL     OW 1000   1.013   0.105   3.632
  327SOL    HW1 1001   1.019   0.190   3.580
  327SOL    HW2 1002   1.045   0.029   3.575
  328SOL     OW 1003   0.504   0.050   3.602
  328SOL    HW1 1004   0.462  -0.007   3.532
  328SOL    HW2 1005   0.438   0.119   3.634
  329SOL     OW 1006   0.573   0.870   2.891
  329SOL    HW1 1007   0.617   0.959   2.882
  329SOL    HW2 1008   0.510   0.870   2.968
  330SOL     OW 1009   1.360   0.862   2.907
  330SOL    HW1 1010   1.285   0.862   2.841
  330SOL    HW2 1011   1.397   0.770   2.916
  331SOL     OW 1012   1.209   0.525   2.137
  331SOL    HW1 1013   1.222   0.441   2.191
  331SOL    HW2 1014   1.180   0.599   2.197
  332SOL     OW 1015   0.307   0.213   3.093
  332SOL    HW1 1016   0.284   0.250   3.183
  332SOL    HW2 1017   0.277   0.118   3.087
  333SOL     OW 1018   0.037   1.310   3.144
  333SOL    HW1 1019   0.090   1.261   3.212
  333SOL    HW2 1020   0.059   1.408   3.149
  334SOL     OW 1021   0.732   0.634   2.926
  334SOL    HW1 1022   0.791   0.608   2.850
  334SOL    HW2 1023   0.704   0.730   2.915
  335SOL     OW 1024   1.728   0.935   3.716
  335SOL    HW1 1025   1.682   0.928   3.627
  335SOL    HW2 1026   1.666   0.979   3.782
  336SOL     OW 1027   0.307   0.063   2.480
  336SOL    HW1 1028   0.296   0.157   2.513
  336SOL    HW2 1029   0.302   0.000   2.557
  337SOL     OW 1030   1.622   0.367   2.236
  337SOL    HW1 1031   1.624   0.291   2.300
  337SOL    HW2 1032   1.574   0.444   2.276
  338SOL     OW 1033   1.023   0.766   2.828
  338SOL    HW1 1034   1.038   0.787   2.924
  338SOL    HW2 1035   0.993   0.671   2.819
  339SOL     OW 1036   0.980   1.573   3.562
  339SOL    HW1 1037   0.960   1.617   3.474
  339SOL    HW2 1038   1.019   1.482   3.546
  340SOL     OW 1039   1.859   1.518   3.467
  340SOL    HW1 1040   1.873   1.545   3.372
  340SOL    HW2 1041   1.942   1.540   3.520
  341SOL     OW 1042   0.350   0.898   3.666
  341SOL    HW1 1043   0.426   0.942   3.714
  341SOL    HW2 1044   0.385   0.851   3.584
  342SOL     OW 1045   1.540   0.274   1.987
  342SOL    HW1 1046   1.479   0.199   2.010
  342SOL    HW2 1047   1.562   0.326   2.070
  343SOL     OW 1048   1.303   0.838   1.904
  343SOL    HW1 1049   1.337   0.745   1.919
  343SOL    HW2 1050   1.321   0.865   1.809
  344SOL     OW 1051   1.068   1.333   2.711
  344SOL    HW1 1052   1.075   1.249   2.656
  344SOL    HW2 1053   1.130   1.402   2.675
  345SOL     OW 1054   0.319   0.810   2.811
  345SOL    HW1 1055   0.412   0.846   2.816
  345SOL    HW2 1056   0.313   0.725   2.863
  346SOL     OW 1057   0.339   0.509   2.868
  346SOL    HW1 1058   0.287   0.426   2.851
  346SOL    HW2 1059   0.416   0.514   2.804
  347SOL     OW 1060   1.138   0.380   3.540
  347SOL    HW1 1061   1.093   0.443   3.604
  347SOL    HW2 1062   1.231   0.411   3.523
  348SOL     OW 1063   1.160   0.207   3.339
  348SOL    HW1 1064   1.160   0.271   3.416
  348SOL    HW2 1065   1.188   0.255   3.256
  349SOL     OW 1066   0.008   1.326   2.062
  349SOL    HW1 1067  -0.085   1.347   2.031
  349SOL    HW2 1068   0.018   1.227   2.075
  350SOL     OW 1069   0.088   1.801   2.789
  350SOL    HW1 1070   0.046   1.715   2.762
  350SOL    HW2 1071   0.182   1.804   2.755
  351SOL     OW 1072   0.504   1.568   2.772
  351SOL    HW1 1073   0.570   1.642   2.781
  351SOL    HW2 1074   0.548   1.489   2.730
  352SOL     OW 1075   1.002   0.796   3.100
  352SOL    HW1 1076   1.043   0.764   3.186
  352SOL    HW2 1077   0.906   0.769   3.097
  353SOL     OW 1078   0.040   0.544   2.976
  353SOL    HW1 1079   0.125   0.511   2.935
  353SOL    HW2 1080   0.053   0.559   3.074
  354SOL     OW 1081   0.189   0.520   3.584
  354SOL    HW1 1082   0.248   0.480   3.514
  354SOL    HW2 1083   0.131   0.591   3.543
  355SOL     OW 1084   1.369   0.950   3.522
  355SOL    HW1 1085   1.408   1.039   3.542
  355SOL    HW2 1086   1.379   0.930   3.425
  356SOL     OW 1087   0.815   0.572   2.187
  356SOL    HW1 1088   0.822   0.483   2.141
  356SOL    HW2 1089   0.721   0.606   2.179
  357SOL     OW 1090   1.657   0.604   3.068
  357SOL    HW1 1091   1.619   0.535   3.130
  357SOL    HW2 1092   1.739   0.568   3.024
  358SOL     OW 1093   0.252   1.564   3.606
  358SOL    HW1 1094   0.222   1.621   3.682
  358SOL    HW2 1095   0.245   1.467   3.632
  359SOL     OW 1096   0.671   0.464   3.131
  359SOL    HW1 1097   0.637   0.375   3.101
  359SOL    HW2 1098   0.697   0.518   3.051
  360SOL     OW 1099   0.930   1.678   3.327
  360SOL    HW1 1100   0.906   1.660   3.232
  360SOL    HW2 1101   0.960   1.772   3.337
  361SOL     OW 1102   0.473   0.500   2.053
  361SOL    HW1 1103   0.534   0.580   2.057
  361SOL    HW2 1104   0.378   0.531   2.060
  362SOL     OW 1105   0.159   1.137   3.328
  362SOL    HW1 1106   0.181   1.076   3.404
  362SOL    HW2 1107   0.169   1.088   3.242
  363SOL     OW 1108   1.347   1.059   3.096
  363SOL    HW1 1109   1.371   0.996   3.022
  363SOL    HW2 1110   1.257   1.099   3.078
  364SOL     OW 1111   1.302   0.855   2.171
  364SOL    HW1 1112   1.216   0.824   2.213
  364SOL    HW2 1113   1.298   0.841   2.072
  365SOL     OW 1114   1.759   1.747   3.016
  365SOL    HW1 1115   1.820   1.777   2.943
  365SOL    HW2 1116   1.721   1.658   2.994
  366SOL     OW 1117   1.252   1.731   2.990
  366SOL    HW1 1118   1.336   1.736   2.936
  366SOL    HW2 1119   1.229   1.635   3.008
  367SOL     OW 1120   0.083   1.258   2.884
  367SOL    HW1 1121   0.078   1.257   2.984
  367SOL    HW2 1122   0.000   1.217   2.846
  368SOL     OW 1123   0.688   1.662   3.578
  368SOL    HW1 1124   0.632   1.743   3.587
  368SOL    HW2 1125   0.740   1.666   3.492
  369SOL     OW 1126   1.726   0.135   2.385
  369SOL    HW1 1127   1.799   0.118   2.318
  369SOL    HW2 1128   1.695   0.048   2.423
  370SOL     OW 1129   1.388   1.573   2.339
  370SOL    HW1 1130   1.455   1.585   2.265
  370SOL    HW2 1131   1.348   1.662   2.362
  371SOL     OW 1132   0.130   1.794   3.713
  371SOL    HW1 1133   0.089   1.720   3.766
  371SOL    HW2 1134   0.194   1.845   3.771
  372SOL     OW 1135   1.280   0.927   2.534
  372SOL    HW1 1136   1.340   0.846   2.536
  372SOL    HW2 1137   1.320   0.996   2.474
  373SOL     OW 1138   0.830   1.273   3.284
  373SOL    HW1 1139   0.825   1.306   3.379
  373SOL    HW2 1140   0.744   1.292   3.238
  374SOL     OW 1141   0.672   1.616   2.016
  374SOL    HW1 1142   0.681   1.626   1.917
  374SOL    HW2 1143   0.632   1.527   2.037
  375SOL     OW 1144   1.650   1.720   3.256
  375SOL    HW1 1145   1.703   1.730   3.172
  375SOL    HW2 1146   1.623   1.810   3.290
  376SOL     OW 1147   1.841   0.175   2.825
  376SOL    HW1 1148   1.880   0.090   2.789
  376SOL    HW2 1149   1.743   0.177   2.806
  377SOL     OW 1150   0.263   0.326   2.582
  377SOL    HW1 1151   0.184   0.377   2.548
  377SOL    HW2 1152   0.254   0.311   2.680
  378SOL     OW 1153   1.194   1.612   1.893
  378SOL    HW1 1154   1.200   1.519   1.930
  378SOL    HW2 1155   1.135   1.612   1.813
  379SOL     OW 1156   0.822   1.002   3.234
  379SOL    HW1 1157   0.862   1.001   3.142
  379SOL    HW2 1158   0.832   1.094   3.274
  380SOL     OW 1159   0.916   0.910   2.153
  380SOL    HW1 1160   0.979   0.948   2.085
  380SOL    HW2 1161   0.956   0.827   2.192
  381SOL     OW 1162   1.504   1.607   1.906
  381SOL    HW1 1163   1.412   1.644   1.913
  381SOL    HW2 1164   1.542   1.627   1.816
  382SOL     OW 1165   0.372   1.288   3.352
  382SOL    HW1 1166   0.359   1.381   3.318
  382SOL    HW2 1167   0.288   1.236   3.339
  383SOL     OW 1168   1.614   1.292   3.151
  383SOL    HW1 1169   1.674   1.295   3.231
  383SOL    HW2 1170   1.539   1.356   3.164
  384SOL     OW 1171   1.039   1.098   2.558
  384SOL    HW1 1172   0.969   1.051   2.612
  384SOL    HW2 1173   1.098   1.030   2.515
  385SOL     OW 1174   1.014   0.236   2.833
  385SOL    HW1 1175   1.006   0.200   2.740
  385SOL    HW2 1176   1.012   0.160   2.898
  386SOL     OW 1177   0.590   1.487   2.353
  386SOL    HW1 1178   0.632   1.429   2.283
  386SOL    HW2 1179   0.546   1.566   2.309
  387SOL     OW 1180   1.709   0.385   3.243
  387SOL    HW1 1181   1.782   0.454   3.247
  387SOL    HW2 1182   1.737   0.310   3.184
  388SOL     OW 1183   0.255   1.348   2.152
  388SOL    HW1 1184   0.159   1.349   2.125
  388SOL    HW2 1185   0.267   1.401   2.236
  389SOL     OW 1186   0.105   1.013   3.588
  389SOL    HW1 1187   0.028   0.980   3.642
  389SOL    HW2 1188   0.190   0.983   3.630
  390SOL     OW 1189   0.672   0.203   3.351
  390SOL    HW1 1190   0.762   0.187   3.311
  390SOL    HW2 1191   0.680   0.208   3.450
  391SOL     OW 1192   0.075   0.345   1.895
  391SOL    HW1 1193  -0.017   0.317   1.866
  391SOL    HW2 1194   0.106   0.422   1.839
  392SOL     OW 1195   1.440   0.856   3.260
  392SOL    HW1 1196   1.383   0.908   3.197
  392SOL    HW2 1197   1.536   0.868   3.236
  393SOL     OW 1198   0.072   0.166   2.180
  393SOL    HW1 1199   0.055   0.249   2.126
  393SOL    HW2 1200   0.162   0.129   2.158
  394SOL     OW 1201   1.183   1.335   1.981
  394SOL    HW1 1202   1.084   1.324   1.983
  394SOL    HW2 1203   1.217   1.350   2.074
  395SOL     OW 1204   0.613   0.842   3.293
  395SOL    HW1 1205   0.669   0.923   3.276
  395SOL    HW2 1206   0.672   0.762   3.296
  396SOL     OW 1207   1.493   1.767   2.821
  396SOL    HW1 1208   1.526   1.831   2.752
  396SOL    HW2 1209   1.559   1.761   2.896
  397SOL     OW 1210   0.716   0.565   3.570
  397SOL    HW1 1211   0.735   0.630   3.644
  397SOL    HW2 1212   0.776   0.485   3.579
  398SOL     OW 1213   1.450   1.220   3.495
  398SOL    HW1 1214   1.441   1.210   3.594
  398SOL    HW2 1215   1.546   1.213   3.469
  399SOL     OW 1216   0.390   1.741   3.422
  399SOL    HW1 1217   0.299   1.782   3.420
  399SOL    HW2 1218   0.383   1.647   3.454
  400SOL     OW 1219   1.674   0.883   3.116
  400SOL    HW1 1220   1.647   0.794   3.079
  400SOL    HW2 1221   1.675   0.951   3.043
  401SOL     OW 1222   1.225   0.325   2.311
  401SOL    HW1 1223   1.290   0.251   2.300
  401SOL    HW2 1224   1.245   0.375   2.395
  402SOL     OW 1225   0.594   0.745   2.514
  402SOL    HW1 1226   0.644   0.830   2.495
  402SOL    HW2 1227   0.506   0.747   2.466
  403SOL     OW 1228   1.777   0.342   3.504
  403SOL    HW1 1229   1.760   0.373   3.410
  403SOL    HW2 1230   1.693   0.305   3.542
  404SOL     OW 1231   1.730   0.934   3.379
  404SOL    HW1 1232   1.768   1.025   3.394
  404SOL    HW2 1233   1.722   0.917   3.280
  405SOL     OW 1234   0.859   1.374   1.878
  405SOL    HW1 1235   0.813   1.389   1.966
  405SOL    HW2 1236   0.903   1.459   1.848
  406SOL     OW 1237   0.661   1.790   2.815
  406SOL    HW1 1238   0.615   1.878   2.802
  406SOL    HW2 1239   0.760   1.802   2.808
  407SOL     OW 1240   0.859   0.956   2.723
  407SOL    HW1 1241   0.913   0.887   2.771
  407SOL    HW2 1242   0.827   1.025   2.789
  408SOL     OW 1243   1.083   0.984   1.949
  408SOL    HW1 1244   1.060   1.037   1.867
  408SOL    HW2 1245   1.164   0.928   1.930
  409SOL     OW 1246   1.861   1.569   2.713
  409SOL    HW1 1247   1.790   1.557   2.643
  409SOL    HW2 1248   1.862   1.490   2.773
  410SOL     OW 1249   0.221   1.314   3.706
  410SOL    HW1 1250   0.156   1.241   3.685
  410SOL    HW2 1251   0.225   1.328   3.804
  411SOL     OW 1252   0.079   1.240   2.515
  411SOL    HW1 1253   0.078   1.193   2.603
  411SOL    HW2 1254   0.161   1.212   2.464
  412SOL     OW 1255   0.672   1.391   3.486
  412SOL    HW1 1256   0.594   1.341   3.524
  412SOL    HW2 1257   0.669   1.486   3.517
  413SOL     OW 1258   1.824   0.192   3.089
  413SOL    HW1 1259   1.820   0.102   3.133
  413SOL    HW2 1260   1.827   0.181   2.990
  414SOL     OW 1261   0.428   0.424   2.382
  414SOL    HW1 1262   0.458   0.352   2.320
  414SOL    HW2 1263   0.389   0.384   2.465
  415SOL     OW 1264   1.705   1.487   2.966
  415SOL    HW1 1265   1.612   1.462   2.939
  415SOL    HW2 1266   1.731   1.437   3.048
  416SOL     OW 1267   0.317   0.547   3.142
  416SOL    HW1 1268   0.355   0.488   3.214
  416SOL    HW2 1269   0.357   0.521   3.054
  417SOL     OW 1270   0.812   1.586   2.549
  417SOL    HW1 1271   0.844   1.596   2.455
  417SOL    HW2 1272   0.733   1.524   2.551
  418SOL     OW 1273   1.424   0.214   2.974
  418SOL    HW1 1274   1.476   0.149   3.029
  418SOL    HW2 1275   1.375   0.277   3.035
  419SOL     OW 1276   1.001   0.034   3.016
  419SOL    HW1 1277   0.938  -0.038   2.985
  419SOL    HW2 1278   1.094  -0.002   3.016
  420SOL     OW 1279   0.770   1.330   2.163
  420SOL    HW1 1280   0.724   1.243   2.180
  420SOL    HW2 1281   0.861   1.327   2.204
  421SOL     OW 1282   0.618   1.567   3.146
  421SOL    HW1 1283   0.613   1.649   3.203
  421SOL    HW2 1284   0.707   1.564   3.101
  422SOL     OW 1285   1.352   0.052   2.030
  422SOL    HW1 1286   1.387   0.011   1.946
  422SOL    HW2 1287   1.262   0.014   2.050
  423SOL     OW 1288   1.300   0.453   2.553
  423SOL    HW1 1289   1.241   0.533   2.557
  423SOL    HW2 1290   1.315   0.418   2.646
  424SOL     OW 1291   1.593   0.221   2.744
  424SOL    HW1 1292   1.509   0.220   2.798
  424SOL    HW2 1293   1.595   0.304   2.688
  425SOL     OW 1294   0.039   1.077   2.162
  425SOL    HW1 1295   0.138   1.066   2.153
  425SOL    HW2 1296  -0.001   0.991   2.194
  426SOL     OW 1297   0.875   1.646   2.199
  426SOL    HW1 1298   0.798   1.611   2.145
  426SOL    HW2 1299   0.843   1.717   2.261
  427SOL     OW 1300   0.230   0.628   3.837
  427SOL    HW1 1301   0.137   0.626   3.874
  427SOL    HW2 1302   0.231   0.589   3.745
  428SOL     OW 1303   0.225   0.275   4.720
  428SOL    HW1 1304   0.260   0.258   4.812
  428SOL    HW2 1305   0.137   0.230   4.708
  429SOL     OW 1306   0.019   0.368   4.371
  429SOL    HW1 1307  -0.063   0.411   4.410
  429SOL    HW2 1308  -0.009   0.295   4.308
  430SOL     OW 1309   1.555   1.511   4.427
  430SOL    HW1 1310   1.498   1.495   4.508
  430SOL    HW2 1311   1.496   1.521   4.347
  431SOL     OW 1312   1.135   0.703   4.441
  431SOL    HW1 1313   1.192   0.781   4.416
  431SOL    HW2 1314   1.075   0.729   4.517
  432SOL     OW 1315   1.755   0.607   3.955
  432SOL    HW1 1316   1.743   0.594   3.856
  432SOL    HW2 1317   1.725   0.526   4.004
  433SOL     OW 1318   0.768   1.144   4.747
  433SOL    HW1 1319   0.690   1.161   4.807
  433SOL    HW2 1320   0.802   1.231   4.711
  434SOL     OW 1321   0.685   1.012   4.389
  434SOL    HW1 1322   0.754   0.996   4.459
  434SOL    HW2 1323   0.612   1.069   4.427
  435SOL     OW 1324   1.603   0.447   4.461
  435SOL    HW1 1325   1.529   0.493   4.411
  435SOL    HW2 1326   1.654   0.515   4.514
  436SOL     OW 1327   0.231   1.713   4.207
  436SOL    HW1 1328   0.265   1.790   4.261
  436SOL    HW2 1329   0.275   1.713   4.117
  437SOL     OW 1330   0.230   1.434   4.262
  437SOL    HW1 1331   0.204   1.530   4.262
  437SOL    HW2 1332   0.159   1.380   4.307
  438SOL     OW 1333   0.240   1.091   4.610
  438SOL    HW1 1334   0.254   1.007   4.662
  438SOL    HW2 1335   0.185   1.155   4.665
  439SOL     OW 1336   0.606   0.964   3.847
  439SOL    HW1 1337   0.613   1.048   3.793
  439SOL    HW2 1338   0.652   0.977   3.935
  440SOL     OW 1339   0.122   0.643   4.287
  440SOL    HW1 1340   0.077   0.555   4.304
  440SOL    HW2 1341   0.121   0.697   4.371
  441SOL     OW 1342   1.842   1.767   4.083
  441SOL    HW1 1343   1.896   1.738   4.163
  441SOL    HW2 1344   1.872   1.857   4.054
  442SOL     OW 1345   0.027   1.596   3.841
  442SOL    HW1 1346   0.008   1.500   3.862
  442SOL    HW2 1347  -0.006   1.654   3.916
  443SOL     OW 1348   1.689   0.922   4.336
  443SOL    HW1 1349   1.784   0.893   4.344
  443SOL    HW2 1350   1.681   0.987   4.261
  444SOL     OW 1351   1.641   1.108   4.156
  444SOL    HW1 1352   1.727   1.110   4.104
  444SOL    HW2 1353   1.655   1.155   4.244
  445SOL     OW 1354   0.613   1.365   4.450
  445SOL    HW1 1355   0.564   1.278   4.459
  445SOL    HW2 1356   0.590   1.408   4.363
  446SOL     OW 1357   0.809   0.004   4.226
  446SOL    HW1 1358   0.849   0.095   4.217
  446SOL    HW2 1359   0.709   0.012   4.232
  447SOL     OW 1360   1.525   0.999   3.914
  447SOL    HW1 1361   1.462   0.923   3.927
  447SOL    HW2 1362   1.573   1.017   4.000
  448SOL     OW 1363   1.466   1.417   4.677
  448SOL    HW1 1364   1.407   1.423   4.757
  448SOL    HW2 1365   1.451   1.329   4.631
  449SOL     OW 1366   1.667   1.714   4.296
  449SOL    HW1 1367   1.626   1.691   4.208
  449SOL    HW2 1368   1.649   1.640   4.361
  450SOL     OW 1369   0.598   0.729   3.994
  450SOL    HW1 1370   0.622   0.798   3.926
  450SOL    HW2 1371   0.520   0.762   4.048
  451SOL     OW 1372   1.281   0.345   4.668
  451SOL    HW1 1373   1.195   0.295   4.655
  451SOL    HW2 1374   1.343   0.291   4.724
  452SOL     OW 1375   1.576   1.662   4.031
  452SOL    HW1 1376   1.665   1.708   4.034
  452SOL    HW2 1377   1.555   1.638   3.936
  453SOL     OW 1378   1.041   0.701   4.153
  453SOL    HW1 1379   1.067   0.697   4.249
  453SOL    HW2 1380   0.956   0.650   4.139
  454SOL     OW 1381   0.076   0.811   4.513
  454SOL    HW1 1382   0.175   0.799   4.522
  454SOL    HW2 1383   0.052   0.906   4.534
  455SOL     OW 1384   0.865   0.348   3.919
  455SOL    HW1 1385   0.924   0.411   3.870
  455SOL    HW2 1386   0.884   0.254   3.890
  456SOL     OW 1387   1.362   1.144   4.269
  456SOL    HW1 1388   1.445   1.115   4.221
  456SOL    HW2 1389   1.313   1.211   4.213
  457SOL     OW 1390   1.008   1.456   4.201
  457SOL    HW1 1391   0.962   1.528   4.149
  457SOL    HW2 1392   1.004   1.476   4.299
  458SOL     OW 1393   0.351   1.801   4.577
  458SOL    HW1 1394   0.401   1.715   4.583
  458SOL    HW2 1395   0.416   1.878   4.574
  459SOL     OW 1396   1.795   1.066   4.597
  459SOL    HW1 1397   1.733   1.051   4.521
  459SOL    HW2 1398   1.743   1.077   4.682
  460SOL     OW 1399   0.321   0.943   3.966
  460SOL    HW1 1400   0.403   0.982   3.924
  460SOL    HW2 1401   0.294   0.861   3.917
  461SOL     OW 1402   1.458   0.735   4.452
  461SOL    HW1 1403   1.453   0.670   4.527
  461SOL    HW2 1404   1.538   0.794   4.465
  462SOL     OW 1405   1.111   1.776   3.961
  462SOL    HW1 1406   1.051   1.714   4.011
  462SOL    HW2 1407   1.142   1.732   3.876
  463SOL     OW 1408   1.632   1.377   3.805
  463SOL    HW1 1409   1.600   1.471   3.795
  463SOL    HW2 1410   1.556   1.314   3.793
  464SOL     OW 1411   0.464   1.743   4.047
  464SOL    HW1 1412   0.497   1.782   4.133
  464SOL    HW2 1413   0.540   1.736   3.982
  465SOL     OW 1414   1.400   0.107   4.150
  465SOL    HW1 1415   1.376   0.070   4.060
  465SOL    HW2 1416   1.499   0.123   4.154
  466SOL     OW 1417   0.249   1.785   4.965
  466SOL    HW1 1418   0.306   1.720   5.015
  466SOL    HW2 1419   0.233   1.752   4.872
  467SOL     OW 1420   0.382   0.700   4.204
  467SOL    HW1 1421   0.427   0.610   4.201
  467SOL    HW2 1422   0.288   0.689   4.237
  468SOL     OW 1423   0.614   0.122   3.841
  468SOL    HW1 1424   0.712   0.100   3.848
  468SOL    HW2 1425   0.583   0.105   3.748
  469SOL     OW 1426   0.922   0.503   4.623
  469SOL    HW1 1427   0.897   0.494   4.527
  469SOL    HW2 1428   0.970   0.421   4.654
  470SOL     OW 1429   0.539   0.064   4.236
  470SOL    HW1 1430   0.458   0.065   4.294
  470SOL    HW2 1431   0.542   0.147   4.181
  471SOL     OW 1432   1.434   1.188   3.765
  471SOL    HW1 1433   1.466   1.112   3.822
  471SOL    HW2 1434   1.342   1.215   3.795
  472SOL     OW 1435   0.297   0.035   3.895
  472SOL    HW1 1436   0.346   0.119   3.874
  472SOL    HW2 1437   0.359  -0.030   3.940
  473SOL     OW 1438   0.935   0.236   4.204
  473SOL    HW1 1439   0.887   0.277   4.126
  473SOL    HW2 1440   1.034   0.234   4.185
  474SOL     OW 1441   1.227   1.570   4.517
  474SOL    HW1 1442   1.248   1.644   4.452
  474SOL    HW2 1443   1.295   1.570   4.590
  475SOL     OW 1444   0.459   1.152   4.465
  475SOL    HW1 1445   0.388   1.125   4.530
  475SOL    HW2 1446   0.433   1.124   4.372
  476SOL     OW 1447   1.271   1.797   4.315
  476SOL    HW1 1448   1.315   1.861   4.251
  476SOL    HW2 1449   1.221   1.849   4.385
  477SOL     OW 1450   1.032   0.549   3.740
  477SOL    HW1 1451   0.991   0.631   3.701
  477SOL    HW2 1452   1.096   0.575   3.813
  478SOL     OW 1453   0.866   0.454   4.366
  478SOL    HW1 1454   0.834   0.526   4.304
  478SOL    HW2 1455   0.890   0.373   4.313
  479SOL     OW 1456   1.017   0.039   4.477
  479SOL    HW1 1457   0.945   0.044   4.408
  479SOL    HW2 1458   0.993  -0.030   4.546
  480SOL     OW 1459   1.429   1.173   4.591
  480SOL    HW1 1460   1.374   1.089   4.584
  480SOL    HW2 1461   1.455   1.202   4.499
  481SOL     OW 1462   1.857   0.833   4.101
  481SOL    HW1 1463   1.899   0.769   4.165
  481SOL    HW2 1464   1.819   0.782   4.023
  482SOL     OW 1465   0.488   1.385   3.898
  482SOL    HW1 1466   0.401   1.370   3.945
  482SOL    HW2 1467   0.471   1.411   3.803
  483SOL     OW 1468   1.664   1.280   4.381
  483SOL    HW1 1469   1.763   1.288   4.395
  483SOL    HW2 1470   1.619   1.364   4.412
  484SOL     OW 1471   1.390   0.575   3.802
  484SOL    HW1 1472   1.336   0.554   3.883
  484SOL    HW2 1473   1.481   0.534   3.811
  485SOL     OW 1474   0.527   0.256   4.052
  485SOL    HW1 1475   0.554   0.197   3.977
  485SOL    HW2 1476   0.527   0.351   4.021
  486SOL     OW 1477   1.638   1.099   4.803
  486SOL    HW1 1478   1.643   1.180   4.862
  486SOL    HW2 1479   1.552   1.101   4.752
  487SOL     OW 1480   0.705   1.050   4.092
  487SOL    HW1 1481   0.691   1.057   4.191
  487SOL    HW2 1482   0.789   0.999   4.074
  488SOL     OW 1483   0.367   1.100   4.225
  488SOL    HW1 1484   0.360   1.183   4.169
  488SOL    HW2 1485   0.371   1.020   4.165
  489SOL     OW 1486   0.566   0.537   4.589
  489SOL    HW1 1487   0.578   0.603   4.515
  489SOL    HW2 1488   0.612   0.571   4.672
  490SOL     OW 1489   1.252   1.348   4.112
  490SOL    HW1 1490   1.302   1.425   4.152
  490SOL    HW2 1491   1.157   1.350   4.144
  491SOL     OW 1492   1.582   0.639   4.196
  491SOL    HW1 1493   1.551   0.700   4.269
  491SOL    HW2 1494   1.632   0.691   4.127
  492SOL     OW 1495   1.209   0.525   3.999
  492SOL    HW1 1496   1.222   0.441   4.053
  492SOL    HW2 1497   1.180   0.599   4.059
  493SOL     OW 1498   0.732   0.634   4.788
  493SOL    HW1 1499   0.791   0.608   4.712
  493SOL    HW2 1500   0.704   0.730   4.777
  494SOL     OW 1501   0.307   0.063   4.342
  494SOL    HW1 1502   0.296   0.157   4.375
  494SOL    HW2 1503   0.302   0.000   4.419
  495SOL     OW 1504   1.622   0.367   4.098
  495SOL    HW1 1505   1.624   0.291   4.162
  495SOL    HW2 1506   1.574   0.444   4.138
  496SOL     OW 1507   1.540   0.274   3.849
  496SOL    HW1 1508   1.479   0.199   3.872
  496SOL    HW2 1509   1.562   0.326   3.932
  497SOL     OW 1510   1.303   0.838   3.766
  497SOL    HW1 1511   1.337   0.745   3.781
  497SOL    HW2 1512   1.321   0.865   3.671
  498SOL     OW 1513   1.068   1.333   4.573
  498SOL    HW1 1514   1.075   1.249   4.518
  498SOL    HW2 1515   1.130   1.402   4.537
  499SOL     OW 1516   0.319   0.810   4.673
  499SOL    HW1 1517   0.412   0.846   4.678
  499SOL    HW2 1518   0.313   0.725   4.725
  500SOL     OW 1519   0.008   1.326   3.924
  500SOL    HW1 1520  -0.085   1.347   3.893
  500SOL    HW2 1521   0.018   1.227   3.937
  501SOL     OW 1522   0.088   1.801   4.651
  501SOL    HW1 1523   0.046   1.715   4.624
  501SOL    HW2 1524   0.182   1.804   4.617
  502SOL     OW 1525   0.504   1.568   4.634
  502SOL    HW1 1526   0.570   1.642   4.643
  502SOL    HW2 1527   0.548   1.489   4.592
  503SOL     OW 1528   0.815   0.572   4.049
  503SOL    HW1 1529   0.822   0.483   4.003
  503SOL    HW2 1530   0.721   0.606   4.041
  504SOL     OW 1531   0.671   0.464   4.993
  504SOL    HW1 1532   0.637   0.375   4.963
  504SOL    HW2 1533   0.697   0.518   4.913
  505SOL     OW 1534   0.473   0.500   3.915
  505SOL    HW1 1535   0.534   0.580   3.919
  505SOL    HW2 1536   0.378   0.531   3.922
  506SOL     OW 1537   1.347   1.059   4.958
  506SOL    HW1 1538   1.371   0.996   4.884
  506SOL    HW2 1539   1.257   1.099   4.940
  507SOL     OW 1540   1.302   0.855   4.033
  507SOL    HW1 1541   1.216   0.824   4.075
  507SOL    HW2 1542   1.298   0.841   3.934
  508SOL     OW 1543   1.759   1.747   4.878
  508SOL    HW1 1544   1.820   1.777   4.805
  508SOL    HW2 1545   1.721   1.658   4.856
  509SOL     OW 1546   1.726   0.135   4.247
  509SOL    HW1 1547   1.799   0.118   4.180
  509SOL    HW2 1548   1.695   0.048   4.285
  510SOL     OW 1549   1.388   1.573   4.201
  510SOL    HW1 1550   1.455   1.585   4.127
  510SOL    HW2 1551   1.348   1.662   4.224
  511SOL     OW 1552   1.280   0.927   4.396
  511SOL    HW1 1553   1.340   0.846   4.398
  511SOL    HW2 1554   1.320   0.996   4.336
  512SOL     OW 1555   0.672   1.616   3.878
  512SOL    HW1 1556   0.681   1.626   3.779
  512SOL    HW2 1557   0.632   1.527   3.899
  513SOL     OW 1558   1.841   0.175   4.687
  513SOL    HW1 1559   1.880   0.090   4.651
  513SOL    HW2 1560   1.743   0.177   4.668
  514SOL     OW 1561   0.263   0.326   4.444
  514SOL    HW1 1562   0.184   0.377   4.410
  514SOL    HW2 1563   0.254   0.311   4.542
  515SOL     OW 1564   1.194   1.612   3.755
  515SOL    HW1 1565   1.200   1.519   3.792
  515SOL    HW2 1566   1.135   1.612   3.675
  516SOL     OW 1567   0.916   0.910   4.015
  516SOL    HW1 1568   0.979   0.948   3.947
  516SOL    HW2 1569   0.956   0.827   4.054
  517SOL     OW 1570   1.504   1.607   3.768
  517SOL    HW1 1571   1.412   1.644   3.775
  517SOL    HW2 1572   1.542   1.627   3.678
  518SOL     OW 1573   1.614   1.292   5.013
  518SOL    HW1 1574   1.674   1.295   5.093
  518SOL    HW2 1575   1.539   1.356   5.026
  519SOL     OW 1576   1.039   1.098   4.420
  519SOL    HW1 1577   0.969   1.051   4.474
  519SOL    HW2 1578   1.098   1.030   4.377
  520SOL     OW 1579   0.590   1.487   4.215
  520SOL    HW1 1580   0.632   1.429   4.145
  520SOL    HW2 1581   0.546   1.566   4.171
  521SOL     OW 1582   0.255   1.348   4.014
  521SOL    HW1 1583   0.159   1.349   3.987
  521SOL    HW2 1584   0.267   1.401   4.098
  522SOL     OW 1585   0.075   0.345   3.757
  522SOL    HW1 1586  -0.017   0.317   3.728
  522SOL    HW2 1587   0.106   0.422   3.701
  523SOL     OW 1588   0.072   0.166   4.042
  523SOL    HW1 1589   0.055   0.249   3.988
  523SOL    HW2 1590   0.162   0.129   4.020
  524SOL     OW 1591   1.183   1.335   3.843
  524SOL    HW1 1592   1.084   1.324   3.845
  524SOL    HW2 1593   1.217   1.350   3.936
  525SOL     OW 1594   1.674   0.883   4.978
  525SOL    HW1 1595   1.647   0.794   4.941
  525SOL    HW2 1596   1.675   0.951   4.905
  526SOL     OW 1597   1.225   0.325   4.173
  526SOL    HW1 1598   1.290   0.251   4.162
  526SOL    HW2 1599   1.245   0.375   4.257
  527SOL     OW 1600   0.594   0.745   4.376
  527SOL    HW1 1601   0.644   0.830   4.357
  527SOL    HW2 1602   0.506   0.747   4.328
  528SOL     OW 1603   0.859   1.374   3.740
  528SOL    HW1 1604   0.813   1.389   3.828
  528SOL    HW2 1605   0.903   1.459   3.710
  529SOL     OW 1606   0.661   1.790   4.677
  529SOL    HW1 1607   0.615   1.878   4.664
  529SOL    HW2 1608   0.760   1.802   4.670
  530SOL     OW 1609   0.859   0.956   4.585
  530SOL    HW1 1610   0.913   0.887   4.633
  530SOL    HW2 1611   0.827   1.025   4.651
  531SOL     OW 1612   1.083   0.984   3.811
  531SOL    HW1 1613   1.060   1.037   3.729
  531SOL    HW2 1614   1.164   0.928   3.792
  532SOL     OW 1615   1.861   1.569   4.575
  532SOL    HW1 1616   1.790   1.557   4.505
  532SOL    HW2 1617   1.862   1.490   4.635
  533SOL     OW 1618   0.079   1.240   4.377
  533SOL    HW1 1619   0.078   1.193   4.465
  533SOL    HW2 1620   0.161   1.212   4.326
  534SOL     OW 1621   1.824   0.192   4.951
  534SOL    HW1 1622   1.820   0.102   4.995
  534SOL    HW2 1623   1.827   0.181   4.852
  535SOL     OW 1624   0.428   0.424   4.244
  535SOL    HW1 1625   0.458   0.352   4.182
  535SOL    HW2 1626   0.389   0.384   4.327
  536SOL     OW 1627   0.812   1.586   4.411
  536SOL    HW1 1628   0.844   1.596   4.317
  536SOL    HW2 1629   0.733   1.524   4.413
  537SOL     OW 1630   0.770   1.330   4.025
  537SOL    HW1 1631   0.724   1.243   4.042
  537SOL    HW2 1632   0.861   1.327   4.066
  538SOL     OW 1633   1.352   0.052   3.892
  538SOL    HW1 1634   1.387   0.011   3.808
  538SOL    HW2 1635   1.262   0.014   3.912
  539SOL     OW 1636   1.300   0.453   4.415
  539SOL    HW1 1637   1.241   0.533   4.419
  539SOL    HW2 1638   1.315   0.418   4.508
  540SOL     OW 1639   1.593   0.221   4.606
  540SOL    HW1 1640   1.509   0.220   4.660
  540SOL    HW2 1641   1.595   0.304   4.550
  541SOL     OW 1642   0.039   1.077   4.024
  541SOL    HW1 1643   0.138   1.066   4.015
  541SOL    HW2 1644  -0.001   0.991   4.056
  542SOL     OW 1645   0.875   1.646   4.061
  542SOL    HW1 1646   0.798   1.611   4.007
  542SOL    HW2 1647   0.843   1.717   4.123
  543SOL     OW 1648   0.230   2.490   0.113
  543SOL    HW1 1649   0.137   2.488   0.150
  543SOL    HW2 1650   0.231   2.451   0.021
  544SOL     OW 1651   0.225   2.137   0.996
  544SOL    HW1 1652   0.260   2.120   1.088
  544SOL    HW2 1653   0.137   2.092   0.984
  545SOL     OW 1654   0.019   2.230   0.647
  545SOL    HW1 1655  -0.063   2.273   0.686
  545SOL    HW2 1656  -0.009   2.157   0.584
  546SOL     OW 1657   0.569   3.137   1.165
  546SOL    HW1 1658   0.476   3.130   1.128
  546SOL    HW2 1659   0.580   3.226   1.209
  547SOL     OW 1660   1.555   3.373   0.703
  547SOL    HW1 1661   1.498   3.357   0.784
  547SOL    HW2 1662   1.496   3.383   0.623
  548SOL     OW 1663   1.135   2.565   0.717
  548SOL    HW1 1664   1.192   2.643   0.692
  548SOL    HW2 1665   1.075   2.591   0.793
  549SOL     OW 1666   1.755   2.469   0.231
  549SOL    HW1 1667   1.743   2.456   0.132
  549SOL    HW2 1668   1.725   2.388   0.280
  550SOL     OW 1669   0.768   3.006   1.023
  550SOL    HW1 1670   0.690   3.023   1.083
  550SOL    HW2 1671   0.802   3.093   0.987
  551SOL     OW 1672   0.850   2.660   1.823
  551SOL    HW1 1673   0.846   2.736   1.888
  551SOL    HW2 1674   0.872   2.696   1.732
  552SOL     OW 1675   0.685   2.874   0.665
  552SOL    HW1 1676   0.754   2.858   0.735
  552SOL    HW2 1677   0.612   2.931   0.703
  553SOL     OW 1678   0.686   3.023   1.803
  553SOL    HW1 1679   0.746   3.102   1.817
  553SOL    HW2 1680   0.600   3.054   1.762
  554SOL     OW 1681   0.335   3.297   1.061
  554SOL    HW1 1682   0.257   3.266   1.008
  554SOL    HW2 1683   0.393   3.355   1.004
  555SOL     OW 1684   1.460   3.367   1.339
  555SOL    HW1 1685   1.484   3.461   1.365
  555SOL    HW2 1686   1.444   3.313   1.421
  556SOL     OW 1687   0.438   2.254   1.499
  556SOL    HW1 1688   0.520   2.198   1.508
  556SOL    HW2 1689   0.357   2.196   1.503
  557SOL     OW 1690   1.603   2.309   0.737
  557SOL    HW1 1691   1.529   2.355   0.687
  557SOL    HW2 1692   1.654   2.377   0.790
  558SOL     OW 1693   0.231   3.575   0.483
  558SOL    HW1 1694   0.265   3.652   0.537
  558SOL    HW2 1695   0.275   3.575   0.393
  559SOL     OW 1696   1.127   3.203   1.690
  559SOL    HW1 1697   1.174   3.203   1.778
  559SOL    HW2 1698   1.079   3.116   1.679
  560SOL     OW 1699   0.230   3.296   0.538
  560SOL    HW1 1700   0.204   3.392   0.538
  560SOL    HW2 1701   0.159   3.242   0.583
  561SOL     OW 1702   0.240   2.953   0.886
  561SOL    HW1 1703   0.254   2.869   0.938
  561SOL    HW2 1704   0.185   3.017   0.941
  562SOL     OW 1705   0.620   3.648   1.439
  562SOL    HW1 1706   0.528   3.631   1.474
  562SOL    HW2 1707   0.648   3.740   1.465
  563SOL     OW 1708   0.606   2.826   0.123
  563SOL    HW1 1709   0.613   2.910   0.069
  563SOL    HW2 1710   0.652   2.839   0.211
  564SOL     OW 1711   1.594   1.976   1.480
  564SOL    HW1 1712   1.576   2.043   1.408
  564SOL    HW2 1713   1.591   2.022   1.569
  565SOL     OW 1714   0.122   2.505   0.563
  565SOL    HW1 1715   0.077   2.417   0.580
  565SOL    HW2 1716   0.121   2.559   0.647
  566SOL     OW 1717   1.842   3.629   0.359
  566SOL    HW1 1718   1.896   3.600   0.439
  566SOL    HW2 1719   1.872   3.719   0.330
  567SOL     OW 1720   0.027   3.458   0.117
  567SOL    HW1 1721   0.008   3.362   0.138
  567SOL    HW2 1722  -0.006   3.516   0.192
  568SOL     OW 1723   1.689   2.784   0.612
  568SOL    HW1 1724   1.784   2.755   0.620
  568SOL    HW2 1725   1.681   2.849   0.537
  569SOL     OW 1726   1.641   2.970   0.432
  569SOL    HW1 1727   1.727   2.972   0.380
  569SOL    HW2 1728   1.655   3.017   0.520
  570SOL     OW 1729   0.113   2.599   1.597
  570SOL    HW1 1730   0.201   2.586   1.642
  570SOL    HW2 1731   0.100   2.696   1.575
  571SOL     OW 1732   0.613   3.227   0.726
  571SOL    HW1 1733   0.564   3.140   0.735
  571SOL    HW2 1734   0.590   3.270   0.639
  572SOL     OW 1735   1.293   3.090   1.423
  572SOL    HW1 1736   1.330   3.017   1.365
  572SOL    HW2 1737   1.345   3.095   1.508
  573SOL     OW 1738   0.809   1.866   0.502
  573SOL    HW1 1739   0.849   1.957   0.493
  573SOL    HW2 1740   0.709   1.874   0.508
  574SOL     OW 1741   0.197   2.838   1.264
  574SOL    HW1 1742   0.286   2.793   1.250
  574SOL    HW2 1743   0.124   2.773   1.245
  575SOL     OW 1744   1.525   2.861   0.190
  575SOL    HW1 1745   1.462   2.785   0.203
  575SOL    HW2 1746   1.573   2.879   0.276
  576SOL     OW 1747   1.187   3.654   1.616
  576SOL    HW1 1748   1.211   3.714   1.540
  576SOL    HW2 1749   1.194   3.559   1.586
  577SOL     OW 1750   0.317   2.113   1.801
  577SOL    HW1 1751   0.388   2.184   1.807
  577SOL    HW2 1752   0.229   2.152   1.829
  578SOL     OW 1753   1.466   3.279   0.953
  578SOL    HW1 1754   1.407   3.285   1.033
  578SOL    HW2 1755   1.451   3.191   0.907
  579SOL     OW 1756   1.667   3.576   0.572
  579SOL    HW1 1757   1.626   3.553   0.484
  579SOL    HW2 1758   1.649   3.502   0.637
  580SOL     OW 1759   0.598   2.591   0.270
  580SOL    HW1 1760   0.622   2.660   0.202
  580SOL    HW2 1761   0.520   2.624   0.324
  581SOL     OW 1762   1.281   2.207   0.944
  581SOL    HW1 1763   1.195   2.157   0.931
  581SOL    HW2 1764   1.343   2.153   1.000
  582SOL     OW 1765   1.576   3.524   0.307
  582SOL    HW1 1766   1.665   3.570   0.310
  582SOL    HW2 1767   1.555   3.500   0.212
  583SOL     OW 1768   0.807   2.467   1.465
  583SOL    HW1 1769   0.760   2.464   1.554
  583SOL    HW2 1770   0.756   2.412   1.399
  584SOL     OW 1771   1.394   2.331   1.674
  584SOL    HW1 1772   1.374   2.374   1.762
  584SOL    HW2 1773   1.472   2.269   1.683
  585SOL     OW 1774   0.973   2.752   1.572
  585SOL    HW1 1775   1.019   2.668   1.543
  585SOL    HW2 1776   0.917   2.786   1.497
  586SOL     OW 1777   0.991   2.272   1.242
  586SOL    HW1 1778   0.914   2.306   1.296
  586SOL    HW2 1779   0.957   2.221   1.163
  587SOL     OW 1780   1.041   2.563   0.429
  587SOL    HW1 1781   1.067   2.559   0.525
  587SOL    HW2 1782   0.956   2.512   0.415
  588SOL     OW 1783   0.076   2.673   0.789
  588SOL    HW1 1784   0.175   2.661   0.798
  588SOL    HW2 1785   0.052   2.768   0.810
  589SOL     OW 1786   0.130   3.683   1.571
  589SOL    HW1 1787   0.120   3.668   1.670
  589SOL    HW2 1788   0.044   3.719   1.535
  590SOL     OW 1789   0.865   2.210   0.195
  590SOL    HW1 1790   0.924   2.273   0.146
  590SOL    HW2 1791   0.884   2.116   0.166
  591SOL     OW 1792   1.719   2.447   1.831
  591SOL    HW1 1793   1.693   2.536   1.795
  591SOL    HW2 1794   1.717   2.379   1.758
  592SOL     OW 1795   1.362   3.006   0.545
  592SOL    HW1 1796   1.445   2.977   0.497
  592SOL    HW2 1797   1.313   3.073   0.489
  593SOL     OW 1798   0.550   2.058   0.885
  593SOL    HW1 1799   0.545   2.053   0.985
  593SOL    HW2 1800   0.552   2.154   0.856
  594SOL     OW 1801   1.008   3.318   0.477
  594SOL    HW1 1802   0.962   3.390   0.425
  594SOL    HW2 1803   1.004   3.338   0.575
  595SOL     OW 1804   0.351   3.663   0.853
  595SOL    HW1 1805   0.401   3.577   0.859
  595SOL    HW2 1806   0.416   3.740   0.850
  596SOL     OW 1807   1.795   2.928   0.873
  596SOL    HW1 1808   1.733   2.913   0.797
  596SOL    HW2 1809   1.743   2.939   0.958
  597SOL     OW 1810   1.227   3.412   1.506
  597SOL    HW1 1811   1.233   3.335   1.570
  597SOL    HW2 1812   1.175   3.386   1.426
  598SOL     OW 1813   0.321   2.805   0.242
  598SOL    HW1 1814   0.403   2.844   0.200
  598SOL    HW2 1815   0.294   2.723   0.193
  599SOL     OW 1816   1.458   2.597   0.728
  599SOL    HW1 1817   1.453   2.532   0.803
  599SOL    HW2 1818   1.538   2.656   0.741
  600SOL     OW 1819   0.461   3.128   1.727
  600SOL    HW1 1820   0.411   3.129   1.641
  600SOL    HW2 1821   0.398   3.110   1.803
  601SOL     OW 1822   1.111   3.638   0.237
  601SOL    HW1 1823   1.051   3.576   0.287
  601SOL    HW2 1824   1.142   3.594   0.152
  602SOL     OW 1825   0.202   2.147   1.498
  602SOL    HW1 1826   0.122   2.207   1.485
  602SOL    HW2 1827   0.192   2.098   1.584
  603SOL     OW 1828   1.632   3.239   0.081
  603SOL    HW1 1829   1.600   3.333   0.071
  603SOL    HW2 1830   1.556   3.176   0.069
  604SOL     OW 1831   0.464   3.605   0.323
  604SOL    HW1 1832   0.497   3.644   0.409
  604SOL    HW2 1833   0.540   3.598   0.258
  605SOL     OW 1834   1.400   1.969   0.426
  605SOL    HW1 1835   1.376   1.932   0.336
  605SOL    HW2 1836   1.499   1.985   0.430
  606SOL     OW 1837   0.249   3.647   1.241
  606SOL    HW1 1838   0.306   3.582   1.291
  606SOL    HW2 1839   0.233   3.614   1.148
  607SOL     OW 1840   0.940   3.560   0.904
  607SOL    HW1 1841   1.020   3.503   0.925
  607SOL    HW2 1842   0.891   3.520   0.827
  608SOL     OW 1843   0.382   2.562   0.480
  608SOL    HW1 1844   0.427   2.472   0.477
  608SOL    HW2 1845   0.288   2.551   0.513
  609SOL     OW 1846   1.547   2.084   1.729
  609SOL    HW1 1847   1.542   2.121   1.821
  609SOL    HW2 1848   1.475   2.015   1.717
  610SOL     OW 1849   0.614   1.984   0.117
  610SOL    HW1 1850   0.712   1.962   0.124
  610SOL    HW2 1851   0.583   1.967   0.024
  611SOL     OW 1852   0.781   2.126   1.749
  611SOL    HW1 1853   0.848   2.065   1.792
  611SOL    HW2 1854   0.708   2.145   1.814
  612SOL     OW 1855   0.888   3.376   1.195
  612SOL    HW1 1856   0.865   3.351   1.101
  612SOL    HW2 1857   0.949   3.307   1.234
  613SOL     OW 1858   1.351   2.452   1.433
  613SOL    HW1 1859   1.379   2.409   1.518
  613SOL    HW2 1860   1.376   2.548   1.434
  614SOL     OW 1861   0.803   3.264   0.924
  614SOL    HW1 1862   0.893   3.278   0.882
  614SOL    HW2 1863   0.732   3.266   0.853
  615SOL     OW 1864   0.922   2.365   0.899
  615SOL    HW1 1865   0.897   2.356   0.803
  615SOL    HW2 1866   0.970   2.283   0.930
  616SOL     OW 1867   0.539   1.926   0.512
  616SOL    HW1 1868   0.458   1.927   0.570
  616SOL    HW2 1869   0.542   2.009   0.457
  617SOL     OW 1870   1.434   3.050   0.041
  617SOL    HW1 1871   1.466   2.974   0.098
  617SOL    HW2 1872   1.342   3.077   0.071
  618SOL     OW 1873   0.935   2.098   0.480
  618SOL    HW1 1874   0.887   2.139   0.402
  618SOL    HW2 1875   1.034   2.096   0.461
  619SOL     OW 1876   1.076   2.545   1.464
  619SOL    HW1 1877   0.996   2.484   1.467
  619SOL    HW2 1878   1.157   2.492   1.440
  620SOL     OW 1879   1.227   3.432   0.793
  620SOL    HW1 1880   1.248   3.506   0.728
  620SOL    HW2 1881   1.295   3.432   0.866
  621SOL     OW 1882   0.459   3.014   0.741
  621SOL    HW1 1883   0.388   2.987   0.806
  621SOL    HW2 1884   0.433   2.986   0.648
  622SOL     OW 1885   1.271   3.659   0.591
  622SOL    HW1 1886   1.315   3.723   0.527
  622SOL    HW2 1887   1.221   3.711   0.661
  623SOL     OW 1888   1.032   2.411   0.016
  623SOL    HW1 1889   0.991   2.493  -0.023
  623SOL    HW2 1890   1.096   2.437   0.089
  624SOL     OW 1891   0.078   2.418   1.386
  624SOL    HW1 1892   0.170   2.417   1.345
  624SOL    HW2 1893   0.072   2.492   1.453
  625SOL     OW 1894   0.561   2.084   1.147
  625SOL    HW1 1895   0.599   2.000   1.184
  625SOL    HW2 1896   0.473   2.103   1.191
  626SOL     OW 1897   0.866   2.316   0.642
  626SOL    HW1 1898   0.834   2.388   0.580
  626SOL    HW2 1899   0.890   2.235   0.589
  627SOL     OW 1900   1.017   1.901   0.753
  627SOL    HW1 1901   0.945   1.906   0.684
  627SOL    HW2 1902   0.993   1.832   0.822
  628SOL     OW 1903   1.429   3.035   0.867
  628SOL    HW1 1904   1.374   2.951   0.860
  628SOL    HW2 1905   1.455   3.064   0.775
  629SOL     OW 1906   1.466   2.452   0.992
  629SOL    HW1 1907   1.436   2.357   0.999
  629SOL    HW2 1908   1.539   2.468   1.058
  630SOL     OW 1909   1.857   2.695   0.377
  630SOL    HW1 1910   1.899   2.631   0.441
  630SOL    HW2 1911   1.819   2.644   0.299
  631SOL     OW 1912   0.488   3.247   0.174
  631SOL    HW1 1913   0.401   3.232   0.221
  631SOL    HW2 1914   0.471   3.273   0.079
  632SOL     OW 1915   1.664   3.142   0.657
  632SOL    HW1 1916   1.763   3.150   0.671
  632SOL    HW2 1917   1.619   3.226   0.688
  633SOL     OW 1918   1.390   2.437   0.078
  633SOL    HW1 1919   1.336   2.416   0.159
  633SOL    HW2 1920   1.481   2.396   0.087
  634SOL     OW 1921   0.527   2.118   0.328
  634SOL    HW1 1922   0.554   2.059   0.253
  634SOL    HW2 1923   0.527   2.213   0.297
  635SOL     OW 1924   1.754   3.085   1.588
  635SOL    HW1 1925   1.845   3.046   1.575
  635SOL    HW2 1926   1.762   3.181   1.612
  636SOL     OW 1927   1.064   3.209   1.340
  636SOL    HW1 1928   0.984   3.186   1.395
  636SOL    HW2 1929   1.147   3.183   1.389
  637SOL     OW 1930   1.592   3.491   1.625
  637SOL    HW1 1931   1.619   3.525   1.535
  637SOL    HW2 1932   1.671   3.453   1.671
  638SOL     OW 1933   1.111   3.057   1.100
  638SOL    HW1 1934   1.071   3.101   1.181
  638SOL    HW2 1935   1.070   3.094   1.017
  639SOL     OW 1936   1.638   2.961   1.079
  639SOL    HW1 1937   1.643   3.042   1.138
  639SOL    HW2 1938   1.552   2.963   1.028
  640SOL     OW 1939   0.915   1.951   1.402
  640SOL    HW1 1940   0.940   1.931   1.307
  640SOL    HW2 1941   0.987   2.007   1.444
  641SOL     OW 1942   0.980   2.978   1.719
  641SOL    HW1 1943   0.881   2.984   1.729
  641SOL    HW2 1944   1.003   2.898   1.663
  642SOL     OW 1945   0.705   2.912   0.368
  642SOL    HW1 1946   0.691   2.919   0.467
  642SOL    HW2 1947   0.789   2.861   0.350
  643SOL     OW 1948   0.410   2.675   1.251
  643SOL    HW1 1949   0.496   2.687   1.301
  643SOL    HW2 1950   0.368   2.588   1.278
  644SOL     OW 1951   1.274   2.248   1.262
  644SOL    HW1 1952   1.295   2.322   1.326
  644SOL    HW2 1953   1.185   2.265   1.219
  645SOL     OW 1954   0.064   3.426   1.331
  645SOL    HW1 1955   0.018   3.508   1.297
  645SOL    HW2 1956   0.162   3.445   1.340
  646SOL     OW 1957   0.367   2.962   0.501
  646SOL    HW1 1958   0.360   3.045   0.445
  646SOL    HW2 1959   0.371   2.882   0.441
  647SOL     OW 1960   0.566   2.399   0.865
  647SOL    HW1 1961   0.578   2.465   0.791
  647SOL    HW2 1962   0.612   2.433   0.948
  648SOL     OW 1963   1.252   3.210   0.388
  648SOL    HW1 1964   1.302   3.287   0.428
  648SOL    HW2 1965   1.157   3.212   0.420
  649SOL     OW 1966   1.272   3.307   1.142
  649SOL    HW1 1967   1.319   3.320   1.229
  649SOL    HW2 1968   1.206   3.233   1.151
  650SOL     OW 1969   1.582   2.501   0.472
  650SOL    HW1 1970   1.551   2.562   0.545
  650SOL    HW2 1971   1.632   2.553   0.403
  651SOL     OW 1972   0.354   3.372   1.329
  651SOL    HW1 1973   0.333   3.328   1.242
  651SOL    HW2 1974   0.451   3.398   1.332
  652SOL     OW 1975   0.402   2.613   1.598
  652SOL    HW1 1976   0.470   2.668   1.551
  652SOL    HW2 1977   0.442   2.525   1.625
  653SOL     OW 1978   1.587   2.641   1.670
  653SOL    HW1 1979   1.495   2.679   1.665
  653SOL    HW2 1980   1.647   2.688   1.605
  654SOL     OW 1981   1.013   1.967   1.770
  654SOL    HW1 1982   1.019   2.052   1.718
  654SOL    HW2 1983   1.045   1.891   1.713
  655SOL     OW 1984   0.504   1.912   1.740
  655SOL    HW1 1985   0.462   1.855   1.670
  655SOL    HW2 1986   0.438   1.981   1.772
  656SOL     OW 1987   0.573   2.732   1.029
  656SOL    HW1 1988   0.617   2.821   1.020
  656SOL    HW2 1989   0.510   2.732   1.106
  657SOL     OW 1990   1.360   2.724   1.045
  657SOL    HW1 1991   1.285   2.724   0.979
  657SOL    HW2 1992   1.397   2.632   1.054
  658SOL     OW 1993   1.209   2.387   0.275
  658SOL    HW1 1994   1.222   2.303   0.329
  658SOL    HW2 1995   1.180   2.461   0.335
  659SOL     OW 1996   0.307   2.075   1.231
  659SOL    HW1 1997   0.284   2.112   1.321
  659SOL    HW2 1998   0.277   1.980   1.225
  660SOL     OW 1999   0.037   3.172   1.282
  660SOL    HW1 2000   0.090   3.123   1.350
  660SOL    HW2 2001   0.059   3.270   1.287
  661SOL     OW 2002   0.732   2.496   1.064
  661SOL    HW1 2003   0.791   2.470   0.988
  661SOL    HW2 2004   0.704   2.592   1.053
  662SOL     OW 2005   1.728   2.797   1.854
  662SOL    HW1 2006   1.682   2.790   1.765
  662SOL    HW2 2007   1.666   2.841   1.920
  663SOL     OW 2008   0.307   1.925   0.618
  663SOL    HW1 2009   0.296   2.019   0.651
  663SOL    HW2 2010   0.302   1.862   0.695
  664SOL     OW 2011   1.622   2.229   0.374
  664SOL    HW1 2012   1.624   2.153   0.438
  664SOL    HW2 2013   1.574   2.306   0.414
  665SOL     OW 2014   1.023   2.628   0.966
  665SOL    HW1 2015   1.038   2.649   1.062
  665SOL    HW2 2016   0.993   2.533   0.957
  666SOL     OW 2017   0.980   3.435   1.700
  666SOL    HW1 2018   0.960   3.479   1.612
  666SOL    HW2 2019   1.019   3.344   1.684
  667SOL     OW 2020   1.859   3.380   1.605
  667SOL    HW1 2021   1.873   3.407   1.510
  667SOL    HW2 2022   1.942   3.402   1.658
  668SOL     OW 2023   0.350   2.760   1.804
  668SOL    HW1 2024   0.426   2.804   1.852
  668SOL    HW2 2025   0.385   2.713   1.722
  669SOL     OW 2026   1.540   2.136   0.125
  669SOL    HW1 2027   1.479   2.061   0.148
  669SOL    HW2 2028   1.562   2.188   0.208
  670SOL     OW 2029   1.303   2.700   0.042
  670SOL    HW1 2030   1.337   2.607   0.057
  670SOL    HW2 2031   1.321   2.727  -0.053
  671SOL     OW 2032   1.068   3.195   0.849
  671SOL    HW1 2033   1.075   3.111   0.794
  671SOL    HW2 2034   1.130   3.264   0.813
  672SOL     OW 2035   0.319   2.672   0.949
  672SOL    HW1 2036   0.412   2.708   0.954
  672SOL    HW2 2037   0.313   2.587   1.001
  673SOL     OW 2038   0.339   2.371   1.006
  673SOL    HW1 2039   0.287   2.288   0.989
  673SOL    HW2 2040   0.416   2.376   0.942
  674SOL     OW 2041   1.138   2.242   1.678
  674SOL    HW1 2042   1.093   2.305   1.742
  674SOL    HW2 2043   1.231   2.273   1.661
  675SOL     OW 2044   1.160   2.069   1.477
  675SOL    HW1 2045   1.160   2.133   1.554
  675SOL    HW2 2046   1.188   2.117   1.394
  676SOL     OW 2047   0.008   3.188   0.200
  676SOL    HW1 2048  -0.085   3.209   0.169
  676SOL    HW2 2049   0.018   3.089   0.213
  677SOL     OW 2050   0.088   3.663   0.927
  677SOL    HW1 2051   0.046   3.577   0.900
  677SOL    HW2 2052   0.182   3.666   0.893
  678SOL     OW 2053   0.504   3.430   0.910
  678SOL    HW1 2054   0.570   3.504   0.919
  678SOL    HW2 2055   0.548   3.351   0.868
  679SOL     OW 2056   1.002   2.658   1.238
  679SOL    HW1 2057   1.043   2.626   1.324
  679SOL    HW2 2058   0.906   2.631   1.235
  680SOL     OW 2059   0.040   2.406   1.114
  680SOL    HW1 2060   0.125   2.373   1.073
  680SOL    HW2 2061   0.053   2.421   1.212
  681SOL     OW 2062   0.189   2.382   1.722
  681SOL    HW1 2063   0.248   2.342   1.652
  681SOL    HW2 2064   0.131   2.453   1.681
  682SOL     OW 2065   1.369   2.812   1.660
  682SOL    HW1 2066   1.408   2.901   1.680
  682SOL    HW2 2067   1.379   2.792   1.563
  683SOL     OW 2068   0.815   2.434   0.325
  683SOL    HW1 2069   0.822   2.345   0.279
  683SOL    HW2 2070   0.721   2.468   0.317
  684SOL     OW 2071   1.657   2.466   1.206
  684SOL    HW1 2072   1.619   2.397   1.268
  684SOL    HW2 2073   1.739   2.430   1.162
  685SOL     OW 2074   0.252   3.426   1.744
  685SOL    HW1 2075   0.222   3.483   1.820
  685SOL    HW2 2076   0.245   3.329   1.770
  686SOL     OW 2077   0.671   2.326   1.269
  686SOL    HW1 2078   0.637   2.237   1.239
  686SOL    HW2 2079   0.697   2.380   1.189
  687SOL     OW 2080   0.930   3.540   1.465
  687SOL    HW1 2081   0.906   3.522   1.370
  687SOL    HW2 2082   0.960   3.634   1.475
  688SOL     OW 2083   0.473   2.362   0.191
  688SOL    HW1 2084   0.534   2.442   0.195
  688SOL    HW2 2085   0.378   2.393   0.198
  689SOL     OW 2086   0.159   2.999   1.466
  689SOL    HW1 2087   0.181   2.938   1.542
  689SOL    HW2 2088   0.169   2.950   1.380
  690SOL     OW 2089   1.347   2.921   1.234
  690SOL    HW1 2090   1.371   2.858   1.160
  690SOL    HW2 2091   1.257   2.961   1.216
  691SOL     OW 2092   1.302   2.717   0.309
  691SOL    HW1 2093   1.216   2.686   0.351
  691SOL    HW2 2094   1.298   2.703   0.210
  692SOL     OW 2095   1.759   3.609   1.154
  692SOL    HW1 2096   1.820   3.639   1.081
  692SOL    HW2 2097   1.721   3.520   1.132
  693SOL     OW 2098   1.252   3.593   1.128
  693SOL    HW1 2099   1.336   3.598   1.074
  693SOL    HW2 2100   1.229   3.497   1.146
  694SOL     OW 2101   0.083   3.120   1.022
  694SOL    HW1 2102   0.078   3.119   1.122
  694SOL    HW2 2103   0.000   3.079   0.984
  695SOL     OW 2104   0.688   3.524   1.716
  695SOL    HW1 2105   0.632   3.605   1.725
  695SOL    HW2 2106   0.740   3.528   1.630
  696SOL     OW 2107   0.903   1.948   0.133
  696SOL    HW1 2108   0.954   1.949   0.047
  696SOL    HW2 2109   0.959   1.906   0.204
  697SOL     OW 2110   1.726   1.997   0.523
  697SOL    HW1 2111   1.799   1.980   0.456
  697SOL    HW2 2112   1.695   1.910   0.561
  698SOL     OW 2113   1.388   3.435   0.477
  698SOL    HW1 2114   1.455   3.447   0.403
  698SOL    HW2 2115   1.348   3.524   0.500
  699SOL     OW 2116   0.130   3.656   1.851
  699SOL    HW1 2117   0.089   3.582   1.904
  699SOL    HW2 2118   0.194   3.707   1.909
  700SOL     OW 2119   1.280   2.789   0.672
  700SOL    HW1 2120   1.340   2.708   0.674
  700SOL    HW2 2121   1.320   2.858   0.612
  701SOL     OW 2122   0.830   3.135   1.422
  701SOL    HW1 2123   0.825   3.168   1.517
  701SOL    HW2 2124   0.744   3.154   1.376
  702SOL     OW 2125   0.672   3.478   0.154
  702SOL    HW1 2126   0.681   3.488   0.055
  702SOL    HW2 2127   0.632   3.389   0.175
  703SOL     OW 2128   1.650   3.582   1.394
  703SOL    HW1 2129   1.703   3.592   1.310
  703SOL    HW2 2130   1.623   3.672   1.428
  704SOL     OW 2131   1.841   2.037   0.963
  704SOL    HW1 2132   1.880   1.952   0.927
  704SOL    HW2 2133   1.743   2.039   0.944
  705SOL     OW 2134   0.263   2.188   0.720
  705SOL    HW1 2135   0.184   2.239   0.686
  705SOL    HW2 2136   0.254   2.173   0.818
  706SOL     OW 2137   1.194   3.474   0.031
  706SOL    HW1 2138   1.200   3.381   0.068
  706SOL    HW2 2139   1.135   3.474  -0.049
  707SOL     OW 2140   0.822   2.864   1.372
  707SOL    HW1 2141   0.862   2.863   1.280
  707SOL    HW2 2142   0.832   2.956   1.412
  708SOL     OW 2143   0.916   2.772   0.291
  708SOL    HW1 2144   0.979   2.810   0.223
  708SOL    HW2 2145   0.956   2.689   0.330
  709SOL     OW 2146   1.504   3.469   0.044
  709SOL    HW1 2147   1.412   3.506   0.051
  709SOL    HW2 2148   1.542   3.489  -0.046
  710SOL     OW 2149   0.372   3.150   1.490
  710SOL    HW1 2150   0.359   3.243   1.456
  710SOL    HW2 2151   0.288   3.098   1.477
  711SOL     OW 2152   1.614   3.154   1.289
  711SOL    HW1 2153   1.674   3.157   1.369
  711SOL    HW2 2154   1.539   3.218   1.302
  712SOL     OW 2155   1.039   2.960   0.696
  712SOL    HW1 2156   0.969   2.913   0.750
  712SOL    HW2 2157   1.098   2.892   0.653
  713SOL     OW 2158   1.014   2.098   0.971
  713SOL    HW1 2159   1.006   2.062   0.878
  713SOL    HW2 2160   1.012   2.022   1.036
  714SOL     OW 2161   0.590   3.349   0.491
  714SOL    HW1 2162   0.632   3.291   0.421
  714SOL    HW2 2163   0.546   3.428   0.447
  715SOL     OW 2164   1.709   2.247   1.381
  715SOL    HW1 2165   1.782   2.316   1.385
  715SOL    HW2 2166   1.737   2.172   1.322
  716SOL     OW 2167   0.255   3.210   0.290
  716SOL    HW1 2168   0.159   3.211   0.263
  716SOL    HW2 2169   0.267   3.263   0.374
  717SOL     OW 2170   0.105   2.875   1.726
  717SOL    HW1 2171   0.028   2.842   1.780
  717SOL    HW2 2172   0.190   2.845   1.768
  718SOL     OW 2173   0.672   2.065   1.489
  718SOL    HW1 2174   0.762   2.049   1.449
  718SOL    HW2 2175   0.680   2.070   1.588
  719SOL     OW 2176   0.075   2.207   0.033
  719SOL    HW1 2177  -0.017   2.179   0.004
  719SOL    HW2 2178   0.106   2.284  -0.023
  720SOL     OW 2179   1.440   2.718   1.398
  720SOL    HW1 2180   1.383   2.770   1.335
  720SOL    HW2 2181   1.536   2.730   1.374
  721SOL     OW 2182   0.072   2.028   0.318
  721SOL    HW1 2183   0.055   2.111   0.264
  721SOL    HW2 2184   0.162   1.991   0.296
  722SOL     OW 2185   1.183   3.197   0.119
  722SOL    HW1 2186   1.084   3.186   0.121
  722SOL    HW2 2187   1.217   3.212   0.212
  723SOL     OW 2188   0.613   2.704   1.431
  723SOL    HW1 2189   0.669   2.785   1.414
  723SOL    HW2 2190   0.672   2.624   1.434
  724SOL     OW 2191   1.493   3.629   0.959
  724SOL    HW1 2192   1.526   3.693   0.890
  724SOL    HW2 2193   1.559   3.623   1.034
  725SOL     OW 2194   0.716   2.427   1.708
  725SOL    HW1 2195   0.735   2.492   1.782
  725SOL    HW2 2196   0.776   2.347   1.717
  726SOL     OW 2197   1.450   3.082   1.633
  726SOL    HW1 2198   1.441   3.072   1.732
  726SOL    HW2 2199   1.546   3.075   1.607
  727SOL     OW 2200   0.390   3.603   1.560
  727SOL    HW1 2201   0.299   3.644   1.558
  727SOL    HW2 2202   0.383   3.509   1.592
  728SOL     OW 2203   1.674   2.745   1.254
  728SOL    HW1 2204   1.647   2.656   1.217
  728SOL    HW2 2205   1.675   2.813   1.181
  729SOL     OW 2206   1.225   2.187   0.449
  729SOL    HW1 2207   1.290   2.113   0.438
  729SOL    HW2 2208   1.245   2.237   0.533
  730SOL     OW 2209   0.594   2.607   0.652
  730SOL    HW1 2210   0.644   2.692   0.633
  730SOL    HW2 2211   0.506   2.609   0.604
  731SOL     OW 2212   1.777   2.204   1.642
  731SOL    HW1 2213   1.760   2.235   1.548
  731SOL    HW2 2214   1.693   2.167   1.680
  732SOL     OW 2215   1.730   2.796   1.517
  732SOL    HW1 2216   1.768   2.887   1.532
  732SOL    HW2 2217   1.722   2.779   1.418
  733SOL     OW 2218   0.859   3.236   0.016
  733SOL    HW1 2219   0.813   3.251   0.104
  733SOL    HW2 2220   0.903   3.321  -0.014
  734SOL     OW 2221   0.661   3.652   0.953
  734SOL    HW1 2222   0.615   3.740   0.940
  734SOL    HW2 2223   0.760   3.664   0.946
  735SOL     OW 2224   0.859   2.818   0.861
  735SOL    HW1 2225   0.913   2.749   0.909
  735SOL    HW2 2226   0.827   2.887   0.927
  736SOL     OW 2227   1.083   2.846   0.087
  736SOL    HW1 2228   1.060   2.899   0.005
  736SOL    HW2 2229   1.164   2.790   0.068
  737SOL     OW 2230   1.861   3.431   0.851
  737SOL    HW1 2231   1.790   3.419   0.781
  737SOL    HW2 2232   1.862   3.352   0.911
  738SOL     OW 2233   0.221   3.176   1.844
  738SOL    HW1 2234   0.156   3.103   1.823
  738SOL    HW2 2235   0.225   3.190   1.942
  739SOL     OW 2236   0.079   3.102   0.653
  739SOL    HW1 2237   0.078   3.055   0.741
  739SOL    HW2 2238   0.161   3.074   0.602
  740SOL     OW 2239   0.672   3.253   1.624
  740SOL    HW1 2240   0.594   3.203   1.662
  740SOL    HW2 2241   0.669   3.348   1.655
  741SOL     OW 2242   1.824   2.054   1.227
  741SOL    HW1 2243   1.820   1.964   1.271
  741SOL    HW2 2244   1.827   2.043   1.128
  742SOL     OW 2245   0.428   2.286   0.520
  742SOL    HW1 2246   0.458   2.214   0.458
  742SOL    HW2 2247   0.389   2.246   0.603
  743SOL     OW 2248   1.705   3.349   1.104
  743SOL    HW1 2249   1.612   3.324   1.077
  743SOL    HW2 2250   1.731   3.299   1.186
  744SOL     OW 2251   0.317   2.409   1.280
  744SOL    HW1 2252   0.355   2.350   1.352
  744SOL    HW2 2253   0.357   2.383   1.192
  745SOL     OW 2254   0.812   3.448   0.687
  745SOL    HW1 2255   0.844   3.458   0.593
  745SOL    HW2 2256   0.733   3.386   0.689
  746SOL     OW 2257   1.424   2.076   1.112
  746SOL    HW1 2258   1.476   2.011   1.167
  746SOL    HW2 2259   1.375   2.139   1.173
  747SOL     OW 2260   1.001   1.896   1.154
  747SOL    HW1 2261   0.938   1.824   1.123
  747SOL    HW2 2262   1.094   1.860   1.154
  748SOL     OW 2263   0.770   3.192   0.301
  748SOL    HW1 2264   0.724   3.105   0.318
  748SOL    HW2 2265   0.861   3.189   0.342
  749SOL     OW 2266   0.618   3.429   1.284
  749SOL    HW1 2267   0.613   3.511   1.341
  749SOL    HW2 2268   0.707   3.426   1.239
  750SOL     OW 2269   1.352   1.914   0.168
  750SOL    HW1 2270   1.387   1.873   0.084
  750SOL    HW2 2271   1.262   1.876   0.188
  751SOL     OW 2272   1.300   2.315   0.691
  751SOL    HW1 2273   1.241   2.395   0.695
  751SOL    HW2 2274   1.315   2.280   0.784
  752SOL     OW 2275   1.593   2.083   0.882
  752SOL    HW1 2276   1.509   2.082   0.936
  752SOL    HW2 2277   1.595   2.166   0.826
  753SOL     OW 2278   0.039   2.939   0.300
  753SOL    HW1 2279   0.138   2.928   0.291
  753SOL    HW2 2280  -0.001   2.853   0.332
  754SOL     OW 2281   0.875   3.508   0.337
  754SOL    HW1 2282   0.798   3.473   0.283
  754SOL    HW2 2283   0.843   3.579   0.399
  755SOL     OW 2284   0.230   2.490   1.975
  755SOL    HW1 2285   0.137   2.488   2.012
  755SOL    HW2 2286   0.231   2.451   1.883
  756SOL     OW 2287   0.225   2.137   2.858
  756SOL    HW1 2288   0.260   2.120   2.950
  756SOL    HW2 2289   0.137   2.092   2.846
  757SOL     OW 2290   0.019   2.230   2.509
  757SOL    HW1 2291  -0.063   2.273   2.548
  757SOL    HW2 2292  -0.009   2.157   2.446
  758SOL     OW 2293   0.569   3.137   3.027
  758SOL    HW1 2294   0.476   3.130   2.990
  758SOL    HW2 2295   0.580   3.226   3.071
  759SOL     OW 2296   1.555   3.373   2.565
  759SOL    HW1 2297   1.498   3.357   2.646
  759SOL    HW2 2298   1.496   3.383   2.485
  760SOL     OW 2299   1.135   2.565   2.579
  760SOL    HW1 2300   1.192   2.643   2.554
  760SOL    HW2 2301   1.075   2.591   2.655
  761SOL     OW 2302   1.755   2.469   2.093
  761SOL    HW1 2303   1.743   2.456   1.994
  761SOL    HW2 2304   1.725   2.388   2.142
  762SOL     OW 2305   0.768   3.006   2.885
  762SOL    HW1 2306   0.690   3.023   2.945
  762SOL    HW2 2307   0.802   3.093   2.849
  763SOL     OW 2308   0.850   2.660   3.685
  763SOL    HW1 2309   0.846   2.736   3.750
  763SOL    HW2 2310   0.872   2.696   3.594
  764SOL     OW 2311   0.685   2.874   2.527
  764SOL    HW1 2312   0.754   2.858   2.597
  764SOL    HW2 2313   0.612   2.931   2.565
  765SOL     OW 2314   0.686   3.023   3.665
  765SOL    HW1 2315   0.746   3.102   3.679
  765SOL    HW2 2316   0.600   3.054   3.624
  766SOL     OW 2317   0.335   3.297   2.923
  766SOL    HW1 2318   0.257   3.266   2.870
  766SOL    HW2 2319   0.393   3.355   2.866
  767SOL     OW 2320   1.460   3.367   3.201
  767SOL    HW1 2321   1.484   3.461   3.227
  767SOL    HW2 2322   1.444   3.313   3.283
  768SOL     OW 2323   0.438   2.254   3.361
  768SOL    HW1 2324   0.520   2.198   3.370
  768SOL    HW2 2325   0.357   2.196   3.365
  769SOL     OW 2326   1.603   2.309   2.599
  769SOL    HW1 2327   1.529   2.355   2.549
  769SOL    HW2 2328   1.654   2.377   2.652
  770SOL     OW 2329   0.231   3.575   2.345
  770SOL    HW1 2330   0.265   3.652   2.399
  770SOL    HW2 2331   0.275   3.575   2.255
  771SOL     OW 2332   1.127   3.203   3.552
  771SOL    HW1 2333   1.174   3.203   3.640
  771SOL    HW2 2334   1.079   3.116   3.541
  772SOL     OW 2335   0.230   3.296   2.400
  772SOL    HW1 2336   0.204   3.392   2.400
  772SOL    HW2 2337   0.159   3.242   2.445
  773SOL     OW 2338   0.240   2.953   2.748
  773SOL    HW1 2339   0.254   2.869   2.800
  773SOL    HW2 2340   0.185   3.017   2.803
  774SOL     OW 2341   0.620   3.648   3.301
  774SOL    HW1 2342   0.528   3.631   3.336
  774SOL    HW2 2343   0.648   3.740   3.327
  775SOL     OW 2344   0.606   2.826   1.985
  775SOL    HW1 2345   0.613   2.910   1.931
  775SOL    HW2 2346   0.652   2.839   2.073
  776SOL     OW 2347   1.594   1.976   3.342
  776SOL    HW1 2348   1.576   2.043   3.270
  776SOL    HW2 2349   1.591   2.022   3.431
  777SOL     OW 2350   0.122   2.505   2.425
  777SOL    HW1 2351   0.077   2.417   2.442
  777SOL    HW2 2352   0.121   2.559   2.509
  778SOL     OW 2353   1.842   3.629   2.221
  778SOL    HW1 2354   1.896   3.600   2.301
  778SOL    HW2 2355   1.872   3.719   2.192
  779SOL     OW 2356   0.027   3.458   1.979
  779SOL    HW1 2357   0.008   3.362   2.000
  779SOL    HW2 2358  -0.006   3.516   2.054
  780SOL     OW 2359   1.689   2.784   2.474
  780SOL    HW1 2360   1.784   2.755   2.482
  780SOL    HW2 2361   1.681   2.849   2.399
  781SOL     OW 2362   1.641   2.970   2.294
  781SOL    HW1 2363   1.727   2.972   2.242
  781SOL    HW2 2364   1.655   3.017   2.382
  782SOL     OW 2365   0.113   2.599   3.459
  782SOL    HW1 2366   0.201   2.586   3.504
  782SOL    HW2 2367   0.100   2.696   3.437
  783SOL     OW 2368   0.613   3.227   2.588
  783SOL    HW1 2369   0.564   3.140   2.597
  783SOL    HW2 2370   0.590   3.270   2.501
  784SOL     OW 2371   1.293   3.090   3.285
  784SOL    HW1 2372   1.330   3.017   3.227
  784SOL    HW2 2373   1.345   3.095   3.370
  785SOL     OW 2374   0.809   1.866   2.364
  785SOL    HW1 2375   0.849   1.957   2.355
  785SOL    HW2 2376   0.709   1.874   2.370
  786SOL     OW 2377   0.197   2.838   3.126
  786SOL    HW1 2378   0.286   2.793   3.112
  786SOL    HW2 2379   0.124   2.773   3.107
  787SOL     OW 2380   1.525   2.861   2.052
  787SOL    HW1 2381   1.462   2.785   2.065
  787SOL    HW2 2382   1.573   2.879   2.138
  788SOL     OW 2383   1.187   3.654   3.478
  788SOL    HW1 2384   1.211   3.714   3.402
  788SOL    HW2 2385   1.194   3.559   3.448
  789SOL     OW 2386   0.317   2.113   3.663
  789SOL    HW1 2387   0.388   2.184   3.669
  789SOL    HW2 2388   0.229   2.152   3.691
  790SOL     OW 2389   1.466   3.279   2.815
  790SOL    HW1 2390   1.407   3.285   2.895
  790SOL    HW2 2391   1.451   3.191   2.769
  791SOL     OW 2392   1.667   3.576   2.434
  791SOL    HW1 2393   1.626   3.553   2.346
  791SOL    HW2 2394   1.649   3.502   2.499
  792SOL     OW 2395   0.598   2.591   2.132
  792SOL    HW1 2396   0.622   2.660   2.064
  792SOL    HW2 2397   0.520   2.624   2.186
  793SOL     OW 2398   1.281   2.207   2.806
  793SOL    HW1 2399   1.195   2.157   2.793
  793SOL    HW2 2400   1.343   2.153   2.862
  794SOL     OW 2401   1.576   3.524   2.169
  794SOL    HW1 2402   1.665   3.570   2.172
  794SOL    HW2 2403   1.555   3.500   2.074
  795SOL     OW 2404   0.807   2.467   3.327
  795SOL    HW1 2405   0.760   2.464   3.416
  795SOL    HW2 2406   0.756   2.412   3.261
  796SOL     OW 2407   1.394   2.331   3.536
  796SOL    HW1 2408   1.374   2.374   3.624
  796SOL    HW2 2409   1.472   2.269   3.545
  797SOL     OW 2410   0.973   2.752   3.434
  797SOL    HW1 2411   1.019   2.668   3.405
  797SOL    HW2 2412   0.917   2.786   3.359
  798SOL     OW 2413   0.991   2.272   3.104
  798SOL    HW1 2414   0.914   2.306   3.158
  798SOL    HW2 2415   0.957   2.221   3.025
  799SOL     OW 2416   1.041   2.563   2.291
  799SOL    HW1 2417   1.067   2.559   2.387
  799SOL    HW2 2418   0.956   2.512   2.277
  800SOL     OW 2419   0.076   2.673   2.651
  800SOL    HW1 2420   0.175   2.661   2.660
  800SOL    HW2 2421   0.052   2.768   2.672
  801SOL     OW 2422   0.130   3.683   3.433
  801SOL    HW1 2423   0.120   3.668   3.532
  801SOL    HW2 2424   0.044   3.719   3.397
  802SOL     OW 2425   0.865   2.210   2.057
  802SOL    HW1 2426   0.924   2.273   2.008
  802SOL    HW2 2427   0.884   2.116   2.028
  803SOL     OW 2428   1.719   2.447   3.693
  803SOL    HW1 2429   1.693   2.536   3.657
  803SOL    HW2 2430   1.717   2.379   3.620
  804SOL     OW 2431   1.362   3.006   2.407
  804SOL    HW1 2432   1.445   2.977   2.359
  804SOL    HW2 2433   1.313   3.073   2.351
  805SOL     OW 2434   0.550   2.058   2.747
  805SOL    HW1 2435   0.545   2.053   2.847
  805SOL    HW2 2436   0.552   2.154   2.718
  806SOL     OW 2437   1.008   3.318   2.339
  806SOL    HW1 2438   0.962   3.390   2.287
  806SOL    HW2 2439   1.004   3.338   2.437
  807SOL     OW 2440   0.351   3.663   2.715
  807SOL    HW1 2441   0.401   3.577   2.721
  807SOL    HW2 2442   0.416   3.740   2.712
  808SOL     OW 2443   1.795   2.928   2.735
  808SOL    HW1 2444   1.733   2.913   2.659
  808SOL    HW2 2445   1.743   2.939   2.820
  809SOL     OW 2446   1.227   3.412   3.368
  809SOL    HW1 2447   1.233   3.335   3.432
  809SOL    HW2 2448   1.175   3.386   3.288
  810SOL     OW 2449   0.321   2.805   2.104
  810SOL    HW1 2450   0.403   2.844   2.062
  810SOL    HW2 2451   0.294   2.723   2.055
  811SOL     OW 2452   1.458   2.597   2.590
  811SOL    HW1 2453   1.453   2.532   2.665
  811SOL    HW2 2454   1.538   2.656   2.603
  812SOL     OW 2455   0.461   3.128   3.589
  812SOL    HW1 2456   0.411   3.129   3.503
  812SOL    HW2 2457   0.398   3.110   3.665
  813SOL     OW 2458   1.111   3.638   2.099
  813SOL    HW1 2459   1.051   3.576   2.149
  813SOL    HW2 2460   1.142   3.594   2.014
  814SOL     OW 2461   0.202   2.147   3.360
  814SOL    HW1 2462   0.122   2.207   3.347
  814SOL    HW2 2463   0.192   2.098   3.446
  815SOL     OW 2464   1.632   3.239   1.943
  815SOL    HW1 2465   1.600   3.333   1.933
  815SOL    HW2 2466   1.556   3.176   1.931
  816SOL     OW 2467   0.464   3.605   2.185
  816SOL    HW1 2468   0.497   3.644   2.271
  816SOL    HW2 2469   0.540   3.598   2.120
  817SOL     OW 2470   1.400   1.969   2.288
  817SOL    HW1 2471   1.376   1.932   2.198
  817SOL    HW2 2472   1.499   1.985   2.292
  818SOL     OW 2473   0.249   3.647   3.103
  818SOL    HW1 2474   0.306   3.582   3.153
  818SOL    HW2 2475   0.233   3.614   3.010
  819SOL     OW 2476   0.940   3.560   2.766
  819SOL    HW1 2477   1.020   3.503   2.787
  819SOL    HW2 2478   0.891   3.520   2.689
  820SOL     OW 2479   0.382   2.562   2.342
  820SOL    HW1 2480   0.427   2.472   2.339
  820SOL    HW2 2481   0.288   2.551   2.375
  821SOL     OW 2482   1.547   2.084   3.591
  821SOL    HW1 2483   1.542   2.121   3.683
  821SOL    HW2 2484   1.475   2.015   3.579
  822SOL     OW 2485   0.614   1.984   1.979
  822SOL    HW1 2486   0.712   1.962   1.986
  822SOL    HW2 2487   0.583   1.967   1.886
  823SOL     OW 2488   0.781   2.126   3.611
  823SOL    HW1 2489   0.848   2.065   3.654
  823SOL    HW2 2490   0.708   2.145   3.676
  824SOL     OW 2491   0.888   3.376   3.057
  824SOL    HW1 2492   0.865   3.351   2.963
  824SOL    HW2 2493   0.949   3.307   3.096
  825SOL     OW 2494   1.351   2.452   3.295
  825SOL    HW1 2495   1.379   2.409   3.380
  825SOL    HW2 2496   1.376   2.548   3.296
  826SOL     OW 2497   0.803   3.264   2.786
  826SOL    HW1 2498   0.893   3.278   2.744
  826SOL    HW2 2499   0.732   3.266   2.715
  827SOL     OW 2500   0.922   2.365   2.761
  827SOL    HW1 2501   0.897   2.356   2.665
  827SOL    HW2 2502   0.970   2.283   2.792
  828SOL     OW 2503   0.539   1.926   2.374
  828SOL    HW1 2504   0.458   1.927   2.432
  828SOL    HW2 2505   0.542   2.009   2.319
  829SOL     OW 2506   1.434   3.050   1.903
  829SOL    HW1 2507   1.466   2.974   1.960
  829SOL    HW2 2508   1.342   3.077   1.933
  830SOL     OW 2509   0.297   1.897   2.033
  830SOL    HW1 2510   0.346   1.981   2.012
  830SOL    HW2 2511   0.359   1.832   2.078
  831SOL     OW 2512   0.935   2.098   2.342
  831SOL    HW1 2513   0.887   2.139   2.264
  831SOL    HW2 2514   1.034   2.096   2.323
  832SOL     OW 2515   1.076   2.545   3.326
  832SOL    HW1 2516   0.996   2.484   3.329
  832SOL    HW2 2517   1.157   2.492   3.302
  833SOL     OW 2518   1.227   3.432   2.655
  833SOL    HW1 2519   1.248   3.506   2.590
  833SOL    HW2 2520   1.295   3.432   2.728
  834SOL     OW 2521   0.459   3.014   2.603
  834SOL    HW1 2522   0.388   2.987   2.668
  834SOL    HW2 2523   0.433   2.986   2.510
  835SOL     OW 2524   1.271   3.659   2.453
  835SOL    HW1 2525   1.315   3.723   2.389
  835SOL    HW2 2526   1.221   3.711   2.523
  836SOL     OW 2527   1.032   2.411   1.878
  836SOL    HW1 2528   0.991   2.493   1.839
  836SOL    HW2 2529   1.096   2.437   1.951
  837SOL     OW 2530   0.078   2.418   3.248
  837SOL    HW1 2531   0.170   2.417   3.207
  837SOL    HW2 2532   0.072   2.492   3.315
  838SOL     OW 2533   0.561   2.084   3.009
  838SOL    HW1 2534   0.599   2.000   3.046
  838SOL    HW2 2535   0.473   2.103   3.053
  839SOL     OW 2536   0.866   2.316   2.504
  839SOL    HW1 2537   0.834   2.388   2.442
  839SOL    HW2 2538   0.890   2.235   2.451
  840SOL     OW 2539   1.017   1.901   2.615
  840SOL    HW1 2540   0.945   1.906   2.546
  840SOL    HW2 2541   0.993   1.832   2.684
  841SOL     OW 2542   1.429   3.035   2.729
  841SOL    HW1 2543   1.374   2.951   2.722
  841SOL    HW2 2544   1.455   3.064   2.637
  842SOL     OW 2545   1.466   2.452   2.854
  842SOL    HW1 2546   1.436   2.357   2.861
  842SOL    HW2 2547   1.539   2.468   2.920
  843SOL     OW 2548   1.857   2.695   2.239
  843SOL    HW1 2549   1.899   2.631   2.303
  843SOL    HW2 2550   1.819   2.644   2.161
  844SOL     OW 2551   0.488   3.247   2.036
  844SOL    HW1 2552   0.401   3.232   2.083
  844SOL    HW2 2553   0.471   3.273   1.941
  845SOL     OW 2554   1.664   3.142   2.519
  845SOL    HW1 2555   1.763   3.150   2.533
  845SOL    HW2 2556   1.619   3.226   2.550
  846SOL     OW 2557   1.390   2.437   1.940
  846SOL    HW1 2558   1.336   2.416   2.021
  846SOL    HW2 2559   1.481   2.396   1.949
  847SOL     OW 2560   0.527   2.118   2.190
  847SOL    HW1 2561   0.554   2.059   2.115
  847SOL    HW2 2562   0.527   2.213   2.159
  848SOL     OW 2563   1.754   3.085   3.450
  848SOL    HW1 2564   1.845   3.046   3.437
  848SOL    HW2 2565   1.762   3.181   3.474
  849SOL     OW 2566   1.064   3.209   3.202
  849SOL    HW1 2567   0.984   3.186   3.257
  849SOL    HW2 2568   1.147   3.183   3.251
  850SOL     OW 2569   1.592   3.491   3.487
  850SOL    HW1 2570   1.619   3.525   3.397
  850SOL    HW2 2571   1.671   3.453   3.533
  851SOL     OW 2572   1.111   3.057   2.962
  851SOL    HW1 2573   1.071   3.101   3.043
  851SOL    HW2 2574   1.070   3.094   2.879
  852SOL     OW 2575   1.638   2.961   2.941
  852SOL    HW1 2576   1.643   3.042   3.000
  852SOL    HW2 2577   1.552   2.963   2.890
  853SOL     OW 2578   0.915   1.951   3.264
  853SOL    HW1 2579   0.940   1.931   3.169
  853SOL    HW2 2580   0.987   2.007   3.306
  854SOL     OW 2581   0.980   2.978   3.581
  854SOL    HW1 2582   0.881   2.984   3.591
  854SOL    HW2 2583   1.003   2.898   3.525
  855SOL     OW 2584   0.705   2.912   2.230
  855SOL    HW1 2585   0.691   2.919   2.329
  855SOL    HW2 2586   0.789   2.861   2.212
  856SOL     OW 2587   0.410   2.675   3.113
  856SOL    HW1 2588   0.496   2.687   3.163
  856SOL    HW2 2589   0.368   2.588   3.140
  857SOL     OW 2590   1.274   2.248   3.124
  857SOL    HW1 2591   1.295   2.322   3.188
  857SOL    HW2 2592   1.185   2.265   3.081
  858SOL     OW 2593   0.064   3.426   3.193
  858SOL    HW1 2594   0.018   3.508   3.159
  858SOL    HW2 2595   0.162   3.445   3.202
  859SOL     OW 2596   0.367   2.962   2.363
  859SOL    HW1 2597   0.360   3.045   2.307
  859SOL    HW2 2598   0.371   2.882   2.303
  860SOL     OW 2599   0.566   2.399   2.727
  860SOL    HW1 2600   0.578   2.465   2.653
  860SOL    HW2 2601   0.612   2.433   2.810
  861SOL     OW 2602   1.252   3.210   2.250
  861SOL    HW1 2603   1.302   3.287   2.290
  861SOL    HW2 2604   1.157   3.212   2.282
  862SOL     OW 2605   1.272   3.307   3.004
  862SOL    HW1 2606   1.319   3.320   3.091
  862SOL    HW2 2607   1.206   3.233   3.013
  863SOL     OW 2608   1.582   2.501   2.334
  863SOL    HW1 2609   1.551   2.562   2.407
  863SOL    HW2 2610   1.632   2.553   2.265
  864SOL     OW 2611   0.354   3.372   3.191
  864SOL    HW1 2612   0.333   3.328   3.104
  864SOL    HW2 2613   0.451   3.398   3.194
  865SOL     OW 2614   0.402   2.613   3.460
  865SOL    HW1 2615   0.470   2.668   3.413
  865SOL    HW2 2616   0.442   2.525   3.487
  866SOL     OW 2617   1.587   2.641   3.532
  866SOL    HW1 2618   1.495   2.679   3.527
  866SOL    HW2 2619   1.647   2.688   3.467
  867SOL     OW 2620   1.013   1.967   3.632
  867SOL    HW1 2621   1.019   2.052   3.580
  867SOL    HW2 2622   1.045   1.891   3.575
  868SOL     OW 2623   0.504   1.912   3.602
  868SOL    HW1 2624   0.462   1.855   3.532
  868SOL    HW2 2625   0.438   1.981   3.634
  869SOL     OW 2626   0.573   2.732   2.891
  869SOL    HW1 2627   0.617   2.821   2.882
  869SOL    HW2 2628   0.510   2.732   2.968
  870SOL     OW 2629   1.360   2.724   2.907
  870SOL    HW1 2630   1.285   2.724   2.841
  870SOL    HW2 2631   1.397   2.632   2.916
  871SOL     OW 2632   1.209   2.387   2.137
  871SOL    HW1 2633   1.222   2.303   2.191
  871SOL    HW2 2634   1.180   2.461   2.197
  872SOL     OW 2635   0.307   2.075   3.093
  872SOL    HW1 2636   0.284   2.112   3.183
  872SOL    HW2 2637   0.277   1.980   3.087
  873SOL     OW 2638   0.037   3.172   3.144
  873SOL    HW1 2639   0.090   3.123   3.212
  873SOL    HW2 2640   0.059   3.270   3.149
  874SOL     OW 2641   0.732   2.496   2.926
  874SOL    HW1 2642   0.791   2.470   2.850
  874SOL    HW2 2643   0.704   2.592   2.915
  875SOL     OW 2644   1.728   2.797   3.716
  875SOL    HW1 2645   1.682   2.790   3.627
  875SOL    HW2 2646   1.666   2.841   3.782
  876SOL     OW 2647   0.307   1.925   2.480
  876SOL    HW1 2648   0.296   2.019   2.513
  876SOL    HW2 2649   0.302   1.862   2.557
  877SOL     OW 2650   1.622   2.229   2.236
  877SOL    HW1 2651   1.624   2.153   2.300
  877SOL    HW2 2652   1.574   2.306   2.276
  878SOL     OW 2653   1.023   2.628   2.828
  878SOL    HW1 2654   1.038   2.649   2.924
  878SOL    HW2 2655   0.993   2.533   2.819
  879SOL     OW 2656   0.980   3.435   3.562
  879SOL    HW1 2657   0.960   3.479   3.474
  879SOL    HW2 2658   1.019   3.344   3.546
  880SOL     OW 2659   1.859   3.380   3.467
  880SOL    HW1 2660   1.873   3.407   3.372
  880SOL    HW2 2661   1.942   3.402   3.520
  881SOL     OW 2662   0.350   2.760   3.666
  881SOL    HW1 2663   0.426   2.804   3.714
  881SOL    HW2 2664   0.385   2.713   3.584
  882SOL     OW 2665   1.540   2.136   1.987
  882SOL    HW1 2666   1.479   2.061   2.010
  882SOL    HW2 2667   1.562   2.188   2.070
  883SOL     OW 2668   1.303   2.700   1.904
  883SOL    HW1 2669   1.337   2.607   1.919
  883SOL    HW2 2670   1.321   2.727   1.809
  884SOL     OW 2671   1.068   3.195   2.711
  884SOL    HW1 2672   1.075   3.111   2.656
  884SOL    HW2 2673   1.130   3.264   2.675
  885SOL     OW 2674   0.319   2.672   2.811
  885SOL    HW1 2675   0.412   2.708   2.816
  885SOL    HW2 2676   0.313   2.587   2.863
  886SOL     OW 2677   0.339   2.371   2.868
  886SOL    HW1 2678   0.287   2.288   2.851
  886SOL    HW2 2679   0.416   2.376   2.804
  887SOL     OW 2680   1.138   2.242   3.540
  887SOL    HW1 2681   1.093   2.305   3.604
  887SOL    HW2 2682   1.231   2.273   3.523
  888SOL     OW 2683   1.160   2.069   3.339
  888SOL    HW1 2684   1.160   2.133   3.416
  888SOL    HW2 2685   1.188   2.117   3.256
  889SOL     OW 2686   0.008   3.188   2.062
  889SOL    HW1 2687  -0.085   3.209   2.031
  889SOL    HW2 2688   0.018   3.089   2.075
  890SOL     OW 2689   0.088   3.663   2.789
  890SOL    HW1 2690   0.046   3.577   2.762
  890SOL    HW2 2691   0.182   3.666   2.755
  891SOL     OW 2692   0.504   3.430   2.772
  891SOL    HW1 2693   0.570   3.504   2.781
  891SOL    HW2 2694   0.548   3.351   2.730
  892SOL     OW 2695   1.002   2.658   3.100
  892SOL    HW1 2696   1.043   2.626   3.186
  892SOL    HW2 2697   0.906   2.631   3.097
  893SOL     OW 2698   0.040   2.406   2.976
  893SOL    HW1 2699   0.125   2.373   2.935
  893SOL    HW2 2700   0.053   2.421   3.074
  894SOL     OW 2701   0.189   2.382   3.584
  894SOL    HW1 2702   0.248   2.342   3.514
  894SOL    HW2 2703   0.131   2.453   3.543
  895SOL     OW 2704   1.369   2.812   3.522
  895SOL    HW1 2705   1.408   2.901   3.542
  895SOL    HW2 2706   1.379   2.792   3.425
  896SOL     OW 2707   0.815   2.434   2.187
  896SOL    HW1 2708   0.822   2.345   2.141
  896SOL    HW2 2709   0.721   2.468   2.179
  897SOL     OW 2710   1.657   2.466   3.068
  897SOL    HW1 2711   1.619   2.397   3.130
  897SOL    HW2 2712   1.739   2.430   3.024
  898SOL     OW 2713   0.252   3.426   3.606
  898SOL    HW1 2714   0.222   3.483   3.682
  898SOL    HW2 2715   0.245   3.329   3.632
  899SOL     OW 2716   0.671   2.326   3.131
  899SOL    HW1 2717   0.637   2.237   3.101
  899SOL    HW2 2718   0.697   2.380   3.051
  900SOL     OW 2719   0.930   3.540   3.327
  900SOL    HW1 2720   0.906   3.522   3.232
  900SOL    HW2 2721   0.960   3.634   3.337
  901SOL     OW 2722   0.473   2.362   2.053
  901SOL    HW1 2723   0.534   2.442   2.057
  901SOL    HW2 2724   0.378   2.393   2.060
  902SOL     OW 2725   0.159   2.999   3.328
  902SOL    HW1 2726   0.181   2.938   3.404
  902SOL    HW2 2727   0.169   2.950   3.242
  903SOL     OW 2728   1.347   2.921   3.096
  903SOL    HW1 2729   1.371   2.858   3.022
  903SOL    HW2 2730   1.257   2.961   3.078
  904SOL     OW 2731   1.302   2.717   2.171
  904SOL    HW1 2732   1.216   2.686   2.213
  904SOL    HW2 2733   1.298   2.703   2.072
  905SOL     OW 2734   1.759   3.609   3.016
  905SOL    HW1 2735   1.820   3.639   2.943
  905SOL    HW2 2736   1.721   3.520   2.994
  906SOL     OW 2737   1.252   3.593   2.990
  906SOL    HW1 2738   1.336   3.598   2.936
  906SOL    HW2 2739   1.229   3.497   3.008
  907SOL     OW 2740   0.083   3.120   2.884
  907SOL    HW1 2741   0.078   3.119   2.984
  907SOL    HW2 2742   0.000   3.079   2.846
  908SOL     OW 2743   0.688   3.524   3.578
  908SOL    HW1 2744   0.632   3.605   3.587
  908SOL    HW2 2745   0.740   3.528   3.492
  909SOL     OW 2746   1.726   1.997   2.385
  909SOL    HW1 2747   1.799   1.980   2.318
  909SOL    HW2 2748   1.695   1.910   2.423
  910SOL     OW 2749   1.388   3.435   2.339
  910SOL    HW1 2750   1.455   3.447   2.265
  910SOL    HW2 2751   1.348   3.524   2.362
  911SOL     OW 2752   0.130   3.656   3.713
  911SOL    HW1 2753   0.089   3.582   3.766
  911SOL    HW2 2754   0.194   3.707   3.771
  912SOL     OW 2755   1.280   2.789   2.534
  912SOL    HW1 2756   1.340   2.708   2.536
  912SOL    HW2 2757   1.320   2.858   2.474
  913SOL     OW 2758   0.830   3.135   3.284
  913SOL    HW1 2759   0.825   3.168   3.379
  913SOL    HW2 2760   0.744   3.154   3.238
  914SOL     OW 2761   0.672   3.478   2.016
  914SOL    HW1 2762   0.681   3.488   1.917
  914SOL    HW2 2763   0.632   3.389   2.037
  915SOL     OW 2764   1.650   3.582   3.256
  915SOL    HW1 2765   1.703   3.592   3.172
  915SOL    HW2 2766   1.623   3.672   3.290
  916SOL     OW 2767   1.841   2.037   2.825
  916SOL    HW1 2768   1.880   1.952   2.789
  916SOL    HW2 2769   1.743   2.039   2.806
  917SOL     OW 2770   0.263   2.188   2.582
  917SOL    HW1 2771   0.184   2.239   2.548
  917SOL    HW2 2772   0.254   2.173   2.680
  918SOL     OW 2773   1.194   3.474   1.893
  918SOL    HW1 2774   1.200   3.381   1.930
  918SOL    HW2 2775   1.135   3.474   1.813
  919SOL     OW 2776   0.822   2.864   3.234
  919SOL    HW1 2777   0.862   2.863   3.142
  919SOL    HW2 2778   0.832   2.956   3.274
  920SOL     OW 2779   0.916   2.772   2.153
  920SOL    HW1 2780   0.979   2.810   2.085
  920SOL    HW2 2781   0.956   2.689   2.192
  921SOL     OW 2782   1.504   3.469   1.906
  921SOL    HW1 2783   1.412   3.506   1.913
  921SOL    HW2 2784   1.542   3.489   1.816
  922SOL     OW 2785   0.372   3.150   3.352
  922SOL    HW1 2786   0.359   3.243   3.318
  922SOL    HW2 2787   0.288   3.098   3.339
  923SOL     OW 2788   1.614   3.154   3.151
  923SOL    HW1 2789   1.674   3.157   3.231
  923SOL    HW2 2790   1.539   3.218   3.164
  924SOL     OW 2791   1.039   2.960   2.558
  924SOL    HW1 2792   0.969   2.913   2.612
  924SOL    HW2 2793   1.098   2.892   2.515
  925SOL     OW 2794   1.014   2.098   2.833
  925SOL    HW1 2795   1.006   2.062   2.740
  925SOL    HW2 2796   1.012   2.022   2.898
  926SOL     OW 2797   0.590   3.349   2.353
  926SOL    HW1 2798   0.632   3.291   2.283
  926SOL    HW2 2799   0.546   3.428   2.309
  927SOL     OW 2800   1.709   2.247   3.243
  927SOL    HW1 2801   1.782   2.316   3.247
  927SOL    HW2 2802   1.737   2.172   3.184
  928SOL     OW 2803   0.255   3.210   2.152
  928SOL    HW1 2804   0.159   3.211   2.125
  928SOL    HW2 2805   0.267   3.263   2.236
  929SOL     OW 2806   0.105   2.875   3.588
  929SOL    HW1 2807   0.028   2.842   3.642
  929SOL    HW2 2808   0.190   2.845   3.630
  930SOL     OW 2809   0.672   2.065   3.351
  930SOL    HW1 2810   0.762   2.049   3.311
  930SOL    HW2 2811   0.680   2.070   3.450
  931SOL     OW 2812   0.075   2.207   1.895
  931SOL    HW1 2813  -0.017   2.179   1.866
  931SOL    HW2 2814   0.106   2.284   1.839
  932SOL     OW 2815   1.440   2.718   3.260
  932SOL    HW1 2816   1.383   2.770   3.197
  932SOL    HW2 2817   1.536   2.730   3.236
  933SOL     OW 2818   0.072   2.028   2.180
  933SOL    HW1 2819   0.055   2.111   2.126
  933SOL    HW2 2820   0.162   1.991   2.158
  934SOL     OW 2821   1.183   3.197   1.981
  934SOL    HW1 2822   1.084   3.186   1.983
  934SOL    HW2 2823   1.217   3.212   2.074
  935SOL     OW 2824   0.613   2.704   3.293
  935SOL    HW1 2825   0.669   2.785   3.276
  935SOL    HW2 2826   0.672   2.624   3.296
  936SOL     OW 2827   1.493   3.629   2.821
  936SOL    HW1 2828   1.526   3.693   2.752
  936SOL    HW2 2829   1.559   3.623   2.896
  937SOL     OW 2830   0.716   2.427   3.570
  937SOL    HW1 2831   0.735   2.492   3.644
  937SOL    HW2 2832   0.776   2.347   3.579
  938SOL     OW 2833   1.450   3.082   3.495
  938SOL    HW1 2834   1.441   3.072   3.594
  938SOL    HW2 2835   1.546   3.075   3.469
  939SOL     OW 2836   0.390   3.603   3.422
  939SOL    HW1 2837   0.299   3.644   3.420
  939SOL    HW2 2838   0.383   3.509   3.454
  940SOL     OW 2839   1.674   2.745   3.116
  940SOL    HW1 2840   1.647   2.656   3.079
  940SOL    HW2 2841   1.675   2.813   3.043
  941SOL     OW 2842   1.225   2.187   2.311
  941SOL    HW1 2843   1.290   2.113   2.300
  941SOL    HW2 2844   1.245   2.237   2.395
  942SOL     OW 2845   0.594   2.607   2.514
  942SOL    HW1 2846   0.644   2.692   2.495
  942SOL    HW2 2847   0.506   2.609   2.466
  943SOL     OW 2848   1.777   2.204   3.504
  943SOL    HW1 2849   1.760   2.235   3.410
  943SOL    HW2 2850   1.693   2.167   3.542
  944SOL     OW 2851   1.730   2.796   3.379
  944SOL    HW1 2852   1.768   2.887   3.394
  944SOL    HW2 2853   1.722   2.779   3.280
  945SOL     OW 2854   0.859   3.236   1.878
  945SOL    HW1 2855   0.813   3.251   1.966
  945SOL    HW2 2856   0.903   3.321   1.848
  946SOL     OW 2857   0.661   3.652   2.815
  946SOL    HW1 2858   0.615   3.740   2.802
  946SOL    HW2 2859   0.760   3.664   2.808
  947SOL     OW 2860   0.859   2.818   2.723
  947SOL    HW1 2861   0.913   2.749   2.771
  947SOL    HW2 2862   0.827   2.887   2.789
  948SOL     OW 2863   1.083   2.846   1.949
  948SOL    HW1 2864   1.060   2.899   1.867
  948SOL    HW2 2865   1.164   2.790   1.930
  949SOL     OW 2866   1.861   3.431   2.713
  949SOL    HW1 2867   1.790   3.419   2.643
  949SOL    HW2 2868   1.862   3.352   2.773
  950SOL     OW 2869   0.221   3.176   3.706
  950SOL    HW1 2870   0.156   3.103   3.685
  950SOL    HW2 2871   0.225   3.190   3.804
  951SOL     OW 2872   0.079   3.102   2.515
  951SOL    HW1 2873   0.078   3.055   2.603
  951SOL    HW2 2874   0.161   3.074   2.464
  952SOL     OW 2875   0.672   3.253   3.486
  952SOL    HW1 2876   0.594   3.203   3.524
  952SOL    HW2 2877   0.669   3.348   3.517
  953SOL     OW 2878   1.824   2.054   3.089
  953SOL    HW1 2879   1.820   1.964   3.133
  953SOL    HW2 2880   1.827   2.043   2.990
  954SOL     OW 2881   0.428   2.286   2.382
  954SOL    HW1 2882   0.458   2.214   2.320
  954SOL    HW2 2883   0.389   2.246   2.465
  955SOL     OW 2884   1.705   3.349   2.966
  955SOL    HW1 2885   1.612   3.324   2.939
  955SOL    HW2 2886   1.731   3.299   3.048
  956SOL     OW 2887   0.317   2.409   3.142
  956SOL    HW1 2888   0.355   2.350   3.214
  956SOL    HW2 2889   0.357   2.383   3.054
  957SOL     OW 2890   0.812   3.448   2.549
  957SOL    HW1 2891   0.844   3.458   2.455
  957SOL    HW2 2892   0.733   3.386   2.551
  958SOL     OW 2893   1.424   2.076   2.974
  958SOL    HW1 2894   1.476   2.011   3.029
  958SOL    HW2 2895   1.375   2.139   3.035
  959SOL     OW 2896   1.001   1.896   3.016
  959SOL    HW1 2897   0.938   1.824   2.985
  959SOL    HW2 2898   1.094   1.860   3.016
  960SOL     OW 2899   0.770   3.192   2.163
  960SOL    HW1 2900   0.724   3.105   2.180
  960SOL    HW2 2901   0.861   3.189   2.204
  961SOL     OW 2902   0.618   3.429   3.146
  961SOL    HW1 2903   0.613   3.511   3.203
  961SOL    HW2 2904   0.707   3.426   3.101
  962SOL     OW 2905   1.352   1.914   2.030
  962SOL    HW1 2906   1.387   1.873   1.946
  962SOL    HW2 2907   1.262   1.876   2.050
  963SOL     OW 2908   1.300   2.315   2.553
  963SOL    HW1 2909   1.241   2.395   2.557
  963SOL    HW2 2910   1.315   2.280   2.646
  964SOL     OW 2911   1.593   2.083   2.744
  964SOL    HW1 2912   1.509   2.082   2.798
  964SOL    HW2 2913   1.595   2.166   2.688
  965SOL     OW 2914   0.039   2.939   2.162
  965SOL    HW1 2915   0.138   2.928   2.153
  965SOL    HW2 2916  -0.001   2.853   2.194
  966SOL     OW 2917   0.875   3.508   2.199
  966SOL    HW1 2918   0.798   3.473   2.145
  966SOL    HW2 2919   0.843   3.579   2.261
  967SOL     OW 2920   0.230   2.490   3.837
  967SOL    HW1 2921   0.137   2.488   3.874
  967SOL    HW2 2922   0.231   2.451   3.745
  968SOL     OW 2923   0.225   2.137   4.720
  968SOL    HW1 2924   0.260   2.120   4.812
  968SOL    HW2 2925   0.137   2.092   4.708
  969SOL     OW 2926   0.019   2.230   4.371
  969SOL    HW1 2927  -0.063   2.273   4.410
  969SOL    HW2 2928  -0.009   2.157   4.308
  970SOL     OW 2929   1.555   3.373   4.427
  970SOL    HW1 2930   1.498   3.357   4.508
  970SOL    HW2 2931   1.496   3.383   4.347
  971SOL     OW 2932   1.135   2.565   4.441
  971SOL    HW1 2933   1.192   2.643   4.416
  971SOL    HW2 2934   1.075   2.591   4.517
  972SOL     OW 2935   1.755   2.469   3.955
  972SOL    HW1 2936   1.743   2.456   3.856
  972SOL    HW2 2937   1.725   2.388   4.004
  973SOL     OW 2938   0.768   3.006   4.747
  973SOL    HW1 2939   0.690   3.023   4.807
  973SOL    HW2 2940   0.802   3.093   4.711
  974SOL     OW 2941   0.685   2.874   4.389
  974SOL    HW1 2942   0.754   2.858   4.459
  974SOL    HW2 2943   0.612   2.931   4.427
  975SOL     OW 2944   1.603   2.309   4.461
  975SOL    HW1 2945   1.529   2.355   4.411
  975SOL    HW2 2946   1.654   2.377   4.514
  976SOL     OW 2947   0.231   3.575   4.207
  976SOL    HW1 2948   0.265   3.652   4.261
  976SOL    HW2 2949   0.275   3.575   4.117
  977SOL     OW 2950   0.230   3.296   4.262
  977SOL    HW1 2951   0.204   3.392   4.262
  977SOL    HW2 2952   0.159   3.242   4.307
  978SOL     OW 2953   0.240   2.953   4.610
  978SOL    HW1 2954   0.254   2.869   4.662
  978SOL    HW2 2955   0.185   3.017   4.665
  979SOL     OW 2956   0.606   2.826   3.847
  979SOL    HW1 2957   0.613   2.910   3.793
  979SOL    HW2 2958   0.652   2.839   3.935
  980SOL     OW 2959   0.122   2.505   4.287
  980SOL    HW1 2960   0.077   2.417   4.304
  980SOL    HW2 2961   0.121   2.559   4.371
  981SOL     OW 2962   1.842   3.629   4.083
  981SOL    HW1 2963   1.896   3.600   4.163
  981SOL    HW2 2964   1.872   3.719   4.054
  982SOL     OW 2965   0.027   3.458   3.841
  982SOL    HW1 2966   0.008   3.362   3.862
  982SOL    HW2 2967  -0.006   3.516   3.916
  983SOL     OW 2968   1.689   2.784   4.336
  983SOL    HW1 2969   1.784   2.755   4.344
  983SOL    HW2 2970   1.681   2.849   4.261
  984SOL     OW 2971   1.641   2.970   4.156
  984SOL    HW1 2972   1.727   2.972   4.104
  984SOL    HW2 2973   1.655   3.017   4.244
  985SOL     OW 2974   0.613   3.227   4.450
  985SOL    HW1 2975   0.564   3.140   4.459
  985SOL    HW2 2976   0.590   3.270   4.363
  986SOL     OW 2977   0.809   1.866   4.226
  986SOL    HW1 2978   0.849   1.957   4.217
  986SOL    HW2 2979   0.709   1.874   4.232
  987SOL     OW 2980   1.525   2.861   3.914
  987SOL    HW1 2981   1.462   2.785   3.927
  987SOL    HW2 2982   1.573   2.879   4.000
  988SOL     OW 2983   1.466   3.279   4.677
  988SOL    HW1 2984   1.407   3.285   4.757
  988SOL    HW2 2985   1.451   3.191   4.631
  989SOL     OW 2986   1.667   3.576   4.296
  989SOL    HW1 2987   1.626   3.553   4.208
  989SOL    HW2 2988   1.649   3.502   4.361
  990SOL     OW 2989   0.598   2.591   3.994
  990SOL    HW1 2990   0.622   2.660   3.926
  990SOL    HW2 2991   0.520   2.624   4.048
  991SOL     OW 2992   1.281   2.207   4.668
  991SOL    HW1 2993   1.195   2.157   4.655
  991SOL    HW2 2994   1.343   2.153   4.724
  992SOL     OW 2995   1.576   3.524   4.031
  992SOL    HW1 2996   1.665   3.570   4.034
  992SOL    HW2 2997   1.555   3.500   3.936
  993SOL     OW 2998   1.041   2.563   4.153
  993SOL    HW1 2999   1.067   2.559   4.249
  993SOL    HW2 3000   0.956   2.512   4.139
  994SOL     OW 3001   0.076   2.673   4.513
  994SOL    HW1 3002   0.175   2.661   4.522
  994SOL    HW2 3003   0.052   2.768   4.534
  995SOL     OW 3004   0.865   2.210   3.919
  995SOL    HW1 3005   0.924   2.273   3.870
  995SOL    HW2 3006   0.884   2.116   3.890
  996SOL     OW 3007   1.362   3.006   4.269
  996SOL    HW1 3008   1.445   2.977   4.221
  996SOL    HW2 3009   1.313   3.073   4.213
  997SOL     OW 3010   1.008   3.318   4.201
  997SOL    HW1 3011   0.962   3.390   4.149
  997SOL    HW2 3012   1.004   3.338   4.299
  998SOL     OW 3013   0.351   3.663   4.577
  998SOL    HW1 3014   0.401   3.577   4.583
  998SOL    HW2 3015   0.416   3.740   4.574
  999SOL     OW 3016   1.795   2.928   4.597
  999SOL    HW1 3017   1.733   2.913   4.521
  999SOL    HW2 3018   1.743   2.939   4.682
 1000SOL     OW 3019   0.321   2.805   3.966
 1000SOL    HW1 3020   0.403   2.844   3.924
 1000SOL    HW2 3021   0.294   2.723   3.917
 1001SOL     OW 3022   1.458   2.597   4.452
 1001SOL    HW1 3023   1.453   2.532   4.527
 1001SOL    HW2 3024   1.538   2.656   4.465
 1002SOL     OW 3025   1.111   3.638   3.961
 1002SOL    HW1 3026   1.051   3.576   4.011
 1002SOL    HW2 3027   1.142   3.594   3.876
 1003SOL     OW 3028   1.632   3.239   3.805
 1003SOL    HW1 3029   1.600   3.333   3.795
 1003SOL    HW2 3030   1.556   3.176   3.793
 1004SOL     OW 3031   0.464   3.605   4.047
 1004SOL    HW1 3032   0.497   3.644   4.133
 1004SOL    HW2 3033   0.540   3.598   3.982
 1005SOL     OW 3034   1.400   1.969   4.150
 1005SOL    HW1 3035   1.376   1.932   4.060
 1005SOL    HW2 3036   1.499   1.985   4.154
 1006SOL     OW 3037   0.249   3.647   4.965
 1006SOL    HW1 3038   0.306   3.582   5.015
 1006SOL    HW2 3039   0.233   3.614   4.872
 1007SOL     OW 3040   0.382   2.562   4.204
 1007SOL    HW1 3041   0.427   2.472   4.201
 1007SOL    HW2 3042   0.288   2.551   4.237
 1008SOL     OW 3043   0.614   1.984   3.841
 1008SOL    HW1 3044   0.712   1.962   3.848
 1008SOL    HW2 3045   0.583   1.967   3.748
 1009SOL     OW 3046   0.922   2.365   4.623
 1009SOL    HW1 3047   0.897   2.356   4.527
 1009SOL    HW2 3048   0.970   2.283   4.654
 1010SOL     OW 3049   0.539   1.926   4.236
 1010SOL    HW1 3050   0.458   1.927   4.294
 1010SOL    HW2 3051   0.542   2.009   4.181
 1011SOL     OW 3052   1.434   3.050   3.765
 1011SOL    HW1 3053   1.466   2.974   3.822
 1011SOL    HW2 3054   1.342   3.077   3.795
 1012SOL     OW 3055   0.297   1.897   3.895
 1012SOL    HW1 3056   0.346   1.981   3.874
 1012SOL    HW2 3057   0.359   1.832   3.940
 1013SOL     OW 3058   0.935   2.098   4.204
 1013SOL    HW1 3059   0.887   2.139   4.126
 1013SOL    HW2 3060   1.034   2.096   4.185
 1014SOL     OW 3061   1.227   3.432   4.517
 1014SOL    HW1 3062   1.248   3.506   4.452
 1014SOL    HW2 3063   1.295   3.432   4.590
 1015SOL     OW 3064   0.459   3.014   4.465
 1015SOL    HW1 3065   0.388   2.987   4.530
 1015SOL    HW2 3066   0.433   2.986   4.372
 1016SOL     OW 3067   1.271   3.659   4.315
 1016SOL    HW1 3068   1.315   3.723   4.251
 1016SOL    HW2 3069   1.221   3.711   4.385
 1017SOL     OW 3070   1.032   2.411   3.740
 1017SOL    HW1 3071   0.991   2.493   3.701
 1017SOL    HW2 3072   1.096   2.437   3.813
 1018SOL     OW 3073   0.866   2.316   4.366
 1018SOL    HW1 3074   0.834   2.388   4.304
 1018SOL    HW2 3075   0.890   2.235   4.313
 1019SOL     OW 3076   1.017   1.901   4.477
 1019SOL    HW1 3077   0.945   1.906   4.408
 1019SOL    HW2 3078   0.993   1.832   4.546
 1020SOL     OW 3079   1.429   3.035   4.591
 1020SOL    HW1 3080   1.374   2.951   4.584
 1020SOL    HW2 3081   1.455   3.064   4.499
 1021SOL     OW 3082   1.857   2.695   4.101
 1021SOL    HW1 3083   1.899   2.631   4.165
 1021SOL    HW2 3084   1.819   2.644   4.023
 1022SOL     OW 3085   0.488   3.247   3.898
 1022SOL    HW1 3086   0.401   3.232   3.945
 1022SOL    HW2 3087   0.471   3.273   3.803
 1023SOL     OW 3088   1.664   3.142   4.381
 1023SOL    HW1 3089   1.763   3.150   4.395
 1023SOL    HW2 3090   1.619   3.226   4.412
 1024SOL     OW 3091   1.390   2.437   3.802
 1024SOL    HW1 3092   1.336   2.416   3.883
 1024SOL    HW2 3093   1.481   2.396   3.811
 1025SOL     OW 3094   0.527   2.118   4.052
 1025SOL    HW1 3095   0.554   2.059   3.977
 1025SOL    HW2 3096   0.527   2.213   4.021
 1026SOL     OW 3097   1.638   2.961   4.803
 1026SOL    HW1 3098   1.643   3.042   4.862
 1026SOL    HW2 3099   1.552   2.963   4.752
 1027SOL     OW 3100   0.705   2.912   4.092
 1027SOL    HW1 3101   0.691   2.919   4.191
 1027SOL    HW2 3102   0.789   2.861   4.074
 1028SOL     OW 3103   0.367   2.962   4.225
 1028SOL    HW1 3104   0.360   3.045   4.169
 1028SOL    HW2 3105   0.371   2.882   4.165
 1029SOL     OW 3106   0.566   2.399   4.589
 1029SOL    HW1 3107   0.578   2.465   4.515
 1029SOL    HW2 3108   0.612   2.433   4.672
 1030SOL     OW 3109   1.252   3.210   4.112
 1030SOL    HW1 3110   1.302   3.287   4.152
 1030SOL    HW2 3111   1.157   3.212   4.144
 1031SOL     OW 3112   1.582   2.501   4.196
 1031SOL    HW1 3113   1.551   2.562   4.269
 1031SOL    HW2 3114   1.632   2.553   4.127
 1032SOL     OW 3115   1.209   2.387   3.999
 1032SOL    HW1 3116   1.222   2.303   4.053
 1032SOL    HW2 3117   1.180   2.461   4.059
 1033SOL     OW 3118   0.307   2.075   4.955
 1033SOL    HW1 3119   0.284   2.112   5.045
 1033SOL    HW2 3120   0.277   1.980   4.949
 1034SOL     OW 3121   0.732   2.496   4.788
 1034SOL    HW1 3122   0.791   2.470   4.712
 1034SOL    HW2 3123   0.704   2.592   4.777
 1035SOL     OW 3124   0.307   1.925   4.342
 1035SOL    HW1 3125   0.296   2.019   4.375
 1035SOL    HW2 3126   0.302   1.862   4.419
 1036SOL     OW 3127   1.622   2.229   4.098
 1036SOL    HW1 3128   1.624   2.153   4.162
 1036SOL    HW2 3129   1.574   2.306   4.138
 1037SOL     OW 3130   1.540   2.136   3.849
 1037SOL    HW1 3131   1.479   2.061   3.872
 1037SOL    HW2 3132   1.562   2.188   3.932
 1038SOL     OW 3133   1.303   2.700   3.766
 1038SOL    HW1 3134   1.337   2.607   3.781
 1038SOL    HW2 3135   1.321   2.727   3.671
 1039SOL     OW 3136   1.068   3.195   4.573
 1039SOL    HW1 3137   1.075   3.111   4.518
 1039SOL    HW2 3138   1.130   3.264   4.537
 1040SOL     OW 3139   0.319   2.672   4.673
 1040SOL    HW1 3140   0.412   2.708   4.678
 1040SOL    HW2 3141   0.313   2.587   4.725
 1041SOL     OW 3142   0.008   3.188   3.924
 1041SOL    HW1 3143  -0.085   3.209   3.893
 1041SOL    HW2 3144   0.018   3.089   3.937
 1042SOL     OW 3145   0.088   3.663   4.651
 1042SOL    HW1 3146   0.046   3.577   4.624
 1042SOL    HW2 3147   0.182   3.666   4.617
 1043SOL     OW 3148   0.504   3.430   4.634
 1043SOL    HW1 3149   0.570   3.504   4.643
 1043SOL    HW2 3150   0.548   3.351   4.592
 1044SOL     OW 3151   0.815   2.434   4.049
 1044SOL    HW1 3152   0.822   2.345   4.003
 1044SOL    HW2 3153   0.721   2.468   4.041
 1045SOL     OW 3154   0.671   2.326   4.993
 1045SOL    HW1 3155   0.637   2.237   4.963
 1045SOL    HW2 3156   0.697   2.380   4.913
 1046SOL     OW 3157   0.473   2.362   3.915
 1046SOL    HW1 3158   0.534   2.442   3.919
 1046SOL    HW2 3159   0.378   2.393   3.922
 1047SOL     OW 3160   1.347   2.921   4.958
 1047SOL    HW1 3161   1.371   2.858   4.884
 1047SOL    HW2 3162   1.257   2.961   4.940
 1048SOL     OW 3163   1.302   2.717   4.033
 1048SOL    HW1 3164   1.216   2.686   4.075
 1048SOL    HW2 3165   1.298   2.703   3.934
 1049SOL     OW 3166   1.759   3.609   4.878
 1049SOL    HW1 3167   1.820   3.639   4.805
 1049SOL    HW2 3168   1.721   3.520   4.856
 1050SOL     OW 3169   1.726   1.997   4.247
 1050SOL    HW1 3170   1.799   1.980   4.180
 1050SOL    HW2 3171   1.695   1.910   4.285
 1051SOL     OW 3172   1.388   3.435   4.201
 1051SOL    HW1 3173   1.455   3.447   4.127
 1051SOL    HW2 3174   1.348   3.524   4.224
 1052SOL     OW 3175   1.280   2.789   4.396
 1052SOL    HW1 3176   1.340   2.708   4.398
 1052SOL    HW2 3177   1.320   2.858   4.336
 1053SOL     OW 3178   0.672   3.478   3.878
 1053SOL    HW1 3179   0.681   3.488   3.779
 1053SOL    HW2 3180   0.632   3.389   3.899
 1054SOL     OW 3181   1.841   2.037   4.687
 1054SOL    HW1 3182   1.880   1.952   4.651
 1054SOL    HW2 3183   1.743   2.039   4.668
 1055SOL     OW 3184   0.263   2.188   4.444
 1055SOL    HW1 3185   0.184   2.239   4.410
 1055SOL    HW2 3186   0.254   2.173   4.542
 1056SOL     OW 3187   1.194   3.474   3.755
 1056SOL    HW1 3188   1.200   3.381   3.792
 1056SOL    HW2 3189   1.135   3.474   3.675
 1057SOL     OW 3190   0.916   2.772   4.015
 1057SOL    HW1 3191   0.979   2.810   3.947
 1057SOL    HW2 3192   0.956   2.689   4.054
 1058SOL     OW 3193   1.504   3.469   3.768
 1058SOL    HW1 3194   1.412   3.506   3.775
 1058SOL    HW2 3195   1.542   3.489   3.678
 1059SOL     OW 3196   1.614   3.154   5.013
 1059SOL    HW1 3197   1.674   3.157   5.093
 1059SOL    HW2 3198   1.539   3.218   5.026
 1060SOL     OW 3199   1.039   2.960   4.420
 1060SOL    HW1 3200   0.969   2.913   4.474
 1060SOL    HW2 3201   1.098   2.892   4.377
 1061SOL     OW 3202   0.590   3.349   4.215
 1061SOL    HW1 3203   0.632   3.291   4.145
 1061SOL    HW2 3204   0.546   3.428   4.171
 1062SOL     OW 3205   0.255   3.210   4.014
 1062SOL    HW1 3206   0.159   3.211   3.987
 1062SOL    HW2 3207   0.267   3.263   4.098
 1063SOL     OW 3208   0.075   2.207   3.757
 1063SOL    HW1 3209  -0.017   2.179   3.728
 1063SOL    HW2 3210   0.106   2.284   3.701
 1064SOL     OW 3211   0.072   2.028   4.042
 1064SOL    HW1 3212   0.055   2.111   3.988
 1064SOL    HW2 3213   0.162   1.991   4.020
 1065SOL     OW 3214   1.183   3.197   3.843
 1065SOL    HW1 3215   1.084   3.186   3.845
 1065SOL    HW2 3216   1.217   3.212   3.936
 1066SOL     OW 3217   1.674   2.745   4.978
 1066SOL    HW1 3218   1.647   2.656   4.941
 1066SOL    HW2 3219   1.675   2.813   4.905
 1067SOL     OW 3220   1.225   2.187   4.173
 1067SOL    HW1 3221   1.290   2.113   4.162
 1067SOL    HW2 3222   1.245   2.237   4.257
 1068SOL     OW 3223   0.594   2.607   4.376
 1068SOL    HW1 3224   0.644   2.692   4.357
 1068SOL    HW2 3225   0.506   2.609   4.328
 1069SOL     OW 3226   0.859   3.236   3.740
 1069SOL    HW1 3227   0.813   3.251   3.828
 1069SOL    HW2 3228   0.903   3.321   3.710
 1070SOL     OW 3229   0.661   3.652   4.677
 1070SOL    HW1 3230   0.615   3.740   4.664
 1070SOL    HW2 3231   0.760   3.664   4.670
 1071SOL     OW 3232   0.859   2.818   4.585
 1071SOL    HW1 3233   0.913   2.749   4.633
 1071SOL    HW2 3234   0.827   2.887   4.651
 1072SOL     OW 3235   1.083   2.846   3.811
 1072SOL    HW1 3236   1.060   2.899   3.729
 1072SOL    HW2 3237   1.164   2.790   3.792
 1073SOL     OW 3238   1.861   3.431   4.575
 1073SOL    HW1 3239   1.790   3.419   4.505
 1073SOL    HW2 3240   1.862   3.352   4.635
 1074SOL     OW 3241   0.079   3.102   4.377
 1074SOL    HW1 3242   0.078   3.055   4.465
 1074SOL    HW2 3243   0.161   3.074   4.326
 1075SOL     OW 3244   1.824   2.054   4.951
 1075SOL    HW1 3245   1.820   1.964   4.995
 1075SOL    HW2 3246   1.827   2.043   4.852
 1076SOL     OW 3247   0.428   2.286   4.244
 1076SOL    HW1 3248   0.458   2.214   4.182
 1076SOL    HW2 3249   0.389   2.246   4.327
 1077SOL     OW 3250   0.812   3.448   4.411
 1077SOL    HW1 3251   0.844   3.458   4.317
 1077SOL    HW2 3252   0.733   3.386   4.413
 1078SOL     OW 3253   0.770   3.192   4.025
 1078SOL    HW1 3254   0.724   3.105   4.042
 1078SOL    HW2 3255   0.861   3.189   4.066
 1079SOL     OW 3256   1.352   1.914   3.892
 1079SOL    HW1 3257   1.387   1.873   3.808
 1079SOL    HW2 3258   1.262   1.876   3.912
 1080SOL     OW 3259   1.300   2.315   4.415
 1080SOL    HW1 3260   1.241   2.395   4.419
 1080SOL    HW2 3261   1.315   2.280   4.508
 1081SOL     OW 3262   1.593   2.083   4.606
 1081SOL    HW1 3263   1.509   2.082   4.660
 1081SOL    HW2 3264   1.595   2.166   4.550
 1082SOL     OW 3265   0.039   2.939   4.024
 1082SOL    HW1 3266   0.138   2.928   4.015
 1082SOL    HW2 3267  -0.001   2.853   4.056
 1083SOL     OW 3268   0.875   3.508   4.061
 1083SOL    HW1 3269   0.798   3.473   4.007
 1083SOL    HW2 3270   0.843   3.579   4.123
 1084SOL     OW 3271   0.230   4.352   0.113
 1084SOL    HW1 3272   0.137   4.350   0.150
 1084SOL    HW2 3273   0.231   4.313   0.021
 1085SOL     OW 3274   0.225   3.999   0.996
 1085SOL    HW1 3275   0.260   3.982   1.088
 1085SOL    HW2 3276   0.137   3.954   0.984
 1086SOL     OW 3277   0.019   4.092   0.647
 1086SOL    HW1 3278  -0.063   4.135   0.686
 1086SOL    HW2 3279  -0.009   4.019   0.584
 1087SOL     OW 3280   1.135   4.427   0.717
 1087SOL    HW1 3281   1.192   4.505   0.692
 1087SOL    HW2 3282   1.075   4.453   0.793
 1088SOL     OW 3283   1.755   4.331   0.231
 1088SOL    HW1 3284   1.743   4.318   0.132
 1088SOL    HW2 3285   1.725   4.250   0.280
 1089SOL     OW 3286   0.768   4.868   1.023
 1089SOL    HW1 3287   0.690   4.885   1.083
 1089SOL    HW2 3288   0.802   4.955   0.987
 1090SOL     OW 3289   0.850   4.522   1.823
 1090SOL    HW1 3290   0.846   4.598   1.888
 1090SOL    HW2 3291   0.872   4.558   1.732
 1091SOL     OW 3292   0.685   4.736   0.665
 1091SOL    HW1 3293   0.754   4.720   0.735
 1091SOL    HW2 3294   0.612   4.793   0.703
 1092SOL     OW 3295   0.438   4.116   1.499
 1092SOL    HW1 3296   0.520   4.060   1.508
 1092SOL    HW2 3297   0.357   4.058   1.503
 1093SOL     OW 3298   1.603   4.171   0.737
 1093SOL    HW1 3299   1.529   4.217   0.687
 1093SOL    HW2 3300   1.654   4.239   0.790
 1094SOL     OW 3301   1.594   3.838   1.480
 1094SOL    HW1 3302   1.576   3.905   1.408
 1094SOL    HW2 3303   1.591   3.884   1.569
 1095SOL     OW 3304   0.122   4.367   0.563
 1095SOL    HW1 3305   0.077   4.279   0.580
 1095SOL    HW2 3306   0.121   4.421   0.647
 1096SOL     OW 3307   0.113   4.461   1.597
 1096SOL    HW1 3308   0.201   4.448   1.642
 1096SOL    HW2 3309   0.100   4.558   1.575
 1097SOL     OW 3310   0.809   3.728   0.502
 1097SOL    HW1 3311   0.849   3.819   0.493
 1097SOL    HW2 3312   0.709   3.736   0.508
 1098SOL     OW 3313   0.197   4.700   1.264
 1098SOL    HW1 3314   0.286   4.655   1.250
 1098SOL    HW2 3315   0.124   4.635   1.245
 1099SOL     OW 3316   1.525   4.723   0.190
 1099SOL    HW1 3317   1.462   4.647   0.203
 1099SOL    HW2 3318   1.573   4.741   0.276
 1100SOL     OW 3319   0.317   3.975   1.801
 1100SOL    HW1 3320   0.388   4.046   1.807
 1100SOL    HW2 3321   0.229   4.014   1.829
 1101SOL     OW 3322   0.598   4.453   0.270
 1101SOL    HW1 3323   0.622   4.522   0.202
 1101SOL    HW2 3324   0.520   4.486   0.324
 1102SOL     OW 3325   1.281   4.069   0.944
 1102SOL    HW1 3326   1.195   4.019   0.931
 1102SOL    HW2 3327   1.343   4.015   1.000
 1103SOL     OW 3328   0.807   4.329   1.465
 1103SOL    HW1 3329   0.760   4.326   1.554
 1103SOL    HW2 3330   0.756   4.274   1.399
 1104SOL     OW 3331   1.394   4.193   1.674
 1104SOL    HW1 3332   1.374   4.236   1.762
 1104SOL    HW2 3333   1.472   4.131   1.683
 1105SOL     OW 3334   0.973   4.614   1.572
 1105SOL    HW1 3335   1.019   4.530   1.543
 1105SOL    HW2 3336   0.917   4.648   1.497
 1106SOL     OW 3337   0.991   4.134   1.242
 1106SOL    HW1 3338   0.914   4.168   1.296
 1106SOL    HW2 3339   0.957   4.083   1.163
 1107SOL     OW 3340   1.041   4.425   0.429
 1107SOL    HW1 3341   1.067   4.421   0.525
 1107SOL    HW2 3342   0.956   4.374   0.415
 1108SOL     OW 3343   0.076   4.535   0.789
 1108SOL    HW1 3344   0.175   4.523   0.798
 1108SOL    HW2 3345   0.052   4.630   0.810
 1109SOL     OW 3346   0.865   4.072   0.195
 1109SOL    HW1 3347   0.924   4.135   0.146
 1109SOL    HW2 3348   0.884   3.978   0.166
 1110SOL     OW 3349   1.719   4.309   1.831
 1110SOL    HW1 3350   1.693   4.398   1.795
 1110SOL    HW2 3351   1.717   4.241   1.758
 1111SOL     OW 3352   0.550   3.920   0.885
 1111SOL    HW1 3353   0.545   3.915   0.985
 1111SOL    HW2 3354   0.552   4.016   0.856
 1112SOL     OW 3355   1.458   4.459   0.728
 1112SOL    HW1 3356   1.453   4.394   0.803
 1112SOL    HW2 3357   1.538   4.518   0.741
 1113SOL     OW 3358   0.202   4.009   1.498
 1113SOL    HW1 3359   0.122   4.069   1.485
 1113SOL    HW2 3360   0.192   3.960   1.584
 1114SOL     OW 3361   1.400   3.831   0.426
 1114SOL    HW1 3362   1.376   3.794   0.336
 1114SOL    HW2 3363   1.499   3.847   0.430
 1115SOL     OW 3364   0.382   4.424   0.480
 1115SOL    HW1 3365   0.427   4.334   0.477
 1115SOL    HW2 3366   0.288   4.413   0.513
 1116SOL     OW 3367   1.547   3.946   1.729
 1116SOL    HW1 3368   1.542   3.983   1.821
 1116SOL    HW2 3369   1.475   3.877   1.717
 1117SOL     OW 3370   0.614   3.846   0.117
 1117SOL    HW1 3371   0.712   3.824   0.124
 1117SOL    HW2 3372   0.583   3.829   0.024
 1118SOL     OW 3373   0.781   3.988   1.749
 1118SOL    HW1 3374   0.848   3.927   1.792
 1118SOL    HW2 3375   0.708   4.007   1.814
 1119SOL     OW 3376   1.351   4.314   1.433
 1119SOL    HW1 3377   1.379   4.271   1.518
 1119SOL    HW2 3378   1.376   4.410   1.434
 1120SOL     OW 3379   0.922   4.227   0.899
 1120SOL    HW1 3380   0.897   4.218   0.803
 1120SOL    HW2 3381   0.970   4.145   0.930
 1121SOL     OW 3382   0.539   3.788   0.512
 1121SOL    HW1 3383   0.458   3.789   0.570
 1121SOL    HW2 3384   0.542   3.871   0.457
 1122SOL     OW 3385   0.935   3.960   0.480
 1122SOL    HW1 3386   0.887   4.001   0.402
 1122SOL    HW2 3387   1.034   3.958   0.461
 1123SOL     OW 3388   1.076   4.407   1.464
 1123SOL    HW1 3389   0.996   4.346   1.467
 1123SOL    HW2 3390   1.157   4.354   1.440
 1124SOL     OW 3391   1.032   4.273   0.016
 1124SOL    HW1 3392   0.991   4.355  -0.023
 1124SOL    HW2 3393   1.096   4.299   0.089
 1125SOL     OW 3394   0.078   4.280   1.386
 1125SOL    HW1 3395   0.170   4.279   1.345
 1125SOL    HW2 3396   0.072   4.354   1.453
 1126SOL     OW 3397   0.561   3.946   1.147
 1126SOL    HW1 3398   0.599   3.862   1.184
 1126SOL    HW2 3399   0.473   3.965   1.191
 1127SOL     OW 3400   0.866   4.178   0.642
 1127SOL    HW1 3401   0.834   4.250   0.580
 1127SOL    HW2 3402   0.890   4.097   0.589
 1128SOL     OW 3403   1.017   3.763   0.753
 1128SOL    HW1 3404   0.945   3.768   0.684
 1128SOL    HW2 3405   0.993   3.694   0.822
 1129SOL     OW 3406   1.466   4.314   0.992
 1129SOL    HW1 3407   1.436   4.219   0.999
 1129SOL    HW2 3408   1.539   4.330   1.058
 1130SOL     OW 3409   1.857   4.557   0.377
 1130SOL    HW1 3410   1.899   4.493   0.441
 1130SOL    HW2 3411   1.819   4.506   0.299
 1131SOL     OW 3412   1.390   4.299   0.078
 1131SOL    HW1 3413   1.336   4.278   0.159
 1131SOL    HW2 3414   1.481   4.258   0.087
 1132SOL     OW 3415   0.527   3.980   0.328
 1132SOL    HW1 3416   0.554   3.921   0.253
 1132SOL    HW2 3417   0.527   4.075   0.297
 1133SOL     OW 3418   1.638   4.823   1.079
 1133SOL    HW1 3419   1.643   4.904   1.138
 1133SOL    HW2 3420   1.552   4.825   1.028
 1134SOL     OW 3421   0.915   3.813   1.402
 1134SOL    HW1 3422   0.940   3.793   1.307
 1134SOL    HW2 3423   0.987   3.869   1.444
 1135SOL     OW 3424   0.410   4.537   1.251
 1135SOL    HW1 3425   0.496   4.549   1.301
 1135SOL    HW2 3426   0.368   4.450   1.278
 1136SOL     OW 3427   1.274   4.110   1.262
 1136SOL    HW1 3428   1.295   4.184   1.326
 1136SOL    HW2 3429   1.185   4.127   1.219
 1137SOL     OW 3430   0.566   4.261   0.865
 1137SOL    HW1 3431   0.578   4.327   0.791
 1137SOL    HW2 3432   0.612   4.295   0.948
 1138SOL     OW 3433   1.582   4.363   0.472
 1138SOL    HW1 3434   1.551   4.424   0.545
 1138SOL    HW2 3435   1.632   4.415   0.403
 1139SOL     OW 3436   0.402   4.475   1.598
 1139SOL    HW1 3437   0.470   4.530   1.551
 1139SOL    HW2 3438   0.442   4.387   1.625
 1140SOL     OW 3439   1.587   4.503   1.670
 1140SOL    HW1 3440   1.495   4.541   1.665
 1140SOL    HW2 3441   1.647   4.550   1.605
 1141SOL     OW 3442   1.013   3.829   1.770
 1141SOL    HW1 3443   1.019   3.914   1.718
 1141SOL    HW2 3444   1.045   3.753   1.713
 1142SOL     OW 3445   0.504   3.774   1.740
 1142SOL    HW1 3446   0.462   3.717   1.670
 1142SOL    HW2 3447   0.438   3.843   1.772
 1143SOL     OW 3448   0.573   4.594   1.029
 1143SOL    HW1 3449   0.617   4.683   1.020
 1143SOL    HW2 3450   0.510   4.594   1.106
 1144SOL     OW 3451   1.360   4.586   1.045
 1144SOL    HW1 3452   1.285   4.586   0.979
 1144SOL    HW2 3453   1.397   4.494   1.054
 1145SOL     OW 3454   1.209   4.249   0.275
 1145SOL    HW1 3455   1.222   4.165   0.329
 1145SOL    HW2 3456   1.180   4.323   0.335
 1146SOL     OW 3457   0.307   3.937   1.231
 1146SOL    HW1 3458   0.284   3.974   1.321
 1146SOL    HW2 3459   0.277   3.842   1.225
 1147SOL     OW 3460   0.037   5.034   1.282
 1147SOL    HW1 3461   0.090   4.985   1.350
 1147SOL    HW2 3462   0.059   5.132   1.287
 1148SOL     OW 3463   0.732   4.358   1.064
 1148SOL    HW1 3464   0.791   4.332   0.988
 1148SOL    HW2 3465   0.704   4.454   1.053
 1149SOL     OW 3466   1.728   4.659   1.854
 1149SOL    HW1 3467   1.682   4.652   1.765
 1149SOL    HW2 3468   1.666   4.703   1.920
 1150SOL     OW 3469   0.307   3.787   0.618
 1150SOL    HW1 3470   0.296   3.881   0.651
 1150SOL    HW2 3471   0.302   3.724   0.695
 1151SOL     OW 3472   1.622   4.091   0.374
 1151SOL    HW1 3473   1.624   4.015   0.438
 1151SOL    HW2 3474   1.574   4.168   0.414
 1152SOL     OW 3475   1.023   4.490   0.966
 1152SOL    HW1 3476   1.038   4.511   1.062
 1152SOL    HW2 3477   0.993   4.395   0.957
 1153SOL     OW 3478   0.350   4.622   1.804
 1153SOL    HW1 3479   0.426   4.666   1.852
 1153SOL    HW2 3480   0.385   4.575   1.722
 1154SOL     OW 3481   1.540   3.998   0.125
 1154SOL    HW1 3482   1.479   3.923   0.148
 1154SOL    HW2 3483   1.562   4.050   0.208
 1155SOL     OW 3484   1.303   4.562   0.042
 1155SOL    HW1 3485   1.337   4.469   0.057
 1155SOL    HW2 3486   1.321   4.589  -0.053
 1156SOL     OW 3487   0.319   4.534   0.949
 1156SOL    HW1 3488   0.412   4.570   0.954
 1156SOL    HW2 3489   0.313   4.449   1.001
 1157SOL     OW 3490   0.339   4.233   1.006
 1157SOL    HW1 3491   0.287   4.150   0.989
 1157SOL    HW2 3492   0.416   4.238   0.942
 1158SOL     OW 3493   1.138   4.104   1.678
 1158SOL    HW1 3494   1.093   4.167   1.742
 1158SOL    HW2 3495   1.231   4.135   1.661
 1159SOL     OW 3496   1.160   3.931   1.477
 1159SOL    HW1 3497   1.160   3.995   1.554
 1159SOL    HW2 3498   1.188   3.979   1.394
 1160SOL     OW 3499   1.002   4.520   1.238
 1160SOL    HW1 3500   1.043   4.488   1.324
 1160SOL    HW2 3501   0.906   4.493   1.235
 1161SOL     OW 3502   0.040   4.268   1.114
 1161SOL    HW1 3503   0.125   4.235   1.073
 1161SOL    HW2 3504   0.053   4.283   1.212
 1162SOL     OW 3505   0.189   4.244   1.722
 1162SOL    HW1 3506   0.248   4.204   1.652
 1162SOL    HW2 3507   0.131   4.315   1.681
 1163SOL     OW 3508   1.369   4.674   1.660
 1163SOL    HW1 3509   1.408   4.763   1.680
 1163SOL    HW2 3510   1.379   4.654   1.563
 1164SOL     OW 3511   0.815   4.296   0.325
 1164SOL    HW1 3512   0.822   4.207   0.279
 1164SOL    HW2 3513   0.721   4.330   0.317
 1165SOL     OW 3514   1.657   4.328   1.206
 1165SOL    HW1 3515   1.619   4.259   1.268
 1165SOL    HW2 3516   1.739   4.292   1.162
 1166SOL     OW 3517   0.671   4.188   1.269
 1166SOL    HW1 3518   0.637   4.099   1.239
 1166SOL    HW2 3519   0.697   4.242   1.189
 1167SOL     OW 3520   0.473   4.224   0.191
 1167SOL    HW1 3521   0.534   4.304   0.195
 1167SOL    HW2 3522   0.378   4.255   0.198
 1168SOL     OW 3523   0.159   4.861   1.466
 1168SOL    HW1 3524   0.181   4.800   1.542
 1168SOL    HW2 3525   0.169   4.812   1.380
 1169SOL     OW 3526   1.347   4.783   1.234
 1169SOL    HW1 3527   1.371   4.720   1.160
 1169SOL    HW2 3528   1.257   4.823   1.216
 1170SOL     OW 3529   1.302   4.579   0.309
 1170SOL    HW1 3530   1.216   4.548   0.351
 1170SOL    HW2 3531   1.298   4.565   0.210
 1171SOL     OW 3532   0.903   3.810   0.133
 1171SOL    HW1 3533   0.954   3.811   0.047
 1171SOL    HW2 3534   0.959   3.768   0.204
 1172SOL     OW 3535   1.726   3.859   0.523
 1172SOL    HW1 3536   1.799   3.842   0.456
 1172SOL    HW2 3537   1.695   3.772   0.561
 1173SOL     OW 3538   1.280   4.651   0.672
 1173SOL    HW1 3539   1.340   4.570   0.674
 1173SOL    HW2 3540   1.320   4.720   0.612
 1174SOL     OW 3541   1.841   3.899   0.963
 1174SOL    HW1 3542   1.880   3.814   0.927
 1174SOL    HW2 3543   1.743   3.901   0.944
 1175SOL     OW 3544   0.263   4.050   0.720
 1175SOL    HW1 3545   0.184   4.101   0.686
 1175SOL    HW2 3546   0.254   4.035   0.818
 1176SOL     OW 3547   0.916   4.634   0.291
 1176SOL    HW1 3548   0.979   4.672   0.223
 1176SOL    HW2 3549   0.956   4.551   0.330
 1177SOL     OW 3550   1.014   3.960   0.971
 1177SOL    HW1 3551   1.006   3.924   0.878
 1177SOL    HW2 3552   1.012   3.884   1.036
 1178SOL     OW 3553   1.709   4.109   1.381
 1178SOL    HW1 3554   1.782   4.178   1.385
 1178SOL    HW2 3555   1.737   4.034   1.322
 1179SOL     OW 3556   0.105   4.737   1.726
 1179SOL    HW1 3557   0.028   4.704   1.780
 1179SOL    HW2 3558   0.190   4.707   1.768
 1180SOL     OW 3559   0.672   3.927   1.489
 1180SOL    HW1 3560   0.762   3.911   1.449
 1180SOL    HW2 3561   0.680   3.932   1.588
 1181SOL     OW 3562   0.075   4.069   0.033
 1181SOL    HW1 3563  -0.017   4.041   0.004
 1181SOL    HW2 3564   0.106   4.146  -0.023
 1182SOL     OW 3565   1.440   4.580   1.398
 1182SOL    HW1 3566   1.383   4.632   1.335
 1182SOL    HW2 3567   1.536   4.592   1.374
 1183SOL     OW 3568   0.072   3.890   0.318
 1183SOL    HW1 3569   0.055   3.973   0.264
 1183SOL    HW2 3570   0.162   3.853   0.296
 1184SOL     OW 3571   0.613   4.566   1.431
 1184SOL    HW1 3572   0.669   4.647   1.414
 1184SOL    HW2 3573   0.672   4.486   1.434
 1185SOL     OW 3574   0.716   4.289   1.708
 1185SOL    HW1 3575   0.735   4.354   1.782
 1185SOL    HW2 3576   0.776   4.209   1.717
 1186SOL     OW 3577   1.674   4.607   1.254
 1186SOL    HW1 3578   1.647   4.518   1.217
 1186SOL    HW2 3579   1.675   4.675   1.181
 1187SOL     OW 3580   1.225   4.049   0.449
 1187SOL    HW1 3581   1.290   3.975   0.438
 1187SOL    HW2 3582   1.245   4.099   0.533
 1188SOL     OW 3583   0.594   4.469   0.652
 1188SOL    HW1 3584   0.644   4.554   0.633
 1188SOL    HW2 3585   0.506   4.471   0.604
 1189SOL     OW 3586   1.777   4.066   1.642
 1189SOL    HW1 3587   1.760   4.097   1.548
 1189SOL    HW2 3588   1.693   4.029   1.680
 1190SOL     OW 3589   1.730   4.658   1.517
 1190SOL    HW1 3590   1.768   4.749   1.532
 1190SOL    HW2 3591   1.722   4.641   1.418
 1191SOL     OW 3592   1.083   4.708   0.087
 1191SOL    HW1 3593   1.060   4.761   0.005
 1191SOL    HW2 3594   1.164   4.652   0.068
 1192SOL     OW 3595   1.824   3.916   1.227
 1192SOL    HW1 3596   1.820   3.826   1.271
 1192SOL    HW2 3597   1.827   3.905   1.128
 1193SOL     OW 3598   0.428   4.148   0.520
 1193SOL    HW1 3599   0.458   4.076   0.458
 1193SOL    HW2 3600   0.389   4.108   0.603
 1194SOL     OW 3601   0.317   4.271   1.280
 1194SOL    HW1 3602   0.355   4.212   1.352
 1194SOL    HW2 3603   0.357   4.245   1.192
 1195SOL     OW 3604   1.424   3.938   1.112
 1195SOL    HW1 3605   1.476   3.873   1.167
 1195SOL    HW2 3606   1.375   4.001   1.173
 1196SOL     OW 3607   1.001   3.758   1.154
 1196SOL    HW1 3608   0.938   3.686   1.123
 1196SOL    HW2 3609   1.094   3.722   1.154
 1197SOL     OW 3610   1.352   3.776   0.168
 1197SOL    HW1 3611   1.387   3.735   0.084
 1197SOL    HW2 3612   1.262   3.738   0.188
 1198SOL     OW 3613   1.300   4.177   0.691
 1198SOL    HW1 3614   1.241   4.257   0.695
 1198SOL    HW2 3615   1.315   4.142   0.784
 1199SOL     OW 3616   1.593   3.945   0.882
 1199SOL    HW1 3617   1.509   3.944   0.936
 1199SOL    HW2 3618   1.595   4.028   0.826
 1200SOL     OW 3619   0.230   4.352   1.975
 1200SOL    HW1 3620   0.137   4.350   2.012
 1200SOL    HW2 3621   0.231   4.313   1.883
 1201SOL     OW 3622   0.225   3.999   2.858
 1201SOL    HW1 3623   0.260   3.982   2.950
 1201SOL    HW2 3624   0.137   3.954   2.846
 1202SOL     OW 3625   0.019   4.092   2.509
 1202SOL    HW1 3626  -0.063   4.135   2.548
 1202SOL    HW2 3627  -0.009   4.019   2.446
 1203SOL     OW 3628   1.135   4.427   2.579
 1203SOL    HW1 3629   1.192   4.505   2.554
 1203SOL    HW2 3630   1.075   4.453   2.655
 1204SOL     OW 3631   1.755   4.331   2.093
 1204SOL    HW1 3632   1.743   4.318   1.994
 1204SOL    HW2 3633   1.725   4.250   2.142
 1205SOL     OW 3634   0.768   4.868   2.885
 1205SOL    HW1 3635   0.690   4.885   2.945
 1205SOL    HW2 3636   0.802   4.955   2.849
 1206SOL     OW 3637   0.850   4.522   3.685
 1206SOL    HW1 3638   0.846   4.598   3.750
 1206SOL    HW2 3639   0.872   4.558   3.594
 1207SOL     OW 3640   0.685   4.736   2.527
 1207SOL    HW1 3641   0.754   4.720   2.597
 1207SOL    HW2 3642   0.612   4.793   2.565
 1208SOL     OW 3643   0.438   4.116   3.361
 1208SOL    HW1 3644   0.520   4.060   3.370
 1208SOL    HW2 3645   0.357   4.058   3.365
 1209SOL     OW 3646   1.603   4.171   2.599
 1209SOL    HW1 3647   1.529   4.217   2.549
 1209SOL    HW2 3648   1.654   4.239   2.652
 1210SOL     OW 3649   1.594   3.838   3.342
 1210SOL    HW1 3650   1.576   3.905   3.270
 1210SOL    HW2 3651   1.591   3.884   3.431
 1211SOL     OW 3652   0.122   4.367   2.425
 1211SOL    HW1 3653   0.077   4.279   2.442
 1211SOL    HW2 3654   0.121   4.421   2.509
 1212SOL     OW 3655   0.113   4.461   3.459
 1212SOL    HW1 3656   0.201   4.448   3.504
 1212SOL    HW2 3657   0.100   4.558   3.437
 1213SOL     OW 3658   0.809   3.728   2.364
 1213SOL    HW1 3659   0.849   3.819   2.355
 1213SOL    HW2 3660   0.709   3.736   2.370
 1214SOL     OW 3661   0.197   4.700   3.126
 1214SOL    HW1 3662   0.286   4.655   3.112
 1214SOL    HW2 3663   0.124   4.635   3.107
 1215SOL     OW 3664   1.525   4.723   2.052
 1215SOL    HW1 3665   1.462   4.647   2.065
 1215SOL    HW2 3666   1.573   4.741   2.138
 1216SOL     OW 3667   0.317   3.975   3.663
 1216SOL    HW1 3668   0.388   4.046   3.669
 1216SOL    HW2 3669   0.229   4.014   3.691
 1217SOL     OW 3670   0.598   4.453   2.132
 1217SOL    HW1 3671   0.622   4.522   2.064
 1217SOL    HW2 3672   0.520   4.486   2.186
 1218SOL     OW 3673   1.281   4.069   2.806
 1218SOL    HW1 3674   1.195   4.019   2.793
 1218SOL    HW2 3675   1.343   4.015   2.862
 1219SOL     OW 3676   0.807   4.329   3.327
 1219SOL    HW1 3677   0.760   4.326   3.416
 1219SOL    HW2 3678   0.756   4.274   3.261
 1220SOL     OW 3679   1.394   4.193   3.536
 1220SOL    HW1 3680   1.374   4.236   3.624
 1220SOL    HW2 3681   1.472   4.131   3.545
 1221SOL     OW 3682   0.973   4.614   3.434
 1221SOL    HW1 3683   1.019   4.530   3.405
 1221SOL    HW2 3684   0.917   4.648   3.359
 1222SOL     OW 3685   0.991   4.134   3.104
 1222SOL    HW1 3686   0.914   4.168   3.158
 1222SOL    HW2 3687   0.957   4.083   3.025
 1223SOL     OW 3688   1.041   4.425   2.291
 1223SOL    HW1 3689   1.067   4.421   2.387
 1223SOL    HW2 3690   0.956   4.374   2.277
 1224SOL     OW 3691   0.076   4.535   2.651
 1224SOL    HW1 3692   0.175   4.523   2.660
 1224SOL    HW2 3693   0.052   4.630   2.672
 1225SOL     OW 3694   0.865   4.072   2.057
 1225SOL    HW1 3695   0.924   4.135   2.008
 1225SOL    HW2 3696   0.884   3.978   2.028
 1226SOL     OW 3697   1.719   4.309   3.693
 1226SOL    HW1 3698   1.693   4.398   3.657
 1226SOL    HW2 3699   1.717   4.241   3.620
 1227SOL     OW 3700   0.550   3.920   2.747
 1227SOL    HW1 3701   0.545   3.915   2.847
 1227SOL    HW2 3702   0.552   4.016   2.718
 1228SOL     OW 3703   1.458   4.459   2.590
 1228SOL    HW1 3704   1.453   4.394   2.665
 1228SOL    HW2 3705   1.538   4.518   2.603
 1229SOL     OW 3706   0.202   4.009   3.360
 1229SOL    HW1 3707   0.122   4.069   3.347
 1229SOL    HW2 3708   0.192   3.960   3.446
 1230SOL     OW 3709   1.400   3.831   2.288
 1230SOL    HW1 3710   1.376   3.794   2.198
 1230SOL    HW2 3711   1.499   3.847   2.292
 1231SOL     OW 3712   0.382   4.424   2.342
 1231SOL    HW1 3713   0.427   4.334   2.339
 1231SOL    HW2 3714   0.288   4.413   2.375
 1232SOL     OW 3715   1.547   3.946   3.591
 1232SOL    HW1 3716   1.542   3.983   3.683
 1232SOL    HW2 3717   1.475   3.877   3.579
 1233SOL     OW 3718   0.614   3.846   1.979
 1233SOL    HW1 3719   0.712   3.824   1.986
 1233SOL    HW2 3720   0.583   3.829   1.886
 1234SOL     OW 3721   0.781   3.988   3.611
 1234SOL    HW1 3722   0.848   3.927   3.654
 1234SOL    HW2 3723   0.708   4.007   3.676
 1235SOL     OW 3724   1.351   4.314   3.295
 1235SOL    HW1 3725   1.379   4.271   3.380
 1235SOL    HW2 3726   1.376   4.410   3.296
 1236SOL     OW 3727   0.922   4.227   2.761
 1236SOL    HW1 3728   0.897   4.218   2.665
 1236SOL    HW2 3729   0.970   4.145   2.792
 1237SOL     OW 3730   0.539   3.788   2.374
 1237SOL    HW1 3731   0.458   3.789   2.432
 1237SOL    HW2 3732   0.542   3.871   2.319
 1238SOL     OW 3733   0.297   3.759   2.033
 1238SOL    HW1 3734   0.346   3.843   2.012
 1238SOL    HW2 3735   0.359   3.694   2.078
 1239SOL     OW 3736   0.935   3.960   2.342
 1239SOL    HW1 3737   0.887   4.001   2.264
 1239SOL    HW2 3738   1.034   3.958   2.323
 1240SOL     OW 3739   1.076   4.407   3.326
 1240SOL    HW1 3740   0.996   4.346   3.329
 1240SOL    HW2 3741   1.157   4.354   3.302
 1241SOL     OW 3742   1.032   4.273   1.878
 1241SOL    HW1 3743   0.991   4.355   1.839
 1241SOL    HW2 3744   1.096   4.299   1.951
 1242SOL     OW 3745   0.078   4.280   3.248
 1242SOL    HW1 3746   0.170   4.279   3.207
 1242SOL    HW2 3747   0.072   4.354   3.315
 1243SOL     OW 3748   0.561   3.946   3.009
 1243SOL    HW1 3749   0.599   3.862   3.046
 1243SOL    HW2 3750   0.473   3.965   3.053
 1244SOL     OW 3751   0.866   4.178   2.504
 1244SOL    HW1 3752   0.834   4.250   2.442
 1244SOL    HW2 3753   0.890   4.097   2.451
 1245SOL     OW 3754   1.017   3.763   2.615
 1245SOL    HW1 3755   0.945   3.768   2.546
 1245SOL    HW2 3756   0.993   3.694   2.684
 1246SOL     OW 3757   1.466   4.314   2.854
 1246SOL    HW1 3758   1.436   4.219   2.861
 1246SOL    HW2 3759   1.539   4.330   2.920
 1247SOL     OW 3760   1.857   4.557   2.239
 1247SOL    HW1 3761   1.899   4.493   2.303
 1247SOL    HW2 3762   1.819   4.506   2.161
 1248SOL     OW 3763   1.390   4.299   1.940
 1248SOL    HW1 3764   1.336   4.278   2.021
 1248SOL    HW2 3765   1.481   4.258   1.949
 1249SOL     OW 3766   0.527   3.980   2.190
 1249SOL    HW1 3767   0.554   3.921   2.115
 1249SOL    HW2 3768   0.527   4.075   2.159
 1250SOL     OW 3769   1.638   4.823   2.941
 1250SOL    HW1 3770   1.643   4.904   3.000
 1250SOL    HW2 3771   1.552   4.825   2.890
 1251SOL     OW 3772   0.915   3.813   3.264
 1251SOL    HW1 3773   0.940   3.793   3.169
 1251SOL    HW2 3774   0.987   3.869   3.306
 1252SOL     OW 3775   0.410   4.537   3.113
 1252SOL    HW1 3776   0.496   4.549   3.163
 1252SOL    HW2 3777   0.368   4.450   3.140
 1253SOL     OW 3778   1.274   4.110   3.124
 1253SOL    HW1 3779   1.295   4.184   3.188
 1253SOL    HW2 3780   1.185   4.127   3.081
 1254SOL     OW 3781   0.566   4.261   2.727
 1254SOL    HW1 3782   0.578   4.327   2.653
 1254SOL    HW2 3783   0.612   4.295   2.810
 1255SOL     OW 3784   1.582   4.363   2.334
 1255SOL    HW1 3785   1.551   4.424   2.407
 1255SOL    HW2 3786   1.632   4.415   2.265
 1256SOL     OW 3787   0.402   4.475   3.460
 1256SOL    HW1 3788   0.470   4.530   3.413
 1256SOL    HW2 3789   0.442   4.387   3.487
 1257SOL     OW 3790   1.587   4.503   3.532
 1257SOL    HW1 3791   1.495   4.541   3.527
 1257SOL    HW2 3792   1.647   4.550   3.467
 1258SOL     OW 3793   1.013   3.829   3.632
 1258SOL    HW1 3794   1.019   3.914   3.580
 1258SOL    HW2 3795   1.045   3.753   3.575
 1259SOL     OW 3796   0.504   3.774   3.602
 1259SOL    HW1 3797   0.462   3.717   3.532
 1259SOL    HW2 3798   0.438   3.843   3.634
 1260SOL     OW 3799   0.573   4.594   2.891
 1260SOL    HW1 3800   0.617   4.683   2.882
 1260SOL    HW2 3801   0.510   4.594   2.968
 1261SOL     OW 3802   1.360   4.586   2.907
 1261SOL    HW1 3803   1.285   4.586   2.841
 1261SOL    HW2 3804   1.397   4.494   2.916
 1262SOL     OW 3805   1.209   4.249   2.137
 1262SOL    HW1 3806   1.222   4.165   2.191
 1262SOL    HW2 3807   1.180   4.323   2.197
 1263SOL     OW 3808   0.307   3.937   3.093
 1263SOL    HW1 3809   0.284   3.974   3.183
 1263SOL    HW2 3810   0.277   3.842   3.087
 1264SOL     OW 3811   0.037   5.034   3.144
 1264SOL    HW1 3812   0.090   4.985   3.212
 1264SOL    HW2 3813   0.059   5.132   3.149
 1265SOL     OW 3814   0.732   4.358   2.926
 1265SOL    HW1 3815   0.791   4.332   2.850
 1265SOL    HW2 3816   0.704   4.454   2.915
 1266SOL     OW 3817   1.728   4.659   3.716
 1266SOL    HW1 3818   1.682   4.652   3.627
 1266SOL    HW2 3819   1.666   4.703   3.782
 1267SOL     OW 3820   0.307   3.787   2.480
 1267SOL    HW1 3821   0.296   3.881   2.513
 1267SOL    HW2 3822   0.302   3.724   2.557
 1268SOL     OW 3823   1.622   4.091   2.236
 1268SOL    HW1 3824   1.624   4.015   2.300
 1268SOL    HW2 3825   1.574   4.168   2.276
 1269SOL     OW 3826   1.023   4.490   2.828
 1269SOL    HW1 3827   1.038   4.511   2.924
 1269SOL    HW2 3828   0.993   4.395   2.819
 1270SOL     OW 3829   0.350   4.622   3.666
 1270SOL    HW1 3830   0.426   4.666   3.714
 1270SOL    HW2 3831   0.385   4.575   3.584
 1271SOL     OW 3832   1.540   3.998   1.987
 1271SOL    HW1 3833   1.479   3.923   2.010
 1271SOL    HW2 3834   1.562   4.050   2.070
 1272SOL     OW 3835   1.303   4.562   1.904
 1272SOL    HW1 3836   1.337   4.469   1.919
 1272SOL    HW2 3837   1.321   4.589   1.809
 1273SOL     OW 3838   0.319   4.534   2.811
 1273SOL    HW1 3839   0.412   4.570   2.816
 1273SOL    HW2 3840   0.313   4.449   2.863
 1274SOL     OW 3841   0.339   4.233   2.868
 1274SOL    HW1 3842   0.287   4.150   2.851
 1274SOL    HW2 3843   0.416   4.238   2.804
 1275SOL     OW 3844   1.138   4.104   3.540
 1275SOL    HW1 3845   1.093   4.167   3.604
 1275SOL    HW2 3846   1.231   4.135   3.523
 1276SOL     OW 3847   1.160   3.931   3.339
 1276SOL    HW1 3848   1.160   3.995   3.416
 1276SOL    HW2 3849   1.188   3.979   3.256
 1277SOL     OW 3850   1.002   4.520   3.100
 1277SOL    HW1 3851   1.043   4.488   3.186
 1277SOL    HW2 3852   0.906   4.493   3.097
 1278SOL     OW 3853   0.040   4.268   2.976
 1278SOL    HW1 3854   0.125   4.235   2.935
 1278SOL    HW2 3855   0.053   4.283   3.074
 1279SOL     OW 3856   0.189   4.244   3.584
 1279SOL    HW1 3857   0.248   4.204   3.514
 1279SOL    HW2 3858   0.131   4.315   3.543
 1280SOL     OW 3859   1.369   4.674   3.522
 1280SOL    HW1 3860   1.408   4.763   3.542
 1280SOL    HW2 3861   1.379   4.654   3.425
 1281SOL     OW 3862   0.815   4.296   2.187
 1281SOL    HW1 3863   0.822   4.207   2.141
 1281SOL    HW2 3864   0.721   4.330   2.179
 1282SOL     OW 3865   1.657   4.328   3.068
 1282SOL    HW1 3866   1.619   4.259   3.130
 1282SOL    HW2 3867   1.739   4.292   3.024
 1283SOL     OW 3868   0.671   4.188   3.131
 1283SOL    HW1 3869   0.637   4.099   3.101
 1283SOL    HW2 3870   0.697   4.242   3.051
 1284SOL     OW 3871   0.473   4.224   2.053
 1284SOL    HW1 3872   0.534   4.304   2.057
 1284SOL    HW2 3873   0.378   4.255   2.060
 1285SOL     OW 3874   0.159   4.861   3.328
 1285SOL    HW1 3875   0.181   4.800   3.404
 1285SOL    HW2 3876   0.169   4.812   3.242
 1286SOL     OW 3877   1.347   4.783   3.096
 1286SOL    HW1 3878   1.371   4.720   3.022
 1286SOL    HW2 3879   1.257   4.823   3.078
 1287SOL     OW 3880   1.302   4.579   2.171
 1287SOL    HW1 3881   1.216   4.548   2.213
 1287SOL    HW2 3882   1.298   4.565   2.072
 1288SOL     OW 3883   1.726   3.859   2.385
 1288SOL    HW1 3884   1.799   3.842   2.318
 1288SOL    HW2 3885   1.695   3.772   2.423
 1289SOL     OW 3886   1.280   4.651   2.534
 1289SOL    HW1 3887   1.340   4.570   2.536
 1289SOL    HW2 3888   1.320   4.720   2.474
 1290SOL     OW 3889   1.841   3.899   2.825
 1290SOL    HW1 3890   1.880   3.814   2.789
 1290SOL    HW2 3891   1.743   3.901   2.806
 1291SOL     OW 3892   0.263   4.050   2.582
 1291SOL    HW1 3893   0.184   4.101   2.548
 1291SOL    HW2 3894   0.254   4.035   2.680
 1292SOL     OW 3895   0.916   4.634   2.153
 1292SOL    HW1 3896   0.979   4.672   2.085
 1292SOL    HW2 3897   0.956   4.551   2.192
 1293SOL     OW 3898   1.014   3.960   2.833
 1293SOL    HW1 3899   1.006   3.924   2.740
 1293SOL    HW2 3900   1.012   3.884   2.898
 1294SOL     OW 3901   1.709   4.109   3.243
 1294SOL    HW1 3902   1.782   4.178   3.247
 1294SOL    HW2 3903   1.737   4.034   3.184
 1295SOL     OW 3904   0.105   4.737   3.588
 1295SOL    HW1 3905   0.028   4.704   3.642
 1295SOL    HW2 3906   0.190   4.707   3.630
 1296SOL     OW 3907   0.672   3.927   3.351
 1296SOL    HW1 3908   0.762   3.911   3.311
 1296SOL    HW2 3909   0.680   3.932   3.450
 1297SOL     OW 3910   0.075   4.069   1.895
 1297SOL    HW1 3911  -0.017   4.041   1.866
 1297SOL    HW2 3912   0.106   4.146   1.839
 1298SOL     OW 3913   1.440   4.580   3.260
 1298SOL    HW1 3914   1.383   4.632   3.197
 1298SOL    HW2 3915   1.536   4.592   3.236
 1299SOL     OW 3916   0.072   3.890   2.180
 1299SOL    HW1 3917   0.055   3.973   2.126
 1299SOL    HW2 3918   0.162   3.853   2.158
 1300SOL     OW 3919   0.613   4.566   3.293
 1300SOL    HW1 3920   0.669   4.647   3.276
 1300SOL    HW2 3921   0.672   4.486   3.296
 1301SOL     OW 3922   0.716   4.289   3.570
 1301SOL    HW1 3923   0.735   4.354   3.644
 1301SOL    HW2 3924   0.776   4.209   3.579
 1302SOL     OW 3925   1.674   4.607   3.116
 1302SOL    HW1 3926   1.647   4.518   3.079
 1302SOL    HW2 3927   1.675   4.675   3.043
 1303SOL     OW 3928   1.225   4.049   2.311
 1303SOL    HW1 3929   1.290   3.975   2.300
 1303SOL    HW2 3930   1.245   4.099   2.395
 1304SOL     OW 3931   0.594   4.469   2.514
 1304SOL    HW1 3932   0.644   4.554   2.495
 1304SOL    HW2 3933   0.506   4.471   2.466
 1305SOL     OW 3934   1.777   4.066   3.504
 1305SOL    HW1 3935   1.760   4.097   3.410
 1305SOL    HW2 3936   1.693   4.029   3.542
 1306SOL     OW 3937   1.730   4.658   3.379
 1306SOL    HW1 3938   1.768   4.749   3.394
 1306SOL    HW2 3939   1.722   4.641   3.280
 1307SOL     OW 3940   1.824   3.916   3.089
 1307SOL    HW1 3941   1.820   3.826   3.133
 1307SOL    HW2 3942   1.827   3.905   2.990
 1308SOL     OW 3943   0.428   4.148   2.382
 1308SOL    HW1 3944   0.458   4.076   2.320
 1308SOL    HW2 3945   0.389   4.108   2.465
 1309SOL     OW 3946   0.317   4.271   3.142
 1309SOL    HW1 3947   0.355   4.212   3.214
 1309SOL    HW2 3948   0.357   4.245   3.054
 1310SOL     OW 3949   1.424   3.938   2.974
 1310SOL    HW1 3950   1.476   3.873   3.029
 1310SOL    HW2 3951   1.375   4.001   3.035
 1311SOL     OW 3952   1.001   3.758   3.016
 1311SOL    HW1 3953   0.938   3.686   2.985
 1311SOL    HW2 3954   1.094   3.722   3.016
 1312SOL     OW 3955   1.352   3.776   2.030
 1312SOL    HW1 3956   1.387   3.735   1.946
 1312SOL    HW2 3957   1.262   3.738   2.050
 1313SOL     OW 3958   1.300   4.177   2.553
 1313SOL    HW1 3959   1.241   4.257   2.557
 1313SOL    HW2 3960   1.315   4.142   2.646
 1314SOL     OW 3961   1.593   3.945   2.744
 1314SOL    HW1 3962   1.509   3.944   2.798
 1314SOL    HW2 3963   1.595   4.028   2.688
 1315SOL     OW 3964   0.230   4.352   3.837
 1315SOL    HW1 3965   0.137   4.350   3.874
 1315SOL    HW2 3966   0.231   4.313   3.745
 1316SOL     OW 3967   0.225   3.999   4.720
 1316SOL    HW1 3968   0.260   3.982   4.812
 1316SOL    HW2 3969   0.137   3.954   4.708
 1317SOL     OW 3970   0.019   4.092   4.371
 1317SOL    HW1 3971  -0.063   4.135   4.410
 1317SOL    HW2 3972  -0.009   4.019   4.308
 1318SOL     OW 3973   1.135   4.427   4.441
 1318SOL    HW1 3974   1.192   4.505   4.416
 1318SOL    HW2 3975   1.075   4.453   4.517
 1319SOL     OW 3976   1.755   4.331   3.955
 1319SOL    HW1 3977   1.743   4.318   3.856
 1319SOL    HW2 3978   1.725   4.250   4.004
 1320SOL     OW 3979   0.685   4.736   4.389
 1320SOL    HW1 3980   0.754   4.720   4.459
 1320SOL    HW2 3981   0.612   4.793   4.427
 1321SOL     OW 3982   1.603   4.171   4.461
 1321SOL    HW1 3983   1.529   4.217   4.411
 1321SOL    HW2 3984   1.654   4.239   4.514
 1322SOL     OW 3985   0.122   4.367   4.287
 1322SOL    HW1 3986   0.077   4.279   4.304
 1322SOL    HW2 3987   0.121   4.421   4.371
 1323SOL     OW 3988   0.613   5.089   4.450
 1323SOL    HW1 3989   0.564   5.002   4.459
 1323SOL    HW2 3990   0.590   5.132   4.363
 1324SOL     OW 3991   0.809   3.728   4.226
 1324SOL    HW1 3992   0.849   3.819   4.217
 1324SOL    HW2 3993   0.709   3.736   4.232
 1325SOL     OW 3994   1.525   4.723   3.914
 1325SOL    HW1 3995   1.462   4.647   3.927
 1325SOL    HW2 3996   1.573   4.741   4.000
 1326SOL     OW 3997   0.598   4.453   3.994
 1326SOL    HW1 3998   0.622   4.522   3.926
 1326SOL    HW2 3999   0.520   4.486   4.048
 1327SOL     OW 4000   1.281   4.069   4.668
 1327SOL    HW1 4001   1.195   4.019   4.655
 1327SOL    HW2 4002   1.343   4.015   4.724
 1328SOL     OW 4003   1.041   4.425   4.153
 1328SOL    HW1 4004   1.067   4.421   4.249
 1328SOL    HW2 4005   0.956   4.374   4.139
 1329SOL     OW 4006   0.076   4.535   4.513
 1329SOL    HW1 4007   0.175   4.523   4.522
 1329SOL    HW2 4008   0.052   4.630   4.534
 1330SOL     OW 4009   0.865   4.072   3.919
 1330SOL    HW1 4010   0.924   4.135   3.870
 1330SOL    HW2 4011   0.884   3.978   3.890
 1331SOL     OW 4012   1.458   4.459   4.452
 1331SOL    HW1 4013   1.453   4.394   4.527
 1331SOL    HW2 4014   1.538   4.518   4.465
 1332SOL     OW 4015   1.400   3.831   4.150
 1332SOL    HW1 4016   1.376   3.794   4.060
 1332SOL    HW2 4017   1.499   3.847   4.154
 1333SOL     OW 4018   0.382   4.424   4.204
 1333SOL    HW1 4019   0.427   4.334   4.201
 1333SOL    HW2 4020   0.288   4.413   4.237
 1334SOL     OW 4021   0.614   3.846   3.841
 1334SOL    HW1 4022   0.712   3.824   3.848
 1334SOL    HW2 4023   0.583   3.829   3.748
 1335SOL     OW 4024   0.922   4.227   4.623
 1335SOL    HW1 4025   0.897   4.218   4.527
 1335SOL    HW2 4026   0.970   4.145   4.654
 1336SOL     OW 4027   0.539   3.788   4.236
 1336SOL    HW1 4028   0.458   3.789   4.294
 1336SOL    HW2 4029   0.542   3.871   4.181
 1337SOL     OW 4030   0.297   3.759   3.895
 1337SOL    HW1 4031   0.346   3.843   3.874
 1337SOL    HW2 4032   0.359   3.694   3.940
 1338SOL     OW 4033   0.935   3.960   4.204
 1338SOL    HW1 4034   0.887   4.001   4.126
 1338SOL    HW2 4035   1.034   3.958   4.185
 1339SOL     OW 4036   1.032   4.273   3.740
 1339SOL    HW1 4037   0.991   4.355   3.701
 1339SOL    HW2 4038   1.096   4.299   3.813
 1340SOL     OW 4039   0.866   4.178   4.366
 1340SOL    HW1 4040   0.834   4.250   4.304
 1340SOL    HW2 4041   0.890   4.097   4.313
 1341SOL     OW 4042   1.017   3.763   4.477
 1341SOL    HW1 4043   0.945   3.768   4.408
 1341SOL    HW2 4044   0.993   3.694   4.546
 1342SOL     OW 4045   1.857   4.557   4.101
 1342SOL    HW1 4046   1.899   4.493   4.165
 1342SOL    HW2 4047   1.819   4.506   4.023
 1343SOL     OW 4048   1.390   4.299   3.802
 1343SOL    HW1 4049   1.336   4.278   3.883
 1343SOL    HW2 4050   1.481   4.258   3.811
 1344SOL     OW 4051   0.527   3.980   4.052
 1344SOL    HW1 4052   0.554   3.921   3.977
 1344SOL    HW2 4053   0.527   4.075   4.021
 1345SOL     OW 4054   1.111   4.919   4.824
 1345SOL    HW1 4055   1.071   4.963   4.905
 1345SOL    HW2 4056   1.070   4.956   4.741
 1346SOL     OW 4057   1.638   4.823   4.803
 1346SOL    HW1 4058   1.643   4.904   4.862
 1346SOL    HW2 4059   1.552   4.825   4.752
 1347SOL     OW 4060   0.566   4.261   4.589
 1347SOL    HW1 4061   0.578   4.327   4.515
 1347SOL    HW2 4062   0.612   4.295   4.672
 1348SOL     OW 4063   1.582   4.363   4.196
 1348SOL    HW1 4064   1.551   4.424   4.269
 1348SOL    HW2 4065   1.632   4.415   4.127
 1349SOL     OW 4066   0.573   4.594   4.753
 1349SOL    HW1 4067   0.617   4.683   4.744
 1349SOL    HW2 4068   0.510   4.594   4.830
 1350SOL     OW 4069   1.209   4.249   3.999
 1350SOL    HW1 4070   1.222   4.165   4.053
 1350SOL    HW2 4071   1.180   4.323   4.059
 1351SOL     OW 4072   0.307   3.937   4.955
 1351SOL    HW1 4073   0.284   3.974   5.045
 1351SOL    HW2 4074   0.277   3.842   4.949
 1352SOL     OW 4075   0.732   4.358   4.788
 1352SOL    HW1 4076   0.791   4.332   4.712
 1352SOL    HW2 4077   0.704   4.454   4.777
 1353SOL     OW 4078   0.307   3.787   4.342
 1353SOL    HW1 4079   0.296   3.881   4.375
 1353SOL    HW2 4080   0.302   3.724   4.419
 1354SOL     OW 4081   1.622   4.091   4.098
 1354SOL    HW1 4082   1.624   4.015   4.162
 1354SOL    HW2 4083   1.574   4.168   4.138
 1355SOL     OW 4084   1.540   3.998   3.849
 1355SOL    HW1 4085   1.479   3.923   3.872
 1355SOL    HW2 4086   1.562   4.050   3.932
 1356SOL     OW 4087   1.303   4.562   3.766
 1356SOL    HW1 4088   1.337   4.469   3.781
 1356SOL    HW2 4089   1.321   4.589   3.671
 1357SOL     OW 4090   0.319   4.534   4.673
 1357SOL    HW1 4091   0.412   4.570   4.678
 1357SOL    HW2 4092   0.313   4.449   4.725
 1358SOL     OW 4093   0.815   4.296   4.049
 1358SOL    HW1 4094   0.822   4.207   4.003
 1358SOL    HW2 4095   0.721   4.330   4.041
 1359SOL     OW 4096   0.671   4.188   4.993
 1359SOL    HW1 4097   0.637   4.099   4.963
 1359SOL    HW2 4098   0.697   4.242   4.913
 1360SOL     OW 4099   0.473   4.224   3.915
 1360SOL    HW1 4100   0.534   4.304   3.919
 1360SOL    HW2 4101   0.378   4.255   3.922
 1361SOL     OW 4102   1.302   4.579   4.033
 1361SOL    HW1 4103   1.216   4.548   4.075
 1361SOL    HW2 4104   1.298   4.565   3.934
 1362SOL     OW 4105   1.726   3.859   4.247
 1362SOL    HW1 4106   1.799   3.842   4.180
 1362SOL    HW2 4107   1.695   3.772   4.285
 1363SOL     OW 4108   1.280   4.651   4.396
 1363SOL    HW1 4109   1.340   4.570   4.398
 1363SOL    HW2 4110   1.320   4.720   4.336
 1364SOL     OW 4111   1.841   3.899   4.687
 1364SOL    HW1 4112   1.880   3.814   4.651
 1364SOL    HW2 4113   1.743   3.901   4.668
 1365SOL     OW 4114   0.263   4.050   4.444
 1365SOL    HW1 4115   0.184   4.101   4.410
 1365SOL    HW2 4116   0.254   4.035   4.542
 1366SOL     OW 4117   0.916   4.634   4.015
 1366SOL    HW1 4118   0.979   4.672   3.947
 1366SOL    HW2 4119   0.956   4.551   4.054
 1367SOL     OW 4120   0.075   4.069   3.757
 1367SOL    HW1 4121  -0.017   4.041   3.728
 1367SOL    HW2 4122   0.106   4.146   3.701
 1368SOL     OW 4123   0.072   3.890   4.042
 1368SOL    HW1 4124   0.055   3.973   3.988
 1368SOL    HW2 4125   0.162   3.853   4.020
 1369SOL     OW 4126   1.674   4.607   4.978
 1369SOL    HW1 4127   1.647   4.518   4.941
 1369SOL    HW2 4128   1.675   4.675   4.905
 1370SOL     OW 4129   1.225   4.049   4.173
 1370SOL    HW1 4130   1.290   3.975   4.162
 1370SOL    HW2 4131   1.245   4.099   4.257
 1371SOL     OW 4132   0.594   4.469   4.376
 1371SOL    HW1 4133   0.644   4.554   4.357
 1371SOL    HW2 4134   0.506   4.471   4.328
 1372SOL     OW 4135   1.824   3.916   4.951
 1372SOL    HW1 4136   1.820   3.826   4.995
 1372SOL    HW2 4137   1.827   3.905   4.852
 1373SOL     OW 4138   0.428   4.148   4.244
 1373SOL    HW1 4139   0.458   4.076   4.182
 1373SOL    HW2 4140   0.389   4.108   4.327
 1374SOL     OW 4141   1.352   3.776   3.892
 1374SOL    HW1 4142   1.387   3.735   3.808
 1374SOL    HW2 4143   1.262   3.738   3.912
 1375SOL     OW 4144   1.300   4.177   4.415
 1375SOL    HW1 4145   1.241   4.257   4.419
 1375SOL    HW2 4146   1.315   4.142   4.508
 1376SOL     OW 4147   1.593   3.945   4.606
 1376SOL    HW1 4148   1.509   3.944   4.660
 1376SOL    HW2 4149   1.595   4.028   4.550
 1377SOL     OW 4150   2.092   0.628   0.113
 1377SOL    HW1 4151   1.999   0.626   0.150
 1377SOL    HW2 4152   2.093   0.589   0.021
 1378SOL     OW 4153   2.087   0.275   0.996
 1378SOL    HW1 4154   2.122   0.258   1.088
 1378SOL    HW2 4155   1.999   0.230   0.984
 1379SOL     OW 4156   1.881   0.368   0.647
 1379SOL    HW1 4157   1.799   0.411   0.686
 1379SOL    HW2 4158   1.853   0.295   0.584
 1380SOL     OW 4159   2.431   1.275   1.165
 1380SOL    HW1 4160   2.338   1.268   1.128
 1380SOL    HW2 4161   2.442   1.364   1.209
 1381SOL     OW 4162   3.417   1.511   0.703
 1381SOL    HW1 4163   3.360   1.495   0.784
 1381SOL    HW2 4164   3.358   1.521   0.623
 1382SOL     OW 4165   2.997   0.703   0.717
 1382SOL    HW1 4166   3.054   0.781   0.692
 1382SOL    HW2 4167   2.937   0.729   0.793
 1383SOL     OW 4168   3.617   0.607   0.231
 1383SOL    HW1 4169   3.605   0.594   0.132
 1383SOL    HW2 4170   3.587   0.526   0.280
 1384SOL     OW 4171   2.630   1.144   1.023
 1384SOL    HW1 4172   2.552   1.161   1.083
 1384SOL    HW2 4173   2.664   1.231   0.987
 1385SOL     OW 4174   2.712   0.798   1.823
 1385SOL    HW1 4175   2.708   0.874   1.888
 1385SOL    HW2 4176   2.734   0.834   1.732
 1386SOL     OW 4177   2.547   1.012   0.665
 1386SOL    HW1 4178   2.616   0.996   0.735
 1386SOL    HW2 4179   2.474   1.069   0.703
 1387SOL     OW 4180   2.548   1.161   1.803
 1387SOL    HW1 4181   2.608   1.240   1.817
 1387SOL    HW2 4182   2.462   1.192   1.762
 1388SOL     OW 4183   2.197   1.435   1.061
 1388SOL    HW1 4184   2.119   1.404   1.008
 1388SOL    HW2 4185   2.255   1.493   1.004
 1389SOL     OW 4186   3.322   1.505   1.339
 1389SOL    HW1 4187   3.346   1.599   1.365
 1389SOL    HW2 4188   3.306   1.451   1.421
 1390SOL     OW 4189   2.300   0.392   1.499
 1390SOL    HW1 4190   2.382   0.336   1.508
 1390SOL    HW2 4191   2.219   0.334   1.503
 1391SOL     OW 4192   3.465   0.447   0.737
 1391SOL    HW1 4193   3.391   0.493   0.687
 1391SOL    HW2 4194   3.516   0.515   0.790
 1392SOL     OW 4195   2.093   1.713   0.483
 1392SOL    HW1 4196   2.127   1.790   0.537
 1392SOL    HW2 4197   2.137   1.713   0.393
 1393SOL     OW 4198   2.989   1.341   1.690
 1393SOL    HW1 4199   3.036   1.341   1.778
 1393SOL    HW2 4200   2.941   1.254   1.679
 1394SOL     OW 4201   2.092   1.434   0.538
 1394SOL    HW1 4202   2.066   1.530   0.538
 1394SOL    HW2 4203   2.021   1.380   0.583
 1395SOL     OW 4204   2.102   1.091   0.886
 1395SOL    HW1 4205   2.116   1.007   0.938
 1395SOL    HW2 4206   2.047   1.155   0.941
 1396SOL     OW 4207   2.482   1.786   1.439
 1396SOL    HW1 4208   2.390   1.769   1.474
 1396SOL    HW2 4209   2.510   1.878   1.465
 1397SOL     OW 4210   2.468   0.964   0.123
 1397SOL    HW1 4211   2.475   1.048   0.069
 1397SOL    HW2 4212   2.514   0.977   0.211
 1398SOL     OW 4213   3.456   0.114   1.480
 1398SOL    HW1 4214   3.438   0.181   1.408
 1398SOL    HW2 4215   3.453   0.160   1.569
 1399SOL     OW 4216   1.984   0.643   0.563
 1399SOL    HW1 4217   1.939   0.555   0.580
 1399SOL    HW2 4218   1.983   0.697   0.647
 1400SOL     OW 4219   3.704   1.767   0.359
 1400SOL    HW1 4220   3.758   1.738   0.439
 1400SOL    HW2 4221   3.734   1.857   0.330
 1401SOL     OW 4222   1.889   1.596   0.117
 1401SOL    HW1 4223   1.870   1.500   0.138
 1401SOL    HW2 4224   1.856   1.654   0.192
 1402SOL     OW 4225   3.551   0.922   0.612
 1402SOL    HW1 4226   3.646   0.893   0.620
 1402SOL    HW2 4227   3.543   0.987   0.537
 1403SOL     OW 4228   3.503   1.108   0.432
 1403SOL    HW1 4229   3.589   1.110   0.380
 1403SOL    HW2 4230   3.517   1.155   0.520
 1404SOL     OW 4231   1.975   0.737   1.597
 1404SOL    HW1 4232   2.063   0.724   1.642
 1404SOL    HW2 4233   1.962   0.834   1.575
 1405SOL     OW 4234   2.475   1.365   0.726
 1405SOL    HW1 4235   2.426   1.278   0.735
 1405SOL    HW2 4236   2.452   1.408   0.639
 1406SOL     OW 4237   3.155   1.228   1.423
 1406SOL    HW1 4238   3.192   1.155   1.365
 1406SOL    HW2 4239   3.207   1.233   1.508
 1407SOL     OW 4240   2.671   0.004   0.502
 1407SOL    HW1 4241   2.711   0.095   0.493
 1407SOL    HW2 4242   2.571   0.012   0.508
 1408SOL     OW 4243   2.059   0.976   1.264
 1408SOL    HW1 4244   2.148   0.931   1.250
 1408SOL    HW2 4245   1.986   0.911   1.245
 1409SOL     OW 4246   3.387   0.999   0.190
 1409SOL    HW1 4247   3.324   0.923   0.203
 1409SOL    HW2 4248   3.435   1.017   0.276
 1410SOL     OW 4249   3.049   1.792   1.616
 1410SOL    HW1 4250   3.073   1.852   1.540
 1410SOL    HW2 4251   3.056   1.697   1.586
 1411SOL     OW 4252   2.179   0.251   1.801
 1411SOL    HW1 4253   2.250   0.322   1.807
 1411SOL    HW2 4254   2.091   0.290   1.829
 1412SOL     OW 4255   3.328   1.417   0.953
 1412SOL    HW1 4256   3.269   1.423   1.033
 1412SOL    HW2 4257   3.313   1.329   0.907
 1413SOL     OW 4258   3.529   1.714   0.572
 1413SOL    HW1 4259   3.488   1.691   0.484
 1413SOL    HW2 4260   3.511   1.640   0.637
 1414SOL     OW 4261   2.460   0.729   0.270
 1414SOL    HW1 4262   2.484   0.798   0.202
 1414SOL    HW2 4263   2.382   0.762   0.324
 1415SOL     OW 4264   3.143   0.345   0.944
 1415SOL    HW1 4265   3.057   0.295   0.931
 1415SOL    HW2 4266   3.205   0.291   1.000
 1416SOL     OW 4267   3.438   1.662   0.307
 1416SOL    HW1 4268   3.527   1.708   0.310
 1416SOL    HW2 4269   3.417   1.638   0.212
 1417SOL     OW 4270   2.669   0.605   1.465
 1417SOL    HW1 4271   2.622   0.602   1.554
 1417SOL    HW2 4272   2.618   0.550   1.399
 1418SOL     OW 4273   3.256   0.469   1.674
 1418SOL    HW1 4274   3.236   0.512   1.762
 1418SOL    HW2 4275   3.334   0.407   1.683
 1419SOL     OW 4276   2.835   0.890   1.572
 1419SOL    HW1 4277   2.881   0.806   1.543
 1419SOL    HW2 4278   2.779   0.924   1.497
 1420SOL     OW 4279   2.853   0.410   1.242
 1420SOL    HW1 4280   2.776   0.444   1.296
 1420SOL    HW2 4281   2.819   0.359   1.163
 1421SOL     OW 4282   2.903   0.701   0.429
 1421SOL    HW1 4283   2.929   0.697   0.525
 1421SOL    HW2 4284   2.818   0.650   0.415
 1422SOL     OW 4285   1.938   0.811   0.789
 1422SOL    HW1 4286   2.037   0.799   0.798
 1422SOL    HW2 4287   1.914   0.906   0.810
 1423SOL     OW 4288   1.992   1.821   1.571
 1423SOL    HW1 4289   1.982   1.806   1.670
 1423SOL    HW2 4290   1.906   1.857   1.535
 1424SOL     OW 4291   2.727   0.348   0.195
 1424SOL    HW1 4292   2.786   0.411   0.146
 1424SOL    HW2 4293   2.746   0.254   0.166
 1425SOL     OW 4294   3.581   0.585   1.831
 1425SOL    HW1 4295   3.555   0.674   1.795
 1425SOL    HW2 4296   3.579   0.517   1.758
 1426SOL     OW 4297   3.224   1.144   0.545
 1426SOL    HW1 4298   3.307   1.115   0.497
 1426SOL    HW2 4299   3.175   1.211   0.489
 1427SOL     OW 4300   2.412   0.196   0.885
 1427SOL    HW1 4301   2.407   0.191   0.985
 1427SOL    HW2 4302   2.414   0.292   0.856
 1428SOL     OW 4303   2.870   1.456   0.477
 1428SOL    HW1 4304   2.824   1.528   0.425
 1428SOL    HW2 4305   2.866   1.476   0.575
 1429SOL     OW 4306   2.213   1.801   0.853
 1429SOL    HW1 4307   2.263   1.715   0.859
 1429SOL    HW2 4308   2.278   1.878   0.850
 1430SOL     OW 4309   3.657   1.066   0.873
 1430SOL    HW1 4310   3.595   1.051   0.797
 1430SOL    HW2 4311   3.605   1.077   0.958
 1431SOL     OW 4312   3.089   1.550   1.506
 1431SOL    HW1 4313   3.095   1.473   1.570
 1431SOL    HW2 4314   3.037   1.524   1.426
 1432SOL     OW 4315   2.183   0.943   0.242
 1432SOL    HW1 4316   2.265   0.982   0.200
 1432SOL    HW2 4317   2.156   0.861   0.193
 1433SOL     OW 4318   3.320   0.735   0.728
 1433SOL    HW1 4319   3.315   0.670   0.803
 1433SOL    HW2 4320   3.400   0.794   0.741
 1434SOL     OW 4321   2.323   1.266   1.727
 1434SOL    HW1 4322   2.273   1.267   1.641
 1434SOL    HW2 4323   2.260   1.248   1.803
 1435SOL     OW 4324   2.973   1.776   0.237
 1435SOL    HW1 4325   2.913   1.714   0.287
 1435SOL    HW2 4326   3.004   1.732   0.152
 1436SOL     OW 4327   2.064   0.285   1.498
 1436SOL    HW1 4328   1.984   0.345   1.485
 1436SOL    HW2 4329   2.054   0.236   1.584
 1437SOL     OW 4330   3.494   1.377   0.081
 1437SOL    HW1 4331   3.462   1.471   0.071
 1437SOL    HW2 4332   3.418   1.314   0.069
 1438SOL     OW 4333   2.326   1.743   0.323
 1438SOL    HW1 4334   2.359   1.782   0.409
 1438SOL    HW2 4335   2.402   1.736   0.258
 1439SOL     OW 4336   3.262   0.107   0.426
 1439SOL    HW1 4337   3.238   0.070   0.336
 1439SOL    HW2 4338   3.361   0.123   0.430
 1440SOL     OW 4339   2.111   1.785   1.241
 1440SOL    HW1 4340   2.168   1.720   1.291
 1440SOL    HW2 4341   2.095   1.752   1.148
 1441SOL     OW 4342   2.802   1.698   0.904
 1441SOL    HW1 4343   2.882   1.641   0.925
 1441SOL    HW2 4344   2.753   1.658   0.827
 1442SOL     OW 4345   2.244   0.700   0.480
 1442SOL    HW1 4346   2.289   0.610   0.477
 1442SOL    HW2 4347   2.150   0.689   0.513
 1443SOL     OW 4348   3.409   0.222   1.729
 1443SOL    HW1 4349   3.404   0.259   1.821
 1443SOL    HW2 4350   3.337   0.153   1.717
 1444SOL     OW 4351   2.476   0.122   0.117
 1444SOL    HW1 4352   2.574   0.100   0.124
 1444SOL    HW2 4353   2.445   0.105   0.024
 1445SOL     OW 4354   2.643   0.264   1.749
 1445SOL    HW1 4355   2.710   0.203   1.792
 1445SOL    HW2 4356   2.570   0.283   1.814
 1446SOL     OW 4357   2.750   1.514   1.195
 1446SOL    HW1 4358   2.727   1.489   1.101
 1446SOL    HW2 4359   2.811   1.445   1.234
 1447SOL     OW 4360   3.213   0.590   1.433
 1447SOL    HW1 4361   3.241   0.547   1.518
 1447SOL    HW2 4362   3.238   0.686   1.434
 1448SOL     OW 4363   2.665   1.402   0.924
 1448SOL    HW1 4364   2.755   1.416   0.882
 1448SOL    HW2 4365   2.594   1.404   0.853
 1449SOL     OW 4366   2.784   0.503   0.899
 1449SOL    HW1 4367   2.759   0.494   0.803
 1449SOL    HW2 4368   2.832   0.421   0.930
 1450SOL     OW 4369   2.401   0.064   0.512
 1450SOL    HW1 4370   2.320   0.065   0.570
 1450SOL    HW2 4371   2.404   0.147   0.457
 1451SOL     OW 4372   3.296   1.188   0.041
 1451SOL    HW1 4373   3.328   1.112   0.098
 1451SOL    HW2 4374   3.204   1.215   0.071
 1452SOL     OW 4375   2.159   0.035   0.171
 1452SOL    HW1 4376   2.208   0.119   0.150
 1452SOL    HW2 4377   2.221  -0.030   0.216
 1453SOL     OW 4378   2.797   0.236   0.480
 1453SOL    HW1 4379   2.749   0.277   0.402
 1453SOL    HW2 4380   2.896   0.234   0.461
 1454SOL     OW 4381   2.938   0.683   1.464
 1454SOL    HW1 4382   2.858   0.622   1.467
 1454SOL    HW2 4383   3.019   0.630   1.440
 1455SOL     OW 4384   3.089   1.570   0.793
 1455SOL    HW1 4385   3.110   1.644   0.728
 1455SOL    HW2 4386   3.157   1.570   0.866
 1456SOL     OW 4387   2.321   1.152   0.741
 1456SOL    HW1 4388   2.250   1.125   0.806
 1456SOL    HW2 4389   2.295   1.124   0.648
 1457SOL     OW 4390   3.133   1.797   0.591
 1457SOL    HW1 4391   3.177   1.861   0.527
 1457SOL    HW2 4392   3.083   1.849   0.661
 1458SOL     OW 4393   2.894   0.549   0.016
 1458SOL    HW1 4394   2.853   0.631  -0.023
 1458SOL    HW2 4395   2.958   0.575   0.089
 1459SOL     OW 4396   1.940   0.556   1.386
 1459SOL    HW1 4397   2.032   0.555   1.345
 1459SOL    HW2 4398   1.934   0.630   1.453
 1460SOL     OW 4399   2.423   0.222   1.147
 1460SOL    HW1 4400   2.461   0.138   1.184
 1460SOL    HW2 4401   2.335   0.241   1.191
 1461SOL     OW 4402   2.728   0.454   0.642
 1461SOL    HW1 4403   2.696   0.526   0.580
 1461SOL    HW2 4404   2.752   0.373   0.589
 1462SOL     OW 4405   2.879   0.039   0.753
 1462SOL    HW1 4406   2.807   0.044   0.684
 1462SOL    HW2 4407   2.855  -0.030   0.822
 1463SOL     OW 4408   3.291   1.173   0.867
 1463SOL    HW1 4409   3.236   1.089   0.860
 1463SOL    HW2 4410   3.317   1.202   0.775
 1464SOL     OW 4411   3.328   0.590   0.992
 1464SOL    HW1 4412   3.298   0.495   0.999
 1464SOL    HW2 4413   3.401   0.606   1.058
 1465SOL     OW 4414   3.719   0.833   0.377
 1465SOL    HW1 4415   3.761   0.769   0.441
 1465SOL    HW2 4416   3.681   0.782   0.299
 1466SOL     OW 4417   2.350   1.385   0.174
 1466SOL    HW1 4418   2.263   1.370   0.221
 1466SOL    HW2 4419   2.333   1.411   0.079
 1467SOL     OW 4420   3.526   1.280   0.657
 1467SOL    HW1 4421   3.625   1.288   0.671
 1467SOL    HW2 4422   3.481   1.364   0.688
 1468SOL     OW 4423   3.252   0.575   0.078
 1468SOL    HW1 4424   3.198   0.554   0.159
 1468SOL    HW2 4425   3.343   0.534   0.087
 1469SOL     OW 4426   2.389   0.256   0.328
 1469SOL    HW1 4427   2.416   0.197   0.253
 1469SOL    HW2 4428   2.389   0.351   0.297
 1470SOL     OW 4429   3.616   1.223   1.588
 1470SOL    HW1 4430   3.707   1.184   1.575
 1470SOL    HW2 4431   3.624   1.319   1.612
 1471SOL     OW 4432   2.926   1.347   1.340
 1471SOL    HW1 4433   2.846   1.324   1.395
 1471SOL    HW2 4434   3.009   1.321   1.389
 1472SOL     OW 4435   3.454   1.629   1.625
 1472SOL    HW1 4436   3.481   1.663   1.535
 1472SOL    HW2 4437   3.533   1.591   1.671
 1473SOL     OW 4438   2.973   1.195   1.100
 1473SOL    HW1 4439   2.933   1.239   1.181
 1473SOL    HW2 4440   2.932   1.232   1.017
 1474SOL     OW 4441   3.500   1.099   1.079
 1474SOL    HW1 4442   3.505   1.180   1.138
 1474SOL    HW2 4443   3.414   1.101   1.028
 1475SOL     OW 4444   2.777   0.089   1.402
 1475SOL    HW1 4445   2.802   0.069   1.307
 1475SOL    HW2 4446   2.849   0.145   1.444
 1476SOL     OW 4447   2.842   1.116   1.719
 1476SOL    HW1 4448   2.743   1.122   1.729
 1476SOL    HW2 4449   2.865   1.036   1.663
 1477SOL     OW 4450   2.567   1.050   0.368
 1477SOL    HW1 4451   2.553   1.057   0.467
 1477SOL    HW2 4452   2.651   0.999   0.350
 1478SOL     OW 4453   2.272   0.813   1.251
 1478SOL    HW1 4454   2.358   0.825   1.301
 1478SOL    HW2 4455   2.230   0.726   1.278
 1479SOL     OW 4456   3.136   0.386   1.262
 1479SOL    HW1 4457   3.157   0.460   1.326
 1479SOL    HW2 4458   3.047   0.403   1.219
 1480SOL     OW 4459   1.926   1.564   1.331
 1480SOL    HW1 4460   1.880   1.646   1.297
 1480SOL    HW2 4461   2.024   1.583   1.340
 1481SOL     OW 4462   2.229   1.100   0.501
 1481SOL    HW1 4463   2.222   1.183   0.445
 1481SOL    HW2 4464   2.233   1.020   0.441
 1482SOL     OW 4465   2.428   0.537   0.865
 1482SOL    HW1 4466   2.440   0.603   0.791
 1482SOL    HW2 4467   2.474   0.571   0.948
 1483SOL     OW 4468   3.114   1.348   0.388
 1483SOL    HW1 4469   3.164   1.425   0.428
 1483SOL    HW2 4470   3.019   1.350   0.420
 1484SOL     OW 4471   3.134   1.445   1.142
 1484SOL    HW1 4472   3.181   1.458   1.229
 1484SOL    HW2 4473   3.068   1.371   1.151
 1485SOL     OW 4474   3.444   0.639   0.472
 1485SOL    HW1 4475   3.413   0.700   0.545
 1485SOL    HW2 4476   3.494   0.691   0.403
 1486SOL     OW 4477   2.216   1.510   1.329
 1486SOL    HW1 4478   2.195   1.466   1.242
 1486SOL    HW2 4479   2.313   1.536   1.332
 1487SOL     OW 4480   2.264   0.751   1.598
 1487SOL    HW1 4481   2.332   0.806   1.551
 1487SOL    HW2 4482   2.304   0.663   1.625
 1488SOL     OW 4483   3.449   0.779   1.670
 1488SOL    HW1 4484   3.357   0.817   1.665
 1488SOL    HW2 4485   3.509   0.826   1.605
 1489SOL     OW 4486   2.875   0.105   1.770
 1489SOL    HW1 4487   2.881   0.190   1.718
 1489SOL    HW2 4488   2.907   0.029   1.713
 1490SOL     OW 4489   2.366   0.050   1.740
 1490SOL    HW1 4490   2.324  -0.007   1.670
 1490SOL    HW2 4491   2.300   0.119   1.772
 1491SOL     OW 4492   2.435   0.870   1.029
 1491SOL    HW1 4493   2.479   0.959   1.020
 1491SOL    HW2 4494   2.372   0.870   1.106
 1492SOL     OW 4495   3.222   0.862   1.045
 1492SOL    HW1 4496   3.147   0.862   0.979
 1492SOL    HW2 4497   3.259   0.770   1.054
 1493SOL     OW 4498   3.071   0.525   0.275
 1493SOL    HW1 4499   3.084   0.441   0.329
 1493SOL    HW2 4500   3.042   0.599   0.335
 1494SOL     OW 4501   2.169   0.213   1.231
 1494SOL    HW1 4502   2.146   0.250   1.321
 1494SOL    HW2 4503   2.139   0.118   1.225
 1495SOL     OW 4504   1.899   1.310   1.282
 1495SOL    HW1 4505   1.952   1.261   1.350
 1495SOL    HW2 4506   1.921   1.408   1.287
 1496SOL     OW 4507   2.594   0.634   1.064
 1496SOL    HW1 4508   2.653   0.608   0.988
 1496SOL    HW2 4509   2.566   0.730   1.053
 1497SOL     OW 4510   3.590   0.935   1.854
 1497SOL    HW1 4511   3.544   0.928   1.765
 1497SOL    HW2 4512   3.528   0.979   1.920
 1498SOL     OW 4513   2.169   0.063   0.618
 1498SOL    HW1 4514   2.158   0.157   0.651
 1498SOL    HW2 4515   2.164   0.000   0.695
 1499SOL     OW 4516   3.484   0.367   0.374
 1499SOL    HW1 4517   3.486   0.291   0.438
 1499SOL    HW2 4518   3.436   0.444   0.414
 1500SOL     OW 4519   2.885   0.766   0.966
 1500SOL    HW1 4520   2.900   0.787   1.062
 1500SOL    HW2 4521   2.855   0.671   0.957
 1501SOL     OW 4522   2.842   1.573   1.700
 1501SOL    HW1 4523   2.822   1.617   1.612
 1501SOL    HW2 4524   2.881   1.482   1.684
 1502SOL     OW 4525   3.721   1.518   1.605
 1502SOL    HW1 4526   3.735   1.545   1.510
 1502SOL    HW2 4527   3.804   1.540   1.658
 1503SOL     OW 4528   2.212   0.898   1.804
 1503SOL    HW1 4529   2.288   0.942   1.852
 1503SOL    HW2 4530   2.247   0.851   1.722
 1504SOL     OW 4531   3.402   0.274   0.125
 1504SOL    HW1 4532   3.341   0.199   0.148
 1504SOL    HW2 4533   3.424   0.326   0.208
 1505SOL     OW 4534   3.165   0.838   0.042
 1505SOL    HW1 4535   3.199   0.745   0.057
 1505SOL    HW2 4536   3.183   0.865  -0.053
 1506SOL     OW 4537   2.930   1.333   0.849
 1506SOL    HW1 4538   2.937   1.249   0.794
 1506SOL    HW2 4539   2.992   1.402   0.813
 1507SOL     OW 4540   2.181   0.810   0.949
 1507SOL    HW1 4541   2.274   0.846   0.954
 1507SOL    HW2 4542   2.175   0.725   1.001
 1508SOL     OW 4543   2.201   0.509   1.006
 1508SOL    HW1 4544   2.149   0.426   0.989
 1508SOL    HW2 4545   2.278   0.514   0.942
 1509SOL     OW 4546   3.000   0.380   1.678
 1509SOL    HW1 4547   2.955   0.443   1.742
 1509SOL    HW2 4548   3.093   0.411   1.661
 1510SOL     OW 4549   3.022   0.207   1.477
 1510SOL    HW1 4550   3.022   0.271   1.554
 1510SOL    HW2 4551   3.050   0.255   1.394
 1511SOL     OW 4552   1.870   1.326   0.200
 1511SOL    HW1 4553   1.777   1.347   0.169
 1511SOL    HW2 4554   1.880   1.227   0.213
 1512SOL     OW 4555   1.950   1.801   0.927
 1512SOL    HW1 4556   1.908   1.715   0.900
 1512SOL    HW2 4557   2.044   1.804   0.893
 1513SOL     OW 4558   2.366   1.568   0.910
 1513SOL    HW1 4559   2.432   1.642   0.919
 1513SOL    HW2 4560   2.410   1.489   0.868
 1514SOL     OW 4561   2.864   0.796   1.238
 1514SOL    HW1 4562   2.905   0.764   1.324
 1514SOL    HW2 4563   2.768   0.769   1.235
 1515SOL     OW 4564   1.902   0.544   1.114
 1515SOL    HW1 4565   1.987   0.511   1.073
 1515SOL    HW2 4566   1.915   0.559   1.212
 1516SOL     OW 4567   2.051   0.520   1.722
 1516SOL    HW1 4568   2.110   0.480   1.652
 1516SOL    HW2 4569   1.993   0.591   1.681
 1517SOL     OW 4570   3.231   0.950   1.660
 1517SOL    HW1 4571   3.270   1.039   1.680
 1517SOL    HW2 4572   3.241   0.930   1.563
 1518SOL     OW 4573   2.677   0.572   0.325
 1518SOL    HW1 4574   2.684   0.483   0.279
 1518SOL    HW2 4575   2.583   0.606   0.317
 1519SOL     OW 4576   3.519   0.604   1.206
 1519SOL    HW1 4577   3.481   0.535   1.268
 1519SOL    HW2 4578   3.601   0.568   1.162
 1520SOL     OW 4579   2.114   1.564   1.744
 1520SOL    HW1 4580   2.084   1.621   1.820
 1520SOL    HW2 4581   2.107   1.467   1.770
 1521SOL     OW 4582   2.533   0.464   1.269
 1521SOL    HW1 4583   2.499   0.375   1.239
 1521SOL    HW2 4584   2.559   0.518   1.189
 1522SOL     OW 4585   2.792   1.678   1.465
 1522SOL    HW1 4586   2.768   1.660   1.370
 1522SOL    HW2 4587   2.822   1.772   1.475
 1523SOL     OW 4588   2.335   0.500   0.191
 1523SOL    HW1 4589   2.396   0.580   0.195
 1523SOL    HW2 4590   2.240   0.531   0.198
 1524SOL     OW 4591   2.021   1.137   1.466
 1524SOL    HW1 4592   2.043   1.076   1.542
 1524SOL    HW2 4593   2.031   1.088   1.380
 1525SOL     OW 4594   3.209   1.059   1.234
 1525SOL    HW1 4595   3.233   0.996   1.160
 1525SOL    HW2 4596   3.119   1.099   1.216
 1526SOL     OW 4597   3.164   0.855   0.309
 1526SOL    HW1 4598   3.078   0.824   0.351
 1526SOL    HW2 4599   3.160   0.841   0.210
 1527SOL     OW 4600   3.621   1.747   1.154
 1527SOL    HW1 4601   3.682   1.777   1.081
 1527SOL    HW2 4602   3.583   1.658   1.132
 1528SOL     OW 4603   3.114   1.731   1.128
 1528SOL    HW1 4604   3.198   1.736   1.074
 1528SOL    HW2 4605   3.091   1.635   1.146
 1529SOL     OW 4606   1.945   1.258   1.022
 1529SOL    HW1 4607   1.940   1.257   1.122
 1529SOL    HW2 4608   1.862   1.217   0.984
 1530SOL     OW 4609   2.550   1.662   1.716
 1530SOL    HW1 4610   2.494   1.743   1.725
 1530SOL    HW2 4611   2.602   1.666   1.630
 1531SOL     OW 4612   2.765   0.086   0.133
 1531SOL    HW1 4613   2.816   0.087   0.047
 1531SOL    HW2 4614   2.821   0.044   0.204
 1532SOL     OW 4615   3.588   0.135   0.523
 1532SOL    HW1 4616   3.661   0.118   0.456
 1532SOL    HW2 4617   3.557   0.048   0.561
 1533SOL     OW 4618   3.250   1.573   0.477
 1533SOL    HW1 4619   3.317   1.585   0.403
 1533SOL    HW2 4620   3.210   1.662   0.500
 1534SOL     OW 4621   1.992   1.794   1.851
 1534SOL    HW1 4622   1.951   1.720   1.904
 1534SOL    HW2 4623   2.056   1.845   1.909
 1535SOL     OW 4624   3.142   0.927   0.672
 1535SOL    HW1 4625   3.202   0.846   0.674
 1535SOL    HW2 4626   3.182   0.996   0.612
 1536SOL     OW 4627   2.692   1.273   1.422
 1536SOL    HW1 4628   2.687   1.306   1.517
 1536SOL    HW2 4629   2.606   1.292   1.376
 1537SOL     OW 4630   2.534   1.616   0.154
 1537SOL    HW1 4631   2.543   1.626   0.055
 1537SOL    HW2 4632   2.494   1.527   0.175
 1538SOL     OW 4633   3.512   1.720   1.394
 1538SOL    HW1 4634   3.565   1.730   1.310
 1538SOL    HW2 4635   3.485   1.810   1.428
 1539SOL     OW 4636   3.703   0.175   0.963
 1539SOL    HW1 4637   3.742   0.090   0.927
 1539SOL    HW2 4638   3.605   0.177   0.944
 1540SOL     OW 4639   2.125   0.326   0.720
 1540SOL    HW1 4640   2.046   0.377   0.686
 1540SOL    HW2 4641   2.116   0.311   0.818
 1541SOL     OW 4642   3.056   1.612   0.031
 1541SOL    HW1 4643   3.062   1.519   0.068
 1541SOL    HW2 4644   2.997   1.612  -0.049
 1542SOL     OW 4645   2.684   1.002   1.372
 1542SOL    HW1 4646   2.724   1.001   1.280
 1542SOL    HW2 4647   2.694   1.094   1.412
 1543SOL     OW 4648   2.778   0.910   0.291
 1543SOL    HW1 4649   2.841   0.948   0.223
 1543SOL    HW2 4650   2.818   0.827   0.330
 1544SOL     OW 4651   3.366   1.607   0.044
 1544SOL    HW1 4652   3.274   1.644   0.051
 1544SOL    HW2 4653   3.404   1.627  -0.046
 1545SOL     OW 4654   2.234   1.288   1.490
 1545SOL    HW1 4655   2.221   1.381   1.456
 1545SOL    HW2 4656   2.150   1.236   1.477
 1546SOL     OW 4657   3.476   1.292   1.289
 1546SOL    HW1 4658   3.536   1.295   1.369
 1546SOL    HW2 4659   3.401   1.356   1.302
 1547SOL     OW 4660   2.901   1.098   0.696
 1547SOL    HW1 4661   2.831   1.051   0.750
 1547SOL    HW2 4662   2.960   1.030   0.653
 1548SOL     OW 4663   2.876   0.236   0.971
 1548SOL    HW1 4664   2.868   0.200   0.878
 1548SOL    HW2 4665   2.874   0.160   1.036
 1549SOL     OW 4666   2.452   1.487   0.491
 1549SOL    HW1 4667   2.494   1.429   0.421
 1549SOL    HW2 4668   2.408   1.566   0.447
 1550SOL     OW 4669   3.571   0.385   1.381
 1550SOL    HW1 4670   3.644   0.454   1.385
 1550SOL    HW2 4671   3.599   0.310   1.322
 1551SOL     OW 4672   2.117   1.348   0.290
 1551SOL    HW1 4673   2.021   1.349   0.263
 1551SOL    HW2 4674   2.129   1.401   0.374
 1552SOL     OW 4675   1.967   1.013   1.726
 1552SOL    HW1 4676   1.890   0.980   1.780
 1552SOL    HW2 4677   2.052   0.983   1.768
 1553SOL     OW 4678   2.534   0.203   1.489
 1553SOL    HW1 4679   2.624   0.187   1.449
 1553SOL    HW2 4680   2.542   0.208   1.588
 1554SOL     OW 4681   1.937   0.345   0.033
 1554SOL    HW1 4682   1.845   0.317   0.004
 1554SOL    HW2 4683   1.968   0.422  -0.023
 1555SOL     OW 4684   3.302   0.856   1.398
 1555SOL    HW1 4685   3.245   0.908   1.335
 1555SOL    HW2 4686   3.398   0.868   1.374
 1556SOL     OW 4687   3.045   1.335   0.119
 1556SOL    HW1 4688   2.946   1.324   0.121
 1556SOL    HW2 4689   3.079   1.350   0.212
 1557SOL     OW 4690   2.475   0.842   1.431
 1557SOL    HW1 4691   2.531   0.923   1.414
 1557SOL    HW2 4692   2.534   0.762   1.434
 1558SOL     OW 4693   3.355   1.767   0.959
 1558SOL    HW1 4694   3.388   1.831   0.890
 1558SOL    HW2 4695   3.421   1.761   1.034
 1559SOL     OW 4696   2.578   0.565   1.708
 1559SOL    HW1 4697   2.597   0.630   1.782
 1559SOL    HW2 4698   2.638   0.485   1.717
 1560SOL     OW 4699   3.312   1.220   1.633
 1560SOL    HW1 4700   3.303   1.210   1.732
 1560SOL    HW2 4701   3.408   1.213   1.607
 1561SOL     OW 4702   2.252   1.741   1.560
 1561SOL    HW1 4703   2.161   1.782   1.558
 1561SOL    HW2 4704   2.245   1.647   1.592
 1562SOL     OW 4705   3.536   0.883   1.254
 1562SOL    HW1 4706   3.509   0.794   1.217
 1562SOL    HW2 4707   3.537   0.951   1.181
 1563SOL     OW 4708   3.087   0.325   0.449
 1563SOL    HW1 4709   3.152   0.251   0.438
 1563SOL    HW2 4710   3.107   0.375   0.533
 1564SOL     OW 4711   2.456   0.745   0.652
 1564SOL    HW1 4712   2.506   0.830   0.633
 1564SOL    HW2 4713   2.368   0.747   0.604
 1565SOL     OW 4714   3.639   0.342   1.642
 1565SOL    HW1 4715   3.622   0.373   1.548
 1565SOL    HW2 4716   3.555   0.305   1.680
 1566SOL     OW 4717   3.592   0.934   1.517
 1566SOL    HW1 4718   3.630   1.025   1.532
 1566SOL    HW2 4719   3.584   0.917   1.418
 1567SOL     OW 4720   2.721   1.374   0.016
 1567SOL    HW1 4721   2.675   1.389   0.104
 1567SOL    HW2 4722   2.765   1.459  -0.014
 1568SOL     OW 4723   2.523   1.790   0.953
 1568SOL    HW1 4724   2.477   1.878   0.940
 1568SOL    HW2 4725   2.622   1.802   0.946
 1569SOL     OW 4726   2.721   0.956   0.861
 1569SOL    HW1 4727   2.775   0.887   0.909
 1569SOL    HW2 4728   2.689   1.025   0.927
 1570SOL     OW 4729   2.945   0.984   0.087
 1570SOL    HW1 4730   2.922   1.037   0.005
 1570SOL    HW2 4731   3.026   0.928   0.068
 1571SOL     OW 4732   3.723   1.569   0.851
 1571SOL    HW1 4733   3.652   1.557   0.781
 1571SOL    HW2 4734   3.724   1.490   0.911
 1572SOL     OW 4735   2.083   1.314   1.844
 1572SOL    HW1 4736   2.018   1.241   1.823
 1572SOL    HW2 4737   2.087   1.328   1.942
 1573SOL     OW 4738   1.941   1.240   0.653
 1573SOL    HW1 4739   1.940   1.193   0.741
 1573SOL    HW2 4740   2.023   1.212   0.602
 1574SOL     OW 4741   2.534   1.391   1.624
 1574SOL    HW1 4742   2.456   1.341   1.662
 1574SOL    HW2 4743   2.531   1.486   1.655
 1575SOL     OW 4744   3.686   0.192   1.227
 1575SOL    HW1 4745   3.682   0.102   1.271
 1575SOL    HW2 4746   3.689   0.181   1.128
 1576SOL     OW 4747   2.290   0.424   0.520
 1576SOL    HW1 4748   2.320   0.352   0.458
 1576SOL    HW2 4749   2.251   0.384   0.603
 1577SOL     OW 4750   3.567   1.487   1.104
 1577SOL    HW1 4751   3.474   1.462   1.077
 1577SOL    HW2 4752   3.593   1.437   1.186
 1578SOL     OW 4753   2.179   0.547   1.280
 1578SOL    HW1 4754   2.217   0.488   1.352
 1578SOL    HW2 4755   2.219   0.521   1.192
 1579SOL     OW 4756   2.674   1.586   0.687
 1579SOL    HW1 4757   2.706   1.596   0.593
 1579SOL    HW2 4758   2.595   1.524   0.689
 1580SOL     OW 4759   3.286   0.214   1.112
 1580SOL    HW1 4760   3.338   0.149   1.167
 1580SOL    HW2 4761   3.237   0.277   1.173
 1581SOL     OW 4762   2.863   0.034   1.154
 1581SOL    HW1 4763   2.800  -0.038   1.123
 1581SOL    HW2 4764   2.956  -0.002   1.154
 1582SOL     OW 4765   2.632   1.330   0.301
 1582SOL    HW1 4766   2.586   1.243   0.318
 1582SOL    HW2 4767   2.723   1.327   0.342
 1583SOL     OW 4768   2.480   1.567   1.284
 1583SOL    HW1 4769   2.475   1.649   1.341
 1583SOL    HW2 4770   2.569   1.564   1.239
 1584SOL     OW 4771   3.214   0.052   0.168
 1584SOL    HW1 4772   3.249   0.011   0.084
 1584SOL    HW2 4773   3.124   0.014   0.188
 1585SOL     OW 4774   3.162   0.453   0.691
 1585SOL    HW1 4775   3.103   0.533   0.695
 1585SOL    HW2 4776   3.177   0.418   0.784
 1586SOL     OW 4777   3.455   0.221   0.882
 1586SOL    HW1 4778   3.371   0.220   0.936
 1586SOL    HW2 4779   3.457   0.304   0.826
 1587SOL     OW 4780   1.901   1.077   0.300
 1587SOL    HW1 4781   2.000   1.066   0.291
 1587SOL    HW2 4782   1.861   0.991   0.332
 1588SOL     OW 4783   2.737   1.646   0.337
 1588SOL    HW1 4784   2.660   1.611   0.283
 1588SOL    HW2 4785   2.705   1.717   0.399
 1589SOL     OW 4786   2.092   0.628   1.975
 1589SOL    HW1 4787   1.999   0.626   2.012
 1589SOL    HW2 4788   2.093   0.589   1.883
 1590SOL     OW 4789   2.087   0.275   2.858
 1590SOL    HW1 4790   2.122   0.258   2.950
 1590SOL    HW2 4791   1.999   0.230   2.846
 1591SOL     OW 4792   1.881   0.368   2.509
 1591SOL    HW1 4793   1.799   0.411   2.548
 1591SOL    HW2 4794   1.853   0.295   2.446
 1592SOL     OW 4795   2.431   1.275   3.027
 1592SOL    HW1 4796   2.338   1.268   2.990
 1592SOL    HW2 4797   2.442   1.364   3.071
 1593SOL     OW 4798   3.417   1.511   2.565
 1593SOL    HW1 4799   3.360   1.495   2.646
 1593SOL    HW2 4800   3.358   1.521   2.485
 1594SOL     OW 4801   2.997   0.703   2.579
 1594SOL    HW1 4802   3.054   0.781   2.554
 1594SOL    HW2 4803   2.937   0.729   2.655
 1595SOL     OW 4804   3.617   0.607   2.093
 1595SOL    HW1 4805   3.605   0.594   1.994
 1595SOL    HW2 4806   3.587   0.526   2.142
 1596SOL     OW 4807   2.630   1.144   2.885
 1596SOL    HW1 4808   2.552   1.161   2.945
 1596SOL    HW2 4809   2.664   1.231   2.849
 1597SOL     OW 4810   2.712   0.798   3.685
 1597SOL    HW1 4811   2.708   0.874   3.750
 1597SOL    HW2 4812   2.734   0.834   3.594
 1598SOL     OW 4813   2.547   1.012   2.527
 1598SOL    HW1 4814   2.616   0.996   2.597
 1598SOL    HW2 4815   2.474   1.069   2.565
 1599SOL     OW 4816   2.548   1.161   3.665
 1599SOL    HW1 4817   2.608   1.240   3.679
 1599SOL    HW2 4818   2.462   1.192   3.624
 1600SOL     OW 4819   2.197   1.435   2.923
 1600SOL    HW1 4820   2.119   1.404   2.870
 1600SOL    HW2 4821   2.255   1.493   2.866
 1601SOL     OW 4822   3.322   1.505   3.201
 1601SOL    HW1 4823   3.346   1.599   3.227
 1601SOL    HW2 4824   3.306   1.451   3.283
 1602SOL     OW 4825   2.300   0.392   3.361
 1602SOL    HW1 4826   2.382   0.336   3.370
 1602SOL    HW2 4827   2.219   0.334   3.365
 1603SOL     OW 4828   3.465   0.447   2.599
 1603SOL    HW1 4829   3.391   0.493   2.549
 1603SOL    HW2 4830   3.516   0.515   2.652
 1604SOL     OW 4831   2.093   1.713   2.345
 1604SOL    HW1 4832   2.127   1.790   2.399
 1604SOL    HW2 4833   2.137   1.713   2.255
 1605SOL     OW 4834   2.989   1.341   3.552
 1605SOL    HW1 4835   3.036   1.341   3.640
 1605SOL    HW2 4836   2.941   1.254   3.541
 1606SOL     OW 4837   2.092   1.434   2.400
 1606SOL    HW1 4838   2.066   1.530   2.400
 1606SOL    HW2 4839   2.021   1.380   2.445
 1607SOL     OW 4840   2.102   1.091   2.748
 1607SOL    HW1 4841   2.116   1.007   2.800
 1607SOL    HW2 4842   2.047   1.155   2.803
 1608SOL     OW 4843   2.482   1.786   3.301
 1608SOL    HW1 4844   2.390   1.769   3.336
 1608SOL    HW2 4845   2.510   1.878   3.327
 1609SOL     OW 4846   2.468   0.964   1.985
 1609SOL    HW1 4847   2.475   1.048   1.931
 1609SOL    HW2 4848   2.514   0.977   2.073
 1610SOL     OW 4849   3.456   0.114   3.342
 1610SOL    HW1 4850   3.438   0.181   3.270
 1610SOL    HW2 4851   3.453   0.160   3.431
 1611SOL     OW 4852   1.984   0.643   2.425
 1611SOL    HW1 4853   1.939   0.555   2.442
 1611SOL    HW2 4854   1.983   0.697   2.509
 1612SOL     OW 4855   3.704   1.767   2.221
 1612SOL    HW1 4856   3.758   1.738   2.301
 1612SOL    HW2 4857   3.734   1.857   2.192
 1613SOL     OW 4858   1.889   1.596   1.979
 1613SOL    HW1 4859   1.870   1.500   2.000
 1613SOL    HW2 4860   1.856   1.654   2.054
 1614SOL     OW 4861   3.551   0.922   2.474
 1614SOL    HW1 4862   3.646   0.893   2.482
 1614SOL    HW2 4863   3.543   0.987   2.399
 1615SOL     OW 4864   3.503   1.108   2.294
 1615SOL    HW1 4865   3.589   1.110   2.242
 1615SOL    HW2 4866   3.517   1.155   2.382
 1616SOL     OW 4867   1.975   0.737   3.459
 1616SOL    HW1 4868   2.063   0.724   3.504
 1616SOL    HW2 4869   1.962   0.834   3.437
 1617SOL     OW 4870   2.475   1.365   2.588
 1617SOL    HW1 4871   2.426   1.278   2.597
 1617SOL    HW2 4872   2.452   1.408   2.501
 1618SOL     OW 4873   3.155   1.228   3.285
 1618SOL    HW1 4874   3.192   1.155   3.227
 1618SOL    HW2 4875   3.207   1.233   3.370
 1619SOL     OW 4876   2.671   0.004   2.364
 1619SOL    HW1 4877   2.711   0.095   2.355
 1619SOL    HW2 4878   2.571   0.012   2.370
 1620SOL     OW 4879   2.059   0.976   3.126
 1620SOL    HW1 4880   2.148   0.931   3.112
 1620SOL    HW2 4881   1.986   0.911   3.107
 1621SOL     OW 4882   3.387   0.999   2.052
 1621SOL    HW1 4883   3.324   0.923   2.065
 1621SOL    HW2 4884   3.435   1.017   2.138
 1622SOL     OW 4885   3.049   1.792   3.478
 1622SOL    HW1 4886   3.073   1.852   3.402
 1622SOL    HW2 4887   3.056   1.697   3.448
 1623SOL     OW 4888   2.179   0.251   3.663
 1623SOL    HW1 4889   2.250   0.322   3.669
 1623SOL    HW2 4890   2.091   0.290   3.691
 1624SOL     OW 4891   3.328   1.417   2.815
 1624SOL    HW1 4892   3.269   1.423   2.895
 1624SOL    HW2 4893   3.313   1.329   2.769
 1625SOL     OW 4894   3.529   1.714   2.434
 1625SOL    HW1 4895   3.488   1.691   2.346
 1625SOL    HW2 4896   3.511   1.640   2.499
 1626SOL     OW 4897   2.460   0.729   2.132
 1626SOL    HW1 4898   2.484   0.798   2.064
 1626SOL    HW2 4899   2.382   0.762   2.186
 1627SOL     OW 4900   3.143   0.345   2.806
 1627SOL    HW1 4901   3.057   0.295   2.793
 1627SOL    HW2 4902   3.205   0.291   2.862
 1628SOL     OW 4903   3.438   1.662   2.169
 1628SOL    HW1 4904   3.527   1.708   2.172
 1628SOL    HW2 4905   3.417   1.638   2.074
 1629SOL     OW 4906   2.669   0.605   3.327
 1629SOL    HW1 4907   2.622   0.602   3.416
 1629SOL    HW2 4908   2.618   0.550   3.261
 1630SOL     OW 4909   3.256   0.469   3.536
 1630SOL    HW1 4910   3.236   0.512   3.624
 1630SOL    HW2 4911   3.334   0.407   3.545
 1631SOL     OW 4912   2.835   0.890   3.434
 1631SOL    HW1 4913   2.881   0.806   3.405
 1631SOL    HW2 4914   2.779   0.924   3.359
 1632SOL     OW 4915   2.853   0.410   3.104
 1632SOL    HW1 4916   2.776   0.444   3.158
 1632SOL    HW2 4917   2.819   0.359   3.025
 1633SOL     OW 4918   2.903   0.701   2.291
 1633SOL    HW1 4919   2.929   0.697   2.387
 1633SOL    HW2 4920   2.818   0.650   2.277
 1634SOL     OW 4921   1.938   0.811   2.651
 1634SOL    HW1 4922   2.037   0.799   2.660
 1634SOL    HW2 4923   1.914   0.906   2.672
 1635SOL     OW 4924   1.992   1.821   3.433
 1635SOL    HW1 4925   1.982   1.806   3.532
 1635SOL    HW2 4926   1.906   1.857   3.397
 1636SOL     OW 4927   2.727   0.348   2.057
 1636SOL    HW1 4928   2.786   0.411   2.008
 1636SOL    HW2 4929   2.746   0.254   2.028
 1637SOL     OW 4930   3.581   0.585   3.693
 1637SOL    HW1 4931   3.555   0.674   3.657
 1637SOL    HW2 4932   3.579   0.517   3.620
 1638SOL     OW 4933   3.224   1.144   2.407
 1638SOL    HW1 4934   3.307   1.115   2.359
 1638SOL    HW2 4935   3.175   1.211   2.351
 1639SOL     OW 4936   2.412   0.196   2.747
 1639SOL    HW1 4937   2.407   0.191   2.847
 1639SOL    HW2 4938   2.414   0.292   2.718
 1640SOL     OW 4939   2.870   1.456   2.339
 1640SOL    HW1 4940   2.824   1.528   2.287
 1640SOL    HW2 4941   2.866   1.476   2.437
 1641SOL     OW 4942   2.213   1.801   2.715
 1641SOL    HW1 4943   2.263   1.715   2.721
 1641SOL    HW2 4944   2.278   1.878   2.712
 1642SOL     OW 4945   3.657   1.066   2.735
 1642SOL    HW1 4946   3.595   1.051   2.659
 1642SOL    HW2 4947   3.605   1.077   2.820
 1643SOL     OW 4948   3.089   1.550   3.368
 1643SOL    HW1 4949   3.095   1.473   3.432
 1643SOL    HW2 4950   3.037   1.524   3.288
 1644SOL     OW 4951   2.183   0.943   2.104
 1644SOL    HW1 4952   2.265   0.982   2.062
 1644SOL    HW2 4953   2.156   0.861   2.055
 1645SOL     OW 4954   3.320   0.735   2.590
 1645SOL    HW1 4955   3.315   0.670   2.665
 1645SOL    HW2 4956   3.400   0.794   2.603
 1646SOL     OW 4957   2.323   1.266   3.589
 1646SOL    HW1 4958   2.273   1.267   3.503
 1646SOL    HW2 4959   2.260   1.248   3.665
 1647SOL     OW 4960   2.973   1.776   2.099
 1647SOL    HW1 4961   2.913   1.714   2.149
 1647SOL    HW2 4962   3.004   1.732   2.014
 1648SOL     OW 4963   2.064   0.285   3.360
 1648SOL    HW1 4964   1.984   0.345   3.347
 1648SOL    HW2 4965   2.054   0.236   3.446
 1649SOL     OW 4966   3.494   1.377   1.943
 1649SOL    HW1 4967   3.462   1.471   1.933
 1649SOL    HW2 4968   3.418   1.314   1.931
 1650SOL     OW 4969   2.326   1.743   2.185
 1650SOL    HW1 4970   2.359   1.782   2.271
 1650SOL    HW2 4971   2.402   1.736   2.120
 1651SOL     OW 4972   3.262   0.107   2.288
 1651SOL    HW1 4973   3.238   0.070   2.198
 1651SOL    HW2 4974   3.361   0.123   2.292
 1652SOL     OW 4975   2.111   1.785   3.103
 1652SOL    HW1 4976   2.168   1.720   3.153
 1652SOL    HW2 4977   2.095   1.752   3.010
 1653SOL     OW 4978   2.802   1.698   2.766
 1653SOL    HW1 4979   2.882   1.641   2.787
 1653SOL    HW2 4980   2.753   1.658   2.689
 1654SOL     OW 4981   2.244   0.700   2.342
 1654SOL    HW1 4982   2.289   0.610   2.339
 1654SOL    HW2 4983   2.150   0.689   2.375
 1655SOL     OW 4984   3.409   0.222   3.591
 1655SOL    HW1 4985   3.404   0.259   3.683
 1655SOL    HW2 4986   3.337   0.153   3.579
 1656SOL     OW 4987   2.476   0.122   1.979
 1656SOL    HW1 4988   2.574   0.100   1.986
 1656SOL    HW2 4989   2.445   0.105   1.886
 1657SOL     OW 4990   2.643   0.264   3.611
 1657SOL    HW1 4991   2.710   0.203   3.654
 1657SOL    HW2 4992   2.570   0.283   3.676
 1658SOL     OW 4993   2.750   1.514   3.057
 1658SOL    HW1 4994   2.727   1.489   2.963
 1658SOL    HW2 4995   2.811   1.445   3.096
 1659SOL     OW 4996   3.213   0.590   3.295
 1659SOL    HW1 4997   3.241   0.547   3.380
 1659SOL    HW2 4998   3.238   0.686   3.296
 1660SOL     OW 4999   2.665   1.402   2.786
 1660SOL    HW1 5000   2.755   1.416   2.744
 1660SOL    HW2 5001   2.594   1.404   2.715
 1661SOL     OW 5002   2.784   0.503   2.761
 1661SOL    HW1 5003   2.759   0.494   2.665
 1661SOL    HW2 5004   2.832   0.421   2.792
 1662SOL     OW 5005   2.401   0.064   2.374
 1662SOL    HW1 5006   2.320   0.065   2.432
 1662SOL    HW2 5007   2.404   0.147   2.319
 1663SOL     OW 5008   3.296   1.188   1.903
 1663SOL    HW1 5009   3.328   1.112   1.960
 1663SOL    HW2 5010   3.204   1.215   1.933
 1664SOL     OW 5011   2.159   0.035   2.033
 1664SOL    HW1 5012   2.208   0.119   2.012
 1664SOL    HW2 5013   2.221  -0.030   2.078
 1665SOL     OW 5014   2.797   0.236   2.342
 1665SOL    HW1 5015   2.749   0.277   2.264
 1665SOL    HW2 5016   2.896   0.234   2.323
 1666SOL     OW 5017   2.938   0.683   3.326
 1666SOL    HW1 5018   2.858   0.622   3.329
 1666SOL    HW2 5019   3.019   0.630   3.302
 1667SOL     OW 5020   3.089   1.570   2.655
 1667SOL    HW1 5021   3.110   1.644   2.590
 1667SOL    HW2 5022   3.157   1.570   2.728
 1668SOL     OW 5023   2.321   1.152   2.603
 1668SOL    HW1 5024   2.250   1.125   2.668
 1668SOL    HW2 5025   2.295   1.124   2.510
 1669SOL     OW 5026   3.133   1.797   2.453
 1669SOL    HW1 5027   3.177   1.861   2.389
 1669SOL    HW2 5028   3.083   1.849   2.523
 1670SOL     OW 5029   2.894   0.549   1.878
 1670SOL    HW1 5030   2.853   0.631   1.839
 1670SOL    HW2 5031   2.958   0.575   1.951
 1671SOL     OW 5032   1.940   0.556   3.248
 1671SOL    HW1 5033   2.032   0.555   3.207
 1671SOL    HW2 5034   1.934   0.630   3.315
 1672SOL     OW 5035   2.423   0.222   3.009
 1672SOL    HW1 5036   2.461   0.138   3.046
 1672SOL    HW2 5037   2.335   0.241   3.053
 1673SOL     OW 5038   2.728   0.454   2.504
 1673SOL    HW1 5039   2.696   0.526   2.442
 1673SOL    HW2 5040   2.752   0.373   2.451
 1674SOL     OW 5041   2.879   0.039   2.615
 1674SOL    HW1 5042   2.807   0.044   2.546
 1674SOL    HW2 5043   2.855  -0.030   2.684
 1675SOL     OW 5044   3.291   1.173   2.729
 1675SOL    HW1 5045   3.236   1.089   2.722
 1675SOL    HW2 5046   3.317   1.202   2.637
 1676SOL     OW 5047   3.328   0.590   2.854
 1676SOL    HW1 5048   3.298   0.495   2.861
 1676SOL    HW2 5049   3.401   0.606   2.920
 1677SOL     OW 5050   3.719   0.833   2.239
 1677SOL    HW1 5051   3.761   0.769   2.303
 1677SOL    HW2 5052   3.681   0.782   2.161
 1678SOL     OW 5053   2.350   1.385   2.036
 1678SOL    HW1 5054   2.263   1.370   2.083
 1678SOL    HW2 5055   2.333   1.411   1.941
 1679SOL     OW 5056   3.526   1.280   2.519
 1679SOL    HW1 5057   3.625   1.288   2.533
 1679SOL    HW2 5058   3.481   1.364   2.550
 1680SOL     OW 5059   3.252   0.575   1.940
 1680SOL    HW1 5060   3.198   0.554   2.021
 1680SOL    HW2 5061   3.343   0.534   1.949
 1681SOL     OW 5062   2.389   0.256   2.190
 1681SOL    HW1 5063   2.416   0.197   2.115
 1681SOL    HW2 5064   2.389   0.351   2.159
 1682SOL     OW 5065   3.616   1.223   3.450
 1682SOL    HW1 5066   3.707   1.184   3.437
 1682SOL    HW2 5067   3.624   1.319   3.474
 1683SOL     OW 5068   2.926   1.347   3.202
 1683SOL    HW1 5069   2.846   1.324   3.257
 1683SOL    HW2 5070   3.009   1.321   3.251
 1684SOL     OW 5071   3.454   1.629   3.487
 1684SOL    HW1 5072   3.481   1.663   3.397
 1684SOL    HW2 5073   3.533   1.591   3.533
 1685SOL     OW 5074   2.973   1.195   2.962
 1685SOL    HW1 5075   2.933   1.239   3.043
 1685SOL    HW2 5076   2.932   1.232   2.879
 1686SOL     OW 5077   3.500   1.099   2.941
 1686SOL    HW1 5078   3.505   1.180   3.000
 1686SOL    HW2 5079   3.414   1.101   2.890
 1687SOL     OW 5080   2.777   0.089   3.264
 1687SOL    HW1 5081   2.802   0.069   3.169
 1687SOL    HW2 5082   2.849   0.145   3.306
 1688SOL     OW 5083   2.842   1.116   3.581
 1688SOL    HW1 5084   2.743   1.122   3.591
 1688SOL    HW2 5085   2.865   1.036   3.525
 1689SOL     OW 5086   2.567   1.050   2.230
 1689SOL    HW1 5087   2.553   1.057   2.329
 1689SOL    HW2 5088   2.651   0.999   2.212
 1690SOL     OW 5089   2.272   0.813   3.113
 1690SOL    HW1 5090   2.358   0.825   3.163
 1690SOL    HW2 5091   2.230   0.726   3.140
 1691SOL     OW 5092   3.136   0.386   3.124
 1691SOL    HW1 5093   3.157   0.460   3.188
 1691SOL    HW2 5094   3.047   0.403   3.081
 1692SOL     OW 5095   1.926   1.564   3.193
 1692SOL    HW1 5096   1.880   1.646   3.159
 1692SOL    HW2 5097   2.024   1.583   3.202
 1693SOL     OW 5098   2.229   1.100   2.363
 1693SOL    HW1 5099   2.222   1.183   2.307
 1693SOL    HW2 5100   2.233   1.020   2.303
 1694SOL     OW 5101   2.428   0.537   2.727
 1694SOL    HW1 5102   2.440   0.603   2.653
 1694SOL    HW2 5103   2.474   0.571   2.810
 1695SOL     OW 5104   3.114   1.348   2.250
 1695SOL    HW1 5105   3.164   1.425   2.290
 1695SOL    HW2 5106   3.019   1.350   2.282
 1696SOL     OW 5107   3.134   1.445   3.004
 1696SOL    HW1 5108   3.181   1.458   3.091
 1696SOL    HW2 5109   3.068   1.371   3.013
 1697SOL     OW 5110   3.444   0.639   2.334
 1697SOL    HW1 5111   3.413   0.700   2.407
 1697SOL    HW2 5112   3.494   0.691   2.265
 1698SOL     OW 5113   2.216   1.510   3.191
 1698SOL    HW1 5114   2.195   1.466   3.104
 1698SOL    HW2 5115   2.313   1.536   3.194
 1699SOL     OW 5116   2.264   0.751   3.460
 1699SOL    HW1 5117   2.332   0.806   3.413
 1699SOL    HW2 5118   2.304   0.663   3.487
 1700SOL     OW 5119   3.449   0.779   3.532
 1700SOL    HW1 5120   3.357   0.817   3.527
 1700SOL    HW2 5121   3.509   0.826   3.467
 1701SOL     OW 5122   2.875   0.105   3.632
 1701SOL    HW1 5123   2.881   0.190   3.580
 1701SOL    HW2 5124   2.907   0.029   3.575
 1702SOL     OW 5125   2.366   0.050   3.602
 1702SOL    HW1 5126   2.324  -0.007   3.532
 1702SOL    HW2 5127   2.300   0.119   3.634
 1703SOL     OW 5128   2.435   0.870   2.891
 1703SOL    HW1 5129   2.479   0.959   2.882
 1703SOL    HW2 5130   2.372   0.870   2.968
 1704SOL     OW 5131   3.222   0.862   2.907
 1704SOL    HW1 5132   3.147   0.862   2.841
 1704SOL    HW2 5133   3.259   0.770   2.916
 1705SOL     OW 5134   3.071   0.525   2.137
 1705SOL    HW1 5135   3.084   0.441   2.191
 1705SOL    HW2 5136   3.042   0.599   2.197
 1706SOL     OW 5137   2.169   0.213   3.093
 1706SOL    HW1 5138   2.146   0.250   3.183
 1706SOL    HW2 5139   2.139   0.118   3.087
 1707SOL     OW 5140   1.899   1.310   3.144
 1707SOL    HW1 5141   1.952   1.261   3.212
 1707SOL    HW2 5142   1.921   1.408   3.149
 1708SOL     OW 5143   2.594   0.634   2.926
 1708SOL    HW1 5144   2.653   0.608   2.850
 1708SOL    HW2 5145   2.566   0.730   2.915
 1709SOL     OW 5146   3.590   0.935   3.716
 1709SOL    HW1 5147   3.544   0.928   3.627
 1709SOL    HW2 5148   3.528   0.979   3.782
 1710SOL     OW 5149   2.169   0.063   2.480
 1710SOL    HW1 5150   2.158   0.157   2.513
 1710SOL    HW2 5151   2.164   0.000   2.557
 1711SOL     OW 5152   3.484   0.367   2.236
 1711SOL    HW1 5153   3.486   0.291   2.300
 1711SOL    HW2 5154   3.436   0.444   2.276
 1712SOL     OW 5155   2.885   0.766   2.828
 1712SOL    HW1 5156   2.900   0.787   2.924
 1712SOL    HW2 5157   2.855   0.671   2.819
 1713SOL     OW 5158   2.842   1.573   3.562
 1713SOL    HW1 5159   2.822   1.617   3.474
 1713SOL    HW2 5160   2.881   1.482   3.546
 1714SOL     OW 5161   3.721   1.518   3.467
 1714SOL    HW1 5162   3.735   1.545   3.372
 1714SOL    HW2 5163   3.804   1.540   3.520
 1715SOL     OW 5164   2.212   0.898   3.666
 1715SOL    HW1 5165   2.288   0.942   3.714
 1715SOL    HW2 5166   2.247   0.851   3.584
 1716SOL     OW 5167   3.402   0.274   1.987
 1716SOL    HW1 5168   3.341   0.199   2.010
 1716SOL    HW2 5169   3.424   0.326   2.070
 1717SOL     OW 5170   3.165   0.838   1.904
 1717SOL    HW1 5171   3.199   0.745   1.919
 1717SOL    HW2 5172   3.183   0.865   1.809
 1718SOL     OW 5173   2.930   1.333   2.711
 1718SOL    HW1 5174   2.937   1.249   2.656
 1718SOL    HW2 5175   2.992   1.402   2.675
 1719SOL     OW 5176   2.181   0.810   2.811
 1719SOL    HW1 5177   2.274   0.846   2.816
 1719SOL    HW2 5178   2.175   0.725   2.863
 1720SOL     OW 5179   2.201   0.509   2.868
 1720SOL    HW1 5180   2.149   0.426   2.851
 1720SOL    HW2 5181   2.278   0.514   2.804
 1721SOL     OW 5182   3.000   0.380   3.540
 1721SOL    HW1 5183   2.955   0.443   3.604
 1721SOL    HW2 5184   3.093   0.411   3.523
 1722SOL     OW 5185   3.022   0.207   3.339
 1722SOL    HW1 5186   3.022   0.271   3.416
 1722SOL    HW2 5187   3.050   0.255   3.256
 1723SOL     OW 5188   1.870   1.326   2.062
 1723SOL    HW1 5189   1.777   1.347   2.031
 1723SOL    HW2 5190   1.880   1.227   2.075
 1724SOL     OW 5191   1.950   1.801   2.789
 1724SOL    HW1 5192   1.908   1.715   2.762
 1724SOL    HW2 5193   2.044   1.804   2.755
 1725SOL     OW 5194   2.366   1.568   2.772
 1725SOL    HW1 5195   2.432   1.642   2.781
 1725SOL    HW2 5196   2.410   1.489   2.730
 1726SOL     OW 5197   2.864   0.796   3.100
 1726SOL    HW1 5198   2.905   0.764   3.186
 1726SOL    HW2 5199   2.768   0.769   3.097
 1727SOL     OW 5200   1.902   0.544   2.976
 1727SOL    HW1 5201   1.987   0.511   2.935
 1727SOL    HW2 5202   1.915   0.559   3.074
 1728SOL     OW 5203   2.051   0.520   3.584
 1728SOL    HW1 5204   2.110   0.480   3.514
 1728SOL    HW2 5205   1.993   0.591   3.543
 1729SOL     OW 5206   3.231   0.950   3.522
 1729SOL    HW1 5207   3.270   1.039   3.542
 1729SOL    HW2 5208   3.241   0.930   3.425
 1730SOL     OW 5209   2.677   0.572   2.187
 1730SOL    HW1 5210   2.684   0.483   2.141
 1730SOL    HW2 5211   2.583   0.606   2.179
 1731SOL     OW 5212   3.519   0.604   3.068
 1731SOL    HW1 5213   3.481   0.535   3.130
 1731SOL    HW2 5214   3.601   0.568   3.024
 1732SOL     OW 5215   2.114   1.564   3.606
 1732SOL    HW1 5216   2.084   1.621   3.682
 1732SOL    HW2 5217   2.107   1.467   3.632
 1733SOL     OW 5218   2.533   0.464   3.131
 1733SOL    HW1 5219   2.499   0.375   3.101
 1733SOL    HW2 5220   2.559   0.518   3.051
 1734SOL     OW 5221   2.792   1.678   3.327
 1734SOL    HW1 5222   2.768   1.660   3.232
 1734SOL    HW2 5223   2.822   1.772   3.337
 1735SOL     OW 5224   2.335   0.500   2.053
 1735SOL    HW1 5225   2.396   0.580   2.057
 1735SOL    HW2 5226   2.240   0.531   2.060
 1736SOL     OW 5227   2.021   1.137   3.328
 1736SOL    HW1 5228   2.043   1.076   3.404
 1736SOL    HW2 5229   2.031   1.088   3.242
 1737SOL     OW 5230   3.209   1.059   3.096
 1737SOL    HW1 5231   3.233   0.996   3.022
 1737SOL    HW2 5232   3.119   1.099   3.078
 1738SOL     OW 5233   3.164   0.855   2.171
 1738SOL    HW1 5234   3.078   0.824   2.213
 1738SOL    HW2 5235   3.160   0.841   2.072
 1739SOL     OW 5236   3.621   1.747   3.016
 1739SOL    HW1 5237   3.682   1.777   2.943
 1739SOL    HW2 5238   3.583   1.658   2.994
 1740SOL     OW 5239   3.114   1.731   2.990
 1740SOL    HW1 5240   3.198   1.736   2.936
 1740SOL    HW2 5241   3.091   1.635   3.008
 1741SOL     OW 5242   1.945   1.258   2.884
 1741SOL    HW1 5243   1.940   1.257   2.984
 1741SOL    HW2 5244   1.862   1.217   2.846
 1742SOL     OW 5245   2.550   1.662   3.578
 1742SOL    HW1 5246   2.494   1.743   3.587
 1742SOL    HW2 5247   2.602   1.666   3.492
 1743SOL     OW 5248   3.588   0.135   2.385
 1743SOL    HW1 5249   3.661   0.118   2.318
 1743SOL    HW2 5250   3.557   0.048   2.423
 1744SOL     OW 5251   3.250   1.573   2.339
 1744SOL    HW1 5252   3.317   1.585   2.265
 1744SOL    HW2 5253   3.210   1.662   2.362
 1745SOL     OW 5254   1.992   1.794   3.713
 1745SOL    HW1 5255   1.951   1.720   3.766
 1745SOL    HW2 5256   2.056   1.845   3.771
 1746SOL     OW 5257   3.142   0.927   2.534
 1746SOL    HW1 5258   3.202   0.846   2.536
 1746SOL    HW2 5259   3.182   0.996   2.474
 1747SOL     OW 5260   2.692   1.273   3.284
 1747SOL    HW1 5261   2.687   1.306   3.379
 1747SOL    HW2 5262   2.606   1.292   3.238
 1748SOL     OW 5263   2.534   1.616   2.016
 1748SOL    HW1 5264   2.543   1.626   1.917
 1748SOL    HW2 5265   2.494   1.527   2.037
 1749SOL     OW 5266   3.512   1.720   3.256
 1749SOL    HW1 5267   3.565   1.730   3.172
 1749SOL    HW2 5268   3.485   1.810   3.290
 1750SOL     OW 5269   3.703   0.175   2.825
 1750SOL    HW1 5270   3.742   0.090   2.789
 1750SOL    HW2 5271   3.605   0.177   2.806
 1751SOL     OW 5272   2.125   0.326   2.582
 1751SOL    HW1 5273   2.046   0.377   2.548
 1751SOL    HW2 5274   2.116   0.311   2.680
 1752SOL     OW 5275   3.056   1.612   1.893
 1752SOL    HW1 5276   3.062   1.519   1.930
 1752SOL    HW2 5277   2.997   1.612   1.813
 1753SOL     OW 5278   2.684   1.002   3.234
 1753SOL    HW1 5279   2.724   1.001   3.142
 1753SOL    HW2 5280   2.694   1.094   3.274
 1754SOL     OW 5281   2.778   0.910   2.153
 1754SOL    HW1 5282   2.841   0.948   2.085
 1754SOL    HW2 5283   2.818   0.827   2.192
 1755SOL     OW 5284   3.366   1.607   1.906
 1755SOL    HW1 5285   3.274   1.644   1.913
 1755SOL    HW2 5286   3.404   1.627   1.816
 1756SOL     OW 5287   2.234   1.288   3.352
 1756SOL    HW1 5288   2.221   1.381   3.318
 1756SOL    HW2 5289   2.150   1.236   3.339
 1757SOL     OW 5290   3.476   1.292   3.151
 1757SOL    HW1 5291   3.536   1.295   3.231
 1757SOL    HW2 5292   3.401   1.356   3.164
 1758SOL     OW 5293   2.901   1.098   2.558
 1758SOL    HW1 5294   2.831   1.051   2.612
 1758SOL    HW2 5295   2.960   1.030   2.515
 1759SOL     OW 5296   2.876   0.236   2.833
 1759SOL    HW1 5297   2.868   0.200   2.740
 1759SOL    HW2 5298   2.874   0.160   2.898
 1760SOL     OW 5299   2.452   1.487   2.353
 1760SOL    HW1 5300   2.494   1.429   2.283
 1760SOL    HW2 5301   2.408   1.566   2.309
 1761SOL     OW 5302   3.571   0.385   3.243
 1761SOL    HW1 5303   3.644   0.454   3.247
 1761SOL    HW2 5304   3.599   0.310   3.184
 1762SOL     OW 5305   2.117   1.348   2.152
 1762SOL    HW1 5306   2.021   1.349   2.125
 1762SOL    HW2 5307   2.129   1.401   2.236
 1763SOL     OW 5308   1.967   1.013   3.588
 1763SOL    HW1 5309   1.890   0.980   3.642
 1763SOL    HW2 5310   2.052   0.983   3.630
 1764SOL     OW 5311   2.534   0.203   3.351
 1764SOL    HW1 5312   2.624   0.187   3.311
 1764SOL    HW2 5313   2.542   0.208   3.450
 1765SOL     OW 5314   1.937   0.345   1.895
 1765SOL    HW1 5315   1.845   0.317   1.866
 1765SOL    HW2 5316   1.968   0.422   1.839
 1766SOL     OW 5317   3.302   0.856   3.260
 1766SOL    HW1 5318   3.245   0.908   3.197
 1766SOL    HW2 5319   3.398   0.868   3.236
 1767SOL     OW 5320   1.934   0.166   2.180
 1767SOL    HW1 5321   1.917   0.249   2.126
 1767SOL    HW2 5322   2.024   0.129   2.158
 1768SOL     OW 5323   3.045   1.335   1.981
 1768SOL    HW1 5324   2.946   1.324   1.983
 1768SOL    HW2 5325   3.079   1.350   2.074
 1769SOL     OW 5326   2.475   0.842   3.293
 1769SOL    HW1 5327   2.531   0.923   3.276
 1769SOL    HW2 5328   2.534   0.762   3.296
 1770SOL     OW 5329   3.355   1.767   2.821
 1770SOL    HW1 5330   3.388   1.831   2.752
 1770SOL    HW2 5331   3.421   1.761   2.896
 1771SOL     OW 5332   2.578   0.565   3.570
 1771SOL    HW1 5333   2.597   0.630   3.644
 1771SOL    HW2 5334   2.638   0.485   3.579
 1772SOL     OW 5335   3.312   1.220   3.495
 1772SOL    HW1 5336   3.303   1.210   3.594
 1772SOL    HW2 5337   3.408   1.213   3.469
 1773SOL     OW 5338   2.252   1.741   3.422
 1773SOL    HW1 5339   2.161   1.782   3.420
 1773SOL    HW2 5340   2.245   1.647   3.454
 1774SOL     OW 5341   3.536   0.883   3.116
 1774SOL    HW1 5342   3.509   0.794   3.079
 1774SOL    HW2 5343   3.537   0.951   3.043
 1775SOL     OW 5344   3.087   0.325   2.311
 1775SOL    HW1 5345   3.152   0.251   2.300
 1775SOL    HW2 5346   3.107   0.375   2.395
 1776SOL     OW 5347   2.456   0.745   2.514
 1776SOL    HW1 5348   2.506   0.830   2.495
 1776SOL    HW2 5349   2.368   0.747   2.466
 1777SOL     OW 5350   3.639   0.342   3.504
 1777SOL    HW1 5351   3.622   0.373   3.410
 1777SOL    HW2 5352   3.555   0.305   3.542
 1778SOL     OW 5353   3.592   0.934   3.379
 1778SOL    HW1 5354   3.630   1.025   3.394
 1778SOL    HW2 5355   3.584   0.917   3.280
 1779SOL     OW 5356   2.721   1.374   1.878
 1779SOL    HW1 5357   2.675   1.389   1.966
 1779SOL    HW2 5358   2.765   1.459   1.848
 1780SOL     OW 5359   2.523   1.790   2.815
 1780SOL    HW1 5360   2.477   1.878   2.802
 1780SOL    HW2 5361   2.622   1.802   2.808
 1781SOL     OW 5362   2.721   0.956   2.723
 1781SOL    HW1 5363   2.775   0.887   2.771
 1781SOL    HW2 5364   2.689   1.025   2.789
 1782SOL     OW 5365   2.945   0.984   1.949
 1782SOL    HW1 5366   2.922   1.037   1.867
 1782SOL    HW2 5367   3.026   0.928   1.930
 1783SOL     OW 5368   3.723   1.569   2.713
 1783SOL    HW1 5369   3.652   1.557   2.643
 1783SOL    HW2 5370   3.724   1.490   2.773
 1784SOL     OW 5371   2.083   1.314   3.706
 1784SOL    HW1 5372   2.018   1.241   3.685
 1784SOL    HW2 5373   2.087   1.328   3.804
 1785SOL     OW 5374   1.941   1.240   2.515
 1785SOL    HW1 5375   1.940   1.193   2.603
 1785SOL    HW2 5376   2.023   1.212   2.464
 1786SOL     OW 5377   2.534   1.391   3.486
 1786SOL    HW1 5378   2.456   1.341   3.524
 1786SOL    HW2 5379   2.531   1.486   3.517
 1787SOL     OW 5380   3.686   0.192   3.089
 1787SOL    HW1 5381   3.682   0.102   3.133
 1787SOL    HW2 5382   3.689   0.181   2.990
 1788SOL     OW 5383   2.290   0.424   2.382
 1788SOL    HW1 5384   2.320   0.352   2.320
 1788SOL    HW2 5385   2.251   0.384   2.465
 1789SOL     OW 5386   3.567   1.487   2.966
 1789SOL    HW1 5387   3.474   1.462   2.939
 1789SOL    HW2 5388   3.593   1.437   3.048
 1790SOL     OW 5389   2.179   0.547   3.142
 1790SOL    HW1 5390   2.217   0.488   3.214
 1790SOL    HW2 5391   2.219   0.521   3.054
 1791SOL     OW 5392   2.674   1.586   2.549
 1791SOL    HW1 5393   2.706   1.596   2.455
 1791SOL    HW2 5394   2.595   1.524   2.551
 1792SOL     OW 5395   3.286   0.214   2.974
 1792SOL    HW1 5396   3.338   0.149   3.029
 1792SOL    HW2 5397   3.237   0.277   3.035
 1793SOL     OW 5398   2.863   0.034   3.016
 1793SOL    HW1 5399   2.800  -0.038   2.985
 1793SOL    HW2 5400   2.956  -0.002   3.016
 1794SOL     OW 5401   2.632   1.330   2.163
 1794SOL    HW1 5402   2.586   1.243   2.180
 1794SOL    HW2 5403   2.723   1.327   2.204
 1795SOL     OW 5404   2.480   1.567   3.146
 1795SOL    HW1 5405   2.475   1.649   3.203
 1795SOL    HW2 5406   2.569   1.564   3.101
 1796SOL     OW 5407   3.214   0.052   2.030
 1796SOL    HW1 5408   3.249   0.011   1.946
 1796SOL    HW2 5409   3.124   0.014   2.050
 1797SOL     OW 5410   3.162   0.453   2.553
 1797SOL    HW1 5411   3.103   0.533   2.557
 1797SOL    HW2 5412   3.177   0.418   2.646
 1798SOL     OW 5413   3.455   0.221   2.744
 1798SOL    HW1 5414   3.371   0.220   2.798
 1798SOL    HW2 5415   3.457   0.304   2.688
 1799SOL     OW 5416   1.901   1.077   2.162
 1799SOL    HW1 5417   2.000   1.066   2.153
 1799SOL    HW2 5418   1.861   0.991   2.194
 1800SOL     OW 5419   2.737   1.646   2.199
 1800SOL    HW1 5420   2.660   1.611   2.145
 1800SOL    HW2 5421   2.705   1.717   2.261
 1801SOL     OW 5422   2.092   0.628   3.837
 1801SOL    HW1 5423   1.999   0.626   3.874
 1801SOL    HW2 5424   2.093   0.589   3.745
 1802SOL     OW 5425   2.087   0.275   4.720
 1802SOL    HW1 5426   2.122   0.258   4.812
 1802SOL    HW2 5427   1.999   0.230   4.708
 1803SOL     OW 5428   1.881   0.368   4.371
 1803SOL    HW1 5429   1.799   0.411   4.410
 1803SOL    HW2 5430   1.853   0.295   4.308
 1804SOL     OW 5431   3.417   1.511   4.427
 1804SOL    HW1 5432   3.360   1.495   4.508
 1804SOL    HW2 5433   3.358   1.521   4.347
 1805SOL     OW 5434   2.997   0.703   4.441
 1805SOL    HW1 5435   3.054   0.781   4.416
 1805SOL    HW2 5436   2.937   0.729   4.517
 1806SOL     OW 5437   3.617   0.607   3.955
 1806SOL    HW1 5438   3.605   0.594   3.856
 1806SOL    HW2 5439   3.587   0.526   4.004
 1807SOL     OW 5440   2.630   1.144   4.747
 1807SOL    HW1 5441   2.552   1.161   4.807
 1807SOL    HW2 5442   2.664   1.231   4.711
 1808SOL     OW 5443   2.547   1.012   4.389
 1808SOL    HW1 5444   2.616   0.996   4.459
 1808SOL    HW2 5445   2.474   1.069   4.427
 1809SOL     OW 5446   3.465   0.447   4.461
 1809SOL    HW1 5447   3.391   0.493   4.411
 1809SOL    HW2 5448   3.516   0.515   4.514
 1810SOL     OW 5449   2.093   1.713   4.207
 1810SOL    HW1 5450   2.127   1.790   4.261
 1810SOL    HW2 5451   2.137   1.713   4.117
 1811SOL     OW 5452   2.092   1.434   4.262
 1811SOL    HW1 5453   2.066   1.530   4.262
 1811SOL    HW2 5454   2.021   1.380   4.307
 1812SOL     OW 5455   2.102   1.091   4.610
 1812SOL    HW1 5456   2.116   1.007   4.662
 1812SOL    HW2 5457   2.047   1.155   4.665
 1813SOL     OW 5458   2.468   0.964   3.847
 1813SOL    HW1 5459   2.475   1.048   3.793
 1813SOL    HW2 5460   2.514   0.977   3.935
 1814SOL     OW 5461   1.984   0.643   4.287
 1814SOL    HW1 5462   1.939   0.555   4.304
 1814SOL    HW2 5463   1.983   0.697   4.371
 1815SOL     OW 5464   3.704   1.767   4.083
 1815SOL    HW1 5465   3.758   1.738   4.163
 1815SOL    HW2 5466   3.734   1.857   4.054
 1816SOL     OW 5467   1.889   1.596   3.841
 1816SOL    HW1 5468   1.870   1.500   3.862
 1816SOL    HW2 5469   1.856   1.654   3.916
 1817SOL     OW 5470   3.551   0.922   4.336
 1817SOL    HW1 5471   3.646   0.893   4.344
 1817SOL    HW2 5472   3.543   0.987   4.261
 1818SOL     OW 5473   3.503   1.108   4.156
 1818SOL    HW1 5474   3.589   1.110   4.104
 1818SOL    HW2 5475   3.517   1.155   4.244
 1819SOL     OW 5476   2.475   1.365   4.450
 1819SOL    HW1 5477   2.426   1.278   4.459
 1819SOL    HW2 5478   2.452   1.408   4.363
 1820SOL     OW 5479   2.671   0.004   4.226
 1820SOL    HW1 5480   2.711   0.095   4.217
 1820SOL    HW2 5481   2.571   0.012   4.232
 1821SOL     OW 5482   3.387   0.999   3.914
 1821SOL    HW1 5483   3.324   0.923   3.927
 1821SOL    HW2 5484   3.435   1.017   4.000
 1822SOL     OW 5485   3.328   1.417   4.677
 1822SOL    HW1 5486   3.269   1.423   4.757
 1822SOL    HW2 5487   3.313   1.329   4.631
 1823SOL     OW 5488   3.529   1.714   4.296
 1823SOL    HW1 5489   3.488   1.691   4.208
 1823SOL    HW2 5490   3.511   1.640   4.361
 1824SOL     OW 5491   2.460   0.729   3.994
 1824SOL    HW1 5492   2.484   0.798   3.926
 1824SOL    HW2 5493   2.382   0.762   4.048
 1825SOL     OW 5494   3.143   0.345   4.668
 1825SOL    HW1 5495   3.057   0.295   4.655
 1825SOL    HW2 5496   3.205   0.291   4.724
 1826SOL     OW 5497   3.438   1.662   4.031
 1826SOL    HW1 5498   3.527   1.708   4.034
 1826SOL    HW2 5499   3.417   1.638   3.936
 1827SOL     OW 5500   2.903   0.701   4.153
 1827SOL    HW1 5501   2.929   0.697   4.249
 1827SOL    HW2 5502   2.818   0.650   4.139
 1828SOL     OW 5503   1.938   0.811   4.513
 1828SOL    HW1 5504   2.037   0.799   4.522
 1828SOL    HW2 5505   1.914   0.906   4.534
 1829SOL     OW 5506   2.727   0.348   3.919
 1829SOL    HW1 5507   2.786   0.411   3.870
 1829SOL    HW2 5508   2.746   0.254   3.890
 1830SOL     OW 5509   3.224   1.144   4.269
 1830SOL    HW1 5510   3.307   1.115   4.221
 1830SOL    HW2 5511   3.175   1.211   4.213
 1831SOL     OW 5512   2.870   1.456   4.201
 1831SOL    HW1 5513   2.824   1.528   4.149
 1831SOL    HW2 5514   2.866   1.476   4.299
 1832SOL     OW 5515   2.213   1.801   4.577
 1832SOL    HW1 5516   2.263   1.715   4.583
 1832SOL    HW2 5517   2.278   1.878   4.574
 1833SOL     OW 5518   3.657   1.066   4.597
 1833SOL    HW1 5519   3.595   1.051   4.521
 1833SOL    HW2 5520   3.605   1.077   4.682
 1834SOL     OW 5521   2.183   0.943   3.966
 1834SOL    HW1 5522   2.265   0.982   3.924
 1834SOL    HW2 5523   2.156   0.861   3.917
 1835SOL     OW 5524   3.320   0.735   4.452
 1835SOL    HW1 5525   3.315   0.670   4.527
 1835SOL    HW2 5526   3.400   0.794   4.465
 1836SOL     OW 5527   2.973   1.776   3.961
 1836SOL    HW1 5528   2.913   1.714   4.011
 1836SOL    HW2 5529   3.004   1.732   3.876
 1837SOL     OW 5530   3.494   1.377   3.805
 1837SOL    HW1 5531   3.462   1.471   3.795
 1837SOL    HW2 5532   3.418   1.314   3.793
 1838SOL     OW 5533   2.326   1.743   4.047
 1838SOL    HW1 5534   2.359   1.782   4.133
 1838SOL    HW2 5535   2.402   1.736   3.982
 1839SOL     OW 5536   3.262   0.107   4.150
 1839SOL    HW1 5537   3.238   0.070   4.060
 1839SOL    HW2 5538   3.361   0.123   4.154
 1840SOL     OW 5539   2.111   1.785   4.965
 1840SOL    HW1 5540   2.168   1.720   5.015
 1840SOL    HW2 5541   2.095   1.752   4.872
 1841SOL     OW 5542   2.244   0.700   4.204
 1841SOL    HW1 5543   2.289   0.610   4.201
 1841SOL    HW2 5544   2.150   0.689   4.237
 1842SOL     OW 5545   2.476   0.122   3.841
 1842SOL    HW1 5546   2.574   0.100   3.848
 1842SOL    HW2 5547   2.445   0.105   3.748
 1843SOL     OW 5548   2.784   0.503   4.623
 1843SOL    HW1 5549   2.759   0.494   4.527
 1843SOL    HW2 5550   2.832   0.421   4.654
 1844SOL     OW 5551   2.401   0.064   4.236
 1844SOL    HW1 5552   2.320   0.065   4.294
 1844SOL    HW2 5553   2.404   0.147   4.181
 1845SOL     OW 5554   3.296   1.188   3.765
 1845SOL    HW1 5555   3.328   1.112   3.822
 1845SOL    HW2 5556   3.204   1.215   3.795
 1846SOL     OW 5557   2.159   0.035   3.895
 1846SOL    HW1 5558   2.208   0.119   3.874
 1846SOL    HW2 5559   2.221  -0.030   3.940
 1847SOL     OW 5560   2.797   0.236   4.204
 1847SOL    HW1 5561   2.749   0.277   4.126
 1847SOL    HW2 5562   2.896   0.234   4.185
 1848SOL     OW 5563   3.089   1.570   4.517
 1848SOL    HW1 5564   3.110   1.644   4.452
 1848SOL    HW2 5565   3.157   1.570   4.590
 1849SOL     OW 5566   2.321   1.152   4.465
 1849SOL    HW1 5567   2.250   1.125   4.530
 1849SOL    HW2 5568   2.295   1.124   4.372
 1850SOL     OW 5569   3.133   1.797   4.315
 1850SOL    HW1 5570   3.177   1.861   4.251
 1850SOL    HW2 5571   3.083   1.849   4.385
 1851SOL     OW 5572   2.894   0.549   3.740
 1851SOL    HW1 5573   2.853   0.631   3.701
 1851SOL    HW2 5574   2.958   0.575   3.813
 1852SOL     OW 5575   2.728   0.454   4.366
 1852SOL    HW1 5576   2.696   0.526   4.304
 1852SOL    HW2 5577   2.752   0.373   4.313
 1853SOL     OW 5578   2.879   0.039   4.477
 1853SOL    HW1 5579   2.807   0.044   4.408
 1853SOL    HW2 5580   2.855  -0.030   4.546
 1854SOL     OW 5581   3.291   1.173   4.591
 1854SOL    HW1 5582   3.236   1.089   4.584
 1854SOL    HW2 5583   3.317   1.202   4.499
 1855SOL     OW 5584   3.719   0.833   4.101
 1855SOL    HW1 5585   3.761   0.769   4.165
 1855SOL    HW2 5586   3.681   0.782   4.023
 1856SOL     OW 5587   2.350   1.385   3.898
 1856SOL    HW1 5588   2.263   1.370   3.945
 1856SOL    HW2 5589   2.333   1.411   3.803
 1857SOL     OW 5590   3.526   1.280   4.381
 1857SOL    HW1 5591   3.625   1.288   4.395
 1857SOL    HW2 5592   3.481   1.364   4.412
 1858SOL     OW 5593   3.252   0.575   3.802
 1858SOL    HW1 5594   3.198   0.554   3.883
 1858SOL    HW2 5595   3.343   0.534   3.811
 1859SOL     OW 5596   2.389   0.256   4.052
 1859SOL    HW1 5597   2.416   0.197   3.977
 1859SOL    HW2 5598   2.389   0.351   4.021
 1860SOL     OW 5599   3.500   1.099   4.803
 1860SOL    HW1 5600   3.505   1.180   4.862
 1860SOL    HW2 5601   3.414   1.101   4.752
 1861SOL     OW 5602   2.567   1.050   4.092
 1861SOL    HW1 5603   2.553   1.057   4.191
 1861SOL    HW2 5604   2.651   0.999   4.074
 1862SOL     OW 5605   2.229   1.100   4.225
 1862SOL    HW1 5606   2.222   1.183   4.169
 1862SOL    HW2 5607   2.233   1.020   4.165
 1863SOL     OW 5608   2.428   0.537   4.589
 1863SOL    HW1 5609   2.440   0.603   4.515
 1863SOL    HW2 5610   2.474   0.571   4.672
 1864SOL     OW 5611   3.114   1.348   4.112
 1864SOL    HW1 5612   3.164   1.425   4.152
 1864SOL    HW2 5613   3.019   1.350   4.144
 1865SOL     OW 5614   3.444   0.639   4.196
 1865SOL    HW1 5615   3.413   0.700   4.269
 1865SOL    HW2 5616   3.494   0.691   4.127
 1866SOL     OW 5617   3.071   0.525   3.999
 1866SOL    HW1 5618   3.084   0.441   4.053
 1866SOL    HW2 5619   3.042   0.599   4.059
 1867SOL     OW 5620   2.594   0.634   4.788
 1867SOL    HW1 5621   2.653   0.608   4.712
 1867SOL    HW2 5622   2.566   0.730   4.777
 1868SOL     OW 5623   2.169   0.063   4.342
 1868SOL    HW1 5624   2.158   0.157   4.375
 1868SOL    HW2 5625   2.164   0.000   4.419
 1869SOL     OW 5626   3.484   0.367   4.098
 1869SOL    HW1 5627   3.486   0.291   4.162
 1869SOL    HW2 5628   3.436   0.444   4.138
 1870SOL     OW 5629   3.402   0.274   3.849
 1870SOL    HW1 5630   3.341   0.199   3.872
 1870SOL    HW2 5631   3.424   0.326   3.932
 1871SOL     OW 5632   3.165   0.838   3.766
 1871SOL    HW1 5633   3.199   0.745   3.781
 1871SOL    HW2 5634   3.183   0.865   3.671
 1872SOL     OW 5635   2.930   1.333   4.573
 1872SOL    HW1 5636   2.937   1.249   4.518
 1872SOL    HW2 5637   2.992   1.402   4.537
 1873SOL     OW 5638   2.181   0.810   4.673
 1873SOL    HW1 5639   2.274   0.846   4.678
 1873SOL    HW2 5640   2.175   0.725   4.725
 1874SOL     OW 5641   1.870   1.326   3.924
 1874SOL    HW1 5642   1.777   1.347   3.893
 1874SOL    HW2 5643   1.880   1.227   3.937
 1875SOL     OW 5644   1.950   1.801   4.651
 1875SOL    HW1 5645   1.908   1.715   4.624
 1875SOL    HW2 5646   2.044   1.804   4.617
 1876SOL     OW 5647   2.366   1.568   4.634
 1876SOL    HW1 5648   2.432   1.642   4.643
 1876SOL    HW2 5649   2.410   1.489   4.592
 1877SOL     OW 5650   2.677   0.572   4.049
 1877SOL    HW1 5651   2.684   0.483   4.003
 1877SOL    HW2 5652   2.583   0.606   4.041
 1878SOL     OW 5653   2.533   0.464   4.993
 1878SOL    HW1 5654   2.499   0.375   4.963
 1878SOL    HW2 5655   2.559   0.518   4.913
 1879SOL     OW 5656   2.335   0.500   3.915
 1879SOL    HW1 5657   2.396   0.580   3.919
 1879SOL    HW2 5658   2.240   0.531   3.922
 1880SOL     OW 5659   3.209   1.059   4.958
 1880SOL    HW1 5660   3.233   0.996   4.884
 1880SOL    HW2 5661   3.119   1.099   4.940
 1881SOL     OW 5662   3.164   0.855   4.033
 1881SOL    HW1 5663   3.078   0.824   4.075
 1881SOL    HW2 5664   3.160   0.841   3.934
 1882SOL     OW 5665   3.621   1.747   4.878
 1882SOL    HW1 5666   3.682   1.777   4.805
 1882SOL    HW2 5667   3.583   1.658   4.856
 1883SOL     OW 5668   3.588   0.135   4.247
 1883SOL    HW1 5669   3.661   0.118   4.180
 1883SOL    HW2 5670   3.557   0.048   4.285
 1884SOL     OW 5671   3.250   1.573   4.201
 1884SOL    HW1 5672   3.317   1.585   4.127
 1884SOL    HW2 5673   3.210   1.662   4.224
 1885SOL     OW 5674   3.142   0.927   4.396
 1885SOL    HW1 5675   3.202   0.846   4.398
 1885SOL    HW2 5676   3.182   0.996   4.336
 1886SOL     OW 5677   2.534   1.616   3.878
 1886SOL    HW1 5678   2.543   1.626   3.779
 1886SOL    HW2 5679   2.494   1.527   3.899
 1887SOL     OW 5680   3.703   0.175   4.687
 1887SOL    HW1 5681   3.742   0.090   4.651
 1887SOL    HW2 5682   3.605   0.177   4.668
 1888SOL     OW 5683   2.125   0.326   4.444
 1888SOL    HW1 5684   2.046   0.377   4.410
 1888SOL    HW2 5685   2.116   0.311   4.542
 1889SOL     OW 5686   3.056   1.612   3.755
 1889SOL    HW1 5687   3.062   1.519   3.792
 1889SOL    HW2 5688   2.997   1.612   3.675
 1890SOL     OW 5689   2.778   0.910   4.015
 1890SOL    HW1 5690   2.841   0.948   3.947
 1890SOL    HW2 5691   2.818   0.827   4.054
 1891SOL     OW 5692   3.366   1.607   3.768
 1891SOL    HW1 5693   3.274   1.644   3.775
 1891SOL    HW2 5694   3.404   1.627   3.678
 1892SOL     OW 5695   3.476   1.292   5.013
 1892SOL    HW1 5696   3.536   1.295   5.093
 1892SOL    HW2 5697   3.401   1.356   5.026
 1893SOL     OW 5698   2.901   1.098   4.420
 1893SOL    HW1 5699   2.831   1.051   4.474
 1893SOL    HW2 5700   2.960   1.030   4.377
 1894SOL     OW 5701   2.452   1.487   4.215
 1894SOL    HW1 5702   2.494   1.429   4.145
 1894SOL    HW2 5703   2.408   1.566   4.171
 1895SOL     OW 5704   2.117   1.348   4.014
 1895SOL    HW1 5705   2.021   1.349   3.987
 1895SOL    HW2 5706   2.129   1.401   4.098
 1896SOL     OW 5707   1.937   0.345   3.757
 1896SOL    HW1 5708   1.845   0.317   3.728
 1896SOL    HW2 5709   1.968   0.422   3.701
 1897SOL     OW 5710   1.934   0.166   4.042
 1897SOL    HW1 5711   1.917   0.249   3.988
 1897SOL    HW2 5712   2.024   0.129   4.020
 1898SOL     OW 5713   3.045   1.335   3.843
 1898SOL    HW1 5714   2.946   1.324   3.845
 1898SOL    HW2 5715   3.079   1.350   3.936
 1899SOL     OW 5716   3.536   0.883   4.978
 1899SOL    HW1 5717   3.509   0.794   4.941
 1899SOL    HW2 5718   3.537   0.951   4.905
 1900SOL     OW 5719   3.087   0.325   4.173
 1900SOL    HW1 5720   3.152   0.251   4.162
 1900SOL    HW2 5721   3.107   0.375   4.257
 1901SOL     OW 5722   2.456   0.745   4.376
 1901SOL    HW1 5723   2.506   0.830   4.357
 1901SOL    HW2 5724   2.368   0.747   4.328
 1902SOL     OW 5725   2.721   1.374   3.740
 1902SOL    HW1 5726   2.675   1.389   3.828
 1902SOL    HW2 5727   2.765   1.459   3.710
 1903SOL     OW 5728   2.523   1.790   4.677
 1903SOL    HW1 5729   2.477   1.878   4.664
 1903SOL    HW2 5730   2.622   1.802   4.670
 1904SOL     OW 5731   2.721   0.956   4.585
 1904SOL    HW1 5732   2.775   0.887   4.633
 1904SOL    HW2 5733   2.689   1.025   4.651
 1905SOL     OW 5734   2.945   0.984   3.811
 1905SOL    HW1 5735   2.922   1.037   3.729
 1905SOL    HW2 5736   3.026   0.928   3.792
 1906SOL     OW 5737   3.723   1.569   4.575
 1906SOL    HW1 5738   3.652   1.557   4.505
 1906SOL    HW2 5739   3.724   1.490   4.635
 1907SOL     OW 5740   1.941   1.240   4.377
 1907SOL    HW1 5741   1.940   1.193   4.465
 1907SOL    HW2 5742   2.023   1.212   4.326
 1908SOL     OW 5743   3.686   0.192   4.951
 1908SOL    HW1 5744   3.682   0.102   4.995
 1908SOL    HW2 5745   3.689   0.181   4.852
 1909SOL     OW 5746   2.290   0.424   4.244
 1909SOL    HW1 5747   2.320   0.352   4.182
 1909SOL    HW2 5748   2.251   0.384   4.327
 1910SOL     OW 5749   2.674   1.586   4.411
 1910SOL    HW1 5750   2.706   1.596   4.317
 1910SOL    HW2 5751   2.595   1.524   4.413
 1911SOL     OW 5752   2.632   1.330   4.025
 1911SOL    HW1 5753   2.586   1.243   4.042
 1911SOL    HW2 5754   2.723   1.327   4.066
 1912SOL     OW 5755   3.214   0.052   3.892
 1912SOL    HW1 5756   3.249   0.011   3.808
 1912SOL    HW2 5757   3.124   0.014   3.912
 1913SOL     OW 5758   3.162   0.453   4.415
 1913SOL    HW1 5759   3.103   0.533   4.419
 1913SOL    HW2 5760   3.177   0.418   4.508
 1914SOL     OW 5761   3.455   0.221   4.606
 1914SOL    HW1 5762   3.371   0.220   4.660
 1914SOL    HW2 5763   3.457   0.304   4.550
 1915SOL     OW 5764   1.901   1.077   4.024
 1915SOL    HW1 5765   2.000   1.066   4.015
 1915SOL    HW2 5766   1.861   0.991   4.056
 1916SOL     OW 5767   2.737   1.646   4.061
 1916SOL    HW1 5768   2.660   1.611   4.007
 1916SOL    HW2 5769   2.705   1.717   4.123
 1917SOL     OW 5770   2.092   2.490   0.113
 1917SOL    HW1 5771   1.999   2.488   0.150
 1917SOL    HW2 5772   2.093   2.451   0.021
 1918SOL     OW 5773   2.087   2.137   0.996
 1918SOL    HW1 5774   2.122   2.120   1.088
 1918SOL    HW2 5775   1.999   2.092   0.984
 1919SOL     OW 5776   1.881   2.230   0.647
 1919SOL    HW1 5777   1.799   2.273   0.686
 1919SOL    HW2 5778   1.853   2.157   0.584
 1920SOL     OW 5779   2.431   3.137   1.165
 1920SOL    HW1 5780   2.338   3.130   1.128
 1920SOL    HW2 5781   2.442   3.226   1.209
 1921SOL     OW 5782   3.417   3.373   0.703
 1921SOL    HW1 5783   3.360   3.357   0.784
 1921SOL    HW2 5784   3.358   3.383   0.623
 1922SOL     OW 5785   2.997   2.565   0.717
 1922SOL    HW1 5786   3.054   2.643   0.692
 1922SOL    HW2 5787   2.937   2.591   0.793
 1923SOL     OW 5788   3.617   2.469   0.231
 1923SOL    HW1 5789   3.605   2.456   0.132
 1923SOL    HW2 5790   3.587   2.388   0.280
 1924SOL     OW 5791   2.630   3.006   1.023
 1924SOL    HW1 5792   2.552   3.023   1.083
 1924SOL    HW2 5793   2.664   3.093   0.987
 1925SOL     OW 5794   2.712   2.660   1.823
 1925SOL    HW1 5795   2.708   2.736   1.888
 1925SOL    HW2 5796   2.734   2.696   1.732
 1926SOL     OW 5797   2.547   2.874   0.665
 1926SOL    HW1 5798   2.616   2.858   0.735
 1926SOL    HW2 5799   2.474   2.931   0.703
 1927SOL     OW 5800   2.548   3.023   1.803
 1927SOL    HW1 5801   2.608   3.102   1.817
 1927SOL    HW2 5802   2.462   3.054   1.762
 1928SOL     OW 5803   2.197   3.297   1.061
 1928SOL    HW1 5804   2.119   3.266   1.008
 1928SOL    HW2 5805   2.255   3.355   1.004
 1929SOL     OW 5806   3.322   3.367   1.339
 1929SOL    HW1 5807   3.346   3.461   1.365
 1929SOL    HW2 5808   3.306   3.313   1.421
 1930SOL     OW 5809   2.300   2.254   1.499
 1930SOL    HW1 5810   2.382   2.198   1.508
 1930SOL    HW2 5811   2.219   2.196   1.503
 1931SOL     OW 5812   3.465   2.309   0.737
 1931SOL    HW1 5813   3.391   2.355   0.687
 1931SOL    HW2 5814   3.516   2.377   0.790
 1932SOL     OW 5815   2.093   3.575   0.483
 1932SOL    HW1 5816   2.127   3.652   0.537
 1932SOL    HW2 5817   2.137   3.575   0.393
 1933SOL     OW 5818   2.989   3.203   1.690
 1933SOL    HW1 5819   3.036   3.203   1.778
 1933SOL    HW2 5820   2.941   3.116   1.679
 1934SOL     OW 5821   2.092   3.296   0.538
 1934SOL    HW1 5822   2.066   3.392   0.538
 1934SOL    HW2 5823   2.021   3.242   0.583
 1935SOL     OW 5824   2.102   2.953   0.886
 1935SOL    HW1 5825   2.116   2.869   0.938
 1935SOL    HW2 5826   2.047   3.017   0.941
 1936SOL     OW 5827   2.482   3.648   1.439
 1936SOL    HW1 5828   2.390   3.631   1.474
 1936SOL    HW2 5829   2.510   3.740   1.465
 1937SOL     OW 5830   2.468   2.826   0.123
 1937SOL    HW1 5831   2.475   2.910   0.069
 1937SOL    HW2 5832   2.514   2.839   0.211
 1938SOL     OW 5833   3.456   1.976   1.480
 1938SOL    HW1 5834   3.438   2.043   1.408
 1938SOL    HW2 5835   3.453   2.022   1.569
 1939SOL     OW 5836   1.984   2.505   0.563
 1939SOL    HW1 5837   1.939   2.417   0.580
 1939SOL    HW2 5838   1.983   2.559   0.647
 1940SOL     OW 5839   3.704   3.629   0.359
 1940SOL    HW1 5840   3.758   3.600   0.439
 1940SOL    HW2 5841   3.734   3.719   0.330
 1941SOL     OW 5842   1.889   3.458   0.117
 1941SOL    HW1 5843   1.870   3.362   0.138
 1941SOL    HW2 5844   1.856   3.516   0.192
 1942SOL     OW 5845   3.551   2.784   0.612
 1942SOL    HW1 5846   3.646   2.755   0.620
 1942SOL    HW2 5847   3.543   2.849   0.537
 1943SOL     OW 5848   3.503   2.970   0.432
 1943SOL    HW1 5849   3.589   2.972   0.380
 1943SOL    HW2 5850   3.517   3.017   0.520
 1944SOL     OW 5851   1.975   2.599   1.597
 1944SOL    HW1 5852   2.063   2.586   1.642
 1944SOL    HW2 5853   1.962   2.696   1.575
 1945SOL     OW 5854   2.475   3.227   0.726
 1945SOL    HW1 5855   2.426   3.140   0.735
 1945SOL    HW2 5856   2.452   3.270   0.639
 1946SOL     OW 5857   3.155   3.090   1.423
 1946SOL    HW1 5858   3.192   3.017   1.365
 1946SOL    HW2 5859   3.207   3.095   1.508
 1947SOL     OW 5860   2.671   1.866   0.502
 1947SOL    HW1 5861   2.711   1.957   0.493
 1947SOL    HW2 5862   2.571   1.874   0.508
 1948SOL     OW 5863   2.059   2.838   1.264
 1948SOL    HW1 5864   2.148   2.793   1.250
 1948SOL    HW2 5865   1.986   2.773   1.245
 1949SOL     OW 5866   3.387   2.861   0.190
 1949SOL    HW1 5867   3.324   2.785   0.203
 1949SOL    HW2 5868   3.435   2.879   0.276
 1950SOL     OW 5869   3.049   3.654   1.616
 1950SOL    HW1 5870   3.073   3.714   1.540
 1950SOL    HW2 5871   3.056   3.559   1.586
 1951SOL     OW 5872   2.179   2.113   1.801
 1951SOL    HW1 5873   2.250   2.184   1.807
 1951SOL    HW2 5874   2.091   2.152   1.829
 1952SOL     OW 5875   3.328   3.279   0.953
 1952SOL    HW1 5876   3.269   3.285   1.033
 1952SOL    HW2 5877   3.313   3.191   0.907
 1953SOL     OW 5878   3.529   3.576   0.572
 1953SOL    HW1 5879   3.488   3.553   0.484
 1953SOL    HW2 5880   3.511   3.502   0.637
 1954SOL     OW 5881   2.460   2.591   0.270
 1954SOL    HW1 5882   2.484   2.660   0.202
 1954SOL    HW2 5883   2.382   2.624   0.324
 1955SOL     OW 5884   3.143   2.207   0.944
 1955SOL    HW1 5885   3.057   2.157   0.931
 1955SOL    HW2 5886   3.205   2.153   1.000
 1956SOL     OW 5887   3.438   3.524   0.307
 1956SOL    HW1 5888   3.527   3.570   0.310
 1956SOL    HW2 5889   3.417   3.500   0.212
 1957SOL     OW 5890   2.669   2.467   1.465
 1957SOL    HW1 5891   2.622   2.464   1.554
 1957SOL    HW2 5892   2.618   2.412   1.399
 1958SOL     OW 5893   3.256   2.331   1.674
 1958SOL    HW1 5894   3.236   2.374   1.762
 1958SOL    HW2 5895   3.334   2.269   1.683
 1959SOL     OW 5896   2.835   2.752   1.572
 1959SOL    HW1 5897   2.881   2.668   1.543
 1959SOL    HW2 5898   2.779   2.786   1.497
 1960SOL     OW 5899   2.853   2.272   1.242
 1960SOL    HW1 5900   2.776   2.306   1.296
 1960SOL    HW2 5901   2.819   2.221   1.163
 1961SOL     OW 5902   2.903   2.563   0.429
 1961SOL    HW1 5903   2.929   2.559   0.525
 1961SOL    HW2 5904   2.818   2.512   0.415
 1962SOL     OW 5905   1.938   2.673   0.789
 1962SOL    HW1 5906   2.037   2.661   0.798
 1962SOL    HW2 5907   1.914   2.768   0.810
 1963SOL     OW 5908   1.992   3.683   1.571
 1963SOL    HW1 5909   1.982   3.668   1.670
 1963SOL    HW2 5910   1.906   3.719   1.535
 1964SOL     OW 5911   2.727   2.210   0.195
 1964SOL    HW1 5912   2.786   2.273   0.146
 1964SOL    HW2 5913   2.746   2.116   0.166
 1965SOL     OW 5914   3.581   2.447   1.831
 1965SOL    HW1 5915   3.555   2.536   1.795
 1965SOL    HW2 5916   3.579   2.379   1.758
 1966SOL     OW 5917   3.224   3.006   0.545
 1966SOL    HW1 5918   3.307   2.977   0.497
 1966SOL    HW2 5919   3.175   3.073   0.489
 1967SOL     OW 5920   2.412   2.058   0.885
 1967SOL    HW1 5921   2.407   2.053   0.985
 1967SOL    HW2 5922   2.414   2.154   0.856
 1968SOL     OW 5923   2.870   3.318   0.477
 1968SOL    HW1 5924   2.824   3.390   0.425
 1968SOL    HW2 5925   2.866   3.338   0.575
 1969SOL     OW 5926   2.213   3.663   0.853
 1969SOL    HW1 5927   2.263   3.577   0.859
 1969SOL    HW2 5928   2.278   3.740   0.850
 1970SOL     OW 5929   3.657   2.928   0.873
 1970SOL    HW1 5930   3.595   2.913   0.797
 1970SOL    HW2 5931   3.605   2.939   0.958
 1971SOL     OW 5932   3.089   3.412   1.506
 1971SOL    HW1 5933   3.095   3.335   1.570
 1971SOL    HW2 5934   3.037   3.386   1.426
 1972SOL     OW 5935   2.183   2.805   0.242
 1972SOL    HW1 5936   2.265   2.844   0.200
 1972SOL    HW2 5937   2.156   2.723   0.193
 1973SOL     OW 5938   3.320   2.597   0.728
 1973SOL    HW1 5939   3.315   2.532   0.803
 1973SOL    HW2 5940   3.400   2.656   0.741
 1974SOL     OW 5941   2.323   3.128   1.727
 1974SOL    HW1 5942   2.273   3.129   1.641
 1974SOL    HW2 5943   2.260   3.110   1.803
 1975SOL     OW 5944   2.973   3.638   0.237
 1975SOL    HW1 5945   2.913   3.576   0.287
 1975SOL    HW2 5946   3.004   3.594   0.152
 1976SOL     OW 5947   2.064   2.147   1.498
 1976SOL    HW1 5948   1.984   2.207   1.485
 1976SOL    HW2 5949   2.054   2.098   1.584
 1977SOL     OW 5950   3.494   3.239   0.081
 1977SOL    HW1 5951   3.462   3.333   0.071
 1977SOL    HW2 5952   3.418   3.176   0.069
 1978SOL     OW 5953   2.326   3.605   0.323
 1978SOL    HW1 5954   2.359   3.644   0.409
 1978SOL    HW2 5955   2.402   3.598   0.258
 1979SOL     OW 5956   3.262   1.969   0.426
 1979SOL    HW1 5957   3.238   1.932   0.336
 1979SOL    HW2 5958   3.361   1.985   0.430
 1980SOL     OW 5959   2.111   3.647   1.241
 1980SOL    HW1 5960   2.168   3.582   1.291
 1980SOL    HW2 5961   2.095   3.614   1.148
 1981SOL     OW 5962   2.802   3.560   0.904
 1981SOL    HW1 5963   2.882   3.503   0.925
 1981SOL    HW2 5964   2.753   3.520   0.827
 1982SOL     OW 5965   2.244   2.562   0.480
 1982SOL    HW1 5966   2.289   2.472   0.477
 1982SOL    HW2 5967   2.150   2.551   0.513
 1983SOL     OW 5968   3.409   2.084   1.729
 1983SOL    HW1 5969   3.404   2.121   1.821
 1983SOL    HW2 5970   3.337   2.015   1.717
 1984SOL     OW 5971   2.476   1.984   0.117
 1984SOL    HW1 5972   2.574   1.962   0.124
 1984SOL    HW2 5973   2.445   1.967   0.024
 1985SOL     OW 5974   2.643   2.126   1.749
 1985SOL    HW1 5975   2.710   2.065   1.792
 1985SOL    HW2 5976   2.570   2.145   1.814
 1986SOL     OW 5977   2.750   3.376   1.195
 1986SOL    HW1 5978   2.727   3.351   1.101
 1986SOL    HW2 5979   2.811   3.307   1.234
 1987SOL     OW 5980   3.213   2.452   1.433
 1987SOL    HW1 5981   3.241   2.409   1.518
 1987SOL    HW2 5982   3.238   2.548   1.434
 1988SOL     OW 5983   2.665   3.264   0.924
 1988SOL    HW1 5984   2.755   3.278   0.882
 1988SOL    HW2 5985   2.594   3.266   0.853
 1989SOL     OW 5986   2.784   2.365   0.899
 1989SOL    HW1 5987   2.759   2.356   0.803
 1989SOL    HW2 5988   2.832   2.283   0.930
 1990SOL     OW 5989   2.401   1.926   0.512
 1990SOL    HW1 5990   2.320   1.927   0.570
 1990SOL    HW2 5991   2.404   2.009   0.457
 1991SOL     OW 5992   3.296   3.050   0.041
 1991SOL    HW1 5993   3.328   2.974   0.098
 1991SOL    HW2 5994   3.204   3.077   0.071
 1992SOL     OW 5995   2.797   2.098   0.480
 1992SOL    HW1 5996   2.749   2.139   0.402
 1992SOL    HW2 5997   2.896   2.096   0.461
 1993SOL     OW 5998   2.938   2.545   1.464
 1993SOL    HW1 5999   2.858   2.484   1.467
 1993SOL    HW2 6000   3.019   2.492   1.440
 1994SOL     OW 6001   3.089   3.432   0.793
 1994SOL    HW1 6002   3.110   3.506   0.728
 1994SOL    HW2 6003   3.157   3.432   0.866
 1995SOL     OW 6004   2.321   3.014   0.741
 1995SOL    HW1 6005   2.250   2.987   0.806
 1995SOL    HW2 6006   2.295   2.986   0.648
 1996SOL     OW 6007   3.133   3.659   0.591
 1996SOL    HW1 6008   3.177   3.723   0.527
 1996SOL    HW2 6009   3.083   3.711   0.661
 1997SOL     OW 6010   2.894   2.411   0.016
 1997SOL    HW1 6011   2.853   2.493  -0.023
 1997SOL    HW2 6012   2.958   2.437   0.089
 1998SOL     OW 6013   1.940   2.418   1.386
 1998SOL    HW1 6014   2.032   2.417   1.345
 1998SOL    HW2 6015   1.934   2.492   1.453
 1999SOL     OW 6016   2.423   2.084   1.147
 1999SOL    HW1 6017   2.461   2.000   1.184
 1999SOL    HW2 6018   2.335   2.103   1.191
 2000SOL     OW 6019   2.728   2.316   0.642
 2000SOL    HW1 6020   2.696   2.388   0.580
 2000SOL    HW2 6021   2.752   2.235   0.589
 2001SOL     OW 6022   2.879   1.901   0.753
 2001SOL    HW1 6023   2.807   1.906   0.684
 2001SOL    HW2 6024   2.855   1.832   0.822
 2002SOL     OW 6025   3.291   3.035   0.867
 2002SOL    HW1 6026   3.236   2.951   0.860
 2002SOL    HW2 6027   3.317   3.064   0.775
 2003SOL     OW 6028   3.328   2.452   0.992
 2003SOL    HW1 6029   3.298   2.357   0.999
 2003SOL    HW2 6030   3.401   2.468   1.058
 2004SOL     OW 6031   3.719   2.695   0.377
 2004SOL    HW1 6032   3.761   2.631   0.441
 2004SOL    HW2 6033   3.681   2.644   0.299
 2005SOL     OW 6034   2.350   3.247   0.174
 2005SOL    HW1 6035   2.263   3.232   0.221
 2005SOL    HW2 6036   2.333   3.273   0.079
 2006SOL     OW 6037   3.526   3.142   0.657
 2006SOL    HW1 6038   3.625   3.150   0.671
 2006SOL    HW2 6039   3.481   3.226   0.688
 2007SOL     OW 6040   3.252   2.437   0.078
 2007SOL    HW1 6041   3.198   2.416   0.159
 2007SOL    HW2 6042   3.343   2.396   0.087
 2008SOL     OW 6043   2.389   2.118   0.328
 2008SOL    HW1 6044   2.416   2.059   0.253
 2008SOL    HW2 6045   2.389   2.213   0.297
 2009SOL     OW 6046   3.616   3.085   1.588
 2009SOL    HW1 6047   3.707   3.046   1.575
 2009SOL    HW2 6048   3.624   3.181   1.612
 2010SOL     OW 6049   2.926   3.209   1.340
 2010SOL    HW1 6050   2.846   3.186   1.395
 2010SOL    HW2 6051   3.009   3.183   1.389
 2011SOL     OW 6052   3.454   3.491   1.625
 2011SOL    HW1 6053   3.481   3.525   1.535
 2011SOL    HW2 6054   3.533   3.453   1.671
 2012SOL     OW 6055   2.973   3.057   1.100
 2012SOL    HW1 6056   2.933   3.101   1.181
 2012SOL    HW2 6057   2.932   3.094   1.017
 2013SOL     OW 6058   3.500   2.961   1.079
 2013SOL    HW1 6059   3.505   3.042   1.138
 2013SOL    HW2 6060   3.414   2.963   1.028
 2014SOL     OW 6061   2.777   1.951   1.402
 2014SOL    HW1 6062   2.802   1.931   1.307
 2014SOL    HW2 6063   2.849   2.007   1.444
 2015SOL     OW 6064   2.842   2.978   1.719
 2015SOL    HW1 6065   2.743   2.984   1.729
 2015SOL    HW2 6066   2.865   2.898   1.663
 2016SOL     OW 6067   2.567   2.912   0.368
 2016SOL    HW1 6068   2.553   2.919   0.467
 2016SOL    HW2 6069   2.651   2.861   0.350
 2017SOL     OW 6070   2.272   2.675   1.251
 2017SOL    HW1 6071   2.358   2.687   1.301
 2017SOL    HW2 6072   2.230   2.588   1.278
 2018SOL     OW 6073   3.136   2.248   1.262
 2018SOL    HW1 6074   3.157   2.322   1.326
 2018SOL    HW2 6075   3.047   2.265   1.219
 2019SOL     OW 6076   1.926   3.426   1.331
 2019SOL    HW1 6077   1.880   3.508   1.297
 2019SOL    HW2 6078   2.024   3.445   1.340
 2020SOL     OW 6079   2.229   2.962   0.501
 2020SOL    HW1 6080   2.222   3.045   0.445
 2020SOL    HW2 6081   2.233   2.882   0.441
 2021SOL     OW 6082   2.428   2.399   0.865
 2021SOL    HW1 6083   2.440   2.465   0.791
 2021SOL    HW2 6084   2.474   2.433   0.948
 2022SOL     OW 6085   3.114   3.210   0.388
 2022SOL    HW1 6086   3.164   3.287   0.428
 2022SOL    HW2 6087   3.019   3.212   0.420
 2023SOL     OW 6088   3.134   3.307   1.142
 2023SOL    HW1 6089   3.181   3.320   1.229
 2023SOL    HW2 6090   3.068   3.233   1.151
 2024SOL     OW 6091   3.444   2.501   0.472
 2024SOL    HW1 6092   3.413   2.562   0.545
 2024SOL    HW2 6093   3.494   2.553   0.403
 2025SOL     OW 6094   2.216   3.372   1.329
 2025SOL    HW1 6095   2.195   3.328   1.242
 2025SOL    HW2 6096   2.313   3.398   1.332
 2026SOL     OW 6097   2.264   2.613   1.598
 2026SOL    HW1 6098   2.332   2.668   1.551
 2026SOL    HW2 6099   2.304   2.525   1.625
 2027SOL     OW 6100   3.449   2.641   1.670
 2027SOL    HW1 6101   3.357   2.679   1.665
 2027SOL    HW2 6102   3.509   2.688   1.605
 2028SOL     OW 6103   2.875   1.967   1.770
 2028SOL    HW1 6104   2.881   2.052   1.718
 2028SOL    HW2 6105   2.907   1.891   1.713
 2029SOL     OW 6106   2.366   1.912   1.740
 2029SOL    HW1 6107   2.324   1.855   1.670
 2029SOL    HW2 6108   2.300   1.981   1.772
 2030SOL     OW 6109   2.435   2.732   1.029
 2030SOL    HW1 6110   2.479   2.821   1.020
 2030SOL    HW2 6111   2.372   2.732   1.106
 2031SOL     OW 6112   3.222   2.724   1.045
 2031SOL    HW1 6113   3.147   2.724   0.979
 2031SOL    HW2 6114   3.259   2.632   1.054
 2032SOL     OW 6115   3.071   2.387   0.275
 2032SOL    HW1 6116   3.084   2.303   0.329
 2032SOL    HW2 6117   3.042   2.461   0.335
 2033SOL     OW 6118   2.169   2.075   1.231
 2033SOL    HW1 6119   2.146   2.112   1.321
 2033SOL    HW2 6120   2.139   1.980   1.225
 2034SOL     OW 6121   1.899   3.172   1.282
 2034SOL    HW1 6122   1.952   3.123   1.350
 2034SOL    HW2 6123   1.921   3.270   1.287
 2035SOL     OW 6124   2.594   2.496   1.064
 2035SOL    HW1 6125   2.653   2.470   0.988
 2035SOL    HW2 6126   2.566   2.592   1.053
 2036SOL     OW 6127   3.590   2.797   1.854
 2036SOL    HW1 6128   3.544   2.790   1.765
 2036SOL    HW2 6129   3.528   2.841   1.920
 2037SOL     OW 6130   2.169   1.925   0.618
 2037SOL    HW1 6131   2.158   2.019   0.651
 2037SOL    HW2 6132   2.164   1.862   0.695
 2038SOL     OW 6133   3.484   2.229   0.374
 2038SOL    HW1 6134   3.486   2.153   0.438
 2038SOL    HW2 6135   3.436   2.306   0.414
 2039SOL     OW 6136   2.885   2.628   0.966
 2039SOL    HW1 6137   2.900   2.649   1.062
 2039SOL    HW2 6138   2.855   2.533   0.957
 2040SOL     OW 6139   2.842   3.435   1.700
 2040SOL    HW1 6140   2.822   3.479   1.612
 2040SOL    HW2 6141   2.881   3.344   1.684
 2041SOL     OW 6142   3.721   3.380   1.605
 2041SOL    HW1 6143   3.735   3.407   1.510
 2041SOL    HW2 6144   3.804   3.402   1.658
 2042SOL     OW 6145   2.212   2.760   1.804
 2042SOL    HW1 6146   2.288   2.804   1.852
 2042SOL    HW2 6147   2.247   2.713   1.722
 2043SOL     OW 6148   3.402   2.136   0.125
 2043SOL    HW1 6149   3.341   2.061   0.148
 2043SOL    HW2 6150   3.424   2.188   0.208
 2044SOL     OW 6151   3.165   2.700   0.042
 2044SOL    HW1 6152   3.199   2.607   0.057
 2044SOL    HW2 6153   3.183   2.727  -0.053
 2045SOL     OW 6154   2.930   3.195   0.849
 2045SOL    HW1 6155   2.937   3.111   0.794
 2045SOL    HW2 6156   2.992   3.264   0.813
 2046SOL     OW 6157   2.181   2.672   0.949
 2046SOL    HW1 6158   2.274   2.708   0.954
 2046SOL    HW2 6159   2.175   2.587   1.001
 2047SOL     OW 6160   2.201   2.371   1.006
 2047SOL    HW1 6161   2.149   2.288   0.989
 2047SOL    HW2 6162   2.278   2.376   0.942
 2048SOL     OW 6163   3.000   2.242   1.678
 2048SOL    HW1 6164   2.955   2.305   1.742
 2048SOL    HW2 6165   3.093   2.273   1.661
 2049SOL     OW 6166   3.022   2.069   1.477
 2049SOL    HW1 6167   3.022   2.133   1.554
 2049SOL    HW2 6168   3.050   2.117   1.394
 2050SOL     OW 6169   1.870   3.188   0.200
 2050SOL    HW1 6170   1.777   3.209   0.169
 2050SOL    HW2 6171   1.880   3.089   0.213
 2051SOL     OW 6172   1.950   3.663   0.927
 2051SOL    HW1 6173   1.908   3.577   0.900
 2051SOL    HW2 6174   2.044   3.666   0.893
 2052SOL     OW 6175   2.366   3.430   0.910
 2052SOL    HW1 6176   2.432   3.504   0.919
 2052SOL    HW2 6177   2.410   3.351   0.868
 2053SOL     OW 6178   2.864   2.658   1.238
 2053SOL    HW1 6179   2.905   2.626   1.324
 2053SOL    HW2 6180   2.768   2.631   1.235
 2054SOL     OW 6181   1.902   2.406   1.114
 2054SOL    HW1 6182   1.987   2.373   1.073
 2054SOL    HW2 6183   1.915   2.421   1.212
 2055SOL     OW 6184   2.051   2.382   1.722
 2055SOL    HW1 6185   2.110   2.342   1.652
 2055SOL    HW2 6186   1.993   2.453   1.681
 2056SOL     OW 6187   3.231   2.812   1.660
 2056SOL    HW1 6188   3.270   2.901   1.680
 2056SOL    HW2 6189   3.241   2.792   1.563
 2057SOL     OW 6190   2.677   2.434   0.325
 2057SOL    HW1 6191   2.684   2.345   0.279
 2057SOL    HW2 6192   2.583   2.468   0.317
 2058SOL     OW 6193   3.519   2.466   1.206
 2058SOL    HW1 6194   3.481   2.397   1.268
 2058SOL    HW2 6195   3.601   2.430   1.162
 2059SOL     OW 6196   2.114   3.426   1.744
 2059SOL    HW1 6197   2.084   3.483   1.820
 2059SOL    HW2 6198   2.107   3.329   1.770
 2060SOL     OW 6199   2.533   2.326   1.269
 2060SOL    HW1 6200   2.499   2.237   1.239
 2060SOL    HW2 6201   2.559   2.380   1.189
 2061SOL     OW 6202   2.792   3.540   1.465
 2061SOL    HW1 6203   2.768   3.522   1.370
 2061SOL    HW2 6204   2.822   3.634   1.475
 2062SOL     OW 6205   2.335   2.362   0.191
 2062SOL    HW1 6206   2.396   2.442   0.195
 2062SOL    HW2 6207   2.240   2.393   0.198
 2063SOL     OW 6208   2.021   2.999   1.466
 2063SOL    HW1 6209   2.043   2.938   1.542
 2063SOL    HW2 6210   2.031   2.950   1.380
 2064SOL     OW 6211   3.209   2.921   1.234
 2064SOL    HW1 6212   3.233   2.858   1.160
 2064SOL    HW2 6213   3.119   2.961   1.216
 2065SOL     OW 6214   3.164   2.717   0.309
 2065SOL    HW1 6215   3.078   2.686   0.351
 2065SOL    HW2 6216   3.160   2.703   0.210
 2066SOL     OW 6217   3.621   3.609   1.154
 2066SOL    HW1 6218   3.682   3.639   1.081
 2066SOL    HW2 6219   3.583   3.520   1.132
 2067SOL     OW 6220   3.114   3.593   1.128
 2067SOL    HW1 6221   3.198   3.598   1.074
 2067SOL    HW2 6222   3.091   3.497   1.146
 2068SOL     OW 6223   1.945   3.120   1.022
 2068SOL    HW1 6224   1.940   3.119   1.122
 2068SOL    HW2 6225   1.862   3.079   0.984
 2069SOL     OW 6226   2.550   3.524   1.716
 2069SOL    HW1 6227   2.494   3.605   1.725
 2069SOL    HW2 6228   2.602   3.528   1.630
 2070SOL     OW 6229   2.765   1.948   0.133
 2070SOL    HW1 6230   2.816   1.949   0.047
 2070SOL    HW2 6231   2.821   1.906   0.204
 2071SOL     OW 6232   3.588   1.997   0.523
 2071SOL    HW1 6233   3.661   1.980   0.456
 2071SOL    HW2 6234   3.557   1.910   0.561
 2072SOL     OW 6235   3.250   3.435   0.477
 2072SOL    HW1 6236   3.317   3.447   0.403
 2072SOL    HW2 6237   3.210   3.524   0.500
 2073SOL     OW 6238   1.992   3.656   1.851
 2073SOL    HW1 6239   1.951   3.582   1.904
 2073SOL    HW2 6240   2.056   3.707   1.909
 2074SOL     OW 6241   3.142   2.789   0.672
 2074SOL    HW1 6242   3.202   2.708   0.674
 2074SOL    HW2 6243   3.182   2.858   0.612
 2075SOL     OW 6244   2.692   3.135   1.422
 2075SOL    HW1 6245   2.687   3.168   1.517
 2075SOL    HW2 6246   2.606   3.154   1.376
 2076SOL     OW 6247   2.534   3.478   0.154
 2076SOL    HW1 6248   2.543   3.488   0.055
 2076SOL    HW2 6249   2.494   3.389   0.175
 2077SOL     OW 6250   3.512   3.582   1.394
 2077SOL    HW1 6251   3.565   3.592   1.310
 2077SOL    HW2 6252   3.485   3.672   1.428
 2078SOL     OW 6253   3.703   2.037   0.963
 2078SOL    HW1 6254   3.742   1.952   0.927
 2078SOL    HW2 6255   3.605   2.039   0.944
 2079SOL     OW 6256   2.125   2.188   0.720
 2079SOL    HW1 6257   2.046   2.239   0.686
 2079SOL    HW2 6258   2.116   2.173   0.818
 2080SOL     OW 6259   3.056   3.474   0.031
 2080SOL    HW1 6260   3.062   3.381   0.068
 2080SOL    HW2 6261   2.997   3.474  -0.049
 2081SOL     OW 6262   2.684   2.864   1.372
 2081SOL    HW1 6263   2.724   2.863   1.280
 2081SOL    HW2 6264   2.694   2.956   1.412
 2082SOL     OW 6265   2.778   2.772   0.291
 2082SOL    HW1 6266   2.841   2.810   0.223
 2082SOL    HW2 6267   2.818   2.689   0.330
 2083SOL     OW 6268   3.366   3.469   0.044
 2083SOL    HW1 6269   3.274   3.506   0.051
 2083SOL    HW2 6270   3.404   3.489  -0.046
 2084SOL     OW 6271   2.234   3.150   1.490
 2084SOL    HW1 6272   2.221   3.243   1.456
 2084SOL    HW2 6273   2.150   3.098   1.477
 2085SOL     OW 6274   3.476   3.154   1.289
 2085SOL    HW1 6275   3.536   3.157   1.369
 2085SOL    HW2 6276   3.401   3.218   1.302
 2086SOL     OW 6277   2.901   2.960   0.696
 2086SOL    HW1 6278   2.831   2.913   0.750
 2086SOL    HW2 6279   2.960   2.892   0.653
 2087SOL     OW 6280   2.876   2.098   0.971
 2087SOL    HW1 6281   2.868   2.062   0.878
 2087SOL    HW2 6282   2.874   2.022   1.036
 2088SOL     OW 6283   2.452   3.349   0.491
 2088SOL    HW1 6284   2.494   3.291   0.421
 2088SOL    HW2 6285   2.408   3.428   0.447
 2089SOL     OW 6286   3.571   2.247   1.381
 2089SOL    HW1 6287   3.644   2.316   1.385
 2089SOL    HW2 6288   3.599   2.172   1.322
 2090SOL     OW 6289   2.117   3.210   0.290
 2090SOL    HW1 6290   2.021   3.211   0.263
 2090SOL    HW2 6291   2.129   3.263   0.374
 2091SOL     OW 6292   1.967   2.875   1.726
 2091SOL    HW1 6293   1.890   2.842   1.780
 2091SOL    HW2 6294   2.052   2.845   1.768
 2092SOL     OW 6295   2.534   2.065   1.489
 2092SOL    HW1 6296   2.624   2.049   1.449
 2092SOL    HW2 6297   2.542   2.070   1.588
 2093SOL     OW 6298   1.937   2.207   0.033
 2093SOL    HW1 6299   1.845   2.179   0.004
 2093SOL    HW2 6300   1.968   2.284  -0.023
 2094SOL     OW 6301   3.302   2.718   1.398
 2094SOL    HW1 6302   3.245   2.770   1.335
 2094SOL    HW2 6303   3.398   2.730   1.374
 2095SOL     OW 6304   3.045   3.197   0.119
 2095SOL    HW1 6305   2.946   3.186   0.121
 2095SOL    HW2 6306   3.079   3.212   0.212
 2096SOL     OW 6307   2.475   2.704   1.431
 2096SOL    HW1 6308   2.531   2.785   1.414
 2096SOL    HW2 6309   2.534   2.624   1.434
 2097SOL     OW 6310   3.355   3.629   0.959
 2097SOL    HW1 6311   3.388   3.693   0.890
 2097SOL    HW2 6312   3.421   3.623   1.034
 2098SOL     OW 6313   2.578   2.427   1.708
 2098SOL    HW1 6314   2.597   2.492   1.782
 2098SOL    HW2 6315   2.638   2.347   1.717
 2099SOL     OW 6316   3.312   3.082   1.633
 2099SOL    HW1 6317   3.303   3.072   1.732
 2099SOL    HW2 6318   3.408   3.075   1.607
 2100SOL     OW 6319   2.252   3.603   1.560
 2100SOL    HW1 6320   2.161   3.644   1.558
 2100SOL    HW2 6321   2.245   3.509   1.592
 2101SOL     OW 6322   3.536   2.745   1.254
 2101SOL    HW1 6323   3.509   2.656   1.217
 2101SOL    HW2 6324   3.537   2.813   1.181
 2102SOL     OW 6325   3.087   2.187   0.449
 2102SOL    HW1 6326   3.152   2.113   0.438
 2102SOL    HW2 6327   3.107   2.237   0.533
 2103SOL     OW 6328   2.456   2.607   0.652
 2103SOL    HW1 6329   2.506   2.692   0.633
 2103SOL    HW2 6330   2.368   2.609   0.604
 2104SOL     OW 6331   3.639   2.204   1.642
 2104SOL    HW1 6332   3.622   2.235   1.548
 2104SOL    HW2 6333   3.555   2.167   1.680
 2105SOL     OW 6334   3.592   2.796   1.517
 2105SOL    HW1 6335   3.630   2.887   1.532
 2105SOL    HW2 6336   3.584   2.779   1.418
 2106SOL     OW 6337   2.721   3.236   0.016
 2106SOL    HW1 6338   2.675   3.251   0.104
 2106SOL    HW2 6339   2.765   3.321  -0.014
 2107SOL     OW 6340   2.523   3.652   0.953
 2107SOL    HW1 6341   2.477   3.740   0.940
 2107SOL    HW2 6342   2.622   3.664   0.946
 2108SOL     OW 6343   2.721   2.818   0.861
 2108SOL    HW1 6344   2.775   2.749   0.909
 2108SOL    HW2 6345   2.689   2.887   0.927
 2109SOL     OW 6346   2.945   2.846   0.087
 2109SOL    HW1 6347   2.922   2.899   0.005
 2109SOL    HW2 6348   3.026   2.790   0.068
 2110SOL     OW 6349   3.723   3.431   0.851
 2110SOL    HW1 6350   3.652   3.419   0.781
 2110SOL    HW2 6351   3.724   3.352   0.911
 2111SOL     OW 6352   2.083   3.176   1.844
 2111SOL    HW1 6353   2.018   3.103   1.823
 2111SOL    HW2 6354   2.087   3.190   1.942
 2112SOL     OW 6355   1.941   3.102   0.653
 2112SOL    HW1 6356   1.940   3.055   0.741
 2112SOL    HW2 6357   2.023   3.074   0.602
 2113SOL     OW 6358   2.534   3.253   1.624
 2113SOL    HW1 6359   2.456   3.203   1.662
 2113SOL    HW2 6360   2.531   3.348   1.655
 2114SOL     OW 6361   3.686   2.054   1.227
 2114SOL    HW1 6362   3.682   1.964   1.271
 2114SOL    HW2 6363   3.689   2.043   1.128
 2115SOL     OW 6364   2.290   2.286   0.520
 2115SOL    HW1 6365   2.320   2.214   0.458
 2115SOL    HW2 6366   2.251   2.246   0.603
 2116SOL     OW 6367   3.567   3.349   1.104
 2116SOL    HW1 6368   3.474   3.324   1.077
 2116SOL    HW2 6369   3.593   3.299   1.186
 2117SOL     OW 6370   2.179   2.409   1.280
 2117SOL    HW1 6371   2.217   2.350   1.352
 2117SOL    HW2 6372   2.219   2.383   1.192
 2118SOL     OW 6373   2.674   3.448   0.687
 2118SOL    HW1 6374   2.706   3.458   0.593
 2118SOL    HW2 6375   2.595   3.386   0.689
 2119SOL     OW 6376   3.286   2.076   1.112
 2119SOL    HW1 6377   3.338   2.011   1.167
 2119SOL    HW2 6378   3.237   2.139   1.173
 2120SOL     OW 6379   2.863   1.896   1.154
 2120SOL    HW1 6380   2.800   1.824   1.123
 2120SOL    HW2 6381   2.956   1.860   1.154
 2121SOL     OW 6382   2.632   3.192   0.301
 2121SOL    HW1 6383   2.586   3.105   0.318
 2121SOL    HW2 6384   2.723   3.189   0.342
 2122SOL     OW 6385   2.480   3.429   1.284
 2122SOL    HW1 6386   2.475   3.511   1.341
 2122SOL    HW2 6387   2.569   3.426   1.239
 2123SOL     OW 6388   3.214   1.914   0.168
 2123SOL    HW1 6389   3.249   1.873   0.084
 2123SOL    HW2 6390   3.124   1.876   0.188
 2124SOL     OW 6391   3.162   2.315   0.691
 2124SOL    HW1 6392   3.103   2.395   0.695
 2124SOL    HW2 6393   3.177   2.280   0.784
 2125SOL     OW 6394   3.455   2.083   0.882
 2125SOL    HW1 6395   3.371   2.082   0.936
 2125SOL    HW2 6396   3.457   2.166   0.826
 2126SOL     OW 6397   1.901   2.939   0.300
 2126SOL    HW1 6398   2.000   2.928   0.291
 2126SOL    HW2 6399   1.861   2.853   0.332
 2127SOL     OW 6400   2.737   3.508   0.337
 2127SOL    HW1 6401   2.660   3.473   0.283
 2127SOL    HW2 6402   2.705   3.579   0.399
 2128SOL     OW 6403   2.092   2.490   1.975
 2128SOL    HW1 6404   1.999   2.488   2.012
 2128SOL    HW2 6405   2.093   2.451   1.883
 2129SOL     OW 6406   2.087   2.137   2.858
 2129SOL    HW1 6407   2.122   2.120   2.950
 2129SOL    HW2 6408   1.999   2.092   2.846
 2130SOL     OW 6409   1.881   2.230   2.509
 2130SOL    HW1 6410   1.799   2.273   2.548
 2130SOL    HW2 6411   1.853   2.157   2.446
 2131SOL     OW 6412   2.431   3.137   3.027
 2131SOL    HW1 6413   2.338   3.130   2.990
 2131SOL    HW2 6414   2.442   3.226   3.071
 2132SOL     OW 6415   3.417   3.373   2.565
 2132SOL    HW1 6416   3.360   3.357   2.646
 2132SOL    HW2 6417   3.358   3.383   2.485
 2133SOL     OW 6418   2.997   2.565   2.579
 2133SOL    HW1 6419   3.054   2.643   2.554
 2133SOL    HW2 6420   2.937   2.591   2.655
 2134SOL     OW 6421   3.617   2.469   2.093
 2134SOL    HW1 6422   3.605   2.456   1.994
 2134SOL    HW2 6423   3.587   2.388   2.142
 2135SOL     OW 6424   2.630   3.006   2.885
 2135SOL    HW1 6425   2.552   3.023   2.945
 2135SOL    HW2 6426   2.664   3.093   2.849
 2136SOL     OW 6427   2.712   2.660   3.685
 2136SOL    HW1 6428   2.708   2.736   3.750
 2136SOL    HW2 6429   2.734   2.696   3.594
 2137SOL     OW 6430   2.547   2.874   2.527
 2137SOL    HW1 6431   2.616   2.858   2.597
 2137SOL    HW2 6432   2.474   2.931   2.565
 2138SOL     OW 6433   2.548   3.023   3.665
 2138SOL    HW1 6434   2.608   3.102   3.679
 2138SOL    HW2 6435   2.462   3.054   3.624
 2139SOL     OW 6436   2.197   3.297   2.923
 2139SOL    HW1 6437   2.119   3.266   2.870
 2139SOL    HW2 6438   2.255   3.355   2.866
 2140SOL     OW 6439   3.322   3.367   3.201
 2140SOL    HW1 6440   3.346   3.461   3.227
 2140SOL    HW2 6441   3.306   3.313   3.283
 2141SOL     OW 6442   2.300   2.254   3.361
 2141SOL    HW1 6443   2.382   2.198   3.370
 2141SOL    HW2 6444   2.219   2.196   3.365
 2142SOL     OW 6445   3.465   2.309   2.599
 2142SOL    HW1 6446   3.391   2.355   2.549
 2142SOL    HW2 6447   3.516   2.377   2.652
 2143SOL     OW 6448   2.093   3.575   2.345
 2143SOL    HW1 6449   2.127   3.652   2.399
 2143SOL    HW2 6450   2.137   3.575   2.255
 2144SOL     OW 6451   2.989   3.203   3.552
 2144SOL    HW1 6452   3.036   3.203   3.640
 2144SOL    HW2 6453   2.941   3.116   3.541
 2145SOL     OW 6454   2.092   3.296   2.400
 2145SOL    HW1 6455   2.066   3.392   2.400
 2145SOL    HW2 6456   2.021   3.242   2.445
 2146SOL     OW 6457   2.102   2.953   2.748
 2146SOL    HW1 6458   2.116   2.869   2.800
 2146SOL    HW2 6459   2.047   3.017   2.803
 2147SOL     OW 6460   2.482   3.648   3.301
 2147SOL    HW1 6461   2.390   3.631   3.336
 2147SOL    HW2 6462   2.510   3.740   3.327
 2148SOL     OW 6463   2.468   2.826   1.985
 2148SOL    HW1 6464   2.475   2.910   1.931
 2148SOL    HW2 6465   2.514   2.839   2.073
 2149SOL     OW 6466   3.456   1.976   3.342
 2149SOL    HW1 6467   3.438   2.043   3.270
 2149SOL    HW2 6468   3.453   2.022   3.431
 2150SOL     OW 6469   3.704   3.629   2.221
 2150SOL    HW1 6470   3.758   3.600   2.301
 2150SOL    HW2 6471   3.734   3.719   2.192
 2151SOL     OW 6472   1.889   3.458   1.979
 2151SOL    HW1 6473   1.870   3.362   2.000
 2151SOL    HW2 6474   1.856   3.516   2.054
 2152SOL     OW 6475   3.551   2.784   2.474
 2152SOL    HW1 6476   3.646   2.755   2.482
 2152SOL    HW2 6477   3.543   2.849   2.399
 2153SOL     OW 6478   3.503   2.970   2.294
 2153SOL    HW1 6479   3.589   2.972   2.242
 2153SOL    HW2 6480   3.517   3.017   2.382
 2154SOL     OW 6481   1.975   2.599   3.459
 2154SOL    HW1 6482   2.063   2.586   3.504
 2154SOL    HW2 6483   1.962   2.696   3.437
 2155SOL     OW 6484   2.475   3.227   2.588
 2155SOL    HW1 6485   2.426   3.140   2.597
 2155SOL    HW2 6486   2.452   3.270   2.501
 2156SOL     OW 6487   3.155   3.090   3.285
 2156SOL    HW1 6488   3.192   3.017   3.227
 2156SOL    HW2 6489   3.207   3.095   3.370
 2157SOL     OW 6490   2.671   1.866   2.364
 2157SOL    HW1 6491   2.711   1.957   2.355
 2157SOL    HW2 6492   2.571   1.874   2.370
 2158SOL     OW 6493   2.059   2.838   3.126
 2158SOL    HW1 6494   2.148   2.793   3.112
 2158SOL    HW2 6495   1.986   2.773   3.107
 2159SOL     OW 6496   3.387   2.861   2.052
 2159SOL    HW1 6497   3.324   2.785   2.065
 2159SOL    HW2 6498   3.435   2.879   2.138
 2160SOL     OW 6499   3.049   3.654   3.478
 2160SOL    HW1 6500   3.073   3.714   3.402
 2160SOL    HW2 6501   3.056   3.559   3.448
 2161SOL     OW 6502   2.179   2.113   3.663
 2161SOL    HW1 6503   2.250   2.184   3.669
 2161SOL    HW2 6504   2.091   2.152   3.691
 2162SOL     OW 6505   3.328   3.279   2.815
 2162SOL    HW1 6506   3.269   3.285   2.895
 2162SOL    HW2 6507   3.313   3.191   2.769
 2163SOL     OW 6508   3.529   3.576   2.434
 2163SOL    HW1 6509   3.488   3.553   2.346
 2163SOL    HW2 6510   3.511   3.502   2.499
 2164SOL     OW 6511   2.460   2.591   2.132
 2164SOL    HW1 6512   2.484   2.660   2.064
 2164SOL    HW2 6513   2.382   2.624   2.186
 2165SOL     OW 6514   3.143   2.207   2.806
 2165SOL    HW1 6515   3.057   2.157   2.793
 2165SOL    HW2 6516   3.205   2.153   2.862
 2166SOL     OW 6517   3.438   3.524   2.169
 2166SOL    HW1 6518   3.527   3.570   2.172
 2166SOL    HW2 6519   3.417   3.500   2.074
 2167SOL     OW 6520   2.669   2.467   3.327
 2167SOL    HW1 6521   2.622   2.464   3.416
 2167SOL    HW2 6522   2.618   2.412   3.261
 2168SOL     OW 6523   3.256   2.331   3.536
 2168SOL    HW1 6524   3.236   2.374   3.624
 2168SOL    HW2 6525   3.334   2.269   3.545
 2169SOL     OW 6526   2.835   2.752   3.434
 2169SOL    HW1 6527   2.881   2.668   3.405
 2169SOL    HW2 6528   2.779   2.786   3.359
 2170SOL     OW 6529   2.853   2.272   3.104
 2170SOL    HW1 6530   2.776   2.306   3.158
 2170SOL    HW2 6531   2.819   2.221   3.025
 2171SOL     OW 6532   2.903   2.563   2.291
 2171SOL    HW1 6533   2.929   2.559   2.387
 2171SOL    HW2 6534   2.818   2.512   2.277
 2172SOL     OW 6535   1.938   2.673   2.651
 2172SOL    HW1 6536   2.037   2.661   2.660
 2172SOL    HW2 6537   1.914   2.768   2.672
 2173SOL     OW 6538   1.992   3.683   3.433
 2173SOL    HW1 6539   1.982   3.668   3.532
 2173SOL    HW2 6540   1.906   3.719   3.397
 2174SOL     OW 6541   2.727   2.210   2.057
 2174SOL    HW1 6542   2.786   2.273   2.008
 2174SOL    HW2 6543   2.746   2.116   2.028
 2175SOL     OW 6544   3.581   2.447   3.693
 2175SOL    HW1 6545   3.555   2.536   3.657
 2175SOL    HW2 6546   3.579   2.379   3.620
 2176SOL     OW 6547   3.224   3.006   2.407
 2176SOL    HW1 6548   3.307   2.977   2.359
 2176SOL    HW2 6549   3.175   3.073   2.351
 2177SOL     OW 6550   2.412   2.058   2.747
 2177SOL    HW1 6551   2.407   2.053   2.847
 2177SOL    HW2 6552   2.414   2.154   2.718
 2178SOL     OW 6553   2.870   3.318   2.339
 2178SOL    HW1 6554   2.824   3.390   2.287
 2178SOL    HW2 6555   2.866   3.338   2.437
 2179SOL     OW 6556   2.213   3.663   2.715
 2179SOL    HW1 6557   2.263   3.577   2.721
 2179SOL    HW2 6558   2.278   3.740   2.712
 2180SOL     OW 6559   3.657   2.928   2.735
 2180SOL    HW1 6560   3.595   2.913   2.659
 2180SOL    HW2 6561   3.605   2.939   2.820
 2181SOL     OW 6562   3.089   3.412   3.368
 2181SOL    HW1 6563   3.095   3.335   3.432
 2181SOL    HW2 6564   3.037   3.386   3.288
 2182SOL     OW 6565   2.183   2.805   2.104
 2182SOL    HW1 6566   2.265   2.844   2.062
 2182SOL    HW2 6567   2.156   2.723   2.055
 2183SOL     OW 6568   3.320   2.597   2.590
 2183SOL    HW1 6569   3.315   2.532   2.665
 2183SOL    HW2 6570   3.400   2.656   2.603
 2184SOL     OW 6571   2.323   3.128   3.589
 2184SOL    HW1 6572   2.273   3.129   3.503
 2184SOL    HW2 6573   2.260   3.110   3.665
 2185SOL     OW 6574   2.973   3.638   2.099
 2185SOL    HW1 6575   2.913   3.576   2.149
 2185SOL    HW2 6576   3.004   3.594   2.014
 2186SOL     OW 6577   2.064   2.147   3.360
 2186SOL    HW1 6578   1.984   2.207   3.347
 2186SOL    HW2 6579   2.054   2.098   3.446
 2187SOL     OW 6580   3.494   3.239   1.943
 2187SOL    HW1 6581   3.462   3.333   1.933
 2187SOL    HW2 6582   3.418   3.176   1.931
 2188SOL     OW 6583   2.326   3.605   2.185
 2188SOL    HW1 6584   2.359   3.644   2.271
 2188SOL    HW2 6585   2.402   3.598   2.120
 2189SOL     OW 6586   3.262   1.969   2.288
 2189SOL    HW1 6587   3.238   1.932   2.198
 2189SOL    HW2 6588   3.361   1.985   2.292
 2190SOL     OW 6589   2.111   3.647   3.103
 2190SOL    HW1 6590   2.168   3.582   3.153
 2190SOL    HW2 6591   2.095   3.614   3.010
 2191SOL     OW 6592   2.802   3.560   2.766
 2191SOL    HW1 6593   2.882   3.503   2.787
 2191SOL    HW2 6594   2.753   3.520   2.689
 2192SOL     OW 6595   3.409   2.084   3.591
 2192SOL    HW1 6596   3.404   2.121   3.683
 2192SOL    HW2 6597   3.337   2.015   3.579
 2193SOL     OW 6598   2.476   1.984   1.979
 2193SOL    HW1 6599   2.574   1.962   1.986
 2193SOL    HW2 6600   2.445   1.967   1.886
 2194SOL     OW 6601   2.643   2.126   3.611
 2194SOL    HW1 6602   2.710   2.065   3.654
 2194SOL    HW2 6603   2.570   2.145   3.676
 2195SOL     OW 6604   2.750   3.376   3.057
 2195SOL    HW1 6605   2.727   3.351   2.963
 2195SOL    HW2 6606   2.811   3.307   3.096
 2196SOL     OW 6607   3.213   2.452   3.295
 2196SOL    HW1 6608   3.241   2.409   3.380
 2196SOL    HW2 6609   3.238   2.548   3.296
 2197SOL     OW 6610   2.665   3.264   2.786
 2197SOL    HW1 6611   2.755   3.278   2.744
 2197SOL    HW2 6612   2.594   3.266   2.715
 2198SOL     OW 6613   2.784   2.365   2.761
 2198SOL    HW1 6614   2.759   2.356   2.665
 2198SOL    HW2 6615   2.832   2.283   2.792
 2199SOL     OW 6616   3.296   3.050   1.903
 2199SOL    HW1 6617   3.328   2.974   1.960
 2199SOL    HW2 6618   3.204   3.077   1.933
 2200SOL     OW 6619   2.159   1.897   2.033
 2200SOL    HW1 6620   2.208   1.981   2.012
 2200SOL    HW2 6621   2.221   1.832   2.078
 2201SOL     OW 6622   2.797   2.098   2.342
 2201SOL    HW1 6623   2.749   2.139   2.264
 2201SOL    HW2 6624   2.896   2.096   2.323
 2202SOL     OW 6625   2.938   2.545   3.326
 2202SOL    HW1 6626   2.858   2.484   3.329
 2202SOL    HW2 6627   3.019   2.492   3.302
 2203SOL     OW 6628   3.089   3.432   2.655
 2203SOL    HW1 6629   3.110   3.506   2.590
 2203SOL    HW2 6630   3.157   3.432   2.728
 2204SOL     OW 6631   2.321   3.014   2.603
 2204SOL    HW1 6632   2.250   2.987   2.668
 2204SOL    HW2 6633   2.295   2.986   2.510
 2205SOL     OW 6634   3.133   3.659   2.453
 2205SOL    HW1 6635   3.177   3.723   2.389
 2205SOL    HW2 6636   3.083   3.711   2.523
 2206SOL     OW 6637   2.894   2.411   1.878
 2206SOL    HW1 6638   2.853   2.493   1.839
 2206SOL    HW2 6639   2.958   2.437   1.951
 2207SOL     OW 6640   1.940   2.418   3.248
 2207SOL    HW1 6641   2.032   2.417   3.207
 2207SOL    HW2 6642   1.934   2.492   3.315
 2208SOL     OW 6643   2.423   2.084   3.009
 2208SOL    HW1 6644   2.461   2.000   3.046
 2208SOL    HW2 6645   2.335   2.103   3.053
 2209SOL     OW 6646   2.879   1.901   2.615
 2209SOL    HW1 6647   2.807   1.906   2.546
 2209SOL    HW2 6648   2.855   1.832   2.684
 2210SOL     OW 6649   3.291   3.035   2.729
 2210SOL    HW1 6650   3.236   2.951   2.722
 2210SOL    HW2 6651   3.317   3.064   2.637
 2211SOL     OW 6652   3.328   2.452   2.854
 2211SOL    HW1 6653   3.298   2.357   2.861
 2211SOL    HW2 6654   3.401   2.468   2.920
 2212SOL     OW 6655   3.719   2.695   2.239
 2212SOL    HW1 6656   3.761   2.631   2.303
 2212SOL    HW2 6657   3.681   2.644   2.161
 2213SOL     OW 6658   2.350   3.247   2.036
 2213SOL    HW1 6659   2.263   3.232   2.083
 2213SOL    HW2 6660   2.333   3.273   1.941
 2214SOL     OW 6661   3.526   3.142   2.519
 2214SOL    HW1 6662   3.625   3.150   2.533
 2214SOL    HW2 6663   3.481   3.226   2.550
 2215SOL     OW 6664   3.252   2.437   1.940
 2215SOL    HW1 6665   3.198   2.416   2.021
 2215SOL    HW2 6666   3.343   2.396   1.949
 2216SOL     OW 6667   3.616   3.085   3.450
 2216SOL    HW1 6668   3.707   3.046   3.437
 2216SOL    HW2 6669   3.624   3.181   3.474
 2217SOL     OW 6670   2.926   3.209   3.202
 2217SOL    HW1 6671   2.846   3.186   3.257
 2217SOL    HW2 6672   3.009   3.183   3.251
 2218SOL     OW 6673   3.454   3.491   3.487
 2218SOL    HW1 6674   3.481   3.525   3.397
 2218SOL    HW2 6675   3.533   3.453   3.533
 2219SOL     OW 6676   2.973   3.057   2.962
 2219SOL    HW1 6677   2.933   3.101   3.043
 2219SOL    HW2 6678   2.932   3.094   2.879
 2220SOL     OW 6679   3.500   2.961   2.941
 2220SOL    HW1 6680   3.505   3.042   3.000
 2220SOL    HW2 6681   3.414   2.963   2.890
 2221SOL     OW 6682   2.777   1.951   3.264
 2221SOL    HW1 6683   2.802   1.931   3.169
 2221SOL    HW2 6684   2.849   2.007   3.306
 2222SOL     OW 6685   2.842   2.978   3.581
 2222SOL    HW1 6686   2.743   2.984   3.591
 2222SOL    HW2 6687   2.865   2.898   3.525
 2223SOL     OW 6688   2.567   2.912   2.230
 2223SOL    HW1 6689   2.553   2.919   2.329
 2223SOL    HW2 6690   2.651   2.861   2.212
 2224SOL     OW 6691   2.272   2.675   3.113
 2224SOL    HW1 6692   2.358   2.687   3.163
 2224SOL    HW2 6693   2.230   2.588   3.140
 2225SOL     OW 6694   3.136   2.248   3.124
 2225SOL    HW1 6695   3.157   2.322   3.188
 2225SOL    HW2 6696   3.047   2.265   3.081
 2226SOL     OW 6697   1.926   3.426   3.193
 2226SOL    HW1 6698   1.880   3.508   3.159
 2226SOL    HW2 6699   2.024   3.445   3.202
 2227SOL     OW 6700   2.229   2.962   2.363
 2227SOL    HW1 6701   2.222   3.045   2.307
 2227SOL    HW2 6702   2.233   2.882   2.303
 2228SOL     OW 6703   2.428   2.399   2.727
 2228SOL    HW1 6704   2.440   2.465   2.653
 2228SOL    HW2 6705   2.474   2.433   2.810
 2229SOL     OW 6706   3.114   3.210   2.250
 2229SOL    HW1 6707   3.164   3.287   2.290
 2229SOL    HW2 6708   3.019   3.212   2.282
 2230SOL     OW 6709   3.134   3.307   3.004
 2230SOL    HW1 6710   3.181   3.320   3.091
 2230SOL    HW2 6711   3.068   3.233   3.013
 2231SOL     OW 6712   3.444   2.501   2.334
 2231SOL    HW1 6713   3.413   2.562   2.407
 2231SOL    HW2 6714   3.494   2.553   2.265
 2232SOL     OW 6715   2.216   3.372   3.191
 2232SOL    HW1 6716   2.195   3.328   3.104
 2232SOL    HW2 6717   2.313   3.398   3.194
 2233SOL     OW 6718   2.264   2.613   3.460
 2233SOL    HW1 6719   2.332   2.668   3.413
 2233SOL    HW2 6720   2.304   2.525   3.487
 2234SOL     OW 6721   3.449   2.641   3.532
 2234SOL    HW1 6722   3.357   2.679   3.527
 2234SOL    HW2 6723   3.509   2.688   3.467
 2235SOL     OW 6724   2.875   1.967   3.632
 2235SOL    HW1 6725   2.881   2.052   3.580
 2235SOL    HW2 6726   2.907   1.891   3.575
 2236SOL     OW 6727   2.366   1.912   3.602
 2236SOL    HW1 6728   2.324   1.855   3.532
 2236SOL    HW2 6729   2.300   1.981   3.634
 2237SOL     OW 6730   2.435   2.732   2.891
 2237SOL    HW1 6731   2.479   2.821   2.882
 2237SOL    HW2 6732   2.372   2.732   2.968
 2238SOL     OW 6733   3.222   2.724   2.907
 2238SOL    HW1 6734   3.147   2.724   2.841
 2238SOL    HW2 6735   3.259   2.632   2.916
 2239SOL     OW 6736   3.071   2.387   2.137
 2239SOL    HW1 6737   3.084   2.303   2.191
 2239SOL    HW2 6738   3.042   2.461   2.197
 2240SOL     OW 6739   2.169   2.075   3.093
 2240SOL    HW1 6740   2.146   2.112   3.183
 2240SOL    HW2 6741   2.139   1.980   3.087
 2241SOL     OW 6742   1.899   3.172   3.144
 2241SOL    HW1 6743   1.952   3.123   3.212
 2241SOL    HW2 6744   1.921   3.270   3.149
 2242SOL     OW 6745   2.594   2.496   2.926
 2242SOL    HW1 6746   2.653   2.470   2.850
 2242SOL    HW2 6747   2.566   2.592   2.915
 2243SOL     OW 6748   3.590   2.797   3.716
 2243SOL    HW1 6749   3.544   2.790   3.627
 2243SOL    HW2 6750   3.528   2.841   3.782
 2244SOL     OW 6751   2.169   1.925   2.480
 2244SOL    HW1 6752   2.158   2.019   2.513
 2244SOL    HW2 6753   2.164   1.862   2.557
 2245SOL     OW 6754   3.484   2.229   2.236
 2245SOL    HW1 6755   3.486   2.153   2.300
 2245SOL    HW2 6756   3.436   2.306   2.276
 2246SOL     OW 6757   2.885   2.628   2.828
 2246SOL    HW1 6758   2.900   2.649   2.924
 2246SOL    HW2 6759   2.855   2.533   2.819
 2247SOL     OW 6760   2.842   3.435   3.562
 2247SOL    HW1 6761   2.822   3.479   3.474
 2247SOL    HW2 6762   2.881   3.344   3.546
 2248SOL     OW 6763   3.721   3.380   3.467
 2248SOL    HW1 6764   3.735   3.407   3.372
 2248SOL    HW2 6765   3.804   3.402   3.520
 2249SOL     OW 6766   2.212   2.760   3.666
 2249SOL    HW1 6767   2.288   2.804   3.714
 2249SOL    HW2 6768   2.247   2.713   3.584
 2250SOL     OW 6769   3.402   2.136   1.987
 2250SOL    HW1 6770   3.341   2.061   2.010
 2250SOL    HW2 6771   3.424   2.188   2.070
 2251SOL     OW 6772   3.165   2.700   1.904
 2251SOL    HW1 6773   3.199   2.607   1.919
 2251SOL    HW2 6774   3.183   2.727   1.809
 2252SOL     OW 6775   2.930   3.195   2.711
 2252SOL    HW1 6776   2.937   3.111   2.656
 2252SOL    HW2 6777   2.992   3.264   2.675
 2253SOL     OW 6778   2.181   2.672   2.811
 2253SOL    HW1 6779   2.274   2.708   2.816
 2253SOL    HW2 6780   2.175   2.587   2.863
 2254SOL     OW 6781   2.201   2.371   2.868
 2254SOL    HW1 6782   2.149   2.288   2.851
 2254SOL    HW2 6783   2.278   2.376   2.804
 2255SOL     OW 6784   3.000   2.242   3.540
 2255SOL    HW1 6785   2.955   2.305   3.604
 2255SOL    HW2 6786   3.093   2.273   3.523
 2256SOL     OW 6787   3.022   2.069   3.339
 2256SOL    HW1 6788   3.022   2.133   3.416
 2256SOL    HW2 6789   3.050   2.117   3.256
 2257SOL     OW 6790   1.870   3.188   2.062
 2257SOL    HW1 6791   1.777   3.209   2.031
 2257SOL    HW2 6792   1.880   3.089   2.075
 2258SOL     OW 6793   1.950   3.663   2.789
 2258SOL    HW1 6794   1.908   3.577   2.762
 2258SOL    HW2 6795   2.044   3.666   2.755
 2259SOL     OW 6796   2.366   3.430   2.772
 2259SOL    HW1 6797   2.432   3.504   2.781
 2259SOL    HW2 6798   2.410   3.351   2.730
 2260SOL     OW 6799   2.864   2.658   3.100
 2260SOL    HW1 6800   2.905   2.626   3.186
 2260SOL    HW2 6801   2.768   2.631   3.097
 2261SOL     OW 6802   1.902   2.406   2.976
 2261SOL    HW1 6803   1.987   2.373   2.935
 2261SOL    HW2 6804   1.915   2.421   3.074
 2262SOL     OW 6805   2.051   2.382   3.584
 2262SOL    HW1 6806   2.110   2.342   3.514
 2262SOL    HW2 6807   1.993   2.453   3.543
 2263SOL     OW 6808   3.231   2.812   3.522
 2263SOL    HW1 6809   3.270   2.901   3.542
 2263SOL    HW2 6810   3.241   2.792   3.425
 2264SOL     OW 6811   3.519   2.466   3.068
 2264SOL    HW1 6812   3.481   2.397   3.130
 2264SOL    HW2 6813   3.601   2.430   3.024
 2265SOL     OW 6814   2.114   3.426   3.606
 2265SOL    HW1 6815   2.084   3.483   3.682
 2265SOL    HW2 6816   2.107   3.329   3.632
 2266SOL     OW 6817   2.533   2.326   3.131
 2266SOL    HW1 6818   2.499   2.237   3.101
 2266SOL    HW2 6819   2.559   2.380   3.051
 2267SOL     OW 6820   2.792   3.540   3.327
 2267SOL    HW1 6821   2.768   3.522   3.232
 2267SOL    HW2 6822   2.822   3.634   3.337
 2268SOL     OW 6823   2.335   2.362   2.053
 2268SOL    HW1 6824   2.396   2.442   2.057
 2268SOL    HW2 6825   2.240   2.393   2.060
 2269SOL     OW 6826   2.021   2.999   3.328
 2269SOL    HW1 6827   2.043   2.938   3.404
 2269SOL    HW2 6828   2.031   2.950   3.242
 2270SOL     OW 6829   3.209   2.921   3.096
 2270SOL    HW1 6830   3.233   2.858   3.022
 2270SOL    HW2 6831   3.119   2.961   3.078
 2271SOL     OW 6832   3.164   2.717   2.171
 2271SOL    HW1 6833   3.078   2.686   2.213
 2271SOL    HW2 6834   3.160   2.703   2.072
 2272SOL     OW 6835   3.621   3.609   3.016
 2272SOL    HW1 6836   3.682   3.639   2.943
 2272SOL    HW2 6837   3.583   3.520   2.994
 2273SOL     OW 6838   3.114   3.593   2.990
 2273SOL    HW1 6839   3.198   3.598   2.936
 2273SOL    HW2 6840   3.091   3.497   3.008
 2274SOL     OW 6841   1.945   3.120   2.884
 2274SOL    HW1 6842   1.940   3.119   2.984
 2274SOL    HW2 6843   1.862   3.079   2.846
 2275SOL     OW 6844   2.550   3.524   3.578
 2275SOL    HW1 6845   2.494   3.605   3.587
 2275SOL    HW2 6846   2.602   3.528   3.492
 2276SOL     OW 6847   3.588   1.997   2.385
 2276SOL    HW1 6848   3.661   1.980   2.318
 2276SOL    HW2 6849   3.557   1.910   2.423
 2277SOL     OW 6850   3.250   3.435   2.339
 2277SOL    HW1 6851   3.317   3.447   2.265
 2277SOL    HW2 6852   3.210   3.524   2.362
 2278SOL     OW 6853   1.992   3.656   3.713
 2278SOL    HW1 6854   1.951   3.582   3.766
 2278SOL    HW2 6855   2.056   3.707   3.771
 2279SOL     OW 6856   3.142   2.789   2.534
 2279SOL    HW1 6857   3.202   2.708   2.536
 2279SOL    HW2 6858   3.182   2.858   2.474
 2280SOL     OW 6859   2.692   3.135   3.284
 2280SOL    HW1 6860   2.687   3.168   3.379
 2280SOL    HW2 6861   2.606   3.154   3.238
 2281SOL     OW 6862   2.534   3.478   2.016
 2281SOL    HW1 6863   2.543   3.488   1.917
 2281SOL    HW2 6864   2.494   3.389   2.037
 2282SOL     OW 6865   3.512   3.582   3.256
 2282SOL    HW1 6866   3.565   3.592   3.172
 2282SOL    HW2 6867   3.485   3.672   3.290
 2283SOL     OW 6868   3.703   2.037   2.825
 2283SOL    HW1 6869   3.742   1.952   2.789
 2283SOL    HW2 6870   3.605   2.039   2.806
 2284SOL     OW 6871   3.056   3.474   1.893
 2284SOL    HW1 6872   3.062   3.381   1.930
 2284SOL    HW2 6873   2.997   3.474   1.813
 2285SOL     OW 6874   2.684   2.864   3.234
 2285SOL    HW1 6875   2.724   2.863   3.142
 2285SOL    HW2 6876   2.694   2.956   3.274
 2286SOL     OW 6877   2.778   2.772   2.153
 2286SOL    HW1 6878   2.841   2.810   2.085
 2286SOL    HW2 6879   2.818   2.689   2.192
 2287SOL     OW 6880   3.366   3.469   1.906
 2287SOL    HW1 6881   3.274   3.506   1.913
 2287SOL    HW2 6882   3.404   3.489   1.816
 2288SOL     OW 6883   2.234   3.150   3.352
 2288SOL    HW1 6884   2.221   3.243   3.318
 2288SOL    HW2 6885   2.150   3.098   3.339
 2289SOL     OW 6886   3.476   3.154   3.151
 2289SOL    HW1 6887   3.536   3.157   3.231
 2289SOL    HW2 6888   3.401   3.218   3.164
 2290SOL     OW 6889   2.901   2.960   2.558
 2290SOL    HW1 6890   2.831   2.913   2.612
 2290SOL    HW2 6891   2.960   2.892   2.515
 2291SOL     OW 6892   2.876   2.098   2.833
 2291SOL    HW1 6893   2.868   2.062   2.740
 2291SOL    HW2 6894   2.874   2.022   2.898
 2292SOL     OW 6895   2.452   3.349   2.353
 2292SOL    HW1 6896   2.494   3.291   2.283
 2292SOL    HW2 6897   2.408   3.428   2.309
 2293SOL     OW 6898   3.571   2.247   3.243
 2293SOL    HW1 6899   3.644   2.316   3.247
 2293SOL    HW2 6900   3.599   2.172   3.184
 2294SOL     OW 6901   2.117   3.210   2.152
 2294SOL    HW1 6902   2.021   3.211   2.125
 2294SOL    HW2 6903   2.129   3.263   2.236
 2295SOL     OW 6904   1.967   2.875   3.588
 2295SOL    HW1 6905   1.890   2.842   3.642
 2295SOL    HW2 6906   2.052   2.845   3.630
 2296SOL     OW 6907   2.534   2.065   3.351
 2296SOL    HW1 6908   2.624   2.049   3.311
 2296SOL    HW2 6909   2.542   2.070   3.450
 2297SOL     OW 6910   1.937   2.207   1.895
 2297SOL    HW1 6911   1.845   2.179   1.866
 2297SOL    HW2 6912   1.968   2.284   1.839
 2298SOL     OW 6913   3.302   2.718   3.260
 2298SOL    HW1 6914   3.245   2.770   3.197
 2298SOL    HW2 6915   3.398   2.730   3.236
 2299SOL     OW 6916   1.934   2.028   2.180
 2299SOL    HW1 6917   1.917   2.111   2.126
 2299SOL    HW2 6918   2.024   1.991   2.158
 2300SOL     OW 6919   3.045   3.197   1.981
 2300SOL    HW1 6920   2.946   3.186   1.983
 2300SOL    HW2 6921   3.079   3.212   2.074
 2301SOL     OW 6922   2.475   2.704   3.293
 2301SOL    HW1 6923   2.531   2.785   3.276
 2301SOL    HW2 6924   2.534   2.624   3.296
 2302SOL     OW 6925   3.355   3.629   2.821
 2302SOL    HW1 6926   3.388   3.693   2.752
 2302SOL    HW2 6927   3.421   3.623   2.896
 2303SOL     OW 6928   2.578   2.427   3.570
 2303SOL    HW1 6929   2.597   2.492   3.644
 2303SOL    HW2 6930   2.638   2.347   3.579
 2304SOL     OW 6931   3.312   3.082   3.495
 2304SOL    HW1 6932   3.303   3.072   3.594
 2304SOL    HW2 6933   3.408   3.075   3.469
 2305SOL     OW 6934   2.252   3.603   3.422
 2305SOL    HW1 6935   2.161   3.644   3.420
 2305SOL    HW2 6936   2.245   3.509   3.454
 2306SOL     OW 6937   3.536   2.745   3.116
 2306SOL    HW1 6938   3.509   2.656   3.079
 2306SOL    HW2 6939   3.537   2.813   3.043
 2307SOL     OW 6940   3.087   2.187   2.311
 2307SOL    HW1 6941   3.152   2.113   2.300
 2307SOL    HW2 6942   3.107   2.237   2.395
 2308SOL     OW 6943   3.639   2.204   3.504
 2308SOL    HW1 6944   3.622   2.235   3.410
 2308SOL    HW2 6945   3.555   2.167   3.542
 2309SOL     OW 6946   3.592   2.796   3.379
 2309SOL    HW1 6947   3.630   2.887   3.394
 2309SOL    HW2 6948   3.584   2.779   3.280
 2310SOL     OW 6949   2.721   3.236   1.878
 2310SOL    HW1 6950   2.675   3.251   1.966
 2310SOL    HW2 6951   2.765   3.321   1.848
 2311SOL     OW 6952   2.523   3.652   2.815
 2311SOL    HW1 6953   2.477   3.740   2.802
 2311SOL    HW2 6954   2.622   3.664   2.808
 2312SOL     OW 6955   2.721   2.818   2.723
 2312SOL    HW1 6956   2.775   2.749   2.771
 2312SOL    HW2 6957   2.689   2.887   2.789
 2313SOL     OW 6958   2.945   2.846   1.949
 2313SOL    HW1 6959   2.922   2.899   1.867
 2313SOL    HW2 6960   3.026   2.790   1.930
 2314SOL     OW 6961   3.723   3.431   2.713
 2314SOL    HW1 6962   3.652   3.419   2.643
 2314SOL    HW2 6963   3.724   3.352   2.773
 2315SOL     OW 6964   2.083   3.176   3.706
 2315SOL    HW1 6965   2.018   3.103   3.685
 2315SOL    HW2 6966   2.087   3.190   3.804
 2316SOL     OW 6967   1.941   3.102   2.515
 2316SOL    HW1 6968   1.940   3.055   2.603
 2316SOL    HW2 6969   2.023   3.074   2.464
 2317SOL     OW 6970   2.534   3.253   3.486
 2317SOL    HW1 6971   2.456   3.203   3.524
 2317SOL    HW2 6972   2.531   3.348   3.517
 2318SOL     OW 6973   3.686   2.054   3.089
 2318SOL    HW1 6974   3.682   1.964   3.133
 2318SOL    HW2 6975   3.689   2.043   2.990
 2319SOL     OW 6976   3.567   3.349   2.966
 2319SOL    HW1 6977   3.474   3.324   2.939
 2319SOL    HW2 6978   3.593   3.299   3.048
 2320SOL     OW 6979   2.179   2.409   3.142
 2320SOL    HW1 6980   2.217   2.350   3.214
 2320SOL    HW2 6981   2.219   2.383   3.054
 2321SOL     OW 6982   2.674   3.448   2.549
 2321SOL    HW1 6983   2.706   3.458   2.455
 2321SOL    HW2 6984   2.595   3.386   2.551
 2322SOL     OW 6985   3.286   2.076   2.974
 2322SOL    HW1 6986   3.338   2.011   3.029
 2322SOL    HW2 6987   3.237   2.139   3.035
 2323SOL     OW 6988   2.863   1.896   3.016
 2323SOL    HW1 6989   2.800   1.824   2.985
 2323SOL    HW2 6990   2.956   1.860   3.016
 2324SOL     OW 6991   2.632   3.192   2.163
 2324SOL    HW1 6992   2.586   3.105   2.180
 2324SOL    HW2 6993   2.723   3.189   2.204
 2325SOL     OW 6994   2.480   3.429   3.146
 2325SOL    HW1 6995   2.475   3.511   3.203
 2325SOL    HW2 6996   2.569   3.426   3.101
 2326SOL     OW 6997   3.214   1.914   2.030
 2326SOL    HW1 6998   3.249   1.873   1.946
 2326SOL    HW2 6999   3.124   1.876   2.050
 2327SOL     OW 7000   3.162   2.315   2.553
 2327SOL    HW1 7001   3.103   2.395   2.557
 2327SOL    HW2 7002   3.177   2.280   2.646
 2328SOL     OW 7003   3.455   2.083   2.744
 2328SOL    HW1 7004   3.371   2.082   2.798
 2328SOL    HW2 7005   3.457   2.166   2.688
 2329SOL     OW 7006   1.901   2.939   2.162
 2329SOL    HW1 7007   2.000   2.928   2.153
 2329SOL    HW2 7008   1.861   2.853   2.194
 2330SOL     OW 7009   2.737   3.508   2.199
 2330SOL    HW1 7010   2.660   3.473   2.145
 2330SOL    HW2 7011   2.705   3.579   2.261
 2331SOL     OW 7012   2.092   2.490   3.837
 2331SOL    HW1 7013   1.999   2.488   3.874
 2331SOL    HW2 7014   2.093   2.451   3.745
 2332SOL     OW 7015   2.087   2.137   4.720
 2332SOL    HW1 7016   2.122   2.120   4.812
 2332SOL    HW2 7017   1.999   2.092   4.708
 2333SOL     OW 7018   1.881   2.230   4.371
 2333SOL    HW1 7019   1.799   2.273   4.410
 2333SOL    HW2 7020   1.853   2.157   4.308
 2334SOL     OW 7021   3.417   3.373   4.427
 2334SOL    HW1 7022   3.360   3.357   4.508
 2334SOL    HW2 7023   3.358   3.383   4.347
 2335SOL     OW 7024   2.997   2.565   4.441
 2335SOL    HW1 7025   3.054   2.643   4.416
 2335SOL    HW2 7026   2.937   2.591   4.517
 2336SOL     OW 7027   3.617   2.469   3.955
 2336SOL    HW1 7028   3.605   2.456   3.856
 2336SOL    HW2 7029   3.587   2.388   4.004
 2337SOL     OW 7030   2.630   3.006   4.747
 2337SOL    HW1 7031   2.552   3.023   4.807
 2337SOL    HW2 7032   2.664   3.093   4.711
 2338SOL     OW 7033   2.547   2.874   4.389
 2338SOL    HW1 7034   2.616   2.858   4.459
 2338SOL    HW2 7035   2.474   2.931   4.427
 2339SOL     OW 7036   3.465   2.309   4.461
 2339SOL    HW1 7037   3.391   2.355   4.411
 2339SOL    HW2 7038   3.516   2.377   4.514
 2340SOL     OW 7039   2.093   3.575   4.207
 2340SOL    HW1 7040   2.127   3.652   4.261
 2340SOL    HW2 7041   2.137   3.575   4.117
 2341SOL     OW 7042   2.092   3.296   4.262
 2341SOL    HW1 7043   2.066   3.392   4.262
 2341SOL    HW2 7044   2.021   3.242   4.307
 2342SOL     OW 7045   2.102   2.953   4.610
 2342SOL    HW1 7046   2.116   2.869   4.662
 2342SOL    HW2 7047   2.047   3.017   4.665
 2343SOL     OW 7048   2.468   2.826   3.847
 2343SOL    HW1 7049   2.475   2.910   3.793
 2343SOL    HW2 7050   2.514   2.839   3.935
 2344SOL     OW 7051   1.984   2.505   4.287
 2344SOL    HW1 7052   1.939   2.417   4.304
 2344SOL    HW2 7053   1.983   2.559   4.371
 2345SOL     OW 7054   3.704   3.629   4.083
 2345SOL    HW1 7055   3.758   3.600   4.163
 2345SOL    HW2 7056   3.734   3.719   4.054
 2346SOL     OW 7057   1.889   3.458   3.841
 2346SOL    HW1 7058   1.870   3.362   3.862
 2346SOL    HW2 7059   1.856   3.516   3.916
 2347SOL     OW 7060   3.551   2.784   4.336
 2347SOL    HW1 7061   3.646   2.755   4.344
 2347SOL    HW2 7062   3.543   2.849   4.261
 2348SOL     OW 7063   3.503   2.970   4.156
 2348SOL    HW1 7064   3.589   2.972   4.104
 2348SOL    HW2 7065   3.517   3.017   4.244
 2349SOL     OW 7066   2.475   3.227   4.450
 2349SOL    HW1 7067   2.426   3.140   4.459
 2349SOL    HW2 7068   2.452   3.270   4.363
 2350SOL     OW 7069   2.671   1.866   4.226
 2350SOL    HW1 7070   2.711   1.957   4.217
 2350SOL    HW2 7071   2.571   1.874   4.232
 2351SOL     OW 7072   3.387   2.861   3.914
 2351SOL    HW1 7073   3.324   2.785   3.927
 2351SOL    HW2 7074   3.435   2.879   4.000
 2352SOL     OW 7075   3.328   3.279   4.677
 2352SOL    HW1 7076   3.269   3.285   4.757
 2352SOL    HW2 7077   3.313   3.191   4.631
 2353SOL     OW 7078   3.529   3.576   4.296
 2353SOL    HW1 7079   3.488   3.553   4.208
 2353SOL    HW2 7080   3.511   3.502   4.361
 2354SOL     OW 7081   2.460   2.591   3.994
 2354SOL    HW1 7082   2.484   2.660   3.926
 2354SOL    HW2 7083   2.382   2.624   4.048
 2355SOL     OW 7084   3.143   2.207   4.668
 2355SOL    HW1 7085   3.057   2.157   4.655
 2355SOL    HW2 7086   3.205   2.153   4.724
 2356SOL     OW 7087   3.438   3.524   4.031
 2356SOL    HW1 7088   3.527   3.570   4.034
 2356SOL    HW2 7089   3.417   3.500   3.936
 2357SOL     OW 7090   2.903   2.563   4.153
 2357SOL    HW1 7091   2.929   2.559   4.249
 2357SOL    HW2 7092   2.818   2.512   4.139
 2358SOL     OW 7093   1.938   2.673   4.513
 2358SOL    HW1 7094   2.037   2.661   4.522
 2358SOL    HW2 7095   1.914   2.768   4.534
 2359SOL     OW 7096   2.727   2.210   3.919
 2359SOL    HW1 7097   2.786   2.273   3.870
 2359SOL    HW2 7098   2.746   2.116   3.890
 2360SOL     OW 7099   3.224   3.006   4.269
 2360SOL    HW1 7100   3.307   2.977   4.221
 2360SOL    HW2 7101   3.175   3.073   4.213
 2361SOL     OW 7102   2.870   3.318   4.201
 2361SOL    HW1 7103   2.824   3.390   4.149
 2361SOL    HW2 7104   2.866   3.338   4.299
 2362SOL     OW 7105   2.213   3.663   4.577
 2362SOL    HW1 7106   2.263   3.577   4.583
 2362SOL    HW2 7107   2.278   3.740   4.574
 2363SOL     OW 7108   3.657   2.928   4.597
 2363SOL    HW1 7109   3.595   2.913   4.521
 2363SOL    HW2 7110   3.605   2.939   4.682
 2364SOL     OW 7111   2.183   2.805   3.966
 2364SOL    HW1 7112   2.265   2.844   3.924
 2364SOL    HW2 7113   2.156   2.723   3.917
 2365SOL     OW 7114   3.320   2.597   4.452
 2365SOL    HW1 7115   3.315   2.532   4.527
 2365SOL    HW2 7116   3.400   2.656   4.465
 2366SOL     OW 7117   2.973   3.638   3.961
 2366SOL    HW1 7118   2.913   3.576   4.011
 2366SOL    HW2 7119   3.004   3.594   3.876
 2367SOL     OW 7120   3.494   3.239   3.805
 2367SOL    HW1 7121   3.462   3.333   3.795
 2367SOL    HW2 7122   3.418   3.176   3.793
 2368SOL     OW 7123   2.326   3.605   4.047
 2368SOL    HW1 7124   2.359   3.644   4.133
 2368SOL    HW2 7125   2.402   3.598   3.982
 2369SOL     OW 7126   3.262   1.969   4.150
 2369SOL    HW1 7127   3.238   1.932   4.060
 2369SOL    HW2 7128   3.361   1.985   4.154
 2370SOL     OW 7129   2.111   3.647   4.965
 2370SOL    HW1 7130   2.168   3.582   5.015
 2370SOL    HW2 7131   2.095   3.614   4.872
 2371SOL     OW 7132   2.244   2.562   4.204
 2371SOL    HW1 7133   2.289   2.472   4.201
 2371SOL    HW2 7134   2.150   2.551   4.237
 2372SOL     OW 7135   2.476   1.984   3.841
 2372SOL    HW1 7136   2.574   1.962   3.848
 2372SOL    HW2 7137   2.445   1.967   3.748
 2373SOL     OW 7138   2.784   2.365   4.623
 2373SOL    HW1 7139   2.759   2.356   4.527
 2373SOL    HW2 7140   2.832   2.283   4.654
 2374SOL     OW 7141   2.401   1.926   4.236
 2374SOL    HW1 7142   2.320   1.927   4.294
 2374SOL    HW2 7143   2.404   2.009   4.181
 2375SOL     OW 7144   3.296   3.050   3.765
 2375SOL    HW1 7145   3.328   2.974   3.822
 2375SOL    HW2 7146   3.204   3.077   3.795
 2376SOL     OW 7147   2.159   1.897   3.895
 2376SOL    HW1 7148   2.208   1.981   3.874
 2376SOL    HW2 7149   2.221   1.832   3.940
 2377SOL     OW 7150   2.797   2.098   4.204
 2377SOL    HW1 7151   2.749   2.139   4.126
 2377SOL    HW2 7152   2.896   2.096   4.185
 2378SOL     OW 7153   3.089   3.432   4.517
 2378SOL    HW1 7154   3.110   3.506   4.452
 2378SOL    HW2 7155   3.157   3.432   4.590
 2379SOL     OW 7156   2.321   3.014   4.465
 2379SOL    HW1 7157   2.250   2.987   4.530
 2379SOL    HW2 7158   2.295   2.986   4.372
 2380SOL     OW 7159   3.133   3.659   4.315
 2380SOL    HW1 7160   3.177   3.723   4.251
 2380SOL    HW2 7161   3.083   3.711   4.385
 2381SOL     OW 7162   2.894   2.411   3.740
 2381SOL    HW1 7163   2.853   2.493   3.701
 2381SOL    HW2 7164   2.958   2.437   3.813
 2382SOL     OW 7165   2.728   2.316   4.366
 2382SOL    HW1 7166   2.696   2.388   4.304
 2382SOL    HW2 7167   2.752   2.235   4.313
 2383SOL     OW 7168   2.879   1.901   4.477
 2383SOL    HW1 7169   2.807   1.906   4.408
 2383SOL    HW2 7170   2.855   1.832   4.546
 2384SOL     OW 7171   3.291   3.035   4.591
 2384SOL    HW1 7172   3.236   2.951   4.584
 2384SOL    HW2 7173   3.317   3.064   4.499
 2385SOL     OW 7174   3.719   2.695   4.101
 2385SOL    HW1 7175   3.761   2.631   4.165
 2385SOL    HW2 7176   3.681   2.644   4.023
 2386SOL     OW 7177   2.350   3.247   3.898
 2386SOL    HW1 7178   2.263   3.232   3.945
 2386SOL    HW2 7179   2.333   3.273   3.803
 2387SOL     OW 7180   3.526   3.142   4.381
 2387SOL    HW1 7181   3.625   3.150   4.395
 2387SOL    HW2 7182   3.481   3.226   4.412
 2388SOL     OW 7183   3.252   2.437   3.802
 2388SOL    HW1 7184   3.198   2.416   3.883
 2388SOL    HW2 7185   3.343   2.396   3.811
 2389SOL     OW 7186   2.389   2.118   4.052
 2389SOL    HW1 7187   2.416   2.059   3.977
 2389SOL    HW2 7188   2.389   2.213   4.021
 2390SOL     OW 7189   3.500   2.961   4.803
 2390SOL    HW1 7190   3.505   3.042   4.862
 2390SOL    HW2 7191   3.414   2.963   4.752
 2391SOL     OW 7192   2.567   2.912   4.092
 2391SOL    HW1 7193   2.553   2.919   4.191
 2391SOL    HW2 7194   2.651   2.861   4.074
 2392SOL     OW 7195   2.229   2.962   4.225
 2392SOL    HW1 7196   2.222   3.045   4.169
 2392SOL    HW2 7197   2.233   2.882   4.165
 2393SOL     OW 7198   2.428   2.399   4.589
 2393SOL    HW1 7199   2.440   2.465   4.515
 2393SOL    HW2 7200   2.474   2.433   4.672
 2394SOL     OW 7201   3.114   3.210   4.112
 2394SOL    HW1 7202   3.164   3.287   4.152
 2394SOL    HW2 7203   3.019   3.212   4.144
 2395SOL     OW 7204   3.444   2.501   4.196
 2395SOL    HW1 7205   3.413   2.562   4.269
 2395SOL    HW2 7206   3.494   2.553   4.127
 2396SOL     OW 7207   3.071   2.387   3.999
 2396SOL    HW1 7208   3.084   2.303   4.053
 2396SOL    HW2 7209   3.042   2.461   4.059
 2397SOL     OW 7210   2.169   2.075   4.955
 2397SOL    HW1 7211   2.146   2.112   5.045
 2397SOL    HW2 7212   2.139   1.980   4.949
 2398SOL     OW 7213   2.594   2.496   4.788
 2398SOL    HW1 7214   2.653   2.470   4.712
 2398SOL    HW2 7215   2.566   2.592   4.777
 2399SOL     OW 7216   2.169   1.925   4.342
 2399SOL    HW1 7217   2.158   2.019   4.375
 2399SOL    HW2 7218   2.164   1.862   4.419
 2400SOL     OW 7219   3.484   2.229   4.098
 2400SOL    HW1 7220   3.486   2.153   4.162
 2400SOL    HW2 7221   3.436   2.306   4.138
 2401SOL     OW 7222   3.402   2.136   3.849
 2401SOL    HW1 7223   3.341   2.061   3.872
 2401SOL    HW2 7224   3.424   2.188   3.932
 2402SOL     OW 7225   3.165   2.700   3.766
 2402SOL    HW1 7226   3.199   2.607   3.781
 2402SOL    HW2 7227   3.183   2.727   3.671
 2403SOL     OW 7228   2.930   3.195   4.573
 2403SOL    HW1 7229   2.937   3.111   4.518
 2403SOL    HW2 7230   2.992   3.264   4.537
 2404SOL     OW 7231   2.181   2.672   4.673
 2404SOL    HW1 7232   2.274   2.708   4.678
 2404SOL    HW2 7233   2.175   2.587   4.725
 2405SOL     OW 7234   1.870   3.188   3.924
 2405SOL    HW1 7235   1.777   3.209   3.893
 2405SOL    HW2 7236   1.880   3.089   3.937
 2406SOL     OW 7237   1.950   3.663   4.651
 2406SOL    HW1 7238   1.908   3.577   4.624
 2406SOL    HW2 7239   2.044   3.666   4.617
 2407SOL     OW 7240   2.366   3.430   4.634
 2407SOL    HW1 7241   2.432   3.504   4.643
 2407SOL    HW2 7242   2.410   3.351   4.592
 2408SOL     OW 7243   2.677   2.434   4.049
 2408SOL    HW1 7244   2.684   2.345   4.003
 2408SOL    HW2 7245   2.583   2.468   4.041
 2409SOL     OW 7246   2.533   2.326   4.993
 2409SOL    HW1 7247   2.499   2.237   4.963
 2409SOL    HW2 7248   2.559   2.380   4.913
 2410SOL     OW 7249   2.335   2.362   3.915
 2410SOL    HW1 7250   2.396   2.442   3.919
 2410SOL    HW2 7251   2.240   2.393   3.922
 2411SOL     OW 7252   3.209   2.921   4.958
 2411SOL    HW1 7253   3.233   2.858   4.884
 2411SOL    HW2 7254   3.119   2.961   4.940
 2412SOL     OW 7255   3.164   2.717   4.033
 2412SOL    HW1 7256   3.078   2.686   4.075
 2412SOL    HW2 7257   3.160   2.703   3.934
 2413SOL     OW 7258   3.621   3.609   4.878
 2413SOL    HW1 7259   3.682   3.639   4.805
 2413SOL    HW2 7260   3.583   3.520   4.856
 2414SOL     OW 7261   3.588   1.997   4.247
 2414SOL    HW1 7262   3.661   1.980   4.180
 2414SOL    HW2 7263   3.557   1.910   4.285
 2415SOL     OW 7264   3.250   3.435   4.201
 2415SOL    HW1 7265   3.317   3.447   4.127
 2415SOL    HW2 7266   3.210   3.524   4.224
 2416SOL     OW 7267   3.142   2.789   4.396
 2416SOL    HW1 7268   3.202   2.708   4.398
 2416SOL    HW2 7269   3.182   2.858   4.336
 2417SOL     OW 7270   2.534   3.478   3.878
 2417SOL    HW1 7271   2.543   3.488   3.779
 2417SOL    HW2 7272   2.494   3.389   3.899
 2418SOL     OW 7273   3.703   2.037   4.687
 2418SOL    HW1 7274   3.742   1.952   4.651
 2418SOL    HW2 7275   3.605   2.039   4.668
 2419SOL     OW 7276   2.125   2.188   4.444
 2419SOL    HW1 7277   2.046   2.239   4.410
 2419SOL    HW2 7278   2.116   2.173   4.542
 2420SOL     OW 7279   3.056   3.474   3.755
 2420SOL    HW1 7280   3.062   3.381   3.792
 2420SOL    HW2 7281   2.997   3.474   3.675
 2421SOL     OW 7282   2.778   2.772   4.015
 2421SOL    HW1 7283   2.841   2.810   3.947
 2421SOL    HW2 7284   2.818   2.689   4.054
 2422SOL     OW 7285   3.366   3.469   3.768
 2422SOL    HW1 7286   3.274   3.506   3.775
 2422SOL    HW2 7287   3.404   3.489   3.678
 2423SOL     OW 7288   3.476   3.154   5.013
 2423SOL    HW1 7289   3.536   3.157   5.093
 2423SOL    HW2 7290   3.401   3.218   5.026
 2424SOL     OW 7291   2.901   2.960   4.420
 2424SOL    HW1 7292   2.831   2.913   4.474
 2424SOL    HW2 7293   2.960   2.892   4.377
 2425SOL     OW 7294   2.452   3.349   4.215
 2425SOL    HW1 7295   2.494   3.291   4.145
 2425SOL    HW2 7296   2.408   3.428   4.171
 2426SOL     OW 7297   2.117   3.210   4.014
 2426SOL    HW1 7298   2.021   3.211   3.987
 2426SOL    HW2 7299   2.129   3.263   4.098
 2427SOL     OW 7300   1.937   2.207   3.757
 2427SOL    HW1 7301   1.845   2.179   3.728
 2427SOL    HW2 7302   1.968   2.284   3.701
 2428SOL     OW 7303   1.934   2.028   4.042
 2428SOL    HW1 7304   1.917   2.111   3.988
 2428SOL    HW2 7305   2.024   1.991   4.020
 2429SOL     OW 7306   3.045   3.197   3.843
 2429SOL    HW1 7307   2.946   3.186   3.845
 2429SOL    HW2 7308   3.079   3.212   3.936
 2430SOL     OW 7309   3.536   2.745   4.978
 2430SOL    HW1 7310   3.509   2.656   4.941
 2430SOL    HW2 7311   3.537   2.813   4.905
 2431SOL     OW 7312   3.087   2.187   4.173
 2431SOL    HW1 7313   3.152   2.113   4.162
 2431SOL    HW2 7314   3.107   2.237   4.257
 2432SOL     OW 7315   2.456   2.607   4.376
 2432SOL    HW1 7316   2.506   2.692   4.357
 2432SOL    HW2 7317   2.368   2.609   4.328
 2433SOL     OW 7318   2.721   3.236   3.740
 2433SOL    HW1 7319   2.675   3.251   3.828
 2433SOL    HW2 7320   2.765   3.321   3.710
 2434SOL     OW 7321   2.523   3.652   4.677
 2434SOL    HW1 7322   2.477   3.740   4.664
 2434SOL    HW2 7323   2.622   3.664   4.670
 2435SOL     OW 7324   2.721   2.818   4.585
 2435SOL    HW1 7325   2.775   2.749   4.633
 2435SOL    HW2 7326   2.689   2.887   4.651
 2436SOL     OW 7327   2.945   2.846   3.811
 2436SOL    HW1 7328   2.922   2.899   3.729
 2436SOL    HW2 7329   3.026   2.790   3.792
 2437SOL     OW 7330   3.723   3.431   4.575
 2437SOL    HW1 7331   3.652   3.419   4.505
 2437SOL    HW2 7332   3.724   3.352   4.635
 2438SOL     OW 7333   1.941   3.102   4.377
 2438SOL    HW1 7334   1.940   3.055   4.465
 2438SOL    HW2 7335   2.023   3.074   4.326
 2439SOL     OW 7336   3.686   2.054   4.951
 2439SOL    HW1 7337   3.682   1.964   4.995
 2439SOL    HW2 7338   3.689   2.043   4.852
 2440SOL     OW 7339   2.290   2.286   4.244
 2440SOL    HW1 7340   2.320   2.214   4.182
 2440SOL    HW2 7341   2.251   2.246   4.327
 2441SOL     OW 7342   2.674   3.448   4.411
 2441SOL    HW1 7343   2.706   3.458   4.317
 2441SOL    HW2 7344   2.595   3.386   4.413
 2442SOL     OW 7345   2.632   3.192   4.025
 2442SOL    HW1 7346   2.586   3.105   4.042
 2442SOL    HW2 7347   2.723   3.189   4.066
 2443SOL     OW 7348   3.214   1.914   3.892
 2443SOL    HW1 7349   3.249   1.873   3.808
 2443SOL    HW2 7350   3.124   1.876   3.912
 2444SOL     OW 7351   3.162   2.315   4.415
 2444SOL    HW1 7352   3.103   2.395   4.419
 2444SOL    HW2 7353   3.177   2.280   4.508
 2445SOL     OW 7354   3.455   2.083   4.606
 2445SOL    HW1 7355   3.371   2.082   4.660
 2445SOL    HW2 7356   3.457   2.166   4.550
 2446SOL     OW 7357   1.901   2.939   4.024
 2446SOL    HW1 7358   2.000   2.928   4.015
 2446SOL    HW2 7359   1.861   2.853   4.056
 2447SOL     OW 7360   2.737   3.508   4.061
 2447SOL    HW1 7361   2.660   3.473   4.007
 2447SOL    HW2 7362   2.705   3.579   4.123
 2448SOL     OW 7363   2.092   4.352   0.113
 2448SOL    HW1 7364   1.999   4.350   0.150
 2448SOL    HW2 7365   2.093   4.313   0.021
 2449SOL     OW 7366   2.087   3.999   0.996
 2449SOL    HW1 7367   2.122   3.982   1.088
 2449SOL    HW2 7368   1.999   3.954   0.984
 2450SOL     OW 7369   1.881   4.092   0.647
 2450SOL    HW1 7370   1.799   4.135   0.686
 2450SOL    HW2 7371   1.853   4.019   0.584
 2451SOL     OW 7372   2.997   4.427   0.717
 2451SOL    HW1 7373   3.054   4.505   0.692
 2451SOL    HW2 7374   2.937   4.453   0.793
 2452SOL     OW 7375   3.617   4.331   0.231
 2452SOL    HW1 7376   3.605   4.318   0.132
 2452SOL    HW2 7377   3.587   4.250   0.280
 2453SOL     OW 7378   2.630   4.868   1.023
 2453SOL    HW1 7379   2.552   4.885   1.083
 2453SOL    HW2 7380   2.664   4.955   0.987
 2454SOL     OW 7381   2.712   4.522   1.823
 2454SOL    HW1 7382   2.708   4.598   1.888
 2454SOL    HW2 7383   2.734   4.558   1.732
 2455SOL     OW 7384   2.547   4.736   0.665
 2455SOL    HW1 7385   2.616   4.720   0.735
 2455SOL    HW2 7386   2.474   4.793   0.703
 2456SOL     OW 7387   2.300   4.116   1.499
 2456SOL    HW1 7388   2.382   4.060   1.508
 2456SOL    HW2 7389   2.219   4.058   1.503
 2457SOL     OW 7390   3.465   4.171   0.737
 2457SOL    HW1 7391   3.391   4.217   0.687
 2457SOL    HW2 7392   3.516   4.239   0.790
 2458SOL     OW 7393   3.456   3.838   1.480
 2458SOL    HW1 7394   3.438   3.905   1.408
 2458SOL    HW2 7395   3.453   3.884   1.569
 2459SOL     OW 7396   1.984   4.367   0.563
 2459SOL    HW1 7397   1.939   4.279   0.580
 2459SOL    HW2 7398   1.983   4.421   0.647
 2460SOL     OW 7399   1.975   4.461   1.597
 2460SOL    HW1 7400   2.063   4.448   1.642
 2460SOL    HW2 7401   1.962   4.558   1.575
 2461SOL     OW 7402   2.671   3.728   0.502
 2461SOL    HW1 7403   2.711   3.819   0.493
 2461SOL    HW2 7404   2.571   3.736   0.508
 2462SOL     OW 7405   2.059   4.700   1.264
 2462SOL    HW1 7406   2.148   4.655   1.250
 2462SOL    HW2 7407   1.986   4.635   1.245
 2463SOL     OW 7408   3.387   4.723   0.190
 2463SOL    HW1 7409   3.324   4.647   0.203
 2463SOL    HW2 7410   3.435   4.741   0.276
 2464SOL     OW 7411   2.179   3.975   1.801
 2464SOL    HW1 7412   2.250   4.046   1.807
 2464SOL    HW2 7413   2.091   4.014   1.829
 2465SOL     OW 7414   2.460   4.453   0.270
 2465SOL    HW1 7415   2.484   4.522   0.202
 2465SOL    HW2 7416   2.382   4.486   0.324
 2466SOL     OW 7417   3.143   4.069   0.944
 2466SOL    HW1 7418   3.057   4.019   0.931
 2466SOL    HW2 7419   3.205   4.015   1.000
 2467SOL     OW 7420   2.669   4.329   1.465
 2467SOL    HW1 7421   2.622   4.326   1.554
 2467SOL    HW2 7422   2.618   4.274   1.399
 2468SOL     OW 7423   3.256   4.193   1.674
 2468SOL    HW1 7424   3.236   4.236   1.762
 2468SOL    HW2 7425   3.334   4.131   1.683
 2469SOL     OW 7426   2.835   4.614   1.572
 2469SOL    HW1 7427   2.881   4.530   1.543
 2469SOL    HW2 7428   2.779   4.648   1.497
 2470SOL     OW 7429   2.853   4.134   1.242
 2470SOL    HW1 7430   2.776   4.168   1.296
 2470SOL    HW2 7431   2.819   4.083   1.163
 2471SOL     OW 7432   2.903   4.425   0.429
 2471SOL    HW1 7433   2.929   4.421   0.525
 2471SOL    HW2 7434   2.818   4.374   0.415
 2472SOL     OW 7435   1.938   4.535   0.789
 2472SOL    HW1 7436   2.037   4.523   0.798
 2472SOL    HW2 7437   1.914   4.630   0.810
 2473SOL     OW 7438   2.727   4.072   0.195
 2473SOL    HW1 7439   2.786   4.135   0.146
 2473SOL    HW2 7440   2.746   3.978   0.166
 2474SOL     OW 7441   3.581   4.309   1.831
 2474SOL    HW1 7442   3.555   4.398   1.795
 2474SOL    HW2 7443   3.579   4.241   1.758
 2475SOL     OW 7444   2.412   3.920   0.885
 2475SOL    HW1 7445   2.407   3.915   0.985
 2475SOL    HW2 7446   2.414   4.016   0.856
 2476SOL     OW 7447   3.320   4.459   0.728
 2476SOL    HW1 7448   3.315   4.394   0.803
 2476SOL    HW2 7449   3.400   4.518   0.741
 2477SOL     OW 7450   2.064   4.009   1.498
 2477SOL    HW1 7451   1.984   4.069   1.485
 2477SOL    HW2 7452   2.054   3.960   1.584
 2478SOL     OW 7453   3.262   3.831   0.426
 2478SOL    HW1 7454   3.238   3.794   0.336
 2478SOL    HW2 7455   3.361   3.847   0.430
 2479SOL     OW 7456   2.244   4.424   0.480
 2479SOL    HW1 7457   2.289   4.334   0.477
 2479SOL    HW2 7458   2.150   4.413   0.513
 2480SOL     OW 7459   3.409   3.946   1.729
 2480SOL    HW1 7460   3.404   3.983   1.821
 2480SOL    HW2 7461   3.337   3.877   1.717
 2481SOL     OW 7462   2.476   3.846   0.117
 2481SOL    HW1 7463   2.574   3.824   0.124
 2481SOL    HW2 7464   2.445   3.829   0.024
 2482SOL     OW 7465   2.643   3.988   1.749
 2482SOL    HW1 7466   2.710   3.927   1.792
 2482SOL    HW2 7467   2.570   4.007   1.814
 2483SOL     OW 7468   3.213   4.314   1.433
 2483SOL    HW1 7469   3.241   4.271   1.518
 2483SOL    HW2 7470   3.238   4.410   1.434
 2484SOL     OW 7471   2.784   4.227   0.899
 2484SOL    HW1 7472   2.759   4.218   0.803
 2484SOL    HW2 7473   2.832   4.145   0.930
 2485SOL     OW 7474   2.401   3.788   0.512
 2485SOL    HW1 7475   2.320   3.789   0.570
 2485SOL    HW2 7476   2.404   3.871   0.457
 2486SOL     OW 7477   2.797   3.960   0.480
 2486SOL    HW1 7478   2.749   4.001   0.402
 2486SOL    HW2 7479   2.896   3.958   0.461
 2487SOL     OW 7480   2.938   4.407   1.464
 2487SOL    HW1 7481   2.858   4.346   1.467
 2487SOL    HW2 7482   3.019   4.354   1.440
 2488SOL     OW 7483   2.894   4.273   0.016
 2488SOL    HW1 7484   2.853   4.355  -0.023
 2488SOL    HW2 7485   2.958   4.299   0.089
 2489SOL     OW 7486   1.940   4.280   1.386
 2489SOL    HW1 7487   2.032   4.279   1.345
 2489SOL    HW2 7488   1.934   4.354   1.453
 2490SOL     OW 7489   2.423   3.946   1.147
 2490SOL    HW1 7490   2.461   3.862   1.184
 2490SOL    HW2 7491   2.335   3.965   1.191
 2491SOL     OW 7492   2.728   4.178   0.642
 2491SOL    HW1 7493   2.696   4.250   0.580
 2491SOL    HW2 7494   2.752   4.097   0.589
 2492SOL     OW 7495   2.879   3.763   0.753
 2492SOL    HW1 7496   2.807   3.768   0.684
 2492SOL    HW2 7497   2.855   3.694   0.822
 2493SOL     OW 7498   3.328   4.314   0.992
 2493SOL    HW1 7499   3.298   4.219   0.999
 2493SOL    HW2 7500   3.401   4.330   1.058
 2494SOL     OW 7501   3.719   4.557   0.377
 2494SOL    HW1 7502   3.761   4.493   0.441
 2494SOL    HW2 7503   3.681   4.506   0.299
 2495SOL     OW 7504   3.252   4.299   0.078
 2495SOL    HW1 7505   3.198   4.278   0.159
 2495SOL    HW2 7506   3.343   4.258   0.087
 2496SOL     OW 7507   2.389   3.980   0.328
 2496SOL    HW1 7508   2.416   3.921   0.253
 2496SOL    HW2 7509   2.389   4.075   0.297
 2497SOL     OW 7510   3.500   4.823   1.079
 2497SOL    HW1 7511   3.505   4.904   1.138
 2497SOL    HW2 7512   3.414   4.825   1.028
 2498SOL     OW 7513   2.777   3.813   1.402
 2498SOL    HW1 7514   2.802   3.793   1.307
 2498SOL    HW2 7515   2.849   3.869   1.444
 2499SOL     OW 7516   2.272   4.537   1.251
 2499SOL    HW1 7517   2.358   4.549   1.301
 2499SOL    HW2 7518   2.230   4.450   1.278
 2500SOL     OW 7519   3.136   4.110   1.262
 2500SOL    HW1 7520   3.157   4.184   1.326
 2500SOL    HW2 7521   3.047   4.127   1.219
 2501SOL     OW 7522   2.428   4.261   0.865
 2501SOL    HW1 7523   2.440   4.327   0.791
 2501SOL    HW2 7524   2.474   4.295   0.948
 2502SOL     OW 7525   3.444   4.363   0.472
 2502SOL    HW1 7526   3.413   4.424   0.545
 2502SOL    HW2 7527   3.494   4.415   0.403
 2503SOL     OW 7528   2.264   4.475   1.598
 2503SOL    HW1 7529   2.332   4.530   1.551
 2503SOL    HW2 7530   2.304   4.387   1.625
 2504SOL     OW 7531   3.449   4.503   1.670
 2504SOL    HW1 7532   3.357   4.541   1.665
 2504SOL    HW2 7533   3.509   4.550   1.605
 2505SOL     OW 7534   2.875   3.829   1.770
 2505SOL    HW1 7535   2.881   3.914   1.718
 2505SOL    HW2 7536   2.907   3.753   1.713
 2506SOL     OW 7537   2.366   3.774   1.740
 2506SOL    HW1 7538   2.324   3.717   1.670
 2506SOL    HW2 7539   2.300   3.843   1.772
 2507SOL     OW 7540   2.435   4.594   1.029
 2507SOL    HW1 7541   2.479   4.683   1.020
 2507SOL    HW2 7542   2.372   4.594   1.106
 2508SOL     OW 7543   3.222   4.586   1.045
 2508SOL    HW1 7544   3.147   4.586   0.979
 2508SOL    HW2 7545   3.259   4.494   1.054
 2509SOL     OW 7546   3.071   4.249   0.275
 2509SOL    HW1 7547   3.084   4.165   0.329
 2509SOL    HW2 7548   3.042   4.323   0.335
 2510SOL     OW 7549   2.169   3.937   1.231
 2510SOL    HW1 7550   2.146   3.974   1.321
 2510SOL    HW2 7551   2.139   3.842   1.225
 2511SOL     OW 7552   2.594   4.358   1.064
 2511SOL    HW1 7553   2.653   4.332   0.988
 2511SOL    HW2 7554   2.566   4.454   1.053
 2512SOL     OW 7555   3.590   4.659   1.854
 2512SOL    HW1 7556   3.544   4.652   1.765
 2512SOL    HW2 7557   3.528   4.703   1.920
 2513SOL     OW 7558   2.169   3.787   0.618
 2513SOL    HW1 7559   2.158   3.881   0.651
 2513SOL    HW2 7560   2.164   3.724   0.695
 2514SOL     OW 7561   3.484   4.091   0.374
 2514SOL    HW1 7562   3.486   4.015   0.438
 2514SOL    HW2 7563   3.436   4.168   0.414
 2515SOL     OW 7564   2.885   4.490   0.966
 2515SOL    HW1 7565   2.900   4.511   1.062
 2515SOL    HW2 7566   2.855   4.395   0.957
 2516SOL     OW 7567   2.212   4.622   1.804
 2516SOL    HW1 7568   2.288   4.666   1.852
 2516SOL    HW2 7569   2.247   4.575   1.722
 2517SOL     OW 7570   3.402   3.998   0.125
 2517SOL    HW1 7571   3.341   3.923   0.148
 2517SOL    HW2 7572   3.424   4.050   0.208
 2518SOL     OW 7573   3.165   4.562   0.042
 2518SOL    HW1 7574   3.199   4.469   0.057
 2518SOL    HW2 7575   3.183   4.589  -0.053
 2519SOL     OW 7576   2.181   4.534   0.949
 2519SOL    HW1 7577   2.274   4.570   0.954
 2519SOL    HW2 7578   2.175   4.449   1.001
 2520SOL     OW 7579   2.201   4.233   1.006
 2520SOL    HW1 7580   2.149   4.150   0.989
 2520SOL    HW2 7581   2.278   4.238   0.942
 2521SOL     OW 7582   3.000   4.104   1.678
 2521SOL    HW1 7583   2.955   4.167   1.742
 2521SOL    HW2 7584   3.093   4.135   1.661
 2522SOL     OW 7585   3.022   3.931   1.477
 2522SOL    HW1 7586   3.022   3.995   1.554
 2522SOL    HW2 7587   3.050   3.979   1.394
 2523SOL     OW 7588   2.864   4.520   1.238
 2523SOL    HW1 7589   2.905   4.488   1.324
 2523SOL    HW2 7590   2.768   4.493   1.235
 2524SOL     OW 7591   1.902   4.268   1.114
 2524SOL    HW1 7592   1.987   4.235   1.073
 2524SOL    HW2 7593   1.915   4.283   1.212
 2525SOL     OW 7594   2.051   4.244   1.722
 2525SOL    HW1 7595   2.110   4.204   1.652
 2525SOL    HW2 7596   1.993   4.315   1.681
 2526SOL     OW 7597   3.231   4.674   1.660
 2526SOL    HW1 7598   3.270   4.763   1.680
 2526SOL    HW2 7599   3.241   4.654   1.563
 2527SOL     OW 7600   2.677   4.296   0.325
 2527SOL    HW1 7601   2.684   4.207   0.279
 2527SOL    HW2 7602   2.583   4.330   0.317
 2528SOL     OW 7603   3.519   4.328   1.206
 2528SOL    HW1 7604   3.481   4.259   1.268
 2528SOL    HW2 7605   3.601   4.292   1.162
 2529SOL     OW 7606   2.533   4.188   1.269
 2529SOL    HW1 7607   2.499   4.099   1.239
 2529SOL    HW2 7608   2.559   4.242   1.189
 2530SOL     OW 7609   2.335   4.224   0.191
 2530SOL    HW1 7610   2.396   4.304   0.195
 2530SOL    HW2 7611   2.240   4.255   0.198
 2531SOL     OW 7612   2.021   4.861   1.466
 2531SOL    HW1 7613   2.043   4.800   1.542
 2531SOL    HW2 7614   2.031   4.812   1.380
 2532SOL     OW 7615   3.209   4.783   1.234
 2532SOL    HW1 7616   3.233   4.720   1.160
 2532SOL    HW2 7617   3.119   4.823   1.216
 2533SOL     OW 7618   3.164   4.579   0.309
 2533SOL    HW1 7619   3.078   4.548   0.351
 2533SOL    HW2 7620   3.160   4.565   0.210
 2534SOL     OW 7621   2.765   3.810   0.133
 2534SOL    HW1 7622   2.816   3.811   0.047
 2534SOL    HW2 7623   2.821   3.768   0.204
 2535SOL     OW 7624   3.588   3.859   0.523
 2535SOL    HW1 7625   3.661   3.842   0.456
 2535SOL    HW2 7626   3.557   3.772   0.561
 2536SOL     OW 7627   3.142   4.651   0.672
 2536SOL    HW1 7628   3.202   4.570   0.674
 2536SOL    HW2 7629   3.182   4.720   0.612
 2537SOL     OW 7630   3.703   3.899   0.963
 2537SOL    HW1 7631   3.742   3.814   0.927
 2537SOL    HW2 7632   3.605   3.901   0.944
 2538SOL     OW 7633   2.125   4.050   0.720
 2538SOL    HW1 7634   2.046   4.101   0.686
 2538SOL    HW2 7635   2.116   4.035   0.818
 2539SOL     OW 7636   2.778   4.634   0.291
 2539SOL    HW1 7637   2.841   4.672   0.223
 2539SOL    HW2 7638   2.818   4.551   0.330
 2540SOL     OW 7639   2.876   3.960   0.971
 2540SOL    HW1 7640   2.868   3.924   0.878
 2540SOL    HW2 7641   2.874   3.884   1.036
 2541SOL     OW 7642   3.571   4.109   1.381
 2541SOL    HW1 7643   3.644   4.178   1.385
 2541SOL    HW2 7644   3.599   4.034   1.322
 2542SOL     OW 7645   1.967   4.737   1.726
 2542SOL    HW1 7646   1.890   4.704   1.780
 2542SOL    HW2 7647   2.052   4.707   1.768
 2543SOL     OW 7648   2.534   3.927   1.489
 2543SOL    HW1 7649   2.624   3.911   1.449
 2543SOL    HW2 7650   2.542   3.932   1.588
 2544SOL     OW 7651   1.937   4.069   0.033
 2544SOL    HW1 7652   1.845   4.041   0.004
 2544SOL    HW2 7653   1.968   4.146  -0.023
 2545SOL     OW 7654   3.302   4.580   1.398
 2545SOL    HW1 7655   3.245   4.632   1.335
 2545SOL    HW2 7656   3.398   4.592   1.374
 2546SOL     OW 7657   2.475   4.566   1.431
 2546SOL    HW1 7658   2.531   4.647   1.414
 2546SOL    HW2 7659   2.534   4.486   1.434
 2547SOL     OW 7660   2.578   4.289   1.708
 2547SOL    HW1 7661   2.597   4.354   1.782
 2547SOL    HW2 7662   2.638   4.209   1.717
 2548SOL     OW 7663   3.536   4.607   1.254
 2548SOL    HW1 7664   3.509   4.518   1.217
 2548SOL    HW2 7665   3.537   4.675   1.181
 2549SOL     OW 7666   3.087   4.049   0.449
 2549SOL    HW1 7667   3.152   3.975   0.438
 2549SOL    HW2 7668   3.107   4.099   0.533
 2550SOL     OW 7669   2.456   4.469   0.652
 2550SOL    HW1 7670   2.506   4.554   0.633
 2550SOL    HW2 7671   2.368   4.471   0.604
 2551SOL     OW 7672   3.639   4.066   1.642
 2551SOL    HW1 7673   3.622   4.097   1.548
 2551SOL    HW2 7674   3.555   4.029   1.680
 2552SOL     OW 7675   3.592   4.658   1.517
 2552SOL    HW1 7676   3.630   4.749   1.532
 2552SOL    HW2 7677   3.584   4.641   1.418
 2553SOL     OW 7678   2.945   4.708   0.087
 2553SOL    HW1 7679   2.922   4.761   0.005
 2553SOL    HW2 7680   3.026   4.652   0.068
 2554SOL     OW 7681   3.686   3.916   1.227
 2554SOL    HW1 7682   3.682   3.826   1.271
 2554SOL    HW2 7683   3.689   3.905   1.128
 2555SOL     OW 7684   2.290   4.148   0.520
 2555SOL    HW1 7685   2.320   4.076   0.458
 2555SOL    HW2 7686   2.251   4.108   0.603
 2556SOL     OW 7687   2.179   4.271   1.280
 2556SOL    HW1 7688   2.217   4.212   1.352
 2556SOL    HW2 7689   2.219   4.245   1.192
 2557SOL     OW 7690   3.286   3.938   1.112
 2557SOL    HW1 7691   3.338   3.873   1.167
 2557SOL    HW2 7692   3.237   4.001   1.173
 2558SOL     OW 7693   2.863   3.758   1.154
 2558SOL    HW1 7694   2.800   3.686   1.123
 2558SOL    HW2 7695   2.956   3.722   1.154
 2559SOL     OW 7696   3.214   3.776   0.168
 2559SOL    HW1 7697   3.249   3.735   0.084
 2559SOL    HW2 7698   3.124   3.738   0.188
 2560SOL     OW 7699   3.162   4.177   0.691
 2560SOL    HW1 7700   3.103   4.257   0.695
 2560SOL    HW2 7701   3.177   4.142   0.784
 2561SOL     OW 7702   3.455   3.945   0.882
 2561SOL    HW1 7703   3.371   3.944   0.936
 2561SOL    HW2 7704   3.457   4.028   0.826
 2562SOL     OW 7705   2.092   4.352   1.975
 2562SOL    HW1 7706   1.999   4.350   2.012
 2562SOL    HW2 7707   2.093   4.313   1.883
 2563SOL     OW 7708   2.087   3.999   2.858
 2563SOL    HW1 7709   2.122   3.982   2.950
 2563SOL    HW2 7710   1.999   3.954   2.846
 2564SOL     OW 7711   1.881   4.092   2.509
 2564SOL    HW1 7712   1.799   4.135   2.548
 2564SOL    HW2 7713   1.853   4.019   2.446
 2565SOL     OW 7714   2.997   4.427   2.579
 2565SOL    HW1 7715   3.054   4.505   2.554
 2565SOL    HW2 7716   2.937   4.453   2.655
 2566SOL     OW 7717   3.617   4.331   2.093
 2566SOL    HW1 7718   3.605   4.318   1.994
 2566SOL    HW2 7719   3.587   4.250   2.142
 2567SOL     OW 7720   2.630   4.868   2.885
 2567SOL    HW1 7721   2.552   4.885   2.945
 2567SOL    HW2 7722   2.664   4.955   2.849
 2568SOL     OW 7723   2.712   4.522   3.685
 2568SOL    HW1 7724   2.708   4.598   3.750
 2568SOL    HW2 7725   2.734   4.558   3.594
 2569SOL     OW 7726   2.547   4.736   2.527
 2569SOL    HW1 7727   2.616   4.720   2.597
 2569SOL    HW2 7728   2.474   4.793   2.565
 2570SOL     OW 7729   2.300   4.116   3.361
 2570SOL    HW1 7730   2.382   4.060   3.370
 2570SOL    HW2 7731   2.219   4.058   3.365
 2571SOL     OW 7732   3.465   4.171   2.599
 2571SOL    HW1 7733   3.391   4.217   2.549
 2571SOL    HW2 7734   3.516   4.239   2.652
 2572SOL     OW 7735   3.456   3.838   3.342
 2572SOL    HW1 7736   3.438   3.905   3.270
 2572SOL    HW2 7737   3.453   3.884   3.431
 2573SOL     OW 7738   1.984   4.367   2.425
 2573SOL    HW1 7739   1.939   4.279   2.442
 2573SOL    HW2 7740   1.983   4.421   2.509
 2574SOL     OW 7741   1.975   4.461   3.459
 2574SOL    HW1 7742   2.063   4.448   3.504
 2574SOL    HW2 7743   1.962   4.558   3.437
 2575SOL     OW 7744   2.671   3.728   2.364
 2575SOL    HW1 7745   2.711   3.819   2.355
 2575SOL    HW2 7746   2.571   3.736   2.370
 2576SOL     OW 7747   2.059   4.700   3.126
 2576SOL    HW1 7748   2.148   4.655   3.112
 2576SOL    HW2 7749   1.986   4.635   3.107
 2577SOL     OW 7750   3.387   4.723   2.052
 2577SOL    HW1 7751   3.324   4.647   2.065
 2577SOL    HW2 7752   3.435   4.741   2.138
 2578SOL     OW 7753   2.179   3.975   3.663
 2578SOL    HW1 7754   2.250   4.046   3.669
 2578SOL    HW2 7755   2.091   4.014   3.691
 2579SOL     OW 7756   2.460   4.453   2.132
 2579SOL    HW1 7757   2.484   4.522   2.064
 2579SOL    HW2 7758   2.382   4.486   2.186
 2580SOL     OW 7759   3.143   4.069   2.806
 2580SOL    HW1 7760   3.057   4.019   2.793
 2580SOL    HW2 7761   3.205   4.015   2.862
 2581SOL     OW 7762   2.669   4.329   3.327
 2581SOL    HW1 7763   2.622   4.326   3.416
 2581SOL    HW2 7764   2.618   4.274   3.261
 2582SOL     OW 7765   3.256   4.193   3.536
 2582SOL    HW1 7766   3.236   4.236   3.624
 2582SOL    HW2 7767   3.334   4.131   3.545
 2583SOL     OW 7768   2.835   4.614   3.434
 2583SOL    HW1 7769   2.881   4.530   3.405
 2583SOL    HW2 7770   2.779   4.648   3.359
 2584SOL     OW 7771   2.853   4.134   3.104
 2584SOL    HW1 7772   2.776   4.168   3.158
 2584SOL    HW2 7773   2.819   4.083   3.025
 2585SOL     OW 7774   2.903   4.425   2.291
 2585SOL    HW1 7775   2.929   4.421   2.387
 2585SOL    HW2 7776   2.818   4.374   2.277
 2586SOL     OW 7777   1.938   4.535   2.651
 2586SOL    HW1 7778   2.037   4.523   2.660
 2586SOL    HW2 7779   1.914   4.630   2.672
 2587SOL     OW 7780   2.727   4.072   2.057
 2587SOL    HW1 7781   2.786   4.135   2.008
 2587SOL    HW2 7782   2.746   3.978   2.028
 2588SOL     OW 7783   3.581   4.309   3.693
 2588SOL    HW1 7784   3.555   4.398   3.657
 2588SOL    HW2 7785   3.579   4.241   3.620
 2589SOL     OW 7786   2.412   3.920   2.747
 2589SOL    HW1 7787   2.407   3.915   2.847
 2589SOL    HW2 7788   2.414   4.016   2.718
 2590SOL     OW 7789   3.320   4.459   2.590
 2590SOL    HW1 7790   3.315   4.394   2.665
 2590SOL    HW2 7791   3.400   4.518   2.603
 2591SOL     OW 7792   2.064   4.009   3.360
 2591SOL    HW1 7793   1.984   4.069   3.347
 2591SOL    HW2 7794   2.054   3.960   3.446
 2592SOL     OW 7795   3.262   3.831   2.288
 2592SOL    HW1 7796   3.238   3.794   2.198
 2592SOL    HW2 7797   3.361   3.847   2.292
 2593SOL     OW 7798   2.244   4.424   2.342
 2593SOL    HW1 7799   2.289   4.334   2.339
 2593SOL    HW2 7800   2.150   4.413   2.375
 2594SOL     OW 7801   3.409   3.946   3.591
 2594SOL    HW1 7802   3.404   3.983   3.683
 2594SOL    HW2 7803   3.337   3.877   3.579
 2595SOL     OW 7804   2.476   3.846   1.979
 2595SOL    HW1 7805   2.574   3.824   1.986
 2595SOL    HW2 7806   2.445   3.829   1.886
 2596SOL     OW 7807   2.643   3.988   3.611
 2596SOL    HW1 7808   2.710   3.927   3.654
 2596SOL    HW2 7809   2.570   4.007   3.676
 2597SOL     OW 7810   3.213   4.314   3.295
 2597SOL    HW1 7811   3.241   4.271   3.380
 2597SOL    HW2 7812   3.238   4.410   3.296
 2598SOL     OW 7813   2.784   4.227   2.761
 2598SOL    HW1 7814   2.759   4.218   2.665
 2598SOL    HW2 7815   2.832   4.145   2.792
 2599SOL     OW 7816   2.401   3.788   2.374
 2599SOL    HW1 7817   2.320   3.789   2.432
 2599SOL    HW2 7818   2.404   3.871   2.319
 2600SOL     OW 7819   2.159   3.759   2.033
 2600SOL    HW1 7820   2.208   3.843   2.012
 2600SOL    HW2 7821   2.221   3.694   2.078
 2601SOL     OW 7822   2.797   3.960   2.342
 2601SOL    HW1 7823   2.749   4.001   2.264
 2601SOL    HW2 7824   2.896   3.958   2.323
 2602SOL     OW 7825   2.938   4.407   3.326
 2602SOL    HW1 7826   2.858   4.346   3.329
 2602SOL    HW2 7827   3.019   4.354   3.302
 2603SOL     OW 7828   2.894   4.273   1.878
 2603SOL    HW1 7829   2.853   4.355   1.839
 2603SOL    HW2 7830   2.958   4.299   1.951
 2604SOL     OW 7831   1.940   4.280   3.248
 2604SOL    HW1 7832   2.032   4.279   3.207
 2604SOL    HW2 7833   1.934   4.354   3.315
 2605SOL     OW 7834   2.423   3.946   3.009
 2605SOL    HW1 7835   2.461   3.862   3.046
 2605SOL    HW2 7836   2.335   3.965   3.053
 2606SOL     OW 7837   2.728   4.178   2.504
 2606SOL    HW1 7838   2.696   4.250   2.442
 2606SOL    HW2 7839   2.752   4.097   2.451
 2607SOL     OW 7840   2.879   3.763   2.615
 2607SOL    HW1 7841   2.807   3.768   2.546
 2607SOL    HW2 7842   2.855   3.694   2.684
 2608SOL     OW 7843   3.328   4.314   2.854
 2608SOL    HW1 7844   3.298   4.219   2.861
 2608SOL    HW2 7845   3.401   4.330   2.920
 2609SOL     OW 7846   3.719   4.557   2.239
 2609SOL    HW1 7847   3.761   4.493   2.303
 2609SOL    HW2 7848   3.681   4.506   2.161
 2610SOL     OW 7849   3.252   4.299   1.940
 2610SOL    HW1 7850   3.198   4.278   2.021
 2610SOL    HW2 7851   3.343   4.258   1.949
 2611SOL     OW 7852   2.389   3.980   2.190
 2611SOL    HW1 7853   2.416   3.921   2.115
 2611SOL    HW2 7854   2.389   4.075   2.159
 2612SOL     OW 7855   3.500   4.823   2.941
 2612SOL    HW1 7856   3.505   4.904   3.000
 2612SOL    HW2 7857   3.414   4.825   2.890
 2613SOL     OW 7858   2.777   3.813   3.264
 2613SOL    HW1 7859   2.802   3.793   3.169
 2613SOL    HW2 7860   2.849   3.869   3.306
 2614SOL     OW 7861   2.272   4.537   3.113
 2614SOL    HW1 7862   2.358   4.549   3.163
 2614SOL    HW2 7863   2.230   4.450   3.140
 2615SOL     OW 7864   3.136   4.110   3.124
 2615SOL    HW1 7865   3.157   4.184   3.188
 2615SOL    HW2 7866   3.047   4.127   3.081
 2616SOL     OW 7867   2.428   4.261   2.727
 2616SOL    HW1 7868   2.440   4.327   2.653
 2616SOL    HW2 7869   2.474   4.295   2.810
 2617SOL     OW 7870   3.444   4.363   2.334
 2617SOL    HW1 7871   3.413   4.424   2.407
 2617SOL    HW2 7872   3.494   4.415   2.265
 2618SOL     OW 7873   2.264   4.475   3.460
 2618SOL    HW1 7874   2.332   4.530   3.413
 2618SOL    HW2 7875   2.304   4.387   3.487
 2619SOL     OW 7876   3.449   4.503   3.532
 2619SOL    HW1 7877   3.357   4.541   3.527
 2619SOL    HW2 7878   3.509   4.550   3.467
 2620SOL     OW 7879   2.875   3.829   3.632
 2620SOL    HW1 7880   2.881   3.914   3.580
 2620SOL    HW2 7881   2.907   3.753   3.575
 2621SOL     OW 7882   2.366   3.774   3.602
 2621SOL    HW1 7883   2.324   3.717   3.532
 2621SOL    HW2 7884   2.300   3.843   3.634
 2622SOL     OW 7885   2.435   4.594   2.891
 2622SOL    HW1 7886   2.479   4.683   2.882
 2622SOL    HW2 7887   2.372   4.594   2.968
 2623SOL     OW 7888   3.222   4.586   2.907
 2623SOL    HW1 7889   3.147   4.586   2.841
 2623SOL    HW2 7890   3.259   4.494   2.916
 2624SOL     OW 7891   3.071   4.249   2.137
 2624SOL    HW1 7892   3.084   4.165   2.191
 2624SOL    HW2 7893   3.042   4.323   2.197
 2625SOL     OW 7894   2.169   3.937   3.093
 2625SOL    HW1 7895   2.146   3.974   3.183
 2625SOL    HW2 7896   2.139   3.842   3.087
 2626SOL     OW 7897   2.594   4.358   2.926
 2626SOL    HW1 7898   2.653   4.332   2.850
 2626SOL    HW2 7899   2.566   4.454   2.915
 2627SOL     OW 7900   3.590   4.659   3.716
 2627SOL    HW1 7901   3.544   4.652   3.627
 2627SOL    HW2 7902   3.528   4.703   3.782
 2628SOL     OW 7903   2.169   3.787   2.480
 2628SOL    HW1 7904   2.158   3.881   2.513
 2628SOL    HW2 7905   2.164   3.724   2.557
 2629SOL     OW 7906   3.484   4.091   2.236
 2629SOL    HW1 7907   3.486   4.015   2.300
 2629SOL    HW2 7908   3.436   4.168   2.276
 2630SOL     OW 7909   2.885   4.490   2.828
 2630SOL    HW1 7910   2.900   4.511   2.924
 2630SOL    HW2 7911   2.855   4.395   2.819
 2631SOL     OW 7912   2.212   4.622   3.666
 2631SOL    HW1 7913   2.288   4.666   3.714
 2631SOL    HW2 7914   2.247   4.575   3.584
 2632SOL     OW 7915   3.402   3.998   1.987
 2632SOL    HW1 7916   3.341   3.923   2.010
 2632SOL    HW2 7917   3.424   4.050   2.070
 2633SOL     OW 7918   3.165   4.562   1.904
 2633SOL    HW1 7919   3.199   4.469   1.919
 2633SOL    HW2 7920   3.183   4.589   1.809
 2634SOL     OW 7921   2.181   4.534   2.811
 2634SOL    HW1 7922   2.274   4.570   2.816
 2634SOL    HW2 7923   2.175   4.449   2.863
 2635SOL     OW 7924   2.201   4.233   2.868
 2635SOL    HW1 7925   2.149   4.150   2.851
 2635SOL    HW2 7926   2.278   4.238   2.804
 2636SOL     OW 7927   3.000   4.104   3.540
 2636SOL    HW1 7928   2.955   4.167   3.604
 2636SOL    HW2 7929   3.093   4.135   3.523
 2637SOL     OW 7930   3.022   3.931   3.339
 2637SOL    HW1 7931   3.022   3.995   3.416
 2637SOL    HW2 7932   3.050   3.979   3.256
 2638SOL     OW 7933   2.864   4.520   3.100
 2638SOL    HW1 7934   2.905   4.488   3.186
 2638SOL    HW2 7935   2.768   4.493   3.097
 2639SOL     OW 7936   1.902   4.268   2.976
 2639SOL    HW1 7937   1.987   4.235   2.935
 2639SOL    HW2 7938   1.915   4.283   3.074
 2640SOL     OW 7939   2.051   4.244   3.584
 2640SOL    HW1 7940   2.110   4.204   3.514
 2640SOL    HW2 7941   1.993   4.315   3.543
 2641SOL     OW 7942   3.231   4.674   3.522
 2641SOL    HW1 7943   3.270   4.763   3.542
 2641SOL    HW2 7944   3.241   4.654   3.425
 2642SOL     OW 7945   2.677   4.296   2.187
 2642SOL    HW1 7946   2.684   4.207   2.141
 2642SOL    HW2 7947   2.583   4.330   2.179
 2643SOL     OW 7948   3.519   4.328   3.068
 2643SOL    HW1 7949   3.481   4.259   3.130
 2643SOL    HW2 7950   3.601   4.292   3.024
 2644SOL     OW 7951   2.533   4.188   3.131
 2644SOL    HW1 7952   2.499   4.099   3.101
 2644SOL    HW2 7953   2.559   4.242   3.051
 2645SOL     OW 7954   2.335   4.224   2.053
 2645SOL    HW1 7955   2.396   4.304   2.057
 2645SOL    HW2 7956   2.240   4.255   2.060
 2646SOL     OW 7957   2.021   4.861   3.328
 2646SOL    HW1 7958   2.043   4.800   3.404
 2646SOL    HW2 7959   2.031   4.812   3.242
 2647SOL     OW 7960   3.209   4.783   3.096
 2647SOL    HW1 7961   3.233   4.720   3.022
 2647SOL    HW2 7962   3.119   4.823   3.078
 2648SOL     OW 7963   3.164   4.579   2.171
 2648SOL    HW1 7964   3.078   4.548   2.213
 2648SOL    HW2 7965   3.160   4.565   2.072
 2649SOL     OW 7966   3.588   3.859   2.385
 2649SOL    HW1 7967   3.661   3.842   2.318
 2649SOL    HW2 7968   3.557   3.772   2.423
 2650SOL     OW 7969   3.142   4.651   2.534
 2650SOL    HW1 7970   3.202   4.570   2.536
 2650SOL    HW2 7971   3.182   4.720   2.474
 2651SOL     OW 7972   3.703   3.899   2.825
 2651SOL    HW1 7973   3.742   3.814   2.789
 2651SOL    HW2 7974   3.605   3.901   2.806
 2652SOL     OW 7975   2.125   4.050   2.582
 2652SOL    HW1 7976   2.046   4.101   2.548
 2652SOL    HW2 7977   2.116   4.035   2.680
 2653SOL     OW 7978   2.778   4.634   2.153
 2653SOL    HW1 7979   2.841   4.672   2.085
 2653SOL    HW2 7980   2.818   4.551   2.192
 2654SOL     OW 7981   2.876   3.960   2.833
 2654SOL    HW1 7982   2.868   3.924   2.740
 2654SOL    HW2 7983   2.874   3.884   2.898
 2655SOL     OW 7984   3.571   4.109   3.243
 2655SOL    HW1 7985   3.644   4.178   3.247
 2655SOL    HW2 7986   3.599   4.034   3.184
 2656SOL     OW 7987   1.967   4.737   3.588
 2656SOL    HW1 7988   1.890   4.704   3.642
 2656SOL    HW2 7989   2.052   4.707   3.630
 2657SOL     OW 7990   2.534   3.927   3.351
 2657SOL    HW1 7991   2.624   3.911   3.311
 2657SOL    HW2 7992   2.542   3.932   3.450
 2658SOL     OW 7993   1.937   4.069   1.895
 2658SOL    HW1 7994   1.845   4.041   1.866
 2658SOL    HW2 7995   1.968   4.146   1.839
 2659SOL     OW 7996   3.302   4.580   3.260
 2659SOL    HW1 7997   3.245   4.632   3.197
 2659SOL    HW2 7998   3.398   4.592   3.236
 2660SOL     OW 7999   1.934   3.890   2.180
 2660SOL    HW1 8000   1.917   3.973   2.126
 2660SOL    HW2 8001   2.024   3.853   2.158
 2661SOL     OW 8002   2.475   4.566   3.293
 2661SOL    HW1 8003   2.531   4.647   3.276
 2661SOL    HW2 8004   2.534   4.486   3.296
 2662SOL     OW 8005   2.578   4.289   3.570
 2662SOL    HW1 8006   2.597   4.354   3.644
 2662SOL    HW2 8007   2.638   4.209   3.579
 2663SOL     OW 8008   3.536   4.607   3.116
 2663SOL    HW1 8009   3.509   4.518   3.079
 2663SOL    HW2 8010   3.537   4.675   3.043
 2664SOL     OW 8011   3.087   4.049   2.311
 2664SOL    HW1 8012   3.152   3.975   2.300
 2664SOL    HW2 8013   3.107   4.099   2.395
 2665SOL     OW 8014   2.456   4.469   2.514
 2665SOL    HW1 8015   2.506   4.554   2.495
 2665SOL    HW2 8016   2.368   4.471   2.466
 2666SOL     OW 8017   3.639   4.066   3.504
 2666SOL    HW1 8018   3.622   4.097   3.410
 2666SOL    HW2 8019   3.555   4.029   3.542
 2667SOL     OW 8020   3.592   4.658   3.379
 2667SOL    HW1 8021   3.630   4.749   3.394
 2667SOL    HW2 8022   3.584   4.641   3.280
 2668SOL     OW 8023   3.686   3.916   3.089
 2668SOL    HW1 8024   3.682   3.826   3.133
 2668SOL    HW2 8025   3.689   3.905   2.990
 2669SOL     OW 8026   2.290   4.148   2.382
 2669SOL    HW1 8027   2.320   4.076   2.320
 2669SOL    HW2 8028   2.251   4.108   2.465
 2670SOL     OW 8029   2.179   4.271   3.142
 2670SOL    HW1 8030   2.217   4.212   3.214
 2670SOL    HW2 8031   2.219   4.245   3.054
 2671SOL     OW 8032   3.286   3.938   2.974
 2671SOL    HW1 8033   3.338   3.873   3.029
 2671SOL    HW2 8034   3.237   4.001   3.035
 2672SOL     OW 8035   2.863   3.758   3.016
 2672SOL    HW1 8036   2.800   3.686   2.985
 2672SOL    HW2 8037   2.956   3.722   3.016
 2673SOL     OW 8038   3.214   3.776   2.030
 2673SOL    HW1 8039   3.249   3.735   1.946
 2673SOL    HW2 8040   3.124   3.738   2.050
 2674SOL     OW 8041   3.162   4.177   2.553
 2674SOL    HW1 8042   3.103   4.257   2.557
 2674SOL    HW2 8043   3.177   4.142   2.646
 2675SOL     OW 8044   3.455   3.945   2.744
 2675SOL    HW1 8045   3.371   3.944   2.798
 2675SOL    HW2 8046   3.457   4.028   2.688
 2676SOL     OW 8047   2.092   4.352   3.837
 2676SOL    HW1 8048   1.999   4.350   3.874
 2676SOL    HW2 8049   2.093   4.313   3.745
 2677SOL     OW 8050   2.087   3.999   4.720
 2677SOL    HW1 8051   2.122   3.982   4.812
 2677SOL    HW2 8052   1.999   3.954   4.708
 2678SOL     OW 8053   1.881   4.092   4.371
 2678SOL    HW1 8054   1.799   4.135   4.410
 2678SOL    HW2 8055   1.853   4.019   4.308
 2679SOL     OW 8056   2.997   4.427   4.441
 2679SOL    HW1 8057   3.054   4.505   4.416
 2679SOL    HW2 8058   2.937   4.453   4.517
 2680SOL     OW 8059   3.617   4.331   3.955
 2680SOL    HW1 8060   3.605   4.318   3.856
 2680SOL    HW2 8061   3.587   4.250   4.004
 2681SOL     OW 8062   2.547   4.736   4.389
 2681SOL    HW1 8063   2.616   4.720   4.459
 2681SOL    HW2 8064   2.474   4.793   4.427
 2682SOL     OW 8065   3.465   4.171   4.461
 2682SOL    HW1 8066   3.391   4.217   4.411
 2682SOL    HW2 8067   3.516   4.239   4.514
 2683SOL     OW 8068   1.984   4.367   4.287
 2683SOL    HW1 8069   1.939   4.279   4.304
 2683SOL    HW2 8070   1.983   4.421   4.371
 2684SOL     OW 8071   2.475   5.089   4.450
 2684SOL    HW1 8072   2.426   5.002   4.459
 2684SOL    HW2 8073   2.452   5.132   4.363
 2685SOL     OW 8074   2.671   3.728   4.226
 2685SOL    HW1 8075   2.711   3.819   4.217
 2685SOL    HW2 8076   2.571   3.736   4.232
 2686SOL     OW 8077   3.387   4.723   3.914
 2686SOL    HW1 8078   3.324   4.647   3.927
 2686SOL    HW2 8079   3.435   4.741   4.000
 2687SOL     OW 8080   2.460   4.453   3.994
 2687SOL    HW1 8081   2.484   4.522   3.926
 2687SOL    HW2 8082   2.382   4.486   4.048
 2688SOL     OW 8083   3.143   4.069   4.668
 2688SOL    HW1 8084   3.057   4.019   4.655
 2688SOL    HW2 8085   3.205   4.015   4.724
 2689SOL     OW 8086   2.903   4.425   4.153
 2689SOL    HW1 8087   2.929   4.421   4.249
 2689SOL    HW2 8088   2.818   4.374   4.139
 2690SOL     OW 8089   1.938   4.535   4.513
 2690SOL    HW1 8090   2.037   4.523   4.522
 2690SOL    HW2 8091   1.914   4.630   4.534
 2691SOL     OW 8092   2.727   4.072   3.919
 2691SOL    HW1 8093   2.786   4.135   3.870
 2691SOL    HW2 8094   2.746   3.978   3.890
 2692SOL     OW 8095   3.320   4.459   4.452
 2692SOL    HW1 8096   3.315   4.394   4.527
 2692SOL    HW2 8097   3.400   4.518   4.465
 2693SOL     OW 8098   3.262   3.831   4.150
 2693SOL    HW1 8099   3.238   3.794   4.060
 2693SOL    HW2 8100   3.361   3.847   4.154
 2694SOL     OW 8101   2.244   4.424   4.204
 2694SOL    HW1 8102   2.289   4.334   4.201
 2694SOL    HW2 8103   2.150   4.413   4.237
 2695SOL     OW 8104   2.476   3.846   3.841
 2695SOL    HW1 8105   2.574   3.824   3.848
 2695SOL    HW2 8106   2.445   3.829   3.748
 2696SOL     OW 8107   2.784   4.227   4.623
 2696SOL    HW1 8108   2.759   4.218   4.527
 2696SOL    HW2 8109   2.832   4.145   4.654
 2697SOL     OW 8110   2.401   3.788   4.236
 2697SOL    HW1 8111   2.320   3.789   4.294
 2697SOL    HW2 8112   2.404   3.871   4.181
 2698SOL     OW 8113   2.159   3.759   3.895
 2698SOL    HW1 8114   2.208   3.843   3.874
 2698SOL    HW2 8115   2.221   3.694   3.940
 2699SOL     OW 8116   2.797   3.960   4.204
 2699SOL    HW1 8117   2.749   4.001   4.126
 2699SOL    HW2 8118   2.896   3.958   4.185
 2700SOL     OW 8119   2.894   4.273   3.740
 2700SOL    HW1 8120   2.853   4.355   3.701
 2700SOL    HW2 8121   2.958   4.299   3.813
 2701SOL     OW 8122   2.728   4.178   4.366
 2701SOL    HW1 8123   2.696   4.250   4.304
 2701SOL    HW2 8124   2.752   4.097   4.313
 2702SOL     OW 8125   2.879   3.763   4.477
 2702SOL    HW1 8126   2.807   3.768   4.408
 2702SOL    HW2 8127   2.855   3.694   4.546
 2703SOL     OW 8128   3.719   4.557   4.101
 2703SOL    HW1 8129   3.761   4.493   4.165
 2703SOL    HW2 8130   3.681   4.506   4.023
 2704SOL     OW 8131   3.252   4.299   3.802
 2704SOL    HW1 8132   3.198   4.278   3.883
 2704SOL    HW2 8133   3.343   4.258   3.811
 2705SOL     OW 8134   2.389   3.980   4.052
 2705SOL    HW1 8135   2.416   3.921   3.977
 2705SOL    HW2 8136   2.389   4.075   4.021
 2706SOL     OW 8137   2.973   4.919   4.824
 2706SOL    HW1 8138   2.933   4.963   4.905
 2706SOL    HW2 8139   2.932   4.956   4.741
 2707SOL     OW 8140   3.500   4.823   4.803
 2707SOL    HW1 8141   3.505   4.904   4.862
 2707SOL    HW2 8142   3.414   4.825   4.752
 2708SOL     OW 8143   2.428   4.261   4.589
 2708SOL    HW1 8144   2.440   4.327   4.515
 2708SOL    HW2 8145   2.474   4.295   4.672
 2709SOL     OW 8146   3.444   4.363   4.196
 2709SOL    HW1 8147   3.413   4.424   4.269
 2709SOL    HW2 8148   3.494   4.415   4.127
 2710SOL     OW 8149   2.435   4.594   4.753
 2710SOL    HW1 8150   2.479   4.683   4.744
 2710SOL    HW2 8151   2.372   4.594   4.830
 2711SOL     OW 8152   3.071   4.249   3.999
 2711SOL    HW1 8153   3.084   4.165   4.053
 2711SOL    HW2 8154   3.042   4.323   4.059
 2712SOL     OW 8155   2.169   3.937   4.955
 2712SOL    HW1 8156   2.146   3.974   5.045
 2712SOL    HW2 8157   2.139   3.842   4.949
 2713SOL     OW 8158   2.594   4.358   4.788
 2713SOL    HW1 8159   2.653   4.332   4.712
 2713SOL    HW2 8160   2.566   4.454   4.777
 2714SOL     OW 8161   2.169   3.787   4.342
 2714SOL    HW1 8162   2.158   3.881   4.375
 2714SOL    HW2 8163   2.164   3.724   4.419
 2715SOL     OW 8164   3.484   4.091   4.098
 2715SOL    HW1 8165   3.486   4.015   4.162
 2715SOL    HW2 8166   3.436   4.168   4.138
 2716SOL     OW 8167   3.402   3.998   3.849
 2716SOL    HW1 8168   3.341   3.923   3.872
 2716SOL    HW2 8169   3.424   4.050   3.932
 2717SOL     OW 8170   3.165   4.562   3.766
 2717SOL    HW1 8171   3.199   4.469   3.781
 2717SOL    HW2 8172   3.183   4.589   3.671
 2718SOL     OW 8173   2.181   4.534   4.673
 2718SOL    HW1 8174   2.274   4.570   4.678
 2718SOL    HW2 8175   2.175   4.449   4.725
 2719SOL     OW 8176   2.677   4.296   4.049
 2719SOL    HW1 8177   2.684   4.207   4.003
 2719SOL    HW2 8178   2.583   4.330   4.041
 2720SOL     OW 8179   2.533   4.188   4.993
 2720SOL    HW1 8180   2.499   4.099   4.963
 2720SOL    HW2 8181   2.559   4.242   4.913
 2721SOL     OW 8182   2.335   4.224   3.915
 2721SOL    HW1 8183   2.396   4.304   3.919
 2721SOL    HW2 8184   2.240   4.255   3.922
 2722SOL     OW 8185   3.164   4.579   4.033
 2722SOL    HW1 8186   3.078   4.548   4.075
 2722SOL    HW2 8187   3.160   4.565   3.934
 2723SOL     OW 8188   3.588   3.859   4.247
 2723SOL    HW1 8189   3.661   3.842   4.180
 2723SOL    HW2 8190   3.557   3.772   4.285
 2724SOL     OW 8191   3.142   4.651   4.396
 2724SOL    HW1 8192   3.202   4.570   4.398
 2724SOL    HW2 8193   3.182   4.720   4.336
 2725SOL     OW 8194   3.703   3.899   4.687
 2725SOL    HW1 8195   3.742   3.814   4.651
 2725SOL    HW2 8196   3.605   3.901   4.668
 2726SOL     OW 8197   2.125   4.050   4.444
 2726SOL    HW1 8198   2.046   4.101   4.410
 2726SOL    HW2 8199   2.116   4.035   4.542
 2727SOL     OW 8200   2.778   4.634   4.015
 2727SOL    HW1 8201   2.841   4.672   3.947
 2727SOL    HW2 8202   2.818   4.551   4.054
 2728SOL     OW 8203   1.937   4.069   3.757
 2728SOL    HW1 8204   1.845   4.041   3.728
 2728SOL    HW2 8205   1.968   4.146   3.701
 2729SOL     OW 8206   1.934   3.890   4.042
 2729SOL    HW1 8207   1.917   3.973   3.988
 2729SOL    HW2 8208   2.024   3.853   4.020
 2730SOL     OW 8209   3.536   4.607   4.978
 2730SOL    HW1 8210   3.509   4.518   4.941
 2730SOL    HW2 8211   3.537   4.675   4.905
 2731SOL     OW 8212   3.087   4.049   4.173
 2731SOL    HW1 8213   3.152   3.975   4.162
 2731SOL    HW2 8214   3.107   4.099   4.257
 2732SOL     OW 8215   2.456   4.469   4.376
 2732SOL    HW1 8216   2.506   4.554   4.357
 2732SOL    HW2 8217   2.368   4.471   4.328
 2733SOL     OW 8218   3.686   3.916   4.951
 2733SOL    HW1 8219   3.682   3.826   4.995
 2733SOL    HW2 8220   3.689   3.905   4.852
 2734SOL     OW 8221   2.290   4.148   4.244
 2734SOL    HW1 8222   2.320   4.076   4.182
 2734SOL    HW2 8223   2.251   4.108   4.327
 2735SOL     OW 8224   3.214   3.776   3.892
 2735SOL    HW1 8225   3.249   3.735   3.808
 2735SOL    HW2 8226   3.124   3.738   3.912
 2736SOL     OW 8227   3.162   4.177   4.415
 2736SOL    HW1 8228   3.103   4.257   4.419
 2736SOL    HW2 8229   3.177   4.142   4.508
 2737SOL     OW 8230   3.455   3.945   4.606
 2737SOL    HW1 8231   3.371   3.944   4.660
 2737SOL    HW2 8232   3.457   4.028   4.550
 2738SOL     OW 8233   3.954   0.628   0.113
 2738SOL    HW1 8234   3.861   0.626   0.150
 2738SOL    HW2 8235   3.955   0.589   0.021
 2739SOL     OW 8236   3.949   0.275   0.996
 2739SOL    HW1 8237   3.984   0.258   1.088
 2739SOL    HW2 8238   3.861   0.230   0.984
 2740SOL     OW 8239   3.743   0.368   0.647
 2740SOL    HW1 8240   3.661   0.411   0.686
 2740SOL    HW2 8241   3.715   0.295   0.584
 2741SOL     OW 8242   4.293   1.275   1.165
 2741SOL    HW1 8243   4.200   1.268   1.128
 2741SOL    HW2 8244   4.304   1.364   1.209
 2742SOL     OW 8245   4.492   1.144   1.023
 2742SOL    HW1 8246   4.414   1.161   1.083
 2742SOL    HW2 8247   4.526   1.231   0.987
 2743SOL     OW 8248   4.574   0.798   1.823
 2743SOL    HW1 8249   4.570   0.874   1.888
 2743SOL    HW2 8250   4.596   0.834   1.732
 2744SOL     OW 8251   4.409   1.012   0.665
 2744SOL    HW1 8252   4.478   0.996   0.735
 2744SOL    HW2 8253   4.336   1.069   0.703
 2745SOL     OW 8254   4.410   1.161   1.803
 2745SOL    HW1 8255   4.470   1.240   1.817
 2745SOL    HW2 8256   4.324   1.192   1.762
 2746SOL     OW 8257   4.059   1.435   1.061
 2746SOL    HW1 8258   3.981   1.404   1.008
 2746SOL    HW2 8259   4.117   1.493   1.004
 2747SOL     OW 8260   4.162   0.392   1.499
 2747SOL    HW1 8261   4.244   0.336   1.508
 2747SOL    HW2 8262   4.081   0.334   1.503
 2748SOL     OW 8263   3.955   1.713   0.483
 2748SOL    HW1 8264   3.989   1.790   0.537
 2748SOL    HW2 8265   3.999   1.713   0.393
 2749SOL     OW 8266   3.954   1.434   0.538
 2749SOL    HW1 8267   3.928   1.530   0.538
 2749SOL    HW2 8268   3.883   1.380   0.583
 2750SOL     OW 8269   3.964   1.091   0.886
 2750SOL    HW1 8270   3.978   1.007   0.938
 2750SOL    HW2 8271   3.909   1.155   0.941
 2751SOL     OW 8272   4.344   1.786   1.439
 2751SOL    HW1 8273   4.252   1.769   1.474
 2751SOL    HW2 8274   4.372   1.878   1.465
 2752SOL     OW 8275   4.330   0.964   0.123
 2752SOL    HW1 8276   4.337   1.048   0.069
 2752SOL    HW2 8277   4.376   0.977   0.211
 2753SOL     OW 8278   3.846   0.643   0.563
 2753SOL    HW1 8279   3.801   0.555   0.580
 2753SOL    HW2 8280   3.845   0.697   0.647
 2754SOL     OW 8281   3.751   1.596   0.117
 2754SOL    HW1 8282   3.732   1.500   0.138
 2754SOL    HW2 8283   3.718   1.654   0.192
 2755SOL     OW 8284   3.837   0.737   1.597
 2755SOL    HW1 8285   3.925   0.724   1.642
 2755SOL    HW2 8286   3.824   0.834   1.575
 2756SOL     OW 8287   4.337   1.365   0.726
 2756SOL    HW1 8288   4.288   1.278   0.735
 2756SOL    HW2 8289   4.314   1.408   0.639
 2757SOL     OW 8290   4.533   0.004   0.502
 2757SOL    HW1 8291   4.573   0.095   0.493
 2757SOL    HW2 8292   4.433   0.012   0.508
 2758SOL     OW 8293   3.921   0.976   1.264
 2758SOL    HW1 8294   4.010   0.931   1.250
 2758SOL    HW2 8295   3.848   0.911   1.245
 2759SOL     OW 8296   4.041   0.251   1.801
 2759SOL    HW1 8297   4.112   0.322   1.807
 2759SOL    HW2 8298   3.953   0.290   1.829
 2760SOL     OW 8299   4.322   0.729   0.270
 2760SOL    HW1 8300   4.346   0.798   0.202
 2760SOL    HW2 8301   4.244   0.762   0.324
 2761SOL     OW 8302   4.531   0.605   1.465
 2761SOL    HW1 8303   4.484   0.602   1.554
 2761SOL    HW2 8304   4.480   0.550   1.399
 2762SOL     OW 8305   3.800   0.811   0.789
 2762SOL    HW1 8306   3.899   0.799   0.798
 2762SOL    HW2 8307   3.776   0.906   0.810
 2763SOL     OW 8308   3.854   1.821   1.571
 2763SOL    HW1 8309   3.844   1.806   1.670
 2763SOL    HW2 8310   3.768   1.857   1.535
 2764SOL     OW 8311   4.589   0.348   0.195
 2764SOL    HW1 8312   4.648   0.411   0.146
 2764SOL    HW2 8313   4.608   0.254   0.166
 2765SOL     OW 8314   4.274   0.196   0.885
 2765SOL    HW1 8315   4.269   0.191   0.985
 2765SOL    HW2 8316   4.276   0.292   0.856
 2766SOL     OW 8317   4.732   1.456   0.477
 2766SOL    HW1 8318   4.686   1.528   0.425
 2766SOL    HW2 8319   4.728   1.476   0.575
 2767SOL     OW 8320   4.075   1.801   0.853
 2767SOL    HW1 8321   4.125   1.715   0.859
 2767SOL    HW2 8322   4.140   1.878   0.850
 2768SOL     OW 8323   4.045   0.943   0.242
 2768SOL    HW1 8324   4.127   0.982   0.200
 2768SOL    HW2 8325   4.018   0.861   0.193
 2769SOL     OW 8326   4.185   1.266   1.727
 2769SOL    HW1 8327   4.135   1.267   1.641
 2769SOL    HW2 8328   4.122   1.248   1.803
 2770SOL     OW 8329   3.926   0.285   1.498
 2770SOL    HW1 8330   3.846   0.345   1.485
 2770SOL    HW2 8331   3.916   0.236   1.584
 2771SOL     OW 8332   4.188   1.743   0.323
 2771SOL    HW1 8333   4.221   1.782   0.409
 2771SOL    HW2 8334   4.264   1.736   0.258
 2772SOL     OW 8335   3.973   1.785   1.241
 2772SOL    HW1 8336   4.030   1.720   1.291
 2772SOL    HW2 8337   3.957   1.752   1.148
 2773SOL     OW 8338   4.106   0.700   0.480
 2773SOL    HW1 8339   4.151   0.610   0.477
 2773SOL    HW2 8340   4.012   0.689   0.513
 2774SOL     OW 8341   4.338   0.122   0.117
 2774SOL    HW1 8342   4.436   0.100   0.124
 2774SOL    HW2 8343   4.307   0.105   0.024
 2775SOL     OW 8344   4.505   0.264   1.749
 2775SOL    HW1 8345   4.572   0.203   1.792
 2775SOL    HW2 8346   4.432   0.283   1.814
 2776SOL     OW 8347   4.612   1.514   1.195
 2776SOL    HW1 8348   4.589   1.489   1.101
 2776SOL    HW2 8349   4.673   1.445   1.234
 2777SOL     OW 8350   4.527   1.402   0.924
 2777SOL    HW1 8351   4.617   1.416   0.882
 2777SOL    HW2 8352   4.456   1.404   0.853
 2778SOL     OW 8353   4.646   0.503   0.899
 2778SOL    HW1 8354   4.621   0.494   0.803
 2778SOL    HW2 8355   4.694   0.421   0.930
 2779SOL     OW 8356   4.263   0.064   0.512
 2779SOL    HW1 8357   4.182   0.065   0.570
 2779SOL    HW2 8358   4.266   0.147   0.457
 2780SOL     OW 8359   4.021   0.035   0.171
 2780SOL    HW1 8360   4.070   0.119   0.150
 2780SOL    HW2 8361   4.083  -0.030   0.216
 2781SOL     OW 8362   4.951   1.570   0.793
 2781SOL    HW1 8363   4.972   1.644   0.728
 2781SOL    HW2 8364   5.019   1.570   0.866
 2782SOL     OW 8365   4.183   1.152   0.741
 2782SOL    HW1 8366   4.112   1.125   0.806
 2782SOL    HW2 8367   4.157   1.124   0.648
 2783SOL     OW 8368   3.802   0.556   1.386
 2783SOL    HW1 8369   3.894   0.555   1.345
 2783SOL    HW2 8370   3.796   0.630   1.453
 2784SOL     OW 8371   4.285   0.222   1.147
 2784SOL    HW1 8372   4.323   0.138   1.184
 2784SOL    HW2 8373   4.197   0.241   1.191
 2785SOL     OW 8374   4.741   0.039   0.753
 2785SOL    HW1 8375   4.669   0.044   0.684
 2785SOL    HW2 8376   4.717  -0.030   0.822
 2786SOL     OW 8377   4.212   1.385   0.174
 2786SOL    HW1 8378   4.125   1.370   0.221
 2786SOL    HW2 8379   4.195   1.411   0.079
 2787SOL     OW 8380   4.251   0.256   0.328
 2787SOL    HW1 8381   4.278   0.197   0.253
 2787SOL    HW2 8382   4.251   0.351   0.297
 2788SOL     OW 8383   4.639   0.089   1.402
 2788SOL    HW1 8384   4.664   0.069   1.307
 2788SOL    HW2 8385   4.711   0.145   1.444
 2789SOL     OW 8386   4.704   1.116   1.719
 2789SOL    HW1 8387   4.605   1.122   1.729
 2789SOL    HW2 8388   4.727   1.036   1.663
 2790SOL     OW 8389   4.429   1.050   0.368
 2790SOL    HW1 8390   4.415   1.057   0.467
 2790SOL    HW2 8391   4.513   0.999   0.350
 2791SOL     OW 8392   4.134   0.813   1.251
 2791SOL    HW1 8393   4.220   0.825   1.301
 2791SOL    HW2 8394   4.092   0.726   1.278
 2792SOL     OW 8395   3.788   1.564   1.331
 2792SOL    HW1 8396   3.742   1.646   1.297
 2792SOL    HW2 8397   3.886   1.583   1.340
 2793SOL     OW 8398   4.091   1.100   0.501
 2793SOL    HW1 8399   4.084   1.183   0.445
 2793SOL    HW2 8400   4.095   1.020   0.441
 2794SOL     OW 8401   4.290   0.537   0.865
 2794SOL    HW1 8402   4.302   0.603   0.791
 2794SOL    HW2 8403   4.336   0.571   0.948
 2795SOL     OW 8404   4.078   1.510   1.329
 2795SOL    HW1 8405   4.057   1.466   1.242
 2795SOL    HW2 8406   4.175   1.536   1.332
 2796SOL     OW 8407   4.126   0.751   1.598
 2796SOL    HW1 8408   4.194   0.806   1.551
 2796SOL    HW2 8409   4.166   0.663   1.625
 2797SOL     OW 8410   4.228   0.050   1.740
 2797SOL    HW1 8411   4.186  -0.007   1.670
 2797SOL    HW2 8412   4.162   0.119   1.772
 2798SOL     OW 8413   4.297   0.870   1.029
 2798SOL    HW1 8414   4.341   0.959   1.020
 2798SOL    HW2 8415   4.234   0.870   1.106
 2799SOL     OW 8416   4.933   0.525   0.275
 2799SOL    HW1 8417   4.946   0.441   0.329
 2799SOL    HW2 8418   4.904   0.599   0.335
 2800SOL     OW 8419   4.031   0.213   1.231
 2800SOL    HW1 8420   4.008   0.250   1.321
 2800SOL    HW2 8421   4.001   0.118   1.225
 2801SOL     OW 8422   3.761   1.310   1.282
 2801SOL    HW1 8423   3.814   1.261   1.350
 2801SOL    HW2 8424   3.783   1.408   1.287
 2802SOL     OW 8425   4.456   0.634   1.064
 2802SOL    HW1 8426   4.515   0.608   0.988
 2802SOL    HW2 8427   4.428   0.730   1.053
 2803SOL     OW 8428   4.031   0.063   0.618
 2803SOL    HW1 8429   4.020   0.157   0.651
 2803SOL    HW2 8430   4.026   0.000   0.695
 2804SOL     OW 8431   4.747   0.766   0.966
 2804SOL    HW1 8432   4.762   0.787   1.062
 2804SOL    HW2 8433   4.717   0.671   0.957
 2805SOL     OW 8434   4.704   1.573   1.700
 2805SOL    HW1 8435   4.684   1.617   1.612
 2805SOL    HW2 8436   4.743   1.482   1.684
 2806SOL     OW 8437   4.074   0.898   1.804
 2806SOL    HW1 8438   4.150   0.942   1.852
 2806SOL    HW2 8439   4.109   0.851   1.722
 2807SOL     OW 8440   4.043   0.810   0.949
 2807SOL    HW1 8441   4.136   0.846   0.954
 2807SOL    HW2 8442   4.037   0.725   1.001
 2808SOL     OW 8443   4.063   0.509   1.006
 2808SOL    HW1 8444   4.011   0.426   0.989
 2808SOL    HW2 8445   4.140   0.514   0.942
 2809SOL     OW 8446   3.732   1.326   0.200
 2809SOL    HW1 8447   3.639   1.347   0.169
 2809SOL    HW2 8448   3.742   1.227   0.213
 2810SOL     OW 8449   3.812   1.801   0.927
 2810SOL    HW1 8450   3.770   1.715   0.900
 2810SOL    HW2 8451   3.906   1.804   0.893
 2811SOL     OW 8452   4.228   1.568   0.910
 2811SOL    HW1 8453   4.294   1.642   0.919
 2811SOL    HW2 8454   4.272   1.489   0.868
 2812SOL     OW 8455   4.726   0.796   1.238
 2812SOL    HW1 8456   4.767   0.764   1.324
 2812SOL    HW2 8457   4.630   0.769   1.235
 2813SOL     OW 8458   3.764   0.544   1.114
 2813SOL    HW1 8459   3.849   0.511   1.073
 2813SOL    HW2 8460   3.777   0.559   1.212
 2814SOL     OW 8461   3.913   0.520   1.722
 2814SOL    HW1 8462   3.972   0.480   1.652
 2814SOL    HW2 8463   3.855   0.591   1.681
 2815SOL     OW 8464   4.539   0.572   0.325
 2815SOL    HW1 8465   4.546   0.483   0.279
 2815SOL    HW2 8466   4.445   0.606   0.317
 2816SOL     OW 8467   3.976   1.564   1.744
 2816SOL    HW1 8468   3.946   1.621   1.820
 2816SOL    HW2 8469   3.969   1.467   1.770
 2817SOL     OW 8470   4.395   0.464   1.269
 2817SOL    HW1 8471   4.361   0.375   1.239
 2817SOL    HW2 8472   4.421   0.518   1.189
 2818SOL     OW 8473   4.654   1.678   1.465
 2818SOL    HW1 8474   4.630   1.660   1.370
 2818SOL    HW2 8475   4.684   1.772   1.475
 2819SOL     OW 8476   4.197   0.500   0.191
 2819SOL    HW1 8477   4.258   0.580   0.195
 2819SOL    HW2 8478   4.102   0.531   0.198
 2820SOL     OW 8479   3.883   1.137   1.466
 2820SOL    HW1 8480   3.905   1.076   1.542
 2820SOL    HW2 8481   3.893   1.088   1.380
 2821SOL     OW 8482   3.807   1.258   1.022
 2821SOL    HW1 8483   3.802   1.257   1.122
 2821SOL    HW2 8484   3.724   1.217   0.984
 2822SOL     OW 8485   4.412   1.662   1.716
 2822SOL    HW1 8486   4.356   1.743   1.725
 2822SOL    HW2 8487   4.464   1.666   1.630
 2823SOL     OW 8488   4.627   0.086   0.133
 2823SOL    HW1 8489   4.678   0.087   0.047
 2823SOL    HW2 8490   4.683   0.044   0.204
 2824SOL     OW 8491   3.854   1.794   1.851
 2824SOL    HW1 8492   3.813   1.720   1.904
 2824SOL    HW2 8493   3.918   1.845   1.909
 2825SOL     OW 8494   5.004   0.927   0.672
 2825SOL    HW1 8495   5.064   0.846   0.674
 2825SOL    HW2 8496   5.044   0.996   0.612
 2826SOL     OW 8497   4.554   1.273   1.422
 2826SOL    HW1 8498   4.549   1.306   1.517
 2826SOL    HW2 8499   4.468   1.292   1.376
 2827SOL     OW 8500   4.396   1.616   0.154
 2827SOL    HW1 8501   4.405   1.626   0.055
 2827SOL    HW2 8502   4.356   1.527   0.175
 2828SOL     OW 8503   3.987   0.326   0.720
 2828SOL    HW1 8504   3.908   0.377   0.686
 2828SOL    HW2 8505   3.978   0.311   0.818
 2829SOL     OW 8506   4.546   1.002   1.372
 2829SOL    HW1 8507   4.586   1.001   1.280
 2829SOL    HW2 8508   4.556   1.094   1.412
 2830SOL     OW 8509   4.096   1.288   1.490
 2830SOL    HW1 8510   4.083   1.381   1.456
 2830SOL    HW2 8511   4.012   1.236   1.477
 2831SOL     OW 8512   4.738   0.236   0.971
 2831SOL    HW1 8513   4.730   0.200   0.878
 2831SOL    HW2 8514   4.736   0.160   1.036
 2832SOL     OW 8515   4.314   1.487   0.491
 2832SOL    HW1 8516   4.356   1.429   0.421
 2832SOL    HW2 8517   4.270   1.566   0.447
 2833SOL     OW 8518   3.979   1.348   0.290
 2833SOL    HW1 8519   3.883   1.349   0.263
 2833SOL    HW2 8520   3.991   1.401   0.374
 2834SOL     OW 8521   3.829   1.013   1.726
 2834SOL    HW1 8522   3.752   0.980   1.780
 2834SOL    HW2 8523   3.914   0.983   1.768
 2835SOL     OW 8524   4.396   0.203   1.489
 2835SOL    HW1 8525   4.486   0.187   1.449
 2835SOL    HW2 8526   4.404   0.208   1.588
 2836SOL     OW 8527   3.799   0.345   0.033
 2836SOL    HW1 8528   3.707   0.317   0.004
 2836SOL    HW2 8529   3.830   0.422  -0.023
 2837SOL     OW 8530   4.337   0.842   1.431
 2837SOL    HW1 8531   4.393   0.923   1.414
 2837SOL    HW2 8532   4.396   0.762   1.434
 2838SOL     OW 8533   4.440   0.565   1.708
 2838SOL    HW1 8534   4.459   0.630   1.782
 2838SOL    HW2 8535   4.500   0.485   1.717
 2839SOL     OW 8536   4.114   1.741   1.560
 2839SOL    HW1 8537   4.023   1.782   1.558
 2839SOL    HW2 8538   4.107   1.647   1.592
 2840SOL     OW 8539   4.949   0.325   0.449
 2840SOL    HW1 8540   5.014   0.251   0.438
 2840SOL    HW2 8541   4.969   0.375   0.533
 2841SOL     OW 8542   4.318   0.745   0.652
 2841SOL    HW1 8543   4.368   0.830   0.633
 2841SOL    HW2 8544   4.230   0.747   0.604
 2842SOL     OW 8545   4.583   1.374   0.016
 2842SOL    HW1 8546   4.537   1.389   0.104
 2842SOL    HW2 8547   4.627   1.459  -0.014
 2843SOL     OW 8548   4.385   1.790   0.953
 2843SOL    HW1 8549   4.339   1.878   0.940
 2843SOL    HW2 8550   4.484   1.802   0.946
 2844SOL     OW 8551   4.583   0.956   0.861
 2844SOL    HW1 8552   4.637   0.887   0.909
 2844SOL    HW2 8553   4.551   1.025   0.927
 2845SOL     OW 8554   4.807   0.984   0.087
 2845SOL    HW1 8555   4.784   1.037   0.005
 2845SOL    HW2 8556   4.888   0.928   0.068
 2846SOL     OW 8557   3.945   1.314   1.844
 2846SOL    HW1 8558   3.880   1.241   1.823
 2846SOL    HW2 8559   3.949   1.328   1.942
 2847SOL     OW 8560   3.803   1.240   0.653
 2847SOL    HW1 8561   3.802   1.193   0.741
 2847SOL    HW2 8562   3.885   1.212   0.602
 2848SOL     OW 8563   4.396   1.391   1.624
 2848SOL    HW1 8564   4.318   1.341   1.662
 2848SOL    HW2 8565   4.393   1.486   1.655
 2849SOL     OW 8566   4.152   0.424   0.520
 2849SOL    HW1 8567   4.182   0.352   0.458
 2849SOL    HW2 8568   4.113   0.384   0.603
 2850SOL     OW 8569   4.041   0.547   1.280
 2850SOL    HW1 8570   4.079   0.488   1.352
 2850SOL    HW2 8571   4.081   0.521   1.192
 2851SOL     OW 8572   4.536   1.586   0.687
 2851SOL    HW1 8573   4.568   1.596   0.593
 2851SOL    HW2 8574   4.457   1.524   0.689
 2852SOL     OW 8575   4.725   0.034   1.154
 2852SOL    HW1 8576   4.662  -0.038   1.123
 2852SOL    HW2 8577   4.818  -0.002   1.154
 2853SOL     OW 8578   4.494   1.330   0.301
 2853SOL    HW1 8579   4.448   1.243   0.318
 2853SOL    HW2 8580   4.585   1.327   0.342
 2854SOL     OW 8581   4.342   1.567   1.284
 2854SOL    HW1 8582   4.337   1.649   1.341
 2854SOL    HW2 8583   4.431   1.564   1.239
 2855SOL     OW 8584   3.763   1.077   0.300
 2855SOL    HW1 8585   3.862   1.066   0.291
 2855SOL    HW2 8586   3.723   0.991   0.332
 2856SOL     OW 8587   4.599   1.646   0.337
 2856SOL    HW1 8588   4.522   1.611   0.283
 2856SOL    HW2 8589   4.567   1.717   0.399
 2857SOL     OW 8590   3.954   0.628   1.975
 2857SOL    HW1 8591   3.861   0.626   2.012
 2857SOL    HW2 8592   3.955   0.589   1.883
 2858SOL     OW 8593   3.949   0.275   2.858
 2858SOL    HW1 8594   3.984   0.258   2.950
 2858SOL    HW2 8595   3.861   0.230   2.846
 2859SOL     OW 8596   3.743   0.368   2.509
 2859SOL    HW1 8597   3.661   0.411   2.548
 2859SOL    HW2 8598   3.715   0.295   2.446
 2860SOL     OW 8599   4.293   1.275   3.027
 2860SOL    HW1 8600   4.200   1.268   2.990
 2860SOL    HW2 8601   4.304   1.364   3.071
 2861SOL     OW 8602   4.492   1.144   2.885
 2861SOL    HW1 8603   4.414   1.161   2.945
 2861SOL    HW2 8604   4.526   1.231   2.849
 2862SOL     OW 8605   4.574   0.798   3.685
 2862SOL    HW1 8606   4.570   0.874   3.750
 2862SOL    HW2 8607   4.596   0.834   3.594
 2863SOL     OW 8608   4.409   1.012   2.527
 2863SOL    HW1 8609   4.478   0.996   2.597
 2863SOL    HW2 8610   4.336   1.069   2.565
 2864SOL     OW 8611   4.410   1.161   3.665
 2864SOL    HW1 8612   4.470   1.240   3.679
 2864SOL    HW2 8613   4.324   1.192   3.624
 2865SOL     OW 8614   4.059   1.435   2.923
 2865SOL    HW1 8615   3.981   1.404   2.870
 2865SOL    HW2 8616   4.117   1.493   2.866
 2866SOL     OW 8617   4.162   0.392   3.361
 2866SOL    HW1 8618   4.244   0.336   3.370
 2866SOL    HW2 8619   4.081   0.334   3.365
 2867SOL     OW 8620   3.955   1.713   2.345
 2867SOL    HW1 8621   3.989   1.790   2.399
 2867SOL    HW2 8622   3.999   1.713   2.255
 2868SOL     OW 8623   3.954   1.434   2.400
 2868SOL    HW1 8624   3.928   1.530   2.400
 2868SOL    HW2 8625   3.883   1.380   2.445
 2869SOL     OW 8626   3.964   1.091   2.748
 2869SOL    HW1 8627   3.978   1.007   2.800
 2869SOL    HW2 8628   3.909   1.155   2.803
 2870SOL     OW 8629   4.344   1.786   3.301
 2870SOL    HW1 8630   4.252   1.769   3.336
 2870SOL    HW2 8631   4.372   1.878   3.327
 2871SOL     OW 8632   4.330   0.964   1.985
 2871SOL    HW1 8633   4.337   1.048   1.931
 2871SOL    HW2 8634   4.376   0.977   2.073
 2872SOL     OW 8635   3.846   0.643   2.425
 2872SOL    HW1 8636   3.801   0.555   2.442
 2872SOL    HW2 8637   3.845   0.697   2.509
 2873SOL     OW 8638   3.751   1.596   1.979
 2873SOL    HW1 8639   3.732   1.500   2.000
 2873SOL    HW2 8640   3.718   1.654   2.054
 2874SOL     OW 8641   3.837   0.737   3.459
 2874SOL    HW1 8642   3.925   0.724   3.504
 2874SOL    HW2 8643   3.824   0.834   3.437
 2875SOL     OW 8644   4.337   1.365   2.588
 2875SOL    HW1 8645   4.288   1.278   2.597
 2875SOL    HW2 8646   4.314   1.408   2.501
 2876SOL     OW 8647   4.533   0.004   2.364
 2876SOL    HW1 8648   4.573   0.095   2.355
 2876SOL    HW2 8649   4.433   0.012   2.370
 2877SOL     OW 8650   3.921   0.976   3.126
 2877SOL    HW1 8651   4.010   0.931   3.112
 2877SOL    HW2 8652   3.848   0.911   3.107
 2878SOL     OW 8653   4.041   0.251   3.663
 2878SOL    HW1 8654   4.112   0.322   3.669
 2878SOL    HW2 8655   3.953   0.290   3.691
 2879SOL     OW 8656   4.322   0.729   2.132
 2879SOL    HW1 8657   4.346   0.798   2.064
 2879SOL    HW2 8658   4.244   0.762   2.186
 2880SOL     OW 8659   4.531   0.605   3.327
 2880SOL    HW1 8660   4.484   0.602   3.416
 2880SOL    HW2 8661   4.480   0.550   3.261
 2881SOL     OW 8662   3.800   0.811   2.651
 2881SOL    HW1 8663   3.899   0.799   2.660
 2881SOL    HW2 8664   3.776   0.906   2.672
 2882SOL     OW 8665   3.854   1.821   3.433
 2882SOL    HW1 8666   3.844   1.806   3.532
 2882SOL    HW2 8667   3.768   1.857   3.397
 2883SOL     OW 8668   4.589   0.348   2.057
 2883SOL    HW1 8669   4.648   0.411   2.008
 2883SOL    HW2 8670   4.608   0.254   2.028
 2884SOL     OW 8671   4.274   0.196   2.747
 2884SOL    HW1 8672   4.269   0.191   2.847
 2884SOL    HW2 8673   4.276   0.292   2.718
 2885SOL     OW 8674   4.732   1.456   2.339
 2885SOL    HW1 8675   4.686   1.528   2.287
 2885SOL    HW2 8676   4.728   1.476   2.437
 2886SOL     OW 8677   4.075   1.801   2.715
 2886SOL    HW1 8678   4.125   1.715   2.721
 2886SOL    HW2 8679   4.140   1.878   2.712
 2887SOL     OW 8680   4.045   0.943   2.104
 2887SOL    HW1 8681   4.127   0.982   2.062
 2887SOL    HW2 8682   4.018   0.861   2.055
 2888SOL     OW 8683   4.185   1.266   3.589
 2888SOL    HW1 8684   4.135   1.267   3.503
 2888SOL    HW2 8685   4.122   1.248   3.665
 2889SOL     OW 8686   3.926   0.285   3.360
 2889SOL    HW1 8687   3.846   0.345   3.347
 2889SOL    HW2 8688   3.916   0.236   3.446
 2890SOL     OW 8689   4.188   1.743   2.185
 2890SOL    HW1 8690   4.221   1.782   2.271
 2890SOL    HW2 8691   4.264   1.736   2.120
 2891SOL     OW 8692   3.973   1.785   3.103
 2891SOL    HW1 8693   4.030   1.720   3.153
 2891SOL    HW2 8694   3.957   1.752   3.010
 2892SOL     OW 8695   4.106   0.700   2.342
 2892SOL    HW1 8696   4.151   0.610   2.339
 2892SOL    HW2 8697   4.012   0.689   2.375
 2893SOL     OW 8698   4.338   0.122   1.979
 2893SOL    HW1 8699   4.436   0.100   1.986
 2893SOL    HW2 8700   4.307   0.105   1.886
 2894SOL     OW 8701   4.505   0.264   3.611
 2894SOL    HW1 8702   4.572   0.203   3.654
 2894SOL    HW2 8703   4.432   0.283   3.676
 2895SOL     OW 8704   4.612   1.514   3.057
 2895SOL    HW1 8705   4.589   1.489   2.963
 2895SOL    HW2 8706   4.673   1.445   3.096
 2896SOL     OW 8707   4.527   1.402   2.786
 2896SOL    HW1 8708   4.617   1.416   2.744
 2896SOL    HW2 8709   4.456   1.404   2.715
 2897SOL     OW 8710   4.646   0.503   2.761
 2897SOL    HW1 8711   4.621   0.494   2.665
 2897SOL    HW2 8712   4.694   0.421   2.792
 2898SOL     OW 8713   4.263   0.064   2.374
 2898SOL    HW1 8714   4.182   0.065   2.432
 2898SOL    HW2 8715   4.266   0.147   2.319
 2899SOL     OW 8716   4.021   0.035   2.033
 2899SOL    HW1 8717   4.070   0.119   2.012
 2899SOL    HW2 8718   4.083  -0.030   2.078
 2900SOL     OW 8719   4.951   1.570   2.655
 2900SOL    HW1 8720   4.972   1.644   2.590
 2900SOL    HW2 8721   5.019   1.570   2.728
 2901SOL     OW 8722   4.183   1.152   2.603
 2901SOL    HW1 8723   4.112   1.125   2.668
 2901SOL    HW2 8724   4.157   1.124   2.510
 2902SOL     OW 8725   3.802   0.556   3.248
 2902SOL    HW1 8726   3.894   0.555   3.207
 2902SOL    HW2 8727   3.796   0.630   3.315
 2903SOL     OW 8728   4.285   0.222   3.009
 2903SOL    HW1 8729   4.323   0.138   3.046
 2903SOL    HW2 8730   4.197   0.241   3.053
 2904SOL     OW 8731   4.741   0.039   2.615
 2904SOL    HW1 8732   4.669   0.044   2.546
 2904SOL    HW2 8733   4.717  -0.030   2.684
 2905SOL     OW 8734   4.212   1.385   2.036
 2905SOL    HW1 8735   4.125   1.370   2.083
 2905SOL    HW2 8736   4.195   1.411   1.941
 2906SOL     OW 8737   4.251   0.256   2.190
 2906SOL    HW1 8738   4.278   0.197   2.115
 2906SOL    HW2 8739   4.251   0.351   2.159
 2907SOL     OW 8740   4.639   0.089   3.264
 2907SOL    HW1 8741   4.664   0.069   3.169
 2907SOL    HW2 8742   4.711   0.145   3.306
 2908SOL     OW 8743   4.704   1.116   3.581
 2908SOL    HW1 8744   4.605   1.122   3.591
 2908SOL    HW2 8745   4.727   1.036   3.525
 2909SOL     OW 8746   4.429   1.050   2.230
 2909SOL    HW1 8747   4.415   1.057   2.329
 2909SOL    HW2 8748   4.513   0.999   2.212
 2910SOL     OW 8749   4.134   0.813   3.113
 2910SOL    HW1 8750   4.220   0.825   3.163
 2910SOL    HW2 8751   4.092   0.726   3.140
 2911SOL     OW 8752   3.788   1.564   3.193
 2911SOL    HW1 8753   3.742   1.646   3.159
 2911SOL    HW2 8754   3.886   1.583   3.202
 2912SOL     OW 8755   4.091   1.100   2.363
 2912SOL    HW1 8756   4.084   1.183   2.307
 2912SOL    HW2 8757   4.095   1.020   2.303
 2913SOL     OW 8758   4.290   0.537   2.727
 2913SOL    HW1 8759   4.302   0.603   2.653
 2913SOL    HW2 8760   4.336   0.571   2.810
 2914SOL     OW 8761   4.078   1.510   3.191
 2914SOL    HW1 8762   4.057   1.466   3.104
 2914SOL    HW2 8763   4.175   1.536   3.194
 2915SOL     OW 8764   4.126   0.751   3.460
 2915SOL    HW1 8765   4.194   0.806   3.413
 2915SOL    HW2 8766   4.166   0.663   3.487
 2916SOL     OW 8767   4.228   0.050   3.602
 2916SOL    HW1 8768   4.186  -0.007   3.532
 2916SOL    HW2 8769   4.162   0.119   3.634
 2917SOL     OW 8770   4.297   0.870   2.891
 2917SOL    HW1 8771   4.341   0.959   2.882
 2917SOL    HW2 8772   4.234   0.870   2.968
 2918SOL     OW 8773   4.933   0.525   2.137
 2918SOL    HW1 8774   4.946   0.441   2.191
 2918SOL    HW2 8775   4.904   0.599   2.197
 2919SOL     OW 8776   4.031   0.213   3.093
 2919SOL    HW1 8777   4.008   0.250   3.183
 2919SOL    HW2 8778   4.001   0.118   3.087
 2920SOL     OW 8779   3.761   1.310   3.144
 2920SOL    HW1 8780   3.814   1.261   3.212
 2920SOL    HW2 8781   3.783   1.408   3.149
 2921SOL     OW 8782   4.456   0.634   2.926
 2921SOL    HW1 8783   4.515   0.608   2.850
 2921SOL    HW2 8784   4.428   0.730   2.915
 2922SOL     OW 8785   4.031   0.063   2.480
 2922SOL    HW1 8786   4.020   0.157   2.513
 2922SOL    HW2 8787   4.026   0.000   2.557
 2923SOL     OW 8788   4.747   0.766   2.828
 2923SOL    HW1 8789   4.762   0.787   2.924
 2923SOL    HW2 8790   4.717   0.671   2.819
 2924SOL     OW 8791   4.704   1.573   3.562
 2924SOL    HW1 8792   4.684   1.617   3.474
 2924SOL    HW2 8793   4.743   1.482   3.546
 2925SOL     OW 8794   4.074   0.898   3.666
 2925SOL    HW1 8795   4.150   0.942   3.714
 2925SOL    HW2 8796   4.109   0.851   3.584
 2926SOL     OW 8797   4.043   0.810   2.811
 2926SOL    HW1 8798   4.136   0.846   2.816
 2926SOL    HW2 8799   4.037   0.725   2.863
 2927SOL     OW 8800   4.063   0.509   2.868
 2927SOL    HW1 8801   4.011   0.426   2.851
 2927SOL    HW2 8802   4.140   0.514   2.804
 2928SOL     OW 8803   3.732   1.326   2.062
 2928SOL    HW1 8804   3.639   1.347   2.031
 2928SOL    HW2 8805   3.742   1.227   2.075
 2929SOL     OW 8806   3.812   1.801   2.789
 2929SOL    HW1 8807   3.770   1.715   2.762
 2929SOL    HW2 8808   3.906   1.804   2.755
 2930SOL     OW 8809   4.228   1.568   2.772
 2930SOL    HW1 8810   4.294   1.642   2.781
 2930SOL    HW2 8811   4.272   1.489   2.730
 2931SOL     OW 8812   4.726   0.796   3.100
 2931SOL    HW1 8813   4.767   0.764   3.186
 2931SOL    HW2 8814   4.630   0.769   3.097
 2932SOL     OW 8815   3.764   0.544   2.976
 2932SOL    HW1 8816   3.849   0.511   2.935
 2932SOL    HW2 8817   3.777   0.559   3.074
 2933SOL     OW 8818   3.913   0.520   3.584
 2933SOL    HW1 8819   3.972   0.480   3.514
 2933SOL    HW2 8820   3.855   0.591   3.543
 2934SOL     OW 8821   4.539   0.572   2.187
 2934SOL    HW1 8822   4.546   0.483   2.141
 2934SOL    HW2 8823   4.445   0.606   2.179
 2935SOL     OW 8824   3.976   1.564   3.606
 2935SOL    HW1 8825   3.946   1.621   3.682
 2935SOL    HW2 8826   3.969   1.467   3.632
 2936SOL     OW 8827   4.395   0.464   3.131
 2936SOL    HW1 8828   4.361   0.375   3.101
 2936SOL    HW2 8829   4.421   0.518   3.051
 2937SOL     OW 8830   4.654   1.678   3.327
 2937SOL    HW1 8831   4.630   1.660   3.232
 2937SOL    HW2 8832   4.684   1.772   3.337
 2938SOL     OW 8833   4.197   0.500   2.053
 2938SOL    HW1 8834   4.258   0.580   2.057
 2938SOL    HW2 8835   4.102   0.531   2.060
 2939SOL     OW 8836   3.883   1.137   3.328
 2939SOL    HW1 8837   3.905   1.076   3.404
 2939SOL    HW2 8838   3.893   1.088   3.242
 2940SOL     OW 8839   3.807   1.258   2.884
 2940SOL    HW1 8840   3.802   1.257   2.984
 2940SOL    HW2 8841   3.724   1.217   2.846
 2941SOL     OW 8842   4.412   1.662   3.578
 2941SOL    HW1 8843   4.356   1.743   3.587
 2941SOL    HW2 8844   4.464   1.666   3.492
 2942SOL     OW 8845   4.627   0.086   1.995
 2942SOL    HW1 8846   4.678   0.087   1.909
 2942SOL    HW2 8847   4.683   0.044   2.066
 2943SOL     OW 8848   3.854   1.794   3.713
 2943SOL    HW1 8849   3.813   1.720   3.766
 2943SOL    HW2 8850   3.918   1.845   3.771
 2944SOL     OW 8851   5.004   0.927   2.534
 2944SOL    HW1 8852   5.064   0.846   2.536
 2944SOL    HW2 8853   5.044   0.996   2.474
 2945SOL     OW 8854   4.554   1.273   3.284
 2945SOL    HW1 8855   4.549   1.306   3.379
 2945SOL    HW2 8856   4.468   1.292   3.238
 2946SOL     OW 8857   4.396   1.616   2.016
 2946SOL    HW1 8858   4.405   1.626   1.917
 2946SOL    HW2 8859   4.356   1.527   2.037
 2947SOL     OW 8860   3.987   0.326   2.582
 2947SOL    HW1 8861   3.908   0.377   2.548
 2947SOL    HW2 8862   3.978   0.311   2.680
 2948SOL     OW 8863   4.546   1.002   3.234
 2948SOL    HW1 8864   4.586   1.001   3.142
 2948SOL    HW2 8865   4.556   1.094   3.274
 2949SOL     OW 8866   4.096   1.288   3.352
 2949SOL    HW1 8867   4.083   1.381   3.318
 2949SOL    HW2 8868   4.012   1.236   3.339
 2950SOL     OW 8869   4.738   0.236   2.833
 2950SOL    HW1 8870   4.730   0.200   2.740
 2950SOL    HW2 8871   4.736   0.160   2.898
 2951SOL     OW 8872   4.314   1.487   2.353
 2951SOL    HW1 8873   4.356   1.429   2.283
 2951SOL    HW2 8874   4.270   1.566   2.309
 2952SOL     OW 8875   3.979   1.348   2.152
 2952SOL    HW1 8876   3.883   1.349   2.125
 2952SOL    HW2 8877   3.991   1.401   2.236
 2953SOL     OW 8878   3.829   1.013   3.588
 2953SOL    HW1 8879   3.752   0.980   3.642
 2953SOL    HW2 8880   3.914   0.983   3.630
 2954SOL     OW 8881   4.396   0.203   3.351
 2954SOL    HW1 8882   4.486   0.187   3.311
 2954SOL    HW2 8883   4.404   0.208   3.450
 2955SOL     OW 8884   3.799   0.345   1.895
 2955SOL    HW1 8885   3.707   0.317   1.866
 2955SOL    HW2 8886   3.830   0.422   1.839
 2956SOL     OW 8887   3.796   0.166   2.180
 2956SOL    HW1 8888   3.779   0.249   2.126
 2956SOL    HW2 8889   3.886   0.129   2.158
 2957SOL     OW 8890   4.337   0.842   3.293
 2957SOL    HW1 8891   4.393   0.923   3.276
 2957SOL    HW2 8892   4.396   0.762   3.296
 2958SOL     OW 8893   4.440   0.565   3.570
 2958SOL    HW1 8894   4.459   0.630   3.644
 2958SOL    HW2 8895   4.500   0.485   3.579
 2959SOL     OW 8896   4.114   1.741   3.422
 2959SOL    HW1 8897   4.023   1.782   3.420
 2959SOL    HW2 8898   4.107   1.647   3.454
 2960SOL     OW 8899   4.949   0.325   2.311
 2960SOL    HW1 8900   5.014   0.251   2.300
 2960SOL    HW2 8901   4.969   0.375   2.395
 2961SOL     OW 8902   4.318   0.745   2.514
 2961SOL    HW1 8903   4.368   0.830   2.495
 2961SOL    HW2 8904   4.230   0.747   2.466
 2962SOL     OW 8905   4.583   1.374   1.878
 2962SOL    HW1 8906   4.537   1.389   1.966
 2962SOL    HW2 8907   4.627   1.459   1.848
 2963SOL     OW 8908   4.385   1.790   2.815
 2963SOL    HW1 8909   4.339   1.878   2.802
 2963SOL    HW2 8910   4.484   1.802   2.808
 2964SOL     OW 8911   4.583   0.956   2.723
 2964SOL    HW1 8912   4.637   0.887   2.771
 2964SOL    HW2 8913   4.551   1.025   2.789
 2965SOL     OW 8914   3.945   1.314   3.706
 2965SOL    HW1 8915   3.880   1.241   3.685
 2965SOL    HW2 8916   3.949   1.328   3.804
 2966SOL     OW 8917   3.803   1.240   2.515
 2966SOL    HW1 8918   3.802   1.193   2.603
 2966SOL    HW2 8919   3.885   1.212   2.464
 2967SOL     OW 8920   4.396   1.391   3.486
 2967SOL    HW1 8921   4.318   1.341   3.524
 2967SOL    HW2 8922   4.393   1.486   3.517
 2968SOL     OW 8923   4.152   0.424   2.382
 2968SOL    HW1 8924   4.182   0.352   2.320
 2968SOL    HW2 8925   4.113   0.384   2.465
 2969SOL     OW 8926   4.041   0.547   3.142
 2969SOL    HW1 8927   4.079   0.488   3.214
 2969SOL    HW2 8928   4.081   0.521   3.054
 2970SOL     OW 8929   4.536   1.586   2.549
 2970SOL    HW1 8930   4.568   1.596   2.455
 2970SOL    HW2 8931   4.457   1.524   2.551
 2971SOL     OW 8932   4.725   0.034   3.016
 2971SOL    HW1 8933   4.662  -0.038   2.985
 2971SOL    HW2 8934   4.818  -0.002   3.016
 2972SOL     OW 8935   4.494   1.330   2.163
 2972SOL    HW1 8936   4.448   1.243   2.180
 2972SOL    HW2 8937   4.585   1.327   2.204
 2973SOL     OW 8938   4.342   1.567   3.146
 2973SOL    HW1 8939   4.337   1.649   3.203
 2973SOL    HW2 8940   4.431   1.564   3.101
 2974SOL     OW 8941   3.763   1.077   2.162
 2974SOL    HW1 8942   3.862   1.066   2.153
 2974SOL    HW2 8943   3.723   0.991   2.194
 2975SOL     OW 8944   4.599   1.646   2.199
 2975SOL    HW1 8945   4.522   1.611   2.145
 2975SOL    HW2 8946   4.567   1.717   2.261
 2976SOL     OW 8947   3.954   0.628   3.837
 2976SOL    HW1 8948   3.861   0.626   3.874
 2976SOL    HW2 8949   3.955   0.589   3.745
 2977SOL     OW 8950   3.949   0.275   4.720
 2977SOL    HW1 8951   3.984   0.258   4.812
 2977SOL    HW2 8952   3.861   0.230   4.708
 2978SOL     OW 8953   3.743   0.368   4.371
 2978SOL    HW1 8954   3.661   0.411   4.410
 2978SOL    HW2 8955   3.715   0.295   4.308
 2979SOL     OW 8956   4.492   1.144   4.747
 2979SOL    HW1 8957   4.414   1.161   4.807
 2979SOL    HW2 8958   4.526   1.231   4.711
 2980SOL     OW 8959   4.409   1.012   4.389
 2980SOL    HW1 8960   4.478   0.996   4.459
 2980SOL    HW2 8961   4.336   1.069   4.427
 2981SOL     OW 8962   3.955   1.713   4.207
 2981SOL    HW1 8963   3.989   1.790   4.261
 2981SOL    HW2 8964   3.999   1.713   4.117
 2982SOL     OW 8965   3.954   1.434   4.262
 2982SOL    HW1 8966   3.928   1.530   4.262
 2982SOL    HW2 8967   3.883   1.380   4.307
 2983SOL     OW 8968   3.964   1.091   4.610
 2983SOL    HW1 8969   3.978   1.007   4.662
 2983SOL    HW2 8970   3.909   1.155   4.665
 2984SOL     OW 8971   4.330   0.964   3.847
 2984SOL    HW1 8972   4.337   1.048   3.793
 2984SOL    HW2 8973   4.376   0.977   3.935
 2985SOL     OW 8974   3.846   0.643   4.287
 2985SOL    HW1 8975   3.801   0.555   4.304
 2985SOL    HW2 8976   3.845   0.697   4.371
 2986SOL     OW 8977   3.751   1.596   3.841
 2986SOL    HW1 8978   3.732   1.500   3.862
 2986SOL    HW2 8979   3.718   1.654   3.916
 2987SOL     OW 8980   4.337   1.365   4.450
 2987SOL    HW1 8981   4.288   1.278   4.459
 2987SOL    HW2 8982   4.314   1.408   4.363
 2988SOL     OW 8983   4.533   0.004   4.226
 2988SOL    HW1 8984   4.573   0.095   4.217
 2988SOL    HW2 8985   4.433   0.012   4.232
 2989SOL     OW 8986   4.322   0.729   3.994
 2989SOL    HW1 8987   4.346   0.798   3.926
 2989SOL    HW2 8988   4.244   0.762   4.048
 2990SOL     OW 8989   3.800   0.811   4.513
 2990SOL    HW1 8990   3.899   0.799   4.522
 2990SOL    HW2 8991   3.776   0.906   4.534
 2991SOL     OW 8992   4.589   0.348   3.919
 2991SOL    HW1 8993   4.648   0.411   3.870
 2991SOL    HW2 8994   4.608   0.254   3.890
 2992SOL     OW 8995   4.732   1.456   4.201
 2992SOL    HW1 8996   4.686   1.528   4.149
 2992SOL    HW2 8997   4.728   1.476   4.299
 2993SOL     OW 8998   4.075   1.801   4.577
 2993SOL    HW1 8999   4.125   1.715   4.583
 2993SOL    HW2 9000   4.140   1.878   4.574
 2994SOL     OW 9001   4.045   0.943   3.966
 2994SOL    HW1 9002   4.127   0.982   3.924
 2994SOL    HW2 9003   4.018   0.861   3.917
 2995SOL     OW 9004   4.188   1.743   4.047
 2995SOL    HW1 9005   4.221   1.782   4.133
 2995SOL    HW2 9006   4.264   1.736   3.982
 2996SOL     OW 9007   3.973   1.785   4.965
 2996SOL    HW1 9008   4.030   1.720   5.015
 2996SOL    HW2 9009   3.957   1.752   4.872
 2997SOL     OW 9010   4.106   0.700   4.204
 2997SOL    HW1 9011   4.151   0.610   4.201
 2997SOL    HW2 9012   4.012   0.689   4.237
 2998SOL     OW 9013   4.338   0.122   3.841
 2998SOL    HW1 9014   4.436   0.100   3.848
 2998SOL    HW2 9015   4.307   0.105   3.748
 2999SOL     OW 9016   4.646   0.503   4.623
 2999SOL    HW1 9017   4.621   0.494   4.527
 2999SOL    HW2 9018   4.694   0.421   4.654
 3000SOL     OW 9019   4.263   0.064   4.236
 3000SOL    HW1 9020   4.182   0.065   4.294
 3000SOL    HW2 9021   4.266   0.147   4.181
 3001SOL     OW 9022   4.021   0.035   3.895
 3001SOL    HW1 9023   4.070   0.119   3.874
 3001SOL    HW2 9024   4.083  -0.030   3.940
 3002SOL     OW 9025   4.951   1.570   4.517
 3002SOL    HW1 9026   4.972   1.644   4.452
 3002SOL    HW2 9027   5.019   1.570   4.590
 3003SOL     OW 9028   4.183   1.152   4.465
 3003SOL    HW1 9029   4.112   1.125   4.530
 3003SOL    HW2 9030   4.157   1.124   4.372
 3004SOL     OW 9031   4.741   0.039   4.477
 3004SOL    HW1 9032   4.669   0.044   4.408
 3004SOL    HW2 9033   4.717  -0.030   4.546
 3005SOL     OW 9034   4.212   1.385   3.898
 3005SOL    HW1 9035   4.125   1.370   3.945
 3005SOL    HW2 9036   4.195   1.411   3.803
 3006SOL     OW 9037   4.251   0.256   4.052
 3006SOL    HW1 9038   4.278   0.197   3.977
 3006SOL    HW2 9039   4.251   0.351   4.021
 3007SOL     OW 9040   4.429   1.050   4.092
 3007SOL    HW1 9041   4.415   1.057   4.191
 3007SOL    HW2 9042   4.513   0.999   4.074
 3008SOL     OW 9043   4.091   1.100   4.225
 3008SOL    HW1 9044   4.084   1.183   4.169
 3008SOL    HW2 9045   4.095   1.020   4.165
 3009SOL     OW 9046   4.290   0.537   4.589
 3009SOL    HW1 9047   4.302   0.603   4.515
 3009SOL    HW2 9048   4.336   0.571   4.672
 3010SOL     OW 9049   4.933   0.525   3.999
 3010SOL    HW1 9050   4.946   0.441   4.053
 3010SOL    HW2 9051   4.904   0.599   4.059
 3011SOL     OW 9052   4.456   0.634   4.788
 3011SOL    HW1 9053   4.515   0.608   4.712
 3011SOL    HW2 9054   4.428   0.730   4.777
 3012SOL     OW 9055   4.031   0.063   4.342
 3012SOL    HW1 9056   4.020   0.157   4.375
 3012SOL    HW2 9057   4.026   0.000   4.419
 3013SOL     OW 9058   4.747   0.766   4.690
 3013SOL    HW1 9059   4.762   0.787   4.786
 3013SOL    HW2 9060   4.717   0.671   4.681
 3014SOL     OW 9061   4.043   0.810   4.673
 3014SOL    HW1 9062   4.136   0.846   4.678
 3014SOL    HW2 9063   4.037   0.725   4.725
 3015SOL     OW 9064   3.732   1.326   3.924
 3015SOL    HW1 9065   3.639   1.347   3.893
 3015SOL    HW2 9066   3.742   1.227   3.937
 3016SOL     OW 9067   3.812   1.801   4.651
 3016SOL    HW1 9068   3.770   1.715   4.624
 3016SOL    HW2 9069   3.906   1.804   4.617
 3017SOL     OW 9070   4.228   1.568   4.634
 3017SOL    HW1 9071   4.294   1.642   4.643
 3017SOL    HW2 9072   4.272   1.489   4.592
 3018SOL     OW 9073   4.726   0.796   4.962
 3018SOL    HW1 9074   4.767   0.764   5.048
 3018SOL    HW2 9075   4.630   0.769   4.959
 3019SOL     OW 9076   4.539   0.572   4.049
 3019SOL    HW1 9077   4.546   0.483   4.003
 3019SOL    HW2 9078   4.445   0.606   4.041
 3020SOL     OW 9079   4.395   0.464   4.993
 3020SOL    HW1 9080   4.361   0.375   4.963
 3020SOL    HW2 9081   4.421   0.518   4.913
 3021SOL     OW 9082   4.197   0.500   3.915
 3021SOL    HW1 9083   4.258   0.580   3.919
 3021SOL    HW2 9084   4.102   0.531   3.922
 3022SOL     OW 9085   4.627   0.086   3.857
 3022SOL    HW1 9086   4.678   0.087   3.771
 3022SOL    HW2 9087   4.683   0.044   3.928
 3023SOL     OW 9088   5.004   0.927   4.396
 3023SOL    HW1 9089   5.064   0.846   4.398
 3023SOL    HW2 9090   5.044   0.996   4.336
 3024SOL     OW 9091   4.396   1.616   3.878
 3024SOL    HW1 9092   4.405   1.626   3.779
 3024SOL    HW2 9093   4.356   1.527   3.899
 3025SOL     OW 9094   3.987   0.326   4.444
 3025SOL    HW1 9095   3.908   0.377   4.410
 3025SOL    HW2 9096   3.978   0.311   4.542
 3026SOL     OW 9097   4.314   1.487   4.215
 3026SOL    HW1 9098   4.356   1.429   4.145
 3026SOL    HW2 9099   4.270   1.566   4.171
 3027SOL     OW 9100   3.979   1.348   4.014
 3027SOL    HW1 9101   3.883   1.349   3.987
 3027SOL    HW2 9102   3.991   1.401   4.098
 3028SOL     OW 9103   3.799   0.345   3.757
 3028SOL    HW1 9104   3.707   0.317   3.728
 3028SOL    HW2 9105   3.830   0.422   3.701
 3029SOL     OW 9106   3.796   0.166   4.042
 3029SOL    HW1 9107   3.779   0.249   3.988
 3029SOL    HW2 9108   3.886   0.129   4.020
 3030SOL     OW 9109   4.949   0.325   4.173
 3030SOL    HW1 9110   5.014   0.251   4.162
 3030SOL    HW2 9111   4.969   0.375   4.257
 3031SOL     OW 9112   4.318   0.745   4.376
 3031SOL    HW1 9113   4.368   0.830   4.357
 3031SOL    HW2 9114   4.230   0.747   4.328
 3032SOL     OW 9115   4.583   1.374   3.740
 3032SOL    HW1 9116   4.537   1.389   3.828
 3032SOL    HW2 9117   4.627   1.459   3.710
 3033SOL     OW 9118   4.385   1.790   4.677
 3033SOL    HW1 9119   4.339   1.878   4.664
 3033SOL    HW2 9120   4.484   1.802   4.670
 3034SOL     OW 9121   4.583   0.956   4.585
 3034SOL    HW1 9122   4.637   0.887   4.633
 3034SOL    HW2 9123   4.551   1.025   4.651
 3035SOL     OW 9124   3.803   1.240   4.377
 3035SOL    HW1 9125   3.802   1.193   4.465
 3035SOL    HW2 9126   3.885   1.212   4.326
 3036SOL     OW 9127   4.152   0.424   4.244
 3036SOL    HW1 9128   4.182   0.352   4.182
 3036SOL    HW2 9129   4.113   0.384   4.327
 3037SOL     OW 9130   4.536   1.586   4.411
 3037SOL    HW1 9131   4.568   1.596   4.317
 3037SOL    HW2 9132   4.457   1.524   4.413
 3038SOL     OW 9133   4.494   1.330   4.025
 3038SOL    HW1 9134   4.448   1.243   4.042
 3038SOL    HW2 9135   4.585   1.327   4.066
 3039SOL     OW 9136   3.763   1.077   4.024
 3039SOL    HW1 9137   3.862   1.066   4.015
 3039SOL    HW2 9138   3.723   0.991   4.056
 3040SOL     OW 9139   4.599   1.646   4.061
 3040SOL    HW1 9140   4.522   1.611   4.007
 3040SOL    HW2 9141   4.567   1.717   4.123
 3041SOL     OW 9142   3.954   2.490   0.113
 3041SOL    HW1 9143   3.861   2.488   0.150
 3041SOL    HW2 9144   3.955   2.451   0.021
 3042SOL     OW 9145   3.949   2.137   0.996
 3042SOL    HW1 9146   3.984   2.120   1.088
 3042SOL    HW2 9147   3.861   2.092   0.984
 3043SOL     OW 9148   3.743   2.230   0.647
 3043SOL    HW1 9149   3.661   2.273   0.686
 3043SOL    HW2 9150   3.715   2.157   0.584
 3044SOL     OW 9151   4.293   3.137   1.165
 3044SOL    HW1 9152   4.200   3.130   1.128
 3044SOL    HW2 9153   4.304   3.226   1.209
 3045SOL     OW 9154   4.492   3.006   1.023
 3045SOL    HW1 9155   4.414   3.023   1.083
 3045SOL    HW2 9156   4.526   3.093   0.987
 3046SOL     OW 9157   4.574   2.660   1.823
 3046SOL    HW1 9158   4.570   2.736   1.888
 3046SOL    HW2 9159   4.596   2.696   1.732
 3047SOL     OW 9160   4.409   2.874   0.665
 3047SOL    HW1 9161   4.478   2.858   0.735
 3047SOL    HW2 9162   4.336   2.931   0.703
 3048SOL     OW 9163   4.410   3.023   1.803
 3048SOL    HW1 9164   4.470   3.102   1.817
 3048SOL    HW2 9165   4.324   3.054   1.762
 3049SOL     OW 9166   4.059   3.297   1.061
 3049SOL    HW1 9167   3.981   3.266   1.008
 3049SOL    HW2 9168   4.117   3.355   1.004
 3050SOL     OW 9169   4.162   2.254   1.499
 3050SOL    HW1 9170   4.244   2.198   1.508
 3050SOL    HW2 9171   4.081   2.196   1.503
 3051SOL     OW 9172   3.955   3.575   0.483
 3051SOL    HW1 9173   3.989   3.652   0.537
 3051SOL    HW2 9174   3.999   3.575   0.393
 3052SOL     OW 9175   3.954   3.296   0.538
 3052SOL    HW1 9176   3.928   3.392   0.538
 3052SOL    HW2 9177   3.883   3.242   0.583
 3053SOL     OW 9178   3.964   2.953   0.886
 3053SOL    HW1 9179   3.978   2.869   0.938
 3053SOL    HW2 9180   3.909   3.017   0.941
 3054SOL     OW 9181   4.344   3.648   1.439
 3054SOL    HW1 9182   4.252   3.631   1.474
 3054SOL    HW2 9183   4.372   3.740   1.465
 3055SOL     OW 9184   4.330   2.826   0.123
 3055SOL    HW1 9185   4.337   2.910   0.069
 3055SOL    HW2 9186   4.376   2.839   0.211
 3056SOL     OW 9187   3.846   2.505   0.563
 3056SOL    HW1 9188   3.801   2.417   0.580
 3056SOL    HW2 9189   3.845   2.559   0.647
 3057SOL     OW 9190   3.751   3.458   0.117
 3057SOL    HW1 9191   3.732   3.362   0.138
 3057SOL    HW2 9192   3.718   3.516   0.192
 3058SOL     OW 9193   3.837   2.599   1.597
 3058SOL    HW1 9194   3.925   2.586   1.642
 3058SOL    HW2 9195   3.824   2.696   1.575
 3059SOL     OW 9196   4.337   3.227   0.726
 3059SOL    HW1 9197   4.288   3.140   0.735
 3059SOL    HW2 9198   4.314   3.270   0.639
 3060SOL     OW 9199   4.533   1.866   0.502
 3060SOL    HW1 9200   4.573   1.957   0.493
 3060SOL    HW2 9201   4.433   1.874   0.508
 3061SOL     OW 9202   3.921   2.838   1.264
 3061SOL    HW1 9203   4.010   2.793   1.250
 3061SOL    HW2 9204   3.848   2.773   1.245
 3062SOL     OW 9205   4.041   2.113   1.801
 3062SOL    HW1 9206   4.112   2.184   1.807
 3062SOL    HW2 9207   3.953   2.152   1.829
 3063SOL     OW 9208   4.322   2.591   0.270
 3063SOL    HW1 9209   4.346   2.660   0.202
 3063SOL    HW2 9210   4.244   2.624   0.324
 3064SOL     OW 9211   4.531   2.467   1.465
 3064SOL    HW1 9212   4.484   2.464   1.554
 3064SOL    HW2 9213   4.480   2.412   1.399
 3065SOL     OW 9214   4.715   2.272   1.242
 3065SOL    HW1 9215   4.638   2.306   1.296
 3065SOL    HW2 9216   4.681   2.221   1.163
 3066SOL     OW 9217   3.800   2.673   0.789
 3066SOL    HW1 9218   3.899   2.661   0.798
 3066SOL    HW2 9219   3.776   2.768   0.810
 3067SOL     OW 9220   3.854   3.683   1.571
 3067SOL    HW1 9221   3.844   3.668   1.670
 3067SOL    HW2 9222   3.768   3.719   1.535
 3068SOL     OW 9223   4.589   2.210   0.195
 3068SOL    HW1 9224   4.648   2.273   0.146
 3068SOL    HW2 9225   4.608   2.116   0.166
 3069SOL     OW 9226   4.274   2.058   0.885
 3069SOL    HW1 9227   4.269   2.053   0.985
 3069SOL    HW2 9228   4.276   2.154   0.856
 3070SOL     OW 9229   4.732   3.318   0.477
 3070SOL    HW1 9230   4.686   3.390   0.425
 3070SOL    HW2 9231   4.728   3.338   0.575
 3071SOL     OW 9232   4.075   3.663   0.853
 3071SOL    HW1 9233   4.125   3.577   0.859
 3071SOL    HW2 9234   4.140   3.740   0.850
 3072SOL     OW 9235   4.045   2.805   0.242
 3072SOL    HW1 9236   4.127   2.844   0.200
 3072SOL    HW2 9237   4.018   2.723   0.193
 3073SOL     OW 9238   4.185   3.128   1.727
 3073SOL    HW1 9239   4.135   3.129   1.641
 3073SOL    HW2 9240   4.122   3.110   1.803
 3074SOL     OW 9241   3.926   2.147   1.498
 3074SOL    HW1 9242   3.846   2.207   1.485
 3074SOL    HW2 9243   3.916   2.098   1.584
 3075SOL     OW 9244   4.188   3.605   0.323
 3075SOL    HW1 9245   4.221   3.644   0.409
 3075SOL    HW2 9246   4.264   3.598   0.258
 3076SOL     OW 9247   3.973   3.647   1.241
 3076SOL    HW1 9248   4.030   3.582   1.291
 3076SOL    HW2 9249   3.957   3.614   1.148
 3077SOL     OW 9250   4.106   2.562   0.480
 3077SOL    HW1 9251   4.151   2.472   0.477
 3077SOL    HW2 9252   4.012   2.551   0.513
 3078SOL     OW 9253   4.338   1.984   0.117
 3078SOL    HW1 9254   4.436   1.962   0.124
 3078SOL    HW2 9255   4.307   1.967   0.024
 3079SOL     OW 9256   4.505   2.126   1.749
 3079SOL    HW1 9257   4.572   2.065   1.792
 3079SOL    HW2 9258   4.432   2.145   1.814
 3080SOL     OW 9259   4.612   3.376   1.195
 3080SOL    HW1 9260   4.589   3.351   1.101
 3080SOL    HW2 9261   4.673   3.307   1.234
 3081SOL     OW 9262   4.527   3.264   0.924
 3081SOL    HW1 9263   4.617   3.278   0.882
 3081SOL    HW2 9264   4.456   3.266   0.853
 3082SOL     OW 9265   4.646   2.365   0.899
 3082SOL    HW1 9266   4.621   2.356   0.803
 3082SOL    HW2 9267   4.694   2.283   0.930
 3083SOL     OW 9268   4.263   1.926   0.512
 3083SOL    HW1 9269   4.182   1.927   0.570
 3083SOL    HW2 9270   4.266   2.009   0.457
 3084SOL     OW 9271   4.951   3.432   0.793
 3084SOL    HW1 9272   4.972   3.506   0.728
 3084SOL    HW2 9273   5.019   3.432   0.866
 3085SOL     OW 9274   4.183   3.014   0.741
 3085SOL    HW1 9275   4.112   2.987   0.806
 3085SOL    HW2 9276   4.157   2.986   0.648
 3086SOL     OW 9277   3.802   2.418   1.386
 3086SOL    HW1 9278   3.894   2.417   1.345
 3086SOL    HW2 9279   3.796   2.492   1.453
 3087SOL     OW 9280   4.285   2.084   1.147
 3087SOL    HW1 9281   4.323   2.000   1.184
 3087SOL    HW2 9282   4.197   2.103   1.191
 3088SOL     OW 9283   4.741   1.901   0.753
 3088SOL    HW1 9284   4.669   1.906   0.684
 3088SOL    HW2 9285   4.717   1.832   0.822
 3089SOL     OW 9286   4.212   3.247   0.174
 3089SOL    HW1 9287   4.125   3.232   0.221
 3089SOL    HW2 9288   4.195   3.273   0.079
 3090SOL     OW 9289   4.251   2.118   0.328
 3090SOL    HW1 9290   4.278   2.059   0.253
 3090SOL    HW2 9291   4.251   2.213   0.297
 3091SOL     OW 9292   4.639   1.951   1.402
 3091SOL    HW1 9293   4.664   1.931   1.307
 3091SOL    HW2 9294   4.711   2.007   1.444
 3092SOL     OW 9295   4.704   2.978   1.719
 3092SOL    HW1 9296   4.605   2.984   1.729
 3092SOL    HW2 9297   4.727   2.898   1.663
 3093SOL     OW 9298   4.429   2.912   0.368
 3093SOL    HW1 9299   4.415   2.919   0.467
 3093SOL    HW2 9300   4.513   2.861   0.350
 3094SOL     OW 9301   4.134   2.675   1.251
 3094SOL    HW1 9302   4.220   2.687   1.301
 3094SOL    HW2 9303   4.092   2.588   1.278
 3095SOL     OW 9304   3.788   3.426   1.331
 3095SOL    HW1 9305   3.742   3.508   1.297
 3095SOL    HW2 9306   3.886   3.445   1.340
 3096SOL     OW 9307   4.091   2.962   0.501
 3096SOL    HW1 9308   4.084   3.045   0.445
 3096SOL    HW2 9309   4.095   2.882   0.441
 3097SOL     OW 9310   4.290   2.399   0.865
 3097SOL    HW1 9311   4.302   2.465   0.791
 3097SOL    HW2 9312   4.336   2.433   0.948
 3098SOL     OW 9313   4.078   3.372   1.329
 3098SOL    HW1 9314   4.057   3.328   1.242
 3098SOL    HW2 9315   4.175   3.398   1.332
 3099SOL     OW 9316   4.126   2.613   1.598
 3099SOL    HW1 9317   4.194   2.668   1.551
 3099SOL    HW2 9318   4.166   2.525   1.625
 3100SOL     OW 9319   4.737   1.967   1.770
 3100SOL    HW1 9320   4.743   2.052   1.718
 3100SOL    HW2 9321   4.769   1.891   1.713
 3101SOL     OW 9322   4.228   1.912   1.740
 3101SOL    HW1 9323   4.186   1.855   1.670
 3101SOL    HW2 9324   4.162   1.981   1.772
 3102SOL     OW 9325   4.297   2.732   1.029
 3102SOL    HW1 9326   4.341   2.821   1.020
 3102SOL    HW2 9327   4.234   2.732   1.106
 3103SOL     OW 9328   4.933   2.387   0.275
 3103SOL    HW1 9329   4.946   2.303   0.329
 3103SOL    HW2 9330   4.904   2.461   0.335
 3104SOL     OW 9331   4.031   2.075   1.231
 3104SOL    HW1 9332   4.008   2.112   1.321
 3104SOL    HW2 9333   4.001   1.980   1.225
 3105SOL     OW 9334   3.761   3.172   1.282
 3105SOL    HW1 9335   3.814   3.123   1.350
 3105SOL    HW2 9336   3.783   3.270   1.287
 3106SOL     OW 9337   4.456   2.496   1.064
 3106SOL    HW1 9338   4.515   2.470   0.988
 3106SOL    HW2 9339   4.428   2.592   1.053
 3107SOL     OW 9340   4.031   1.925   0.618
 3107SOL    HW1 9341   4.020   2.019   0.651
 3107SOL    HW2 9342   4.026   1.862   0.695
 3108SOL     OW 9343   4.747   2.628   0.966
 3108SOL    HW1 9344   4.762   2.649   1.062
 3108SOL    HW2 9345   4.717   2.533   0.957
 3109SOL     OW 9346   4.704   3.435   1.700
 3109SOL    HW1 9347   4.684   3.479   1.612
 3109SOL    HW2 9348   4.743   3.344   1.684
 3110SOL     OW 9349   4.074   2.760   1.804
 3110SOL    HW1 9350   4.150   2.804   1.852
 3110SOL    HW2 9351   4.109   2.713   1.722
 3111SOL     OW 9352   4.043   2.672   0.949
 3111SOL    HW1 9353   4.136   2.708   0.954
 3111SOL    HW2 9354   4.037   2.587   1.001
 3112SOL     OW 9355   4.063   2.371   1.006
 3112SOL    HW1 9356   4.011   2.288   0.989
 3112SOL    HW2 9357   4.140   2.376   0.942
 3113SOL     OW 9358   3.732   3.188   0.200
 3113SOL    HW1 9359   3.639   3.209   0.169
 3113SOL    HW2 9360   3.742   3.089   0.213
 3114SOL     OW 9361   3.812   3.663   0.927
 3114SOL    HW1 9362   3.770   3.577   0.900
 3114SOL    HW2 9363   3.906   3.666   0.893
 3115SOL     OW 9364   4.228   3.430   0.910
 3115SOL    HW1 9365   4.294   3.504   0.919
 3115SOL    HW2 9366   4.272   3.351   0.868
 3116SOL     OW 9367   4.726   2.658   1.238
 3116SOL    HW1 9368   4.767   2.626   1.324
 3116SOL    HW2 9369   4.630   2.631   1.235
 3117SOL     OW 9370   3.764   2.406   1.114
 3117SOL    HW1 9371   3.849   2.373   1.073
 3117SOL    HW2 9372   3.777   2.421   1.212
 3118SOL     OW 9373   3.913   2.382   1.722
 3118SOL    HW1 9374   3.972   2.342   1.652
 3118SOL    HW2 9375   3.855   2.453   1.681
 3119SOL     OW 9376   4.539   2.434   0.325
 3119SOL    HW1 9377   4.546   2.345   0.279
 3119SOL    HW2 9378   4.445   2.468   0.317
 3120SOL     OW 9379   3.976   3.426   1.744
 3120SOL    HW1 9380   3.946   3.483   1.820
 3120SOL    HW2 9381   3.969   3.329   1.770
 3121SOL     OW 9382   4.395   2.326   1.269
 3121SOL    HW1 9383   4.361   2.237   1.239
 3121SOL    HW2 9384   4.421   2.380   1.189
 3122SOL     OW 9385   4.654   3.540   1.465
 3122SOL    HW1 9386   4.630   3.522   1.370
 3122SOL    HW2 9387   4.684   3.634   1.475
 3123SOL     OW 9388   4.197   2.362   0.191
 3123SOL    HW1 9389   4.258   2.442   0.195
 3123SOL    HW2 9390   4.102   2.393   0.198
 3124SOL     OW 9391   3.883   2.999   1.466
 3124SOL    HW1 9392   3.905   2.938   1.542
 3124SOL    HW2 9393   3.893   2.950   1.380
 3125SOL     OW 9394   3.807   3.120   1.022
 3125SOL    HW1 9395   3.802   3.119   1.122
 3125SOL    HW2 9396   3.724   3.079   0.984
 3126SOL     OW 9397   4.412   3.524   1.716
 3126SOL    HW1 9398   4.356   3.605   1.725
 3126SOL    HW2 9399   4.464   3.528   1.630
 3127SOL     OW 9400   4.627   1.948   0.133
 3127SOL    HW1 9401   4.678   1.949   0.047
 3127SOL    HW2 9402   4.683   1.906   0.204
 3128SOL     OW 9403   3.854   3.656   1.851
 3128SOL    HW1 9404   3.813   3.582   1.904
 3128SOL    HW2 9405   3.918   3.707   1.909
 3129SOL     OW 9406   5.004   2.789   0.672
 3129SOL    HW1 9407   5.064   2.708   0.674
 3129SOL    HW2 9408   5.044   2.858   0.612
 3130SOL     OW 9409   4.554   3.135   1.422
 3130SOL    HW1 9410   4.549   3.168   1.517
 3130SOL    HW2 9411   4.468   3.154   1.376
 3131SOL     OW 9412   4.396   3.478   0.154
 3131SOL    HW1 9413   4.405   3.488   0.055
 3131SOL    HW2 9414   4.356   3.389   0.175
 3132SOL     OW 9415   3.987   2.188   0.720
 3132SOL    HW1 9416   3.908   2.239   0.686
 3132SOL    HW2 9417   3.978   2.173   0.818
 3133SOL     OW 9418   4.546   2.864   1.372
 3133SOL    HW1 9419   4.586   2.863   1.280
 3133SOL    HW2 9420   4.556   2.956   1.412
 3134SOL     OW 9421   4.096   3.150   1.490
 3134SOL    HW1 9422   4.083   3.243   1.456
 3134SOL    HW2 9423   4.012   3.098   1.477
 3135SOL     OW 9424   4.738   2.098   0.971
 3135SOL    HW1 9425   4.730   2.062   0.878
 3135SOL    HW2 9426   4.736   2.022   1.036
 3136SOL     OW 9427   4.314   3.349   0.491
 3136SOL    HW1 9428   4.356   3.291   0.421
 3136SOL    HW2 9429   4.270   3.428   0.447
 3137SOL     OW 9430   3.979   3.210   0.290
 3137SOL    HW1 9431   3.883   3.211   0.263
 3137SOL    HW2 9432   3.991   3.263   0.374
 3138SOL     OW 9433   3.829   2.875   1.726
 3138SOL    HW1 9434   3.752   2.842   1.780
 3138SOL    HW2 9435   3.914   2.845   1.768
 3139SOL     OW 9436   4.396   2.065   1.489
 3139SOL    HW1 9437   4.486   2.049   1.449
 3139SOL    HW2 9438   4.404   2.070   1.588
 3140SOL     OW 9439   3.799   2.207   0.033
 3140SOL    HW1 9440   3.707   2.179   0.004
 3140SOL    HW2 9441   3.830   2.284  -0.023
 3141SOL     OW 9442   4.337   2.704   1.431
 3141SOL    HW1 9443   4.393   2.785   1.414
 3141SOL    HW2 9444   4.396   2.624   1.434
 3142SOL     OW 9445   4.440   2.427   1.708
 3142SOL    HW1 9446   4.459   2.492   1.782
 3142SOL    HW2 9447   4.500   2.347   1.717
 3143SOL     OW 9448   4.114   3.603   1.560
 3143SOL    HW1 9449   4.023   3.644   1.558
 3143SOL    HW2 9450   4.107   3.509   1.592
 3144SOL     OW 9451   4.949   2.187   0.449
 3144SOL    HW1 9452   5.014   2.113   0.438
 3144SOL    HW2 9453   4.969   2.237   0.533
 3145SOL     OW 9454   4.318   2.607   0.652
 3145SOL    HW1 9455   4.368   2.692   0.633
 3145SOL    HW2 9456   4.230   2.609   0.604
 3146SOL     OW 9457   4.583   3.236   0.016
 3146SOL    HW1 9458   4.537   3.251   0.104
 3146SOL    HW2 9459   4.627   3.321  -0.014
 3147SOL     OW 9460   4.385   3.652   0.953
 3147SOL    HW1 9461   4.339   3.740   0.940
 3147SOL    HW2 9462   4.484   3.664   0.946
 3148SOL     OW 9463   4.583   2.818   0.861
 3148SOL    HW1 9464   4.637   2.749   0.909
 3148SOL    HW2 9465   4.551   2.887   0.927
 3149SOL     OW 9466   4.807   2.846   0.087
 3149SOL    HW1 9467   4.784   2.899   0.005
 3149SOL    HW2 9468   4.888   2.790   0.068
 3150SOL     OW 9469   3.945   3.176   1.844
 3150SOL    HW1 9470   3.880   3.103   1.823
 3150SOL    HW2 9471   3.949   3.190   1.942
 3151SOL     OW 9472   3.803   3.102   0.653
 3151SOL    HW1 9473   3.802   3.055   0.741
 3151SOL    HW2 9474   3.885   3.074   0.602
 3152SOL     OW 9475   4.396   3.253   1.624
 3152SOL    HW1 9476   4.318   3.203   1.662
 3152SOL    HW2 9477   4.393   3.348   1.655
 3153SOL     OW 9478   4.152   2.286   0.520
 3153SOL    HW1 9479   4.182   2.214   0.458
 3153SOL    HW2 9480   4.113   2.246   0.603
 3154SOL     OW 9481   4.041   2.409   1.280
 3154SOL    HW1 9482   4.079   2.350   1.352
 3154SOL    HW2 9483   4.081   2.383   1.192
 3155SOL     OW 9484   4.536   3.448   0.687
 3155SOL    HW1 9485   4.568   3.458   0.593
 3155SOL    HW2 9486   4.457   3.386   0.689
 3156SOL     OW 9487   4.725   1.896   1.154
 3156SOL    HW1 9488   4.662   1.824   1.123
 3156SOL    HW2 9489   4.818   1.860   1.154
 3157SOL     OW 9490   4.494   3.192   0.301
 3157SOL    HW1 9491   4.448   3.105   0.318
 3157SOL    HW2 9492   4.585   3.189   0.342
 3158SOL     OW 9493   4.342   3.429   1.284
 3158SOL    HW1 9494   4.337   3.511   1.341
 3158SOL    HW2 9495   4.431   3.426   1.239
 3159SOL     OW 9496   3.763   2.939   0.300
 3159SOL    HW1 9497   3.862   2.928   0.291
 3159SOL    HW2 9498   3.723   2.853   0.332
 3160SOL     OW 9499   4.599   3.508   0.337
 3160SOL    HW1 9500   4.522   3.473   0.283
 3160SOL    HW2 9501   4.567   3.579   0.399
 3161SOL     OW 9502   3.954   2.490   1.975
 3161SOL    HW1 9503   3.861   2.488   2.012
 3161SOL    HW2 9504   3.955   2.451   1.883
 3162SOL     OW 9505   3.949   2.137   2.858
 3162SOL    HW1 9506   3.984   2.120   2.950
 3162SOL    HW2 9507   3.861   2.092   2.846
 3163SOL     OW 9508   3.743   2.230   2.509
 3163SOL    HW1 9509   3.661   2.273   2.548
 3163SOL    HW2 9510   3.715   2.157   2.446
 3164SOL     OW 9511   4.293   3.137   3.027
 3164SOL    HW1 9512   4.200   3.130   2.990
 3164SOL    HW2 9513   4.304   3.226   3.071
 3165SOL     OW 9514   4.492   3.006   2.885
 3165SOL    HW1 9515   4.414   3.023   2.945
 3165SOL    HW2 9516   4.526   3.093   2.849
 3166SOL     OW 9517   4.574   2.660   3.685
 3166SOL    HW1 9518   4.570   2.736   3.750
 3166SOL    HW2 9519   4.596   2.696   3.594
 3167SOL     OW 9520   4.409   2.874   2.527
 3167SOL    HW1 9521   4.478   2.858   2.597
 3167SOL    HW2 9522   4.336   2.931   2.565
 3168SOL     OW 9523   4.410   3.023   3.665
 3168SOL    HW1 9524   4.470   3.102   3.679
 3168SOL    HW2 9525   4.324   3.054   3.624
 3169SOL     OW 9526   4.059   3.297   2.923
 3169SOL    HW1 9527   3.981   3.266   2.870
 3169SOL    HW2 9528   4.117   3.355   2.866
 3170SOL     OW 9529   4.162   2.254   3.361
 3170SOL    HW1 9530   4.244   2.198   3.370
 3170SOL    HW2 9531   4.081   2.196   3.365
 3171SOL     OW 9532   3.955   3.575   2.345
 3171SOL    HW1 9533   3.989   3.652   2.399
 3171SOL    HW2 9534   3.999   3.575   2.255
 3172SOL     OW 9535   3.954   3.296   2.400
 3172SOL    HW1 9536   3.928   3.392   2.400
 3172SOL    HW2 9537   3.883   3.242   2.445
 3173SOL     OW 9538   3.964   2.953   2.748
 3173SOL    HW1 9539   3.978   2.869   2.800
 3173SOL    HW2 9540   3.909   3.017   2.803
 3174SOL     OW 9541   4.344   3.648   3.301
 3174SOL    HW1 9542   4.252   3.631   3.336
 3174SOL    HW2 9543   4.372   3.740   3.327
 3175SOL     OW 9544   4.330   2.826   1.985
 3175SOL    HW1 9545   4.337   2.910   1.931
 3175SOL    HW2 9546   4.376   2.839   2.073
 3176SOL     OW 9547   3.846   2.505   2.425
 3176SOL    HW1 9548   3.801   2.417   2.442
 3176SOL    HW2 9549   3.845   2.559   2.509
 3177SOL     OW 9550   3.751   3.458   1.979
 3177SOL    HW1 9551   3.732   3.362   2.000
 3177SOL    HW2 9552   3.718   3.516   2.054
 3178SOL     OW 9553   3.837   2.599   3.459
 3178SOL    HW1 9554   3.925   2.586   3.504
 3178SOL    HW2 9555   3.824   2.696   3.437
 3179SOL     OW 9556   4.337   3.227   2.588
 3179SOL    HW1 9557   4.288   3.140   2.597
 3179SOL    HW2 9558   4.314   3.270   2.501
 3180SOL     OW 9559   4.533   1.866   2.364
 3180SOL    HW1 9560   4.573   1.957   2.355
 3180SOL    HW2 9561   4.433   1.874   2.370
 3181SOL     OW 9562   3.921   2.838   3.126
 3181SOL    HW1 9563   4.010   2.793   3.112
 3181SOL    HW2 9564   3.848   2.773   3.107
 3182SOL     OW 9565   4.041   2.113   3.663
 3182SOL    HW1 9566   4.112   2.184   3.669
 3182SOL    HW2 9567   3.953   2.152   3.691
 3183SOL     OW 9568   4.322   2.591   2.132
 3183SOL    HW1 9569   4.346   2.660   2.064
 3183SOL    HW2 9570   4.244   2.624   2.186
 3184SOL     OW 9571   4.531   2.467   3.327
 3184SOL    HW1 9572   4.484   2.464   3.416
 3184SOL    HW2 9573   4.480   2.412   3.261
 3185SOL     OW 9574   4.715   2.272   3.104
 3185SOL    HW1 9575   4.638   2.306   3.158
 3185SOL    HW2 9576   4.681   2.221   3.025
 3186SOL     OW 9577   3.800   2.673   2.651
 3186SOL    HW1 9578   3.899   2.661   2.660
 3186SOL    HW2 9579   3.776   2.768   2.672
 3187SOL     OW 9580   3.854   3.683   3.433
 3187SOL    HW1 9581   3.844   3.668   3.532
 3187SOL    HW2 9582   3.768   3.719   3.397
 3188SOL     OW 9583   4.589   2.210   2.057
 3188SOL    HW1 9584   4.648   2.273   2.008
 3188SOL    HW2 9585   4.608   2.116   2.028
 3189SOL     OW 9586   4.274   2.058   2.747
 3189SOL    HW1 9587   4.269   2.053   2.847
 3189SOL    HW2 9588   4.276   2.154   2.718
 3190SOL     OW 9589   4.732   3.318   2.339
 3190SOL    HW1 9590   4.686   3.390   2.287
 3190SOL    HW2 9591   4.728   3.338   2.437
 3191SOL     OW 9592   4.075   3.663   2.715
 3191SOL    HW1 9593   4.125   3.577   2.721
 3191SOL    HW2 9594   4.140   3.740   2.712
 3192SOL     OW 9595   4.045   2.805   2.104
 3192SOL    HW1 9596   4.127   2.844   2.062
 3192SOL    HW2 9597   4.018   2.723   2.055
 3193SOL     OW 9598   4.185   3.128   3.589
 3193SOL    HW1 9599   4.135   3.129   3.503
 3193SOL    HW2 9600   4.122   3.110   3.665
 3194SOL     OW 9601   3.926   2.147   3.360
 3194SOL    HW1 9602   3.846   2.207   3.347
 3194SOL    HW2 9603   3.916   2.098   3.446
 3195SOL     OW 9604   4.188   3.605   2.185
 3195SOL    HW1 9605   4.221   3.644   2.271
 3195SOL    HW2 9606   4.264   3.598   2.120
 3196SOL     OW 9607   3.973   3.647   3.103
 3196SOL    HW1 9608   4.030   3.582   3.153
 3196SOL    HW2 9609   3.957   3.614   3.010
 3197SOL     OW 9610   4.106   2.562   2.342
 3197SOL    HW1 9611   4.151   2.472   2.339
 3197SOL    HW2 9612   4.012   2.551   2.375
 3198SOL     OW 9613   4.338   1.984   1.979
 3198SOL    HW1 9614   4.436   1.962   1.986
 3198SOL    HW2 9615   4.307   1.967   1.886
 3199SOL     OW 9616   4.505   2.126   3.611
 3199SOL    HW1 9617   4.572   2.065   3.654
 3199SOL    HW2 9618   4.432   2.145   3.676
 3200SOL     OW 9619   4.612   3.376   3.057
 3200SOL    HW1 9620   4.589   3.351   2.963
 3200SOL    HW2 9621   4.673   3.307   3.096
 3201SOL     OW 9622   4.527   3.264   2.786
 3201SOL    HW1 9623   4.617   3.278   2.744
 3201SOL    HW2 9624   4.456   3.266   2.715
 3202SOL     OW 9625   4.646   2.365   2.761
 3202SOL    HW1 9626   4.621   2.356   2.665
 3202SOL    HW2 9627   4.694   2.283   2.792
 3203SOL     OW 9628   4.263   1.926   2.374
 3203SOL    HW1 9629   4.182   1.927   2.432
 3203SOL    HW2 9630   4.266   2.009   2.319
 3204SOL     OW 9631   4.021   1.897   2.033
 3204SOL    HW1 9632   4.070   1.981   2.012
 3204SOL    HW2 9633   4.083   1.832   2.078
 3205SOL     OW 9634   4.951   3.432   2.655
 3205SOL    HW1 9635   4.972   3.506   2.590
 3205SOL    HW2 9636   5.019   3.432   2.728
 3206SOL     OW 9637   4.183   3.014   2.603
 3206SOL    HW1 9638   4.112   2.987   2.668
 3206SOL    HW2 9639   4.157   2.986   2.510
 3207SOL     OW 9640   3.802   2.418   3.248
 3207SOL    HW1 9641   3.894   2.417   3.207
 3207SOL    HW2 9642   3.796   2.492   3.315
 3208SOL     OW 9643   4.285   2.084   3.009
 3208SOL    HW1 9644   4.323   2.000   3.046
 3208SOL    HW2 9645   4.197   2.103   3.053
 3209SOL     OW 9646   4.741   1.901   2.615
 3209SOL    HW1 9647   4.669   1.906   2.546
 3209SOL    HW2 9648   4.717   1.832   2.684
 3210SOL     OW 9649   4.212   3.247   2.036
 3210SOL    HW1 9650   4.125   3.232   2.083
 3210SOL    HW2 9651   4.195   3.273   1.941
 3211SOL     OW 9652   4.251   2.118   2.190
 3211SOL    HW1 9653   4.278   2.059   2.115
 3211SOL    HW2 9654   4.251   2.213   2.159
 3212SOL     OW 9655   4.639   1.951   3.264
 3212SOL    HW1 9656   4.664   1.931   3.169
 3212SOL    HW2 9657   4.711   2.007   3.306
 3213SOL     OW 9658   4.704   2.978   3.581
 3213SOL    HW1 9659   4.605   2.984   3.591
 3213SOL    HW2 9660   4.727   2.898   3.525
 3214SOL     OW 9661   4.429   2.912   2.230
 3214SOL    HW1 9662   4.415   2.919   2.329
 3214SOL    HW2 9663   4.513   2.861   2.212
 3215SOL     OW 9664   4.134   2.675   3.113
 3215SOL    HW1 9665   4.220   2.687   3.163
 3215SOL    HW2 9666   4.092   2.588   3.140
 3216SOL     OW 9667   3.788   3.426   3.193
 3216SOL    HW1 9668   3.742   3.508   3.159
 3216SOL    HW2 9669   3.886   3.445   3.202
 3217SOL     OW 9670   4.091   2.962   2.363
 3217SOL    HW1 9671   4.084   3.045   2.307
 3217SOL    HW2 9672   4.095   2.882   2.303
 3218SOL     OW 9673   4.290   2.399   2.727
 3218SOL    HW1 9674   4.302   2.465   2.653
 3218SOL    HW2 9675   4.336   2.433   2.810
 3219SOL     OW 9676   4.078   3.372   3.191
 3219SOL    HW1 9677   4.057   3.328   3.104
 3219SOL    HW2 9678   4.175   3.398   3.194
 3220SOL     OW 9679   4.126   2.613   3.460
 3220SOL    HW1 9680   4.194   2.668   3.413
 3220SOL    HW2 9681   4.166   2.525   3.487
 3221SOL     OW 9682   4.737   1.967   3.632
 3221SOL    HW1 9683   4.743   2.052   3.580
 3221SOL    HW2 9684   4.769   1.891   3.575
 3222SOL     OW 9685   4.228   1.912   3.602
 3222SOL    HW1 9686   4.186   1.855   3.532
 3222SOL    HW2 9687   4.162   1.981   3.634
 3223SOL     OW 9688   4.297   2.732   2.891
 3223SOL    HW1 9689   4.341   2.821   2.882
 3223SOL    HW2 9690   4.234   2.732   2.968
 3224SOL     OW 9691   4.933   2.387   2.137
 3224SOL    HW1 9692   4.946   2.303   2.191
 3224SOL    HW2 9693   4.904   2.461   2.197
 3225SOL     OW 9694   4.031   2.075   3.093
 3225SOL    HW1 9695   4.008   2.112   3.183
 3225SOL    HW2 9696   4.001   1.980   3.087
 3226SOL     OW 9697   3.761   3.172   3.144
 3226SOL    HW1 9698   3.814   3.123   3.212
 3226SOL    HW2 9699   3.783   3.270   3.149
 3227SOL     OW 9700   4.456   2.496   2.926
 3227SOL    HW1 9701   4.515   2.470   2.850
 3227SOL    HW2 9702   4.428   2.592   2.915
 3228SOL     OW 9703   4.031   1.925   2.480
 3228SOL    HW1 9704   4.020   2.019   2.513
 3228SOL    HW2 9705   4.026   1.862   2.557
 3229SOL     OW 9706   4.747   2.628   2.828
 3229SOL    HW1 9707   4.762   2.649   2.924
 3229SOL    HW2 9708   4.717   2.533   2.819
 3230SOL     OW 9709   4.704   3.435   3.562
 3230SOL    HW1 9710   4.684   3.479   3.474
 3230SOL    HW2 9711   4.743   3.344   3.546
 3231SOL     OW 9712   4.074   2.760   3.666
 3231SOL    HW1 9713   4.150   2.804   3.714
 3231SOL    HW2 9714   4.109   2.713   3.584
 3232SOL     OW 9715   4.043   2.672   2.811
 3232SOL    HW1 9716   4.136   2.708   2.816
 3232SOL    HW2 9717   4.037   2.587   2.863
 3233SOL     OW 9718   4.063   2.371   2.868
 3233SOL    HW1 9719   4.011   2.288   2.851
 3233SOL    HW2 9720   4.140   2.376   2.804
 3234SOL     OW 9721   3.732   3.188   2.062
 3234SOL    HW1 9722   3.639   3.209   2.031
 3234SOL    HW2 9723   3.742   3.089   2.075
 3235SOL     OW 9724   3.812   3.663   2.789
 3235SOL    HW1 9725   3.770   3.577   2.762
 3235SOL    HW2 9726   3.906   3.666   2.755
 3236SOL     OW 9727   4.228   3.430   2.772
 3236SOL    HW1 9728   4.294   3.504   2.781
 3236SOL    HW2 9729   4.272   3.351   2.730
 3237SOL     OW 9730   4.726   2.658   3.100
 3237SOL    HW1 9731   4.767   2.626   3.186
 3237SOL    HW2 9732   4.630   2.631   3.097
 3238SOL     OW 9733   3.764   2.406   2.976
 3238SOL    HW1 9734   3.849   2.373   2.935
 3238SOL    HW2 9735   3.777   2.421   3.074
 3239SOL     OW 9736   3.913   2.382   3.584
 3239SOL    HW1 9737   3.972   2.342   3.514
 3239SOL    HW2 9738   3.855   2.453   3.543
 3240SOL     OW 9739   4.539   2.434   2.187
 3240SOL    HW1 9740   4.546   2.345   2.141
 3240SOL    HW2 9741   4.445   2.468   2.179
 3241SOL     OW 9742   3.976   3.426   3.606
 3241SOL    HW1 9743   3.946   3.483   3.682
 3241SOL    HW2 9744   3.969   3.329   3.632
 3242SOL     OW 9745   4.395   2.326   3.131
 3242SOL    HW1 9746   4.361   2.237   3.101
 3242SOL    HW2 9747   4.421   2.380   3.051
 3243SOL     OW 9748   4.654   3.540   3.327
 3243SOL    HW1 9749   4.630   3.522   3.232
 3243SOL    HW2 9750   4.684   3.634   3.337
 3244SOL     OW 9751   4.197   2.362   2.053
 3244SOL    HW1 9752   4.258   2.442   2.057
 3244SOL    HW2 9753   4.102   2.393   2.060
 3245SOL     OW 9754   3.883   2.999   3.328
 3245SOL    HW1 9755   3.905   2.938   3.404
 3245SOL    HW2 9756   3.893   2.950   3.242
 3246SOL     OW 9757   3.807   3.120   2.884
 3246SOL    HW1 9758   3.802   3.119   2.984
 3246SOL    HW2 9759   3.724   3.079   2.846
 3247SOL     OW 9760   4.412   3.524   3.578
 3247SOL    HW1 9761   4.356   3.605   3.587
 3247SOL    HW2 9762   4.464   3.528   3.492
 3248SOL     OW 9763   3.854   3.656   3.713
 3248SOL    HW1 9764   3.813   3.582   3.766
 3248SOL    HW2 9765   3.918   3.707   3.771
 3249SOL     OW 9766   5.004   2.789   2.534
 3249SOL    HW1 9767   5.064   2.708   2.536
 3249SOL    HW2 9768   5.044   2.858   2.474
 3250SOL     OW 9769   4.554   3.135   3.284
 3250SOL    HW1 9770   4.549   3.168   3.379
 3250SOL    HW2 9771   4.468   3.154   3.238
 3251SOL     OW 9772   4.396   3.478   2.016
 3251SOL    HW1 9773   4.405   3.488   1.917
 3251SOL    HW2 9774   4.356   3.389   2.037
 3252SOL     OW 9775   3.987   2.188   2.582
 3252SOL    HW1 9776   3.908   2.239   2.548
 3252SOL    HW2 9777   3.978   2.173   2.680
 3253SOL     OW 9778   4.546   2.864   3.234
 3253SOL    HW1 9779   4.586   2.863   3.142
 3253SOL    HW2 9780   4.556   2.956   3.274
 3254SOL     OW 9781   4.096   3.150   3.352
 3254SOL    HW1 9782   4.083   3.243   3.318
 3254SOL    HW2 9783   4.012   3.098   3.339
 3255SOL     OW 9784   4.738   2.098   2.833
 3255SOL    HW1 9785   4.730   2.062   2.740
 3255SOL    HW2 9786   4.736   2.022   2.898
 3256SOL     OW 9787   4.314   3.349   2.353
 3256SOL    HW1 9788   4.356   3.291   2.283
 3256SOL    HW2 9789   4.270   3.428   2.309
 3257SOL     OW 9790   3.979   3.210   2.152
 3257SOL    HW1 9791   3.883   3.211   2.125
 3257SOL    HW2 9792   3.991   3.263   2.236
 3258SOL     OW 9793   3.829   2.875   3.588
 3258SOL    HW1 9794   3.752   2.842   3.642
 3258SOL    HW2 9795   3.914   2.845   3.630
 3259SOL     OW 9796   4.396   2.065   3.351
 3259SOL    HW1 9797   4.486   2.049   3.311
 3259SOL    HW2 9798   4.404   2.070   3.450
 3260SOL     OW 9799   3.799   2.207   1.895
 3260SOL    HW1 9800   3.707   2.179   1.866
 3260SOL    HW2 9801   3.830   2.284   1.839
 3261SOL     OW 9802   3.796   2.028   2.180
 3261SOL    HW1 9803   3.779   2.111   2.126
 3261SOL    HW2 9804   3.886   1.991   2.158
 3262SOL     OW 9805   4.337   2.704   3.293
 3262SOL    HW1 9806   4.393   2.785   3.276
 3262SOL    HW2 9807   4.396   2.624   3.296
 3263SOL     OW 9808   4.440   2.427   3.570
 3263SOL    HW1 9809   4.459   2.492   3.644
 3263SOL    HW2 9810   4.500   2.347   3.579
 3264SOL     OW 9811   4.114   3.603   3.422
 3264SOL    HW1 9812   4.023   3.644   3.420
 3264SOL    HW2 9813   4.107   3.509   3.454
 3265SOL     OW 9814   4.949   2.187   2.311
 3265SOL    HW1 9815   5.014   2.113   2.300
 3265SOL    HW2 9816   4.969   2.237   2.395
 3266SOL     OW 9817   4.318   2.607   2.514
 3266SOL    HW1 9818   4.368   2.692   2.495
 3266SOL    HW2 9819   4.230   2.609   2.466
 3267SOL     OW 9820   4.583   3.236   1.878
 3267SOL    HW1 9821   4.537   3.251   1.966
 3267SOL    HW2 9822   4.627   3.321   1.848
 3268SOL     OW 9823   4.385   3.652   2.815
 3268SOL    HW1 9824   4.339   3.740   2.802
 3268SOL    HW2 9825   4.484   3.664   2.808
 3269SOL     OW 9826   4.583   2.818   2.723
 3269SOL    HW1 9827   4.637   2.749   2.771
 3269SOL    HW2 9828   4.551   2.887   2.789
 3270SOL     OW 9829   3.945   3.176   3.706
 3270SOL    HW1 9830   3.880   3.103   3.685
 3270SOL    HW2 9831   3.949   3.190   3.804
 3271SOL     OW 9832   3.803   3.102   2.515
 3271SOL    HW1 9833   3.802   3.055   2.603
 3271SOL    HW2 9834   3.885   3.074   2.464
 3272SOL     OW 9835   4.396   3.253   3.486
 3272SOL    HW1 9836   4.318   3.203   3.524
 3272SOL    HW2 9837   4.393   3.348   3.517
 3273SOL     OW 9838   4.152   2.286   2.382
 3273SOL    HW1 9839   4.182   2.214   2.320
 3273SOL    HW2 9840   4.113   2.246   2.465
 3274SOL     OW 9841   4.041   2.409   3.142
 3274SOL    HW1 9842   4.079   2.350   3.214
 3274SOL    HW2 9843   4.081   2.383   3.054
 3275SOL     OW 9844   4.536   3.448   2.549
 3275SOL    HW1 9845   4.568   3.458   2.455
 3275SOL    HW2 9846   4.457   3.386   2.551
 3276SOL     OW 9847   4.725   1.896   3.016
 3276SOL    HW1 9848   4.662   1.824   2.985
 3276SOL    HW2 9849   4.818   1.860   3.016
 3277SOL     OW 9850   4.494   3.192   2.163
 3277SOL    HW1 9851   4.448   3.105   2.180
 3277SOL    HW2 9852   4.585   3.189   2.204
 3278SOL     OW 9853   4.342   3.429   3.146
 3278SOL    HW1 9854   4.337   3.511   3.203
 3278SOL    HW2 9855   4.431   3.426   3.101
 3279SOL     OW 9856   3.763   2.939   2.162
 3279SOL    HW1 9857   3.862   2.928   2.153
 3279SOL    HW2 9858   3.723   2.853   2.194
 3280SOL     OW 9859   4.599   3.508   2.199
 3280SOL    HW1 9860   4.522   3.473   2.145
 3280SOL    HW2 9861   4.567   3.579   2.261
 3281SOL     OW 9862   3.954   2.490   3.837
 3281SOL    HW1 9863   3.861   2.488   3.874
 3281SOL    HW2 9864   3.955   2.451   3.745
 3282SOL     OW 9865   3.949   2.137   4.720
 3282SOL    HW1 9866   3.984   2.120   4.812
 3282SOL    HW2 9867   3.861   2.092   4.708
 3283SOL     OW 9868   3.743   2.230   4.371
 3283SOL    HW1 9869   3.661   2.273   4.410
 3283SOL    HW2 9870   3.715   2.157   4.308
 3284SOL     OW 9871   4.492   3.006   4.747
 3284SOL    HW1 9872   4.414   3.023   4.807
 3284SOL    HW2 9873   4.526   3.093   4.711
 3285SOL     OW 9874   4.409   2.874   4.389
 3285SOL    HW1 9875   4.478   2.858   4.459
 3285SOL    HW2 9876   4.336   2.931   4.427
 3286SOL     OW 9877   3.955   3.575   4.207
 3286SOL    HW1 9878   3.989   3.652   4.261
 3286SOL    HW2 9879   3.999   3.575   4.117
 3287SOL     OW 9880   3.954   3.296   4.262
 3287SOL    HW1 9881   3.928   3.392   4.262
 3287SOL    HW2 9882   3.883   3.242   4.307
 3288SOL     OW 9883   3.964   2.953   4.610
 3288SOL    HW1 9884   3.978   2.869   4.662
 3288SOL    HW2 9885   3.909   3.017   4.665
 3289SOL     OW 9886   4.330   2.826   3.847
 3289SOL    HW1 9887   4.337   2.910   3.793
 3289SOL    HW2 9888   4.376   2.839   3.935
 3290SOL     OW 9889   3.846   2.505   4.287
 3290SOL    HW1 9890   3.801   2.417   4.304
 3290SOL    HW2 9891   3.845   2.559   4.371
 3291SOL     OW 9892   3.751   3.458   3.841
 3291SOL    HW1 9893   3.732   3.362   3.862
 3291SOL    HW2 9894   3.718   3.516   3.916
 3292SOL     OW 9895   4.337   3.227   4.450
 3292SOL    HW1 9896   4.288   3.140   4.459
 3292SOL    HW2 9897   4.314   3.270   4.363
 3293SOL     OW 9898   4.533   1.866   4.226
 3293SOL    HW1 9899   4.573   1.957   4.217
 3293SOL    HW2 9900   4.433   1.874   4.232
 3294SOL     OW 9901   4.322   2.591   3.994
 3294SOL    HW1 9902   4.346   2.660   3.926
 3294SOL    HW2 9903   4.244   2.624   4.048
 3295SOL     OW 9904   3.800   2.673   4.513
 3295SOL    HW1 9905   3.899   2.661   4.522
 3295SOL    HW2 9906   3.776   2.768   4.534
 3296SOL     OW 9907   4.589   2.210   3.919
 3296SOL    HW1 9908   4.648   2.273   3.870
 3296SOL    HW2 9909   4.608   2.116   3.890
 3297SOL     OW 9910   4.732   3.318   4.201
 3297SOL    HW1 9911   4.686   3.390   4.149
 3297SOL    HW2 9912   4.728   3.338   4.299
 3298SOL     OW 9913   4.075   3.663   4.577
 3298SOL    HW1 9914   4.125   3.577   4.583
 3298SOL    HW2 9915   4.140   3.740   4.574
 3299SOL     OW 9916   4.045   2.805   3.966
 3299SOL    HW1 9917   4.127   2.844   3.924
 3299SOL    HW2 9918   4.018   2.723   3.917
 3300SOL     OW 9919   4.188   3.605   4.047
 3300SOL    HW1 9920   4.221   3.644   4.133
 3300SOL    HW2 9921   4.264   3.598   3.982
 3301SOL     OW 9922   3.973   3.647   4.965
 3301SOL    HW1 9923   4.030   3.582   5.015
 3301SOL    HW2 9924   3.957   3.614   4.872
 3302SOL     OW 9925   4.106   2.562   4.204
 3302SOL    HW1 9926   4.151   2.472   4.201
 3302SOL    HW2 9927   4.012   2.551   4.237
 3303SOL     OW 9928   4.338   1.984   3.841
 3303SOL    HW1 9929   4.436   1.962   3.848
 3303SOL    HW2 9930   4.307   1.967   3.748
 3304SOL     OW 9931   4.646   2.365   4.623
 3304SOL    HW1 9932   4.621   2.356   4.527
 3304SOL    HW2 9933   4.694   2.283   4.654
 3305SOL     OW 9934   4.263   1.926   4.236
 3305SOL    HW1 9935   4.182   1.927   4.294
 3305SOL    HW2 9936   4.266   2.009   4.181
 3306SOL     OW 9937   4.021   1.897   3.895
 3306SOL    HW1 9938   4.070   1.981   3.874
 3306SOL    HW2 9939   4.083   1.832   3.940
 3307SOL     OW 9940   4.951   3.432   4.517
 3307SOL    HW1 9941   4.972   3.506   4.452
 3307SOL    HW2 9942   5.019   3.432   4.590
 3308SOL     OW 9943   4.183   3.014   4.465
 3308SOL    HW1 9944   4.112   2.987   4.530
 3308SOL    HW2 9945   4.157   2.986   4.372
 3309SOL     OW 9946   4.741   1.901   4.477
 3309SOL    HW1 9947   4.669   1.906   4.408
 3309SOL    HW2 9948   4.717   1.832   4.546
 3310SOL     OW 9949   4.212   3.247   3.898
 3310SOL    HW1 9950   4.125   3.232   3.945
 3310SOL    HW2 9951   4.195   3.273   3.803
 3311SOL     OW 9952   4.251   2.118   4.052
 3311SOL    HW1 9953   4.278   2.059   3.977
 3311SOL    HW2 9954   4.251   2.213   4.021
 3312SOL     OW 9955   4.429   2.912   4.092
 3312SOL    HW1 9956   4.415   2.919   4.191
 3312SOL    HW2 9957   4.513   2.861   4.074
 3313SOL     OW 9958   4.091   2.962   4.225
 3313SOL    HW1 9959   4.084   3.045   4.169
 3313SOL    HW2 9960   4.095   2.882   4.165
 3314SOL     OW 9961   4.290   2.399   4.589
 3314SOL    HW1 9962   4.302   2.465   4.515
 3314SOL    HW2 9963   4.336   2.433   4.672
 3315SOL     OW 9964   4.933   2.387   3.999
 3315SOL    HW1 9965   4.946   2.303   4.053
 3315SOL    HW2 9966   4.904   2.461   4.059
 3316SOL     OW 9967   4.031   2.075   4.955
 3316SOL    HW1 9968   4.008   2.112   5.045
 3316SOL    HW2 9969   4.001   1.980   4.949
 3317SOL     OW 9970   4.456   2.496   4.788
 3317SOL    HW1 9971   4.515   2.470   4.712
 3317SOL    HW2 9972   4.428   2.592   4.777
 3318SOL     OW 9973   4.031   1.925   4.342
 3318SOL    HW1 9974   4.020   2.019   4.375
 3318SOL    HW2 9975   4.026   1.862   4.419
 3319SOL     OW 9976   4.747   2.628   4.690
 3319SOL    HW1 9977   4.762   2.649   4.786
 3319SOL    HW2 9978   4.717   2.533   4.681
 3320SOL     OW 9979   4.043   2.672   4.673
 3320SOL    HW1 9980   4.136   2.708   4.678
 3320SOL    HW2 9981   4.037   2.587   4.725
 3321SOL     OW 9982   3.732   3.188   3.924
 3321SOL    HW1 9983   3.639   3.209   3.893
 3321SOL    HW2 9984   3.742   3.089   3.937
 3322SOL     OW 9985   3.812   3.663   4.651
 3322SOL    HW1 9986   3.770   3.577   4.624
 3322SOL    HW2 9987   3.906   3.666   4.617
 3323SOL     OW 9988   4.228   3.430   4.634
 3323SOL    HW1 9989   4.294   3.504   4.643
 3323SOL    HW2 9990   4.272   3.351   4.592
 3324SOL     OW 9991   4.726   2.658   4.962
 3324SOL    HW1 9992   4.767   2.626   5.048
 3324SOL    HW2 9993   4.630   2.631   4.959
 3325SOL     OW 9994   4.539   2.434   4.049
 3325SOL    HW1 9995   4.546   2.345   4.003
 3325SOL    HW2 9996   4.445   2.468   4.041
 3326SOL     OW 9997   4.395   2.326   4.993
 3326SOL    HW1 9998   4.361   2.237   4.963
 3326SOL    HW2 9999   4.421   2.380   4.913
 3327SOL     OW10000   4.197   2.362   3.915
 3327SOL    HW110001   4.258   2.442   3.919
 3327SOL    HW210002   4.102   2.393   3.922
 3328SOL     OW10003   5.004   2.789   4.396
 3328SOL    HW110004   5.064   2.708   4.398
 3328SOL    HW210005   5.044   2.858   4.336
 3329SOL     OW10006   4.396   3.478   3.878
 3329SOL    HW110007   4.405   3.488   3.779
 3329SOL    HW210008   4.356   3.389   3.899
 3330SOL     OW10009   3.987   2.188   4.444
 3330SOL    HW110010   3.908   2.239   4.410
 3330SOL    HW210011   3.978   2.173   4.542
 3331SOL     OW10012   4.314   3.349   4.215
 3331SOL    HW110013   4.356   3.291   4.145
 3331SOL    HW210014   4.270   3.428   4.171
 3332SOL     OW10015   3.979   3.210   4.014
 3332SOL    HW110016   3.883   3.211   3.987
 3332SOL    HW210017   3.991   3.263   4.098
 3333SOL     OW10018   3.799   2.207   3.757
 3333SOL    HW110019   3.707   2.179   3.728
 3333SOL    HW210020   3.830   2.284   3.701
 3334SOL     OW10021   3.796   2.028   4.042
 3334SOL    HW110022   3.779   2.111   3.988
 3334SOL    HW210023   3.886   1.991   4.020
 3335SOL     OW10024   4.949   2.187   4.173
 3335SOL    HW110025   5.014   2.113   4.162
 3335SOL    HW210026   4.969   2.237   4.257
 3336SOL     OW10027   4.318   2.607   4.376
 3336SOL    HW110028   4.368   2.692   4.357
 3336SOL    HW210029   4.230   2.609   4.328
 3337SOL     OW10030   4.583   3.236   3.740
 3337SOL    HW110031   4.537   3.251   3.828
 3337SOL    HW210032   4.627   3.321   3.710
 3338SOL     OW10033   4.385   3.652   4.677
 3338SOL    HW110034   4.339   3.740   4.664
 3338SOL    HW210035   4.484   3.664   4.670
 3339SOL     OW10036   4.583   2.818   4.585
 3339SOL    HW110037   4.637   2.749   4.633
 3339SOL    HW210038   4.551   2.887   4.651
 3340SOL     OW10039   3.803   3.102   4.377
 3340SOL    HW110040   3.802   3.055   4.465
 3340SOL    HW210041   3.885   3.074   4.326
 3341SOL     OW10042   4.152   2.286   4.244
 3341SOL    HW110043   4.182   2.214   4.182
 3341SOL    HW210044   4.113   2.246   4.327
 3342SOL     OW10045   4.536   3.448   4.411
 3342SOL    HW110046   4.568   3.458   4.317
 3342SOL    HW210047   4.457   3.386   4.413
 3343SOL     OW10048   4.494   3.192   4.025
 3343SOL    HW110049   4.448   3.105   4.042
 3343SOL    HW210050   4.585   3.189   4.066
 3344SOL     OW10051   3.763   2.939   4.024
 3344SOL    HW110052   3.862   2.928   4.015
 3344SOL    HW210053   3.723   2.853   4.056
 3345SOL     OW10054   4.599   3.508   4.061
 3345SOL    HW110055   4.522   3.473   4.007
 3345SOL    HW210056   4.567   3.579   4.123
 3346SOL     OW10057   3.954   4.352   0.113
 3346SOL    HW110058   3.861   4.350   0.150
 3346SOL    HW210059   3.955   4.313   0.021
 3347SOL     OW10060   3.949   3.999   0.996
 3347SOL    HW110061   3.984   3.982   1.088
 3347SOL    HW210062   3.861   3.954   0.984
 3348SOL     OW10063   3.743   4.092   0.647
 3348SOL    HW110064   3.661   4.135   0.686
 3348SOL    HW210065   3.715   4.019   0.584
 3349SOL     OW10066   4.492   4.868   1.023
 3349SOL    HW110067   4.414   4.885   1.083
 3349SOL    HW210068   4.526   4.955   0.987
 3350SOL     OW10069   4.574   4.522   1.823
 3350SOL    HW110070   4.570   4.598   1.888
 3350SOL    HW210071   4.596   4.558   1.732
 3351SOL     OW10072   4.409   4.736   0.665
 3351SOL    HW110073   4.478   4.720   0.735
 3351SOL    HW210074   4.336   4.793   0.703
 3352SOL     OW10075   4.162   4.116   1.499
 3352SOL    HW110076   4.244   4.060   1.508
 3352SOL    HW210077   4.081   4.058   1.503
 3353SOL     OW10078   3.846   4.367   0.563
 3353SOL    HW110079   3.801   4.279   0.580
 3353SOL    HW210080   3.845   4.421   0.647
 3354SOL     OW10081   3.837   4.461   1.597
 3354SOL    HW110082   3.925   4.448   1.642
 3354SOL    HW210083   3.824   4.558   1.575
 3355SOL     OW10084   4.533   3.728   0.502
 3355SOL    HW110085   4.573   3.819   0.493
 3355SOL    HW210086   4.433   3.736   0.508
 3356SOL     OW10087   3.921   4.700   1.264
 3356SOL    HW110088   4.010   4.655   1.250
 3356SOL    HW210089   3.848   4.635   1.245
 3357SOL     OW10090   4.041   3.975   1.801
 3357SOL    HW110091   4.112   4.046   1.807
 3357SOL    HW210092   3.953   4.014   1.829
 3358SOL     OW10093   4.322   4.453   0.270
 3358SOL    HW110094   4.346   4.522   0.202
 3358SOL    HW210095   4.244   4.486   0.324
 3359SOL     OW10096   4.531   4.329   1.465
 3359SOL    HW110097   4.484   4.326   1.554
 3359SOL    HW210098   4.480   4.274   1.399
 3360SOL     OW10099   4.715   4.134   1.242
 3360SOL    HW110100   4.638   4.168   1.296
 3360SOL    HW210101   4.681   4.083   1.163
 3361SOL     OW10102   3.800   4.535   0.789
 3361SOL    HW110103   3.899   4.523   0.798
 3361SOL    HW210104   3.776   4.630   0.810
 3362SOL     OW10105   4.589   4.072   0.195
 3362SOL    HW110106   4.648   4.135   0.146
 3362SOL    HW210107   4.608   3.978   0.166
 3363SOL     OW10108   4.274   3.920   0.885
 3363SOL    HW110109   4.269   3.915   0.985
 3363SOL    HW210110   4.276   4.016   0.856
 3364SOL     OW10111   3.926   4.009   1.498
 3364SOL    HW110112   3.846   4.069   1.485
 3364SOL    HW210113   3.916   3.960   1.584
 3365SOL     OW10114   4.106   4.424   0.480
 3365SOL    HW110115   4.151   4.334   0.477
 3365SOL    HW210116   4.012   4.413   0.513
 3366SOL     OW10117   4.338   3.846   0.117
 3366SOL    HW110118   4.436   3.824   0.124
 3366SOL    HW210119   4.307   3.829   0.024
 3367SOL     OW10120   4.505   3.988   1.749
 3367SOL    HW110121   4.572   3.927   1.792
 3367SOL    HW210122   4.432   4.007   1.814
 3368SOL     OW10123   4.646   4.227   0.899
 3368SOL    HW110124   4.621   4.218   0.803
 3368SOL    HW210125   4.694   4.145   0.930
 3369SOL     OW10126   4.263   3.788   0.512
 3369SOL    HW110127   4.182   3.789   0.570
 3369SOL    HW210128   4.266   3.871   0.457
 3370SOL     OW10129   3.802   4.280   1.386
 3370SOL    HW110130   3.894   4.279   1.345
 3370SOL    HW210131   3.796   4.354   1.453
 3371SOL     OW10132   4.285   3.946   1.147
 3371SOL    HW110133   4.323   3.862   1.184
 3371SOL    HW210134   4.197   3.965   1.191
 3372SOL     OW10135   4.741   3.763   0.753
 3372SOL    HW110136   4.669   3.768   0.684
 3372SOL    HW210137   4.717   3.694   0.822
 3373SOL     OW10138   4.251   3.980   0.328
 3373SOL    HW110139   4.278   3.921   0.253
 3373SOL    HW210140   4.251   4.075   0.297
 3374SOL     OW10141   4.639   3.813   1.402
 3374SOL    HW110142   4.664   3.793   1.307
 3374SOL    HW210143   4.711   3.869   1.444
 3375SOL     OW10144   4.704   4.840   1.719
 3375SOL    HW110145   4.605   4.846   1.729
 3375SOL    HW210146   4.727   4.760   1.663
 3376SOL     OW10147   4.134   4.537   1.251
 3376SOL    HW110148   4.220   4.549   1.301
 3376SOL    HW210149   4.092   4.450   1.278
 3377SOL     OW10150   4.290   4.261   0.865
 3377SOL    HW110151   4.302   4.327   0.791
 3377SOL    HW210152   4.336   4.295   0.948
 3378SOL     OW10153   4.126   4.475   1.598
 3378SOL    HW110154   4.194   4.530   1.551
 3378SOL    HW210155   4.166   4.387   1.625
 3379SOL     OW10156   4.737   3.829   1.770
 3379SOL    HW110157   4.743   3.914   1.718
 3379SOL    HW210158   4.769   3.753   1.713
 3380SOL     OW10159   4.228   3.774   1.740
 3380SOL    HW110160   4.186   3.717   1.670
 3380SOL    HW210161   4.162   3.843   1.772
 3381SOL     OW10162   4.297   4.594   1.029
 3381SOL    HW110163   4.341   4.683   1.020
 3381SOL    HW210164   4.234   4.594   1.106
 3382SOL     OW10165   4.933   4.249   0.275
 3382SOL    HW110166   4.946   4.165   0.329
 3382SOL    HW210167   4.904   4.323   0.335
 3383SOL     OW10168   4.031   3.937   1.231
 3383SOL    HW110169   4.008   3.974   1.321
 3383SOL    HW210170   4.001   3.842   1.225
 3384SOL     OW10171   4.456   4.358   1.064
 3384SOL    HW110172   4.515   4.332   0.988
 3384SOL    HW210173   4.428   4.454   1.053
 3385SOL     OW10174   4.031   3.787   0.618
 3385SOL    HW110175   4.020   3.881   0.651
 3385SOL    HW210176   4.026   3.724   0.695
 3386SOL     OW10177   4.747   4.490   0.966
 3386SOL    HW110178   4.762   4.511   1.062
 3386SOL    HW210179   4.717   4.395   0.957
 3387SOL     OW10180   4.074   4.622   1.804
 3387SOL    HW110181   4.150   4.666   1.852
 3387SOL    HW210182   4.109   4.575   1.722
 3388SOL     OW10183   4.043   4.534   0.949
 3388SOL    HW110184   4.136   4.570   0.954
 3388SOL    HW210185   4.037   4.449   1.001
 3389SOL     OW10186   4.063   4.233   1.006
 3389SOL    HW110187   4.011   4.150   0.989
 3389SOL    HW210188   4.140   4.238   0.942
 3390SOL     OW10189   4.726   4.520   1.238
 3390SOL    HW110190   4.767   4.488   1.324
 3390SOL    HW210191   4.630   4.493   1.235
 3391SOL     OW10192   3.764   4.268   1.114
 3391SOL    HW110193   3.849   4.235   1.073
 3391SOL    HW210194   3.777   4.283   1.212
 3392SOL     OW10195   3.913   4.244   1.722
 3392SOL    HW110196   3.972   4.204   1.652
 3392SOL    HW210197   3.855   4.315   1.681
 3393SOL     OW10198   4.539   4.296   0.325
 3393SOL    HW110199   4.546   4.207   0.279
 3393SOL    HW210200   4.445   4.330   0.317
 3394SOL     OW10201   4.395   4.188   1.269
 3394SOL    HW110202   4.361   4.099   1.239
 3394SOL    HW210203   4.421   4.242   1.189
 3395SOL     OW10204   4.197   4.224   0.191
 3395SOL    HW110205   4.258   4.304   0.195
 3395SOL    HW210206   4.102   4.255   0.198
 3396SOL     OW10207   3.883   4.861   1.466
 3396SOL    HW110208   3.905   4.800   1.542
 3396SOL    HW210209   3.893   4.812   1.380
 3397SOL     OW10210   5.026   4.579   0.309
 3397SOL    HW110211   4.940   4.548   0.351
 3397SOL    HW210212   5.022   4.565   0.210
 3398SOL     OW10213   4.627   3.810   0.133
 3398SOL    HW110214   4.678   3.811   0.047
 3398SOL    HW210215   4.683   3.768   0.204
 3399SOL     OW10216   3.987   4.050   0.720
 3399SOL    HW110217   3.908   4.101   0.686
 3399SOL    HW210218   3.978   4.035   0.818
 3400SOL     OW10219   4.640   4.634   0.291
 3400SOL    HW110220   4.703   4.672   0.223
 3400SOL    HW210221   4.680   4.551   0.330
 3401SOL     OW10222   4.738   3.960   0.971
 3401SOL    HW110223   4.730   3.924   0.878
 3401SOL    HW210224   4.736   3.884   1.036
 3402SOL     OW10225   3.829   4.737   1.726
 3402SOL    HW110226   3.752   4.704   1.780
 3402SOL    HW210227   3.914   4.707   1.768
 3403SOL     OW10228   4.396   3.927   1.489
 3403SOL    HW110229   4.486   3.911   1.449
 3403SOL    HW210230   4.404   3.932   1.588
 3404SOL     OW10231   3.799   4.069   0.033
 3404SOL    HW110232   3.707   4.041   0.004
 3404SOL    HW210233   3.830   4.146  -0.023
 3405SOL     OW10234   4.337   4.566   1.431
 3405SOL    HW110235   4.393   4.647   1.414
 3405SOL    HW210236   4.396   4.486   1.434
 3406SOL     OW10237   4.440   4.289   1.708
 3406SOL    HW110238   4.459   4.354   1.782
 3406SOL    HW210239   4.500   4.209   1.717
 3407SOL     OW10240   4.949   4.049   0.449
 3407SOL    HW110241   5.014   3.975   0.438
 3407SOL    HW210242   4.969   4.099   0.533
 3408SOL     OW10243   4.318   4.469   0.652
 3408SOL    HW110244   4.368   4.554   0.633
 3408SOL    HW210245   4.230   4.471   0.604
 3409SOL     OW10246   4.807   4.708   0.087
 3409SOL    HW110247   4.784   4.761   0.005
 3409SOL    HW210248   4.888   4.652   0.068
 3410SOL     OW10249   4.152   4.148   0.520
 3410SOL    HW110250   4.182   4.076   0.458
 3410SOL    HW210251   4.113   4.108   0.603
 3411SOL     OW10252   4.041   4.271   1.280
 3411SOL    HW110253   4.079   4.212   1.352
 3411SOL    HW210254   4.081   4.245   1.192
 3412SOL     OW10255   4.725   3.758   1.154
 3412SOL    HW110256   4.662   3.686   1.123
 3412SOL    HW210257   4.818   3.722   1.154
 3413SOL     OW10258   3.954   4.352   1.975
 3413SOL    HW110259   3.861   4.350   2.012
 3413SOL    HW210260   3.955   4.313   1.883
 3414SOL     OW10261   3.949   3.999   2.858
 3414SOL    HW110262   3.984   3.982   2.950
 3414SOL    HW210263   3.861   3.954   2.846
 3415SOL     OW10264   3.743   4.092   2.509
 3415SOL    HW110265   3.661   4.135   2.548
 3415SOL    HW210266   3.715   4.019   2.446
 3416SOL     OW10267   4.492   4.868   2.885
 3416SOL    HW110268   4.414   4.885   2.945
 3416SOL    HW210269   4.526   4.955   2.849
 3417SOL     OW10270   4.574   4.522   3.685
 3417SOL    HW110271   4.570   4.598   3.750
 3417SOL    HW210272   4.596   4.558   3.594
 3418SOL     OW10273   4.409   4.736   2.527
 3418SOL    HW110274   4.478   4.720   2.597
 3418SOL    HW210275   4.336   4.793   2.565
 3419SOL     OW10276   4.162   4.116   3.361
 3419SOL    HW110277   4.244   4.060   3.370
 3419SOL    HW210278   4.081   4.058   3.365
 3420SOL     OW10279   3.846   4.367   2.425
 3420SOL    HW110280   3.801   4.279   2.442
 3420SOL    HW210281   3.845   4.421   2.509
 3421SOL     OW10282   3.837   4.461   3.459
 3421SOL    HW110283   3.925   4.448   3.504
 3421SOL    HW210284   3.824   4.558   3.437
 3422SOL     OW10285   4.533   3.728   2.364
 3422SOL    HW110286   4.573   3.819   2.355
 3422SOL    HW210287   4.433   3.736   2.370
 3423SOL     OW10288   3.921   4.700   3.126
 3423SOL    HW110289   4.010   4.655   3.112
 3423SOL    HW210290   3.848   4.635   3.107
 3424SOL     OW10291   4.041   3.975   3.663
 3424SOL    HW110292   4.112   4.046   3.669
 3424SOL    HW210293   3.953   4.014   3.691
 3425SOL     OW10294   4.322   4.453   2.132
 3425SOL    HW110295   4.346   4.522   2.064
 3425SOL    HW210296   4.244   4.486   2.186
 3426SOL     OW10297   4.531   4.329   3.327
 3426SOL    HW110298   4.484   4.326   3.416
 3426SOL    HW210299   4.480   4.274   3.261
 3427SOL     OW10300   4.715   4.134   3.104
 3427SOL    HW110301   4.638   4.168   3.158
 3427SOL    HW210302   4.681   4.083   3.025
 3428SOL     OW10303   3.800   4.535   2.651
 3428SOL    HW110304   3.899   4.523   2.660
 3428SOL    HW210305   3.776   4.630   2.672
 3429SOL     OW10306   4.589   4.072   2.057
 3429SOL    HW110307   4.648   4.135   2.008
 3429SOL    HW210308   4.608   3.978   2.028
 3430SOL     OW10309   4.274   3.920   2.747
 3430SOL    HW110310   4.269   3.915   2.847
 3430SOL    HW210311   4.276   4.016   2.718
 3431SOL     OW10312   3.926   4.009   3.360
 3431SOL    HW110313   3.846   4.069   3.347
 3431SOL    HW210314   3.916   3.960   3.446
 3432SOL     OW10315   4.106   4.424   2.342
 3432SOL    HW110316   4.151   4.334   2.339
 3432SOL    HW210317   4.012   4.413   2.375
 3433SOL     OW10318   4.338   3.846   1.979
 3433SOL    HW110319   4.436   3.824   1.986
 3433SOL    HW210320   4.307   3.829   1.886
 3434SOL     OW10321   4.505   3.988   3.611
 3434SOL    HW110322   4.572   3.927   3.654
 3434SOL    HW210323   4.432   4.007   3.676
 3435SOL     OW10324   4.646   4.227   2.761
 3435SOL    HW110325   4.621   4.218   2.665
 3435SOL    HW210326   4.694   4.145   2.792
 3436SOL     OW10327   4.263   3.788   2.374
 3436SOL    HW110328   4.182   3.789   2.432
 3436SOL    HW210329   4.266   3.871   2.319
 3437SOL     OW10330   4.021   3.759   2.033
 3437SOL    HW110331   4.070   3.843   2.012
 3437SOL    HW210332   4.083   3.694   2.078
 3438SOL     OW10333   3.802   4.280   3.248
 3438SOL    HW110334   3.894   4.279   3.207
 3438SOL    HW210335   3.796   4.354   3.315
 3439SOL     OW10336   4.285   3.946   3.009
 3439SOL    HW110337   4.323   3.862   3.046
 3439SOL    HW210338   4.197   3.965   3.053
 3440SOL     OW10339   4.741   3.763   2.615
 3440SOL    HW110340   4.669   3.768   2.546
 3440SOL    HW210341   4.717   3.694   2.684
 3441SOL     OW10342   4.251   3.980   2.190
 3441SOL    HW110343   4.278   3.921   2.115
 3441SOL    HW210344   4.251   4.075   2.159
 3442SOL     OW10345   4.639   3.813   3.264
 3442SOL    HW110346   4.664   3.793   3.169
 3442SOL    HW210347   4.711   3.869   3.306
 3443SOL     OW10348   4.704   4.840   3.581
 3443SOL    HW110349   4.605   4.846   3.591
 3443SOL    HW210350   4.727   4.760   3.525
 3444SOL     OW10351   4.134   4.537   3.113
 3444SOL    HW110352   4.220   4.549   3.163
 3444SOL    HW210353   4.092   4.450   3.140
 3445SOL     OW10354   4.290   4.261   2.727
 3445SOL    HW110355   4.302   4.327   2.653
 3445SOL    HW210356   4.336   4.295   2.810
 3446SOL     OW10357   4.126   4.475   3.460
 3446SOL    HW110358   4.194   4.530   3.413
 3446SOL    HW210359   4.166   4.387   3.487
 3447SOL     OW10360   4.737   3.829   3.632
 3447SOL    HW110361   4.743   3.914   3.580
 3447SOL    HW210362   4.769   3.753   3.575
 3448SOL     OW10363   4.228   3.774   3.602
 3448SOL    HW110364   4.186   3.717   3.532
 3448SOL    HW210365   4.162   3.843   3.634
 3449SOL     OW10366   4.297   4.594   2.891
 3449SOL    HW110367   4.341   4.683   2.882
 3449SOL    HW210368   4.234   4.594   2.968
 3450SOL     OW10369   4.933   4.249   2.137
 3450SOL    HW110370   4.946   4.165   2.191
 3450SOL    HW210371   4.904   4.323   2.197
 3451SOL     OW10372   4.031   3.937   3.093
 3451SOL    HW110373   4.008   3.974   3.183
 3451SOL    HW210374   4.001   3.842   3.087
 3452SOL     OW10375   4.456   4.358   2.926
 3452SOL    HW110376   4.515   4.332   2.850
 3452SOL    HW210377   4.428   4.454   2.915
 3453SOL     OW10378   4.031   3.787   2.480
 3453SOL    HW110379   4.020   3.881   2.513
 3453SOL    HW210380   4.026   3.724   2.557
 3454SOL     OW10381   4.747   4.490   2.828
 3454SOL    HW110382   4.762   4.511   2.924
 3454SOL    HW210383   4.717   4.395   2.819
 3455SOL     OW10384   4.074   4.622   3.666
 3455SOL    HW110385   4.150   4.666   3.714
 3455SOL    HW210386   4.109   4.575   3.584
 3456SOL     OW10387   4.043   4.534   2.811
 3456SOL    HW110388   4.136   4.570   2.816
 3456SOL    HW210389   4.037   4.449   2.863
 3457SOL     OW10390   4.063   4.233   2.868
 3457SOL    HW110391   4.011   4.150   2.851
 3457SOL    HW210392   4.140   4.238   2.804
 3458SOL     OW10393   4.726   4.520   3.100
 3458SOL    HW110394   4.767   4.488   3.186
 3458SOL    HW210395   4.630   4.493   3.097
 3459SOL     OW10396   3.764   4.268   2.976
 3459SOL    HW110397   3.849   4.235   2.935
 3459SOL    HW210398   3.777   4.283   3.074
 3460SOL     OW10399   3.913   4.244   3.584
 3460SOL    HW110400   3.972   4.204   3.514
 3460SOL    HW210401   3.855   4.315   3.543
 3461SOL     OW10402   4.539   4.296   2.187
 3461SOL    HW110403   4.546   4.207   2.141
 3461SOL    HW210404   4.445   4.330   2.179
 3462SOL     OW10405   4.395   4.188   3.131
 3462SOL    HW110406   4.361   4.099   3.101
 3462SOL    HW210407   4.421   4.242   3.051
 3463SOL     OW10408   4.197   4.224   2.053
 3463SOL    HW110409   4.258   4.304   2.057
 3463SOL    HW210410   4.102   4.255   2.060
 3464SOL     OW10411   3.883   4.861   3.328
 3464SOL    HW110412   3.905   4.800   3.404
 3464SOL    HW210413   3.893   4.812   3.242
 3465SOL     OW10414   5.026   4.579   2.171
 3465SOL    HW110415   4.940   4.548   2.213
 3465SOL    HW210416   5.022   4.565   2.072
 3466SOL     OW10417   3.987   4.050   2.582
 3466SOL    HW110418   3.908   4.101   2.548
 3466SOL    HW210419   3.978   4.035   2.680
 3467SOL     OW10420   4.640   4.634   2.153
 3467SOL    HW110421   4.703   4.672   2.085
 3467SOL    HW210422   4.680   4.551   2.192
 3468SOL     OW10423   4.738   3.960   2.833
 3468SOL    HW110424   4.730   3.924   2.740
 3468SOL    HW210425   4.736   3.884   2.898
 3469SOL     OW10426   3.829   4.737   3.588
 3469SOL    HW110427   3.752   4.704   3.642
 3469SOL    HW210428   3.914   4.707   3.630
 3470SOL     OW10429   4.396   3.927   3.351
 3470SOL    HW110430   4.486   3.911   3.311
 3470SOL    HW210431   4.404   3.932   3.450
 3471SOL     OW10432   3.799   4.069   1.895
 3471SOL    HW110433   3.707   4.041   1.866
 3471SOL    HW210434   3.830   4.146   1.839
 3472SOL     OW10435   3.796   3.890   2.180
 3472SOL    HW110436   3.779   3.973   2.126
 3472SOL    HW210437   3.886   3.853   2.158
 3473SOL     OW10438   4.337   4.566   3.293
 3473SOL    HW110439   4.393   4.647   3.276
 3473SOL    HW210440   4.396   4.486   3.296
 3474SOL     OW10441   4.440   4.289   3.570
 3474SOL    HW110442   4.459   4.354   3.644
 3474SOL    HW210443   4.500   4.209   3.579
 3475SOL     OW10444   4.949   4.049   2.311
 3475SOL    HW110445   5.014   3.975   2.300
 3475SOL    HW210446   4.969   4.099   2.395
 3476SOL     OW10447   4.318   4.469   2.514
 3476SOL    HW110448   4.368   4.554   2.495
 3476SOL    HW210449   4.230   4.471   2.466
 3477SOL     OW10450   4.152   4.148   2.382
 3477SOL    HW110451   4.182   4.076   2.320
 3477SOL    HW210452   4.113   4.108   2.465
 3478SOL     OW10453   4.041   4.271   3.142
 3478SOL    HW110454   4.079   4.212   3.214
 3478SOL    HW210455   4.081   4.245   3.054
 3479SOL     OW10456   4.725   3.758   3.016
 3479SOL    HW110457   4.662   3.686   2.985
 3479SOL    HW210458   4.818   3.722   3.016
 3480SOL     OW10459   3.954   4.352   3.837
 3480SOL    HW110460   3.861   4.350   3.874
 3480SOL    HW210461   3.955   4.313   3.745
 3481SOL     OW10462   3.949   3.999   4.720
 3481SOL    HW110463   3.984   3.982   4.812
 3481SOL    HW210464   3.861   3.954   4.708
 3482SOL     OW10465   3.743   4.092   4.371
 3482SOL    HW110466   3.661   4.135   4.410
 3482SOL    HW210467   3.715   4.019   4.308
 3483SOL     OW10468   4.409   4.736   4.389
 3483SOL    HW110469   4.478   4.720   4.459
 3483SOL    HW210470   4.336   4.793   4.427
 3484SOL     OW10471   3.846   4.367   4.287
 3484SOL    HW110472   3.801   4.279   4.304
 3484SOL    HW210473   3.845   4.421   4.371
 3485SOL     OW10474   4.337   5.089   4.450
 3485SOL    HW110475   4.288   5.002   4.459
 3485SOL    HW210476   4.314   5.132   4.363
 3486SOL     OW10477   4.533   3.728   4.226
 3486SOL    HW110478   4.573   3.819   4.217
 3486SOL    HW210479   4.433   3.736   4.232
 3487SOL     OW10480   4.322   4.453   3.994
 3487SOL    HW110481   4.346   4.522   3.926
 3487SOL    HW210482   4.244   4.486   4.048
 3488SOL     OW10483   3.800   4.535   4.513
 3488SOL    HW110484   3.899   4.523   4.522
 3488SOL    HW210485   3.776   4.630   4.534
 3489SOL     OW10486   4.589   4.072   3.919
 3489SOL    HW110487   4.648   4.135   3.870
 3489SOL    HW210488   4.608   3.978   3.890
 3490SOL     OW10489   4.106   4.424   4.204
 3490SOL    HW110490   4.151   4.334   4.201
 3490SOL    HW210491   4.012   4.413   4.237
 3491SOL     OW10492   4.338   3.846   3.841
 3491SOL    HW110493   4.436   3.824   3.848
 3491SOL    HW210494   4.307   3.829   3.748
 3492SOL     OW10495   4.646   4.227   4.623
 3492SOL    HW110496   4.621   4.218   4.527
 3492SOL    HW210497   4.694   4.145   4.654
 3493SOL     OW10498   4.263   3.788   4.236
 3493SOL    HW110499   4.182   3.789   4.294
 3493SOL    HW210500   4.266   3.871   4.181
 3494SOL     OW10501   4.021   3.759   3.895
 3494SOL    HW110502   4.070   3.843   3.874
 3494SOL    HW210503   4.083   3.694   3.940
 3495SOL     OW10504   4.741   3.763   4.477
 3495SOL    HW110505   4.669   3.768   4.408
 3495SOL    HW210506   4.717   3.694   4.546
 3496SOL     OW10507   4.251   3.980   4.052
 3496SOL    HW110508   4.278   3.921   3.977
 3496SOL    HW210509   4.251   4.075   4.021
 3497SOL     OW10510   4.290   4.261   4.589
 3497SOL    HW110511   4.302   4.327   4.515
 3497SOL    HW210512   4.336   4.295   4.672
 3498SOL     OW10513   4.297   4.594   4.753
 3498SOL    HW110514   4.341   4.683   4.744
 3498SOL    HW210515   4.234   4.594   4.830
 3499SOL     OW10516   4.933   4.249   3.999
 3499SOL    HW110517   4.946   4.165   4.053
 3499SOL    HW210518   4.904   4.323   4.059
 3500SOL     OW10519   4.031   3.937   4.955
 3500SOL    HW110520   4.008   3.974   5.045
 3500SOL    HW210521   4.001   3.842   4.949
 3501SOL     OW10522   4.456   4.358   4.788
 3501SOL    HW110523   4.515   4.332   4.712
 3501SOL    HW210524   4.428   4.454   4.777
 3502SOL     OW10525   4.031   3.787   4.342
 3502SOL    HW110526   4.020   3.881   4.375
 3502SOL    HW210527   4.026   3.724   4.419
 3503SOL     OW10528   4.747   4.490   4.690
 3503SOL    HW110529   4.762   4.511   4.786
 3503SOL    HW210530   4.717   4.395   4.681
 3504SOL     OW10531   4.792   5.057   4.573
 3504SOL    HW110532   4.799   4.973   4.518
 3504SOL    HW210533   4.854   5.126   4.537
 3505SOL     OW10534   4.043   4.534   4.673
 3505SOL    HW110535   4.136   4.570   4.678
 3505SOL    HW210536   4.037   4.449   4.725
 3506SOL     OW10537   4.539   4.296   4.049
 3506SOL    HW110538   4.546   4.207   4.003
 3506SOL    HW210539   4.445   4.330   4.041
 3507SOL     OW10540   4.395   4.188   4.993
 3507SOL    HW110541   4.361   4.099   4.963
 3507SOL    HW210542   4.421   4.242   4.913
 3508SOL     OW10543   4.197   4.224   3.915
 3508SOL    HW110544   4.258   4.304   3.919
 3508SOL    HW210545   4.102   4.255   3.922
 3509SOL     OW10546   5.026   4.579   4.033
 3509SOL    HW110547   4.940   4.548   4.075
 3509SOL    HW210548   5.022   4.565   3.934
 3510SOL     OW10549   3.987   4.050   4.444
 3510SOL    HW110550   3.908   4.101   4.410
 3510SOL    HW210551   3.978   4.035   4.542
 3511SOL     OW10552   4.640   4.634   4.015
 3511SOL    HW110553   4.703   4.672   3.947
 3511SOL    HW210554   4.680   4.551   4.054
 3512SOL     OW10555   3.799   4.069   3.757
 3512SOL    HW110556   3.707   4.041   3.728
 3512SOL    HW210557   3.830   4.146   3.701
 3513SOL     OW10558   3.796   3.890   4.042
 3513SOL    HW110559   3.779   3.973   3.988
 3513SOL    HW210560   3.886   3.853   4.020
 3514SOL     OW10561   4.949   4.049   4.173
 3514SOL    HW110562   5.014   3.975   4.162
 3514SOL    HW210563   4.969   4.099   4.257
 3515SOL     OW10564   4.318   4.469   4.376
 3515SOL    HW110565   4.368   4.554   4.357
 3515SOL    HW210566   4.230   4.471   4.328
 3516SOL     OW10567   4.152   4.148   4.244
 3516SOL    HW110568   4.182   4.076   4.182
 3516SOL    HW210569   4.113   4.108   4.327
   4.76410   4.76410   4.76410
